<event>
 7    1  0.2412631E-010  0.9869601E+02  0.7561462E-02  0.1283062E+00
          2   -1    0    0  501    0  0.00000000000E+00  0.00000000000E+00  0.38573630809E+03  0.38573630809E+03  0.00000000000E+00 0. -1.
         -2   -1    0    0    0  501 -0.00000000000E+00 -0.00000000000E+00 -0.55333259164E+02  0.55333259164E+02  0.00000000000E+00 0.  1.
         25    2    1    2    0    0 -0.21400920058E+02  0.34203301614E+02  0.30037841052E+03  0.32786533073E+03  0.12506246586E+03 0.  0.
          5    1    3    3  502    0 -0.62362323860E+02  0.29668626205E+02  0.90384825335E+02  0.11382519874E+03  0.41800000000E+01 0. -1.
         -5    1    3    3    0  502  0.40961403802E+02  0.45346754094E+01  0.20999358519E+03  0.21404013199E+03  0.41800000000E+01 0. -1.
        -11    1    1    2    0    0 -0.21042763537E+02 -0.38751119401E+02 -0.19160463372E+02  0.48078794793E+02  0.00000000000E+00 0.  1.
         11    1    1    2    0    0  0.42443683595E+02  0.45478177865E+01  0.49185101779E+02  0.65125441732E+02  0.00000000000E+00 0. -1.
</event>
<event>
 6    1  0.2412631E-010  0.6669436E+02  0.7561462E-02  0.1371709E+00
          1   -1    0    0  501    0  0.00000000000E+00  0.00000000000E+00  0.49521717053E+03  0.49521717053E+03  0.00000000000E+00 0. -1.
         -1   -1    0    0    0  501 -0.00000000000E+00 -0.00000000000E+00 -0.26672092205E+02  0.26672092205E+02  0.00000000000E+00 0.  1.
          5    1    1    2  502    0 -0.95743240449E+01 -0.45745217627E+01  0.21744955469E+03  0.21774842173E+03  0.41800000000E+01 0. -1.
         -5    1    1    2    0  502  0.17164959616E+02 -0.25288205515E+02 -0.44318469888E+01  0.31164769284E+02  0.41800000000E+01 0. -1.
        -11    1    1    2    0    0 -0.37298950192E+02 -0.12549868558E+02  0.69417353813E+02  0.79796490503E+02  0.00000000000E+00 0.  1.
         11    1    1    2    0    0  0.29708314620E+02  0.42412595835E+02  0.18611001682E+03  0.19317958123E+03  0.00000000000E+00 0. -1.
</event>
<event>
 7    1  0.2412631E-010  0.9823798E+02  0.7561462E-02  0.1284045E+00
          2   -1    0    0  501    0  0.00000000000E+00  0.00000000000E+00  0.19695366728E+03  0.19695366728E+03  0.00000000000E+00 0. -1.
         -2   -1    0    0    0  501 -0.00000000000E+00 -0.00000000000E+00 -0.88764937004E+02  0.88764937004E+02  0.00000000000E+00 0.  1.
         25    2    1    2    0    0  0.53975778011E+01 -0.75611258750E+02  0.69319085775E+02  0.16188263635E+03  0.12511856778E+03 0.  0.
          5    1    3    3  502    0 -0.24586292511E+02 -0.48365577607E+02 -0.24444663866E+02  0.59655082501E+02  0.41800000000E+01 0.  1.
         -5    1    3    3    0  502  0.29983870313E+02 -0.27245681143E+02  0.93763749640E+02  0.10222755385E+03  0.41800000000E+01 0.  1.
        -11    1    1    2    0    0 -0.35779641197E+02  0.50631040968E+02 -0.81535367210E+01  0.62531313714E+02  0.00000000000E+00 0.  1.
         11    1    1    2    0    0  0.30382063396E+02  0.24980217782E+02  0.47023181225E+02  0.61304654221E+02  0.00000000000E+00 0. -1.
</event>
<event>
 7    1  0.2412631E-010  0.2465720E+03  0.7561462E-02  0.1115491E+00
          2   -1    0    0  501    0  0.00000000000E+00  0.00000000000E+00  0.56988458192E+03  0.56988458192E+03  0.00000000000E+00 0.  1.
         -2   -1    0    0    0  501 -0.00000000000E+00 -0.00000000000E+00 -0.16874663611E+03  0.16874663611E+03  0.00000000000E+00 0. -1.
         25    2    1    2    0    0  0.22749050581E+03 -0.44983220784E+02  0.41242876047E+03  0.48941517545E+03  0.12511718954E+03 0.  0.
          5    1    3    3  502    0  0.12562540280E+03 -0.65403211626E+02  0.32130313006E+03  0.35115878987E+03  0.41800000000E+01 0. -1.
         -5    1    3    3    0  502  0.10186510301E+03  0.20419990841E+02  0.91125630409E+02  0.13825638558E+03  0.41800000000E+01 0. -1.
        -11    1    1    2    0    0 -0.19507965930E+03  0.38630078183E+01 -0.19994876492E+02  0.19613972415E+03  0.00000000000E+00 0.  1.
         11    1    1    2    0    0 -0.32410846507E+02  0.41120212966E+02  0.87040618381E+01  0.53076318431E+02  0.00000000000E+00 0. -1.
</event>
<event>
 6    1  0.2412631E-010  0.1629311E+03  0.7561462E-02  0.1185427E+00
         -3   -1    0    0    0  501 -0.00000000000E+00  0.00000000000E+00  0.84111784153E+03  0.84111784153E+03  0.00000000000E+00 0.  1.
          3   -1    0    0  501    0  0.00000000000E+00 -0.00000000000E+00 -0.46199207950E+02  0.46199207950E+02  0.00000000000E+00 0. -1.
          5    1    1    2  502    0 -0.18951302776E+02  0.16770822662E+02  0.17621863641E+03  0.17807552495E+03  0.41800000000E+01 0.  1.
         -5    1    1    2    0  502 -0.10645324349E+03  0.70872074021E+02  0.10458089324E+03  0.16525670805E+03  0.41800000000E+01 0.  1.
        -11    1    1    2    0    0  0.10490394544E+03 -0.27114271401E+02  0.25428186122E+03  0.27640420841E+03  0.00000000000E+00 0. -1.
         11    1    1    2    0    0  0.20500600822E+02 -0.60528625282E+02  0.25983724271E+03  0.26758060807E+03  0.00000000000E+00 0.  1.
</event>
<event>
 7    1  0.2412631E-010  0.1447483E+03  0.7561462E-02  0.1207079E+00
          1   -1    0    0  501    0  0.00000000000E+00  0.00000000000E+00  0.71819650352E+03  0.71819650352E+03  0.00000000000E+00 0. -1.
         -1   -1    0    0    0  501 -0.00000000000E+00 -0.00000000000E+00 -0.32896868269E+02  0.32896868269E+02  0.00000000000E+00 0.  1.
         25    2    1    2    0    0  0.84109520192E+02 -0.57004988458E+02  0.44404492766E+03  0.47237636214E+03  0.12505818497E+03 0.  0.
          5    1    3    3  502    0  0.40161272508E+02  0.37318505297E+02  0.19051052891E+03  0.19828598708E+03  0.41800000000E+01 0. -1.
         -5    1    3    3    0  502  0.43948247684E+02 -0.94323493755E+02  0.25353439875E+03  0.27409037505E+03  0.41800000000E+01 0. -1.
        -11    1    1    2    0    0 -0.51861409844E+02  0.76697298728E+02  0.11911223884E+03  0.15086353736E+03  0.00000000000E+00 0.  1.
         11    1    1    2    0    0 -0.32248110347E+02 -0.19692310270E+02  0.12214246875E+03  0.12785347229E+03  0.00000000000E+00 0. -1.
</event>
<event>
 7    1  0.2412631E-010  0.1223908E+03  0.7561462E-02  0.1239204E+00
         -2   -1    0    0    0  501 -0.00000000000E+00  0.00000000000E+00  0.34538672062E+03  0.34538672062E+03  0.00000000000E+00 0.  1.
          2   -1    0    0  501    0  0.00000000000E+00 -0.00000000000E+00 -0.50639022823E+02  0.50639022823E+02  0.00000000000E+00 0. -1.
         25    2    1    2    0    0  0.61838032906E+01  0.55686108151E+02  0.10587140087E+03  0.17322389533E+03  0.12513425720E+03 0.  0.
          5    1    3    3  502    0 -0.34488969676E+01 -0.39489946120E+02  0.19956855839E+02  0.44576891209E+02  0.41800000000E+01 0. -1.
         -5    1    3    3    0  502  0.96327002582E+01  0.95176054271E+02  0.85914545028E+02  0.12864700412E+03  0.41800000000E+01 0. -1.
        -11    1    1    2    0    0 -0.33499531117E+02  0.12467284090E+02  0.10706464826E+03  0.11287378201E+03  0.00000000000E+00 0.  1.
         11    1    1    2    0    0  0.27315727826E+02 -0.68153392241E+02  0.81811648673E+02  0.10992806611E+03  0.00000000000E+00 0. -1.
</event>
<event>
 7    1  0.2412631E-010  0.9594738E+02  0.7561462E-02  0.1289056E+00
          2   -1    0    0  501    0  0.00000000000E+00  0.00000000000E+00  0.41966685634E+03  0.41966685634E+03  0.00000000000E+00 0. -1.
         -2   -1    0    0    0  501 -0.00000000000E+00 -0.00000000000E+00 -0.26120533446E+02  0.26120533446E+02  0.00000000000E+00 0.  1.
         25    2    1    2    0    0 -0.23537637625E+02 -0.17235656790E+02  0.24557745932E+03  0.27712861363E+03  0.12506355071E+03 0.  0.
          5    1    3    3  502    0  0.39123180370E+02  0.30132908159E+02  0.87464264017E+02  0.10052902703E+03  0.41800000000E+01 0. -1.
         -5    1    3    3    0  502 -0.62660817995E+02 -0.47368564949E+02  0.15811319530E+03  0.17659958660E+03  0.41800000000E+01 0. -1.
        -11    1    1    2    0    0  0.42413456158E+02  0.12400838009E+02  0.14132444941E+03  0.14807188136E+03  0.00000000000E+00 0. -1.
         11    1    1    2    0    0 -0.18875818533E+02  0.48348187806E+01  0.66444141628E+01  0.20586894800E+02  0.00000000000E+00 0.  1.
</event>
<event>
 7    1  0.2412631E-010  0.1464530E+03  0.7561462E-02  0.1204901E+00
         -2   -1    0    0    0  501 -0.00000000000E+00  0.00000000000E+00  0.28965897468E+02  0.28965897468E+02  0.00000000000E+00 0. -1.
          2   -1    0    0  501    0  0.00000000000E+00 -0.00000000000E+00 -0.91195433914E+03  0.91195433914E+03  0.00000000000E+00 0.  1.
         25    2    1    2    0    0 -0.75214174592E+02  0.76343160336E+02 -0.31160487263E+03  0.35247486476E+03  0.12512187437E+03 0.  0.
          5    1    3    3  502    0 -0.43575727572E+02  0.10221032331E+03 -0.27796346833E+03  0.29937761498E+03  0.41800000000E+01 0.  1.
         -5    1    3    3    0  502 -0.31638447020E+02 -0.25867162973E+02 -0.33641404301E+02  0.53097249774E+02  0.41800000000E+01 0.  1.
        -11    1    1    2    0    0 -0.94518470655E+00  0.18766939241E+02 -0.81044036300E+02  0.83193913253E+02  0.00000000000E+00 0. -1.
         11    1    1    2    0    0  0.76159359299E+02 -0.95110099578E+02 -0.49033953274E+03  0.50525145860E+03  0.00000000000E+00 0.  1.
</event>
<event>
 6    1  0.2412631E-010  0.1026858E+03  0.7561462E-02  0.1274747E+00
         -2   -1    0    0    0  501 -0.00000000000E+00  0.00000000000E+00  0.20956083900E+02  0.20956083900E+02  0.00000000000E+00 0.  1.
          2   -1    0    0  501    0  0.00000000000E+00 -0.00000000000E+00 -0.10833344975E+04  0.10833344975E+04  0.00000000000E+00 0. -1.
          5    1    1    2  502    0  0.19037251830E+02 -0.48350452400E+02 -0.75086545409E+03  0.75267296068E+03  0.41800000000E+01 0. -1.
         -5    1    1    2    0  502 -0.37039594896E+02 -0.25614973928E+02 -0.88920404201E+02  0.99761561549E+02  0.41800000000E+01 0. -1.
        -11    1    1    2    0    0 -0.29100801573E+02  0.15622976904E+02 -0.27944777388E+02  0.43264819921E+02  0.00000000000E+00 0.  1.
         11    1    1    2    0    0  0.47103144639E+02  0.58342449424E+02 -0.19464777794E+03  0.20859123927E+03  0.00000000000E+00 0. -1.
</event>
<event>
 6    1  0.2412631E-010  0.1099865E+03  0.7561462E-02  0.1260595E+00
          2   -1    0    0  501    0  0.00000000000E+00  0.00000000000E+00  0.51578079355E+03  0.51578079355E+03  0.00000000000E+00 0.  1.
         -2   -1    0    0    0  501 -0.00000000000E+00 -0.00000000000E+00 -0.40038604542E+02  0.40038604542E+02  0.00000000000E+00 0. -1.
          5    1    1    2  502    0 -0.66849274746E+01 -0.51615083637E+02  0.21701517677E+03  0.22320811917E+03  0.41800000000E+01 0.  1.
         -5    1    1    2    0  502 -0.71287133792E+02  0.44016194413E+02  0.14078231725E+03  0.16387926673E+03  0.41800000000E+01 0.  1.
        -11    1    1    2    0    0  0.53769498880E+02 -0.90118168422E+01  0.12683896466E+03  0.13805975086E+03  0.00000000000E+00 0. -1.
         11    1    1    2    0    0  0.24202562387E+02  0.16610706067E+02 -0.88942696693E+01  0.30672261330E+02  0.00000000000E+00 0.  1.
</event>
<event>
 6    1  0.2412631E-010  0.1380791E+03  0.7561462E-02  0.1215937E+00
          1   -1    0    0  501    0  0.00000000000E+00  0.00000000000E+00  0.97656369806E+03  0.97656369806E+03  0.00000000000E+00 0. -1.
         -1   -1    0    0    0  501 -0.00000000000E+00 -0.00000000000E+00 -0.20416963390E+02  0.20416963390E+02  0.00000000000E+00 0.  1.
          5    1    1    2  502    0 -0.40508550401E+02 -0.16566373428E+02  0.11352301455E+03  0.12173879668E+03  0.41800000000E+01 0. -1.
         -5    1    1    2    0  502  0.93860100602E+02 -0.53230618235E+02  0.35671202487E+03  0.37269848174E+03  0.41800000000E+01 0. -1.
        -11    1    1    2    0    0 -0.61349561536E+02  0.79677942971E+01  0.17974043338E+03  0.19008913130E+03  0.00000000000E+00 0.  1.
         11    1    1    2    0    0  0.79980113338E+01  0.61829197366E+02  0.30617126186E+03  0.31245425173E+03  0.00000000000E+00 0. -1.
</event>
<event>
 6    1  0.2412631E-010  0.9688905E+02  0.7561462E-02  0.1286977E+00
          2   -1    0    0  501    0  0.00000000000E+00  0.00000000000E+00  0.31568501258E+03  0.31568501258E+03  0.00000000000E+00 0. -1.
         -2   -1    0    0    0  501 -0.00000000000E+00 -0.00000000000E+00 -0.42393880032E+02  0.42393880032E+02  0.00000000000E+00 0.  1.
          5    1    1    2  502    0 -0.16935031515E+02  0.38339386975E+02  0.12041977547E+03  0.12757389471E+03  0.41800000000E+01 0. -1.
         -5    1    1    2    0  502  0.50187354333E+02 -0.52076634074E+02  0.55266503991E+02  0.91118632643E+02  0.41800000000E+01 0. -1.
        -11    1    1    2    0    0  0.69935633315E+01  0.33608378017E+02  0.27380742451E+01  0.34437335141E+02  0.00000000000E+00 0. -1.
         11    1    1    2    0    0 -0.40245886149E+02 -0.19871130917E+02  0.94866778835E+02  0.10494903012E+03  0.00000000000E+00 0.  1.
</event>
<event>
 7    1  0.2836886E-010  0.1202936E+03  0.7561462E-02  0.1242613E+00
          4   -1    0    0  501    0  0.00000000000E+00  0.00000000000E+00  0.36984010258E+03  0.36984010258E+03  0.00000000000E+00 0. -1.
         -4   -1    0    0    0  501 -0.00000000000E+00 -0.00000000000E+00 -0.47615988399E+02  0.47615988399E+02  0.00000000000E+00 0.  1.
         25    2    1    2    0    0 -0.60507399366E+02 -0.48898008889E+02  0.17152279835E+03  0.22612176306E+03  0.12513520978E+03 0.  0.
          5    1    3    3  502    0 -0.19949430930E+02  0.29897277887E+02  0.38045457170E+01  0.36383704974E+02  0.41800000000E+01 0. -1.
         -5    1    3    3    0  502 -0.40557968435E+02 -0.78795286776E+02  0.16771825263E+03  0.18973805809E+03  0.41800000000E+01 0. -1.
        -11    1    1    2    0    0  0.18364699960E+02 -0.24756852566E+02  0.25089178826E+02  0.39744570041E+02  0.00000000000E+00 0.  1.
         11    1    1    2    0    0  0.42142699405E+02  0.73654861455E+02  0.12561213701E+03  0.15158975788E+03  0.00000000000E+00 0. -1.
</event>
<event>
 7    1  0.2412631E-010  0.1017268E+03  0.7561462E-02  0.1276706E+00
          1   -1    0    0  501    0  0.00000000000E+00  0.00000000000E+00  0.92437044435E+02  0.92437044435E+02  0.00000000000E+00 0. -1.
         -1   -1    0    0    0  501 -0.00000000000E+00 -0.00000000000E+00 -0.19127711100E+03  0.19127711100E+03  0.00000000000E+00 0.  1.
         25    2    1    2    0    0 -0.12483634817E+02  0.71144701020E+02 -0.31710433437E+02  0.14786904074E+03  0.12506914888E+03 0.  0.
          5    1    3    3  502    0  0.34379938519E+02  0.29561441097E+02  0.34116065031E+02  0.56896724559E+02  0.41800000000E+01 0. -1.
         -5    1    3    3    0  502 -0.46863573336E+02  0.41583259923E+02 -0.65826498468E+02  0.90972316186E+02  0.41800000000E+01 0. -1.
        -11    1    1    2    0    0 -0.12110758424E+02 -0.69424876662E+02 -0.81152893142E+02  0.10748151485E+03  0.00000000000E+00 0.  1.
         11    1    1    2    0    0  0.24594393242E+02 -0.17198243575E+01  0.14023260011E+02  0.28363599844E+02  0.00000000000E+00 0. -1.
</event>
<event>
 6    1  0.2412631E-010  0.1086962E+03  0.7561462E-02  0.1263003E+00
         -2   -1    0    0    0  501 -0.00000000000E+00  0.00000000000E+00  0.21719867634E+02  0.21719867634E+02  0.00000000000E+00 0.  1.
          2   -1    0    0  501    0  0.00000000000E+00 -0.00000000000E+00 -0.10011521117E+04  0.10011521117E+04  0.00000000000E+00 0. -1.
          5    1    1    2  502    0 -0.29525963687E+02  0.28247186841E+02 -0.61866452470E+03  0.62002657412E+03  0.41800000000E+01 0.  1.
         -5    1    1    2    0  502 -0.45887750892E+02  0.19310036785E+02 -0.72921005476E+02  0.88394053206E+02  0.41800000000E+01 0.  1.
        -11    1    1    2    0    0  0.80307906079E+02 -0.17888640600E+01 -0.17375953980E+03  0.19142867467E+03  0.00000000000E+00 0. -1.
         11    1    1    2    0    0 -0.48941914999E+01 -0.45768359566E+02 -0.11408717411E+03  0.12302267736E+03  0.00000000000E+00 0.  1.
</event>
<event>
 7    1  0.2412631E-010  0.9084483E+02  0.7561462E-02  0.1300819E+00
          3   -1    0    0  501    0  0.00000000000E+00  0.00000000000E+00  0.85153257763E+02  0.85153257763E+02  0.00000000000E+00 0. -1.
         -3   -1    0    0    0  501 -0.00000000000E+00 -0.00000000000E+00 -0.16218916771E+03  0.16218916771E+03  0.00000000000E+00 0.  1.
         25    2    1    2    0    0 -0.15040421654E+02  0.65002928310E+00 -0.80879563521E+02  0.14968750668E+03  0.12505282500E+03 0.  0.
          5    1    3    3  502    0 -0.44333436446E+02  0.46113428101E+02 -0.68951154036E+02  0.94146884607E+02  0.41800000000E+01 0. -1.
         -5    1    3    3    0  502  0.29293014792E+02 -0.45463398818E+02 -0.11928409485E+02  0.55540622075E+02  0.41800000000E+01 0. -1.
        -11    1    1    2    0    0 -0.86328401092E+01  0.26175967526E+02  0.38827289061E+02  0.47615812291E+02  0.00000000000E+00 0. -1.
         11    1    1    2    0    0  0.23673261764E+02 -0.26825996809E+02 -0.34983635483E+02  0.50039106496E+02  0.00000000000E+00 0.  1.
</event>
<event>
 6    1  0.2412631E-010  0.1312408E+03  0.7561462E-02  0.1225626E+00
         -1   -1    0    0    0  501 -0.00000000000E+00  0.00000000000E+00  0.24206503767E+03  0.24206503767E+03  0.00000000000E+00 0.  1.
          1   -1    0    0  501    0  0.00000000000E+00 -0.00000000000E+00 -0.10777612606E+03  0.10777612606E+03  0.00000000000E+00 0. -1.
          5    1    1    2  502    0  0.32005848200E+02 -0.68605628111E+02  0.92035392109E+02  0.11924383560E+03  0.41800000000E+01 0. -1.
         -5    1    1    2    0  502 -0.33775881238E+02 -0.51793325727E+02 -0.24958691610E+02  0.66811431882E+02  0.41800000000E+01 0. -1.
        -11    1    1    2    0    0  0.16783605331E+02  0.51266107325E+02 -0.14348047124E+02  0.55819079394E+02  0.00000000000E+00 0. -1.
         11    1    1    2    0    0 -0.15013572294E+02  0.69132846514E+02  0.81560258233E+02  0.10796681686E+03  0.00000000000E+00 0.  1.
</event>
<event>
 7    1  0.2895883E-010  0.8566543E+02  0.7561462E-02  0.1313701E+00
         -1   -1    0    0    0  501 -0.00000000000E+00  0.00000000000E+00  0.10758767920E+04  0.10758767920E+04  0.00000000000E+00 0.  1.
          1   -1    0    0  501    0  0.00000000000E+00 -0.00000000000E+00 -0.16296612436E+02  0.16296612436E+02  0.00000000000E+00 0. -1.
         25    2    1    2    0    0  0.27841181303E+02  0.68508302608E+01  0.87858195274E+03  0.88791049666E+03  0.12512688415E+03 0.  0.
          5    1    3    3  502    0 -0.46316245076E+02  0.20811673554E+02  0.28262012334E+03  0.28717577689E+03  0.41800000000E+01 0. -1.
         -5    1    3    3    0  502  0.74157426380E+02 -0.13960843293E+02  0.59596182941E+03  0.60073471977E+03  0.41800000000E+01 0. -1.
        -11    1    1    2    0    0  0.36482942105E+01 -0.12316826290E+02 -0.62648571007E+01  0.14292050063E+02  0.00000000000E+00 0. -1.
         11    1    1    2    0    0 -0.31489475514E+02  0.54659960293E+01  0.18726308389E+03  0.18997085768E+03  0.00000000000E+00 0.  1.
</event>
<event>
 6    1  0.2412631E-010  0.1194353E+03  0.7561462E-02  0.1244032E+00
          1   -1    0    0  501    0  0.00000000000E+00  0.00000000000E+00  0.62479304624E+03  0.62479304624E+03  0.00000000000E+00 0. -1.
         -1   -1    0    0    0  501 -0.00000000000E+00 -0.00000000000E+00 -0.23389778715E+02  0.23389778715E+02  0.00000000000E+00 0.  1.
          5    1    1    2  502    0 -0.81985449016E+01  0.42664928050E+02  0.10403790239E+03  0.11282229282E+03  0.41800000000E+01 0.  1.
         -5    1    1    2    0  502  0.41662650629E+02 -0.80316468051E+02  0.27585964814E+03  0.29034897860E+03  0.41800000000E+01 0.  1.
        -11    1    1    2    0    0 -0.32892098873E+02 -0.25422745881E+02  0.83655643290E+02  0.93415592010E+02  0.00000000000E+00 0. -1.
         11    1    1    2    0    0 -0.57200685483E+00  0.63074285882E+02  0.13785007370E+03  0.15159596153E+03  0.00000000000E+00 0.  1.
</event>
<event>
 7    1  0.2412631E-010  0.2435407E+03  0.7561462E-02  0.1117456E+00
         -2   -1    0    0    0  501 -0.00000000000E+00  0.00000000000E+00  0.42697943663E+02  0.42697943663E+02  0.00000000000E+00 0.  1.
          2   -1    0    0  501    0  0.00000000000E+00 -0.00000000000E+00 -0.14894974242E+04  0.14894974242E+04  0.00000000000E+00 0. -1.
         25    2    1    2    0    0  0.22314868303E+03 -0.44240666213E+02 -0.84129857071E+03  0.88043833251E+03  0.12504319650E+03 0.  0.
          5    1    3    3  502    0  0.10446995513E+03 -0.84229268474E+02 -0.44153923095E+03  0.46150071079E+03  0.41800000000E+01 0. -1.
         -5    1    3    3    0  502  0.11867872790E+03  0.39988602261E+02 -0.39975933976E+03  0.41893762172E+03  0.41800000000E+01 0. -1.
        -11    1    1    2    0    0 -0.18753832203E+03  0.38413335800E+02 -0.40410893480E+03  0.44715795619E+03  0.00000000000E+00 0.  1.
         11    1    1    2    0    0 -0.35610361001E+02  0.58273304127E+01 -0.20139197499E+03  0.20459907913E+03  0.00000000000E+00 0. -1.
</event>
<event>
 7    1  0.2412631E-010  0.1208815E+03  0.7561462E-02  0.1241650E+00
         -1   -1    0    0    0  501 -0.00000000000E+00  0.00000000000E+00  0.43596703465E+03  0.43596703465E+03  0.00000000000E+00 0.  1.
          1   -1    0    0  501    0  0.00000000000E+00 -0.00000000000E+00 -0.48928123023E+02  0.48928123023E+02  0.00000000000E+00 0. -1.
         25    2    1    2    0    0 -0.24389138104E+02  0.41808736319E+02  0.34331713150E+03  0.36860760537E+03  0.12514836580E+03 0.  0.
          5    1    3    3  502    0  0.47183824370E+02  0.40676303621E+02  0.15521888520E+03  0.16730585669E+03  0.41800000000E+01 0.  1.
         -5    1    3    3    0  502 -0.71572962474E+02  0.11324326980E+01  0.18809824630E+03  0.20130174868E+03  0.41800000000E+01 0.  1.
        -11    1    1    2    0    0  0.57699410304E+02 -0.46341628711E+02  0.32720038645E+02  0.80915816933E+02  0.00000000000E+00 0. -1.
         11    1    1    2    0    0 -0.33310272200E+02  0.45328923923E+01  0.11001741479E+02  0.35371735369E+02  0.00000000000E+00 0.  1.
</event>
<event>
 6    1  0.2412631E-010  0.1537974E+03  0.7561462E-02  0.1195883E+00
          2   -1    0    0  501    0  0.00000000000E+00  0.00000000000E+00  0.17538183866E+04  0.17538183866E+04  0.00000000000E+00 0. -1.
         -2   -1    0    0    0  501 -0.00000000000E+00 -0.00000000000E+00 -0.31195523199E+02  0.31195523199E+02  0.00000000000E+00 0.  1.
          5    1    1    2  502    0 -0.11586156107E+03 -0.68760600225E+02  0.13621679064E+04  0.13688209522E+04  0.41800000000E+01 0.  1.
         -5    1    1    2    0  502  0.28374256079E+02 -0.17540180161E+02  0.16517170223E+03  0.16855835768E+03  0.41800000000E+01 0.  1.
        -11    1    1    2    0    0  0.83747701372E+02  0.40140646677E+02  0.17275204293E+03  0.19613316226E+03  0.00000000000E+00 0. -1.
         11    1    1    2    0    0  0.37396036155E+01  0.46160133709E+02  0.22531211887E+02  0.51501437731E+02  0.00000000000E+00 0.  1.
</event>
<event>
 7    1  0.2412631E-010  0.1230256E+03  0.7561462E-02  0.1238188E+00
          2   -1    0    0  501    0  0.00000000000E+00  0.00000000000E+00  0.30999155525E+03  0.30999155525E+03  0.00000000000E+00 0. -1.
         -2   -1    0    0    0  501 -0.00000000000E+00 -0.00000000000E+00 -0.93220102432E+02  0.93220102432E+02  0.00000000000E+00 0.  1.
         25    2    1    2    0    0  0.68318114160E+02 -0.47938548959E+02  0.23541795555E+03  0.27935690556E+03  0.12511273991E+03 0.  0.
          5    1    3    3  502    0 -0.13832872508E+02 -0.64252146633E+02  0.90524440399E+02  0.11194567173E+03  0.41800000000E+01 0.  1.
         -5    1    3    3    0  502  0.82150986668E+02  0.16313597674E+02  0.14489351515E+03  0.16741123383E+03  0.41800000000E+01 0.  1.
        -11    1    1    2    0    0 -0.21364457997E+02  0.44369921588E+02 -0.47670865620E+02  0.68539342251E+02  0.00000000000E+00 0.  1.
         11    1    1    2    0    0 -0.46953656163E+02  0.35686273706E+01  0.29024362885E+02  0.55315409871E+02  0.00000000000E+00 0. -1.
</event>
<event>
 7    1  0.2412631E-010  0.3084427E+03  0.7561462E-02  0.1081095E+00
          1   -1    0    0  501    0  0.00000000000E+00  0.00000000000E+00  0.19198915352E+03  0.19198915352E+03  0.00000000000E+00 0. -1.
         -1   -1    0    0    0  501 -0.00000000000E+00 -0.00000000000E+00 -0.51398722362E+03  0.51398722362E+03  0.00000000000E+00 0.  1.
         25    2    1    2    0    0  0.12176107490E+03 -0.26845023674E+03 -0.14522497327E+03  0.35159297791E+03  0.12504415337E+03 0.  0.
          5    1    3    3  502    0  0.51808307799E+01 -0.15617464093E+03 -0.90841242770E+02  0.18079536296E+03  0.41800000000E+01 0. -1.
         -5    1    3    3    0  502  0.11658024412E+03 -0.11227559581E+03 -0.54383730500E+02  0.17079761496E+03  0.41800000000E+01 0. -1.
        -11    1    1    2    0    0 -0.65633562556E+02  0.88639918112E+02 -0.26537080764E+02  0.11344168666E+03  0.00000000000E+00 0.  1.
         11    1    1    2    0    0 -0.56127512343E+02  0.17981031863E+03 -0.15023601607E+03  0.24094171256E+03  0.00000000000E+00 0. -1.
</event>
<event>
 7    1  0.2412631E-010  0.1322627E+03  0.7561462E-02  0.1224136E+00
          1   -1    0    0  501    0  0.00000000000E+00  0.00000000000E+00  0.67863187212E+03  0.67863187212E+03  0.00000000000E+00 0. -1.
         -1   -1    0    0    0  501 -0.00000000000E+00 -0.00000000000E+00 -0.54179921508E+02  0.54179921508E+02  0.00000000000E+00 0.  1.
         25    2    1    2    0    0 -0.79059873169E+02  0.19982022728E+02  0.58286992649E+03  0.60168830911E+03  0.12506688342E+03 0.  0.
          5    1    3    3  502    0 -0.29728936161E+01  0.56679437966E+02  0.14586725441E+03  0.15657625968E+03  0.41800000000E+01 0.  1.
         -5    1    3    3    0  502 -0.76086979553E+02 -0.36697415238E+02  0.43700267208E+03  0.44511204943E+03  0.41800000000E+01 0.  1.
        -11    1    1    2    0    0  0.18806573224E+02  0.36110987502E+02  0.22883084564E+02  0.46704669724E+02  0.00000000000E+00 0.  1.
         11    1    1    2    0    0  0.60253299945E+02 -0.56093010231E+02  0.18698939554E+02  0.84418814796E+02  0.00000000000E+00 0. -1.
</event>
<event>
 7    1  0.2412631E-010  0.1263025E+03  0.7561462E-02  0.1233048E+00
         -2   -1    0    0    0  501 -0.00000000000E+00  0.00000000000E+00  0.14420000381E+03  0.14420000381E+03  0.00000000000E+00 0.  1.
          2   -1    0    0  501    0  0.00000000000E+00 -0.00000000000E+00 -0.26034698577E+03  0.26034698577E+03  0.00000000000E+00 0. -1.
         25    2    1    2    0    0  0.71787107497E+02  0.65747324444E+02  0.70614098147E+02  0.17353796262E+03  0.12511184651E+03 0.  0.
          5    1    3    3  502    0  0.68875193347E+02  0.86527040345E+02  0.12215634636E+02  0.11134368010E+03  0.41800000000E+01 0. -1.
         -5    1    3    3    0  502  0.29119141497E+01 -0.20779715901E+02  0.58398463511E+02  0.62194282514E+02  0.41800000000E+01 0. -1.
        -11    1    1    2    0    0 -0.53477618714E+02 -0.80760029492E+02 -0.92910405651E+02  0.13421766480E+03  0.00000000000E+00 0. -1.
         11    1    1    2    0    0 -0.18309488783E+02  0.15012705049E+02 -0.93850674455E+02  0.96791362157E+02  0.00000000000E+00 0.  1.
</event>
<event>
 6    1  0.2412631E-010  0.7895528E+02  0.7561462E-02  0.1332043E+00
         -2   -1    0    0    0  501 -0.00000000000E+00  0.00000000000E+00  0.12790948231E+03  0.12790948231E+03  0.00000000000E+00 0.  1.
          2   -1    0    0  501    0  0.00000000000E+00 -0.00000000000E+00 -0.10776625576E+03  0.10776625576E+03  0.00000000000E+00 0. -1.
          5    1    1    2  502    0 -0.35928222474E+02  0.29995335823E+00  0.29309810313E+02  0.46556036373E+02  0.41800000000E+01 0.  1.
         -5    1    1    2    0  502  0.62406084245E+02  0.49551973963E+01 -0.56006249704E+02  0.84102590554E+02  0.41800000000E+01 0.  1.
        -11    1    1    2    0    0 -0.36921202980E+02 -0.19168188480E+02  0.66703342821E+02  0.78612534768E+02  0.00000000000E+00 0.  1.
         11    1    1    2    0    0  0.10443341209E+02  0.13913037725E+02 -0.19863676884E+02  0.26404576378E+02  0.00000000000E+00 0. -1.
</event>
<event>
 7    1  0.2412631E-010  0.8029999E+02  0.7561462E-02  0.1328202E+00
         -2   -1    0    0    0  501 -0.00000000000E+00  0.00000000000E+00  0.62616030501E+02  0.62616030501E+02  0.00000000000E+00 0.  1.
          2   -1    0    0  501    0  0.00000000000E+00 -0.00000000000E+00 -0.20220865011E+03  0.20220865011E+03  0.00000000000E+00 0. -1.
         25    2    1    2    0    0  0.25545676312E+02 -0.11474830870E+02 -0.74064225540E+02  0.14802694185E+03  0.12506883180E+03 0.  0.
          5    1    3    3  502    0  0.41668126509E+02  0.13697330268E+02  0.20621009386E+02  0.48647179274E+02  0.41800000000E+01 0. -1.
         -5    1    3    3    0  502 -0.16122450197E+02 -0.25172161137E+02 -0.94685234926E+02  0.99379762576E+02  0.41800000000E+01 0. -1.
        -11    1    1    2    0    0 -0.54587894013E+02 -0.13583899628E+01 -0.14163906633E+02  0.56411875055E+02  0.00000000000E+00 0.  1.
         11    1    1    2    0    0  0.29042217701E+02  0.12833220833E+02 -0.51364487435E+02  0.60385863705E+02  0.00000000000E+00 0. -1.
</event>
<event>
 7    1  0.2412631E-010  0.1223936E+03  0.7561462E-02  0.1239200E+00
         -2   -1    0    0    0  501 -0.00000000000E+00  0.00000000000E+00  0.10883016894E+03  0.10883016894E+03  0.00000000000E+00 0.  1.
          2   -1    0    0  501    0  0.00000000000E+00 -0.00000000000E+00 -0.23697080660E+03  0.23697080660E+03  0.00000000000E+00 0. -1.
         25    2    1    2    0    0  0.59157634596E+02 -0.83876991991E+02 -0.13613588740E+03  0.21144750302E+03  0.12506834603E+03 0.  0.
          5    1    3    3  502    0 -0.10207264085E+02 -0.66852036466E+02 -0.12935693292E+02  0.68979617140E+02  0.41800000000E+01 0.  1.
         -5    1    3    3    0  502  0.69364898681E+02 -0.17024955525E+02 -0.12320019411E+03  0.14246788588E+03  0.41800000000E+01 0.  1.
        -11    1    1    2    0    0 -0.46513968668E+02  0.79496559339E+02  0.39429654194E+02  0.10018956961E+03  0.00000000000E+00 0.  1.
         11    1    1    2    0    0 -0.12643665927E+02  0.43804326523E+01 -0.31434404459E+02  0.34163902909E+02  0.00000000000E+00 0. -1.
</event>
<event>
 6    1  0.2412631E-010  0.1276070E+03  0.7561462E-02  0.1231050E+00
         -1   -1    0    0    0  501 -0.00000000000E+00  0.00000000000E+00  0.11479944756E+02  0.11479944756E+02  0.00000000000E+00 0.  1.
          1   -1    0    0  501    0  0.00000000000E+00 -0.00000000000E+00 -0.15074763200E+04  0.15074763200E+04  0.00000000000E+00 0. -1.
          5    1    1    2  502    0 -0.34989611396E+02 -0.43175382294E+02 -0.23848464382E+03  0.24490974721E+03  0.41800000000E+01 0.  1.
         -5    1    1    2    0  502 -0.33368826859E+02  0.78396233974E+02 -0.65915497264E+03  0.66465193783E+03  0.41800000000E+01 0.  1.
        -11    1    1    2    0    0  0.29216922912E+01 -0.47508594360E+02 -0.20589318027E+03  0.21132345944E+03  0.00000000000E+00 0. -1.
         11    1    1    2    0    0  0.65436745964E+02  0.12287742680E+02 -0.39246357855E+03  0.39807112031E+03  0.00000000000E+00 0.  1.
</event>
<event>
 7    1  0.2412631E-010  0.1384762E+03  0.7561462E-02  0.1215394E+00
         -2   -1    0    0    0  501 -0.00000000000E+00  0.00000000000E+00  0.26438719280E+03  0.26438719280E+03  0.00000000000E+00 0.  1.
          2   -1    0    0  501    0  0.00000000000E+00 -0.00000000000E+00 -0.10271985189E+03  0.10271985189E+03  0.00000000000E+00 0. -1.
         25    2    1    2    0    0 -0.87938180564E+02 -0.88297194818E+02  0.92505977648E+02  0.19929809538E+03  0.12503142288E+03 0.  0.
          5    1    3    3  502    0 -0.40485355771E+02 -0.45031085611E+02 -0.24744621366E+02  0.65548694799E+02  0.41800000000E+01 0.  1.
         -5    1    3    3    0  502 -0.47452824792E+02 -0.43266109207E+02  0.11725059901E+03  0.13374940058E+03  0.41800000000E+01 0.  1.
        -11    1    1    2    0    0  0.56821235296E+02 -0.15253969114E+01  0.16751437622E+02  0.59258672603E+02  0.00000000000E+00 0.  1.
         11    1    1    2    0    0  0.31116945268E+02  0.89822591729E+02  0.52409925646E+02  0.10855027671E+03  0.00000000000E+00 0. -1.
</event>
<event>
 6    1  0.2412631E-010  0.9234568E+02  0.7561462E-02  0.1297269E+00
          2   -1    0    0  501    0  0.00000000000E+00  0.00000000000E+00  0.13488838111E+03  0.13488838111E+03  0.00000000000E+00 0. -1.
         -2   -1    0    0    0  501 -0.00000000000E+00 -0.00000000000E+00 -0.91490528484E+02  0.91490528484E+02  0.00000000000E+00 0.  1.
          5    1    1    2  502    0 -0.60274789166E+02 -0.24594373966E+02 -0.21450112426E+02  0.68669594165E+02  0.41800000000E+01 0. -1.
         -5    1    1    2    0  502  0.46978376240E+02  0.56820785145E+01  0.59006621701E+02  0.75752938259E+02  0.41800000000E+01 0. -1.
        -11    1    1    2    0    0 -0.18425825500E+02  0.32565784377E+02  0.22449110778E+02  0.43634893516E+02  0.00000000000E+00 0.  1.
         11    1    1    2    0    0  0.31722238426E+02 -0.13653488925E+02 -0.16607767425E+02  0.38321483654E+02  0.00000000000E+00 0. -1.
</event>
<event>
 7    1  0.2412631E-010  0.1073811E+03  0.7561462E-02  0.1265498E+00
          1   -1    0    0  501    0  0.00000000000E+00  0.00000000000E+00  0.56214210418E+02  0.56214210418E+02  0.00000000000E+00 0. -1.
         -1   -1    0    0    0  501 -0.00000000000E+00 -0.00000000000E+00 -0.37379709865E+03  0.37379709865E+03  0.00000000000E+00 0.  1.
         25    2    1    2    0    0 -0.86770022675E+01  0.65802395137E+02 -0.27640965348E+03  0.31054827068E+03  0.12503074145E+03 0.  0.
          5    1    3    3  502    0 -0.91508065295E+01  0.84307470373E+02 -0.92103797281E+02  0.12526798751E+03  0.41800000000E+01 0. -1.
         -5    1    3    3    0  502  0.47380426198E+00 -0.18505075236E+02 -0.18430585620E+03  0.18528028317E+03  0.41800000000E+01 0. -1.
        -11    1    1    2    0    0  0.48901775827E+02 -0.38913272249E+02 -0.14275606449E+02  0.64104753144E+02  0.00000000000E+00 0.  1.
         11    1    1    2    0    0 -0.40224773559E+02 -0.26889122888E+02 -0.26897628302E+02  0.55358285250E+02  0.00000000000E+00 0. -1.
</event>
<event>
 6    1  0.2412631E-010  0.2421406E+03  0.7561462E-02  0.1118375E+00
         -1   -1    0    0    0  501 -0.00000000000E+00  0.00000000000E+00  0.59444058138E+03  0.59444058138E+03  0.00000000000E+00 0.  1.
          1   -1    0    0  501    0  0.00000000000E+00 -0.00000000000E+00 -0.13198910258E+03  0.13198910258E+03  0.00000000000E+00 0. -1.
          5    1    1    2  502    0 -0.62833832800E+02  0.10490209620E+02  0.93223544861E+02  0.11298777261E+03  0.41800000000E+01 0.  1.
         -5    1    1    2    0  502 -0.17580219765E+03 -0.29026214904E+02  0.18274942456E+02  0.17916578851E+03  0.41800000000E+01 0.  1.
        -11    1    1    2    0    0  0.12090267953E+03 -0.92029428852E+01  0.24547614599E+03  0.27378950003E+03  0.00000000000E+00 0.  1.
         11    1    1    2    0    0  0.11773335092E+03  0.27738948169E+02  0.10547684549E+03  0.16048662281E+03  0.00000000000E+00 0. -1.
</event>
<event>
 7    1  0.2412631E-010  0.1056765E+03  0.7561462E-02  0.1268792E+00
         -2   -1    0    0    0  501 -0.00000000000E+00  0.00000000000E+00  0.40492733211E+02  0.40492733211E+02  0.00000000000E+00 0.  1.
          2   -1    0    0  501    0  0.00000000000E+00 -0.00000000000E+00 -0.40600058158E+03  0.40600058158E+03  0.00000000000E+00 0. -1.
         25    2    1    2    0    0  0.48496410349E+02 -0.40779885630E+02 -0.24283880525E+03  0.28039419134E+03  0.12504125843E+03 0.  0.
          5    1    3    3  502    0 -0.23953185658E+02 -0.56399820002E+02 -0.14588055055E+03  0.15828234970E+03  0.41800000000E+01 0.  1.
         -5    1    3    3    0  502  0.72449596008E+02  0.15619934372E+02 -0.96958254706E+02  0.12211184163E+03  0.41800000000E+01 0.  1.
        -11    1    1    2    0    0 -0.28115439074E+02 -0.21329425073E+01  0.60979899135E+01  0.28848099401E+02  0.00000000000E+00 0.  1.
         11    1    1    2    0    0 -0.20380971275E+02  0.42912828137E+02 -0.12876703303E+03  0.13725102405E+03  0.00000000000E+00 0. -1.
</event>
<event>
 7    1  0.2412631E-010  0.1080885E+03  0.7561462E-02  0.1264151E+00
          1   -1    0    0  501    0  0.00000000000E+00  0.00000000000E+00  0.78004710810E+03  0.78004710810E+03  0.00000000000E+00 0. -1.
         -1   -1    0    0    0  501 -0.00000000000E+00 -0.00000000000E+00 -0.19858311699E+02  0.19858311699E+02  0.00000000000E+00 0.  1.
         25    2    1    2    0    0 -0.25534965516E+02 -0.52955624503E+02  0.47826687372E+03  0.49784508217E+03  0.12511670840E+03 0.  0.
          5    1    3    3  502    0 -0.29519807681E+01  0.40744298020E+02  0.16674057208E+03  0.17172274978E+03  0.41800000000E+01 0. -1.
         -5    1    3    3    0  502 -0.22582984748E+02 -0.93699922524E+02  0.31152630163E+03  0.32612233240E+03  0.41800000000E+01 0. -1.
        -11    1    1    2    0    0  0.30093863424E+02  0.50470824954E+01  0.21743584633E+02  0.37468615270E+02  0.00000000000E+00 0.  1.
         11    1    1    2    0    0 -0.45588979077E+01  0.47908542008E+02  0.26017833805E+03  0.26459172236E+03  0.00000000000E+00 0. -1.
</event>
<event>
 7    1  0.2412631E-010  0.1078879E+03  0.7561462E-02  0.1264532E+00
         -1   -1    0    0    0  501 -0.00000000000E+00  0.00000000000E+00  0.17431874169E+02  0.17431874169E+02  0.00000000000E+00 0.  1.
          1   -1    0    0  501    0  0.00000000000E+00 -0.00000000000E+00 -0.92960168550E+03  0.92960168550E+03  0.00000000000E+00 0. -1.
         25    2    1    2    0    0  0.28265102170E+02 -0.40928820640E+02 -0.67218203559E+03  0.68552202850E+03  0.12505070263E+03 0.  0.
          5    1    3    3  502    0 -0.39878486035E+02 -0.50205431790E+02 -0.27482821668E+03  0.28223908325E+03  0.41800000000E+01 0. -1.
         -5    1    3    3    0  502  0.68143588206E+02  0.92766111508E+01 -0.39735381890E+03  0.40328294524E+03  0.41800000000E+01 0. -1.
        -11    1    1    2    0    0  0.12380473817E+02  0.40103000418E+02 -0.41938178542E+02  0.59332432901E+02  0.00000000000E+00 0.  1.
         11    1    1    2    0    0 -0.40645575987E+02  0.82582022113E+00 -0.19804959720E+03  0.20217909827E+03  0.00000000000E+00 0. -1.
</event>
<event>
 7    1  0.2412631E-010  0.1239081E+03  0.7561462E-02  0.1236786E+00
         -1   -1    0    0    0  501 -0.00000000000E+00  0.00000000000E+00  0.11584391859E+03  0.11584391859E+03  0.00000000000E+00 0.  1.
          1   -1    0    0  501    0  0.00000000000E+00 -0.00000000000E+00 -0.22222116733E+03  0.22222116733E+03  0.00000000000E+00 0. -1.
         25    2    1    2    0    0 -0.55284525949E+02  0.39039910931E+02 -0.15930807825E+03  0.21354562660E+03  0.12506869070E+03 0.  0.
          5    1    3    3  502    0  0.10307331363E+02 -0.37941534173E+02 -0.59139580536E+02  0.71139043297E+02  0.41800000000E+01 0.  1.
         -5    1    3    3    0  502 -0.65591857312E+02  0.76981445103E+02 -0.10016849771E+03  0.14240658331E+03  0.41800000000E+01 0.  1.
        -11    1    1    2    0    0 -0.11906061524E+02  0.16178080207E+02 -0.41237771772E+01  0.20505855710E+02  0.00000000000E+00 0. -1.
         11    1    1    2    0    0  0.67190587474E+02 -0.55217991138E+02  0.57054606682E+02  0.10401360360E+03  0.00000000000E+00 0.  1.
</event>
<event>
 7    1  0.2412631E-010  0.1261961E+03  0.7561462E-02  0.1233212E+00
          1   -1    0    0  501    0  0.00000000000E+00  0.00000000000E+00  0.33982313875E+02  0.33982313875E+02  0.00000000000E+00 0.  1.
         -1   -1    0    0    0  501 -0.00000000000E+00 -0.00000000000E+00 -0.63946538828E+03  0.63946538828E+03  0.00000000000E+00 0. -1.
         25    2    1    2    0    0 -0.77739055938E+02  0.63530225379E+02 -0.34255971909E+03  0.37826656396E+03  0.12513585384E+03 0.  0.
          5    1    3    3  502    0  0.15838642693E+02  0.35426184891E+02 -0.25881779137E+02  0.46831784822E+02  0.41800000000E+01 0.  1.
         -5    1    3    3    0  502 -0.93577698632E+02  0.28104040488E+02 -0.31667793995E+03  0.33143477914E+03  0.41800000000E+01 0.  1.
        -11    1    1    2    0    0  0.63690603137E+02 -0.15536214727E+02 -0.70099456812E+02  0.95978126369E+02  0.00000000000E+00 0.  1.
         11    1    1    2    0    0  0.14048452801E+02 -0.47994010653E+02 -0.19282389851E+03  0.19920301182E+03  0.00000000000E+00 0. -1.
</event>
<event>
 7    1  0.5465926E-010  0.1639035E+03  0.7561462E-02  0.1184359E+00
          1   -1    0    0  501    0  0.00000000000E+00  0.00000000000E+00  0.13435362650E+03  0.13435362650E+03  0.00000000000E+00 0. -1.
         -1   -1    0    0    0  501 -0.00000000000E+00 -0.00000000000E+00 -0.29055552200E+03  0.29055552200E+03  0.00000000000E+00 0.  1.
         25    2    1    2    0    0  0.13234939086E+03  0.61035990071E+02 -0.16481195661E+03  0.25307351328E+03  0.12506585760E+03 0.  0.
          5    1    3    3  502    0  0.87761274439E+02  0.20902865164E+01 -0.15529133217E+03  0.17843564901E+03  0.41800000000E+01 0. -1.
         -5    1    3    3    0  502  0.44588116423E+02  0.58945703554E+02 -0.95206244375E+01  0.74637864273E+02  0.41800000000E+01 0. -1.
        -11    1    1    2    0    0 -0.46588955833E+02  0.17342522375E+02  0.22984989577E+02  0.54768637319E+02  0.00000000000E+00 0. -1.
         11    1    1    2    0    0 -0.85760435029E+02 -0.78378512445E+02 -0.14374928467E+02  0.11706699790E+03  0.00000000000E+00 0.  1.
</event>
<event>
 6    1  0.2412631E-010  0.1075772E+03  0.7561462E-02  0.1265124E+00
          4   -1    0    0  501    0  0.00000000000E+00  0.00000000000E+00  0.57602883876E+03  0.57602883876E+03  0.00000000000E+00 0. -1.
         -4   -1    0    0    0  501 -0.00000000000E+00 -0.00000000000E+00 -0.26063612507E+02  0.26063612507E+02  0.00000000000E+00 0.  1.
          5    1    1    2  502    0  0.39957605409E+02  0.54465255368E+02  0.17684012092E+03  0.18934881843E+03  0.41800000000E+01 0. -1.
         -5    1    1    2    0  502 -0.68340699233E+02 -0.47702586784E+01  0.13249413456E+03  0.14921586588E+03  0.41800000000E+01 0. -1.
        -11    1    1    2    0    0  0.71012164854E+00 -0.51125362054E+02  0.22692407023E+03  0.23261307050E+03  0.00000000000E+00 0. -1.
         11    1    1    2    0    0  0.27672972175E+02  0.14303653651E+01  0.13706900537E+02  0.30914696447E+02  0.00000000000E+00 0.  1.
</event>
<event>
 7    1  0.2412631E-010  0.1072909E+03  0.7561462E-02  0.1265670E+00
         -3   -1    0    0    0  501 -0.00000000000E+00  0.00000000000E+00  0.10500340152E+03  0.10500340152E+03  0.00000000000E+00 0.  1.
          3   -1    0    0  501    0  0.00000000000E+00 -0.00000000000E+00 -0.18985510414E+03  0.18985510414E+03  0.00000000000E+00 0. -1.
         25    2    1    2    0    0  0.23600030568E+02  0.74683515448E+02 -0.87883989815E+02  0.17178758782E+03  0.12511111357E+03 0.  0.
          5    1    3    3  502    0 -0.16458990476E+02  0.81479504968E+02 -0.99114930406E+02  0.12942584721E+03  0.41800000000E+01 0.  1.
         -5    1    3    3    0  502  0.40059021044E+02 -0.67959895200E+01  0.11230940591E+02  0.42361740605E+02  0.41800000000E+01 0.  1.
        -11    1    1    2    0    0  0.64916378412E+01 -0.53047623966E+02 -0.39648139264E+02  0.66544471727E+02  0.00000000000E+00 0. -1.
         11    1    1    2    0    0 -0.30091668409E+02 -0.21635891482E+02  0.42680426455E+02  0.56526446114E+02  0.00000000000E+00 0.  1.
</event>
<event>
 7    1  0.2412631E-010  0.3984990E+02  0.7561462E-02  0.1509319E+00
          1   -1    0    0  501    0  0.00000000000E+00  0.00000000000E+00  0.27513244934E+03  0.27513244934E+03  0.00000000000E+00 0. -1.
         -1   -1    0    0    0  501 -0.00000000000E+00 -0.00000000000E+00 -0.48307059832E+02  0.48307059832E+02  0.00000000000E+00 0.  1.
         25    2    1    2    0    0  0.18005546283E+02  0.28059786960E+02  0.99686325604E+02  0.16336789544E+03  0.12506060293E+03 0.  0.
          5    1    3    3  502    0  0.22390743774E+01  0.90182641579E+01 -0.29791060004E+02  0.31485269550E+02  0.41800000000E+01 0. -1.
         -5    1    3    3    0  502  0.15766471906E+02  0.19041522802E+02  0.12947738561E+03  0.13188262589E+03  0.41800000000E+01 0. -1.
        -11    1    1    2    0    0 -0.21468060832E+02 -0.62556368075E+01  0.13484621239E+03  0.13668764254E+03  0.00000000000E+00 0. -1.
         11    1    1    2    0    0  0.34625145493E+01 -0.21804150153E+02 -0.77071484876E+01  0.23383971192E+02  0.00000000000E+00 0.  1.
</event>
<event>
 7    1  0.2412631E-010  0.3129057E+03  0.7561462E-02  0.1078961E+00
          1   -1    0    0  501    0  0.00000000000E+00  0.00000000000E+00  0.13111638027E+04  0.13111638027E+04  0.00000000000E+00 0. -1.
         -1   -1    0    0    0  501 -0.00000000000E+00 -0.00000000000E+00 -0.83831065129E+02  0.83831065129E+02  0.00000000000E+00 0.  1.
         25    2    1    2    0    0  0.30498857471E+03  0.34558142439E+01  0.47610877431E+03  0.57910756314E+03  0.12512406385E+03 0.  0.
          5    1    3    3  502    0  0.29665659222E+02 -0.12028171963E+02  0.42477993750E+01  0.32561395200E+02  0.41800000000E+01 0.  1.
         -5    1    3    3    0  502  0.27532291549E+03  0.15483986207E+02  0.47186097494E+03  0.54654616794E+03  0.41800000000E+01 0.  1.
        -11    1    1    2    0    0 -0.78894810411E+02 -0.40414785137E+02  0.18787166925E+03  0.20773422942E+03  0.00000000000E+00 0.  1.
         11    1    1    2    0    0 -0.22609376430E+03  0.36958970893E+02  0.56335229399E+03  0.60815307524E+03  0.00000000000E+00 0. -1.
</event>
<event>
 7    1  0.2412631E-010  0.1394830E+03  0.7561462E-02  0.1214026E+00
          2   -1    0    0  501    0  0.00000000000E+00  0.00000000000E+00  0.58495178383E+03  0.58495178383E+03  0.00000000000E+00 0. -1.
         -2   -1    0    0    0  501 -0.00000000000E+00 -0.00000000000E+00 -0.52886342872E+02  0.52886342872E+02  0.00000000000E+00 0.  1.
         25    2    1    2    0    0  0.80569995328E+02 -0.68818027350E+02  0.12027462033E+03  0.20328881643E+03  0.12503165020E+03 0.  0.
          5    1    3    3  502    0  0.38256588111E+01  0.34413596606E+02  0.20624624714E+02  0.40518870188E+02  0.41800000000E+01 0. -1.
         -5    1    3    3    0  502  0.76744336517E+02 -0.10323162396E+03  0.99649995618E+02  0.16276994624E+03  0.41800000000E+01 0. -1.
        -11    1    1    2    0    0 -0.92185931145E+01  0.35432869537E+02  0.38865899797E+02  0.53395026638E+02  0.00000000000E+00 0.  1.
         11    1    1    2    0    0 -0.71351402214E+02  0.33385157813E+02  0.37292492083E+03  0.38115428364E+03  0.00000000000E+00 0. -1.
</event>
<event>
 7    1  0.2412631E-010  0.1347879E+03  0.7561462E-02  0.1220519E+00
          3   -1    0    0  501    0  0.00000000000E+00  0.00000000000E+00  0.15293142464E+03  0.15293142464E+03  0.00000000000E+00 0. -1.
         -3   -1    0    0    0  501 -0.00000000000E+00 -0.00000000000E+00 -0.14658774656E+03  0.14658774656E+03  0.00000000000E+00 0.  1.
         25    2    1    2    0    0 -0.67155997304E+02 -0.82690803115E+02  0.10737323404E+02  0.16467375721E+03  0.12511778173E+03 0.  0.
          5    1    3    3  502    0  0.14280511077E+02 -0.79165097603E+02  0.18615927212E+02  0.82674487123E+02  0.41800000000E+01 0. -1.
         -5    1    3    3    0  502 -0.81436508381E+02 -0.35257055122E+01 -0.78786038077E+01  0.81999270085E+02  0.41800000000E+01 0. -1.
        -11    1    1    2    0    0  0.30762276674E+02  0.27309334952E+02 -0.41884454885E+02  0.58706260336E+02  0.00000000000E+00 0.  1.
         11    1    1    2    0    0  0.36393720630E+02  0.55381468163E+02  0.37490809564E+02  0.76139153652E+02  0.00000000000E+00 0. -1.
</event>
<event>
 6    1  0.2412631E-010  0.1248616E+03  0.7561462E-02  0.1235286E+00
          1   -1    0    0  501    0  0.00000000000E+00  0.00000000000E+00  0.45693198170E+03  0.45693198170E+03  0.00000000000E+00 0. -1.
         -1   -1    0    0    0  501 -0.00000000000E+00 -0.00000000000E+00 -0.68168357838E+02  0.68168357838E+02  0.00000000000E+00 0.  1.
          5    1    1    2  502    0 -0.54726267436E+02 -0.21326253246E+02  0.85769248821E+01  0.59504701204E+02  0.41800000000E+01 0. -1.
         -5    1    1    2    0  502  0.24932045325E+02  0.77464126132E+02  0.13787655482E+02  0.82643024904E+02  0.41800000000E+01 0. -1.
        -11    1    1    2    0    0  0.46308067912E+02  0.44835561342E+01  0.19277751480E+03  0.19831215203E+03  0.00000000000E+00 0. -1.
         11    1    1    2    0    0 -0.16513845801E+02 -0.60621429021E+02  0.17362152870E+03  0.18464046140E+03  0.00000000000E+00 0.  1.
</event>
<event>
 7    1  0.2412631E-010  0.1767638E+03  0.7561462E-02  0.1170972E+00
         -2   -1    0    0    0  501 -0.00000000000E+00  0.00000000000E+00  0.61650907825E+03  0.61650907825E+03  0.00000000000E+00 0. -1.
          2   -1    0    0  501    0  0.00000000000E+00 -0.00000000000E+00 -0.71451893269E+02  0.71451893269E+02  0.00000000000E+00 0.  1.
         25    2    1    2    0    0 -0.19626854351E+01  0.16955901043E+03  0.18741225614E+03  0.28202047353E+03  0.12513226439E+03 0.  0.
          5    1    3    3  502    0  0.29076851594E+02  0.40435145447E+02  0.12618786781E+03  0.13572514383E+03  0.41800000000E+01 0. -1.
         -5    1    3    3    0  502 -0.31039537029E+02  0.12912386498E+03  0.61224388330E+02  0.14629532970E+03  0.41800000000E+01 0. -1.
        -11    1    1    2    0    0 -0.84121380324E+01 -0.99803268512E+02  0.11144003945E+03  0.14983437144E+03  0.00000000000E+00 0.  1.
         11    1    1    2    0    0  0.10374823468E+02 -0.69755741916E+02  0.24620488940E+03  0.25610612655E+03  0.00000000000E+00 0. -1.
</event>
<event>
 6    1  0.2412631E-010  0.1504654E+03  0.7561462E-02  0.1199902E+00
         -2   -1    0    0    0  501 -0.00000000000E+00  0.00000000000E+00  0.26070567762E+02  0.26070567762E+02  0.00000000000E+00 0.  1.
          2   -1    0    0  501    0  0.00000000000E+00 -0.00000000000E+00 -0.10224822940E+04  0.10224822940E+04  0.00000000000E+00 0. -1.
          5    1    1    2  502    0 -0.26245658916E+02  0.12071931419E+03 -0.55659982754E+03  0.57016035275E+03  0.41800000000E+01 0.  1.
         -5    1    1    2    0  502  0.32031695281E+02 -0.19318609980E+02 -0.17436127522E+03  0.17837759077E+03  0.41800000000E+01 0.  1.
        -11    1    1    2    0    0 -0.49879209922E+02 -0.68164929174E+02 -0.15435177865E+03  0.17595131351E+03  0.00000000000E+00 0. -1.
         11    1    1    2    0    0  0.44093173557E+02 -0.33235775039E+02 -0.11109884481E+03  0.12406360471E+03  0.00000000000E+00 0.  1.
</event>
<event>
 7    1  0.2412631E-010  0.1122813E+03  0.7561462E-02  0.1256403E+00
         -1   -1    0    0    0  501 -0.00000000000E+00  0.00000000000E+00  0.96008954146E+02  0.96008954146E+02  0.00000000000E+00 0.  1.
          1   -1    0    0  501    0  0.00000000000E+00 -0.00000000000E+00 -0.29034454804E+03  0.29034454804E+03  0.00000000000E+00 0. -1.
         25    2    1    2    0    0  0.70264881734E+02  0.99664997189E+01  0.18554732664E+02  0.14498240068E+03  0.12505652195E+03 0.  0.
          5    1    3    3  502    0 -0.31747582211E+02 -0.14781278378E+02 -0.89510461269E+01  0.36386656806E+02  0.41800000000E+01 0. -1.
         -5    1    3    3    0  502  0.10201246395E+03  0.24747778097E+02  0.27505778791E+02  0.10859574387E+03  0.41800000000E+01 0. -1.
        -11    1    1    2    0    0 -0.54862773096E+02  0.13192421852E+02 -0.20476227365E+03  0.21239480355E+03  0.00000000000E+00 0. -1.
         11    1    1    2    0    0 -0.15402108638E+02 -0.23158921571E+02 -0.81280529070E+01  0.28976297950E+02  0.00000000000E+00 0.  1.
</event>
<event>
 6    1  0.2412631E-010  0.9352473E+02  0.7561462E-02  0.1294534E+00
         -2   -1    0    0    0  501 -0.00000000000E+00  0.00000000000E+00  0.83664729296E+02  0.83664729296E+02  0.00000000000E+00 0.  1.
          2   -1    0    0  501    0  0.00000000000E+00 -0.00000000000E+00 -0.27496514746E+03  0.27496514746E+03  0.00000000000E+00 0. -1.
          5    1    1    2  502    0 -0.98316464358E+01  0.31853254880E+01  0.16873128738E+02  0.20223314355E+02  0.41800000000E+01 0. -1.
         -5    1    1    2    0  502 -0.48324010430E+02 -0.42487874551E+02 -0.21483410822E+03  0.22430246526E+03  0.41800000000E+01 0. -1.
        -11    1    1    2    0    0  0.28828697916E+01  0.54118717538E+02 -0.86157395166E+01  0.54876019295E+02  0.00000000000E+00 0.  1.
         11    1    1    2    0    0  0.55272787074E+02 -0.14816168475E+02  0.15276300825E+02  0.59228077853E+02  0.00000000000E+00 0. -1.
</event>
<event>
 7    1  0.2412631E-010  0.1113173E+03  0.7561462E-02  0.1258150E+00
         -4   -1    0    0    0  501 -0.00000000000E+00  0.00000000000E+00  0.54807231792E+03  0.54807231792E+03  0.00000000000E+00 0.  1.
          4   -1    0    0  501    0  0.00000000000E+00 -0.00000000000E+00 -0.30244984591E+02  0.30244984591E+02  0.00000000000E+00 0. -1.
         25    2    1    2    0    0 -0.16100202855E+02 -0.28842416397E+02  0.42091280430E+03  0.44033965671E+03  0.12506127670E+03 0.  0.
          5    1    3    3  502    0  0.49031678566E+02 -0.39481774158E+02  0.21547304506E+03  0.22451953487E+03  0.41800000000E+01 0.  1.
         -5    1    3    3    0  502 -0.65131881421E+02  0.10639357761E+02  0.20543975925E+03  0.21582012184E+03  0.41800000000E+01 0.  1.
        -11    1    1    2    0    0  0.11551190422E+02  0.60419499512E+02  0.82654630263E+02  0.10303268329E+03  0.00000000000E+00 0.  1.
         11    1    1    2    0    0  0.45490124335E+01 -0.31577083115E+02  0.14259898760E+02  0.34944962509E+02  0.00000000000E+00 0. -1.
</event>
<event>
 6    1  0.2412631E-010  0.1037339E+03  0.7561462E-02  0.1272634E+00
          1   -1    0    0  501    0  0.00000000000E+00  0.00000000000E+00  0.36274658598E+02  0.36274658598E+02  0.00000000000E+00 0. -1.
         -1   -1    0    0    0  501 -0.00000000000E+00 -0.00000000000E+00 -0.60710940160E+03  0.60710940160E+03  0.00000000000E+00 0.  1.
          5    1    1    2  502    0 -0.44251719071E+02 -0.36485757264E+02 -0.55391032397E+02  0.79843997857E+02  0.41800000000E+01 0. -1.
         -5    1    1    2    0  502 -0.25153284353E+02 -0.10520243926E+02 -0.37770317050E+03  0.37870901845E+03  0.41800000000E+01 0. -1.
        -11    1    1    2    0    0  0.15873853524E+02  0.64216285666E+02 -0.63453944053E+02  0.91663043733E+02  0.00000000000E+00 0.  1.
         11    1    1    2    0    0  0.53531149900E+02 -0.17210284476E+02 -0.74286596052E+02  0.93168000162E+02  0.00000000000E+00 0. -1.
</event>
<event>
 6    1  0.2412631E-010  0.2499631E+03  0.7561462E-02  0.1113328E+00
         -1   -1    0    0    0  501 -0.00000000000E+00  0.00000000000E+00  0.35705477013E+03  0.35705477013E+03  0.00000000000E+00 0.  1.
          1   -1    0    0  501    0  0.00000000000E+00 -0.00000000000E+00 -0.22774742380E+03  0.22774742380E+03  0.00000000000E+00 0. -1.
          5    1    1    2  502    0  0.15129279812E+03  0.55682144894E+02 -0.34198596901E+02  0.16485456758E+03  0.41800000000E+01 0.  1.
         -5    1    1    2    0  502  0.18886361842E+02  0.96584333820E+02 -0.34743849360E+02  0.10445015879E+03  0.41800000000E+01 0.  1.
        -11    1    1    2    0    0 -0.12421887421E+03 -0.61932638270E+02  0.14607069093E+03  0.20150093584E+03  0.00000000000E+00 0.  1.
         11    1    1    2    0    0 -0.45960285744E+02 -0.90333840444E+02  0.52179101663E+02  0.11399653172E+03  0.00000000000E+00 0. -1.
</event>
<event>
 7    1  0.2412631E-010  0.1335843E+03  0.7561462E-02  0.1222232E+00
          1   -1    0    0  501    0  0.00000000000E+00  0.00000000000E+00  0.88593449674E+03  0.88593449674E+03  0.00000000000E+00 0. -1.
         -1   -1    0    0    0  501 -0.00000000000E+00 -0.00000000000E+00 -0.38621725695E+02  0.38621725695E+02  0.00000000000E+00 0.  1.
         25    2    1    2    0    0  0.89628690290E+02 -0.54689088389E+02  0.71330081629E+03  0.73176458261E+03  0.12512853925E+03 0.  0.
          5    1    3    3  502    0 -0.11876022114E+02 -0.21014948924E+02  0.24316526422E+02  0.34517152790E+02  0.41800000000E+01 0. -1.
         -5    1    3    3    0  502  0.10150471240E+03 -0.33674139465E+02  0.68898428987E+03  0.69724742982E+03  0.41800000000E+01 0. -1.
        -11    1    1    2    0    0 -0.73130888301E+02 -0.54017865532E+01  0.52486678720E+02  0.90178476172E+02  0.00000000000E+00 0. -1.
         11    1    1    2    0    0 -0.16497801989E+02  0.60090874942E+02  0.81525276036E+02  0.10261316365E+03  0.00000000000E+00 0.  1.
</event>
<event>
 6    1  0.2412631E-010  0.1056581E+03  0.7561462E-02  0.1268828E+00
         -1   -1    0    0    0  501 -0.00000000000E+00  0.00000000000E+00  0.22443284004E+03  0.22443284004E+03  0.00000000000E+00 0. -1.
          1   -1    0    0  501    0  0.00000000000E+00 -0.00000000000E+00 -0.69196402517E+02  0.69196402517E+02  0.00000000000E+00 0.  1.
          5    1    1    2  502    0  0.22257607257E+02 -0.75480727913E+02  0.72232801059E+02  0.10690084806E+03  0.41800000000E+01 0. -1.
         -5    1    1    2    0  502 -0.50157330322E+02  0.22121225744E+02  0.15086878976E+02  0.57010461590E+02  0.41800000000E+01 0. -1.
        -11    1    1    2    0    0  0.32512910092E+02  0.10124352444E+02 -0.14125246323E+02  0.36866169027E+02  0.00000000000E+00 0.  1.
         11    1    1    2    0    0 -0.46131870267E+01  0.43235149725E+02  0.82042003809E+02  0.92851763878E+02  0.00000000000E+00 0. -1.
</event>
<event>
 7    1  0.2412631E-010  0.1849232E+03  0.7561462E-02  0.1163122E+00
         -1   -1    0    0    0  501 -0.00000000000E+00  0.00000000000E+00  0.22528326372E+02  0.22528326372E+02  0.00000000000E+00 0.  1.
          1   -1    0    0  501    0  0.00000000000E+00 -0.00000000000E+00 -0.17863364218E+04  0.17863364218E+04  0.00000000000E+00 0. -1.
         25    2    1    2    0    0 -0.61048983156E+02  0.14958766294E+03 -0.11372767591E+04  0.11554920674E+04  0.12514009689E+03 0.  0.
          5    1    3    3  502    0  0.34959860445E+02  0.70369989266E+02 -0.38255386738E+03  0.39056249318E+03  0.41800000000E+01 0.  1.
         -5    1    3    3    0  502 -0.96008843602E+02  0.79217673675E+02 -0.75472289171E+03  0.76492957424E+03  0.41800000000E+01 0.  1.
        -11    1    1    2    0    0 -0.77878147285E+00 -0.45825731826E+02 -0.68498914777E+02  0.82417871385E+02  0.00000000000E+00 0.  1.
         11    1    1    2    0    0  0.61827764629E+02 -0.10376193111E+03 -0.55803242153E+03  0.57095480933E+03  0.00000000000E+00 0. -1.
</event>
<event>
 7    1  0.2412631E-010  0.1428814E+03  0.7561462E-02  0.1209504E+00
          1   -1    0    0  501    0  0.00000000000E+00  0.00000000000E+00  0.18905501441E+03  0.18905501441E+03  0.00000000000E+00 0. -1.
         -1   -1    0    0    0  501 -0.00000000000E+00 -0.00000000000E+00 -0.13197210425E+03  0.13197210425E+03  0.00000000000E+00 0.  1.
         25    2    1    2    0    0  0.75905861286E+02  0.87091017768E+02  0.39241010354E+02  0.17472130324E+03  0.12506451038E+03 0.  0.
          5    1    3    3  502    0  0.10859244170E+03  0.47164109635E+02  0.28607496379E+02  0.12187137843E+03  0.41800000000E+01 0.  1.
         -5    1    3    3    0  502 -0.32686580414E+02  0.39926908132E+02  0.10633513975E+02  0.52849924803E+02  0.41800000000E+01 0.  1.
        -11    1    1    2    0    0 -0.79634851595E+01 -0.90598809433E+01  0.38893297808E+02  0.40720844208E+02  0.00000000000E+00 0. -1.
         11    1    1    2    0    0 -0.67942376126E+02 -0.78031136824E+02 -0.21051398007E+02  0.10558497121E+03  0.00000000000E+00 0.  1.
</event>
<event>
 6    1  0.2412631E-010  0.2291189E+03  0.7561462E-02  0.1127261E+00
          2   -1    0    0  501    0  0.00000000000E+00  0.00000000000E+00  0.13232332574E+04  0.13232332574E+04  0.00000000000E+00 0. -1.
         -2   -1    0    0    0  501 -0.00000000000E+00 -0.00000000000E+00 -0.43250946504E+02  0.43250946504E+02  0.00000000000E+00 0.  1.
          5    1    1    2  502    0 -0.62305651279E+02 -0.23887220070E+02  0.30294948768E+03  0.31023935590E+03  0.41800000000E+01 0. -1.
         -5    1    1    2    0  502 -0.11621397901E+03  0.12365130391E+03  0.52859128694E+03  0.55517704825E+03  0.41800000000E+01 0. -1.
        -11    1    1    2    0    0  0.13360131131E+03 -0.11281335262E+03  0.32487638201E+03  0.36894556035E+03  0.00000000000E+00 0.  1.
         11    1    1    2    0    0  0.44918318987E+02  0.13049268782E+02  0.12356515427E+03  0.13212223941E+03  0.00000000000E+00 0. -1.
</event>
<event>
 7    1  0.2412631E-010  0.1487599E+03  0.7561462E-02  0.1202005E+00
          1   -1    0    0  501    0  0.00000000000E+00  0.00000000000E+00  0.22499335602E+03  0.22499335602E+03  0.00000000000E+00 0. -1.
         -1   -1    0    0    0  501 -0.00000000000E+00 -0.00000000000E+00 -0.11643489413E+03  0.11643489413E+03  0.00000000000E+00 0.  1.
         25    2    1    2    0    0 -0.11469607159E+02  0.10281818500E+03 -0.36803409338E+01  0.16234286457E+03  0.12505410714E+03 0.  0.
          5    1    3    3  502    0  0.38630835486E+02 -0.48787204237E+01 -0.17104209882E+02  0.42733707528E+02  0.41800000000E+01 0.  1.
         -5    1    3    3    0  502 -0.50100442645E+02  0.10769690543E+03  0.13423868949E+02  0.11960915705E+03  0.41800000000E+01 0.  1.
        -11    1    1    2    0    0 -0.15430412196E+02 -0.11046634303E+03  0.91525867457E+02  0.14428407735E+03  0.00000000000E+00 0.  1.
         11    1    1    2    0    0  0.26900019355E+02  0.76481580267E+01  0.20712935370E+02  0.34801308224E+02  0.00000000000E+00 0. -1.
</event>
<event>
 6    1  0.2412631E-010  0.1117143E+03  0.7561462E-02  0.1257428E+00
         -1   -1    0    0    0  501 -0.00000000000E+00  0.00000000000E+00  0.26683927975E+03  0.26683927975E+03  0.00000000000E+00 0.  1.
          1   -1    0    0  501    0  0.00000000000E+00 -0.00000000000E+00 -0.70829242591E+02  0.70829242591E+02  0.00000000000E+00 0. -1.
          5    1    1    2  502    0 -0.14138586821E+02  0.74805622015E+02  0.84050375539E+02  0.11348003679E+03  0.41800000000E+01 0.  1.
         -5    1    1    2    0  502 -0.11038255246E+02 -0.46617536590E+02  0.11541002072E+03  0.12502792920E+03  0.41800000000E+01 0.  1.
        -11    1    1    2    0    0  0.41909804719E+02  0.21187843121E+02 -0.11332580653E+01  0.46974894375E+02  0.00000000000E+00 0.  1.
         11    1    1    2    0    0 -0.16732962652E+02 -0.49375928546E+02 -0.23171010323E+01  0.52185661978E+02  0.00000000000E+00 0. -1.
</event>
<event>
 7    1  0.2412631E-010  0.6732435E+02  0.7561462E-02  0.1369436E+00
         -2   -1    0    0    0  501 -0.00000000000E+00  0.00000000000E+00  0.14658296103E+03  0.14658296103E+03  0.00000000000E+00 0.  1.
          2   -1    0    0  501    0  0.00000000000E+00 -0.00000000000E+00 -0.85416209775E+02  0.85416209775E+02  0.00000000000E+00 0. -1.
         25    2    1    2    0    0 -0.23055474291E+02  0.16871352065E+02  0.39818882659E+02  0.13436996019E+03  0.12511412938E+03 0.  0.
          5    1    3    3  502    0 -0.31252046755E+02  0.48388276648E+01 -0.41110597636E+02  0.52035164240E+02  0.41800000000E+01 0.  1.
         -5    1    3    3    0  502  0.81965724645E+01  0.12032524400E+02  0.80929480295E+02  0.82334795952E+02  0.41800000000E+01 0.  1.
        -11    1    1    2    0    0  0.54497282191E+02 -0.97229387795E+01  0.31665452965E+02  0.63774526389E+02  0.00000000000E+00 0. -1.
         11    1    1    2    0    0 -0.31441807900E+02 -0.71484132851E+01 -0.10317584370E+02  0.33854684222E+02  0.00000000000E+00 0.  1.
</event>
<event>
 7    1  0.2412631E-010  0.1023354E+03  0.7561462E-02  0.1275460E+00
         -2   -1    0    0    0  501 -0.00000000000E+00  0.00000000000E+00  0.22436021407E+03  0.22436021407E+03  0.00000000000E+00 0.  1.
          2   -1    0    0  501    0  0.00000000000E+00 -0.00000000000E+00 -0.56485115115E+02  0.56485115115E+02  0.00000000000E+00 0. -1.
         25    2    1    2    0    0 -0.78068762803E+01 -0.21143209819E+02  0.11580135058E+03  0.17191111476E+03  0.12504197673E+03 0.  0.
          5    1    3    3  502    0  0.26196415880E+02  0.37463041644E+02  0.86595299197E+02  0.98009948154E+02  0.41800000000E+01 0.  1.
         -5    1    3    3    0  502 -0.34003292160E+02 -0.58606251463E+02  0.29206051379E+02  0.73901166604E+02  0.41800000000E+01 0.  1.
        -11    1    1    2    0    0 -0.10730103968E+02 -0.32447342910E+02  0.36572151465E+01  0.34370633042E+02  0.00000000000E+00 0. -1.
         11    1    1    2    0    0  0.18536980248E+02  0.53590552729E+02  0.48416533232E+02  0.74563581384E+02  0.00000000000E+00 0.  1.
</event>
<event>
 6    1  0.2412631E-010  0.1226575E+03  0.7561462E-02  0.1238776E+00
         -3   -1    0    0    0  501 -0.00000000000E+00  0.00000000000E+00  0.31437788817E+03  0.31437788817E+03  0.00000000000E+00 0.  1.
          3   -1    0    0  501    0  0.00000000000E+00 -0.00000000000E+00 -0.66096422516E+02  0.66096422516E+02  0.00000000000E+00 0. -1.
          5    1    1    2  502    0  0.11672818820E+03  0.14417946621E+02  0.62491911807E+02  0.13325186132E+03  0.41800000000E+01 0. -1.
         -5    1    1    2    0  502 -0.22758226480E+02 -0.21819193075E+01  0.65023542594E+02  0.69052379654E+02  0.41800000000E+01 0. -1.
        -11    1    1    2    0    0 -0.23461794794E+02 -0.23238503852E+02  0.97767998632E+02  0.10319430911E+03  0.00000000000E+00 0.  1.
         11    1    1    2    0    0 -0.70508166922E+02  0.11002476538E+02  0.22998012619E+02  0.74975760597E+02  0.00000000000E+00 0. -1.
</event>
<event>
 7    1  0.2710120E-010  0.1582601E+03  0.7561462E-02  0.1190675E+00
         -3   -1    0    0    0  501 -0.00000000000E+00  0.00000000000E+00  0.14501165441E+04  0.14501165441E+04  0.00000000000E+00 0.  1.
          3   -1    0    0  501    0  0.00000000000E+00 -0.00000000000E+00 -0.20892251300E+02  0.20892251300E+02  0.00000000000E+00 0. -1.
         25    2    1    2    0    0  0.13339264524E+03  0.71157486183E+01  0.85969083029E+03  0.87895044887E+03  0.12506532768E+03 0.  0.
          5    1    3    3  502    0  0.11401989373E+03  0.36967358135E+02  0.80284546443E+03  0.81175454041E+03  0.41800000000E+01 0.  1.
         -5    1    3    3    0  502  0.19372751517E+02 -0.29851609517E+02  0.56845365867E+02  0.67195908451E+02  0.41800000000E+01 0.  1.
        -11    1    1    2    0    0 -0.80829087768E+02 -0.48136916310E+02  0.30028076165E+03  0.31467290947E+03  0.00000000000E+00 0. -1.
         11    1    1    2    0    0 -0.52563557475E+02  0.41021167692E+02  0.26925270088E+03  0.27738543708E+03  0.00000000000E+00 0.  1.
</event>
<event>
 6    1  0.2412631E-010  0.9725169E+02  0.7561462E-02  0.1286184E+00
         -2   -1    0    0    0  501 -0.00000000000E+00  0.00000000000E+00  0.80738588160E+03  0.80738588160E+03  0.00000000000E+00 0.  1.
          2   -1    0    0  501    0  0.00000000000E+00 -0.00000000000E+00 -0.17341045791E+02  0.17341045791E+02  0.00000000000E+00 0. -1.
          5    1    1    2  502    0 -0.48290656334E+02  0.53031052265E+02  0.13636738678E+03  0.15413570829E+03  0.41800000000E+01 0.  1.
         -5    1    1    2    0  502  0.32377182970E+02 -0.88055988132E+01  0.31367292793E+03  0.31549009281E+03  0.41800000000E+01 0.  1.
        -11    1    1    2    0    0  0.18296346641E+01 -0.64298420242E+02  0.30872956169E+03  0.31535944044E+03  0.00000000000E+00 0.  1.
         11    1    1    2    0    0  0.14083838700E+02  0.20072966790E+02  0.31274959409E+02  0.39741685852E+02  0.00000000000E+00 0. -1.
</event>
<event>
 7    1  0.2412631E-010  0.3017223E+03  0.7561462E-02  0.1084383E+00
          2   -1    0    0  501    0  0.00000000000E+00  0.00000000000E+00  0.18039166253E+04  0.18039166253E+04  0.00000000000E+00 0. -1.
         -2   -1    0    0    0  501 -0.00000000000E+00 -0.00000000000E+00 -0.61733929733E+02  0.61733929733E+02  0.00000000000E+00 0.  1.
         25    2    1    2    0    0  0.85815153425E+02 -0.27645032287E+03  0.53657092247E+03  0.62238068501E+03  0.12514128277E+03 0.  0.
          5    1    3    3  502    0 -0.72138088560E+01 -0.14837054026E+03  0.18891476086E+03  0.24035830655E+03  0.41800000000E+01 0.  1.
         -5    1    3    3    0  502  0.93028962281E+02 -0.12807978261E+03  0.34765616161E+03  0.38202237846E+03  0.41800000000E+01 0.  1.
        -11    1    1    2    0    0  0.73164772194E+00  0.99507878196E+02  0.54129940518E+03  0.55037023827E+03  0.00000000000E+00 0. -1.
         11    1    1    2    0    0 -0.86546801147E+02  0.17694244467E+03  0.66431236790E+03  0.69289963174E+03  0.00000000000E+00 0.  1.
</event>
<event>
 6    1  0.2412631E-010  0.1372931E+03  0.7561462E-02  0.1217018E+00
         -1   -1    0    0    0  501 -0.00000000000E+00  0.00000000000E+00  0.75409802312E+02  0.75409802312E+02  0.00000000000E+00 0. -1.
          1   -1    0    0  501    0  0.00000000000E+00 -0.00000000000E+00 -0.29724168566E+03  0.29724168566E+03  0.00000000000E+00 0.  1.
          5    1    1    2  502    0  0.72678708839E+02  0.82471153471E+02 -0.86016802701E+02  0.13964257453E+03  0.41800000000E+01 0. -1.
         -5    1    1    2    0  502 -0.46098877775E+02  0.78593794686E+01 -0.33337813417E+02  0.57582623951E+02  0.41800000000E+01 0. -1.
        -11    1    1    2    0    0 -0.41469858601E+02 -0.93609152151E+02 -0.11623028895E+03  0.15489319742E+03  0.00000000000E+00 0.  1.
         11    1    1    2    0    0  0.14890027537E+02  0.32786192112E+01  0.13753021714E+02  0.20533092077E+02  0.00000000000E+00 0. -1.
</event>
<event>
 6    1  0.2412631E-010  0.8393040E+02  0.7561462E-02  0.1318254E+00
          2   -1    0    0  501    0  0.00000000000E+00  0.00000000000E+00  0.30228164565E+03  0.30228164565E+03  0.00000000000E+00 0. -1.
         -2   -1    0    0    0  501 -0.00000000000E+00 -0.00000000000E+00 -0.41846114836E+02  0.41846114836E+02  0.00000000000E+00 0.  1.
          5    1    1    2  502    0  0.49740538367E+01 -0.46242255431E+02  0.15245528935E+03  0.15944646453E+03  0.41800000000E+01 0.  1.
         -5    1    1    2    0  502 -0.32173944072E+02  0.34230603988E+02  0.10921125540E+02  0.48411158937E+02  0.41800000000E+01 0.  1.
        -11    1    1    2    0    0 -0.12279845861E+02 -0.19800620038E+02  0.79134452204E+02  0.82493155437E+02  0.00000000000E+00 0. -1.
         11    1    1    2    0    0  0.39479736097E+02  0.31812271480E+02  0.17924663719E+02  0.53776981585E+02  0.00000000000E+00 0.  1.
</event>
<event>
 6    1  0.2412631E-010  0.2550545E+03  0.7561462E-02  0.1110152E+00
          2   -1    0    0  501    0  0.00000000000E+00  0.00000000000E+00  0.41151134327E+03  0.41151134327E+03  0.00000000000E+00 0.  1.
         -2   -1    0    0    0  501 -0.00000000000E+00 -0.00000000000E+00 -0.17399228355E+03  0.17399228355E+03  0.00000000000E+00 0. -1.
          5    1    1    2  502    0 -0.38440238339E+02  0.52770857010E+02  0.13662252362E+00  0.65420993104E+02  0.41800000000E+01 0.  1.
         -5    1    1    2    0  502 -0.20035371831E+03 -0.18541752728E+01  0.12454559257E+03  0.23595365527E+03  0.41800000000E+01 0.  1.
        -11    1    1    2    0    0  0.88180184755E+02 -0.22591256148E+02  0.92073844414E+02  0.12947471824E+03  0.00000000000E+00 0.  1.
         11    1    1    2    0    0  0.15061377190E+03 -0.28325425589E+02  0.20763000207E+02  0.15465426020E+03  0.00000000000E+00 0. -1.
</event>
<event>
 7    1  0.2412631E-010  0.1308061E+03  0.7561462E-02  0.1226265E+00
         -1   -1    0    0    0  501 -0.00000000000E+00  0.00000000000E+00  0.12534240250E+03  0.12534240250E+03  0.00000000000E+00 0.  1.
          1   -1    0    0  501    0  0.00000000000E+00 -0.00000000000E+00 -0.17224254796E+03  0.17224254796E+03  0.00000000000E+00 0. -1.
         25    2    1    2    0    0 -0.90172366693E+02  0.42825151021E+02 -0.22671461982E+02  0.16160651740E+03  0.12505047782E+03 0.  0.
          5    1    3    3  502    0 -0.11997535029E+03  0.48068224128E+02 -0.15607978515E+02  0.13025252490E+03  0.41800000000E+01 0.  1.
         -5    1    3    3    0  502  0.29802983600E+02 -0.52430731068E+01 -0.70634834670E+01  0.31353992501E+02  0.41800000000E+01 0.  1.
        -11    1    1    2    0    0  0.84391054680E+02 -0.33539018865E+02  0.17808695484E+02  0.92541155878E+02  0.00000000000E+00 0.  1.
         11    1    1    2    0    0  0.57813120126E+01 -0.92861321568E+01 -0.42037378966E+02  0.43437277186E+02  0.00000000000E+00 0. -1.
</event>
<event>
 7    1  0.2412631E-010  0.1447177E+03  0.7561462E-02  0.1207118E+00
         -1   -1    0    0    0  501 -0.00000000000E+00  0.00000000000E+00  0.78345406162E+02  0.78345406162E+02  0.00000000000E+00 0. -1.
          1   -1    0    0  501    0  0.00000000000E+00 -0.00000000000E+00 -0.45789226849E+03  0.45789226849E+03  0.00000000000E+00 0.  1.
         25    2    1    2    0    0  0.11381076511E+03 -0.63070850831E+02 -0.28286252489E+03  0.33553252119E+03  0.12506015477E+03 0.  0.
          5    1    3    3  502    0  0.83049975986E+01 -0.36647586478E+02 -0.18608027101E+03  0.18988248534E+03  0.41800000000E+01 0.  1.
         -5    1    3    3    0  502  0.10550576751E+03 -0.26423264353E+02 -0.96782253876E+02  0.14565003585E+03  0.41800000000E+01 0.  1.
        -11    1    1    2    0    0 -0.25665629105E+02 -0.10732447729E+02  0.22002655804E+02  0.35468673700E+02  0.00000000000E+00 0. -1.
         11    1    1    2    0    0 -0.88145136004E+02  0.73803298560E+02 -0.11868699325E+03  0.16523647977E+03  0.00000000000E+00 0.  1.
</event>
<event>
 7    1  0.2412631E-010  0.6885592E+02  0.7561462E-02  0.1364027E+00
          1   -1    0    0  501    0  0.00000000000E+00  0.00000000000E+00  0.35116314060E+03  0.35116314060E+03  0.00000000000E+00 0. -1.
         -1   -1    0    0    0  501 -0.00000000000E+00 -0.00000000000E+00 -0.35966374932E+02  0.35966374932E+02  0.00000000000E+00 0.  1.
         25    2    1    2    0    0 -0.15400909145E+02 -0.71903674732E+01  0.13695721767E+03  0.18628908280E+03  0.12512974671E+03 0.  0.
          5    1    3    3  502    0 -0.28343095710E+02  0.61267711141E+01 -0.15158762850E+02  0.32986798721E+02  0.41800000000E+01 0.  1.
         -5    1    3    3    0  502  0.12942186565E+02 -0.13317138587E+02  0.15211598052E+03  0.15330228407E+03  0.41800000000E+01 0.  1.
        -11    1    1    2    0    0  0.16470733779E+02 -0.39437921967E+02  0.11157056604E+03  0.11947646617E+03  0.00000000000E+00 0.  1.
         11    1    1    2    0    0 -0.10698246342E+01  0.46628289441E+02  0.66668981955E+02  0.81363966569E+02  0.00000000000E+00 0. -1.
</event>
<event>
 7    1  0.2412631E-010  0.1238209E+03  0.7561462E-02  0.1236924E+00
          2   -1    0    0  501    0  0.00000000000E+00  0.00000000000E+00  0.24792779198E+03  0.24792779198E+03  0.00000000000E+00 0. -1.
         -2   -1    0    0    0  501 -0.00000000000E+00 -0.00000000000E+00 -0.70270170912E+02  0.70270170912E+02  0.00000000000E+00 0.  1.
         25    2    1    2    0    0 -0.63219131070E+01  0.59965092565E+02  0.46753389024E+02  0.14654911552E+03  0.12511988236E+03 0.  0.
          5    1    3    3  502    0 -0.24391010784E+02  0.94388938660E+02  0.44872042972E+02  0.10740188913E+03  0.41800000000E+01 0. -1.
         -5    1    3    3    0  502  0.18069097677E+02 -0.34423846095E+02  0.18813460518E+01  0.39147226387E+02  0.41800000000E+01 0. -1.
        -11    1    1    2    0    0 -0.37827339248E+02 -0.54690238275E+02  0.81377566377E+02  0.10509156991E+03  0.00000000000E+00 0.  1.
         11    1    1    2    0    0  0.44149252354E+02 -0.52748542903E+01  0.49526665671E+02  0.66557277466E+02  0.00000000000E+00 0. -1.
</event>
<event>
 7    1  0.2412631E-010  0.1020185E+03  0.7561462E-02  0.1276108E+00
          1   -1    0    0  501    0  0.00000000000E+00  0.00000000000E+00  0.28665598346E+03  0.28665598346E+03  0.00000000000E+00 0. -1.
         -1   -1    0    0    0  501 -0.00000000000E+00 -0.00000000000E+00 -0.60046650264E+02  0.60046650264E+02  0.00000000000E+00 0.  1.
         25    2    1    2    0    0  0.30707427255E+02 -0.37712552111E+02  0.19744769174E+03  0.23872776302E+03  0.12506067003E+03 0.  0.
          5    1    3    3  502    0  0.32435798057E+02 -0.64888690835E+02  0.19826946147E+03  0.21116551553E+03  0.41800000000E+01 0. -1.
         -5    1    3    3    0  502 -0.17283708017E+01  0.27176138724E+02 -0.82176973456E+00  0.27562247496E+02  0.41800000000E+01 0. -1.
        -11    1    1    2    0    0 -0.62718431187E+02  0.34681274592E+02  0.22701509666E+02  0.75178128196E+02  0.00000000000E+00 0.  1.
         11    1    1    2    0    0  0.32011003932E+02  0.30312775191E+01  0.64601317867E+01  0.32796742503E+02  0.00000000000E+00 0. -1.
</event>
<event>
 7    1  0.2412631E-010  0.1096933E+03  0.7561462E-02  0.1261139E+00
          1   -1    0    0  501    0  0.00000000000E+00  0.00000000000E+00  0.53873006415E+03  0.53873006415E+03  0.00000000000E+00 0. -1.
         -1   -1    0    0    0  501 -0.00000000000E+00 -0.00000000000E+00 -0.31265377429E+02  0.31265377429E+02  0.00000000000E+00 0.  1.
         25    2    1    2    0    0  0.72153660466E+01  0.66305560275E+02  0.29193491937E+03  0.32454334749E+03  0.12511554029E+03 0.  0.
          5    1    3    3  502    0 -0.39837280283E+02  0.39222741365E+02  0.24891102944E+03  0.25514624300E+03  0.41800000000E+01 0. -1.
         -5    1    3    3    0  502  0.47052646329E+02  0.27082818911E+02  0.43023889929E+02  0.69397104488E+02  0.41800000000E+01 0. -1.
        -11    1    1    2    0    0 -0.46682741756E+02 -0.32183441227E+02  0.65624946614E+02  0.86727653521E+02  0.00000000000E+00 0.  1.
         11    1    1    2    0    0  0.39467375710E+02 -0.34122119049E+02  0.14990482074E+03  0.15872444057E+03  0.00000000000E+00 0. -1.
</event>
<event>
 6    1  0.2412631E-010  0.1177893E+03  0.7561462E-02  0.1246789E+00
          2   -1    0    0  501    0  0.00000000000E+00  0.00000000000E+00  0.52073917493E+03  0.52073917493E+03  0.00000000000E+00 0. -1.
         -2   -1    0    0    0  501 -0.00000000000E+00 -0.00000000000E+00 -0.32156483989E+02  0.32156483989E+02  0.00000000000E+00 0.  1.
          5    1    1    2  502    0 -0.76194169293E+02  0.47663826176E+02  0.13678229465E+03  0.16372006685E+03  0.41800000000E+01 0.  1.
         -5    1    1    2    0  502  0.10413986738E+02 -0.35580855126E+02  0.17601227301E+03  0.17992287520E+03  0.41800000000E+01 0.  1.
        -11    1    1    2    0    0 -0.16953372987E+02 -0.18772996118E+02  0.18269064960E+02  0.31202579595E+02  0.00000000000E+00 0. -1.
         11    1    1    2    0    0  0.82733555541E+02  0.66900250689E+01  0.15751905832E+03  0.17805013727E+03  0.00000000000E+00 0.  1.
</event>
<event>
 6    1  0.2412631E-010  0.1191516E+03  0.7561462E-02  0.1244503E+00
          2   -1    0    0  501    0  0.00000000000E+00  0.00000000000E+00  0.45069049820E+03  0.45069049820E+03  0.00000000000E+00 0. -1.
         -2   -1    0    0    0  501 -0.00000000000E+00 -0.00000000000E+00 -0.42323759090E+02  0.42323759090E+02  0.00000000000E+00 0.  1.
          5    1    1    2  502    0 -0.47819658770E+02  0.82773043473E+02  0.14456426701E+03  0.17336203791E+03  0.41800000000E+01 0.  1.
         -5    1    1    2    0  502  0.43025968351E+02 -0.56901286424E+01  0.14403284339E+03  0.15048768684E+03  0.41800000000E+01 0.  1.
        -11    1    1    2    0    0  0.33370958705E+02 -0.45477760169E+02  0.18611727479E+02  0.59399023179E+02  0.00000000000E+00 0.  1.
         11    1    1    2    0    0 -0.28577268286E+02 -0.31605154661E+02  0.10115790123E+03  0.10976550936E+03  0.00000000000E+00 0. -1.
</event>
<event>
 7    1  0.2412631E-010  0.1263591E+03  0.7561462E-02  0.1232960E+00
          2   -1    0    0  501    0  0.00000000000E+00  0.00000000000E+00  0.19066779046E+03  0.19066779046E+03  0.00000000000E+00 0. -1.
         -2   -1    0    0    0  501 -0.00000000000E+00 -0.00000000000E+00 -0.10166781141E+03  0.10166781141E+03  0.00000000000E+00 0.  1.
         25    2    1    2    0    0 -0.15662298434E+02 -0.83035300697E+02  0.24735770622E+02  0.15298890184E+03  0.12511425572E+03 0.  0.
          5    1    3    3  502    0  0.42086181412E+02 -0.34168191757E+02  0.49246144137E+02  0.73357801945E+02  0.41800000000E+01 0. -1.
         -5    1    3    3    0  502 -0.57748479846E+02 -0.48867108941E+02 -0.24510373515E+02  0.79631099896E+02  0.41800000000E+01 0. -1.
        -11    1    1    2    0    0  0.14182390449E+02  0.10229117197E+03  0.60449030046E+02  0.11966080935E+03  0.00000000000E+00 0. -1.
         11    1    1    2    0    0  0.14799079850E+01 -0.19255871269E+02  0.38151783786E+01  0.19685890685E+02  0.00000000000E+00 0.  1.
</event>
<event>
 7    1  0.2412631E-010  0.8453222E+02  0.7561462E-02  0.1316660E+00
          2   -1    0    0  501    0  0.00000000000E+00  0.00000000000E+00  0.76520181476E+03  0.76520181476E+03  0.00000000000E+00 0. -1.
         -2   -1    0    0    0  501 -0.00000000000E+00 -0.00000000000E+00 -0.20316922168E+02  0.20316922168E+02  0.00000000000E+00 0.  1.
         25    2    1    2    0    0 -0.17036400617E+02  0.50866019723E+02  0.32188012773E+03  0.34948225375E+03  0.12511370087E+03 0.  0.
          5    1    3    3  502    0 -0.29011095327E+02  0.40279589643E+02  0.32166445447E+02  0.59297905584E+02  0.41800000000E+01 0. -1.
         -5    1    3    3    0  502  0.11974694710E+02  0.10586430080E+02  0.28971368229E+03  0.29018434816E+03  0.41800000000E+01 0. -1.
        -11    1    1    2    0    0  0.46825592798E+02 -0.55463172379E+02  0.34169328026E+03  0.34931804621E+03  0.00000000000E+00 0. -1.
         11    1    1    2    0    0 -0.29789192182E+02  0.45971526562E+01  0.81311484605E+02  0.86718436979E+02  0.00000000000E+00 0.  1.
</event>
<event>
 7    1  0.2412631E-010  0.2677807E+03  0.7561462E-02  0.1102557E+00
          2   -1    0    0  501    0  0.00000000000E+00  0.00000000000E+00  0.33617494631E+04  0.33617494631E+04  0.00000000000E+00 0. -1.
         -2   -1    0    0    0  501 -0.00000000000E+00 -0.00000000000E+00 -0.24028290689E+02  0.24028290689E+02  0.00000000000E+00 0.  1.
         25    2    1    2    0    0 -0.48200767167E+02 -0.24972195551E+03  0.20949300142E+04  0.21140126083E+04  0.12503269354E+03 0.  0.
          5    1    3    3  502    0 -0.15957968588E+02  0.86157964963E+01  0.26481996803E+03  0.26547311838E+03  0.41800000000E+01 0. -1.
         -5    1    3    3    0  502 -0.32242798579E+02 -0.25833775201E+03  0.18301100462E+04  0.18485394899E+04  0.41800000000E+01 0. -1.
        -11    1    1    2    0    0  0.29636722496E+02  0.71643671798E+02  0.21628301398E+03  0.22975964216E+03  0.00000000000E+00 0.  1.
         11    1    1    2    0    0  0.18564044671E+02  0.17807828371E+03  0.10265081442E+04  0.10420055033E+04  0.00000000000E+00 0. -1.
</event>
<event>
 7    1  0.2412631E-010  0.9925270E+02  0.7561462E-02  0.1281875E+00
         -1   -1    0    0    0  501 -0.00000000000E+00  0.00000000000E+00  0.22287110742E+02  0.22287110742E+02  0.00000000000E+00 0.  1.
          1   -1    0    0  501    0  0.00000000000E+00 -0.00000000000E+00 -0.66954737300E+03  0.66954737300E+03  0.00000000000E+00 0. -1.
         25    2    1    2    0    0  0.47505956263E+02 -0.43977082373E+01 -0.45728098202E+03  0.47648313898E+03  0.12511646375E+03 0.  0.
          5    1    3    3  502    0 -0.30205031772E+02  0.34577352853E+02 -0.18334490849E+03  0.18905228151E+03  0.41800000000E+01 0. -1.
         -5    1    3    3    0  502  0.77710988035E+02 -0.38975061090E+02 -0.27393607353E+03  0.28743085747E+03  0.41800000000E+01 0. -1.
        -11    1    1    2    0    0 -0.28443925556E+02  0.24588339069E+02 -0.18286076466E+03  0.18668610707E+03  0.00000000000E+00 0. -1.
         11    1    1    2    0    0 -0.19062030707E+02 -0.20190630832E+02 -0.71185155818E+01  0.28665237696E+02  0.00000000000E+00 0.  1.
</event>
<event>
 7    1  0.2412631E-010  0.1397505E+03  0.7561462E-02  0.1213665E+00
         -1   -1    0    0    0  501 -0.00000000000E+00  0.00000000000E+00  0.40586724259E+03  0.40586724259E+03  0.00000000000E+00 0.  1.
          1   -1    0    0  501    0  0.00000000000E+00 -0.00000000000E+00 -0.13843351651E+03  0.13843351651E+03  0.00000000000E+00 0. -1.
         25    2    1    2    0    0  0.10903575756E+03  0.23631532256E+02  0.34369046916E+03  0.38239136214E+03  0.12511102869E+03 0.  0.
          5    1    3    3  502    0  0.94592821247E+02 -0.38708765006E+02  0.23302224938E+03  0.25448577843E+03  0.41800000000E+01 0.  1.
         -5    1    3    3    0  502  0.14442936310E+02  0.62340297262E+02  0.11066821978E+03  0.12790558370E+03  0.41800000000E+01 0.  1.
        -11    1    1    2    0    0 -0.55436630017E+02 -0.25812320199E+01 -0.87134103103E+02  0.10330650817E+03  0.00000000000E+00 0. -1.
         11    1    1    2    0    0 -0.53599127540E+02 -0.21050300237E+02  0.10877360021E+02  0.58602888786E+02  0.00000000000E+00 0.  1.
</event>
<event>
 7    1  0.2412631E-010  0.1525292E+03  0.7561462E-02  0.1197399E+00
          2   -1    0    0  501    0  0.00000000000E+00  0.00000000000E+00  0.92204850681E+03  0.92204850681E+03  0.00000000000E+00 0. -1.
         -2   -1    0    0    0  501 -0.00000000000E+00 -0.00000000000E+00 -0.29304070618E+02  0.29304070618E+02  0.00000000000E+00 0.  1.
         25    2    1    2    0    0  0.97473079401E+02 -0.71344902379E+02  0.52699129960E+03  0.55493204708E+03  0.12505459098E+03 0.  0.
          5    1    3    3  502    0  0.46135820690E+02  0.28483516573E+02  0.10501928529E+03  0.11826388862E+03  0.41800000000E+01 0. -1.
         -5    1    3    3    0  502  0.51337258711E+02 -0.99828418952E+02  0.42197201430E+03  0.43666815847E+03  0.41800000000E+01 0. -1.
        -11    1    1    2    0    0  0.34639283404E+01  0.28467962530E+02  0.23657271799E+02  0.37176473731E+02  0.00000000000E+00 0.  1.
         11    1    1    2    0    0 -0.10093700774E+03  0.42876939849E+02  0.34209586480E+03  0.35924405662E+03  0.00000000000E+00 0. -1.
</event>
<event>
 6    1  0.2412631E-010  0.1294702E+03  0.7561462E-02  0.1228244E+00
         -3   -1    0    0    0  501 -0.00000000000E+00  0.00000000000E+00  0.35283181292E+02  0.35283181292E+02  0.00000000000E+00 0.  1.
          3   -1    0    0  501    0  0.00000000000E+00 -0.00000000000E+00 -0.62881970594E+03  0.62881970594E+03  0.00000000000E+00 0. -1.
          5    1    1    2  502    0  0.16392023197E+02 -0.96525879895E+02 -0.27401571367E+03  0.29101207475E+03  0.41800000000E+01 0.  1.
         -5    1    1    2    0  502  0.37153626852E+02  0.11186059264E+02 -0.19558228752E+02  0.43652223563E+02  0.41800000000E+01 0.  1.
        -11    1    1    2    0    0  0.11316243162E+02  0.42990072315E+02 -0.46192306979E+02  0.64108758380E+02  0.00000000000E+00 0.  1.
         11    1    1    2    0    0 -0.64861893210E+02  0.42349748316E+02 -0.25377027524E+03  0.26532983053E+03  0.00000000000E+00 0. -1.
</event>
<event>
 6    1  0.2412631E-010  0.1499995E+03  0.7561462E-02  0.1200474E+00
         -2   -1    0    0    0  501 -0.00000000000E+00  0.00000000000E+00  0.58077765857E+02  0.58077765857E+02  0.00000000000E+00 0.  1.
          2   -1    0    0  501    0  0.00000000000E+00 -0.00000000000E+00 -0.61082962735E+03  0.61082962735E+03  0.00000000000E+00 0. -1.
          5    1    1    2  502    0 -0.47070511923E+02 -0.28454770733E+02 -0.68169580601E+02  0.87691910627E+02  0.41800000000E+01 0. -1.
         -5    1    1    2    0  502 -0.42636536159E+02  0.95292096404E+02 -0.38972855949E+02  0.11151149606E+03  0.41800000000E+01 0. -1.
        -11    1    1    2    0    0  0.34469352300E+02 -0.76844686201E+02 -0.33796567820E+03  0.34830165329E+03  0.00000000000E+00 0.  1.
         11    1    1    2    0    0  0.55237695782E+02  0.10007360530E+02 -0.10764374674E+03  0.12140233323E+03  0.00000000000E+00 0. -1.
</event>
<event>
 7    1  0.2412631E-010  0.1269281E+03  0.7561462E-02  0.1232086E+00
         -1   -1    0    0    0  501 -0.00000000000E+00  0.00000000000E+00  0.23033867574E+02  0.23033867574E+02  0.00000000000E+00 0. -1.
          1   -1    0    0  501    0  0.00000000000E+00 -0.00000000000E+00 -0.10104725446E+04  0.10104725446E+04  0.00000000000E+00 0.  1.
         25    2    1    2    0    0  0.10218106867E+03 -0.41131657359E+02 -0.61031746009E+03  0.63267605058E+03  0.12513512240E+03 0.  0.
          5    1    3    3  502    0  0.51146869019E+02  0.14662117657E+02 -0.75130065421E+02  0.92157360177E+02  0.41800000000E+01 0.  1.
         -5    1    3    3    0  502  0.51034199654E+02 -0.55793775015E+02 -0.53518739466E+03  0.54051869040E+03  0.41800000000E+01 0.  1.
        -11    1    1    2    0    0 -0.33182494901E+02  0.44694308848E+02 -0.92625765372E+02  0.10806568198E+03  0.00000000000E+00 0.  1.
         11    1    1    2    0    0 -0.68998573773E+02 -0.35626514893E+01 -0.28449545161E+03  0.29276467966E+03  0.00000000000E+00 0. -1.
</event>
<event>
 6    1  0.2412631E-010  0.1331966E+03  0.7561462E-02  0.1222788E+00
          1   -1    0    0  501    0  0.00000000000E+00  0.00000000000E+00  0.44418607192E+03  0.44418607192E+03  0.00000000000E+00 0. -1.
         -1   -1    0    0    0  501 -0.00000000000E+00 -0.00000000000E+00 -0.54569957868E+02  0.54569957868E+02  0.00000000000E+00 0.  1.
          5    1    1    2  502    0  0.19157983049E+02 -0.11100227204E+02 -0.13577802032E+02  0.26307270222E+02  0.41800000000E+01 0.  1.
         -5    1    1    2    0  502  0.73281509869E+02  0.71472053134E+02  0.19677322432E+03  0.22184591111E+03  0.41800000000E+01 0.  1.
        -11    1    1    2    0    0 -0.69700923840E+02  0.72421303470E+01  0.89982467122E+02  0.11405047841E+03  0.00000000000E+00 0.  1.
         11    1    1    2    0    0 -0.22738569078E+02 -0.67613956276E+02  0.11643822465E+03  0.13655237005E+03  0.00000000000E+00 0. -1.
</event>
<event>
 7    1  0.2412631E-010  0.1743219E+03  0.7561462E-02  0.1173414E+00
          2   -1    0    0  501    0  0.00000000000E+00  0.00000000000E+00  0.26324272906E+04  0.26324272906E+04  0.00000000000E+00 0. -1.
         -2   -1    0    0    0  501 -0.00000000000E+00 -0.00000000000E+00 -0.31093101925E+02  0.31093101925E+02  0.00000000000E+00 0.  1.
         25    2    1    2    0    0  0.14572475174E+03 -0.94366063074E+02  0.22983483020E+04  0.23082890910E+04  0.12511176349E+03 0.  0.
          5    1    3    3  502    0  0.13279396120E+03 -0.79225859636E+02  0.12224194881E+04  0.12321679472E+04  0.41800000000E+01 0. -1.
         -5    1    3    3    0  502  0.12930790542E+02 -0.15140203438E+02  0.10759288139E+04  0.10761211438E+04  0.41800000000E+01 0. -1.
        -11    1    1    2    0    0 -0.73293550269E+02  0.47650894296E+02  0.90010477171E+02  0.12547684344E+03  0.00000000000E+00 0. -1.
         11    1    1    2    0    0 -0.72431201476E+02  0.46715168778E+02  0.21297540950E+03  0.22975445805E+03  0.00000000000E+00 0.  1.
</event>
<event>
 6    1  0.2412631E-010  0.1016575E+03  0.7561462E-02  0.1276849E+00
         -2   -1    0    0    0  501 -0.00000000000E+00  0.00000000000E+00  0.33216714642E+02  0.33216714642E+02  0.00000000000E+00 0.  1.
          2   -1    0    0  501    0  0.00000000000E+00 -0.00000000000E+00 -0.44464815309E+03  0.44464815309E+03  0.00000000000E+00 0. -1.
          5    1    1    2  502    0  0.27033507668E+00 -0.46174121304E+02 -0.23666217136E+02  0.52054632770E+02  0.41800000000E+01 0.  1.
         -5    1    1    2    0  502  0.54618160541E+02  0.36702001144E+02 -0.19487307081E+03  0.20572594994E+03  0.41800000000E+01 0.  1.
        -11    1    1    2    0    0  0.11450230057E+01  0.30975527934E+02 -0.12796913208E+03  0.13166963649E+03  0.00000000000E+00 0.  1.
         11    1    1    2    0    0 -0.56033518624E+02 -0.21503407773E+02 -0.64923018424E+02  0.88414648540E+02  0.00000000000E+00 0. -1.
</event>
<event>
 7    1  0.2412631E-010  0.1423536E+03  0.7561462E-02  0.1210197E+00
          1   -1    0    0  501    0  0.00000000000E+00  0.00000000000E+00  0.14064539886E+03  0.14064539886E+03  0.00000000000E+00 0. -1.
         -1   -1    0    0    0  501 -0.00000000000E+00 -0.00000000000E+00 -0.16674905574E+03  0.16674905574E+03  0.00000000000E+00 0.  1.
         25    2    1    2    0    0 -0.44926564152E+02 -0.98891440080E+02 -0.19994238667E+02  0.16690659876E+03  0.12514044128E+03 0.  0.
          5    1    3    3  502    0 -0.58891462868E+02 -0.11092434713E+03 -0.46814356821E+02  0.13409500956E+03  0.41800000000E+01 0.  1.
         -5    1    3    3    0  502  0.13964898716E+02  0.12032907046E+02  0.26820118154E+02  0.32811589202E+02  0.41800000000E+01 0.  1.
        -11    1    1    2    0    0 -0.23988301229E+02  0.64416098972E+01  0.18308085578E+01  0.24905517339E+02  0.00000000000E+00 0. -1.
         11    1    1    2    0    0  0.68914865382E+02  0.92449830183E+02 -0.79402267768E+01  0.11558233850E+03  0.00000000000E+00 0.  1.
</event>
<event>
 6    1  0.2412631E-010  0.9616539E+02  0.7561462E-02  0.1288573E+00
         -1   -1    0    0    0  501 -0.00000000000E+00  0.00000000000E+00  0.61448725135E+03  0.61448725135E+03  0.00000000000E+00 0.  1.
          1   -1    0    0  501    0  0.00000000000E+00 -0.00000000000E+00 -0.22824955845E+02  0.22824955845E+02  0.00000000000E+00 0. -1.
          5    1    1    2  502    0 -0.35918810841E+02  0.14251218773E+02  0.18835297742E+03  0.19232153990E+03  0.41800000000E+01 0. -1.
         -5    1    1    2    0  502  0.36250381375E+02 -0.51408393259E+02  0.57369916628E+02  0.85239033202E+02  0.41800000000E+01 0. -1.
        -11    1    1    2    0    0 -0.17518618417E+02  0.59617486651E+02  0.29513808083E+03  0.30160841079E+03  0.00000000000E+00 0.  1.
         11    1    1    2    0    0  0.17187047882E+02 -0.22460312165E+02  0.50801320631E+02  0.58143223296E+02  0.00000000000E+00 0. -1.
</event>
<event>
 7    1  0.2412631E-010  0.1002508E+03  0.7561462E-02  0.1279769E+00
         -2   -1    0    0    0  501 -0.00000000000E+00  0.00000000000E+00  0.78456344550E+03  0.78456344550E+03  0.00000000000E+00 0.  1.
          2   -1    0    0  501    0  0.00000000000E+00 -0.00000000000E+00 -0.21801349582E+02  0.21801349582E+02  0.00000000000E+00 0. -1.
         25    2    1    2    0    0 -0.24760021173E+02  0.25787691276E+02  0.61572891909E+03  0.62931895800E+03  0.12506872280E+03 0.  0.
          5    1    3    3  502    0  0.20806492592E+02  0.56028638794E+02  0.46646491242E+03  0.47029682693E+03  0.41800000000E+01 0. -1.
         -5    1    3    3    0  502 -0.45566513765E+02 -0.30240947518E+02  0.14926400667E+03  0.15902213107E+03  0.41800000000E+01 0. -1.
        -11    1    1    2    0    0  0.28060561098E+02 -0.52124511620E+02  0.13595500095E+03  0.14828392389E+03  0.00000000000E+00 0.  1.
         11    1    1    2    0    0 -0.33005399247E+01  0.26336820344E+02  0.11078175876E+02  0.28761913191E+02  0.00000000000E+00 0. -1.
</event>
<event>
 7    1  0.2412631E-010  0.1202182E+03  0.7561462E-02  0.1242737E+00
          1   -1    0    0  501    0  0.00000000000E+00  0.00000000000E+00  0.77331744337E+03  0.77331744337E+03  0.00000000000E+00 0. -1.
         -1   -1    0    0    0  501 -0.00000000000E+00 -0.00000000000E+00 -0.21973294108E+02  0.21973294108E+02  0.00000000000E+00 0.  1.
         25    2    1    2    0    0  0.36542298470E+02 -0.41832391167E+02  0.54127773897E+03  0.55830927977E+03  0.12506947127E+03 0.  0.
          5    1    3    3  502    0  0.40518308874E+02  0.38502033506E+02  0.23914078864E+03  0.24562151601E+03  0.41800000000E+01 0. -1.
         -5    1    3    3    0  502 -0.39760104034E+01 -0.80334424674E+02  0.30213695033E+03  0.31268776375E+03  0.41800000000E+01 0. -1.
        -11    1    1    2    0    0 -0.58292806352E+02  0.18414283466E+01  0.78727184681E+02  0.97976587706E+02  0.00000000000E+00 0.  1.
         11    1    1    2    0    0  0.21750507881E+02  0.39990962821E+02  0.13133922561E+03  0.13900487000E+03  0.00000000000E+00 0. -1.
</event>
<event>
 7    1  0.2412631E-010  0.1275446E+03  0.7561462E-02  0.1231145E+00
         -2   -1    0    0    0  501 -0.00000000000E+00  0.00000000000E+00  0.13804269230E+03  0.13804269230E+03  0.00000000000E+00 0.  1.
          2   -1    0    0  501    0  0.00000000000E+00 -0.00000000000E+00 -0.17256912605E+03  0.17256912605E+03  0.00000000000E+00 0. -1.
         25    2    1    2    0    0 -0.67608337482E+02  0.53358497720E+02  0.47401838306E+02  0.15907792402E+03  0.12506332420E+03 0.  0.
          5    1    3    3  502    0 -0.60991970390E+02  0.89909762496E+02  0.53547260171E+02  0.12119639977E+03  0.41800000000E+01 0. -1.
         -5    1    3    3    0  502 -0.66163670920E+01 -0.36551264777E+02 -0.61454218648E+01  0.37881524259E+02  0.41800000000E+01 0. -1.
        -11    1    1    2    0    0  0.64649774773E+02 -0.98747575841E+01 -0.82339187573E+01  0.65915867844E+02  0.00000000000E+00 0.  1.
         11    1    1    2    0    0  0.29585627095E+01 -0.43483740136E+02 -0.73694353304E+02  0.85618026481E+02  0.00000000000E+00 0. -1.
</event>
<event>
 6    1  0.2412631E-010  0.1063031E+03  0.7561462E-02  0.1267573E+00
          2   -1    0    0  501    0  0.00000000000E+00  0.00000000000E+00  0.57791994162E+03  0.57791994162E+03  0.00000000000E+00 0. -1.
         -2   -1    0    0    0  501 -0.00000000000E+00 -0.00000000000E+00 -0.32000741656E+02  0.32000741656E+02  0.00000000000E+00 0.  1.
          5    1    1    2  502    0  0.84401876819E+02  0.34233942171E+02  0.71231218961E+02  0.11570219774E+03  0.41800000000E+01 0. -1.
         -5    1    1    2    0  502 -0.22543552735E+02 -0.82625294388E+01  0.12021167038E+03  0.12265724299E+03  0.41800000000E+01 0. -1.
        -11    1    1    2    0    0 -0.12746394470E+02  0.23886459614E+02  0.33646038700E+02  0.43186681339E+02  0.00000000000E+00 0.  1.
         11    1    1    2    0    0 -0.49111929614E+02 -0.49857872346E+02  0.32083027192E+03  0.32837456120E+03  0.00000000000E+00 0. -1.
</event>
<event>
 7    1  0.2412631E-010  0.1349082E+03  0.7561462E-02  0.1220349E+00
         -1   -1    0    0    0  501 -0.00000000000E+00  0.00000000000E+00  0.21445276693E+02  0.21445276693E+02  0.00000000000E+00 0.  1.
          1   -1    0    0  501    0  0.00000000000E+00 -0.00000000000E+00 -0.10789955035E+04  0.10789955035E+04  0.00000000000E+00 0. -1.
         25    2    1    2    0    0  0.10062941032E+03  0.31048591921E+02 -0.65199081050E+03  0.67217589344E+03  0.12505247483E+03 0.  0.
          5    1    3    3  502    0 -0.39252469251E+01 -0.37416738194E+02 -0.17685090012E+03  0.18085666461E+03  0.41800000000E+01 0.  1.
         -5    1    3    3    0  502  0.10455465725E+03  0.68465330116E+02 -0.47513991038E+03  0.49131922883E+03  0.41800000000E+01 0.  1.
        -11    1    1    2    0    0 -0.77515382545E+02 -0.15474493953E+02 -0.38649954825E+03  0.39449967718E+03  0.00000000000E+00 0. -1.
         11    1    1    2    0    0 -0.23114027780E+02 -0.15574097968E+02 -0.19059868061E+02  0.33765209584E+02  0.00000000000E+00 0.  1.
</event>
<event>
 7    1  0.2412631E-010  0.1687510E+03  0.7561462E-02  0.1179157E+00
          2   -1    0    0  501    0  0.00000000000E+00  0.00000000000E+00  0.28942513902E+03  0.28942513902E+03  0.00000000000E+00 0.  1.
         -2   -1    0    0    0  501 -0.00000000000E+00 -0.00000000000E+00 -0.13463870485E+03  0.13463870485E+03  0.00000000000E+00 0. -1.
         25    2    1    2    0    0 -0.13083874775E+03 -0.97908488960E+02  0.10093255391E+03  0.22919015714E+03  0.12504358268E+03 0.  0.
          5    1    3    3  502    0 -0.12307499693E+03 -0.63618280406E+02  0.18960949433E+02  0.13989900097E+03  0.41800000000E+01 0. -1.
         -5    1    3    3    0  502 -0.77637508205E+01 -0.34290208555E+02  0.81971604476E+02  0.89291156169E+02  0.41800000000E+01 0. -1.
        -11    1    1    2    0    0  0.42992628872E+02  0.29349688494E+02  0.64554923787E+02  0.82928333742E+02  0.00000000000E+00 0.  1.
         11    1    1    2    0    0  0.87846118875E+02  0.68558800466E+02 -0.10701043530E+02  0.11194535299E+03  0.00000000000E+00 0. -1.
</event>
<event>
 7    1  0.2412631E-010  0.2409327E+03  0.7561462E-02  0.1119173E+00
          1   -1    0    0  501    0  0.00000000000E+00  0.00000000000E+00  0.44758413961E+03  0.44758413961E+03  0.00000000000E+00 0. -1.
         -1   -1    0    0    0  501 -0.00000000000E+00 -0.00000000000E+00 -0.15159727805E+03  0.15159727805E+03  0.00000000000E+00 0.  1.
         25    2    1    2    0    0  0.22012687268E+03 -0.82772966621E+02  0.12151142583E+03  0.29278878576E+03  0.12511211925E+03 0.  0.
          5    1    3    3  502    0  0.16891358926E+03 -0.93751861343E+02  0.13830402332E+03  0.23762720258E+03  0.41800000000E+01 0.  1.
         -5    1    3    3    0  502  0.51213283427E+02  0.10978894722E+02 -0.16792597492E+02  0.55161583183E+02  0.41800000000E+01 0.  1.
        -11    1    1    2    0    0 -0.35315233956E+02  0.21695307828E+02 -0.48571164065E+01  0.41730608801E+02  0.00000000000E+00 0.  1.
         11    1    1    2    0    0 -0.18481163873E+03  0.61077658793E+02  0.17933255214E+03  0.26466202310E+03  0.00000000000E+00 0. -1.
</event>
<event>
 7    1  0.2412631E-010  0.1327656E+03  0.7561462E-02  0.1223409E+00
         -1   -1    0    0    0  501 -0.00000000000E+00  0.00000000000E+00  0.62149817140E+02  0.62149817140E+02  0.00000000000E+00 0.  1.
          1   -1    0    0  501    0  0.00000000000E+00 -0.00000000000E+00 -0.57975243624E+03  0.57975243624E+03  0.00000000000E+00 0. -1.
         25    2    1    2    0    0  0.29861892250E+01  0.12259289091E+03 -0.43833916569E+03  0.47205347822E+03  0.12512125277E+03 0.  0.
          5    1    3    3  502    0  0.31975055175E+02  0.26337328445E+02 -0.28899909155E+03  0.29198288707E+03  0.41800000000E+01 0. -1.
         -5    1    3    3    0  502 -0.28988865950E+02  0.96255562467E+02 -0.14934007414E+03  0.18007059115E+03  0.41800000000E+01 0. -1.
        -11    1    1    2    0    0 -0.52974174516E+01 -0.20820269309E+02 -0.63248857115E+02  0.66797935388E+02  0.00000000000E+00 0. -1.
         11    1    1    2    0    0  0.23112282266E+01 -0.10177262160E+03 -0.16014596301E+02  0.10305083978E+03  0.00000000000E+00 0.  1.
</event>
<event>
 7    1  0.2412631E-010  0.9398686E+02  0.7561462E-02  0.1293474E+00
          2   -1    0    0  501    0  0.00000000000E+00  0.00000000000E+00  0.11587586378E+03  0.11587586378E+03  0.00000000000E+00 0. -1.
         -2   -1    0    0    0  501 -0.00000000000E+00 -0.00000000000E+00 -0.15076980402E+03  0.15076980402E+03  0.00000000000E+00 0.  1.
         25    2    1    2    0    0 -0.23050471802E+02 -0.17896744970E+02 -0.88990881861E+02  0.15624648024E+03  0.12506785280E+03 0.  0.
          5    1    3    3  502    0  0.27291262558E+02 -0.33592824412E+02 -0.93541115828E+02  0.10315378623E+03  0.41800000000E+01 0. -1.
         -5    1    3    3    0  502 -0.50341734360E+02  0.15696079442E+02  0.45502339668E+01  0.53092694011E+02  0.41800000000E+01 0. -1.
        -11    1    1    2    0    0  0.48772232765E+02  0.35587353083E+02  0.18705249335E+02  0.63206619439E+02  0.00000000000E+00 0.  1.
         11    1    1    2    0    0 -0.25721760963E+02 -0.17690608113E+02  0.35391692287E+02  0.47192568116E+02  0.00000000000E+00 0. -1.
</event>
<event>
 7    1  0.2412631E-010  0.6043252E+02  0.7561462E-02  0.1396026E+00
          2   -1    0    0  501    0  0.00000000000E+00  0.00000000000E+00  0.25634904437E+03  0.25634904437E+03  0.00000000000E+00 0. -1.
         -2   -1    0    0    0  501 -0.00000000000E+00 -0.00000000000E+00 -0.54218528487E+02  0.54218528487E+02  0.00000000000E+00 0.  1.
         25    2    1    2    0    0 -0.91392405672E+01  0.30490754690E+02  0.70095073382E+02  0.14685559687E+03  0.12506012626E+03 0.  0.
          5    1    3    3  502    0 -0.32518783544E+02  0.37980355056E+02 -0.19525377925E+02  0.53839496993E+02  0.41800000000E+01 0.  1.
         -5    1    3    3    0  502  0.23379542976E+02 -0.74896003660E+01  0.89620451308E+02  0.93016099876E+02  0.41800000000E+01 0.  1.
        -11    1    1    2    0    0  0.15518560114E+02 -0.93003215473E+00 -0.10005238480E+02  0.18487711185E+02  0.00000000000E+00 0.  1.
         11    1    1    2    0    0 -0.63793195469E+01 -0.29560722535E+02  0.14204068098E+03  0.14522426481E+03  0.00000000000E+00 0. -1.
</event>
<event>
 6    1  0.2412631E-010  0.8786173E+02  0.7561462E-02  0.1308114E+00
          1   -1    0    0  501    0  0.00000000000E+00  0.00000000000E+00  0.10107377746E+03  0.10107377746E+03  0.00000000000E+00 0. -1.
         -1   -1    0    0    0  501 -0.00000000000E+00 -0.00000000000E+00 -0.14102904315E+03  0.14102904315E+03  0.00000000000E+00 0.  1.
          5    1    1    2  502    0 -0.48625137954E+02 -0.92204896639E+01 -0.63824305871E+02  0.80872961431E+02  0.41800000000E+01 0.  1.
         -5    1    1    2    0  502  0.10780407285E+02 -0.22955100080E+02  0.48256646709E+02  0.54674767055E+02  0.41800000000E+01 0.  1.
        -11    1    1    2    0    0  0.15289038991E+02 -0.30295395610E+02  0.43002378520E+01  0.34206106969E+02  0.00000000000E+00 0.  1.
         11    1    1    2    0    0  0.22555691678E+02  0.62470985354E+02 -0.28687844379E+02  0.72348985158E+02  0.00000000000E+00 0. -1.
</event>
<event>
 7    1  0.2412631E-010  0.1698188E+03  0.7561462E-02  0.1178037E+00
         -1   -1    0    0    0  501 -0.00000000000E+00  0.00000000000E+00  0.28575378551E+03  0.28575378551E+03  0.00000000000E+00 0.  1.
          1   -1    0    0  501    0  0.00000000000E+00 -0.00000000000E+00 -0.12824101169E+03  0.12824101169E+03  0.00000000000E+00 0. -1.
         25    2    1    2    0    0  0.11371086769E+03  0.99950131459E+02  0.13112114246E+03  0.23612386556E+03  0.12506612523E+03 0.  0.
          5    1    3    3  502    0  0.57623304624E+02  0.11555527244E+03  0.55532685907E+02  0.14062296337E+03  0.41800000000E+01 0.  1.
         -5    1    3    3    0  502  0.56087563062E+02 -0.15605140977E+02  0.75588456551E+02  0.95500902189E+02  0.41800000000E+01 0.  1.
        -11    1    1    2    0    0 -0.82545180860E+02 -0.80732354104E+02 -0.21642961737E+02  0.11747271034E+03  0.00000000000E+00 0. -1.
         11    1    1    2    0    0 -0.31165686827E+02 -0.19217777354E+02  0.48034593097E+02  0.60398221297E+02  0.00000000000E+00 0.  1.
</event>
<event>
 7    1  0.2412631E-010  0.1080198E+03  0.7561462E-02  0.1264281E+00
          1   -1    0    0  501    0  0.00000000000E+00  0.00000000000E+00  0.69083559085E+02  0.69083559085E+02  0.00000000000E+00 0. -1.
         -1   -1    0    0    0  501 -0.00000000000E+00 -0.00000000000E+00 -0.23962390494E+03  0.23962390494E+03  0.00000000000E+00 0.  1.
         25    2    1    2    0    0 -0.63620408693E+02  0.24070990038E+02 -0.83224940696E+02  0.16496074663E+03  0.12513468030E+03 0.  0.
          5    1    3    3  502    0 -0.42810485184E+02 -0.24047036083E+02  0.16707237070E+02  0.52034620750E+02  0.41800000000E+01 0.  1.
         -5    1    3    3    0  502 -0.20809923508E+02  0.48118026121E+02 -0.99932177765E+02  0.11292612588E+03  0.41800000000E+01 0.  1.
        -11    1    1    2    0    0 -0.23924616435E+02 -0.74685066516E+01 -0.18052130095E+02  0.30887623155E+02  0.00000000000E+00 0. -1.
         11    1    1    2    0    0  0.87545025128E+02 -0.16602483386E+02 -0.69263275064E+02  0.11285909424E+03  0.00000000000E+00 0.  1.
</event>
<event>
 6    1  0.2412631E-010  0.1472800E+03  0.7561462E-02  0.1203856E+00
          2   -1    0    0  501    0  0.00000000000E+00  0.00000000000E+00  0.53106777543E+02  0.53106777543E+02  0.00000000000E+00 0. -1.
         -2   -1    0    0    0  501 -0.00000000000E+00 -0.00000000000E+00 -0.42398038410E+03  0.42398038410E+03  0.00000000000E+00 0.  1.
          5    1    1    2  502    0  0.29464637102E+02  0.41319551205E+02 -0.96334716471E+02  0.10896476563E+03  0.41800000000E+01 0.  1.
         -5    1    1    2    0  502  0.58061764832E+02 -0.90541589670E+02 -0.13697922316E+03  0.17421173316E+03  0.41800000000E+01 0.  1.
        -11    1    1    2    0    0 -0.69311912672E+02  0.76480211787E+02 -0.11227457374E+03  0.15250883234E+03  0.00000000000E+00 0.  1.
         11    1    1    2    0    0 -0.18214489262E+02 -0.27258173323E+02 -0.25285093193E+02  0.41401830512E+02  0.00000000000E+00 0. -1.
</event>
<event>
 6    1  0.2412631E-010  0.1139357E+03  0.7561462E-02  0.1253450E+00
          1   -1    0    0  501    0  0.00000000000E+00  0.00000000000E+00  0.39759175392E+03  0.39759175392E+03  0.00000000000E+00 0. -1.
         -1   -1    0    0    0  501 -0.00000000000E+00 -0.00000000000E+00 -0.57185280010E+02  0.57185280010E+02  0.00000000000E+00 0.  1.
          5    1    1    2  502    0  0.86380143268E+02  0.25161441855E+02  0.43238425260E+01  0.90170922816E+02  0.41800000000E+01 0.  1.
         -5    1    1    2    0  502 -0.29073161585E+02 -0.21861342124E+01  0.53185437051E+02  0.60796307632E+02  0.41800000000E+01 0.  1.
        -11    1    1    2    0    0 -0.34364538512E+02 -0.57447988003E+02  0.14263028715E+03  0.15755821669E+03  0.00000000000E+00 0.  1.
         11    1    1    2    0    0 -0.22942443171E+02  0.34472680360E+02  0.14026690718E+03  0.14625158679E+03  0.00000000000E+00 0. -1.
</event>
<event>
 7    1  0.2412631E-010  0.9371416E+02  0.7561462E-02  0.1294099E+00
         -1   -1    0    0    0  501 -0.00000000000E+00  0.00000000000E+00  0.12183378230E+03  0.12183378230E+03  0.00000000000E+00 0.  1.
          1   -1    0    0  501    0  0.00000000000E+00 -0.00000000000E+00 -0.18070037217E+03  0.18070037217E+03  0.00000000000E+00 0. -1.
         25    2    1    2    0    0  0.46723538440E+02 -0.57987056959E+02 -0.10070027985E+03  0.17704736050E+03  0.12513845803E+03 0.  0.
          5    1    3    3  502    0  0.55825685123E+02 -0.14280694797E+02 -0.11606423564E+03  0.12964885097E+03  0.41800000000E+01 0. -1.
         -5    1    3    3    0  502 -0.91021466836E+01 -0.43706362162E+02  0.15363955788E+02  0.47398509525E+02  0.41800000000E+01 0. -1.
        -11    1    1    2    0    0 -0.25113769910E+01  0.34800491962E+02 -0.24377650074E+02  0.42563494667E+02  0.00000000000E+00 0. -1.
         11    1    1    2    0    0 -0.44212161449E+02  0.23186564997E+02  0.66211340053E+02  0.82923299307E+02  0.00000000000E+00 0.  1.
</event>
<event>
 7    1  0.2412631E-010  0.1336594E+03  0.7561462E-02  0.1222125E+00
         -1   -1    0    0    0  501 -0.00000000000E+00  0.00000000000E+00  0.55231439535E+02  0.55231439535E+02  0.00000000000E+00 0.  1.
          1   -1    0    0  501    0  0.00000000000E+00 -0.00000000000E+00 -0.56383002565E+03  0.56383002565E+03  0.00000000000E+00 0. -1.
         25    2    1    2    0    0  0.77735726372E+02  0.52167737840E+02 -0.44804433018E+03  0.47451948585E+03  0.12514273699E+03 0.  0.
          5    1    3    3  502    0 -0.21856206057E+02 -0.26737435391E+01 -0.15467082958E+02  0.27231336782E+02  0.41800000000E+01 0.  1.
         -5    1    3    3    0  502  0.99591932429E+02  0.54841481380E+02 -0.43257724722E+03  0.44728814907E+03  0.41800000000E+01 0.  1.
        -11    1    1    2    0    0 -0.98334008154E+02 -0.35183112488E+02 -0.45813988526E+02  0.11404538618E+03  0.00000000000E+00 0. -1.
         11    1    1    2    0    0  0.20598281782E+02 -0.16984625353E+02 -0.14740267411E+02  0.30496593156E+02  0.00000000000E+00 0.  1.
</event>
<event>
 7    1  0.2412631E-010  0.1052303E+03  0.7561462E-02  0.1269667E+00
          2   -1    0    0  501    0  0.00000000000E+00  0.00000000000E+00  0.80796604112E+03  0.80796604112E+03  0.00000000000E+00 0. -1.
         -2   -1    0    0    0  501 -0.00000000000E+00 -0.00000000000E+00 -0.20831768815E+02  0.20831768815E+02  0.00000000000E+00 0.  1.
         25    2    1    2    0    0 -0.22677247453E+02 -0.49018991905E+02  0.57960870155E+03  0.59539591608E+03  0.12503171938E+03 0.  0.
          5    1    3    3  502    0 -0.44406809651E+02 -0.65168635924E+02  0.54760003876E+03  0.55326502754E+03  0.41800000000E+01 0. -1.
         -5    1    3    3    0  502  0.21729562198E+02  0.16149644019E+02  0.32008662785E+02  0.42130888532E+02  0.41800000000E+01 0. -1.
        -11    1    1    2    0    0 -0.23972175286E+02  0.52093551162E+02  0.87750755753E+02  0.10482651571E+03  0.00000000000E+00 0.  1.
         11    1    1    2    0    0  0.46649422739E+02 -0.30745592571E+01  0.11977481500E+03  0.12857537815E+03  0.00000000000E+00 0. -1.
</event>
<event>
 7    1  0.2412631E-010  0.1027365E+03  0.7561462E-02  0.1274644E+00
         -1   -1    0    0    0  501 -0.00000000000E+00  0.00000000000E+00  0.73505248037E+02  0.73505248037E+02  0.00000000000E+00 0. -1.
          1   -1    0    0  501    0  0.00000000000E+00 -0.00000000000E+00 -0.62169410049E+03  0.62169410049E+03  0.00000000000E+00 0.  1.
         25    2    1    2    0    0 -0.57188440543E+02  0.34962946651E+02 -0.56170986292E+03  0.57935258484E+03  0.12505407664E+03 0.  0.
          5    1    3    3  502    0  0.24197439488E+02  0.40235107531E+02 -0.10095950207E+03  0.11142115335E+03  0.41800000000E+01 0. -1.
         -5    1    3    3    0  502 -0.81385880031E+02 -0.52721608799E+01 -0.46075036085E+03  0.46793143149E+03  0.41800000000E+01 0. -1.
        -11    1    1    2    0    0 -0.33906679825E+01 -0.11027068835E+02  0.42876175000E+02  0.44401117768E+02  0.00000000000E+00 0. -1.
         11    1    1    2    0    0  0.60579108526E+02 -0.23935877816E+02 -0.29355164535E+02  0.71445645924E+02  0.00000000000E+00 0.  1.
</event>
<event>
 6    1  0.2412631E-010  0.1267562E+03  0.7561462E-02  0.1232350E+00
          4   -1    0    0  501    0  0.00000000000E+00  0.00000000000E+00  0.22100032481E+02  0.22100032481E+02  0.00000000000E+00 0. -1.
         -4   -1    0    0    0  501 -0.00000000000E+00 -0.00000000000E+00 -0.12543170537E+04  0.12543170537E+04  0.00000000000E+00 0.  1.
          5    1    1    2  502    0 -0.99944110093E+01 -0.29890480758E+02 -0.61807424725E+02  0.69505102277E+02  0.41800000000E+01 0. -1.
         -5    1    1    2    0  502 -0.82350347853E+02  0.40992920302E+02 -0.92297360165E+03  0.92755578865E+03  0.41800000000E+01 0. -1.
        -11    1    1    2    0    0  0.27853184731E+02 -0.47881421215E+02 -0.10911113580E+03  0.12236694960E+03  0.00000000000E+00 0.  1.
         11    1    1    2    0    0  0.64491574132E+02  0.36778981671E+02 -0.13832485908E+03  0.15698924570E+03  0.00000000000E+00 0. -1.
</event>
<event>
 7    1  0.2412631E-010  0.1358171E+03  0.7561462E-02  0.1219071E+00
         -1   -1    0    0    0  501 -0.00000000000E+00  0.00000000000E+00  0.78505521818E+02  0.78505521818E+02  0.00000000000E+00 0.  1.
          1   -1    0    0  501    0  0.00000000000E+00 -0.00000000000E+00 -0.26187757233E+03  0.26187757233E+03  0.00000000000E+00 0. -1.
         25    2    1    2    0    0 -0.79551987573E+02  0.51332067980E+02 -0.85990340151E+02  0.17888198876E+03  0.12506369327E+03 0.  0.
          5    1    3    3  502    0 -0.53931404332E+02  0.86013708991E+02 -0.89518224957E+02  0.13541764843E+03  0.41800000000E+01 0.  1.
         -5    1    3    3    0  502 -0.25620583241E+02 -0.34681641011E+02  0.35278848053E+01  0.43464340327E+02  0.41800000000E+01 0.  1.
        -11    1    1    2    0    0  0.62021909854E+01 -0.52974047683E+02 -0.26785315640E+02  0.59683917724E+02  0.00000000000E+00 0.  1.
         11    1    1    2    0    0  0.73349796587E+02  0.16419797029E+01 -0.70596394725E+02  0.10181718767E+03  0.00000000000E+00 0. -1.
</event>
<event>
 7    1  0.2412631E-010  0.1052667E+03  0.7561462E-02  0.1269595E+00
          2   -1    0    0  501    0  0.00000000000E+00  0.00000000000E+00  0.23701140778E+03  0.23701140778E+03  0.00000000000E+00 0. -1.
         -2   -1    0    0    0  501 -0.00000000000E+00 -0.00000000000E+00 -0.60723880991E+02  0.60723880991E+02  0.00000000000E+00 0.  1.
         25    2    1    2    0    0 -0.52661092942E+02  0.62597181799E+01  0.12092280376E+03  0.18185548937E+03  0.12504687027E+03 0.  0.
          5    1    3    3  502    0 -0.29047683180E+02  0.55148616438E+02  0.17341841242E+02  0.64833244951E+02  0.41800000000E+01 0. -1.
         -5    1    3    3    0  502 -0.23613409763E+02 -0.48888898258E+02  0.10358096252E+03  0.11702224442E+03  0.41800000000E+01 0. -1.
        -11    1    1    2    0    0  0.24242285964E+02 -0.41667797942E+02  0.56240894557E+01  0.48533742863E+02  0.00000000000E+00 0.  1.
         11    1    1    2    0    0  0.28418806978E+02  0.35408079762E+02  0.49740633570E+02  0.67346056532E+02  0.00000000000E+00 0. -1.
</event>
<event>
 7    1  0.2412631E-010  0.1332779E+03  0.7561462E-02  0.1222671E+00
          1   -1    0    0  501    0  0.00000000000E+00  0.00000000000E+00  0.16071804360E+03  0.16071804360E+03  0.00000000000E+00 0. -1.
         -1   -1    0    0    0  501 -0.00000000000E+00 -0.00000000000E+00 -0.19663107621E+03  0.19663107621E+03  0.00000000000E+00 0.  1.
         25    2    1    2    0    0  0.10143001698E+03 -0.79648208622E+01 -0.11634720682E+03  0.19881888432E+03  0.12506314210E+03 0.  0.
          5    1    3    3  502    0 -0.11914097277E+01 -0.39222934776E+02 -0.73111468583E+02  0.83081991478E+02  0.41800000000E+01 0. -1.
         -5    1    3    3    0  502  0.10262142670E+03  0.31258113914E+02 -0.43235738240E+02  0.11573689285E+03  0.41800000000E+01 0. -1.
        -11    1    1    2    0    0 -0.72345571210E+02 -0.24279945150E+02  0.85742479069E+02  0.11478314392E+03  0.00000000000E+00 0. -1.
         11    1    1    2    0    0 -0.29084445767E+02  0.32244766013E+02 -0.53083048532E+01  0.43747091574E+02  0.00000000000E+00 0.  1.
</event>
<event>
 7    1  0.3231490E-010  0.1133842E+03  0.7561462E-02  0.1254428E+00
          3   -1    0    0  501    0  0.00000000000E+00  0.00000000000E+00  0.65190205617E+03  0.65190205617E+03  0.00000000000E+00 0. -1.
         -3   -1    0    0    0  501 -0.00000000000E+00 -0.00000000000E+00 -0.29475263577E+02  0.29475263577E+02  0.00000000000E+00 0.  1.
         25    2    1    2    0    0 -0.54561491613E+02  0.24373291815E+02  0.18923741239E+03  0.23459459338E+03  0.12511119564E+03 0.  0.
          5    1    3    3  502    0  0.99214696277E+01  0.47628036088E+02  0.21519994743E+02  0.53361483815E+02  0.41800000000E+01 0.  1.
         -5    1    3    3    0  502 -0.64482961241E+02 -0.23254744273E+02  0.16771741764E+03  0.18123310957E+03  0.41800000000E+01 0.  1.
        -11    1    1    2    0    0  0.28587955920E+02  0.34565183060E+02  0.18760619270E+03  0.19289402957E+03  0.00000000000E+00 0. -1.
         11    1    1    2    0    0  0.25973535693E+02 -0.58938474874E+02  0.24558318751E+03  0.25388869680E+03  0.00000000000E+00 0.  1.
</event>
<event>
 7    1  0.2412631E-010  0.1764683E+03  0.7561462E-02  0.1171265E+00
         -2   -1    0    0    0  501 -0.00000000000E+00  0.00000000000E+00  0.16999929554E+03  0.16999929554E+03  0.00000000000E+00 0.  1.
          2   -1    0    0  501    0  0.00000000000E+00 -0.00000000000E+00 -0.25066102086E+03  0.25066102086E+03  0.00000000000E+00 0. -1.
         25    2    1    2    0    0 -0.17298487506E+03  0.15632541501E+02 -0.28877653181E+02  0.21599959873E+03  0.12511500487E+03 0.  0.
          5    1    3    3  502    0 -0.12317139527E+03  0.12869547335E+02  0.40572161479E+02  0.13038554578E+03  0.41800000000E+01 0.  1.
         -5    1    3    3    0  502 -0.49813479785E+02  0.27629941650E+01 -0.69449814660E+02  0.85614052943E+02  0.41800000000E+01 0.  1.
        -11    1    1    2    0    0  0.11687257429E+03  0.99399942778E+01  0.95556440714E+01  0.11768310177E+03  0.00000000000E+00 0. -1.
         11    1    1    2    0    0  0.56112300764E+02 -0.25572535778E+02 -0.61339716216E+02  0.86977615906E+02  0.00000000000E+00 0.  1.
</event>
<event>
 6    1  0.2412631E-010  0.1129782E+03  0.7561462E-02  0.1255152E+00
          2   -1    0    0  501    0  0.00000000000E+00  0.00000000000E+00  0.55329361052E+02  0.55329361052E+02  0.00000000000E+00 0. -1.
         -2   -1    0    0    0  501 -0.00000000000E+00 -0.00000000000E+00 -0.40085756168E+03  0.40085756168E+03  0.00000000000E+00 0.  1.
          5    1    1    2  502    0 -0.71524489650E+01 -0.57902236454E+01 -0.17466492059E+03  0.17495711218E+03  0.41800000000E+01 0. -1.
         -5    1    1    2    0  502 -0.11731695189E+02  0.93369197205E+02 -0.86996661218E+02  0.12822375412E+03  0.41800000000E+01 0. -1.
        -11    1    1    2    0    0 -0.28590923016E+02 -0.60701283556E+02 -0.22208765581E+02  0.70677549284E+02  0.00000000000E+00 0. -1.
         11    1    1    2    0    0  0.47475067171E+02 -0.26877690004E+02 -0.61657853230E+02  0.82328507139E+02  0.00000000000E+00 0.  1.
</event>
<event>
 6    1  0.2412631E-010  0.2713932E+03  0.7561462E-02  0.1100485E+00
          1   -1    0    0  501    0  0.00000000000E+00  0.00000000000E+00  0.96793599928E+03  0.96793599928E+03  0.00000000000E+00 0. -1.
         -1   -1    0    0    0  501 -0.00000000000E+00 -0.00000000000E+00 -0.12488997991E+03  0.12488997991E+03  0.00000000000E+00 0.  1.
          5    1    1    2  502    0 -0.15070589342E+02  0.66332620092E+02  0.11555232934E+03  0.13415272032E+03  0.41800000000E+01 0.  1.
         -5    1    1    2    0  502  0.13360601152E+03  0.15895896085E+03  0.64299896597E+03  0.67570974552E+03  0.41800000000E+01 0.  1.
        -11    1    1    2    0    0  0.62885136284E+01 -0.57347817064E+02  0.36532892072E+02  0.68285940930E+02  0.00000000000E+00 0.  1.
         11    1    1    2    0    0 -0.12482393580E+03 -0.16794376388E+03  0.47961831983E+02  0.21467757243E+03  0.00000000000E+00 0. -1.
</event>
<event>
 7    1  0.2412631E-010  0.1228460E+03  0.7561462E-02  0.1238474E+00
         -2   -1    0    0    0  501 -0.00000000000E+00  0.00000000000E+00  0.25712319871E+02  0.25712319871E+02  0.00000000000E+00 0.  1.
          2   -1    0    0  501    0  0.00000000000E+00 -0.00000000000E+00 -0.12271713261E+04  0.12271713261E+04  0.00000000000E+00 0. -1.
         25    2    1    2    0    0  0.30684118887E+01  0.99010455209E+02 -0.98710889143E+03  0.99992612394E+03  0.12512315694E+03 0.  0.
          5    1    3    3  502    0  0.35884918754E+02  0.13631096791E+02 -0.63279701613E+03  0.63397402960E+03  0.41800000000E+01 0.  1.
         -5    1    3    3    0  502 -0.32816506865E+02  0.85379358419E+02 -0.35431187530E+03  0.36595209433E+03  0.41800000000E+01 0.  1.
        -11    1    1    2    0    0 -0.29349883690E+02 -0.72355143376E+02 -0.19658324941E+03  0.21152223617E+03  0.00000000000E+00 0. -1.
         11    1    1    2    0    0  0.26281471801E+02 -0.26655311833E+02 -0.17766865393E+02  0.41435285867E+02  0.00000000000E+00 0.  1.
</event>
<event>
 6    1  0.2412631E-010  0.9229075E+02  0.7561462E-02  0.1297397E+00
         -1   -1    0    0    0  501 -0.00000000000E+00  0.00000000000E+00  0.26228307492E+03  0.26228307492E+03  0.00000000000E+00 0.  1.
          1   -1    0    0  501    0  0.00000000000E+00 -0.00000000000E+00 -0.62658076757E+02  0.62658076757E+02  0.00000000000E+00 0. -1.
          5    1    1    2  502    0  0.26966816613E+02  0.53665209962E+02  0.91185024438E+01  0.60891571217E+02  0.41800000000E+01 0. -1.
         -5    1    1    2    0  502  0.39047714258E+02 -0.10411731531E+02  0.15450511501E+03  0.15975741330E+03  0.41800000000E+01 0. -1.
        -11    1    1    2    0    0 -0.18692059325E+02 -0.28679535277E+02  0.42256202502E+02  0.54382860125E+02  0.00000000000E+00 0.  1.
         11    1    1    2    0    0 -0.47322471546E+02 -0.14573943153E+02 -0.62548217931E+01  0.49909307027E+02  0.00000000000E+00 0. -1.
</event>
<event>
 7    1  0.2412631E-010  0.1655813E+03  0.7561462E-02  0.1182536E+00
          2   -1    0    0  501    0  0.00000000000E+00  0.00000000000E+00  0.15115082840E+03  0.15115082840E+03  0.00000000000E+00 0. -1.
         -2   -1    0    0    0  501 -0.00000000000E+00 -0.00000000000E+00 -0.20090564269E+03  0.20090564269E+03  0.00000000000E+00 0.  1.
         25    2    1    2    0    0 -0.13167889433E+03 -0.41611784322E+01 -0.58719861811E+02  0.19094855383E+03  0.12512666152E+03 0.  0.
          5    1    3    3  502    0 -0.10917236381E+03 -0.56171213443E+02 -0.26668910096E+02  0.12570804829E+03  0.41800000000E+01 0.  1.
         -5    1    3    3    0  502 -0.22506530515E+02  0.52010035011E+02 -0.32050951715E+02  0.65240505543E+02  0.41800000000E+01 0.  1.
        -11    1    1    2    0    0  0.12102150542E+03  0.29012911882E+02 -0.14517178822E+02  0.12529446241E+03  0.00000000000E+00 0.  1.
         11    1    1    2    0    0  0.10657388903E+02 -0.24851733450E+02  0.23482226337E+02  0.35813454838E+02  0.00000000000E+00 0. -1.
</event>
<event>
 7    1  0.2412631E-010  0.1075507E+03  0.7561462E-02  0.1265174E+00
         -1   -1    0    0    0  501 -0.00000000000E+00  0.00000000000E+00  0.40552668566E+02  0.40552668566E+02  0.00000000000E+00 0.  1.
          1   -1    0    0  501    0  0.00000000000E+00 -0.00000000000E+00 -0.50221316039E+03  0.50221316039E+03  0.00000000000E+00 0. -1.
         25    2    1    2    0    0  0.31958860210E+02  0.70562270251E+02 -0.15814647500E+03  0.21597946286E+03  0.12504566403E+03 0.  0.
          5    1    3    3  502    0 -0.89994713710E+01 -0.30754131440E+01 -0.12484918739E+03  0.12528064752E+03  0.41800000000E+01 0.  1.
         -5    1    3    3    0  502  0.40958331581E+02  0.73637683395E+02 -0.33297287616E+02  0.90698815341E+02  0.41800000000E+01 0.  1.
        -11    1    1    2    0    0 -0.37354316014E+02 -0.91444231602E+02 -0.26203324328E+03  0.28003359263E+03  0.00000000000E+00 0. -1.
         11    1    1    2    0    0  0.53954558043E+01  0.20881961351E+02 -0.41480773544E+02  0.46752773469E+02  0.00000000000E+00 0.  1.
</event>
<event>
 7    1  0.3216989E-010  0.1565922E+03  0.7561462E-02  0.1192599E+00
         -2   -1    0    0    0  501 -0.00000000000E+00  0.00000000000E+00  0.45403064091E+03  0.45403064091E+03  0.00000000000E+00 0.  1.
          2   -1    0    0  501    0  0.00000000000E+00 -0.00000000000E+00 -0.60778165814E+02  0.60778165814E+02  0.00000000000E+00 0. -1.
         25    2    1    2    0    0  0.10930681463E+03  0.59389097586E+02  0.21512515330E+03  0.27822029539E+03  0.12511057727E+03 0.  0.
          5    1    3    3  502    0  0.10271839281E+03 -0.67266644110E+01  0.91411871506E+02  0.13773132863E+03  0.41800000000E+01 0.  1.
         -5    1    3    3    0  502  0.65884218217E+01  0.66115761997E+02  0.12371328179E+03  0.14048896675E+03  0.41800000000E+01 0.  1.
        -11    1    1    2    0    0 -0.10237591564E+03 -0.20911584783E+02  0.16508361122E+03  0.19537328675E+03  0.00000000000E+00 0.  1.
         11    1    1    2    0    0 -0.69308989873E+01 -0.38477512803E+02  0.13043710575E+02  0.41215224588E+02  0.00000000000E+00 0. -1.
</event>
<event>
 7    1  0.2412631E-010  0.8650756E+02  0.7561462E-02  0.1311537E+00
         -1   -1    0    0    0  501 -0.00000000000E+00  0.00000000000E+00  0.73697627313E+02  0.73697627313E+02  0.00000000000E+00 0.  1.
          1   -1    0    0  501    0  0.00000000000E+00 -0.00000000000E+00 -0.27460601371E+03  0.27460601371E+03  0.00000000000E+00 0. -1.
         25    2    1    2    0    0  0.18407750080E+02  0.42131749795E+02 -0.11948426243E+02  0.13378076720E+03  0.12506238116E+03 0.  0.
          5    1    3    3  502    0  0.12756080798E+02  0.60682733834E+02 -0.57141084582E+02  0.84425634319E+02  0.41800000000E+01 0. -1.
         -5    1    3    3    0  502  0.56516692822E+01 -0.18550984040E+02  0.45192658338E+02  0.49355132886E+02  0.41800000000E+01 0. -1.
        -11    1    1    2    0    0  0.31081982820E+02 -0.18665936794E+02 -0.12580925140E+03  0.13092927323E+03  0.00000000000E+00 0. -1.
         11    1    1    2    0    0 -0.49489732900E+02 -0.23465813000E+02 -0.63150708758E+02  0.83593600585E+02  0.00000000000E+00 0.  1.
</event>
<event>
 7    1  0.6754870E-010  0.1052317E+03  0.7561462E-02  0.1269664E+00
          1   -1    0    0  501    0  0.00000000000E+00  0.00000000000E+00  0.76620190344E+03  0.76620190344E+03  0.00000000000E+00 0. -1.
         -1   -1    0    0    0  501 -0.00000000000E+00 -0.00000000000E+00 -0.25290273719E+02  0.25290273719E+02  0.00000000000E+00 0.  1.
         25    2    1    2    0    0 -0.86093780179E+01  0.75021883377E+02  0.28441427402E+03  0.31974286986E+03  0.12506645908E+03 0.  0.
          5    1    3    3  502    0  0.22168371032E+02  0.26161936916E+02  0.56184922462E+01  0.34998906734E+02  0.41800000000E+01 0.  1.
         -5    1    3    3    0  502 -0.30777749050E+02  0.48859946460E+02  0.27879578177E+03  0.28474396313E+03  0.41800000000E+01 0.  1.
        -11    1    1    2    0    0 -0.39860354337E+02 -0.48472686434E+02  0.21260081571E+03  0.22166992583E+03  0.00000000000E+00 0.  1.
         11    1    1    2    0    0  0.48469732355E+02 -0.26549196943E+02  0.24389653999E+03  0.25007938146E+03  0.00000000000E+00 0. -1.
</event>
<event>
 7    1  0.2412631E-010  0.1333668E+03  0.7561462E-02  0.1222544E+00
         -2   -1    0    0    0  501 -0.00000000000E+00  0.00000000000E+00  0.18594672006E+03  0.18594672006E+03  0.00000000000E+00 0. -1.
          2   -1    0    0  501    0  0.00000000000E+00 -0.00000000000E+00 -0.14145176322E+03  0.14145176322E+03  0.00000000000E+00 0.  1.
         25    2    1    2    0    0 -0.86764035048E+02  0.69615817649E+02  0.67035364587E+02  0.18033559300E+03  0.12511125511E+03 0.  0.
          5    1    3    3  502    0 -0.43257812875E+02  0.73910332524E+02  0.95234454775E+02  0.12814464251E+03  0.41800000000E+01 0. -1.
         -5    1    3    3    0  502 -0.43506222173E+02 -0.42945148742E+01 -0.28199090188E+02  0.52190950492E+02  0.41800000000E+01 0. -1.
        -11    1    1    2    0    0  0.88787090618E+01  0.17863791142E+02  0.13996674352E+02  0.24369107523E+02  0.00000000000E+00 0. -1.
         11    1    1    2    0    0  0.77885325986E+02 -0.87479608791E+02 -0.36537082100E+02  0.12269378275E+03  0.00000000000E+00 0.  1.
</event>
<event>
 6    1  0.2412631E-010  0.1065854E+03  0.7561462E-02  0.1267027E+00
         -4   -1    0    0    0  501 -0.00000000000E+00  0.00000000000E+00  0.13016407427E+03  0.13016407427E+03  0.00000000000E+00 0.  1.
          4   -1    0    0  501    0  0.00000000000E+00 -0.00000000000E+00 -0.17823468784E+03  0.17823468784E+03  0.00000000000E+00 0. -1.
          5    1    1    2  502    0  0.35210244230E+02 -0.84680035566E+02  0.66099378740E+02  0.11312413532E+03  0.41800000000E+01 0.  1.
         -5    1    1    2    0  502 -0.32367592030E+02  0.20697490167E+02 -0.68792119307E+01  0.39253573976E+02  0.41800000000E+01 0.  1.
        -11    1    1    2    0    0 -0.26521098717E+02  0.45571984161E+02 -0.92981212258E+01  0.53540914036E+02  0.00000000000E+00 0.  1.
         11    1    1    2    0    0  0.23678446518E+02  0.18410561238E+02 -0.97992659161E+02  0.10248013878E+03  0.00000000000E+00 0. -1.
</event>
<event>
 6    1  0.2412631E-010  0.1062106E+03  0.7561462E-02  0.1267753E+00
         -3   -1    0    0    0  501 -0.00000000000E+00  0.00000000000E+00  0.42279643249E+03  0.42279643249E+03  0.00000000000E+00 0.  1.
          3   -1    0    0  501    0  0.00000000000E+00 -0.00000000000E+00 -0.30656033778E+02  0.30656033778E+02  0.00000000000E+00 0. -1.
          5    1    1    2  502    0  0.57414598035E+02  0.23841062106E+01  0.14905424850E+03  0.15980225726E+03  0.41800000000E+01 0. -1.
         -5    1    1    2    0  502 -0.53003002198E+02  0.20410006305E+02  0.46377126449E+02  0.73445196283E+02  0.41800000000E+01 0. -1.
        -11    1    1    2    0    0 -0.43926761961E+02 -0.35359288649E+02  0.96698806107E+02  0.11193971062E+03  0.00000000000E+00 0.  1.
         11    1    1    2    0    0  0.39515166124E+02  0.12565176133E+02  0.10001021766E+03  0.10826530211E+03  0.00000000000E+00 0. -1.
</event>
<event>
 7    1  0.2412631E-010  0.8792094E+02  0.7561462E-02  0.1307966E+00
         -2   -1    0    0    0  501 -0.00000000000E+00  0.00000000000E+00  0.60809191152E+02  0.60809191152E+02  0.00000000000E+00 0. -1.
          2   -1    0    0  501    0  0.00000000000E+00 -0.00000000000E+00 -0.22059407819E+03  0.22059407819E+03  0.00000000000E+00 0.  1.
         25    2    1    2    0    0  0.17823746451E+02  0.12303595070E+02 -0.49795981262E+02  0.13633821080E+03  0.12505760106E+03 0.  0.
          5    1    3    3  502    0  0.71922224135E+02  0.61592600825E+01 -0.27700950815E+02  0.77430987889E+02  0.41800000000E+01 0.  1.
         -5    1    3    3    0  502 -0.54098477685E+02  0.61443349876E+01 -0.22095030446E+02  0.58907222907E+02  0.41800000000E+01 0.  1.
        -11    1    1    2    0    0 -0.28789256563E+01  0.16355679829E+02  0.10942961766E+02  0.19888310331E+02  0.00000000000E+00 0. -1.
         11    1    1    2    0    0 -0.14944820794E+02 -0.28659274899E+02 -0.12093186754E+03  0.12517674822E+03  0.00000000000E+00 0.  1.
</event>
<event>
 7    1  0.2412631E-010  0.1095213E+03  0.7561462E-02  0.1261459E+00
         -1   -1    0    0    0  501 -0.00000000000E+00  0.00000000000E+00  0.54257459878E+03  0.54257459878E+03  0.00000000000E+00 0.  1.
          1   -1    0    0  501    0  0.00000000000E+00 -0.00000000000E+00 -0.25785655170E+02  0.25785655170E+02  0.00000000000E+00 0. -1.
         25    2    1    2    0    0 -0.31958888979E+02 -0.10128065876E+02  0.29768338715E+03  0.32465241043E+03  0.12513928363E+03 0.  0.
          5    1    3    3  502    0 -0.73375828912E+02 -0.34009153759E+02  0.20140064635E+03  0.21707217131E+03  0.41800000000E+01 0.  1.
         -5    1    3    3    0  502  0.41416939933E+02  0.23881087883E+02  0.96282740803E+02  0.10758023912E+03  0.41800000000E+01 0.  1.
        -11    1    1    2    0    0  0.55911019416E+02 -0.12308964753E+02  0.19432755425E+03  0.20258516986E+03  0.00000000000E+00 0.  1.
         11    1    1    2    0    0 -0.23952130437E+02  0.22437030629E+02  0.24778002206E+02  0.41122673664E+02  0.00000000000E+00 0. -1.
</event>
<event>
 7    1  0.2412631E-010  0.5875292E+02  0.7561462E-02  0.1403141E+00
          2   -1    0    0  501    0  0.00000000000E+00  0.00000000000E+00  0.29051274622E+03  0.29051274622E+03  0.00000000000E+00 0.  1.
         -2   -1    0    0    0  501 -0.00000000000E+00 -0.00000000000E+00 -0.41654870825E+02  0.41654870825E+02  0.00000000000E+00 0. -1.
         25    2    1    2    0    0 -0.47403911468E+01  0.28964269504E+01  0.19494185870E+03  0.23166576066E+03  0.12504333566E+03 0.  0.
          5    1    3    3  502    0 -0.36770252974E+02 -0.29878276815E+02  0.21452138064E+02  0.52176906355E+02  0.41800000000E+01 0.  1.
         -5    1    3    3    0  502  0.32029861827E+02  0.32774703766E+02  0.17348972063E+03  0.17948885431E+03  0.41800000000E+01 0.  1.
        -11    1    1    2    0    0 -0.69436521559E+01 -0.84933453874E+01 -0.21416852145E+02  0.24063099903E+02  0.00000000000E+00 0. -1.
         11    1    1    2    0    0  0.11684043303E+02  0.55969184370E+01  0.75332868844E+02  0.76438756480E+02  0.00000000000E+00 0.  1.
</event>
<event>
 7    1  0.2412631E-010  0.8401357E+02  0.7561462E-02  0.1318033E+00
          2   -1    0    0  501    0  0.00000000000E+00  0.00000000000E+00  0.38507889811E+03  0.38507889811E+03  0.00000000000E+00 0. -1.
         -2   -1    0    0    0  501 -0.00000000000E+00 -0.00000000000E+00 -0.38944579121E+02  0.38944579121E+02  0.00000000000E+00 0.  1.
         25    2    1    2    0    0 -0.29078420817E+01  0.92715388349E+01  0.28625243900E+03  0.31254996121E+03  0.12511036105E+03 0.  0.
          5    1    3    3  502    0  0.21197033903E+02  0.52542308909E+02  0.23248466958E+03  0.23932530678E+03  0.41800000000E+01 0. -1.
         -5    1    3    3    0  502 -0.24104875985E+02 -0.43270770074E+02  0.53767769419E+02  0.73224654436E+02  0.41800000000E+01 0. -1.
        -11    1    1    2    0    0 -0.71764846380E+01  0.24882435831E+02 -0.14013239538E+02  0.29445006827E+02  0.00000000000E+00 0.  1.
         11    1    1    2    0    0  0.10084326720E+02 -0.34153974666E+02  0.73895119527E+02  0.82028509195E+02  0.00000000000E+00 0. -1.
</event>
<event>
 6    1  0.2412631E-010  0.1540539E+03  0.7561462E-02  0.1195578E+00
         -2   -1    0    0    0  501 -0.00000000000E+00  0.00000000000E+00  0.23258060801E+02  0.23258060801E+02  0.00000000000E+00 0.  1.
          2   -1    0    0  501    0  0.00000000000E+00 -0.00000000000E+00 -0.10679650149E+04  0.10679650149E+04  0.00000000000E+00 0. -1.
          5    1    1    2  502    0 -0.44864284198E+02 -0.12065787756E+03 -0.49100141053E+03  0.50761302678E+03  0.41800000000E+01 0. -1.
         -5    1    1    2    0  502  0.36292132704E+02  0.10579398571E+02 -0.15584816211E+03  0.16042183332E+03  0.41800000000E+01 0. -1.
        -11    1    1    2    0    0  0.14991442406E+02 -0.11893995931E+02 -0.89470111719E+02  0.91493777797E+02  0.00000000000E+00 0. -1.
         11    1    1    2    0    0 -0.64192909125E+01  0.12197247492E+03 -0.30838726970E+03  0.33169443777E+03  0.00000000000E+00 0.  1.
</event>
<event>
 6    1  0.2412631E-010  0.9791872E+02  0.7561462E-02  0.1284734E+00
         -1   -1    0    0    0  501 -0.00000000000E+00  0.00000000000E+00  0.13559894973E+03  0.13559894973E+03  0.00000000000E+00 0.  1.
          1   -1    0    0  501    0  0.00000000000E+00 -0.00000000000E+00 -0.10267104275E+03  0.10267104275E+03  0.00000000000E+00 0. -1.
          5    1    1    2  502    0  0.36711404106E+02  0.19799235000E+02 -0.22463341560E+02  0.47558500944E+02  0.41800000000E+01 0.  1.
         -5    1    1    2    0  502 -0.69026756404E+02  0.12566694072E+02  0.55553374539E+02  0.89589423049E+02  0.41800000000E+01 0.  1.
        -11    1    1    2    0    0  0.36301408883E+02  0.12648630762E+02 -0.28435228613E+02  0.47815712619E+02  0.00000000000E+00 0. -1.
         11    1    1    2    0    0 -0.39860565845E+01 -0.45014559835E+02  0.28273102617E+02  0.53306355867E+02  0.00000000000E+00 0.  1.
</event>
<event>
 7    1  0.2412631E-010  0.8799416E+02  0.7561462E-02  0.1307783E+00
          2   -1    0    0  501    0  0.00000000000E+00  0.00000000000E+00  0.37620328265E+03  0.37620328265E+03  0.00000000000E+00 0. -1.
         -2   -1    0    0    0  501 -0.00000000000E+00 -0.00000000000E+00 -0.31175296861E+02  0.31175296861E+02  0.00000000000E+00 0.  1.
         25    2    1    2    0    0 -0.15428283147E+02  0.42112343774E+02  0.17606617629E+03  0.22055656773E+03  0.12503767319E+03 0.  0.
          5    1    3    3  502    0 -0.49845934431E+02  0.71838966458E+01  0.16151543071E+03  0.16923632089E+03  0.41800000000E+01 0.  1.
         -5    1    3    3    0  502  0.34417651284E+02  0.34928447128E+02  0.14550745575E+02  0.51320246838E+02  0.41800000000E+01 0.  1.
        -11    1    1    2    0    0  0.34938396588E+02 -0.63627182450E+01  0.10641483067E+03  0.11218418750E+03  0.00000000000E+00 0.  1.
         11    1    1    2    0    0 -0.19510113442E+02 -0.35749625529E+02  0.62546978839E+02  0.74637824284E+02  0.00000000000E+00 0. -1.
</event>
<event>
 7    1  0.2412631E-010  0.1279678E+03  0.7561462E-02  0.1230503E+00
          1   -1    0    0  501    0  0.00000000000E+00  0.00000000000E+00  0.23416897534E+02  0.23416897534E+02  0.00000000000E+00 0. -1.
         -1   -1    0    0    0  501 -0.00000000000E+00 -0.00000000000E+00 -0.10618615531E+04  0.10618615531E+04  0.00000000000E+00 0.  1.
         25    2    1    2    0    0  0.10191409020E+03  0.26730819161E+02 -0.71772088750E+03  0.73611453106E+03  0.12506123305E+03 0.  0.
          5    1    3    3  502    0  0.72610937518E+01 -0.14596481325E+02 -0.43102985678E+03  0.43135830882E+03  0.41800000000E+01 0. -1.
         -5    1    3    3    0  502  0.94652996444E+02  0.41327300486E+02 -0.28669103072E+03  0.30475622224E+03  0.41800000000E+01 0. -1.
        -11    1    1    2    0    0 -0.37024250009E+02  0.31455377622E+02 -0.14668810062E+03  0.15452389697E+03  0.00000000000E+00 0.  1.
         11    1    1    2    0    0 -0.64889840187E+02 -0.58186196783E+02 -0.17403566741E+03  0.19464002257E+03  0.00000000000E+00 0. -1.
</event>
<event>
 7    1  0.2412631E-010  0.2274953E+03  0.7561462E-02  0.1128415E+00
          1   -1    0    0  501    0  0.00000000000E+00  0.00000000000E+00  0.52267822275E+02  0.52267822275E+02  0.00000000000E+00 0. -1.
         -1   -1    0    0    0  501 -0.00000000000E+00 -0.00000000000E+00 -0.10339025858E+04  0.10339025858E+04  0.00000000000E+00 0.  1.
         25    2    1    2    0    0 -0.63883616207E+02 -0.19492236180E+03 -0.53006949389E+03  0.58198207323E+03  0.12511443426E+03 0.  0.
          5    1    3    3  502    0 -0.25001345376E+02 -0.19097434300E+03 -0.48675590566E+03  0.52349312416E+03  0.41800000000E+01 0. -1.
         -5    1    3    3    0  502 -0.38882270831E+02 -0.39480188007E+01 -0.43313588233E+02  0.58488949068E+02  0.41800000000E+01 0. -1.
        -11    1    1    2    0    0  0.83774355860E+02  0.12605549807E+03 -0.33018751979E+03  0.36322435149E+03  0.00000000000E+00 0.  1.
         11    1    1    2    0    0 -0.19890739653E+02  0.68866863724E+02 -0.12137774982E+03  0.14096398332E+03  0.00000000000E+00 0. -1.
</event>
<event>
 7    1  0.2412631E-010  0.1311974E+03  0.7561462E-02  0.1225690E+00
          2   -1    0    0  501    0  0.00000000000E+00  0.00000000000E+00  0.36581452370E+03  0.36581452370E+03  0.00000000000E+00 0. -1.
         -2   -1    0    0    0  501 -0.00000000000E+00 -0.00000000000E+00 -0.11195208348E+03  0.11195208348E+03  0.00000000000E+00 0.  1.
         25    2    1    2    0    0 -0.26725037250E+02 -0.11697057336E+03  0.27610424503E+03  0.32598035827E+03  0.12503318443E+03 0.  0.
          5    1    3    3  502    0  0.21110575259E+02 -0.67448777401E+02  0.23555695135E+03  0.24596654994E+03  0.41800000000E+01 0. -1.
         -5    1    3    3    0  502 -0.47835612510E+02 -0.49521795960E+02  0.40547293684E+02  0.80013808336E+02  0.41800000000E+01 0. -1.
        -11    1    1    2    0    0  0.19137718543E+02  0.31839507564E+02  0.33272978148E+02  0.49870808975E+02  0.00000000000E+00 0. -1.
         11    1    1    2    0    0  0.75873187069E+01  0.85131065797E+02 -0.55514782962E+02  0.10191543993E+03  0.00000000000E+00 0.  1.
</event>
<event>
 7    1  0.2412631E-010  0.1041180E+03  0.7561462E-02  0.1271867E+00
          1   -1    0    0  501    0  0.00000000000E+00  0.00000000000E+00  0.32567609636E+03  0.32567609636E+03  0.00000000000E+00 0. -1.
         -1   -1    0    0    0  501 -0.00000000000E+00 -0.00000000000E+00 -0.45377445344E+02  0.45377445344E+02  0.00000000000E+00 0.  1.
         25    2    1    2    0    0 -0.41364764580E+02  0.42636090343E+01  0.10189465593E+03  0.16663927718E+03  0.12512755765E+03 0.  0.
          5    1    3    3  502    0  0.20121644397E+02 -0.41109643674E+02  0.99728753983E+01  0.47029926855E+02  0.41800000000E+01 0. -1.
         -5    1    3    3    0  502 -0.61486408977E+02  0.45373252708E+02  0.91921780527E+02  0.11960935033E+03  0.41800000000E+01 0. -1.
        -11    1    1    2    0    0  0.20161020735E+02  0.35418195410E+02  0.33718165281E+02  0.52894517609E+02  0.00000000000E+00 0.  1.
         11    1    1    2    0    0  0.21203743845E+02 -0.39681804444E+02  0.14468582981E+03  0.15151974692E+03  0.00000000000E+00 0. -1.
</event>
<event>
 7    1  0.2412631E-010  0.9518584E+02  0.7561462E-02  0.1290758E+00
         -2   -1    0    0    0  501 -0.00000000000E+00  0.00000000000E+00  0.35701049837E+02  0.35701049837E+02  0.00000000000E+00 0.  1.
          2   -1    0    0  501    0  0.00000000000E+00 -0.00000000000E+00 -0.71222996074E+03  0.71222996074E+03  0.00000000000E+00 0. -1.
         25    2    1    2    0    0 -0.43613903291E+01  0.75760404390E+02 -0.54669124103E+03  0.56593535752E+03  0.12511137147E+03 0.  0.
          5    1    3    3  502    0  0.14917139728E+02  0.68788943379E+02 -0.12338067360E+03  0.14210806735E+03  0.41800000000E+01 0.  1.
         -5    1    3    3    0  502 -0.19278530057E+02  0.69714610114E+01 -0.42331056743E+03  0.42382729017E+03  0.41800000000E+01 0.  1.
        -11    1    1    2    0    0 -0.21134067293E+02 -0.69559321102E+02 -0.29792325533E+02  0.78566727138E+02  0.00000000000E+00 0.  1.
         11    1    1    2    0    0  0.25495457622E+02 -0.62010832880E+01 -0.10004534434E+03  0.10342892592E+03  0.00000000000E+00 0. -1.
</event>
<event>
 7    1  0.2412631E-010  0.1666086E+03  0.7561462E-02  0.1181431E+00
          2   -1    0    0  501    0  0.00000000000E+00  0.00000000000E+00  0.84731068472E+03  0.84731068472E+03  0.00000000000E+00 0. -1.
         -2   -1    0    0    0  501 -0.00000000000E+00 -0.00000000000E+00 -0.50207322495E+02  0.50207322495E+02  0.00000000000E+00 0.  1.
         25    2    1    2    0    0 -0.98762567506E+02 -0.10491937832E+03  0.63127594004E+03  0.65948950794E+03  0.12511985422E+03 0.  0.
          5    1    3    3  502    0 -0.22585716958E+02 -0.10718577656E+03  0.29627730527E+03  0.31590602926E+03  0.41800000000E+01 0.  1.
         -5    1    3    3    0  502 -0.76176850549E+02  0.22663982358E+01  0.33499863478E+03  0.34358347868E+03  0.41800000000E+01 0.  1.
        -11    1    1    2    0    0  0.91726226533E+02  0.81104967189E+02  0.74363956286E+02  0.14325402030E+03  0.00000000000E+00 0.  1.
         11    1    1    2    0    0  0.70363409733E+01  0.23814411132E+02  0.91463465899E+02  0.94774478981E+02  0.00000000000E+00 0. -1.
</event>
<event>
 7    1  0.2412631E-010  0.1301510E+03  0.7561462E-02  0.1227232E+00
         -1   -1    0    0    0  501 -0.00000000000E+00  0.00000000000E+00  0.54258365568E+03  0.54258365568E+03  0.00000000000E+00 0.  1.
          1   -1    0    0  501    0  0.00000000000E+00 -0.00000000000E+00 -0.46194835503E+02  0.46194835503E+02  0.00000000000E+00 0. -1.
         25    2    1    2    0    0 -0.11560571968E+03  0.57494731448E+01  0.23694553396E+03  0.29188049900E+03  0.12511315184E+03 0.  0.
          5    1    3    3  502    0 -0.85464421298E+02  0.67107558655E+00  0.43501805090E+02  0.95992172057E+02  0.41800000000E+01 0.  1.
         -5    1    3    3    0  502 -0.30141298380E+02  0.50783975583E+01  0.19344372887E+03  0.19588832694E+03  0.41800000000E+01 0.  1.
        -11    1    1    2    0    0  0.15125254691E+02 -0.35916092704E+02  0.81307694349E+02  0.90164739255E+02  0.00000000000E+00 0.  1.
         11    1    1    2    0    0  0.10048046499E+03  0.30166619559E+02  0.17813559186E+03  0.20673325293E+03  0.00000000000E+00 0. -1.
</event>
<event>
 7    1  0.2412631E-010  0.1112794E+03  0.7561462E-02  0.1258219E+00
          1   -1    0    0  501    0  0.00000000000E+00  0.00000000000E+00  0.81198958043E+03  0.81198958043E+03  0.00000000000E+00 0. -1.
         -1   -1    0    0    0  501 -0.00000000000E+00 -0.00000000000E+00 -0.20261630701E+02  0.20261630701E+02  0.00000000000E+00 0.  1.
         25    2    1    2    0    0  0.31522113271E+02  0.77158266477E+01  0.24579007175E+03  0.27768246582E+03  0.12506644172E+03 0.  0.
          5    1    3    3  502    0 -0.11473742856E+02 -0.51000553462E+02  0.70719319613E+02  0.88042022893E+02  0.41800000000E+01 0. -1.
         -5    1    3    3    0  502  0.42995856127E+02  0.58716380110E+02  0.17507075214E+03  0.18964044293E+03  0.41800000000E+01 0. -1.
        -11    1    1    2    0    0 -0.17610591130E+01  0.40511819862E+02  0.20882388259E+03  0.21272452331E+03  0.00000000000E+00 0. -1.
         11    1    1    2    0    0 -0.29761054158E+02 -0.48227646510E+02  0.33711399539E+03  0.34184422201E+03  0.00000000000E+00 0.  1.
</event>
<event>
 7    1  0.2412631E-010  0.8561639E+02  0.7561462E-02  0.1313828E+00
          4   -1    0    0  501    0  0.00000000000E+00  0.00000000000E+00  0.51992651122E+02  0.51992651122E+02  0.00000000000E+00 0. -1.
         -4   -1    0    0    0  501 -0.00000000000E+00 -0.00000000000E+00 -0.24137382906E+03  0.24137382906E+03  0.00000000000E+00 0.  1.
         25    2    1    2    0    0 -0.60924056091E+01 -0.80912231108E+01 -0.75231581335E+02  0.14634792886E+03  0.12512130175E+03 0.  0.
          5    1    3    3  502    0  0.32242081335E+02  0.13527766614E+02  0.20609882676E+02  0.40801861996E+02  0.41800000000E+01 0. -1.
         -5    1    3    3    0  502 -0.38334486944E+02 -0.21618989724E+02 -0.95841464011E+02  0.10554606686E+03  0.41800000000E+01 0. -1.
        -11    1    1    2    0    0 -0.42621275772E+02  0.14487309951E+01 -0.43236756404E+02  0.60729639175E+02  0.00000000000E+00 0. -1.
         11    1    1    2    0    0  0.48713681381E+02  0.66424921157E+01 -0.70912840200E+02  0.86288912153E+02  0.00000000000E+00 0.  1.
</event>
<event>
 7    1  0.2412631E-010  0.1288090E+03  0.7561462E-02  0.1229234E+00
          2   -1    0    0  501    0  0.00000000000E+00  0.00000000000E+00  0.22175558311E+03  0.22175558311E+03  0.00000000000E+00 0.  1.
         -2   -1    0    0    0  501 -0.00000000000E+00 -0.00000000000E+00 -0.90977183735E+02  0.90977183735E+02  0.00000000000E+00 0. -1.
         25    2    1    2    0    0  0.85874663161E+02 -0.20032923481E+02  0.97620944765E+02  0.18155074254E+03  0.12512013214E+03 0.  0.
          5    1    3    3  502    0  0.11064099546E+03 -0.24508999780E+02  0.10546198090E+03  0.15486065595E+03  0.41800000000E+01 0.  1.
         -5    1    3    3    0  502 -0.24766332300E+02  0.44760762994E+01 -0.78410361357E+01  0.26690086592E+02  0.41800000000E+01 0.  1.
        -11    1    1    2    0    0 -0.98929422277E+02  0.28732843467E+02  0.44094631232E+02  0.11205776809E+03  0.00000000000E+00 0.  1.
         11    1    1    2    0    0  0.13054759117E+02 -0.86999199861E+01 -0.10937176618E+02  0.19124256214E+02  0.00000000000E+00 0. -1.
</event>
<event>
 7    1  0.2412631E-010  0.1378402E+03  0.7561462E-02  0.1216265E+00
         -2   -1    0    0    0  501 -0.00000000000E+00  0.00000000000E+00  0.48397884183E+02  0.48397884183E+02  0.00000000000E+00 0.  1.
          2   -1    0    0  501    0  0.00000000000E+00 -0.00000000000E+00 -0.52558458377E+03  0.52558458377E+03  0.00000000000E+00 0. -1.
         25    2    1    2    0    0  0.11656196703E+03  0.71167536385E+01 -0.26630899708E+03  0.31656098261E+03  0.12511208351E+03 0.  0.
          5    1    3    3  502    0  0.28483584290E+02  0.42443340391E+02 -0.18353515960E+03  0.19056594377E+03  0.41800000000E+01 0. -1.
         -5    1    3    3    0  502  0.88078382743E+02 -0.35326586752E+02 -0.82773837486E+02  0.12599503883E+03  0.41800000000E+01 0. -1.
        -11    1    1    2    0    0 -0.57192678761E+02  0.24408847939E+02 -0.40361760376E+02  0.74134108629E+02  0.00000000000E+00 0.  1.
         11    1    1    2    0    0 -0.59369288272E+02 -0.31525601577E+02 -0.17051594213E+03  0.18328737672E+03  0.00000000000E+00 0. -1.
</event>
<event>
 6    1  0.2412631E-010  0.1112484E+03  0.7561462E-02  0.1258275E+00
         -1   -1    0    0    0  501 -0.00000000000E+00  0.00000000000E+00  0.12299090019E+03  0.12299090019E+03  0.00000000000E+00 0.  1.
          1   -1    0    0  501    0  0.00000000000E+00 -0.00000000000E+00 -0.15556760664E+03  0.15556760664E+03  0.00000000000E+00 0. -1.
          5    1    1    2  502    0  0.86206655895E+01 -0.53811552892E+02 -0.60582942104E+02  0.81595124694E+02  0.41800000000E+01 0. -1.
         -5    1    1    2    0  502  0.40329101709E+02 -0.12402472869E+02  0.53650132197E+02  0.68381772884E+02  0.41800000000E+01 0. -1.
        -11    1    1    2    0    0 -0.77677024863E+02  0.45488304818E+02 -0.12900625961E+02  0.90935868704E+02  0.00000000000E+00 0.  1.
         11    1    1    2    0    0  0.28727257564E+02  0.20725720944E+02 -0.12743270584E+02  0.37645740542E+02  0.00000000000E+00 0. -1.
</event>
<event>
 6    1  0.2412631E-010  0.1331376E+03  0.7561462E-02  0.1222873E+00
          2   -1    0    0  501    0  0.00000000000E+00  0.00000000000E+00  0.76270721983E+03  0.76270721983E+03  0.00000000000E+00 0. -1.
         -2   -1    0    0    0  501 -0.00000000000E+00 -0.00000000000E+00 -0.26323606857E+02  0.26323606857E+02  0.00000000000E+00 0.  1.
          5    1    1    2  502    0  0.52471972634E+02 -0.25925502247E+02  0.15614654995E+03  0.16680724517E+03  0.41800000000E+01 0. -1.
         -5    1    1    2    0  502 -0.69749662136E+02 -0.56338933926E+02  0.16406745727E+03  0.18701522339E+03  0.41800000000E+01 0. -1.
        -11    1    1    2    0    0 -0.31071975010E+02  0.52671211444E+02  0.29716415245E+03  0.30339126165E+03  0.00000000000E+00 0.  1.
         11    1    1    2    0    0  0.48349664513E+02  0.29593224729E+02  0.11900545330E+03  0.13181709647E+03  0.00000000000E+00 0. -1.
</event>
<event>
 6    1  0.2412631E-010  0.1821836E+03  0.7561462E-02  0.1165706E+00
          2   -1    0    0  501    0  0.00000000000E+00  0.00000000000E+00  0.82820737911E+03  0.82820737911E+03  0.00000000000E+00 0. -1.
         -2   -1    0    0    0  501 -0.00000000000E+00 -0.00000000000E+00 -0.49089170635E+02  0.49089170635E+02  0.00000000000E+00 0.  1.
          5    1    1    2  502    0 -0.29326283942E+01 -0.22865101073E+02  0.32803607867E+02  0.40310820451E+02  0.41800000000E+01 0.  1.
         -5    1    1    2    0  502 -0.26733424428E+02  0.16822328375E+03  0.19329139441E+03  0.25766797382E+03  0.41800000000E+01 0.  1.
        -11    1    1    2    0    0  0.53527354454E+02 -0.53627164122E+02  0.29009266487E+03  0.29982462311E+03  0.00000000000E+00 0.  1.
         11    1    1    2    0    0 -0.23861301632E+02 -0.91731018559E+02  0.26293054132E+03  0.27949313236E+03  0.00000000000E+00 0. -1.
</event>
<event>
 6    1  0.2412631E-010  0.1754156E+03  0.7561462E-02  0.1172315E+00
          2   -1    0    0  501    0  0.00000000000E+00  0.00000000000E+00  0.70775361196E+03  0.70775361196E+03  0.00000000000E+00 0.  1.
         -2   -1    0    0    0  501 -0.00000000000E+00 -0.00000000000E+00 -0.58905133322E+02  0.58905133322E+02  0.00000000000E+00 0. -1.
          5    1    1    2  502    0 -0.49758553743E+02  0.88413598635E+02  0.66007829011E+02  0.12110897566E+03  0.41800000000E+01 0.  1.
         -5    1    1    2    0  502 -0.66698706714E+02  0.38334715832E+02  0.23687490321E+03  0.24908926128E+03  0.41800000000E+01 0.  1.
        -11    1    1    2    0    0  0.82159031921E+02 -0.84985149258E+02  0.30939736748E+03  0.33120886631E+03  0.00000000000E+00 0.  1.
         11    1    1    2    0    0  0.34298228537E+02 -0.41763165209E+02  0.36568378930E+02  0.65251642022E+02  0.00000000000E+00 0. -1.
</event>
<event>
 7    1  0.2412631E-010  0.9953752E+02  0.7561462E-02  0.1281271E+00
         -2   -1    0    0    0  501 -0.00000000000E+00  0.00000000000E+00  0.16796328184E+03  0.16796328184E+03  0.00000000000E+00 0.  1.
          2   -1    0    0  501    0  0.00000000000E+00 -0.00000000000E+00 -0.90732851483E+02  0.90732851483E+02  0.00000000000E+00 0. -1.
         25    2    1    2    0    0 -0.57337877467E+02  0.14604229664E+02  0.35956450762E+02  0.14300843983E+03  0.12513045910E+03 0.  0.
          5    1    3    3  502    0  0.23577208289E+02  0.38067200445E+02  0.37632096508E+02  0.58639948738E+02  0.41800000000E+01 0. -1.
         -5    1    3    3    0  502 -0.80915085755E+02 -0.23462970781E+02 -0.16756457463E+01  0.84368491093E+02  0.41800000000E+01 0. -1.
        -11    1    1    2    0    0  0.31927990384E+02 -0.26689377271E+02  0.66136685057E+02  0.78139494107E+02  0.00000000000E+00 0.  1.
         11    1    1    2    0    0  0.25409887083E+02  0.12085147607E+02 -0.24862705460E+02  0.37548199385E+02  0.00000000000E+00 0. -1.
</event>
<event>
 6    1  0.2412631E-010  0.1575757E+03  0.7561462E-02  0.1191461E+00
         -1   -1    0    0    0  501 -0.00000000000E+00  0.00000000000E+00  0.19972677987E+03  0.19972677987E+03  0.00000000000E+00 0.  1.
          1   -1    0    0  501    0  0.00000000000E+00 -0.00000000000E+00 -0.14763255012E+03  0.14763255012E+03  0.00000000000E+00 0. -1.
          5    1    1    2  502    0 -0.24264193279E+02  0.97547296607E+02  0.41423974468E+02  0.10880093847E+03  0.41800000000E+01 0. -1.
         -5    1    1    2    0  502  0.65984723038E+02  0.85876615788E+01  0.49765554469E+02  0.83197442373E+02  0.41800000000E+01 0. -1.
        -11    1    1    2    0    0  0.23360656059E+02 -0.69209104994E+02 -0.52447743009E+01  0.73233381207E+02  0.00000000000E+00 0. -1.
         11    1    1    2    0    0 -0.65081185818E+02 -0.36925853191E+02 -0.33850524889E+02  0.82127567945E+02  0.00000000000E+00 0.  1.
</event>
<event>
 7    1  0.2412631E-010  0.2086232E+03  0.7561462E-02  0.1142661E+00
         -1   -1    0    0    0  501 -0.00000000000E+00  0.00000000000E+00  0.47714864245E+02  0.47714864245E+02  0.00000000000E+00 0.  1.
          1   -1    0    0  501    0  0.00000000000E+00 -0.00000000000E+00 -0.12020397000E+04  0.12020397000E+04  0.00000000000E+00 0. -1.
         25    2    1    2    0    0 -0.18518691174E+03  0.54077496273E+02 -0.36132918782E+03  0.42828951353E+03  0.12511817432E+03 0.  0.
          5    1    3    3  502    0 -0.99255928995E+02  0.65097458872E+02 -0.29828658748E+03  0.32106351282E+03  0.41800000000E+01 0.  1.
         -5    1    3    3    0  502 -0.85930982742E+02 -0.11019962600E+02 -0.63042600336E+02  0.10722600071E+03  0.41800000000E+01 0.  1.
        -11    1    1    2    0    0  0.11308575887E+02  0.19811525848E+02 -0.13378351749E+03  0.13571444284E+03  0.00000000000E+00 0.  1.
         11    1    1    2    0    0  0.17387833585E+03 -0.73889022121E+02 -0.65921213045E+03  0.68575060788E+03  0.00000000000E+00 0. -1.
</event>
<event>
 7    1  0.2412631E-010  0.5522162E+02  0.7561462E-02  0.1419054E+00
          1   -1    0    0  501    0  0.00000000000E+00  0.00000000000E+00  0.47322565838E+02  0.47322565838E+02  0.00000000000E+00 0. -1.
         -1   -1    0    0    0  501 -0.00000000000E+00 -0.00000000000E+00 -0.69086479848E+03  0.69086479848E+03  0.00000000000E+00 0.  1.
         25    2    1    2    0    0  0.30680321226E+02 -0.86868262843E+01 -0.62668171160E+03  0.63984695348E+03  0.12512958544E+03 0.  0.
          5    1    3    3  502    0  0.10046392997E+02 -0.20849750331E+02 -0.60978506306E+03  0.61023842687E+03  0.41800000000E+01 0. -1.
         -5    1    3    3    0  502  0.20633928230E+02  0.12162924047E+02 -0.16896648542E+02  0.29608526601E+02  0.41800000000E+01 0. -1.
        -11    1    1    2    0    0  0.44024763584E+01 -0.18000627183E+02  0.29201508954E+02  0.34585148580E+02  0.00000000000E+00 0. -1.
         11    1    1    2    0    0 -0.35082797585E+02  0.26687453468E+02 -0.46062029987E+02  0.63755262257E+02  0.00000000000E+00 0.  1.
</event>
<event>
 7    1  0.2412631E-010  0.1481768E+03  0.7561462E-02  0.1202731E+00
          2   -1    0    0  501    0  0.00000000000E+00  0.00000000000E+00  0.13174171379E+04  0.13174171379E+04  0.00000000000E+00 0. -1.
         -2   -1    0    0    0  501 -0.00000000000E+00 -0.00000000000E+00 -0.35991983309E+02  0.35991983309E+02  0.00000000000E+00 0.  1.
         25    2    1    2    0    0 -0.68094923694E+02  0.12176003503E+03  0.10560884550E+04  0.10725791144E+04  0.12506281304E+03 0.  0.
          5    1    3    3  502    0 -0.24866768615E+02  0.10442087244E+02  0.34326471348E+02  0.43853989585E+02  0.41800000000E+01 0. -1.
         -5    1    3    3    0  502 -0.43228155079E+02  0.11131794778E+03  0.10217619836E+04  0.10287251248E+04  0.41800000000E+01 0. -1.
        -11    1    1    2    0    0  0.73001264735E+02 -0.83140420873E+02  0.98434501110E+02  0.14809073315E+03  0.00000000000E+00 0. -1.
         11    1    1    2    0    0 -0.49063410408E+01 -0.38619614152E+02  0.12690219853E+03  0.13273927366E+03  0.00000000000E+00 0.  1.
</event>
<event>
 7    1  0.2412631E-010  0.1297552E+03  0.7561462E-02  0.1227819E+00
         -2   -1    0    0    0  501 -0.00000000000E+00  0.00000000000E+00  0.27553819912E+03  0.27553819912E+03  0.00000000000E+00 0.  1.
          2   -1    0    0  501    0  0.00000000000E+00 -0.00000000000E+00 -0.63447213390E+02  0.63447213390E+02  0.00000000000E+00 0. -1.
         25    2    1    2    0    0 -0.43091181684E+01  0.74580172180E+02  0.11194446371E+03  0.18375548096E+03  0.12511492015E+03 0.  0.
          5    1    3    3  502    0 -0.57941104915E+02  0.88885391210E+01  0.30980978228E+02  0.66433961032E+02  0.41800000000E+01 0.  1.
         -5    1    3    3    0  502  0.53631986747E+02  0.65691633059E+02  0.80963485479E+02  0.11732151992E+03  0.41800000000E+01 0.  1.
        -11    1    1    2    0    0  0.39323783774E+02 -0.70312210078E+02  0.84156788297E+02  0.11650120975E+03  0.00000000000E+00 0.  1.
         11    1    1    2    0    0 -0.35014665605E+02 -0.42679621022E+01  0.15989733724E+02  0.38728721804E+02  0.00000000000E+00 0. -1.
</event>
<event>
 7    1  0.2412631E-010  0.8776021E+02  0.7561462E-02  0.1308368E+00
         -1   -1    0    0    0  501 -0.00000000000E+00  0.00000000000E+00  0.84919146425E+02  0.84919146425E+02  0.00000000000E+00 0.  1.
          1   -1    0    0  501    0  0.00000000000E+00 -0.00000000000E+00 -0.16312199405E+03  0.16312199405E+03  0.00000000000E+00 0. -1.
         25    2    1    2    0    0 -0.28014164114E+02  0.10923658420E+02 -0.78722302756E+02  0.15079121198E+03  0.12504666711E+03 0.  0.
          5    1    3    3  502    0 -0.37991026558E+00 -0.55959383496E+02 -0.33585753598E+02  0.65399328574E+02  0.41800000000E+01 0. -1.
         -5    1    3    3    0  502 -0.27634253848E+02  0.66883041916E+02 -0.45136549157E+02  0.85391883406E+02  0.41800000000E+01 0. -1.
        -11    1    1    2    0    0  0.21144443271E+02 -0.24097358196E+02 -0.41638651404E+02  0.52550427629E+02  0.00000000000E+00 0. -1.
         11    1    1    2    0    0  0.68697208426E+01  0.13173699776E+02  0.42158106539E+02  0.44699500861E+02  0.00000000000E+00 0.  1.
</event>
<event>
 7    1  0.2412631E-010  0.3034764E+03  0.7561462E-02  0.1083516E+00
         -2   -1    0    0    0  501 -0.00000000000E+00  0.00000000000E+00  0.11378034065E+03  0.11378034065E+03  0.00000000000E+00 0.  1.
          2   -1    0    0  501    0  0.00000000000E+00 -0.00000000000E+00 -0.11316663058E+04  0.11316663058E+04  0.00000000000E+00 0. -1.
         25    2    1    2    0    0  0.28244336533E+03 -0.14546263117E+01 -0.82027165919E+03  0.87650666012E+03  0.12506782079E+03 0.  0.
          5    1    3    3  502    0  0.38791079319E+02 -0.46581546043E+02 -0.17749568522E+03  0.18760804603E+03  0.41800000000E+01 0.  1.
         -5    1    3    3    0  502  0.24365228601E+03  0.45126919732E+02 -0.64277597398E+03  0.68889861409E+03  0.41800000000E+01 0.  1.
        -11    1    1    2    0    0 -0.12281964499E+03 -0.47058216355E+02 -0.14085649521E+03  0.19271661362E+03  0.00000000000E+00 0.  1.
         11    1    1    2    0    0 -0.15962372034E+03  0.48512842667E+02 -0.56757810710E+02  0.17622337267E+03  0.00000000000E+00 0. -1.
</event>
<event>
 7    1  0.2412631E-010  0.2800038E+03  0.7561462E-02  0.1095687E+00
          1   -1    0    0  501    0  0.00000000000E+00  0.00000000000E+00  0.98202716289E+03  0.98202716289E+03  0.00000000000E+00 0. -1.
         -1   -1    0    0    0  501 -0.00000000000E+00 -0.00000000000E+00 -0.12162830549E+03  0.12162830549E+03  0.00000000000E+00 0.  1.
         25    2    1    2    0    0 -0.25677876009E+03 -0.99415941750E+02  0.15213663357E+03  0.33855324410E+03  0.12511547750E+03 0.  0.
          5    1    3    3  502    0 -0.12465366240E+03 -0.19289444316E+02  0.13207123870E+03  0.18267704482E+03  0.41800000000E+01 0. -1.
         -5    1    3    3    0  502 -0.13212509769E+03 -0.80126497433E+02  0.20065394864E+02  0.15587619928E+03  0.41800000000E+01 0. -1.
        -11    1    1    2    0    0  0.14934820784E+03  0.33102352773E+02  0.28560184357E+03  0.32398929920E+03  0.00000000000E+00 0.  1.
         11    1    1    2    0    0  0.10743055225E+03  0.66313588976E+02  0.42266038026E+03  0.44111292509E+03  0.00000000000E+00 0. -1.
</event>
<event>
 7    1  0.2412631E-010  0.4465242E+03  0.7561462E-02  0.1028764E+00
         -1   -1    0    0    0  501 -0.00000000000E+00  0.00000000000E+00  0.74769026851E+02  0.74769026851E+02  0.00000000000E+00 0.  1.
          1   -1    0    0  501    0  0.00000000000E+00 -0.00000000000E+00 -0.29416055934E+04  0.29416055934E+04  0.00000000000E+00 0. -1.
         25    2    1    2    0    0 -0.63283738886E+02  0.43334878444E+03 -0.18533285606E+04  0.19084748612E+04  0.12511411479E+03 0.  0.
          5    1    3    3  502    0 -0.73627377864E+02  0.14130556173E+03 -0.77655077261E+03  0.79274007555E+03  0.41800000000E+01 0. -1.
         -5    1    3    3    0  502  0.10343638978E+02  0.29204322271E+03 -0.10767777880E+04  0.11157347857E+04  0.41800000000E+01 0. -1.
        -11    1    1    2    0    0  0.71929688992E+02 -0.33300463443E+03 -0.69796475953E+03  0.77667288626E+03  0.00000000000E+00 0.  1.
         11    1    1    2    0    0 -0.86459501054E+01 -0.10034415001E+03 -0.31554324633E+03  0.33122687270E+03  0.00000000000E+00 0. -1.
</event>
<event>
 7    1  0.2412631E-010  0.9032164E+02  0.7561462E-02  0.1302075E+00
         -1   -1    0    0    0  501 -0.00000000000E+00  0.00000000000E+00  0.52209410959E+02  0.52209410959E+02  0.00000000000E+00 0.  1.
          1   -1    0    0  501    0  0.00000000000E+00 -0.00000000000E+00 -0.30552459401E+03  0.30552459401E+03  0.00000000000E+00 0. -1.
         25    2    1    2    0    0 -0.26038767164E+02 -0.34363001161E+02 -0.13567661571E+03  0.18952859317E+03  0.12511638716E+03 0.  0.
          5    1    3    3  502    0  0.27359095140E+02 -0.47349481599E+02 -0.12045328557E+03  0.13235165243E+03  0.41800000000E+01 0. -1.
         -5    1    3    3    0  502 -0.53397862304E+02  0.12986480438E+02 -0.15223330137E+02  0.57176940747E+02  0.41800000000E+01 0. -1.
        -11    1    1    2    0    0  0.29768062829E+02 -0.58182459190E+01  0.11858027726E+02  0.32566890729E+02  0.00000000000E+00 0.  1.
         11    1    1    2    0    0 -0.37292956655E+01  0.40181247080E+02 -0.12949659507E+03  0.13563852107E+03  0.00000000000E+00 0. -1.
</event>
<event>
 7    1  0.2412631E-010  0.2153663E+03  0.7561462E-02  0.1137386E+00
          2   -1    0    0  501    0  0.00000000000E+00  0.00000000000E+00  0.28960903263E+03  0.28960903263E+03  0.00000000000E+00 0. -1.
         -2   -1    0    0    0  501 -0.00000000000E+00 -0.00000000000E+00 -0.19065503982E+03  0.19065503982E+03  0.00000000000E+00 0.  1.
         25    2    1    2    0    0  0.39772757962E+02  0.19857750265E+03 -0.52310318873E+01  0.23811867470E+03  0.12513290020E+03 0.  0.
          5    1    3    3  502    0 -0.26120384612E+02  0.34142247173E+02 -0.38461850016E+02  0.57833846846E+02  0.41800000000E+01 0. -1.
         -5    1    3    3    0  502  0.65893142575E+02  0.16443525548E+03  0.33230818128E+02  0.18028482786E+03  0.41800000000E+01 0. -1.
        -11    1    1    2    0    0 -0.19754119993E+02 -0.18524219147E+03  0.67231387696E+02  0.19805290770E+03  0.00000000000E+00 0.  1.
         11    1    1    2    0    0 -0.20018637970E+02 -0.13335311175E+02  0.36953637008E+02  0.44092490045E+02  0.00000000000E+00 0. -1.
</event>
<event>
 7    1  0.2412631E-010  0.1719708E+03  0.7561462E-02  0.1175808E+00
          4   -1    0    0  501    0  0.00000000000E+00  0.00000000000E+00  0.72765113853E+03  0.72765113853E+03  0.00000000000E+00 0. -1.
         -4   -1    0    0    0  501 -0.00000000000E+00 -0.00000000000E+00 -0.63551463502E+02  0.63551463502E+02  0.00000000000E+00 0.  1.
         25    2    1    2    0    0 -0.61601785895E+02 -0.15160260424E+03  0.18519204060E+03  0.27696008007E+03  0.12503065389E+03 0.  0.
          5    1    3    3  502    0 -0.66798941916E+02 -0.99985122179E+02  0.46791924075E+02  0.12909717215E+03  0.41800000000E+01 0.  1.
         -5    1    3    3    0  502  0.51971560210E+01 -0.51617482064E+02  0.13840011652E+03  0.14786290792E+03  0.41800000000E+01 0.  1.
        -11    1    1    2    0    0  0.20478516780E+02  0.11409128052E+03  0.21226826468E+03  0.24185534133E+03  0.00000000000E+00 0.  1.
         11    1    1    2    0    0  0.41123269115E+02  0.37511323720E+02  0.26663936975E+03  0.27238718063E+03  0.00000000000E+00 0. -1.
</event>
<event>
 7    1  0.2412631E-010  0.9607845E+02  0.7561462E-02  0.1288765E+00
          2   -1    0    0  501    0  0.00000000000E+00  0.00000000000E+00  0.13415153524E+03  0.13415153524E+03  0.00000000000E+00 0.  1.
         -2   -1    0    0    0  501 -0.00000000000E+00 -0.00000000000E+00 -0.11322679710E+03  0.11322679710E+03  0.00000000000E+00 0. -1.
         25    2    1    2    0    0  0.11184920550E+02 -0.13745834771E+02  0.67107348879E+02  0.14310793354E+03  0.12514964621E+03 0.  0.
          5    1    3    3  502    0  0.52377196285E+02 -0.44983946630E+02  0.17525149264E+02  0.71354953590E+02  0.41800000000E+01 0. -1.
         -5    1    3    3    0  502 -0.41192275735E+02  0.31238111859E+02  0.49582199615E+02  0.71752979948E+02  0.41800000000E+01 0. -1.
        -11    1    1    2    0    0 -0.54726047917E+01  0.41969853813E+02  0.78466328167E+01  0.43046343386E+02  0.00000000000E+00 0.  1.
         11    1    1    2    0    0 -0.57123157588E+01 -0.28224019043E+02 -0.54029243555E+02  0.61224055414E+02  0.00000000000E+00 0. -1.
</event>
<event>
 7    1  0.2412631E-010  0.1964735E+03  0.7561462E-02  0.1152749E+00
          2   -1    0    0  501    0  0.00000000000E+00  0.00000000000E+00  0.14999851401E+04  0.14999851401E+04  0.00000000000E+00 0. -1.
         -2   -1    0    0    0  501 -0.00000000000E+00 -0.00000000000E+00 -0.28692724299E+02  0.28692724299E+02  0.00000000000E+00 0.  1.
         25    2    1    2    0    0  0.16379877369E+03  0.24013532193E+02  0.95980706115E+03  0.98197452463E+03  0.12505072735E+03 0.  0.
          5    1    3    3  502    0  0.15219164807E+03  0.60622590774E+02  0.84779202460E+03  0.86348490759E+03  0.41800000000E+01 0.  1.
         -5    1    3    3    0  502  0.11607125613E+02 -0.36609058580E+02  0.11201503654E+03  0.11848961704E+03  0.41800000000E+01 0.  1.
        -11    1    1    2    0    0 -0.15974575457E+02 -0.38720797921E+02  0.79026873552E+02  0.89441232080E+02  0.00000000000E+00 0.  1.
         11    1    1    2    0    0 -0.14782419823E+03  0.14707265728E+02  0.43245848108E+03  0.45726210766E+03  0.00000000000E+00 0. -1.
</event>
<event>
 6    1  0.2412631E-010  0.1541510E+03  0.7561462E-02  0.1195463E+00
          2   -1    0    0  501    0  0.00000000000E+00  0.00000000000E+00  0.22748958020E+03  0.22748958020E+03  0.00000000000E+00 0. -1.
         -2   -1    0    0    0  501 -0.00000000000E+00 -0.00000000000E+00 -0.12956678016E+03  0.12956678016E+03  0.00000000000E+00 0.  1.
          5    1    1    2  502    0  0.55792903378E+02  0.72727098797E+02  0.15439028934E+01  0.91771101132E+02  0.41800000000E+01 0.  1.
         -5    1    1    2    0  502  0.58235704423E+02 -0.50826937335E+02 -0.17865797207E+02  0.79444533722E+02  0.41800000000E+01 0.  1.
        -11    1    1    2    0    0 -0.12660369771E+02 -0.34722252160E+02  0.68165310231E+01  0.37581709021E+02  0.00000000000E+00 0. -1.
         11    1    1    2    0    0 -0.10136823803E+03  0.12822090697E+02  0.10742816333E+03  0.14825901648E+03  0.00000000000E+00 0.  1.
</event>
<event>
 7    1  0.2412631E-010  0.1427834E+03  0.7561462E-02  0.1209632E+00
          1   -1    0    0  501    0  0.00000000000E+00  0.00000000000E+00  0.44024191591E+03  0.44024191591E+03  0.00000000000E+00 0. -1.
         -1   -1    0    0    0  501 -0.00000000000E+00 -0.00000000000E+00 -0.60899611996E+02  0.60899611996E+02  0.00000000000E+00 0.  1.
         25    2    1    2    0    0  0.10303085439E+03  0.66528614968E+02  0.22629485786E+03  0.28616952340E+03  0.12506886049E+03 0.  0.
          5    1    3    3  502    0 -0.16847402227E+02  0.33183203560E+02  0.10847970670E+03  0.11476183654E+03  0.41800000000E+01 0.  1.
         -5    1    3    3    0  502  0.11987825662E+03  0.33345411408E+02  0.11781515115E+03  0.17140768686E+03  0.41800000000E+01 0.  1.
        -11    1    1    2    0    0 -0.43969178906E+02 -0.19406240973E+02  0.12577355840E+03  0.13464352519E+03  0.00000000000E+00 0. -1.
         11    1    1    2    0    0 -0.59061675486E+02 -0.47122373996E+02  0.27273887662E+02  0.80328479324E+02  0.00000000000E+00 0.  1.
</event>
<event>
 7    1  0.2412631E-010  0.9965828E+02  0.7561462E-02  0.1281016E+00
         -4   -1    0    0    0  501 -0.00000000000E+00  0.00000000000E+00  0.17931969339E+03  0.17931969339E+03  0.00000000000E+00 0.  1.
          4   -1    0    0  501    0  0.00000000000E+00 -0.00000000000E+00 -0.85608591628E+02  0.85608591628E+02  0.00000000000E+00 0. -1.
         25    2    1    2    0    0  0.11447265134E+02  0.48458441388E+02  0.22073428009E+02  0.13640143872E+03  0.12505541108E+03 0.  0.
          5    1    3    3  502    0 -0.13181233509E+02 -0.18917377184E+02  0.53169401113E+02  0.58103955898E+02  0.41800000000E+01 0. -1.
         -5    1    3    3    0  502  0.24628498642E+02  0.67375818572E+02 -0.31095973104E+02  0.78297482826E+02  0.41800000000E+01 0. -1.
        -11    1    1    2    0    0  0.28650081076E+02 -0.56298904830E+02  0.29112784659E+02  0.69555359689E+02  0.00000000000E+00 0. -1.
         11    1    1    2    0    0 -0.40097346210E+02  0.78404634421E+01  0.42524889098E+02  0.58971486609E+02  0.00000000000E+00 0.  1.
</event>
<event>
 7    1  0.2412631E-010  0.1644169E+03  0.7561462E-02  0.1183798E+00
          1   -1    0    0  501    0  0.00000000000E+00  0.00000000000E+00  0.63997791836E+03  0.63997791836E+03  0.00000000000E+00 0. -1.
         -1   -1    0    0    0  501 -0.00000000000E+00 -0.00000000000E+00 -0.57490922388E+02  0.57490922388E+02  0.00000000000E+00 0.  1.
         25    2    1    2    0    0  0.51620487220E+02  0.12188149420E+03  0.15146592193E+03  0.23688618035E+03  0.12511340299E+03 0.  0.
          5    1    3    3  502    0  0.34903088803E+02 -0.16335010191E+02  0.14068645438E+02  0.41236602071E+02  0.41800000000E+01 0.  1.
         -5    1    3    3    0  502  0.16717398417E+02  0.13821650439E+03  0.13739727649E+03  0.19564957828E+03  0.41800000000E+01 0.  1.
        -11    1    1    2    0    0  0.18572495387E+02 -0.24630261307E+02  0.34313342673E+02  0.46141010417E+02  0.00000000000E+00 0.  1.
         11    1    1    2    0    0 -0.70192982607E+02 -0.97251232891E+02  0.39670773137E+03  0.41444164998E+03  0.00000000000E+00 0. -1.
</event>
<event>
 7    1  0.2412631E-010  0.8592840E+02  0.7561462E-02  0.1313022E+00
         -1   -1    0    0    0  501 -0.00000000000E+00  0.00000000000E+00  0.10517628337E+03  0.10517628337E+03  0.00000000000E+00 0.  1.
          1   -1    0    0  501    0  0.00000000000E+00 -0.00000000000E+00 -0.17787994310E+03  0.17787994310E+03  0.00000000000E+00 0. -1.
         25    2    1    2    0    0 -0.35443389744E+02  0.50270967396E+02 -0.97237660068E+02  0.16997575668E+03  0.12511271431E+03 0.  0.
          5    1    3    3  502    0 -0.13230307945E+02  0.13463414701E+02  0.29953244338E+02  0.35650719910E+02  0.41800000000E+01 0. -1.
         -5    1    3    3    0  502 -0.22213081800E+02  0.36807552695E+02 -0.12719090441E+03  0.13432503677E+03  0.41800000000E+01 0. -1.
        -11    1    1    2    0    0 -0.25333428200E+02 -0.40502912991E+02  0.30051231409E+01  0.47867518321E+02  0.00000000000E+00 0.  1.
         11    1    1    2    0    0  0.60776817945E+02 -0.97680544058E+01  0.21528877198E+02  0.65212951473E+02  0.00000000000E+00 0. -1.
</event>
<event>
 7    1  0.2412631E-010  0.1654640E+03  0.7561462E-02  0.1182662E+00
         -1   -1    0    0    0  501 -0.00000000000E+00  0.00000000000E+00  0.62172110893E+02  0.62172110893E+02  0.00000000000E+00 0.  1.
          1   -1    0    0  501    0  0.00000000000E+00 -0.00000000000E+00 -0.48020602248E+03  0.48020602248E+03  0.00000000000E+00 0. -1.
         25    2    1    2    0    0  0.78484804531E+02  0.11022989224E+03 -0.22480097237E+03  0.29068649948E+03  0.12511063151E+03 0.  0.
          5    1    3    3  502    0 -0.30110792786E+02  0.44027238664E+02 -0.94248193110E+02  0.10837551334E+03  0.41800000000E+01 0.  1.
         -5    1    3    3    0  502  0.10859559732E+03  0.66202653575E+02 -0.13055277926E+03  0.18231098615E+03  0.41800000000E+01 0.  1.
        -11    1    1    2    0    0 -0.46097724931E+02 -0.13304255848E+02 -0.23158536640E+02  0.53275897804E+02  0.00000000000E+00 0.  1.
         11    1    1    2    0    0 -0.32387079600E+02 -0.96925636390E+02 -0.17007440258E+03  0.19841573609E+03  0.00000000000E+00 0. -1.
</event>
<event>
 6    1  0.2412631E-010  0.2115362E+03  0.7561462E-02  0.1140355E+00
          2   -1    0    0  501    0  0.00000000000E+00  0.00000000000E+00  0.19849707929E+03  0.19849707929E+03  0.00000000000E+00 0. -1.
         -2   -1    0    0    0  501 -0.00000000000E+00 -0.00000000000E+00 -0.23468792912E+03  0.23468792912E+03  0.00000000000E+00 0.  1.
          5    1    1    2  502    0 -0.20056717408E+01 -0.25634652293E+02 -0.60001429708E+01  0.26732606176E+02  0.41800000000E+01 0. -1.
         -5    1    1    2    0  502  0.17020938012E+03  0.93969838223E+02 -0.54269816184E+02  0.20190158227E+03  0.41800000000E+01 0. -1.
        -11    1    1    2    0    0 -0.84294485093E+02 -0.81926495678E+02  0.21572624623E+02  0.11951104152E+03  0.00000000000E+00 0. -1.
         11    1    1    2    0    0 -0.83909223285E+02  0.13591309747E+02  0.25064846966E+01  0.85039778448E+02  0.00000000000E+00 0.  1.
</event>
<event>
 6    1  0.2412631E-010  0.1358904E+03  0.7561462E-02  0.1218968E+00
         -2   -1    0    0    0  501 -0.00000000000E+00  0.00000000000E+00  0.17499687913E+02  0.17499687913E+02  0.00000000000E+00 0.  1.
          2   -1    0    0  501    0  0.00000000000E+00 -0.00000000000E+00 -0.15528565258E+04  0.15528565258E+04  0.00000000000E+00 0. -1.
          5    1    1    2  502    0 -0.12765017479E+03  0.27475779287E+02 -0.58119497931E+03  0.59569670299E+03  0.41800000000E+01 0. -1.
         -5    1    1    2    0  502  0.11652595372E+02 -0.66913564056E+01 -0.41433972220E+03  0.41457862345E+03  0.41800000000E+01 0. -1.
        -11    1    1    2    0    0  0.30164767131E+02 -0.27704473068E+02 -0.60336706993E+02  0.72924407538E+02  0.00000000000E+00 0.  1.
         11    1    1    2    0    0  0.85832812287E+02  0.69200501860E+01 -0.47948542936E+03  0.48715647971E+03  0.00000000000E+00 0. -1.
</event>
<event>
 6    1  0.2412631E-010  0.9816913E+02  0.7561462E-02  0.1284194E+00
         -1   -1    0    0    0  501 -0.00000000000E+00  0.00000000000E+00  0.22461929429E+02  0.22461929429E+02  0.00000000000E+00 0.  1.
          1   -1    0    0  501    0  0.00000000000E+00 -0.00000000000E+00 -0.71024233240E+03  0.71024233240E+03  0.00000000000E+00 0. -1.
          5    1    1    2  502    0  0.62070019053E+01  0.61835633990E+02 -0.47584478120E+02  0.78383209054E+02  0.41800000000E+01 0. -1.
         -5    1    1    2    0  502 -0.56175367403E+01 -0.36828092385E+02 -0.16738492699E+03  0.17153148776E+03  0.41800000000E+01 0. -1.
        -11    1    1    2    0    0  0.18224955505E+02 -0.56782878216E+02 -0.25584602336E+03  0.26270445738E+03  0.00000000000E+00 0.  1.
         11    1    1    2    0    0 -0.18814420670E+02  0.31775336611E+02 -0.21696497450E+03  0.22008510763E+03  0.00000000000E+00 0. -1.
</event>
<event>
 7    1  0.2412631E-010  0.1597884E+03  0.7561462E-02  0.1188936E+00
          1   -1    0    0  501    0  0.00000000000E+00  0.00000000000E+00  0.14629261398E+03  0.14629261398E+03  0.00000000000E+00 0. -1.
         -1   -1    0    0    0  501 -0.00000000000E+00 -0.00000000000E+00 -0.19015309149E+03  0.19015309149E+03  0.00000000000E+00 0.  1.
         25    2    1    2    0    0  0.10488232440E+03 -0.66485018191E+02 -0.47971500305E+02  0.18270048817E+03  0.12513050755E+03 0.  0.
          5    1    3    3  502    0  0.41064795771E+02  0.36041212461E+02 -0.22327466657E+02  0.59171569311E+02  0.41800000000E+01 0. -1.
         -5    1    3    3    0  502  0.63817528628E+02 -0.10252623065E+03 -0.25644033648E+02  0.12352891886E+03  0.41800000000E+01 0. -1.
        -11    1    1    2    0    0 -0.76530577843E+02  0.55473832374E+01  0.29065461173E+02  0.82051836292E+02  0.00000000000E+00 0. -1.
         11    1    1    2    0    0 -0.28351746556E+02  0.60937634953E+02 -0.24954438374E+02  0.71693381013E+02  0.00000000000E+00 0.  1.
</event>
<event>
 7    1  0.2412631E-010  0.3617447E+03  0.7561462E-02  0.1057895E+00
         -1   -1    0    0    0  501 -0.00000000000E+00  0.00000000000E+00  0.22205314010E+03  0.22205314010E+03  0.00000000000E+00 0.  1.
          1   -1    0    0  501    0  0.00000000000E+00 -0.00000000000E+00 -0.67944343755E+03  0.67944343755E+03  0.00000000000E+00 0. -1.
         25    2    1    2    0    0 -0.35831840054E+03  0.79057041562E+01 -0.35125180705E+03  0.51719128996E+03  0.12511763315E+03 0.  0.
          5    1    3    3  502    0 -0.26567076230E+03 -0.60203146323E+01 -0.17703601702E+03  0.31933747329E+03  0.41800000000E+01 0.  1.
         -5    1    3    3    0  502 -0.92647638246E+02  0.13926018789E+02 -0.17421579003E+03  0.19785381667E+03  0.41800000000E+01 0.  1.
        -11    1    1    2    0    0  0.22158130868E+03  0.25877571649E+02 -0.96691349958E+02  0.24314016992E+03  0.00000000000E+00 0. -1.
         11    1    1    2    0    0  0.13673709186E+03 -0.33783275805E+02 -0.94471404469E+01  0.14116511778E+03  0.00000000000E+00 0.  1.
</event>
<event>
 7    1  0.2412631E-010  0.1380532E+03  0.7561462E-02  0.1215973E+00
          1   -1    0    0  501    0  0.00000000000E+00  0.00000000000E+00  0.34301007743E+03  0.34301007743E+03  0.00000000000E+00 0. -1.
         -1   -1    0    0    0  501 -0.00000000000E+00 -0.00000000000E+00 -0.96154522162E+02  0.96154522162E+02  0.00000000000E+00 0.  1.
         25    2    1    2    0    0 -0.86237319246E+02 -0.97294672773E+02  0.52096746572E+02  0.18776601242E+03  0.12505549103E+03 0.  0.
          5    1    3    3  502    0 -0.63167488066E+02 -0.88901820226E+02  0.90646226832E+02  0.14187274589E+03  0.41800000000E+01 0.  1.
         -5    1    3    3    0  502 -0.23069831180E+02 -0.83928525475E+01 -0.38549480260E+02  0.45893266531E+02  0.41800000000E+01 0.  1.
        -11    1    1    2    0    0 -0.20518761190E+01  0.32468319998E+02  0.10456795528E+03  0.10951191383E+03  0.00000000000E+00 0. -1.
         11    1    1    2    0    0  0.88289195365E+02  0.64826352775E+02  0.90190853421E+02  0.14188667335E+03  0.00000000000E+00 0.  1.
</event>
<event>
 6    1  0.2412631E-010  0.1125526E+03  0.7561462E-02  0.1255915E+00
         -1   -1    0    0    0  501 -0.00000000000E+00  0.00000000000E+00  0.28887221370E+02  0.28887221370E+02  0.00000000000E+00 0.  1.
          1   -1    0    0  501    0  0.00000000000E+00 -0.00000000000E+00 -0.81555899271E+03  0.81555899271E+03  0.00000000000E+00 0. -1.
          5    1    1    2  502    0  0.46214235130E+02  0.30870213084E+02 -0.31441148235E+03  0.31931297847E+03  0.41800000000E+01 0. -1.
         -5    1    1    2    0  502  0.86275877827E+00  0.63481642124E+02 -0.52673010149E+02  0.82598920317E+02  0.41800000000E+01 0. -1.
        -11    1    1    2    0    0 -0.30895311218E+02 -0.69927522818E+02 -0.40012053181E+03  0.40735834185E+03  0.00000000000E+00 0. -1.
         11    1    1    2    0    0 -0.16181682691E+02 -0.24424332390E+02 -0.19466747031E+02  0.35175973439E+02  0.00000000000E+00 0.  1.
</event>
<event>
 6    1  0.2412631E-010  0.6692799E+02  0.7561462E-02  0.1370863E+00
         -1   -1    0    0    0  501 -0.00000000000E+00  0.00000000000E+00  0.21592371393E+02  0.21592371393E+02  0.00000000000E+00 0.  1.
          1   -1    0    0  501    0  0.00000000000E+00 -0.00000000000E+00 -0.61318432387E+03  0.61318432387E+03  0.00000000000E+00 0. -1.
          5    1    1    2  502    0  0.76643885483E+01  0.25493905784E+01 -0.33496377558E+03  0.33508722087E+03  0.41800000000E+01 0.  1.
         -5    1    1    2    0  502  0.27828054831E+02  0.10437017791E+02 -0.66646558177E+01  0.30744463131E+02  0.41800000000E+01 0.  1.
        -11    1    1    2    0    0  0.15567428271E+01  0.34490563561E+02 -0.13274625737E+03  0.13716264531E+03  0.00000000000E+00 0. -1.
         11    1    1    2    0    0 -0.37049186206E+02 -0.47476971930E+02 -0.11721726371E+03  0.13178236595E+03  0.00000000000E+00 0.  1.
</event>
<event>
 7    1  0.2412631E-010  0.1261190E+03  0.7561462E-02  0.1233331E+00
          4   -1    0    0  501    0  0.00000000000E+00  0.00000000000E+00  0.17375038461E+04  0.17375038461E+04  0.00000000000E+00 0.  1.
         -4   -1    0    0    0  501 -0.00000000000E+00 -0.00000000000E+00 -0.19625398788E+02  0.19625398788E+02  0.00000000000E+00 0. -1.
         25    2    1    2    0    0 -0.80977943159E+02  0.59691613555E+02  0.14294215268E+04  0.14384094443E+04  0.12512119040E+03 0.  0.
          5    1    3    3  502    0 -0.71441255992E+02  0.86744564667E+02  0.75137830109E+03  0.75974686331E+03  0.41800000000E+01 0.  1.
         -5    1    3    3    0  502 -0.95366871665E+01 -0.27052951112E+02  0.67804322569E+03  0.67866258101E+03  0.41800000000E+01 0.  1.
        -11    1    1    2    0    0  0.74498026050E+02 -0.29844219295E+02  0.27287559149E+03  0.28443227971E+03  0.00000000000E+00 0.  1.
         11    1    1    2    0    0  0.64799171091E+01 -0.29847394260E+02  0.15581328995E+02  0.34287520808E+02  0.00000000000E+00 0. -1.
</event>
<event>
 7    1  0.2412631E-010  0.2031968E+03  0.7561462E-02  0.1147070E+00
          1   -1    0    0  501    0  0.00000000000E+00  0.00000000000E+00  0.75790024390E+03  0.75790024390E+03  0.00000000000E+00 0. -1.
         -1   -1    0    0    0  501 -0.00000000000E+00 -0.00000000000E+00 -0.71124352284E+02  0.71124352284E+02  0.00000000000E+00 0.  1.
         25    2    1    2    0    0 -0.14180601717E+03 -0.12258342583E+03  0.20757017932E+03  0.30639863757E+03  0.12513633751E+03 0.  0.
          5    1    3    3  502    0 -0.26292412673E+02 -0.89258830126E+02  0.14077858668E+03  0.16880317706E+03  0.41800000000E+01 0.  1.
         -5    1    3    3    0  502 -0.11551360450E+03 -0.33324595706E+02  0.66791592639E+02  0.13759546050E+03  0.41800000000E+01 0.  1.
        -11    1    1    2    0    0  0.54004208066E+02  0.19201077096E+02  0.64420484174E+02  0.86227226742E+02  0.00000000000E+00 0. -1.
         11    1    1    2    0    0  0.87801809108E+02  0.10338234874E+03  0.41478522812E+03  0.43639873188E+03  0.00000000000E+00 0.  1.
</event>
<event>
 7    1  0.2412631E-010  0.9791892E+02  0.7561462E-02  0.1284734E+00
         -1   -1    0    0    0  501 -0.00000000000E+00  0.00000000000E+00  0.41254632281E+02  0.41254632281E+02  0.00000000000E+00 0.  1.
          1   -1    0    0  501    0  0.00000000000E+00 -0.00000000000E+00 -0.35038521743E+03  0.35038521743E+03  0.00000000000E+00 0. -1.
         25    2    1    2    0    0 -0.26559481271E+00  0.44781403184E+02 -0.22913127478E+03  0.26485524320E+03  0.12506683876E+03 0.  0.
          5    1    3    3  502    0 -0.58617138694E+02  0.11011352796E+02 -0.14581537245E+03  0.15759699896E+03  0.41800000000E+01 0.  1.
         -5    1    3    3    0  502  0.58351543881E+02  0.33770050388E+02 -0.83315902333E+02  0.10725824424E+03  0.41800000000E+01 0.  1.
        -11    1    1    2    0    0 -0.21206227069E+02 -0.41735292723E+02 -0.91098147016E+02  0.10242270800E+03  0.00000000000E+00 0. -1.
         11    1    1    2    0    0  0.21471821882E+02 -0.30461104606E+01  0.11098836647E+02  0.24361898505E+02  0.00000000000E+00 0.  1.
</event>
<event>
 6    1  0.2412631E-010  0.1347716E+03  0.7561462E-02  0.1220543E+00
         -2   -1    0    0    0  501 -0.00000000000E+00  0.00000000000E+00  0.38083654212E+02  0.38083654212E+02  0.00000000000E+00 0.  1.
          2   -1    0    0  501    0  0.00000000000E+00 -0.00000000000E+00 -0.51158290227E+03  0.51158290227E+03  0.00000000000E+00 0. -1.
          5    1    1    2  502    0  0.13339108317E+02 -0.37019191478E+02 -0.60905517657E+02  0.72631307502E+02  0.41800000000E+01 0. -1.
         -5    1    1    2    0  502 -0.90467258517E+02  0.75447186748E+02 -0.25150633169E+03  0.27775800642E+03  0.41800000000E+01 0. -1.
        -11    1    1    2    0    0  0.65690035580E+02  0.62442678338E+01 -0.64633365749E+02  0.92366896794E+02  0.00000000000E+00 0.  1.
         11    1    1    2    0    0  0.11438114620E+02 -0.44672263104E+02 -0.96454032968E+02  0.10691034577E+03  0.00000000000E+00 0. -1.
</event>
<event>
 6    1  0.2412631E-010  0.1033581E+03  0.7561462E-02  0.1273389E+00
         -2   -1    0    0    0  501 -0.00000000000E+00  0.00000000000E+00  0.41339945534E+02  0.41339945534E+02  0.00000000000E+00 0.  1.
          2   -1    0    0  501    0  0.00000000000E+00 -0.00000000000E+00 -0.32550776899E+03  0.32550776899E+03  0.00000000000E+00 0. -1.
          5    1    1    2  502    0 -0.67945377646E+02  0.46195347042E+01 -0.10019882678E+03  0.12122372594E+03  0.41800000000E+01 0.  1.
         -5    1    1    2    0  502  0.49935362791E+02 -0.34563182389E+02 -0.96642622990E+02  0.11421656190E+03  0.41800000000E+01 0.  1.
        -11    1    1    2    0    0 -0.25168024072E+02  0.22576053664E+02 -0.80192206791E+02  0.87028142947E+02  0.00000000000E+00 0. -1.
         11    1    1    2    0    0  0.43178038927E+02  0.73675940207E+01 -0.71341668978E+01  0.44379283732E+02  0.00000000000E+00 0.  1.
</event>
<event>
 7    1  0.2412631E-010  0.8260171E+02  0.7561462E-02  0.1321826E+00
          2   -1    0    0  501    0  0.00000000000E+00  0.00000000000E+00  0.18462328977E+03  0.18462328977E+03  0.00000000000E+00 0.  1.
         -2   -1    0    0    0  501 -0.00000000000E+00 -0.00000000000E+00 -0.81505565323E+02  0.81505565323E+02  0.00000000000E+00 0. -1.
         25    2    1    2    0    0  0.39031165165E+02  0.18070058609E+02  0.72334081542E+02  0.15074600027E+03  0.12506869462E+03 0.  0.
          5    1    3    3  502    0  0.39650969282E+02  0.58832911404E+02  0.41467775882E+01  0.71191144068E+02  0.41800000000E+01 0. -1.
         -5    1    3    3    0  502 -0.61980411793E+00 -0.40762852795E+02  0.68187303954E+02  0.79554856204E+02  0.41800000000E+01 0. -1.
        -11    1    1    2    0    0 -0.81737568508E+01 -0.20628216815E+02  0.65327684522E+02  0.68993043091E+02  0.00000000000E+00 0.  1.
         11    1    1    2    0    0 -0.30857408314E+02  0.25581582063E+01 -0.34544041616E+02  0.46389811731E+02  0.00000000000E+00 0. -1.
</event>
<event>
 6    1  0.2412631E-010  0.1682195E+03  0.7561462E-02  0.1179717E+00
          1   -1    0    0  501    0  0.00000000000E+00  0.00000000000E+00  0.14808797242E+04  0.14808797242E+04  0.00000000000E+00 0. -1.
         -1   -1    0    0    0  501 -0.00000000000E+00 -0.00000000000E+00 -0.32276634871E+02  0.32276634871E+02  0.00000000000E+00 0.  1.
          5    1    1    2  502    0 -0.28710734242E+02 -0.71274267688E+02  0.72108870385E+03  0.72518323113E+03  0.41800000000E+01 0.  1.
         -5    1    1    2    0  502  0.73707889751E+02 -0.75627458272E+02  0.42816964780E+03  0.44102050424E+03  0.41800000000E+01 0.  1.
        -11    1    1    2    0    0 -0.27782492873E+02  0.78791097410E+02  0.76437492893E+02  0.11323689443E+03  0.00000000000E+00 0.  1.
         11    1    1    2    0    0 -0.17214662636E+02  0.68110628550E+02  0.22290724477E+03  0.23371572926E+03  0.00000000000E+00 0. -1.
</event>
<event>
 6    1  0.2412631E-010  0.1447063E+03  0.7561462E-02  0.1207133E+00
          2   -1    0    0  501    0  0.00000000000E+00  0.00000000000E+00  0.51810208038E+03  0.51810208038E+03  0.00000000000E+00 0. -1.
         -2   -1    0    0    0  501 -0.00000000000E+00 -0.00000000000E+00 -0.72867405469E+02  0.72867405469E+02  0.00000000000E+00 0.  1.
          5    1    1    2  502    0 -0.96256298409E+02 -0.14500744261E+02  0.23177547706E+03  0.25142173878E+03  0.41800000000E+01 0. -1.
         -5    1    1    2    0  502  0.23412662930E+02 -0.59965772004E+02  0.18574968971E+03  0.19663282083E+03  0.41800000000E+01 0. -1.
        -11    1    1    2    0    0  0.55140701303E+02  0.45278609337E+01  0.41882938805E+02  0.69391491033E+02  0.00000000000E+00 0. -1.
         11    1    1    2    0    0  0.17702934175E+02  0.69938655331E+02 -0.14173430663E+02  0.73523435207E+02  0.00000000000E+00 0.  1.
</event>
<event>
 6    1  0.2412631E-010  0.1173840E+03  0.7561462E-02  0.1247476E+00
         -1   -1    0    0    0  501 -0.00000000000E+00  0.00000000000E+00  0.21199960459E+02  0.21199960459E+02  0.00000000000E+00 0.  1.
          1   -1    0    0  501    0  0.00000000000E+00 -0.00000000000E+00 -0.12938581654E+04  0.12938581654E+04  0.00000000000E+00 0. -1.
          5    1    1    2  502    0  0.89141429604E+02 -0.57753979190E+01 -0.99836752282E+03  0.10023645708E+04  0.41800000000E+01 0. -1.
         -5    1    1    2    0  502 -0.16350977248E+02  0.26479704165E+02 -0.81416774656E+02  0.87262207083E+02  0.41800000000E+01 0. -1.
        -11    1    1    2    0    0  0.19624485056E+02 -0.32197931488E+01 -0.17785496307E+02  0.26679793113E+02  0.00000000000E+00 0.  1.
         11    1    1    2    0    0 -0.92414937412E+02 -0.17484513097E+02 -0.17508841116E+03  0.19875155491E+03  0.00000000000E+00 0. -1.
</event>
<event>
 7    1  0.2412631E-010  0.1538023E+03  0.7561462E-02  0.1195877E+00
         -3   -1    0    0    0  501 -0.00000000000E+00  0.00000000000E+00  0.12676213098E+03  0.12676213098E+03  0.00000000000E+00 0.  1.
          3   -1    0    0  501    0  0.00000000000E+00 -0.00000000000E+00 -0.24831978557E+03  0.24831978557E+03  0.00000000000E+00 0. -1.
         25    2    1    2    0    0 -0.10436568226E+03  0.42205226850E+02  0.24451551253E+02  0.17007087996E+03  0.12511094694E+03 0.  0.
          5    1    3    3  502    0  0.46023934712E+01  0.56122572574E+02  0.20484031794E+02  0.60066572538E+02  0.41800000000E+01 0.  1.
         -5    1    3    3    0  502 -0.10896807573E+03 -0.13917345724E+02  0.39675194594E+01  0.11000430742E+03  0.41800000000E+01 0.  1.
        -11    1    1    2    0    0  0.63821002082E+02  0.20063800057E+02 -0.89079438806E+02  0.11140387245E+03  0.00000000000E+00 0. -1.
         11    1    1    2    0    0  0.40544680175E+02 -0.62269026906E+02 -0.56929767039E+02  0.93607164135E+02  0.00000000000E+00 0.  1.
</event>
<event>
 7    1  0.2412631E-010  0.1507876E+03  0.7561462E-02  0.1199508E+00
          4   -1    0    0  501    0  0.00000000000E+00  0.00000000000E+00  0.27399263911E+03  0.27399263911E+03  0.00000000000E+00 0.  1.
         -4   -1    0    0    0  501 -0.00000000000E+00 -0.00000000000E+00 -0.10377201709E+03  0.10377201709E+03  0.00000000000E+00 0. -1.
         25    2    1    2    0    0 -0.11934735893E+03  0.43998911138E+02  0.72850559636E+02  0.19274234806E+03  0.12515075882E+03 0.  0.
          5    1    3    3  502    0 -0.10696113695E+03  0.35782185283E+01  0.96463072162E+02  0.14413911737E+03  0.41800000000E+01 0. -1.
         -5    1    3    3    0  502 -0.12386221979E+02  0.40420692610E+02 -0.23612512526E+02  0.48603230693E+02  0.41800000000E+01 0. -1.
        -11    1    1    2    0    0  0.45803582138E+02  0.24102855672E+02  0.56924942542E+02  0.76937408792E+02  0.00000000000E+00 0. -1.
         11    1    1    2    0    0  0.73543776793E+02 -0.68101766811E+02  0.40445119839E+02  0.10808489935E+03  0.00000000000E+00 0.  1.
</event>
<event>
 7    1  0.2412631E-010  0.8953171E+02  0.7561462E-02  0.1303990E+00
          2   -1    0    0  501    0  0.00000000000E+00  0.00000000000E+00  0.35878362536E+03  0.35878362536E+03  0.00000000000E+00 0. -1.
         -2   -1    0    0    0  501 -0.00000000000E+00 -0.00000000000E+00 -0.33340452804E+02  0.33340452804E+02  0.00000000000E+00 0.  1.
         25    2    1    2    0    0  0.23199051766E+01  0.98707809930E+01  0.19344136593E+03  0.23057072977E+03  0.12506192506E+03 0.  0.
          5    1    3    3  502    0  0.57995069498E+02 -0.20793890462E+02  0.93069586717E+02  0.11169258856E+03  0.41800000000E+01 0. -1.
         -5    1    3    3    0  502 -0.55675164321E+02  0.30664671455E+02  0.10037177921E+03  0.11887814122E+03  0.41800000000E+01 0. -1.
        -11    1    1    2    0    0 -0.19271920169E+01 -0.31710851831E+02  0.13572600037E+03  0.13939454569E+03  0.00000000000E+00 0. -1.
         11    1    1    2    0    0 -0.39271315971E+00  0.21840070837E+02 -0.37241937431E+01  0.22158802694E+02  0.00000000000E+00 0.  1.
</event>
<event>
 7    1  0.2412631E-010  0.1341196E+03  0.7561462E-02  0.1221468E+00
          1   -1    0    0  501    0  0.00000000000E+00  0.00000000000E+00  0.11501412264E+04  0.11501412264E+04  0.00000000000E+00 0. -1.
         -1   -1    0    0    0  501 -0.00000000000E+00 -0.00000000000E+00 -0.16494640630E+02  0.16494640630E+02  0.00000000000E+00 0.  1.
         25    2    1    2    0    0  0.64318778483E+02  0.55911003548E+02  0.69575939558E+03  0.71204044037E+03  0.12512995882E+03 0.  0.
          5    1    3    3  502    0  0.90554028006E+02  0.71601927983E+02  0.46056906148E+03  0.47483491960E+03  0.41800000000E+01 0.  1.
         -5    1    3    3    0  502 -0.26235249523E+02 -0.15690924436E+02  0.23519033410E+03  0.23720552076E+03  0.41800000000E+01 0.  1.
        -11    1    1    2    0    0  0.20486708868E+02 -0.23254841846E+02  0.12436898138E+03  0.12817229201E+03  0.00000000000E+00 0. -1.
         11    1    1    2    0    0 -0.84805487351E+02 -0.32656161701E+02  0.31351820879E+03  0.32642313464E+03  0.00000000000E+00 0.  1.
</event>
<event>
 6    1  0.2412631E-010  0.7966133E+02  0.7561462E-02  0.1330015E+00
         -1   -1    0    0    0  501 -0.00000000000E+00  0.00000000000E+00  0.13437504558E+02  0.13437504558E+02  0.00000000000E+00 0.  1.
          1   -1    0    0  501    0  0.00000000000E+00 -0.00000000000E+00 -0.95549198195E+03  0.95549198195E+03  0.00000000000E+00 0. -1.
          5    1    1    2  502    0 -0.18523014082E+02  0.33542341465E+02 -0.65080280846E+02  0.75637993605E+02  0.41800000000E+01 0. -1.
         -5    1    1    2    0  502  0.14659824508E+02 -0.36277724521E+02 -0.59226534700E+03  0.59357113930E+03  0.41800000000E+01 0. -1.
        -11    1    1    2    0    0  0.42585184169E+02  0.31758297989E+01 -0.73618444227E+02  0.85107338908E+02  0.00000000000E+00 0.  1.
         11    1    1    2    0    0 -0.38721994595E+02 -0.44044674270E+00 -0.21109040532E+03  0.21461301470E+03  0.00000000000E+00 0. -1.
</event>
<event>
 6    1  0.2412631E-010  0.1184813E+03  0.7561462E-02  0.1245624E+00
         -3   -1    0    0    0  501 -0.00000000000E+00  0.00000000000E+00  0.39170054584E+02  0.39170054584E+02  0.00000000000E+00 0.  1.
          3   -1    0    0  501    0  0.00000000000E+00 -0.00000000000E+00 -0.64945238998E+03  0.64945238998E+03  0.00000000000E+00 0. -1.
          5    1    1    2  502    0  0.64501093437E+02 -0.35592701448E+02 -0.30613776848E+03  0.31490480648E+03  0.41800000000E+01 0.  1.
         -5    1    1    2    0  502 -0.16863789108E+02  0.59374091803E+02 -0.21818182518E+03  0.22678282871E+03  0.41800000000E+01 0.  1.
        -11    1    1    2    0    0  0.42600620757E+01  0.27808872658E+02  0.66424299634E+01  0.28906805482E+02  0.00000000000E+00 0.  1.
         11    1    1    2    0    0 -0.51897366405E+02 -0.51590263013E+02 -0.92605171697E+02  0.11802800389E+03  0.00000000000E+00 0. -1.
</event>
<event>
 6    1  0.2412631E-010  0.1124071E+03  0.7561462E-02  0.1256176E+00
          1   -1    0    0  501    0  0.00000000000E+00  0.00000000000E+00  0.34062629886E+03  0.34062629886E+03  0.00000000000E+00 0. -1.
         -1   -1    0    0    0  501 -0.00000000000E+00 -0.00000000000E+00 -0.53274718947E+02  0.53274718947E+02  0.00000000000E+00 0.  1.
          5    1    1    2  502    0 -0.96022853458E+01  0.29837676574E+02  0.52325778427E+00  0.31626524088E+02  0.41800000000E+01 0.  1.
         -5    1    1    2    0  502  0.84684259823E+02 -0.20196369643E+02  0.18532599777E+03  0.20479871840E+03  0.41800000000E+01 0.  1.
        -11    1    1    2    0    0 -0.80474888892E+02 -0.29303502521E+02  0.10632177097E+03  0.13652553602E+03  0.00000000000E+00 0. -1.
         11    1    1    2    0    0  0.53929144147E+01  0.19662195591E+02 -0.48194466095E+01  0.20950239305E+02  0.00000000000E+00 0.  1.
</event>
<event>
 7    1  0.2412631E-010  0.7868750E+02  0.7561462E-02  0.1332818E+00
         -2   -1    0    0    0  501 -0.00000000000E+00  0.00000000000E+00  0.17811871068E+03  0.17811871068E+03  0.00000000000E+00 0. -1.
          2   -1    0    0  501    0  0.00000000000E+00 -0.00000000000E+00 -0.67278722446E+02  0.67278722446E+02  0.00000000000E+00 0.  1.
         25    2    1    2    0    0 -0.75153319511E+01  0.62510381511E+01  0.54999303327E+02  0.13703768959E+03  0.12513532399E+03 0.  0.
          5    1    3    3  502    0  0.31782679811E+02 -0.25651112647E+01 -0.29308383130E+02  0.43510599323E+02  0.41800000000E+01 0.  1.
         -5    1    3    3    0  502 -0.39298011762E+02  0.88161494158E+01  0.84307686457E+02  0.93527090272E+02  0.41800000000E+01 0.  1.
        -11    1    1    2    0    0 -0.38451004258E+02 -0.10492116643E+01  0.47884625212E+02  0.61420826316E+02  0.00000000000E+00 0. -1.
         11    1    1    2    0    0  0.45966336209E+02 -0.52018264868E+01  0.79560596911E+01  0.46938917212E+02  0.00000000000E+00 0.  1.
</event>
<event>
 7    1  0.2412631E-010  0.1792201E+03  0.7561462E-02  0.1168560E+00
         -1   -1    0    0    0  501 -0.00000000000E+00  0.00000000000E+00  0.10029551985E+03  0.10029551985E+03  0.00000000000E+00 0.  1.
          1   -1    0    0  501    0  0.00000000000E+00 -0.00000000000E+00 -0.36979393081E+03  0.36979393081E+03  0.00000000000E+00 0. -1.
         25    2    1    2    0    0  0.76302121981E+02  0.13373759324E+03 -0.19292896865E+03  0.27671179173E+03  0.12506026977E+03 0.  0.
          5    1    3    3  502    0  0.61979901770E+02 -0.16009422995E+01 -0.63719248684E+02  0.89003855492E+02  0.41800000000E+01 0.  1.
         -5    1    3    3    0  502  0.14322220211E+02  0.13533853554E+03 -0.12920971996E+03  0.18770793624E+03  0.41800000000E+01 0.  1.
        -11    1    1    2    0    0 -0.36533366338E+02 -0.24759880983E+02  0.13893071759E+02  0.46268304542E+02  0.00000000000E+00 0.  1.
         11    1    1    2    0    0 -0.39768755643E+02 -0.10897771226E+03 -0.90462514074E+02  0.14710935438E+03  0.00000000000E+00 0. -1.
</event>
<event>
 7    1  0.2412631E-010  0.1428420E+03  0.7561462E-02  0.1209555E+00
         -2   -1    0    0    0  501 -0.00000000000E+00  0.00000000000E+00  0.66432164288E+02  0.66432164288E+02  0.00000000000E+00 0.  1.
          2   -1    0    0  501    0  0.00000000000E+00 -0.00000000000E+00 -0.32570059244E+03  0.32570059244E+03  0.00000000000E+00 0. -1.
         25    2    1    2    0    0  0.92290129645E+02 -0.30560228733E+02 -0.12145334309E+03  0.19964987827E+03  0.12513098631E+03 0.  0.
          5    1    3    3  502    0 -0.53844899711E+00  0.40579825641E+02 -0.23816639224E+02  0.47241050796E+02  0.41800000000E+01 0. -1.
         -5    1    3    3    0  502  0.92828578643E+02 -0.71140054374E+02 -0.97636703869E+02  0.15240882747E+03  0.41800000000E+01 0. -1.
        -11    1    1    2    0    0  0.88300764569E+01 -0.14638990363E+02 -0.44434542445E+02  0.47609860863E+02  0.00000000000E+00 0. -1.
         11    1    1    2    0    0 -0.10112020610E+03  0.45199219096E+02 -0.93380542616E+02  0.14487301760E+03  0.00000000000E+00 0.  1.
</event>
<event>
 7    1  0.2412631E-010  0.1214359E+03  0.7561462E-02  0.1240747E+00
          1   -1    0    0  501    0  0.00000000000E+00  0.00000000000E+00  0.54289045778E+02  0.54289045778E+02  0.00000000000E+00 0. -1.
         -1   -1    0    0    0  501 -0.00000000000E+00 -0.00000000000E+00 -0.40129269866E+03  0.40129269866E+03  0.00000000000E+00 0.  1.
         25    2    1    2    0    0 -0.36868005174E+02  0.39732034628E+02 -0.31051964588E+03  0.33911927451E+03  0.12506617243E+03 0.  0.
          5    1    3    3  502    0 -0.68435194988E+02  0.63461358142E+02 -0.18160697109E+03  0.20422850985E+03  0.41800000000E+01 0. -1.
         -5    1    3    3    0  502  0.31567189814E+02 -0.23729323514E+02 -0.12891267480E+03  0.13489076466E+03  0.41800000000E+01 0. -1.
        -11    1    1    2    0    0  0.44957407954E+02  0.20180322650E+02 -0.91801258542E+01  0.50126726034E+02  0.00000000000E+00 0.  1.
         11    1    1    2    0    0 -0.80894027799E+01 -0.59912357278E+02 -0.27303881145E+02  0.66335743891E+02  0.00000000000E+00 0. -1.
</event>
<event>
 7    1  0.2412631E-010  0.1472567E+03  0.7561462E-02  0.1203885E+00
         -3   -1    0    0    0  501 -0.00000000000E+00  0.00000000000E+00  0.40981169278E+02  0.40981169278E+02  0.00000000000E+00 0.  1.
          3   -1    0    0  501    0  0.00000000000E+00 -0.00000000000E+00 -0.85228483070E+03  0.85228483070E+03  0.00000000000E+00 0. -1.
         25    2    1    2    0    0 -0.91749590351E+02  0.66668312823E+02 -0.66696614950E+03  0.68800335980E+03  0.12506849024E+03 0.  0.
          5    1    3    3  502    0 -0.10139368638E+03  0.15061348835E+00 -0.39712839010E+03  0.40988917154E+03  0.41800000000E+01 0. -1.
         -5    1    3    3    0  502  0.96440960290E+01  0.66517699335E+02 -0.26983775939E+03  0.27811418825E+03  0.41800000000E+01 0. -1.
        -11    1    1    2    0    0  0.86151325255E+02 -0.34116150409E+02 -0.14517054310E+03  0.17222209250E+03  0.00000000000E+00 0. -1.
         11    1    1    2    0    0  0.55982650967E+01 -0.32552162414E+02  0.83303117692E+00  0.33040547678E+02  0.00000000000E+00 0.  1.
</event>
<event>
 6    1  0.2412631E-010  0.9985598E+02  0.7561462E-02  0.1280599E+00
          4   -1    0    0  501    0  0.00000000000E+00  0.00000000000E+00  0.44447202716E+03  0.44447202716E+03  0.00000000000E+00 0. -1.
         -4   -1    0    0    0  501 -0.00000000000E+00 -0.00000000000E+00 -0.31735275987E+02  0.31735275987E+02  0.00000000000E+00 0.  1.
          5    1    1    2  502    0 -0.69144227284E+02 -0.15065416561E+02  0.25665676617E+03  0.26626689423E+03  0.41800000000E+01 0.  1.
         -5    1    1    2    0  502  0.25817944643E+02  0.23507377767E+02  0.20799457384E+02  0.40856491559E+02  0.41800000000E+01 0.  1.
        -11    1    1    2    0    0  0.90659594212E+01  0.36236943953E+02  0.24081146409E+02  0.44443327279E+02  0.00000000000E+00 0.  1.
         11    1    1    2    0    0  0.34260323219E+02 -0.44678905158E+02  0.11119938120E+03  0.12464059007E+03  0.00000000000E+00 0. -1.
</event>
<event>
 7    1  0.2412631E-010  0.6914833E+02  0.7561462E-02  0.1363013E+00
          1   -1    0    0  501    0  0.00000000000E+00  0.00000000000E+00  0.12348157109E+03  0.12348157109E+03  0.00000000000E+00 0. -1.
         -1   -1    0    0    0  501 -0.00000000000E+00 -0.00000000000E+00 -0.11609388491E+03  0.11609388491E+03  0.00000000000E+00 0.  1.
         25    2    1    2    0    0  0.15519693062E+02  0.33075963209E+02  0.34825827564E+02  0.13492247601E+03  0.12512536135E+03 0.  0.
          5    1    3    3  502    0  0.30880465692E+02  0.20846568473E+02 -0.41542835361E+02  0.55959468799E+02  0.41800000000E+01 0.  1.
         -5    1    3    3    0  502 -0.15360772629E+02  0.12229394736E+02  0.76368662924E+02  0.78963007213E+02  0.41800000000E+01 0.  1.
        -11    1    1    2    0    0  0.15351196290E+02 -0.45068846265E+02 -0.46407141173E+02  0.66486712079E+02  0.00000000000E+00 0.  1.
         11    1    1    2    0    0 -0.30870889353E+02  0.11992883057E+02  0.18968999781E+02  0.38166267910E+02  0.00000000000E+00 0. -1.
</event>
<event>
 6    1  0.2412631E-010  0.1012133E+03  0.7561462E-02  0.1277765E+00
          1   -1    0    0  501    0  0.00000000000E+00  0.00000000000E+00  0.33767234709E+03  0.33767234709E+03  0.00000000000E+00 0. -1.
         -1   -1    0    0    0  501 -0.00000000000E+00 -0.00000000000E+00 -0.44344127455E+02  0.44344127455E+02  0.00000000000E+00 0.  1.
          5    1    1    2  502    0 -0.59101504121E+02 -0.65467715682E+02  0.11363164148E+03  0.14390494061E+03  0.41800000000E+01 0. -1.
         -5    1    1    2    0  502  0.11462368757E+02  0.43865621451E+02  0.80030641381E+02  0.92075808998E+02  0.41800000000E+01 0. -1.
        -11    1    1    2    0    0  0.25952387708E+02  0.34648058059E+02  0.85931750210E-01  0.43289972733E+02  0.00000000000E+00 0.  1.
         11    1    1    2    0    0  0.21686747655E+02 -0.13045963827E+02  0.99580005023E+02  0.10274575221E+03  0.00000000000E+00 0. -1.
</event>
<event>
 7    1  0.2412631E-010  0.2139282E+03  0.7561462E-02  0.1138493E+00
          2   -1    0    0  501    0  0.00000000000E+00  0.00000000000E+00  0.13328590742E+04  0.13328590742E+04  0.00000000000E+00 0. -1.
         -2   -1    0    0    0  501 -0.00000000000E+00 -0.00000000000E+00 -0.46433812015E+02  0.46433812015E+02  0.00000000000E+00 0.  1.
         25    2    1    2    0    0  0.75983568808E+02  0.17976818098E+03  0.96325911465E+03  0.99075532681E+03  0.12505156552E+03 0.  0.
          5    1    3    3  502    0  0.97761473021E+02  0.71549538877E+02  0.51895351420E+03  0.53292294417E+03  0.41800000000E+01 0. -1.
         -5    1    3    3    0  502 -0.21777904214E+02  0.10821864210E+03  0.44430560044E+03  0.45783238264E+03  0.41800000000E+01 0. -1.
        -11    1    1    2    0    0 -0.12830278576E+02 -0.53140244193E+02  0.28485335603E+02  0.61643458255E+02  0.00000000000E+00 0.  1.
         11    1    1    2    0    0 -0.63153290231E+02 -0.12662793678E+03  0.29468081193E+03  0.32689410115E+03  0.00000000000E+00 0. -1.
</event>
<event>
 7    1  0.2412631E-010  0.8625324E+02  0.7561462E-02  0.1312187E+00
         -1   -1    0    0    0  501 -0.00000000000E+00  0.00000000000E+00  0.16185087220E+03  0.16185087220E+03  0.00000000000E+00 0.  1.
          1   -1    0    0  501    0  0.00000000000E+00 -0.00000000000E+00 -0.77819561751E+02  0.77819561751E+02  0.00000000000E+00 0. -1.
         25    2    1    2    0    0 -0.40972853402E+02  0.85383376479E+01  0.28673309475E+02  0.13495822751E+03  0.12505953211E+03 0.  0.
          5    1    3    3  502    0  0.39524825523E+02 -0.12644413441E+02 -0.10287678058E+02  0.42958139435E+02  0.41800000000E+01 0. -1.
         -5    1    3    3    0  502 -0.80497678925E+02  0.21182751089E+02  0.38960987534E+02  0.92000088074E+02  0.41800000000E+01 0. -1.
        -11    1    1    2    0    0  0.32750802886E+02 -0.15911639324E+02 -0.10531215096E+02  0.37903850029E+02  0.00000000000E+00 0. -1.
         11    1    1    2    0    0  0.82220505158E+01  0.73733016757E+01  0.65889216073E+02  0.66808356416E+02  0.00000000000E+00 0.  1.
</event>
<event>
 6    1  0.2412631E-010  0.9842324E+02  0.7561462E-02  0.1283647E+00
          2   -1    0    0  501    0  0.00000000000E+00  0.00000000000E+00  0.17799123630E+02  0.17799123630E+02  0.00000000000E+00 0. -1.
         -2   -1    0    0    0  501 -0.00000000000E+00 -0.00000000000E+00 -0.84157057731E+03  0.84157057731E+03  0.00000000000E+00 0.  1.
          5    1    1    2  502    0 -0.39246528852E+02 -0.42087838396E+01 -0.72390263217E+02  0.82558018974E+02  0.41800000000E+01 0. -1.
         -5    1    1    2    0  502  0.56690079076E+02 -0.30099952759E+02 -0.53122140046E+03  0.53510131837E+03  0.41800000000E+01 0. -1.
        -11    1    1    2    0    0  0.25916522309E+02 -0.12716471727E+02 -0.32606160035E+02  0.43549241715E+02  0.00000000000E+00 0. -1.
         11    1    1    2    0    0 -0.43360072533E+02  0.47025208325E+02 -0.18755362998E+03  0.19816112188E+03  0.00000000000E+00 0.  1.
</event>
<event>
 7    1  0.2412631E-010  0.1142435E+03  0.7561462E-02  0.1252907E+00
          1   -1    0    0  501    0  0.00000000000E+00  0.00000000000E+00  0.89897161127E+02  0.89897161127E+02  0.00000000000E+00 0. -1.
         -1   -1    0    0    0  501 -0.00000000000E+00 -0.00000000000E+00 -0.21836334392E+03  0.21836334392E+03  0.00000000000E+00 0.  1.
         25    2    1    2    0    0  0.55808670763E+01  0.79181947286E+02 -0.67224611013E+02  0.16266644964E+03  0.12506117967E+03 0.  0.
          5    1    3    3  502    0  0.36808515588E+02 -0.21360329954E+02 -0.19582088421E+02  0.47032553646E+02  0.41800000000E+01 0.  1.
         -5    1    3    3    0  502 -0.31227648511E+02  0.10054227724E+03 -0.47642522592E+02  0.11563389600E+03  0.41800000000E+01 0.  1.
        -11    1    1    2    0    0 -0.94605319666E+01 -0.63819326888E+02 -0.91194274908E+02  0.11170856693E+03  0.00000000000E+00 0.  1.
         11    1    1    2    0    0  0.38796648903E+01 -0.15362620397E+02  0.29952703124E+02  0.33885488480E+02  0.00000000000E+00 0. -1.
</event>
<event>
 7    1  0.2412631E-010  0.1385745E+03  0.7561462E-02  0.1215260E+00
         -2   -1    0    0    0  501 -0.00000000000E+00  0.00000000000E+00  0.24413198202E+02  0.24413198202E+02  0.00000000000E+00 0.  1.
          2   -1    0    0  501    0  0.00000000000E+00 -0.00000000000E+00 -0.11308797496E+04  0.11308797496E+04  0.00000000000E+00 0. -1.
         25    2    1    2    0    0 -0.10397861904E+03  0.70528276400E+02 -0.62036642268E+03  0.64520780630E+03  0.12511124621E+03 0.  0.
          5    1    3    3  502    0 -0.36457566381E+02  0.13869655629E+02 -0.33040974819E+02  0.51290349099E+02  0.41800000000E+01 0. -1.
         -5    1    3    3    0  502 -0.67521052656E+02  0.56658620771E+02 -0.58732544786E+03  0.59391745720E+03  0.41800000000E+01 0. -1.
        -11    1    1    2    0    0  0.77765295831E+02 -0.36575490167E+01 -0.18857318518E+03  0.20401143367E+03  0.00000000000E+00 0.  1.
         11    1    1    2    0    0  0.26213323206E+02 -0.66870727383E+02 -0.29752694351E+03  0.30607370780E+03  0.00000000000E+00 0. -1.
</event>
<event>
 7    1  0.2412631E-010  0.1260453E+03  0.7561462E-02  0.1233445E+00
         -1   -1    0    0    0  501 -0.00000000000E+00  0.00000000000E+00  0.15818204473E+03  0.15818204473E+03  0.00000000000E+00 0.  1.
          1   -1    0    0  501    0  0.00000000000E+00 -0.00000000000E+00 -0.21908003261E+03  0.21908003261E+03  0.00000000000E+00 0. -1.
         25    2    1    2    0    0 -0.25872977979E+02  0.91400189578E+02  0.88984354075E+02  0.18053871025E+03  0.12511037121E+03 0.  0.
          5    1    3    3  502    0 -0.65342051334E+02  0.92930289851E+02  0.82101464368E+02  0.14022747696E+03  0.41800000000E+01 0.  1.
         -5    1    3    3    0  502  0.39469073355E+02 -0.15301002728E+01  0.68828897068E+01  0.40311233286E+02  0.41800000000E+01 0.  1.
        -11    1    1    2    0    0  0.31459614321E+02 -0.80816718433E+02 -0.15937868738E+03  0.18144590187E+03  0.00000000000E+00 0. -1.
         11    1    1    2    0    0 -0.55866363418E+01 -0.10583471146E+02  0.94963454264E+01  0.15277465220E+02  0.00000000000E+00 0.  1.
</event>
<event>
 6    1  0.2412631E-010  0.8975444E+02  0.7561462E-02  0.1303447E+00
         -1   -1    0    0    0  501 -0.00000000000E+00  0.00000000000E+00  0.31824070309E+02  0.31824070309E+02  0.00000000000E+00 0.  1.
          1   -1    0    0  501    0  0.00000000000E+00 -0.00000000000E+00 -0.50989513728E+03  0.50989513728E+03  0.00000000000E+00 0. -1.
          5    1    1    2  502    0  0.30583886040E+02 -0.35415464270E+02 -0.68507193040E+02  0.83068267666E+02  0.41800000000E+01 0. -1.
         -5    1    1    2    0  502 -0.40000069447E+02  0.32976934719E+02 -0.35084362257E+03  0.35467760527E+03  0.41800000000E+01 0. -1.
        -11    1    1    2    0    0  0.44925069889E+02 -0.33140645178E-01 -0.14500348492E+02  0.47207235772E+02  0.00000000000E+00 0. -1.
         11    1    1    2    0    0 -0.35508886482E+02  0.24716701961E+01 -0.44219902863E+02  0.56766098879E+02  0.00000000000E+00 0.  1.
</event>
<event>
 6    1  0.2412631E-010  0.1453239E+03  0.7561462E-02  0.1206340E+00
         -2   -1    0    0    0  501 -0.00000000000E+00  0.00000000000E+00  0.38670354222E+02  0.38670354222E+02  0.00000000000E+00 0.  1.
          2   -1    0    0  501    0  0.00000000000E+00 -0.00000000000E+00 -0.63802769256E+03  0.63802769256E+03  0.00000000000E+00 0. -1.
          5    1    1    2  502    0  0.12661288794E+03  0.97755903742E+01 -0.31312645882E+03  0.33792312317E+03  0.41800000000E+01 0. -1.
         -5    1    1    2    0  502 -0.25850835582E+02 -0.15223785663E+02 -0.12742876414E+03  0.13097935594E+03  0.41800000000E+01 0. -1.
        -11    1    1    2    0    0 -0.90180343783E+02  0.38900671026E+02 -0.10711829447E+03  0.14532751158E+03  0.00000000000E+00 0.  1.
         11    1    1    2    0    0 -0.10581708576E+02 -0.33452475738E+02 -0.51683820900E+02  0.62468056094E+02  0.00000000000E+00 0. -1.
</event>
<event>
 7    1  0.2412631E-010  0.9957284E+02  0.7561462E-02  0.1281197E+00
         -1   -1    0    0    0  501 -0.00000000000E+00  0.00000000000E+00  0.39402342587E+03  0.39402342587E+03  0.00000000000E+00 0.  1.
          1   -1    0    0  501    0  0.00000000000E+00 -0.00000000000E+00 -0.42449415093E+02  0.42449415093E+02  0.00000000000E+00 0. -1.
         25    2    1    2    0    0 -0.18842757670E+02  0.57638873228E+02  0.25671067329E+03  0.29194318976E+03  0.12511261743E+03 0.  0.
          5    1    3    3  502    0 -0.65210781040E+02  0.59654623592E+02  0.13295519444E+03  0.15970496613E+03  0.41800000000E+01 0. -1.
         -5    1    3    3    0  502  0.46368023370E+02 -0.20157503646E+01  0.12375547886E+03  0.13223822363E+03  0.41800000000E+01 0. -1.
        -11    1    1    2    0    0  0.18949547444E+02 -0.24719144639E+02  0.10544653211E+03  0.10995040970E+03  0.00000000000E+00 0.  1.
         11    1    1    2    0    0 -0.10678977403E+00 -0.32919728589E+02 -0.10583194623E+02  0.34579241502E+02  0.00000000000E+00 0. -1.
</event>
<event>
 7    1  0.2412631E-010  0.9717868E+02  0.7561462E-02  0.1286343E+00
         -1   -1    0    0    0  501 -0.00000000000E+00  0.00000000000E+00  0.42275581322E+03  0.42275581322E+03  0.00000000000E+00 0.  1.
          1   -1    0    0  501    0  0.00000000000E+00 -0.00000000000E+00 -0.45699199560E+02  0.45699199560E+02  0.00000000000E+00 0. -1.
         25    2    1    2    0    0  0.67996193740E+02 -0.48569774364E+02  0.24359928063E+03  0.28629491753E+03  0.12506664198E+03 0.  0.
          5    1    3    3  502    0  0.22338344507E+02 -0.37998390552E+01  0.21481191775E+03  0.21604414554E+03  0.41800000000E+01 0. -1.
         -5    1    3    3    0  502  0.45657849233E+02 -0.44769935309E+02  0.28787362875E+02  0.70250771992E+02  0.41800000000E+01 0. -1.
        -11    1    1    2    0    0 -0.30182128567E+02  0.60476595513E+02  0.12427520263E+03  0.14146626976E+03  0.00000000000E+00 0.  1.
         11    1    1    2    0    0 -0.37814065173E+02 -0.11906821148E+02  0.91821304020E+01  0.40693825496E+02  0.00000000000E+00 0. -1.
</event>
<event>
 7    1  0.2412631E-010  0.7525587E+02  0.7561462E-02  0.1343081E+00
         -1   -1    0    0    0  501 -0.00000000000E+00  0.00000000000E+00  0.29763493975E+03  0.29763493975E+03  0.00000000000E+00 0.  1.
          1   -1    0    0  501    0  0.00000000000E+00 -0.00000000000E+00 -0.41837392481E+02  0.41837392481E+02  0.00000000000E+00 0. -1.
         25    2    1    2    0    0  0.17615746902E+02  0.18096447838E+02  0.16672966729E+03  0.20998864830E+03  0.12513454559E+03 0.  0.
          5    1    3    3  502    0 -0.21598675959E+02  0.45069161848E+01  0.16677117203E+03  0.16827629458E+03  0.41800000000E+01 0.  1.
         -5    1    3    3    0  502  0.39214422861E+02  0.13589531654E+02 -0.41504742005E-01  0.41712353728E+02  0.41800000000E+01 0.  1.
        -11    1    1    2    0    0 -0.50712500105E+02 -0.58309128733E+01  0.26182171292E+02  0.57369532901E+02  0.00000000000E+00 0.  1.
         11    1    1    2    0    0  0.33096753203E+02 -0.12265534965E+02  0.62885708695E+02  0.72114151029E+02  0.00000000000E+00 0. -1.
</event>
<event>
 7    1  0.2412631E-010  0.2210591E+03  0.7561462E-02  0.1133096E+00
          1   -1    0    0  501    0  0.00000000000E+00  0.00000000000E+00  0.66678655175E+02  0.66678655175E+02  0.00000000000E+00 0. -1.
         -1   -1    0    0    0  501 -0.00000000000E+00 -0.00000000000E+00 -0.86119216150E+03  0.86119216150E+03  0.00000000000E+00 0.  1.
         25    2    1    2    0    0  0.50657155198E+02 -0.19725032601E+03 -0.52828203376E+03  0.57982593345E+03  0.12506945042E+03 0.  0.
          5    1    3    3  502    0  0.59271353092E+01  0.73462744922E+01 -0.12464984327E+03  0.12507659457E+03  0.41800000000E+01 0.  1.
         -5    1    3    3    0  502  0.44730019889E+02 -0.20459660050E+03 -0.40363219050E+03  0.45474933889E+03  0.41800000000E+01 0.  1.
        -11    1    1    2    0    0 -0.73132592273E+02  0.10902850306E+03 -0.17878955058E+03  0.22181364685E+03  0.00000000000E+00 0.  1.
         11    1    1    2    0    0  0.22475437076E+02  0.88221822946E+02 -0.87441921979E+02  0.12623123637E+03  0.00000000000E+00 0. -1.
</event>
<event>
 7    1  0.2412631E-010  0.9437732E+02  0.7561462E-02  0.1292585E+00
         -1   -1    0    0    0  501 -0.00000000000E+00  0.00000000000E+00  0.34236562362E+02  0.34236562362E+02  0.00000000000E+00 0.  1.
          1   -1    0    0  501    0  0.00000000000E+00 -0.00000000000E+00 -0.35221287365E+03  0.35221287365E+03  0.00000000000E+00 0. -1.
         25    2    1    2    0    0 -0.25545033426E+01  0.12377185346E+01 -0.15389702959E+03  0.19836986392E+03  0.12513292836E+03 0.  0.
          5    1    3    3  502    0 -0.30494874631E+02 -0.37904609335E+02 -0.13979862261E+03  0.14808046485E+03  0.41800000000E+01 0. -1.
         -5    1    3    3    0  502  0.27940371289E+02  0.39142327870E+02 -0.14098406975E+02  0.50289399062E+02  0.41800000000E+01 0. -1.
        -11    1    1    2    0    0 -0.33116324729E+02  0.29663945899E+02 -0.86941868133E+02  0.97650033714E+02  0.00000000000E+00 0. -1.
         11    1    1    2    0    0  0.35670828071E+02 -0.30901664434E+02 -0.77137413572E+02  0.90429538386E+02  0.00000000000E+00 0.  1.
</event>
<event>
 6    1  0.2412631E-010  0.1007330E+03  0.7561462E-02  0.1278762E+00
          1   -1    0    0  501    0  0.00000000000E+00  0.00000000000E+00  0.12470221960E+03  0.12470221960E+03  0.00000000000E+00 0. -1.
         -1   -1    0    0    0  501 -0.00000000000E+00 -0.00000000000E+00 -0.11454220726E+03  0.11454220726E+03  0.00000000000E+00 0.  1.
          5    1    1    2  502    0  0.73563124250E+02  0.11333342628E+02 -0.37296826649E+02  0.83357684604E+02  0.41800000000E+01 0.  1.
         -5    1    1    2    0  502 -0.31303546828E+02 -0.32805675658E+02  0.23396895274E+02  0.51195815335E+02  0.41800000000E+01 0.  1.
        -11    1    1    2    0    0 -0.22441271934E+02 -0.23342089970E+02 -0.20611693724E+02  0.38383665385E+02  0.00000000000E+00 0.  1.
         11    1    1    2    0    0 -0.19818305488E+02  0.44814423001E+02  0.44671637435E+02  0.66307261536E+02  0.00000000000E+00 0. -1.
</event>
<event>
 7    1  0.2412631E-010  0.1150376E+03  0.7561462E-02  0.1251516E+00
         -1   -1    0    0    0  501 -0.00000000000E+00  0.00000000000E+00  0.37852518417E+03  0.37852518417E+03  0.00000000000E+00 0.  1.
          1   -1    0    0  501    0  0.00000000000E+00 -0.00000000000E+00 -0.50125376247E+02  0.50125376247E+02  0.00000000000E+00 0. -1.
         25    2    1    2    0    0  0.25130423384E+01  0.32579224156E+02  0.80043517770E+02  0.15203722480E+03  0.12506251140E+03 0.  0.
          5    1    3    3  502    0 -0.29610592234E+02  0.72153670006E+02  0.49437247712E+02  0.92436211136E+02  0.41800000000E+01 0.  1.
         -5    1    3    3    0  502  0.32123634573E+02 -0.39574445850E+02  0.30606270057E+02  0.59601013660E+02  0.41800000000E+01 0.  1.
        -11    1    1    2    0    0  0.45894826405E+02 -0.81788084709E+01  0.40337175792E+02  0.61646701044E+02  0.00000000000E+00 0. -1.
         11    1    1    2    0    0 -0.48407868743E+02 -0.24400415686E+02  0.20801911436E+03  0.21496663458E+03  0.00000000000E+00 0.  1.
</event>
<event>
 6    1  0.2412631E-010  0.3863663E+03  0.7561462E-02  0.1048606E+00
          2   -1    0    0  501    0  0.00000000000E+00  0.00000000000E+00  0.61382528076E+03  0.61382528076E+03  0.00000000000E+00 0. -1.
         -2   -1    0    0    0  501 -0.00000000000E+00 -0.00000000000E+00 -0.25284281020E+03  0.25284281020E+03  0.00000000000E+00 0.  1.
          5    1    1    2  502    0 -0.19859831298E+02 -0.19817512687E+02  0.13210666048E+02  0.31291225699E+02  0.41800000000E+01 0.  1.
         -5    1    1    2    0  502 -0.31880190597E+03  0.18277014413E+03  0.21950012122E+03  0.42806232777E+03  0.41800000000E+01 0.  1.
        -11    1    1    2    0    0  0.14804824900E+03 -0.86693262563E+02  0.13462172610E+02  0.17209077807E+03  0.00000000000E+00 0.  1.
         11    1    1    2    0    0  0.19061348827E+03 -0.76259368883E+02  0.11480951069E+03  0.23522375942E+03  0.00000000000E+00 0. -1.
</event>
<event>
 6    1  0.2412631E-010  0.1764376E+03  0.7561462E-02  0.1171296E+00
         -1   -1    0    0    0  501 -0.00000000000E+00  0.00000000000E+00  0.12963900781E+03  0.12963900781E+03  0.00000000000E+00 0.  1.
          1   -1    0    0  501    0  0.00000000000E+00 -0.00000000000E+00 -0.38925107345E+03  0.38925107345E+03  0.00000000000E+00 0. -1.
          5    1    1    2  502    0 -0.52771843410E+02 -0.97413486642E+02 -0.14331240774E+03  0.18119098611E+03  0.41800000000E+01 0.  1.
         -5    1    1    2    0  502  0.66516828047E+02 -0.55959422979E+02 -0.13265446236E+03  0.15865252667E+03  0.41800000000E+01 0.  1.
        -11    1    1    2    0    0 -0.17420847000E+02  0.10195662765E+03  0.52591537502E+02  0.11603667372E+03  0.00000000000E+00 0.  1.
         11    1    1    2    0    0  0.36758623632E+01  0.51416281973E+02 -0.36236733041E+02  0.63009894759E+02  0.00000000000E+00 0. -1.
</event>
<event>
 7    1  0.2412631E-010  0.1107296E+03  0.7561462E-02  0.1259225E+00
         -4   -1    0    0    0  501 -0.00000000000E+00  0.00000000000E+00  0.77517463855E+02  0.77517463855E+02  0.00000000000E+00 0.  1.
          4   -1    0    0  501    0  0.00000000000E+00 -0.00000000000E+00 -0.21580470693E+03  0.21580470693E+03  0.00000000000E+00 0. -1.
         25    2    1    2    0    0  0.31092243867E+02  0.62507363303E+02 -0.85695889933E+02  0.16690474862E+03  0.12505803239E+03 0.  0.
          5    1    3    3  502    0 -0.14264750974E+02  0.58980088003E+02 -0.10169666772E+03  0.11849817942E+03  0.41800000000E+01 0.  1.
         -5    1    3    3    0  502  0.45356994841E+02  0.35272753006E+01  0.16000777788E+02  0.48406569201E+02  0.41800000000E+01 0.  1.
        -11    1    1    2    0    0 -0.40067326186E+02  0.10477434330E+02 -0.19733629993E+02  0.45875738801E+02  0.00000000000E+00 0.  1.
         11    1    1    2    0    0  0.89750823190E+01 -0.72984797634E+02 -0.32857723154E+02  0.80541683364E+02  0.00000000000E+00 0. -1.
</event>
<event>
 6    1  0.2412631E-010  0.9805555E+02  0.7561462E-02  0.1284439E+00
         -3   -1    0    0    0  501 -0.00000000000E+00  0.00000000000E+00  0.20073163393E+03  0.20073163393E+03  0.00000000000E+00 0.  1.
          3   -1    0    0  501    0  0.00000000000E+00 -0.00000000000E+00 -0.74086388450E+02  0.74086388450E+02  0.00000000000E+00 0. -1.
          5    1    1    2  502    0 -0.46294440466E+02  0.38960982210E+02  0.19818771944E+02  0.63807440587E+02  0.41800000000E+01 0.  1.
         -5    1    1    2    0  502  0.16960726572E+02 -0.68056119068E+02  0.80948911458E+01  0.70726948549E+02  0.41800000000E+01 0.  1.
        -11    1    1    2    0    0  0.23572949496E+02 -0.10053448950E+02 -0.76797023227E+01  0.26753198154E+02  0.00000000000E+00 0. -1.
         11    1    1    2    0    0  0.57607643988E+01  0.39148585808E+02  0.10641128472E+03  0.11353043509E+03  0.00000000000E+00 0.  1.
</event>
<event>
 7    1  0.2412631E-010  0.7669714E+02  0.7561462E-02  0.1338695E+00
          1   -1    0    0  501    0  0.00000000000E+00  0.00000000000E+00  0.43370504330E+03  0.43370504330E+03  0.00000000000E+00 0. -1.
         -1   -1    0    0    0  501 -0.00000000000E+00 -0.00000000000E+00 -0.19694637471E+02  0.19694637471E+02  0.00000000000E+00 0.  1.
         25    2    1    2    0    0 -0.40348672291E+01 -0.10170358440E+02  0.27926589911E+03  0.30620936177E+03  0.12512000035E+03 0.  0.
          5    1    3    3  502    0  0.31312413633E+02  0.30911668450E+02  0.36173389044E+02  0.57113789655E+02  0.41800000000E+01 0.  1.
         -5    1    3    3    0  502 -0.35347280862E+02 -0.41082026890E+02  0.24309251007E+03  0.24909557212E+03  0.41800000000E+01 0.  1.
        -11    1    1    2    0    0  0.22364748134E+01 -0.22253671993E+02  0.29313833566E+02  0.36871785623E+02  0.00000000000E+00 0.  1.
         11    1    1    2    0    0  0.17983924157E+01  0.32424030432E+02  0.10543067315E+03  0.11031853338E+03  0.00000000000E+00 0. -1.
</event>
<event>
 7    1  0.2412631E-010  0.7895588E+02  0.7561462E-02  0.1332041E+00
          2   -1    0    0  501    0  0.00000000000E+00  0.00000000000E+00  0.21521561455E+03  0.21521561455E+03  0.00000000000E+00 0. -1.
         -2   -1    0    0    0  501 -0.00000000000E+00 -0.00000000000E+00 -0.66233227699E+02  0.66233227699E+02  0.00000000000E+00 0.  1.
         25    2    1    2    0    0  0.22576283014E+02 -0.50293290757E+01  0.31945089765E+02  0.13113364647E+03  0.12506223159E+03 0.  0.
          5    1    3    3  502    0 -0.31277828469E+02  0.19944271072E+02 -0.28001142292E+02  0.46664899785E+02  0.41800000000E+01 0.  1.
         -5    1    3    3    0  502  0.53854111483E+02 -0.24973600147E+02  0.59946232057E+02  0.84468746681E+02  0.41800000000E+01 0.  1.
        -11    1    1    2    0    0  0.15596207904E+02 -0.11597130966E+02  0.10526850941E+03  0.10704762595E+03  0.00000000000E+00 0. -1.
         11    1    1    2    0    0 -0.38172490918E+02  0.16626460042E+02  0.11768787680E+02  0.43267569840E+02  0.00000000000E+00 0.  1.
</event>
<event>
 6    1  0.2412631E-010  0.1169385E+03  0.7561462E-02  0.1248235E+00
         -1   -1    0    0    0  501 -0.00000000000E+00  0.00000000000E+00  0.12726930130E+02  0.12726930130E+02  0.00000000000E+00 0.  1.
          1   -1    0    0  501    0  0.00000000000E+00 -0.00000000000E+00 -0.14717638098E+04  0.14717638098E+04  0.00000000000E+00 0. -1.
          5    1    1    2  502    0 -0.89340725526E+02  0.16142608789E+02 -0.97005147949E+03  0.97429959166E+03  0.41800000000E+01 0. -1.
         -5    1    1    2    0  502  0.33702692447E+02 -0.13399007685E+02 -0.16596794108E+03  0.16993597250E+03  0.41800000000E+01 0. -1.
        -11    1    1    2    0    0 -0.21946056422E+02  0.15396535749E+02 -0.68554084674E+02  0.73609409935E+02  0.00000000000E+00 0.  1.
         11    1    1    2    0    0  0.77584089501E+02 -0.18140136853E+02 -0.25446337444E+03  0.26664576584E+03  0.00000000000E+00 0. -1.
</event>
<event>
 6    1  0.2412631E-010  0.9995349E+02  0.7561462E-02  0.1280394E+00
          1   -1    0    0  501    0  0.00000000000E+00  0.00000000000E+00  0.85781604677E+03  0.85781604677E+03  0.00000000000E+00 0. -1.
         -1   -1    0    0    0  501 -0.00000000000E+00 -0.00000000000E+00 -0.15561763471E+02  0.15561763471E+02  0.00000000000E+00 0.  1.
          5    1    1    2  502    0  0.58993692377E+02 -0.37599764833E+02  0.23737517907E+03  0.24750443651E+03  0.41800000000E+01 0.  1.
         -5    1    1    2    0  502 -0.47604137683E+02  0.15430159068E+01  0.42320709897E+03  0.42589934943E+03  0.41800000000E+01 0.  1.
        -11    1    1    2    0    0 -0.33280702448E+02  0.46959528365E+02  0.14381146632E+03  0.15490171176E+03  0.00000000000E+00 0. -1.
         11    1    1    2    0    0  0.21891147753E+02 -0.10902779440E+02  0.37860538938E+02  0.45072312545E+02  0.00000000000E+00 0.  1.
</event>
<event>
 6    1  0.2412631E-010  0.1255225E+03  0.7561462E-02  0.1234255E+00
         -1   -1    0    0    0  501 -0.00000000000E+00  0.00000000000E+00  0.46824689125E+03  0.46824689125E+03  0.00000000000E+00 0.  1.
          1   -1    0    0  501    0  0.00000000000E+00 -0.00000000000E+00 -0.44906295926E+02  0.44906295926E+02  0.00000000000E+00 0. -1.
          5    1    1    2  502    0  0.15204547068E+02  0.19376248023E+02  0.11986700526E+03  0.12244259304E+03  0.41800000000E+01 0.  1.
         -5    1    1    2    0  502 -0.95920289675E+02  0.28099004075E+02  0.62740180143E+02  0.11808496350E+03  0.41800000000E+01 0.  1.
        -11    1    1    2    0    0  0.75003559723E+02 -0.70116749834E+02  0.17535830727E+03  0.20320538504E+03  0.00000000000E+00 0. -1.
         11    1    1    2    0    0  0.57121828829E+01  0.22641497735E+02  0.65375102639E+02  0.69420245592E+02  0.00000000000E+00 0.  1.
</event>
<event>
 7    1  0.2412631E-010  0.1325744E+03  0.7561462E-02  0.1223685E+00
          1   -1    0    0  501    0  0.00000000000E+00  0.00000000000E+00  0.11069857566E+04  0.11069857566E+04  0.00000000000E+00 0. -1.
         -1   -1    0    0    0  501 -0.00000000000E+00 -0.00000000000E+00 -0.27964680913E+02  0.27964680913E+02  0.00000000000E+00 0.  1.
         25    2    1    2    0    0 -0.67079663141E+02  0.62816896663E+02  0.91272074365E+03  0.92582093398E+03  0.12505839517E+03 0.  0.
          5    1    3    3  502    0 -0.96873303786E+02  0.42591896870E+02  0.80993556987E+03  0.81683021884E+03  0.41800000000E+01 0. -1.
         -5    1    3    3    0  502  0.29793640644E+02  0.20224999793E+02  0.10278517378E+03  0.10899071515E+03  0.41800000000E+01 0. -1.
        -11    1    1    2    0    0  0.69252179241E+02 -0.98138719906E+01  0.11911830708E+03  0.13813525073E+03  0.00000000000E+00 0. -1.
         11    1    1    2    0    0 -0.21725160995E+01 -0.53003024673E+02  0.47182024948E+02  0.70994252788E+02  0.00000000000E+00 0.  1.
</event>
<event>
 6    1  0.2412631E-010  0.1346882E+03  0.7561462E-02  0.1220661E+00
         -2   -1    0    0    0  501 -0.00000000000E+00  0.00000000000E+00  0.19974050867E+02  0.19974050867E+02  0.00000000000E+00 0.  1.
          2   -1    0    0  501    0  0.00000000000E+00 -0.00000000000E+00 -0.12097399643E+04  0.12097399643E+04  0.00000000000E+00 0. -1.
          5    1    1    2  502    0 -0.11036057620E+01  0.59035932464E+02 -0.34939827660E+03  0.35437704125E+03  0.41800000000E+01 0.  1.
         -5    1    1    2    0  502  0.96128751059E+02 -0.27462879422E+02 -0.47211641531E+03  0.48260369718E+03  0.41800000000E+01 0.  1.
        -11    1    1    2    0    0 -0.57156966727E+02 -0.41899271959E+02 -0.33140440231E+03  0.33889724948E+03  0.00000000000E+00 0.  1.
         11    1    1    2    0    0 -0.37868178570E+02  0.10326218917E+02 -0.36846819206E+02  0.53836027258E+02  0.00000000000E+00 0. -1.
</event>
<event>
 7    1  0.2412631E-010  0.9396549E+02  0.7561462E-02  0.1293523E+00
          2   -1    0    0  501    0  0.00000000000E+00  0.00000000000E+00  0.16905352609E+04  0.16905352609E+04  0.00000000000E+00 0. -1.
         -2   -1    0    0    0  501 -0.00000000000E+00 -0.00000000000E+00 -0.10258690246E+02  0.10258690246E+02  0.00000000000E+00 0.  1.
         25    2    1    2    0    0  0.42005007483E+01  0.15700645128E+02  0.13905274081E+04  0.13962404091E+04  0.12512654735E+03 0.  0.
          5    1    3    3  502    0 -0.38989789310E+02 -0.17821878183E+02  0.20651978960E+03  0.21096378577E+03  0.41800000000E+01 0.  1.
         -5    1    3    3    0  502  0.43190290058E+02  0.33522523312E+02  0.11840076185E+04  0.11852766233E+04  0.41800000000E+01 0.  1.
        -11    1    1    2    0    0 -0.39889597862E+02 -0.31663283680E+02  0.11999596914E+03  0.13035634301E+03  0.00000000000E+00 0.  1.
         11    1    1    2    0    0  0.35689097114E+02  0.15962638552E+02  0.16975319346E+03  0.17419719909E+03  0.00000000000E+00 0. -1.
</event>
<event>
 6    1  0.2412631E-010  0.1312270E+03  0.7561462E-02  0.1225646E+00
          4   -1    0    0  501    0  0.00000000000E+00  0.00000000000E+00  0.59335167013E+02  0.59335167013E+02  0.00000000000E+00 0. -1.
         -4   -1    0    0    0  501 -0.00000000000E+00 -0.00000000000E+00 -0.46701046548E+03  0.46701046548E+03  0.00000000000E+00 0.  1.
          5    1    1    2  502    0 -0.10680545166E+03  0.49821876022E+02 -0.26310512034E+03  0.28832516467E+03  0.41800000000E+01 0. -1.
         -5    1    1    2    0  502 -0.69000888015E+01  0.50081060375E+00  0.14419045518E+02  0.16530072909E+02  0.41800000000E+01 0. -1.
        -11    1    1    2    0    0  0.13213174320E+02 -0.31559287172E+02 -0.94787382008E+02  0.10077313318E+03  0.00000000000E+00 0.  1.
         11    1    1    2    0    0  0.10049236614E+03 -0.18763399453E+02 -0.64201841636E+02  0.12071726173E+03  0.00000000000E+00 0. -1.
</event>
<event>
 7    1  0.2412631E-010  0.1948720E+03  0.7561462E-02  0.1154139E+00
         -2   -1    0    0    0  501 -0.00000000000E+00  0.00000000000E+00  0.54224092242E+02  0.54224092242E+02  0.00000000000E+00 0.  1.
          2   -1    0    0  501    0  0.00000000000E+00 -0.00000000000E+00 -0.81421030851E+03  0.81421030851E+03  0.00000000000E+00 0. -1.
         25    2    1    2    0    0 -0.13839406599E+03 -0.11297686257E+03 -0.44771002517E+03  0.49799295386E+03  0.12504409814E+03 0.  0.
          5    1    3    3  502    0 -0.10400907702E+03 -0.23989364062E+02 -0.14185167781E+03  0.17757462822E+03  0.41800000000E+01 0.  1.
         -5    1    3    3    0  502 -0.34384988979E+02 -0.88987498508E+02 -0.30585834736E+03  0.32041832565E+03  0.41800000000E+01 0.  1.
        -11    1    1    2    0    0  0.10778954876E+03  0.53039179813E+02 -0.25572577411E+03  0.28253745409E+03  0.00000000000E+00 0.  1.
         11    1    1    2    0    0  0.30604517233E+02  0.59937682756E+02 -0.56550416986E+02  0.87903992802E+02  0.00000000000E+00 0. -1.
</event>
<event>
 7    1  0.2412631E-010  0.1136612E+03  0.7561462E-02  0.1253936E+00
          1   -1    0    0  501    0  0.00000000000E+00  0.00000000000E+00  0.25002235602E+03  0.25002235602E+03  0.00000000000E+00 0. -1.
         -1   -1    0    0    0  501 -0.00000000000E+00 -0.00000000000E+00 -0.76580059527E+02  0.76580059527E+02  0.00000000000E+00 0.  1.
         25    2    1    2    0    0  0.67685263139E+02  0.42453884909E+02  0.13122719758E+03  0.19813906325E+03  0.12511947815E+03 0.  0.
          5    1    3    3  502    0 -0.16347011565E+02  0.17428140630E+02 -0.14321313389E+02  0.28169793931E+02  0.41800000000E+01 0. -1.
         -5    1    3    3    0  502  0.84032274705E+02  0.25025744279E+02  0.14554851097E+03  0.16996926932E+03  0.41800000000E+01 0. -1.
        -11    1    1    2    0    0  0.13315716608E+02  0.11801582592E+02  0.23027129330E+02  0.29100418307E+02  0.00000000000E+00 0. -1.
         11    1    1    2    0    0 -0.81000979747E+02 -0.54255467501E+02  0.19187969584E+02  0.99362933987E+02  0.00000000000E+00 0.  1.
</event>
<event>
 7    1  0.2412631E-010  0.8403374E+02  0.7561462E-02  0.1317979E+00
          1   -1    0    0  501    0  0.00000000000E+00  0.00000000000E+00  0.26492817539E+03  0.26492817539E+03  0.00000000000E+00 0. -1.
         -1   -1    0    0    0  501 -0.00000000000E+00 -0.00000000000E+00 -0.64283386751E+02  0.64283386751E+02  0.00000000000E+00 0.  1.
         25    2    1    2    0    0  0.36994117047E+01  0.14393301278E+02  0.20605848265E+02  0.12768120799E+03  0.12512808287E+03 0.  0.
          5    1    3    3  502    0  0.35393138560E+01 -0.41678648962E+02 -0.30311136244E+02  0.51825417531E+02  0.41800000000E+01 0. -1.
         -5    1    3    3    0  502  0.16009784872E+00  0.56071950239E+02  0.50916984509E+02  0.75855790461E+02  0.41800000000E+01 0. -1.
        -11    1    1    2    0    0  0.31703366385E+02 -0.31913235362E+00  0.14915355865E+03  0.15248603000E+03  0.00000000000E+00 0. -1.
         11    1    1    2    0    0 -0.35402778090E+02 -0.14074168924E+02  0.30885381720E+02  0.49044324150E+02  0.00000000000E+00 0.  1.
</event>
<event>
 7    1  0.2412631E-010  0.7624185E+02  0.7561462E-02  0.1340068E+00
         -1   -1    0    0    0  501 -0.00000000000E+00  0.00000000000E+00  0.30568118930E+03  0.30568118930E+03  0.00000000000E+00 0.  1.
          1   -1    0    0  501    0  0.00000000000E+00 -0.00000000000E+00 -0.49520276766E+02  0.49520276766E+02  0.00000000000E+00 0. -1.
         25    2    1    2    0    0  0.41720711956E+02 -0.14188288135E+02  0.92225047178E+02  0.16151354948E+03  0.12505695507E+03 0.  0.
          5    1    3    3  502    0  0.46733111370E+02  0.17442353821E+01 -0.17752731122E+02  0.50196194255E+02  0.41800000000E+01 0. -1.
         -5    1    3    3    0  502 -0.50123994146E+01 -0.15932523517E+02  0.10997777830E+03  0.11131735522E+03  0.41800000000E+01 0. -1.
        -11    1    1    2    0    0  0.10075924293E+02 -0.22625525520E+02  0.10195337340E+03  0.10491867805E+03  0.00000000000E+00 0.  1.
         11    1    1    2    0    0 -0.51796636249E+02  0.36813813656E+02  0.61982491955E+02  0.88769238543E+02  0.00000000000E+00 0. -1.
</event>
<event>
 7    1  0.2412631E-010  0.7776337E+02  0.7561462E-02  0.1335521E+00
          2   -1    0    0  501    0  0.00000000000E+00  0.00000000000E+00  0.13162081300E+03  0.13162081300E+03  0.00000000000E+00 0. -1.
         -2   -1    0    0    0  501 -0.00000000000E+00 -0.00000000000E+00 -0.81957346047E+02  0.81957346047E+02  0.00000000000E+00 0.  1.
         25    2    1    2    0    0 -0.12741409414E+02  0.13136994800E+02  0.26887648928E+02  0.12930479874E+03  0.12514735781E+03 0.  0.
          5    1    3    3  502    0 -0.36366583995E+02  0.59892629904E+02  0.30702716393E+02  0.76614520440E+02  0.41800000000E+01 0.  1.
         -5    1    3    3    0  502  0.23625174581E+02 -0.46755635103E+02 -0.38150674659E+01  0.52690278303E+02  0.41800000000E+01 0.  1.
        -11    1    1    2    0    0  0.12758134064E+02  0.56791802636E+01 -0.27362721934E+02  0.30720378007E+02  0.00000000000E+00 0.  1.
         11    1    1    2    0    0 -0.16724650135E-01 -0.18816175064E+02  0.50138539954E+02  0.53552982293E+02  0.00000000000E+00 0. -1.
</event>
<event>
 6    1  0.2412631E-010  0.1401672E+03  0.7561462E-02  0.1213104E+00
         -1   -1    0    0    0  501 -0.00000000000E+00  0.00000000000E+00  0.10966623977E+04  0.10966623977E+04  0.00000000000E+00 0.  1.
          1   -1    0    0  501    0  0.00000000000E+00 -0.00000000000E+00 -0.28042189175E+02  0.28042189175E+02  0.00000000000E+00 0. -1.
          5    1    1    2  502    0  0.50639391777E+01 -0.92545865172E+02  0.68955169976E+03  0.69576533377E+03  0.41800000000E+01 0. -1.
         -5    1    1    2    0  502 -0.40901377817E+02 -0.17785430735E+02  0.73010603830E+02  0.85657836334E+02  0.41800000000E+01 0. -1.
        -11    1    1    2    0    0  0.62428487188E+02  0.64439274140E+02  0.12013143692E+03  0.14993764771E+03  0.00000000000E+00 0. -1.
         11    1    1    2    0    0 -0.26591048548E+02  0.45892021767E+02  0.18592646800E+03  0.19334376905E+03  0.00000000000E+00 0.  1.
</event>
<event>
 7    1  0.2412631E-010  0.1213425E+03  0.7561462E-02  0.1240899E+00
          2   -1    0    0  501    0  0.00000000000E+00  0.00000000000E+00  0.90246901158E+03  0.90246901158E+03  0.00000000000E+00 0. -1.
         -2   -1    0    0    0  501 -0.00000000000E+00 -0.00000000000E+00 -0.20835822552E+02  0.20835822552E+02  0.00000000000E+00 0.  1.
         25    2    1    2    0    0 -0.80425341920E+02  0.99024994515E+01  0.49722659137E+03  0.51907701289E+03  0.12506145300E+03 0.  0.
          5    1    3    3  502    0  0.15705192693E+02 -0.13620026945E+02  0.13108710574E+02  0.24929278057E+02  0.41800000000E+01 0.  1.
         -5    1    3    3    0  502 -0.96130534613E+02  0.23522526396E+02  0.48411788080E+03  0.49414773483E+03  0.41800000000E+01 0.  1.
        -11    1    1    2    0    0  0.83303800761E+02  0.25334720536E+02  0.30739255536E+03  0.31948639153E+03  0.00000000000E+00 0. -1.
         11    1    1    2    0    0 -0.28784588414E+01 -0.35237219987E+02  0.77014042304E+02  0.84741429712E+02  0.00000000000E+00 0.  1.
</event>
<event>
 7    1  0.2412631E-010  0.5076781E+03  0.7561462E-02  0.1011794E+00
          2   -1    0    0  501    0  0.00000000000E+00  0.00000000000E+00  0.28480210968E+03  0.28480210968E+03  0.00000000000E+00 0. -1.
         -2   -1    0    0    0  501 -0.00000000000E+00 -0.00000000000E+00 -0.10776472281E+04  0.10776472281E+04  0.00000000000E+00 0.  1.
         25    2    1    2    0    0 -0.46988575155E+03  0.18354856643E+03 -0.64770295590E+03  0.83045481600E+03  0.12511349481E+03 0.  0.
          5    1    3    3  502    0 -0.10835052667E+03  0.56011798364E+02 -0.24912600489E+03  0.27741376479E+03  0.41800000000E+01 0. -1.
         -5    1    3    3    0  502 -0.36153522488E+03  0.12753676806E+03 -0.39857695101E+03  0.55304105121E+03  0.41800000000E+01 0. -1.
        -11    1    1    2    0    0  0.59882586903E+02 -0.52056973378E+02 -0.63265591330E+01  0.79598228887E+02  0.00000000000E+00 0.  1.
         11    1    1    2    0    0  0.41000316465E+03 -0.13149159305E+03 -0.13881560336E+03  0.45239629287E+03  0.00000000000E+00 0. -1.
</event>
<event>
 6    1  0.2412631E-010  0.1187758E+03  0.7561462E-02  0.1245130E+00
         -2   -1    0    0    0  501 -0.00000000000E+00  0.00000000000E+00  0.13958835883E+03  0.13958835883E+03  0.00000000000E+00 0. -1.
          2   -1    0    0  501    0  0.00000000000E+00 -0.00000000000E+00 -0.19739527422E+03  0.19739527422E+03  0.00000000000E+00 0.  1.
          5    1    1    2  502    0 -0.66488096824E+02 -0.34527368586E+01 -0.48743989480E+02  0.82619836126E+02  0.41800000000E+01 0. -1.
         -5    1    1    2    0  502 -0.43732601298E+02 -0.23302005495E+02  0.72776843011E+02  0.88144569628E+02  0.41800000000E+01 0. -1.
        -11    1    1    2    0    0  0.27722875872E+01  0.12405328096E+02 -0.52358649815E+02  0.53879550426E+02  0.00000000000E+00 0.  1.
         11    1    1    2    0    0  0.10744841054E+03  0.14349414257E+02 -0.29481119100E+02  0.11233967687E+03  0.00000000000E+00 0. -1.
</event>
<event>
 7    1  0.2412631E-010  0.1659814E+03  0.7561462E-02  0.1182105E+00
         -1   -1    0    0    0  501 -0.00000000000E+00  0.00000000000E+00  0.84356812104E+02  0.84356812104E+02  0.00000000000E+00 0.  1.
          1   -1    0    0  501    0  0.00000000000E+00 -0.00000000000E+00 -0.44426470741E+03  0.44426470741E+03  0.00000000000E+00 0. -1.
         25    2    1    2    0    0 -0.75049104549E+02 -0.13912379977E+03 -0.15612737672E+03  0.25499965997E+03  0.12514499218E+03 0.  0.
          5    1    3    3  502    0  0.76455958198E+01 -0.31253706192E+02  0.15559136554E+02  0.35983446423E+02  0.41800000000E+01 0. -1.
         -5    1    3    3    0  502 -0.82694700369E+02 -0.10787009358E+03 -0.17168651327E+03  0.21901621355E+03  0.41800000000E+01 0. -1.
        -11    1    1    2    0    0  0.51282505980E+02  0.12676364978E+03 -0.20543284093E+03  0.24678243547E+03  0.00000000000E+00 0. -1.
         11    1    1    2    0    0  0.23766598569E+02  0.12360149987E+02  0.16523223430E+01  0.26839424069E+02  0.00000000000E+00 0.  1.
</event>
<event>
 6    1  0.2412631E-010  0.1027190E+03  0.7561462E-02  0.1274680E+00
         -4   -1    0    0    0  501 -0.00000000000E+00  0.00000000000E+00  0.79697851897E+02  0.79697851897E+02  0.00000000000E+00 0.  1.
          4   -1    0    0  501    0  0.00000000000E+00 -0.00000000000E+00 -0.20767544707E+03  0.20767544707E+03  0.00000000000E+00 0. -1.
          5    1    1    2  502    0 -0.38136864114E+02 -0.36359667588E+02 -0.12367903218E+01  0.52871995252E+02  0.41800000000E+01 0.  1.
         -5    1    1    2    0  502  0.80189485658E+02  0.11984807907E+02 -0.14581353451E+02  0.82486832278E+02  0.41800000000E+01 0.  1.
        -11    1    1    2    0    0 -0.39494433618E+02 -0.68321652480E+01 -0.11380775620E+03  0.12065941381E+03  0.00000000000E+00 0. -1.
         11    1    1    2    0    0 -0.25581879264E+01  0.31207024929E+02  0.16483047997E+01  0.31355057632E+02  0.00000000000E+00 0.  1.
</event>
<event>
 6    1  0.2412631E-010  0.1144337E+03  0.7561462E-02  0.1252573E+00
          2   -1    0    0  501    0  0.00000000000E+00  0.00000000000E+00  0.17537668390E+03  0.17537668390E+03  0.00000000000E+00 0. -1.
         -2   -1    0    0    0  501 -0.00000000000E+00 -0.00000000000E+00 -0.20800942605E+03  0.20800942605E+03  0.00000000000E+00 0.  1.
          5    1    1    2  502    0 -0.28325390749E+02 -0.66066618968E+02 -0.15130001290E+03  0.16755981680E+03  0.41800000000E+01 0. -1.
         -5    1    1    2    0  502 -0.31375988515E+02  0.32115961992E+02 -0.67935633945E+01  0.45601672925E+02  0.41800000000E+01 0. -1.
        -11    1    1    2    0    0  0.69603517354E+02 -0.67056014026E+01  0.97165713056E+02  0.11971127980E+03  0.00000000000E+00 0.  1.
         11    1    1    2    0    0 -0.99021380903E+01  0.40656258379E+02  0.28295121083E+02  0.50513340429E+02  0.00000000000E+00 0. -1.
</event>
<event>
 7    1  0.2412631E-010  0.9468311E+02  0.7561462E-02  0.1291891E+00
          1   -1    0    0  501    0  0.00000000000E+00  0.00000000000E+00  0.20982890953E+03  0.20982890953E+03  0.00000000000E+00 0. -1.
         -1   -1    0    0    0  501 -0.00000000000E+00 -0.00000000000E+00 -0.74482951077E+02  0.74482951077E+02  0.00000000000E+00 0.  1.
         25    2    1    2    0    0 -0.14231055651E+02 -0.74984785904E+01  0.14250520010E+03  0.19027205635E+03  0.12504788381E+03 0.  0.
          5    1    3    3  502    0 -0.13458899893E+02  0.55890080802E+02  0.41796007139E+02  0.71198467197E+02  0.41800000000E+01 0. -1.
         -5    1    3    3    0  502 -0.77215575789E+00 -0.63388559392E+02  0.10070919296E+03  0.11907358915E+03  0.41800000000E+01 0. -1.
        -11    1    1    2    0    0  0.14361610046E+01  0.36483792659E+02  0.28514670325E+02  0.46327271763E+02  0.00000000000E+00 0. -1.
         11    1    1    2    0    0  0.12794894647E+02 -0.28985314069E+02 -0.35673911980E+02  0.47712532490E+02  0.00000000000E+00 0.  1.
</event>
<event>
 7    1  0.2412631E-010  0.1312816E+03  0.7561462E-02  0.1225566E+00
         -1   -1    0    0    0  501 -0.00000000000E+00  0.00000000000E+00  0.51894172463E+02  0.51894172463E+02  0.00000000000E+00 0.  1.
          1   -1    0    0  501    0  0.00000000000E+00 -0.00000000000E+00 -0.39404046759E+03  0.39404046759E+03  0.00000000000E+00 0. -1.
         25    2    1    2    0    0 -0.74806957568E+02  0.31172520619E+02 -0.14105583238E+03  0.20522470873E+03  0.12511045632E+03 0.  0.
          5    1    3    3  502    0  0.21158324084E+02  0.45366895433E+02 -0.33799840698E+02  0.60545284791E+02  0.41800000000E+01 0. -1.
         -5    1    3    3    0  502 -0.95965281652E+02 -0.14194374813E+02 -0.10725599168E+03  0.14467942393E+03  0.41800000000E+01 0. -1.
        -11    1    1    2    0    0  0.74687059173E+02 -0.54151202455E+02 -0.96017284067E+02  0.13315340166E+03  0.00000000000E+00 0.  1.
         11    1    1    2    0    0  0.11989839567E+00  0.22978681836E+02 -0.10507317868E+03  0.10755652966E+03  0.00000000000E+00 0. -1.
</event>
<event>
 7    1  0.2412631E-010  0.2204826E+03  0.7561462E-02  0.1133524E+00
         -2   -1    0    0    0  501 -0.00000000000E+00  0.00000000000E+00  0.10061282626E+03  0.10061282626E+03  0.00000000000E+00 0. -1.
          2   -1    0    0  501    0  0.00000000000E+00 -0.00000000000E+00 -0.64771753006E+03  0.64771753006E+03  0.00000000000E+00 0.  1.
         25    2    1    2    0    0  0.46206013153E+01  0.21205704392E+03 -0.14771163542E+03  0.28717012379E+03  0.12513358034E+03 0.  0.
          5    1    3    3  502    0  0.42411954272E+02  0.10399886637E+03 -0.12901026018E+03  0.17110130830E+03  0.41800000000E+01 0. -1.
         -5    1    3    3    0  502 -0.37791352957E+02  0.10805817755E+03 -0.18701375245E+02  0.11606881549E+03  0.41800000000E+01 0. -1.
        -11    1    1    2    0    0 -0.16637457338E+02 -0.10837607685E+03 -0.11821953092E+03  0.16123906633E+03  0.00000000000E+00 0. -1.
         11    1    1    2    0    0  0.12016856023E+02 -0.10368096708E+03 -0.28117353746E+03  0.29992116619E+03  0.00000000000E+00 0.  1.
</event>
<event>
 7    1  0.2412631E-010  0.1043726E+03  0.7561462E-02  0.1271361E+00
          1   -1    0    0  501    0  0.00000000000E+00  0.00000000000E+00  0.28069184016E+02  0.28069184016E+02  0.00000000000E+00 0. -1.
         -1   -1    0    0    0  501 -0.00000000000E+00 -0.00000000000E+00 -0.53882416101E+03  0.53882416101E+03  0.00000000000E+00 0.  1.
         25    2    1    2    0    0 -0.55374535006E+02 -0.10527709494E+02 -0.31664530256E+03  0.34510036764E+03  0.12511132770E+03 0.  0.
          5    1    3    3  502    0 -0.53113992929E+02 -0.45261459155E+02 -0.81582707837E+02  0.10743791951E+03  0.41800000000E+01 0.  1.
         -5    1    3    3    0  502 -0.22605420773E+01  0.34733749661E+02 -0.23506259472E+03  0.23766244814E+03  0.41800000000E+01 0.  1.
        -11    1    1    2    0    0 -0.12898209664E+02  0.30108052209E+02 -0.37249999488E+02  0.49602631807E+02  0.00000000000E+00 0. -1.
         11    1    1    2    0    0  0.68272744670E+02 -0.19580342714E+02 -0.15685967494E+03  0.17219034557E+03  0.00000000000E+00 0.  1.
</event>
<event>
 7    1  0.2412631E-010  0.8106892E+02  0.7561462E-02  0.1326045E+00
         -3   -1    0    0    0  501 -0.00000000000E+00  0.00000000000E+00  0.34646126073E+02  0.34646126073E+02  0.00000000000E+00 0. -1.
          3   -1    0    0  501    0  0.00000000000E+00 -0.00000000000E+00 -0.38671500019E+03  0.38671500019E+03  0.00000000000E+00 0.  1.
         25    2    1    2    0    0 -0.22518295941E+02  0.69851735500E+01 -0.18819158639E+03  0.22721709398E+03  0.12512261309E+03 0.  0.
          5    1    3    3  502    0 -0.44180908583E+01  0.41740559394E+02 -0.82116436022E+01  0.42973216263E+02  0.41800000000E+01 0.  1.
         -5    1    3    3    0  502 -0.18100205083E+02 -0.34755385844E+02 -0.17997994279E+03  0.18424387772E+03  0.41800000000E+01 0.  1.
        -11    1    1    2    0    0 -0.27418639669E+01  0.33075211652E+02 -0.13422589887E+03  0.13826814301E+03  0.00000000000E+00 0.  1.
         11    1    1    2    0    0  0.25260159908E+02 -0.40060385202E+02 -0.29651388855E+02  0.55875889274E+02  0.00000000000E+00 0. -1.
</event>
<event>
 7    1  0.2412631E-010  0.1002597E+03  0.7561462E-02  0.1279751E+00
         -1   -1    0    0    0  501 -0.00000000000E+00  0.00000000000E+00  0.60584874838E+02  0.60584874838E+02  0.00000000000E+00 0.  1.
          1   -1    0    0  501    0  0.00000000000E+00 -0.00000000000E+00 -0.22456211085E+03  0.22456211085E+03  0.00000000000E+00 0. -1.
         25    2    1    2    0    0 -0.45807089894E+02  0.14551449045E+02 -0.10527077122E+03  0.17044709221E+03  0.12514088787E+03 0.  0.
          5    1    3    3  502    0 -0.45545355813E+02 -0.42742105385E+02 -0.16547746262E+02  0.64750037184E+02  0.41800000000E+01 0.  1.
         -5    1    3    3    0  502 -0.26173408096E+00  0.57293554430E+02 -0.88723024956E+02  0.10569705503E+03  0.41800000000E+01 0.  1.
        -11    1    1    2    0    0 -0.83300306411E+01 -0.24101303399E+02 -0.53764386950E+02  0.59505222797E+02  0.00000000000E+00 0. -1.
         11    1    1    2    0    0  0.54137120536E+02  0.95498543539E+01 -0.49420778434E+01  0.55194670680E+02  0.00000000000E+00 0.  1.
</event>
<event>
 6    1  0.2412631E-010  0.1199165E+03  0.7561462E-02  0.1243235E+00
         -2   -1    0    0    0  501 -0.00000000000E+00  0.00000000000E+00  0.16712619245E+02  0.16712619245E+02  0.00000000000E+00 0.  1.
          2   -1    0    0  501    0  0.00000000000E+00 -0.00000000000E+00 -0.10415725931E+04  0.10415725931E+04  0.00000000000E+00 0. -1.
          5    1    1    2  502    0  0.88235592946E+02  0.27664951986E+02 -0.32953503722E+03  0.34228888762E+03  0.41800000000E+01 0.  1.
         -5    1    1    2    0  502 -0.32409527068E+02  0.55822115427E+01 -0.35401898549E+03  0.35556778962E+03  0.41800000000E+01 0.  1.
        -11    1    1    2    0    0 -0.22507178420E+02  0.33010221702E+02 -0.15059932696E+03  0.15580887362E+03  0.00000000000E+00 0.  1.
         11    1    1    2    0    0 -0.33318887458E+02 -0.66257385231E+02 -0.19070662419E+03  0.20461966150E+03  0.00000000000E+00 0. -1.
</event>
<event>
 7    1  0.2412631E-010  0.3712621E+03  0.7561462E-02  0.1054211E+00
         -2   -1    0    0    0  501 -0.00000000000E+00  0.00000000000E+00  0.95351397362E+02  0.95351397362E+02  0.00000000000E+00 0.  1.
          2   -1    0    0  501    0  0.00000000000E+00 -0.00000000000E+00 -0.15000460252E+04  0.15000460252E+04  0.00000000000E+00 0. -1.
         25    2    1    2    0    0  0.20977211637E+03 -0.28895662533E+03 -0.58955414361E+03  0.70051141081E+03  0.12506748696E+03 0.  0.
          5    1    3    3  502    0  0.78446368025E+02 -0.31186228524E+02 -0.91847226923E+02  0.12481906505E+03  0.41800000000E+01 0.  1.
         -5    1    3    3    0  502  0.13132574834E+03 -0.25777039680E+03 -0.49770691669E+03  0.57569234576E+03  0.41800000000E+01 0.  1.
        -11    1    1    2    0    0 -0.20361363143E+03  0.22121925022E+03 -0.68375417901E+03  0.74693791233E+03  0.00000000000E+00 0.  1.
         11    1    1    2    0    0 -0.61584849369E+01  0.67737375112E+02 -0.13138630524E+03  0.14794809944E+03  0.00000000000E+00 0. -1.
</event>
<event>
 6    1  0.2412631E-010  0.1330120E+03  0.7561462E-02  0.1223054E+00
         -2   -1    0    0    0  501 -0.00000000000E+00  0.00000000000E+00  0.40229243187E+02  0.40229243187E+02  0.00000000000E+00 0. -1.
          2   -1    0    0  501    0  0.00000000000E+00 -0.00000000000E+00 -0.52170351352E+03  0.52170351352E+03  0.00000000000E+00 0.  1.
          5    1    1    2  502    0 -0.52302294132E+01 -0.11017396706E+03 -0.97654620709E+02  0.14737555993E+03  0.41800000000E+01 0.  1.
         -5    1    1    2    0  502  0.18984927231E+02  0.28178021227E+02 -0.68411840184E+02  0.76498892930E+02  0.41800000000E+01 0.  1.
        -11    1    1    2    0    0  0.99104166455E+01 -0.16973100452E+02 -0.43546046876E+02  0.47776151955E+02  0.00000000000E+00 0.  1.
         11    1    1    2    0    0 -0.23665114464E+02  0.98969046285E+02 -0.27186176257E+03  0.29028215190E+03  0.00000000000E+00 0. -1.
</event>
<event>
 7    1  0.2412631E-010  0.4836349E+02  0.7561462E-02  0.1454374E+00
         -2   -1    0    0    0  501 -0.00000000000E+00  0.00000000000E+00  0.24768674685E+02  0.24768674685E+02  0.00000000000E+00 0.  1.
          2   -1    0    0  501    0  0.00000000000E+00 -0.00000000000E+00 -0.42245355097E+03  0.42245355097E+03  0.00000000000E+00 0. -1.
         25    2    1    2    0    0  0.23035330353E+02  0.24216774004E+02 -0.18581430583E+03  0.22649138323E+03  0.12511719242E+03 0.  0.
          5    1    3    3  502    0  0.26964709747E+02  0.18508990049E+02  0.68343527337E+01  0.33672823785E+02  0.41800000000E+01 0.  1.
         -5    1    3    3    0  502 -0.39293793942E+01  0.57077839547E+01 -0.19264865857E+03  0.19281855945E+03  0.41800000000E+01 0.  1.
        -11    1    1    2    0    0 -0.17217803420E+02  0.10695069655E+02 -0.35814106569E+02  0.41152004798E+02  0.00000000000E+00 0.  1.
         11    1    1    2    0    0 -0.58175269327E+01 -0.34911843659E+02 -0.17605646388E+03  0.17957883762E+03  0.00000000000E+00 0. -1.
</event>
<event>
 7    1  0.2412631E-010  0.1001818E+03  0.7561462E-02  0.1279914E+00
          1   -1    0    0  501    0  0.00000000000E+00  0.00000000000E+00  0.75783331630E+03  0.75783331630E+03  0.00000000000E+00 0. -1.
         -1   -1    0    0    0  501 -0.00000000000E+00 -0.00000000000E+00 -0.16902952119E+02  0.16902952119E+02  0.00000000000E+00 0.  1.
         25    2    1    2    0    0  0.16217479176E+02  0.28886333735E+01  0.51117899493E+03  0.52652661348E+03  0.12511977863E+03 0.  0.
          5    1    3    3  502    0 -0.18724055752E+01  0.62662623261E+02  0.28526834074E+03  0.29210547561E+03  0.41800000000E+01 0. -1.
         -5    1    3    3    0  502  0.18089884751E+02 -0.59773989888E+02  0.22591065420E+03  0.23442113786E+03  0.41800000000E+01 0. -1.
        -11    1    1    2    0    0 -0.26156018585E+02  0.30457444444E+02  0.45407038181E+02  0.60610167024E+02  0.00000000000E+00 0.  1.
         11    1    1    2    0    0  0.99385394087E+01 -0.33346077817E+02  0.18434433107E+03  0.18759948792E+03  0.00000000000E+00 0. -1.
</event>
<event>
 7    1  0.2412631E-010  0.1437568E+03  0.7561462E-02  0.1208361E+00
          3   -1    0    0  501    0  0.00000000000E+00  0.00000000000E+00  0.42466633064E+02  0.42466633064E+02  0.00000000000E+00 0. -1.
         -3   -1    0    0    0  501 -0.00000000000E+00 -0.00000000000E+00 -0.62651248209E+03  0.62651248209E+03  0.00000000000E+00 0.  1.
         25    2    1    2    0    0 -0.98372853251E+02  0.56980784935E+02 -0.38507901863E+03  0.42055711693E+03  0.12513356823E+03 0.  0.
          5    1    3    3  502    0 -0.52746856706E+02 -0.30160853818E+02 -0.83762317685E+02  0.10356402010E+03  0.41800000000E+01 0.  1.
         -5    1    3    3    0  502 -0.45625996544E+02  0.87141638753E+02 -0.30131670095E+03  0.31699309683E+03  0.41800000000E+01 0.  1.
        -11    1    1    2    0    0  0.51218225406E+02 -0.62358484972E+02 -0.18009435351E+03  0.19734706339E+03  0.00000000000E+00 0.  1.
         11    1    1    2    0    0  0.47154627844E+02  0.53777000370E+01 -0.18872476879E+02  0.51074934835E+02  0.00000000000E+00 0. -1.
</event>
<event>
 6    1  0.2412631E-010  0.7351779E+02  0.7561462E-02  0.1348523E+00
          2   -1    0    0  501    0  0.00000000000E+00  0.00000000000E+00  0.14535573268E+03  0.14535573268E+03  0.00000000000E+00 0. -1.
         -2   -1    0    0    0  501 -0.00000000000E+00 -0.00000000000E+00 -0.10872875155E+03  0.10872875155E+03  0.00000000000E+00 0.  1.
          5    1    1    2  502    0  0.58188553580E+02  0.23687026947E+02  0.44199684426E+02  0.76928977093E+02  0.41800000000E+01 0. -1.
         -5    1    1    2    0  502 -0.12070665131E+02  0.48272455572E+01 -0.58276093537E+02  0.59854646723E+02  0.41800000000E+01 0. -1.
        -11    1    1    2    0    0  0.48655194584E-02 -0.24080687243E+02 -0.20985218594E+02  0.31941492156E+02  0.00000000000E+00 0.  1.
         11    1    1    2    0    0 -0.46122753968E+02 -0.44335852615E+01  0.71688608833E+02  0.85359368251E+02  0.00000000000E+00 0. -1.
</event>
<event>
 7    1  0.2412631E-010  0.2212820E+03  0.7561462E-02  0.1132931E+00
          2   -1    0    0  501    0  0.00000000000E+00  0.00000000000E+00  0.13489889825E+03  0.13489889825E+03  0.00000000000E+00 0. -1.
         -2   -1    0    0    0  501 -0.00000000000E+00 -0.00000000000E+00 -0.37295717191E+03  0.37295717191E+03  0.00000000000E+00 0.  1.
         25    2    1    2    0    0 -0.59686972282E+02 -0.18530094610E+03 -0.10149720289E+03  0.25270270317E+03  0.12513192520E+03 0.  0.
          5    1    3    3  502    0 -0.46419021886E+02 -0.46608974210E+01 -0.39320182713E+02  0.61155528991E+02  0.41800000000E+01 0.  1.
         -5    1    3    3    0  502 -0.13267950396E+02 -0.18064004868E+03 -0.62177020176E+02  0.19154717417E+03  0.41800000000E+01 0.  1.
        -11    1    1    2    0    0 -0.17146979432E+02  0.92470384940E+02 -0.47859547494E+02  0.10552406020E+03  0.00000000000E+00 0.  1.
         11    1    1    2    0    0  0.76833951715E+02  0.92830561165E+02 -0.88701523276E+02  0.14962930680E+03  0.00000000000E+00 0. -1.
</event>
<event>
 6    1  0.2412631E-010  0.1134189E+03  0.7561462E-02  0.1254366E+00
         -2   -1    0    0    0  501 -0.00000000000E+00  0.00000000000E+00  0.57515961855E+02  0.57515961855E+02  0.00000000000E+00 0.  1.
          2   -1    0    0  501    0  0.00000000000E+00 -0.00000000000E+00 -0.34417007766E+03  0.34417007766E+03  0.00000000000E+00 0. -1.
          5    1    1    2  502    0  0.10164945737E+02  0.10941557267E+02 -0.87061762775E+02  0.88432272021E+02  0.41800000000E+01 0.  1.
         -5    1    1    2    0  502 -0.64390250923E+01 -0.90463260244E+02 -0.16880719243E+02  0.92344429070E+02  0.41800000000E+01 0.  1.
        -11    1    1    2    0    0  0.43431245040E+02  0.38357741198E+02 -0.11451311504E+03  0.12833878164E+03  0.00000000000E+00 0.  1.
         11    1    1    2    0    0 -0.47157165685E+02  0.41163961779E+02 -0.68198518742E+02  0.92570556785E+02  0.00000000000E+00 0. -1.
</event>
<event>
 6    1  0.2412631E-010  0.1038127E+03  0.7561462E-02  0.1272477E+00
          1   -1    0    0  501    0  0.00000000000E+00  0.00000000000E+00  0.54888803941E+02  0.54888803941E+02  0.00000000000E+00 0. -1.
         -1   -1    0    0    0  501 -0.00000000000E+00 -0.00000000000E+00 -0.25737054071E+03  0.25737054071E+03  0.00000000000E+00 0.  1.
          5    1    1    2  502    0  0.55761442227E+02 -0.13119291003E+02 -0.87285669675E+00  0.57442915268E+02  0.41800000000E+01 0.  1.
         -5    1    1    2    0  502 -0.36077778690E+02  0.48918891033E+02 -0.68744520362E+02  0.91858290289E+02  0.41800000000E+01 0.  1.
        -11    1    1    2    0    0 -0.44837557591E+02 -0.43984688734E+02 -0.11501303046E+03  0.13104600944E+03  0.00000000000E+00 0.  1.
         11    1    1    2    0    0  0.25153894053E+02  0.81850887037E+01 -0.17851329248E+02  0.31912129654E+02  0.00000000000E+00 0. -1.
</event>
<event>
 7    1  0.2412631E-010  0.1151470E+03  0.7561462E-02  0.1251325E+00
         -2   -1    0    0    0  501 -0.00000000000E+00  0.00000000000E+00  0.22783084552E+03  0.22783084552E+03  0.00000000000E+00 0. -1.
          2   -1    0    0  501    0  0.00000000000E+00 -0.00000000000E+00 -0.62606023294E+02  0.62606023294E+02  0.00000000000E+00 0.  1.
         25    2    1    2    0    0 -0.29520311053E+02 -0.29487365090E+02  0.11178671323E+03  0.17289100830E+03  0.12511625806E+03 0.  0.
          5    1    3    3  502    0  0.26325472169E+02 -0.58108951694E+02  0.32585860834E+02  0.71756473424E+02  0.41800000000E+01 0.  1.
         -5    1    3    3    0  502 -0.55845783222E+02  0.28621586604E+02  0.79200852399E+02  0.10113453487E+03  0.41800000000E+01 0.  1.
        -11    1    1    2    0    0  0.49076710665E+02 -0.17874441498E+02  0.35935260658E+02  0.63398439627E+02  0.00000000000E+00 0. -1.
         11    1    1    2    0    0 -0.19556399612E+02  0.47361806588E+02  0.17502848333E+02  0.54147420888E+02  0.00000000000E+00 0.  1.
</event>
<event>
 6    1  0.2412631E-010  0.1486662E+03  0.7561462E-02  0.1202122E+00
          2   -1    0    0  501    0  0.00000000000E+00  0.00000000000E+00  0.20027056975E+03  0.20027056975E+03  0.00000000000E+00 0. -1.
         -2   -1    0    0    0  501 -0.00000000000E+00 -0.00000000000E+00 -0.13983199678E+03  0.13983199678E+03  0.00000000000E+00 0.  1.
          5    1    1    2  502    0 -0.26857756594E+02  0.14583206752E+02 -0.21124551985E+02  0.37386202067E+02  0.41800000000E+01 0.  1.
         -5    1    1    2    0  502  0.19765114205E+02 -0.13486305787E+03  0.98136751423E+01  0.13672046203E+03  0.41800000000E+01 0.  1.
        -11    1    1    2    0    0  0.17843275617E+02  0.11772366915E+03  0.29973209239E+02  0.12278288983E+03  0.00000000000E+00 0.  1.
         11    1    1    2    0    0 -0.10750633229E+02  0.25561819683E+01  0.41776240578E+02  0.43213012599E+02  0.00000000000E+00 0. -1.
</event>
<event>
 6    1  0.2412631E-010  0.1062105E+03  0.7561462E-02  0.1267753E+00
         -3   -1    0    0    0  501 -0.00000000000E+00  0.00000000000E+00  0.12095253939E+03  0.12095253939E+03  0.00000000000E+00 0.  1.
          3   -1    0    0  501    0  0.00000000000E+00 -0.00000000000E+00 -0.19353035594E+03  0.19353035594E+03  0.00000000000E+00 0. -1.
          5    1    1    2  502    0 -0.27335626412E+02 -0.71699558759E+02  0.10304933667E+02  0.77535329080E+02  0.41800000000E+01 0.  1.
         -5    1    1    2    0  502  0.17421008294E+01  0.41910849753E+02  0.54304015059E+02  0.68745564903E+02  0.41800000000E+01 0.  1.
        -11    1    1    2    0    0 -0.17426890297E+02  0.44628851019E+02 -0.93792555924E+02  0.10532081653E+03  0.00000000000E+00 0. -1.
         11    1    1    2    0    0  0.43020415879E+02 -0.14840142013E+02 -0.43394209357E+02  0.62881184810E+02  0.00000000000E+00 0.  1.
</event>
<event>
 7    1  0.2412631E-010  0.3401093E+03  0.7561462E-02  0.1066749E+00
          2   -1    0    0  501    0  0.00000000000E+00  0.00000000000E+00  0.14887546491E+04  0.14887546491E+04  0.00000000000E+00 0. -1.
         -2   -1    0    0    0  501 -0.00000000000E+00 -0.00000000000E+00 -0.83371724642E+02  0.83371724642E+02  0.00000000000E+00 0.  1.
         25    2    1    2    0    0  0.27570857606E+03  0.18919317682E+03  0.67166317354E+03  0.76064511901E+03  0.12506119027E+03 0.  0.
          5    1    3    3  502    0  0.86036423614E+01  0.36356109290E+02  0.15292205534E+03  0.15747513059E+03  0.41800000000E+01 0.  1.
         -5    1    3    3    0  502  0.26710493370E+03  0.15283706753E+03  0.51874111820E+03  0.60316998842E+03  0.41800000000E+01 0.  1.
        -11    1    1    2    0    0 -0.24461416095E+03 -0.16067445740E+03  0.69543704491E+03  0.75450980937E+03  0.00000000000E+00 0. -1.
         11    1    1    2    0    0 -0.31094415107E+02 -0.28518719424E+02  0.38282706018E+02  0.56971445379E+02  0.00000000000E+00 0.  1.
</event>
<event>
 6    1  0.2412631E-010  0.1433099E+03  0.7561462E-02  0.1208943E+00
          1   -1    0    0  501    0  0.00000000000E+00  0.00000000000E+00  0.11582217597E+03  0.11582217597E+03  0.00000000000E+00 0. -1.
         -1   -1    0    0    0  501 -0.00000000000E+00 -0.00000000000E+00 -0.22767214395E+03  0.22767214395E+03  0.00000000000E+00 0.  1.
          5    1    1    2  502    0 -0.38521979429E+02 -0.14461523303E+02 -0.42920097583E+02  0.59604410340E+02  0.41800000000E+01 0. -1.
         -5    1    1    2    0  502  0.34863850777E+02 -0.96063881197E+02  0.33300920914E+02  0.10756477628E+03  0.41800000000E+01 0. -1.
        -11    1    1    2    0    0  0.47178633920E+02  0.56578178692E+02 -0.61241964797E+02  0.95799227841E+02  0.00000000000E+00 0.  1.
         11    1    1    2    0    0 -0.43520505268E+02  0.53947225807E+02 -0.40988826514E+02  0.80525905459E+02  0.00000000000E+00 0. -1.
</event>
<event>
 6    1  0.2412631E-010  0.2173229E+03  0.7561462E-02  0.1135895E+00
          1   -1    0    0  501    0  0.00000000000E+00  0.00000000000E+00  0.13040301503E+04  0.13040301503E+04  0.00000000000E+00 0. -1.
         -1   -1    0    0    0  501 -0.00000000000E+00 -0.00000000000E+00 -0.39505657453E+02  0.39505657453E+02  0.00000000000E+00 0.  1.
          5    1    1    2  502    0  0.38860044606E+02 -0.13116642888E+02  0.17351611921E+03  0.17834647575E+03  0.41800000000E+01 0. -1.
         -5    1    1    2    0  502  0.69715402390E+02  0.17636095307E+03  0.58062136427E+03  0.61082081181E+03  0.41800000000E+01 0. -1.
        -11    1    1    2    0    0 -0.91021152383E+02 -0.88493143992E+02  0.40178743331E+03  0.42136567050E+03  0.00000000000E+00 0. -1.
         11    1    1    2    0    0 -0.17554294613E+02 -0.74751166188E+02  0.10859957610E+03  0.13300284973E+03  0.00000000000E+00 0.  1.
</event>
<event>
 6    1  0.2412631E-010  0.1052119E+03  0.7561462E-02  0.1269703E+00
          2   -1    0    0  501    0  0.00000000000E+00  0.00000000000E+00  0.75132237992E+02  0.75132237992E+02  0.00000000000E+00 0. -1.
         -2   -1    0    0    0  501 -0.00000000000E+00 -0.00000000000E+00 -0.19473436207E+03  0.19473436207E+03  0.00000000000E+00 0.  1.
          5    1    1    2  502    0 -0.39107624091E+02 -0.28571247625E+01 -0.50601146657E+02  0.64152302117E+02  0.41800000000E+01 0.  1.
         -5    1    1    2    0  502  0.58991808903E+02 -0.41332610792E+02  0.17201436378E+02  0.74173984967E+02  0.41800000000E+01 0.  1.
        -11    1    1    2    0    0 -0.49653987836E+02  0.54079218543E+01 -0.36838206422E+02  0.62063012972E+02  0.00000000000E+00 0.  1.
         11    1    1    2    0    0  0.29769803024E+02  0.38781813701E+02 -0.49364207377E+02  0.69477300005E+02  0.00000000000E+00 0. -1.
</event>
<event>
 7    1  0.2412631E-010  0.9390361E+02  0.7561462E-02  0.1293665E+00
         -1   -1    0    0    0  501 -0.00000000000E+00  0.00000000000E+00  0.14261165120E+03  0.14261165120E+03  0.00000000000E+00 0. -1.
          1   -1    0    0  501    0  0.00000000000E+00 -0.00000000000E+00 -0.11957430733E+03  0.11957430733E+03  0.00000000000E+00 0.  1.
         25    2    1    2    0    0  0.69528758807E+02  0.17494715833E+02  0.23907643361E+02  0.14619367791E+03  0.12514272918E+03 0.  0.
          5    1    3    3  502    0  0.37260448753E+02  0.51507927841E+02  0.59506661855E+02  0.87177536538E+02  0.41800000000E+01 0. -1.
         -5    1    3    3    0  502  0.32268310054E+02 -0.34013212007E+02 -0.35599018494E+02  0.59016141373E+02  0.41800000000E+01 0. -1.
        -11    1    1    2    0    0 -0.47801751513E+02 -0.25121392246E+02 -0.42298433410E+02  0.68594819520E+02  0.00000000000E+00 0.  1.
         11    1    1    2    0    0 -0.21727007294E+02  0.76266764128E+01  0.41428133916E+02  0.47397461101E+02  0.00000000000E+00 0. -1.
</event>
<event>
 6    1  0.2412631E-010  0.1129356E+03  0.7561462E-02  0.1255228E+00
         -2   -1    0    0    0  501 -0.00000000000E+00  0.00000000000E+00  0.20608382971E+02  0.20608382971E+02  0.00000000000E+00 0. -1.
          2   -1    0    0  501    0  0.00000000000E+00 -0.00000000000E+00 -0.83864427273E+03  0.83864427273E+03  0.00000000000E+00 0.  1.
          5    1    1    2  502    0 -0.83547969925E+01  0.69492016754E+02 -0.31006195138E+03  0.31789122215E+03  0.41800000000E+01 0.  1.
         -5    1    1    2    0  502  0.41982802291E+02 -0.43712405433E+02 -0.34046121354E+03  0.34583903829E+03  0.41800000000E+01 0.  1.
        -11    1    1    2    0    0  0.18688049339E+02 -0.37040540349E+02 -0.41801846954E+02  0.58895154522E+02  0.00000000000E+00 0.  1.
         11    1    1    2    0    0 -0.52316054637E+02  0.11260929028E+02 -0.12571087788E+03  0.13662724075E+03  0.00000000000E+00 0. -1.
</event>
<event>
 7    1  0.2412631E-010  0.9566395E+02  0.7561462E-02  0.1289688E+00
          1   -1    0    0  501    0  0.00000000000E+00  0.00000000000E+00  0.34931602243E+03  0.34931602243E+03  0.00000000000E+00 0. -1.
         -1   -1    0    0    0  501 -0.00000000000E+00 -0.00000000000E+00 -0.55930424268E+02  0.55930424268E+02  0.00000000000E+00 0.  1.
         25    2    1    2    0    0 -0.12616935024E+02 -0.69608383119E+02  0.23055383328E+03  0.27166285609E+03  0.12506447652E+03 0.  0.
          5    1    3    3  502    0 -0.43220520517E+02 -0.54524711914E+02  0.22658125103E+03  0.23706010487E+03  0.41800000000E+01 0. -1.
         -5    1    3    3    0  502  0.30603585493E+02 -0.15083671205E+02  0.39725822494E+01  0.34602751217E+02  0.41800000000E+01 0. -1.
        -11    1    1    2    0    0  0.49655410015E+01  0.76675284590E+02  0.74108861899E+01  0.77192467887E+02  0.00000000000E+00 0.  1.
         11    1    1    2    0    0  0.76513940229E+01 -0.70669014706E+01  0.55420878686E+02  0.56391122716E+02  0.00000000000E+00 0. -1.
</event>
<event>
 7    1  0.2412631E-010  0.7867148E+02  0.7561462E-02  0.1332864E+00
          2   -1    0    0  501    0  0.00000000000E+00  0.00000000000E+00  0.27037682293E+03  0.27037682293E+03  0.00000000000E+00 0.  1.
         -2   -1    0    0    0  501 -0.00000000000E+00 -0.00000000000E+00 -0.46124069315E+02  0.46124069315E+02  0.00000000000E+00 0. -1.
         25    2    1    2    0    0 -0.87461964461E+01 -0.51049422212E+01  0.16131747091E+03  0.20440236804E+03  0.12511772557E+03 0.  0.
          5    1    3    3  502    0  0.12980041932E+02 -0.35733482101E+02 -0.48171819870E+00  0.38250067765E+02  0.41800000000E+01 0. -1.
         -5    1    3    3    0  502 -0.21726238378E+02  0.30628539880E+02  0.16179918911E+03  0.16615230027E+03  0.41800000000E+01 0. -1.
        -11    1    1    2    0    0 -0.12001694134E+02  0.39423223833E+02  0.58772432872E+02  0.71780429820E+02  0.00000000000E+00 0.  1.
         11    1    1    2    0    0  0.20747890580E+02 -0.34318281612E+02  0.41628498329E+01  0.40318094387E+02  0.00000000000E+00 0. -1.
</event>
<event>
 7    1  0.2412631E-010  0.1966673E+03  0.7561462E-02  0.1152582E+00
          1   -1    0    0  501    0  0.00000000000E+00  0.00000000000E+00  0.22912101925E+04  0.22912101925E+04  0.00000000000E+00 0. -1.
         -1   -1    0    0    0  501 -0.00000000000E+00 -0.00000000000E+00 -0.24828724110E+02  0.24828724110E+02  0.00000000000E+00 0.  1.
         25    2    1    2    0    0  0.12177157103E+03  0.11753791643E+03  0.17896774491E+04  0.18020075073E+04  0.12506880985E+03 0.  0.
          5    1    3    3  502    0  0.21276249705E+02  0.97551245517E+02  0.63867455729E+03  0.64644534713E+03  0.41800000000E+01 0. -1.
         -5    1    3    3    0  502  0.10049532132E+03  0.19986670914E+02  0.11510028918E+04  0.11555621601E+04  0.41800000000E+01 0. -1.
        -11    1    1    2    0    0  0.14150124065E+02 -0.77671233594E+01  0.25461891164E+02  0.30147340147E+02  0.00000000000E+00 0.  1.
         11    1    1    2    0    0 -0.13592169509E+03 -0.10977079307E+03  0.45124212819E+03  0.48388406924E+03  0.00000000000E+00 0. -1.
</event>
<event>
 7    1  0.2412631E-010  0.9230470E+02  0.7561462E-02  0.1297365E+00
         -2   -1    0    0    0  501 -0.00000000000E+00  0.00000000000E+00  0.22025349637E+02  0.22025349637E+02  0.00000000000E+00 0.  1.
          2   -1    0    0  501    0  0.00000000000E+00 -0.00000000000E+00 -0.72186614312E+03  0.72186614312E+03  0.00000000000E+00 0. -1.
         25    2    1    2    0    0  0.24428919801E+02  0.29351692175E+02 -0.54477193608E+03  0.56024500550E+03  0.12505882573E+03 0.  0.
          5    1    3    3  502    0  0.48802287166E+02  0.59221011676E+02 -0.21739326306E+03  0.23057774108E+03  0.41800000000E+01 0. -1.
         -5    1    3    3    0  502 -0.24373367366E+02 -0.29869319502E+02 -0.32737867301E+03  0.32966726442E+03  0.41800000000E+01 0. -1.
        -11    1    1    2    0    0  0.43082852831E+01 -0.38562355786E+02 -0.14752232138E+03  0.15254000102E+03  0.00000000000E+00 0. -1.
         11    1    1    2    0    0 -0.28737205084E+02  0.92106636111E+01 -0.75465360274E+01  0.31106486240E+02  0.00000000000E+00 0.  1.
</event>
<event>
 6    1  0.2412631E-010  0.9947037E+02  0.7561462E-02  0.1281414E+00
          2   -1    0    0  501    0  0.00000000000E+00  0.00000000000E+00  0.28838285987E+02  0.28838285987E+02  0.00000000000E+00 0. -1.
         -2   -1    0    0    0  501 -0.00000000000E+00 -0.00000000000E+00 -0.84577329199E+03  0.84577329199E+03  0.00000000000E+00 0.  1.
          5    1    1    2  502    0 -0.17993298984E+02  0.22786283489E+01 -0.74478185213E+01  0.20047278025E+02  0.41800000000E+01 0. -1.
         -5    1    1    2    0  502 -0.33331160603E+02 -0.76835412620E+02 -0.61940902678E+03  0.62505972656E+03  0.41800000000E+01 0. -1.
        -11    1    1    2    0    0  0.29239245397E+02  0.67043927381E+02 -0.19261893419E+03  0.20603852911E+03  0.00000000000E+00 0.  1.
         11    1    1    2    0    0  0.22085214190E+02  0.75128568904E+01  0.25407734929E+01  0.23466044285E+02  0.00000000000E+00 0. -1.
</event>
<event>
 6    1  0.2412631E-010  0.1025371E+03  0.7561462E-02  0.1275049E+00
         -1   -1    0    0    0  501 -0.00000000000E+00  0.00000000000E+00  0.19818143274E+03  0.19818143274E+03  0.00000000000E+00 0.  1.
          1   -1    0    0  501    0  0.00000000000E+00 -0.00000000000E+00 -0.10680167955E+03  0.10680167955E+03  0.00000000000E+00 0. -1.
          5    1    1    2  502    0 -0.44263038673E+02 -0.26117042673E+02 -0.18008233365E+01  0.51594882258E+02  0.41800000000E+01 0.  1.
         -5    1    1    2    0  502  0.84456706021E+02 -0.23707226764E+02 -0.24302192247E+02  0.91121000547E+02  0.41800000000E+01 0.  1.
        -11    1    1    2    0    0 -0.30642023706E+02  0.46274905708E+02  0.13276535905E+03  0.14389906559E+03  0.00000000000E+00 0.  1.
         11    1    1    2    0    0 -0.95516436415E+01  0.35493637283E+01 -0.15282590276E+02  0.18368163889E+02  0.00000000000E+00 0. -1.
</event>
<event>
 6    1  0.2412631E-010  0.1136877E+03  0.7561462E-02  0.1253889E+00
          1   -1    0    0  501    0  0.00000000000E+00  0.00000000000E+00  0.54610373120E+03  0.54610373120E+03  0.00000000000E+00 0. -1.
         -1   -1    0    0    0  501 -0.00000000000E+00 -0.00000000000E+00 -0.32515628146E+02  0.32515628146E+02  0.00000000000E+00 0.  1.
          5    1    1    2  502    0  0.22090922064E+02 -0.15893195597E+02  0.15083418822E+01  0.27574444676E+02  0.41800000000E+01 0. -1.
         -5    1    1    2    0  502 -0.88205379943E+02 -0.69065718648E+01  0.20965015102E+03  0.22759294367E+03  0.41800000000E+01 0. -1.
        -11    1    1    2    0    0 -0.21280144680E+02  0.73805280622E+01  0.98622601992E+02  0.10116192157E+03  0.00000000000E+00 0. -1.
         11    1    1    2    0    0  0.87394602559E+02  0.15419239400E+02  0.20380700816E+03  0.22229004943E+03  0.00000000000E+00 0.  1.
</event>
<event>
 6    1  0.2412631E-010  0.7903498E+02  0.7561462E-02  0.1331813E+00
         -4   -1    0    0    0  501 -0.00000000000E+00  0.00000000000E+00  0.36685487934E+02  0.36685487934E+02  0.00000000000E+00 0. -1.
          4   -1    0    0  501    0  0.00000000000E+00 -0.00000000000E+00 -0.38286333632E+03  0.38286333632E+03  0.00000000000E+00 0.  1.
          5    1    1    2  502    0  0.39050263296E+02  0.79658144917E+01 -0.17779747832E+02  0.43840267985E+02  0.41800000000E+01 0.  1.
         -5    1    1    2    0  502 -0.40360119387E+02 -0.16373662416E+02 -0.22780672728E+03  0.23197071680E+03  0.41800000000E+01 0.  1.
        -11    1    1    2    0    0  0.23564889597E+02  0.33336529669E+02 -0.34043721260E+01  0.40966058898E+02  0.00000000000E+00 0. -1.
         11    1    1    2    0    0 -0.22255033506E+02 -0.24928681744E+02 -0.97187001147E+02  0.10277178057E+03  0.00000000000E+00 0.  1.
</event>
<event>
 7    1  0.2412631E-010  0.1924522E+03  0.7561462E-02  0.1156268E+00
         -1   -1    0    0    0  501 -0.00000000000E+00  0.00000000000E+00  0.48561327649E+03  0.48561327649E+03  0.00000000000E+00 0.  1.
          1   -1    0    0  501    0  0.00000000000E+00 -0.00000000000E+00 -0.14450659890E+03  0.14450659890E+03  0.00000000000E+00 0. -1.
         25    2    1    2    0    0 -0.74328244630E+02  0.15628570784E+03 -0.24730327537E+02  0.21494008017E+03  0.12505094377E+03 0.  0.
          5    1    3    3  502    0 -0.16450455305E+02  0.15258301882E+03 -0.30443636987E+02  0.15651352192E+03  0.41800000000E+01 0. -1.
         -5    1    3    3    0  502 -0.57877789324E+02  0.37026890197E+01  0.57133094508E+01  0.58426558241E+02  0.41800000000E+01 0. -1.
        -11    1    1    2    0    0  0.30179987417E+02 -0.54796575024E+02  0.23802611141E+03  0.24610958126E+03  0.00000000000E+00 0.  1.
         11    1    1    2    0    0  0.44148257212E+02 -0.10148913282E+03  0.12781089373E+03  0.16907021397E+03  0.00000000000E+00 0. -1.
</event>
<event>
 6    1  0.2412631E-010  0.1431029E+03  0.7561462E-02  0.1209214E+00
         -2   -1    0    0    0  501 -0.00000000000E+00  0.00000000000E+00  0.31305390713E+02  0.31305390713E+02  0.00000000000E+00 0.  1.
          2   -1    0    0  501    0  0.00000000000E+00 -0.00000000000E+00 -0.93386003209E+03  0.93386003209E+03  0.00000000000E+00 0. -1.
          5    1    1    2  502    0  0.10401968992E+03  0.96650068875E+02 -0.59239944104E+03  0.60919282813E+03  0.41800000000E+01 0. -1.
         -5    1    1    2    0  502 -0.21659089060E+02 -0.94682504095E+01 -0.41377311476E+02  0.47836369111E+02  0.41800000000E+01 0. -1.
        -11    1    1    2    0    0 -0.25087628865E+02 -0.21868046931E+02 -0.93768252480E+01  0.34576371273E+02  0.00000000000E+00 0.  1.
         11    1    1    2    0    0 -0.57272971998E+02 -0.65313771535E+02 -0.25940106361E+03  0.27355985428E+03  0.00000000000E+00 0. -1.
</event>
<event>
 7    1  0.2412631E-010  0.1357804E+03  0.7561462E-02  0.1219122E+00
         -2   -1    0    0    0  501 -0.00000000000E+00  0.00000000000E+00  0.66565533662E+02  0.66565533662E+02  0.00000000000E+00 0.  1.
          2   -1    0    0  501    0  0.00000000000E+00 -0.00000000000E+00 -0.32307819169E+03  0.32307819169E+03  0.00000000000E+00 0. -1.
         25    2    1    2    0    0  0.72276641427E+02 -0.64978738516E+02 -0.12003801234E+03  0.19872631636E+03  0.12504749120E+03 0.  0.
          5    1    3    3  502    0  0.84031562275E+02 -0.84244119687E+02 -0.12763767998E+03  0.17454863194E+03  0.41800000000E+01 0. -1.
         -5    1    3    3    0  502 -0.11754920848E+02  0.19265381171E+02  0.75996676458E+01  0.24177684425E+02  0.41800000000E+01 0. -1.
        -11    1    1    2    0    0 -0.91538841348E+02  0.60636814336E+02 -0.95861809382E+02  0.14575894218E+03  0.00000000000E+00 0.  1.
         11    1    1    2    0    0  0.19262199921E+02  0.43419241803E+01 -0.40612836310E+02  0.45158466809E+02  0.00000000000E+00 0. -1.
</event>
<event>
 7    1  0.2412631E-010  0.1396362E+03  0.7561462E-02  0.1213819E+00
          1   -1    0    0  501    0  0.00000000000E+00  0.00000000000E+00  0.79545284099E+03  0.79545284099E+03  0.00000000000E+00 0. -1.
         -1   -1    0    0    0  501 -0.00000000000E+00 -0.00000000000E+00 -0.30696345449E+02  0.30696345449E+02  0.00000000000E+00 0.  1.
         25    2    1    2    0    0  0.87133092784E+02 -0.73003242436E+02  0.36199264846E+03  0.39949544917E+03  0.12504514029E+03 0.  0.
          5    1    3    3  502    0 -0.25938981944E+02 -0.39779243555E+02  0.71046488218E+02  0.85558721883E+02  0.41800000000E+01 0. -1.
         -5    1    3    3    0  502  0.11307207473E+03 -0.33223998881E+02  0.29094616024E+03  0.31393672729E+03  0.41800000000E+01 0. -1.
        -11    1    1    2    0    0 -0.35007702502E+02  0.29380171077E+02  0.51417863546E+02  0.68793389062E+02  0.00000000000E+00 0.  1.
         11    1    1    2    0    0 -0.52125390282E+02  0.43623071359E+02  0.35134598353E+03  0.35786034820E+03  0.00000000000E+00 0. -1.
</event>
<event>
 7    1  0.2412631E-010  0.1102411E+03  0.7561462E-02  0.1260124E+00
         -2   -1    0    0    0  501 -0.00000000000E+00  0.00000000000E+00  0.30211764159E+02  0.30211764159E+02  0.00000000000E+00 0.  1.
          2   -1    0    0  501    0  0.00000000000E+00 -0.00000000000E+00 -0.60598192375E+03  0.60598192375E+03  0.00000000000E+00 0. -1.
         25    2    1    2    0    0  0.22282506950E+02 -0.69847148446E+02 -0.24029152265E+03  0.28065723429E+03  0.12511328082E+03 0.  0.
          5    1    3    3  502    0  0.64451117894E+02 -0.51572086965E+02 -0.84606558382E+02  0.11827666242E+03  0.41800000000E+01 0.  1.
         -5    1    3    3    0  502 -0.42168610944E+02 -0.18275061481E+02 -0.15568496427E+03  0.16238057187E+03  0.41800000000E+01 0.  1.
        -11    1    1    2    0    0 -0.32236028346E+02  0.74139209971E+02 -0.33507466361E+03  0.34468944598E+03  0.00000000000E+00 0. -1.
         11    1    1    2    0    0  0.99535213969E+01 -0.42920615251E+01 -0.40397333282E+00  0.10847007642E+02  0.00000000000E+00 0.  1.
</event>
<event>
 6    1  0.2412631E-010  0.1283321E+03  0.7561462E-02  0.1229952E+00
         -2   -1    0    0    0  501 -0.00000000000E+00  0.00000000000E+00  0.96291045267E+02  0.96291045267E+02  0.00000000000E+00 0.  1.
          2   -1    0    0  501    0  0.00000000000E+00 -0.00000000000E+00 -0.29361552505E+03  0.29361552505E+03  0.00000000000E+00 0. -1.
          5    1    1    2  502    0 -0.51039328579E+01 -0.55162402075E+02 -0.13031712507E+03  0.14166497881E+03  0.41800000000E+01 0. -1.
         -5    1    1    2    0  502 -0.26842598555E+02 -0.68315970949E+02  0.87078974828E+01  0.74033079515E+02  0.41800000000E+01 0. -1.
        -11    1    1    2    0    0  0.17015684202E+02  0.72468441472E+02  0.81870128535E+01  0.74888154588E+02  0.00000000000E+00 0.  1.
         11    1    1    2    0    0  0.14930847211E+02  0.51009931553E+02 -0.83902265051E+02  0.99320357410E+02  0.00000000000E+00 0. -1.
</event>
<event>
 6    1  0.2412631E-010  0.1035945E+03  0.7561462E-02  0.1272914E+00
          1   -1    0    0  501    0  0.00000000000E+00  0.00000000000E+00  0.16419408530E+03  0.16419408530E+03  0.00000000000E+00 0. -1.
         -1   -1    0    0    0  501 -0.00000000000E+00 -0.00000000000E+00 -0.92815812270E+02  0.92815812270E+02  0.00000000000E+00 0.  1.
          5    1    1    2  502    0 -0.67981615197E+02  0.94485962721E+01  0.10366650278E+02  0.69539311287E+02  0.41800000000E+01 0. -1.
         -5    1    1    2    0  502  0.39331830174E+02  0.13660336819E+02  0.76160389214E+02  0.86899222966E+02  0.41800000000E+01 0. -1.
        -11    1    1    2    0    0  0.57826612273E+02 -0.31986087164E+02 -0.21356210169E+02  0.69448647012E+02  0.00000000000E+00 0. -1.
         11    1    1    2    0    0 -0.29176827250E+02  0.88771540726E+01  0.62074437076E+01  0.31122716305E+02  0.00000000000E+00 0.  1.
</event>
<event>
 7    1  0.2412631E-010  0.2327880E+03  0.7561462E-02  0.1124693E+00
          2   -1    0    0  501    0  0.00000000000E+00  0.00000000000E+00  0.14246671486E+04  0.14246671486E+04  0.00000000000E+00 0. -1.
         -2   -1    0    0    0  501 -0.00000000000E+00 -0.00000000000E+00 -0.40534883973E+02  0.40534883973E+02  0.00000000000E+00 0.  1.
         25    2    1    2    0    0  0.10304325693E+03  0.18696633609E+03  0.72976281430E+03  0.77057223496E+03  0.12511387025E+03 0.  0.
          5    1    3    3  502    0 -0.17659730627E+02  0.82329052496E+02  0.19499278637E+03  0.21243728041E+03  0.41800000000E+01 0.  1.
         -5    1    3    3    0  502  0.12070298755E+03  0.10463728360E+03  0.53477002793E+03  0.55813495455E+03  0.41800000000E+01 0.  1.
        -11    1    1    2    0    0 -0.46345102055E+02 -0.31626177620E+02  0.27690019370E+03  0.28252752232E+03  0.00000000000E+00 0. -1.
         11    1    1    2    0    0 -0.56698154872E+02 -0.15534015847E+03  0.37746925659E+03  0.41210227525E+03  0.00000000000E+00 0.  1.
</event>
<event>
 7    1  0.2412631E-010  0.6790885E+02  0.7561462E-02  0.1367352E+00
          2   -1    0    0  501    0  0.00000000000E+00  0.00000000000E+00  0.91815570766E+02  0.91815570766E+02  0.00000000000E+00 0. -1.
         -2   -1    0    0    0  501 -0.00000000000E+00 -0.00000000000E+00 -0.23037596874E+03  0.23037596874E+03  0.00000000000E+00 0.  1.
         25    2    1    2    0    0 -0.35811869968E+02  0.36260259156E+02 -0.16899419874E+03  0.21636021141E+03  0.12512156269E+03 0.  0.
          5    1    3    3  502    0 -0.48089518623E+02  0.41254296727E+02 -0.18474599989E+03  0.19535371938E+03  0.41800000000E+01 0.  1.
         -5    1    3    3    0  502  0.12277648655E+02 -0.49940375712E+01  0.15751801156E+02  0.21006492030E+02  0.41800000000E+01 0.  1.
        -11    1    1    2    0    0  0.36900915388E+02 -0.19708502451E+02 -0.24477685792E+02  0.48469162641E+02  0.00000000000E+00 0.  1.
         11    1    1    2    0    0 -0.10890454197E+01 -0.16551756705E+02  0.54911486555E+02  0.57362165454E+02  0.00000000000E+00 0. -1.
</event>
<event>
 6    1  0.2412631E-010  0.8947980E+02  0.7561462E-02  0.1304116E+00
          2   -1    0    0  501    0  0.00000000000E+00  0.00000000000E+00  0.24287301925E+03  0.24287301925E+03  0.00000000000E+00 0. -1.
         -2   -1    0    0    0  501 -0.00000000000E+00 -0.00000000000E+00 -0.61616452923E+02  0.61616452923E+02  0.00000000000E+00 0.  1.
          5    1    1    2  502    0 -0.49653766635E+02  0.23263128074E+02 -0.12802986434E+02  0.56462895165E+02  0.41800000000E+01 0.  1.
         -5    1    1    2    0  502  0.48576594436E+02 -0.16417222617E+02  0.56235261477E+02  0.76217371766E+02  0.41800000000E+01 0.  1.
        -11    1    1    2    0    0 -0.18203655493E+02 -0.34383483934E+02  0.10748910343E+02  0.40362558322E+02  0.00000000000E+00 0.  1.
         11    1    1    2    0    0  0.19280827692E+02  0.27537578477E+02  0.12707538094E+03  0.13144664691E+03  0.00000000000E+00 0. -1.
</event>
<event>
 7    1  0.2412631E-010  0.1757864E+03  0.7561462E-02  0.1171944E+00
         -2   -1    0    0    0  501 -0.00000000000E+00  0.00000000000E+00  0.82447438629E+02  0.82447438629E+02  0.00000000000E+00 0.  1.
          2   -1    0    0  501    0  0.00000000000E+00 -0.00000000000E+00 -0.51146227260E+03  0.51146227260E+03  0.00000000000E+00 0. -1.
         25    2    1    2    0    0 -0.15243491260E+03  0.44304248195E+02 -0.12064434524E+03  0.23535411127E+03  0.12504891310E+03 0.  0.
          5    1    3    3  502    0 -0.63364055965E+02 -0.11070978708E+02 -0.11302433435E+03  0.13011357620E+03  0.41800000000E+01 0.  1.
         -5    1    3    3    0  502 -0.89070856632E+02  0.55375226902E+02 -0.76200108928E+01  0.10524053507E+03  0.41800000000E+01 0.  1.
        -11    1    1    2    0    0  0.11682867894E+03  0.99526811418E+01 -0.21414942715E+03  0.24414744159E+03  0.00000000000E+00 0.  1.
         11    1    1    2    0    0  0.35606233655E+02 -0.54256929336E+02 -0.94221061587E+02  0.11440815837E+03  0.00000000000E+00 0. -1.
</event>
<event>
 6    1  0.2412631E-010  0.9468633E+02  0.7561462E-02  0.1291884E+00
          1   -1    0    0  501    0  0.00000000000E+00  0.00000000000E+00  0.16012028617E+03  0.16012028617E+03  0.00000000000E+00 0. -1.
         -1   -1    0    0    0  501 -0.00000000000E+00 -0.00000000000E+00 -0.87455454923E+02  0.87455454923E+02  0.00000000000E+00 0.  1.
          5    1    1    2  502    0 -0.29880276656E+02 -0.42958436288E+02  0.52934032342E+01  0.52761261349E+02  0.41800000000E+01 0. -1.
         -5    1    1    2    0  502  0.35213582206E+02  0.65231021599E+02 -0.74126042079E+01  0.74615693066E+02  0.41800000000E+01 0. -1.
        -11    1    1    2    0    0 -0.82846827617E+01  0.19274330287E+02 -0.11833821104E+02  0.24086824166E+02  0.00000000000E+00 0.  1.
         11    1    1    2    0    0  0.29513772122E+01 -0.41546915598E+02  0.86617853320E+02  0.96111962507E+02  0.00000000000E+00 0. -1.
</event>
<event>
 7    1  0.2412631E-010  0.7372025E+02  0.7561462E-02  0.1347880E+00
          4   -1    0    0  501    0  0.00000000000E+00  0.00000000000E+00  0.97450566665E+02  0.97450566665E+02  0.00000000000E+00 0. -1.
         -4   -1    0    0    0  501 -0.00000000000E+00 -0.00000000000E+00 -0.14321242537E+03  0.14321242537E+03  0.00000000000E+00 0.  1.
         25    2    1    2    0    0  0.18174299303E+02 -0.43165910084E+02 -0.33402657436E+02  0.13770474362E+03  0.12511298072E+03 0.  0.
          5    1    3    3  502    0 -0.89382506924E+01 -0.61950521312E+01  0.45164572239E+02  0.46643134349E+02  0.41800000000E+01 0. -1.
         -5    1    3    3    0  502  0.27112549995E+02 -0.36970857952E+02 -0.78567229675E+02  0.91061609275E+02  0.41800000000E+01 0. -1.
        -11    1    1    2    0    0 -0.36017473194E+02 -0.68376960182E+01  0.19005124783E+02  0.41294154915E+02  0.00000000000E+00 0. -1.
         11    1    1    2    0    0  0.17843173892E+02  0.50003606102E+02 -0.31364326049E+02  0.61664093493E+02  0.00000000000E+00 0.  1.
</event>
<event>
 7    1  0.2412631E-010  0.2630740E+03  0.7561462E-02  0.1105310E+00
          1   -1    0    0  501    0  0.00000000000E+00  0.00000000000E+00  0.11941031398E+03  0.11941031398E+03  0.00000000000E+00 0. -1.
         -1   -1    0    0    0  501 -0.00000000000E+00 -0.00000000000E+00 -0.10317467406E+04  0.10317467406E+04  0.00000000000E+00 0.  1.
         25    2    1    2    0    0 -0.13359007778E+03  0.19703824247E+03 -0.83206249027E+03  0.87443550082E+03  0.12505630536E+03 0.  0.
          5    1    3    3  502    0 -0.24779889912E+02  0.14011694561E+03 -0.37385427922E+03  0.40003911794E+03  0.41800000000E+01 0. -1.
         -5    1    3    3    0  502 -0.10881018786E+03  0.56921296862E+02 -0.45820821105E+03  0.47439638288E+03  0.41800000000E+01 0. -1.
        -11    1    1    2    0    0  0.25198414268E+01 -0.94441836983E+02 -0.66287808290E+01  0.94707713037E+02  0.00000000000E+00 0.  1.
         11    1    1    2    0    0  0.13107023635E+03 -0.10259640549E+03 -0.73645155507E+02  0.18201384070E+03  0.00000000000E+00 0. -1.
</event>
<event>
 7    1  0.2412631E-010  0.8475787E+02  0.7561462E-02  0.1316067E+00
          2   -1    0    0  501    0  0.00000000000E+00  0.00000000000E+00  0.33149780997E+03  0.33149780997E+03  0.00000000000E+00 0. -1.
         -2   -1    0    0    0  501 -0.00000000000E+00 -0.00000000000E+00 -0.51670502889E+02  0.51670502889E+02  0.00000000000E+00 0.  1.
         25    2    1    2    0    0 -0.58675338446E+02 -0.23248034703E+02  0.10677643665E+03  0.17613931888E+03  0.12506232755E+03 0.  0.
          5    1    3    3  502    0 -0.29951412803E+02  0.21818306031E+02  0.11591061511E+03  0.12176152390E+03  0.41800000000E+01 0. -1.
         -5    1    3    3    0  502 -0.28723925643E+02 -0.45066340735E+02 -0.91341784551E+01  0.54377794987E+02  0.41800000000E+01 0. -1.
        -11    1    1    2    0    0  0.25652523590E+02 -0.13686505428E+02  0.22214131545E+01  0.29160025270E+02  0.00000000000E+00 0.  1.
         11    1    1    2    0    0  0.33022814856E+02  0.36934540132E+02  0.17082945727E+03  0.17786896870E+03  0.00000000000E+00 0. -1.
</event>
<event>
 7    1  0.2412631E-010  0.1441437E+03  0.7561462E-02  0.1207860E+00
         -3   -1    0    0    0  501 -0.00000000000E+00  0.00000000000E+00  0.77794932546E+02  0.77794932546E+02  0.00000000000E+00 0.  1.
          3   -1    0    0  501    0  0.00000000000E+00 -0.00000000000E+00 -0.32510820972E+03  0.32510820972E+03  0.00000000000E+00 0. -1.
         25    2    1    2    0    0  0.97533282191E+02  0.15194931078E+01 -0.21190731249E+03  0.26469128947E+03  0.12506686069E+03 0.  0.
          5    1    3    3  502    0  0.45787375493E+02  0.61469279329E+02 -0.12788372147E+03  0.14915319197E+03  0.41800000000E+01 0. -1.
         -5    1    3    3    0  502  0.51745906698E+02 -0.59949786221E+02 -0.84023591012E+02  0.11553809750E+03  0.41800000000E+01 0. -1.
        -11    1    1    2    0    0 -0.43296602455E+02  0.43766828735E+02 -0.26389020100E+02  0.66981426257E+02  0.00000000000E+00 0.  1.
         11    1    1    2    0    0 -0.54236679736E+02 -0.45286321843E+02 -0.90169445854E+01  0.71230426536E+02  0.00000000000E+00 0. -1.
</event>
<event>
 7    1  0.2412631E-010  0.8852082E+02  0.7561462E-02  0.1306474E+00
          3   -1    0    0  501    0  0.00000000000E+00  0.00000000000E+00  0.54401920721E+02  0.54401920721E+02  0.00000000000E+00 0. -1.
         -3   -1    0    0    0  501 -0.00000000000E+00 -0.00000000000E+00 -0.23491153502E+03  0.23491153502E+03  0.00000000000E+00 0.  1.
         25    2    1    2    0    0 -0.30073525966E+02  0.12106172268E+02 -0.11171992346E+03  0.17084495347E+03  0.12512266165E+03 0.  0.
          5    1    3    3  502    0 -0.38137358972E+02  0.60488497416E+02 -0.94741483004E+02  0.11877178735E+03  0.41800000000E+01 0.  1.
         -5    1    3    3    0  502  0.80638330061E+01 -0.48382325148E+02 -0.16978440452E+02  0.52073166119E+02  0.41800000000E+01 0.  1.
        -11    1    1    2    0    0  0.53636610980E+01 -0.26869998954E+02  0.14034314746E+02  0.30785186284E+02  0.00000000000E+00 0. -1.
         11    1    1    2    0    0  0.24709864868E+02  0.14763826687E+02 -0.82824005585E+02  0.87683315981E+02  0.00000000000E+00 0.  1.
</event>
<event>
 7    1  0.2412631E-010  0.1411692E+03  0.7561462E-02  0.1211764E+00
          2   -1    0    0  501    0  0.00000000000E+00  0.00000000000E+00  0.13584173232E+04  0.13584173232E+04  0.00000000000E+00 0. -1.
         -2   -1    0    0    0  501 -0.00000000000E+00 -0.00000000000E+00 -0.28777818495E+02  0.28777818495E+02  0.00000000000E+00 0.  1.
         25    2    1    2    0    0  0.11779711393E+03  0.29282334184E+02  0.10880753842E+04  0.11019509993E+04  0.12511733658E+03 0.  0.
          5    1    3    3  502    0 -0.74952697359E+01 -0.17914486939E+02  0.42588971654E+03  0.42635270723E+03  0.41800000000E+01 0.  1.
         -5    1    3    3    0  502  0.12529238367E+03  0.47196821123E+02  0.66218566768E+03  0.67559829204E+03  0.41800000000E+01 0.  1.
        -11    1    1    2    0    0 -0.68372047567E+02  0.47134070438E+01  0.50907278546E+02  0.85372736300E+02  0.00000000000E+00 0.  1.
         11    1    1    2    0    0 -0.49425066363E+02 -0.33995741228E+02  0.19065684197E+03  0.19987140615E+03  0.00000000000E+00 0. -1.
</event>
<event>
 7    1  0.2412631E-010  0.1370190E+03  0.7561462E-02  0.1217397E+00
          2   -1    0    0  501    0  0.00000000000E+00  0.00000000000E+00  0.78371035308E+03  0.78371035308E+03  0.00000000000E+00 0. -1.
         -2   -1    0    0    0  501 -0.00000000000E+00 -0.00000000000E+00 -0.40930376617E+02  0.40930376617E+02  0.00000000000E+00 0.  1.
         25    2    1    2    0    0  0.89481592122E+02  0.57979919570E+02  0.60674006903E+03  0.62861353065E+03  0.12511128306E+03 0.  0.
          5    1    3    3  502    0 -0.10684999741E+02  0.49859694490E+02  0.10391575007E+03  0.11582794942E+03  0.41800000000E+01 0. -1.
         -5    1    3    3    0  502  0.10016659186E+03  0.81202250796E+01  0.50282431897E+03  0.51278558124E+03  0.41800000000E+01 0. -1.
        -11    1    1    2    0    0  0.67292230578E+00 -0.26934509148E+02 -0.33443195403E+01  0.27149679200E+02  0.00000000000E+00 0.  1.
         11    1    1    2    0    0 -0.90154514428E+02 -0.31045410421E+02  0.13938422697E+03  0.16887751984E+03  0.00000000000E+00 0. -1.
</event>
<event>
 6    1  0.2412631E-010  0.2649800E+03  0.7561462E-02  0.1104188E+00
          2   -1    0    0  501    0  0.00000000000E+00  0.00000000000E+00  0.75020607730E+03  0.75020607730E+03  0.00000000000E+00 0. -1.
         -2   -1    0    0    0  501 -0.00000000000E+00 -0.00000000000E+00 -0.99502132871E+02  0.99502132871E+02  0.00000000000E+00 0.  1.
          5    1    1    2  502    0  0.18899731047E+02 -0.38938707307E+02  0.56761530614E+02  0.71503611923E+02  0.41800000000E+01 0.  1.
         -5    1    1    2    0  502 -0.18133239948E+03 -0.15135039348E+03  0.28864785506E+03  0.37299254328E+03  0.41800000000E+01 0.  1.
        -11    1    1    2    0    0  0.12270438549E+03  0.14024386868E+03  0.15674511220E+03  0.24350305772E+03  0.00000000000E+00 0. -1.
         11    1    1    2    0    0  0.39728282940E+02  0.50045232111E+02  0.14854944655E+03  0.16170899725E+03  0.00000000000E+00 0.  1.
</event>
<event>
 6    1  0.2412631E-010  0.1940372E+03  0.7561462E-02  0.1154870E+00
         -2   -1    0    0    0  501 -0.00000000000E+00  0.00000000000E+00  0.19693676385E+03  0.19693676385E+03  0.00000000000E+00 0.  1.
          2   -1    0    0  501    0  0.00000000000E+00 -0.00000000000E+00 -0.20248071459E+03  0.20248071459E+03  0.00000000000E+00 0. -1.
          5    1    1    2  502    0  0.57705868016E+02 -0.18099826292E+02 -0.17326392294E+02  0.63049561340E+02  0.41800000000E+01 0. -1.
         -5    1    1    2    0  502  0.61736571449E+02  0.13196609233E+03 -0.14029022012E+02  0.14642656739E+03  0.41800000000E+01 0. -1.
        -11    1    1    2    0    0 -0.27469013005E+02 -0.78488485716E+02 -0.12738465460E+02  0.84126437983E+02  0.00000000000E+00 0. -1.
         11    1    1    2    0    0 -0.91973426460E+02 -0.35377780321E+02  0.38549929030E+02  0.10581491173E+03  0.00000000000E+00 0.  1.
</event>
<event>
 6    1  0.2412631E-010  0.1341819E+03  0.7561462E-02  0.1221379E+00
         -3   -1    0    0    0  501 -0.00000000000E+00  0.00000000000E+00  0.31971910014E+03  0.31971910014E+03  0.00000000000E+00 0.  1.
          3   -1    0    0  501    0  0.00000000000E+00 -0.00000000000E+00 -0.11303771026E+03  0.11303771026E+03  0.00000000000E+00 0. -1.
          5    1    1    2  502    0  0.17817177462E+02 -0.10984680624E+03  0.14171474967E+03  0.18023405707E+03  0.41800000000E+01 0.  1.
         -5    1    1    2    0  502 -0.48600423087E+02  0.90730574788E+01  0.10022625022E+03  0.11183512476E+03  0.41800000000E+01 0.  1.
        -11    1    1    2    0    0 -0.28030294780E+01  0.15226640973E+02  0.25984083488E+02  0.30246986036E+02  0.00000000000E+00 0.  1.
         11    1    1    2    0    0  0.33586275103E+02  0.85547107791E+02 -0.61243693510E+02  0.11044064253E+03  0.00000000000E+00 0. -1.
</event>
<event>
 7    1  0.2412631E-010  0.9683457E+02  0.7561462E-02  0.1287097E+00
         -3   -1    0    0    0  501 -0.00000000000E+00  0.00000000000E+00  0.18074788926E+03  0.18074788926E+03  0.00000000000E+00 0.  1.
          3   -1    0    0  501    0  0.00000000000E+00 -0.00000000000E+00 -0.10524406367E+03  0.10524406367E+03  0.00000000000E+00 0. -1.
         25    2    1    2    0    0  0.60222895023E+02  0.98628628550E+01 -0.16207325150E+02  0.14014357214E+03  0.12511382927E+03 0.  0.
          5    1    3    3  502    0 -0.10490133404E+02 -0.11303878986E+02 -0.54563446449E+02  0.56854750613E+02  0.41800000000E+01 0.  1.
         -5    1    3    3    0  502  0.70713028427E+02  0.21166741841E+02  0.38356121298E+02  0.83288821522E+02  0.41800000000E+01 0.  1.
        -11    1    1    2    0    0 -0.73221531939E+02 -0.30540950038E+02  0.40420165784E+02  0.89038936262E+02  0.00000000000E+00 0. -1.
         11    1    1    2    0    0  0.12998636916E+02  0.20678087183E+02  0.51290984949E+02  0.56809444534E+02  0.00000000000E+00 0.  1.
</event>
<event>
 6    1  0.2412631E-010  0.2195167E+03  0.7561462E-02  0.1134244E+00
          2   -1    0    0  501    0  0.00000000000E+00  0.00000000000E+00  0.57724785101E+03  0.57724785101E+03  0.00000000000E+00 0. -1.
         -2   -1    0    0    0  501 -0.00000000000E+00 -0.00000000000E+00 -0.11213680221E+03  0.11213680221E+03  0.00000000000E+00 0.  1.
          5    1    1    2  502    0  0.92778786506E+02 -0.24742403481E+02  0.24602520282E+03  0.26413247165E+03  0.41800000000E+01 0.  1.
         -5    1    1    2    0  502  0.11765475568E+03  0.52613236389E+02  0.11470370075E+03  0.17258390870E+03  0.41800000000E+01 0.  1.
        -11    1    1    2    0    0 -0.12194566859E+03 -0.27131423438E+01  0.12445361155E+02  0.12260911159E+03  0.00000000000E+00 0.  1.
         11    1    1    2    0    0 -0.88487873590E+02 -0.25157690565E+02  0.91936784075E+02  0.13005916128E+03  0.00000000000E+00 0. -1.
</event>
<event>
 7    1  0.2412631E-010  0.1175713E+03  0.7561462E-02  0.1247158E+00
         -1   -1    0    0    0  501 -0.00000000000E+00  0.00000000000E+00  0.42650430449E+03  0.42650430449E+03  0.00000000000E+00 0.  1.
          1   -1    0    0  501    0  0.00000000000E+00 -0.00000000000E+00 -0.66948853283E+02  0.66948853283E+02  0.00000000000E+00 0. -1.
         25    2    1    2    0    0  0.27605341379E+02  0.38589302561E+02  0.16917887245E+02  0.13487083975E+03  0.12511090825E+03 0.  0.
          5    1    3    3  502    0 -0.43213150120E+02 -0.89417366372E+01 -0.97986836603E+01  0.45396228906E+02  0.41800000000E+01 0. -1.
         -5    1    3    3    0  502  0.70818491500E+02  0.47531039198E+02  0.26716570905E+02  0.89474610848E+02  0.41800000000E+01 0. -1.
        -11    1    1    2    0    0  0.33553696802E+02 -0.86291665680E+00  0.12235926521E+03  0.12687941116E+03  0.00000000000E+00 0.  1.
         11    1    1    2    0    0 -0.61159038182E+02 -0.37726385904E+02  0.22027829876E+03  0.23170290686E+03  0.00000000000E+00 0. -1.
</event>
<event>
 7    1  0.2412631E-010  0.1097668E+03  0.7561462E-02  0.1261002E+00
         -2   -1    0    0    0  501 -0.00000000000E+00  0.00000000000E+00  0.26670140053E+03  0.26670140053E+03  0.00000000000E+00 0.  1.
          2   -1    0    0  501    0  0.00000000000E+00 -0.00000000000E+00 -0.72072354524E+02  0.72072354524E+02  0.00000000000E+00 0. -1.
         25    2    1    2    0    0  0.83006288253E+02  0.52474657092E+01  0.86006525050E+02  0.17305893356E+03  0.12503876338E+03 0.  0.
          5    1    3    3  502    0  0.96904561343E+01  0.20304234600E+02 -0.28281659754E+02  0.36379823545E+02  0.41800000000E+01 0. -1.
         -5    1    3    3    0  502  0.73315832119E+02 -0.15056768891E+02  0.11428818480E+03  0.13667911001E+03  0.41800000000E+01 0. -1.
        -11    1    1    2    0    0  0.14229777686E+02  0.16766453528E+02  0.36694266248E+02  0.42779314071E+02  0.00000000000E+00 0.  1.
         11    1    1    2    0    0 -0.97236065939E+02 -0.22013919237E+02  0.71928254705E+02  0.12293550742E+03  0.00000000000E+00 0. -1.
</event>
<event>
 7    1  0.2412631E-010  0.1035909E+03  0.7561462E-02  0.1272921E+00
         -1   -1    0    0    0  501 -0.00000000000E+00  0.00000000000E+00  0.26512718684E+02  0.26512718684E+02  0.00000000000E+00 0.  1.
          1   -1    0    0  501    0  0.00000000000E+00 -0.00000000000E+00 -0.47115793008E+03  0.47115793008E+03  0.00000000000E+00 0. -1.
         25    2    1    2    0    0  0.15765420499E+02  0.13001845774E+01 -0.21342874144E+03  0.24791994722E+03  0.12514884576E+03 0.  0.
          5    1    3    3  502    0  0.31705971754E+02 -0.56937254782E+02 -0.10197627087E+03  0.12109397940E+03  0.41800000000E+01 0. -1.
         -5    1    3    3    0  502 -0.15940551255E+02  0.58237439360E+02 -0.11145247057E+03  0.12682596782E+03  0.41800000000E+01 0. -1.
        -11    1    1    2    0    0 -0.37551367501E+02 -0.28038016499E+02 -0.19149120053E+03  0.19714237355E+03  0.00000000000E+00 0. -1.
         11    1    1    2    0    0  0.21785947002E+02  0.26737831922E+02 -0.39725269428E+02  0.52608327989E+02  0.00000000000E+00 0.  1.
</event>
<event>
 7    1  0.2412631E-010  0.1181134E+03  0.7561462E-02  0.1246242E+00
          2   -1    0    0  501    0  0.00000000000E+00  0.00000000000E+00  0.27168616905E+03  0.27168616905E+03  0.00000000000E+00 0. -1.
         -2   -1    0    0    0  501 -0.00000000000E+00 -0.00000000000E+00 -0.88200377292E+02  0.88200377292E+02  0.00000000000E+00 0.  1.
         25    2    1    2    0    0  0.10061565859E+03 -0.22292982667E+02  0.14256787395E+03  0.21587106586E+03  0.12511686763E+03 0.  0.
          5    1    3    3  502    0  0.35106028880E+02 -0.42217988118E+02 -0.27921388371E+01  0.55136741142E+02  0.41800000000E+01 0.  1.
         -5    1    3    3    0  502  0.65509629706E+02  0.19925005451E+02  0.14536001278E+03  0.16073432472E+03  0.41800000000E+01 0.  1.
        -11    1    1    2    0    0 -0.70454962216E+01  0.17503109880E+02 -0.23631367582E+02  0.30239699176E+02  0.00000000000E+00 0.  1.
         11    1    1    2    0    0 -0.93570162365E+02  0.47898727875E+01  0.64549285390E+02  0.11377578130E+03  0.00000000000E+00 0. -1.
</event>
<event>
 7    1  0.2412631E-010  0.1243815E+03  0.7561462E-02  0.1236039E+00
         -2   -1    0    0    0  501 -0.00000000000E+00  0.00000000000E+00  0.77900961112E+02  0.77900961112E+02  0.00000000000E+00 0.  1.
          2   -1    0    0  501    0  0.00000000000E+00 -0.00000000000E+00 -0.26073837381E+03  0.26073837381E+03  0.00000000000E+00 0. -1.
         25    2    1    2    0    0  0.30296967281E+02 -0.65208642866E+02 -0.31147324024E+02  0.14762639908E+03  0.12511324702E+03 0.  0.
          5    1    3    3  502    0 -0.42776781665E+02 -0.26345482077E+02  0.15227646534E+02  0.52662046053E+02  0.41800000000E+01 0.  1.
         -5    1    3    3    0  502  0.73073748946E+02 -0.38863160789E+02 -0.46374970559E+02  0.94964353027E+02  0.41800000000E+01 0.  1.
        -11    1    1    2    0    0 -0.58560395720E+02  0.19468556103E+02 -0.90737932297E+02  0.10973475740E+03  0.00000000000E+00 0. -1.
         11    1    1    2    0    0  0.28263428439E+02  0.45740086763E+02 -0.60952156378E+02  0.81278178445E+02  0.00000000000E+00 0.  1.
</event>
<event>
 7    1  0.2412631E-010  0.9790708E+02  0.7561462E-02  0.1284760E+00
          2   -1    0    0  501    0  0.00000000000E+00  0.00000000000E+00  0.41769482891E+03  0.41769482891E+03  0.00000000000E+00 0. -1.
         -2   -1    0    0    0  501 -0.00000000000E+00 -0.00000000000E+00 -0.35092996003E+02  0.35092996003E+02  0.00000000000E+00 0.  1.
         25    2    1    2    0    0  0.30312058083E+02  0.24636084884E+02  0.29157104991E+03  0.31965484650E+03  0.12505913082E+03 0.  0.
          5    1    3    3  502    0 -0.39756736434E+02  0.40018329976E+02  0.97674591165E+02  0.11287100152E+03  0.41800000000E+01 0.  1.
         -5    1    3    3    0  502  0.70068794516E+02 -0.15382245092E+02  0.19389645875E+03  0.20678384498E+03  0.41800000000E+01 0.  1.
        -11    1    1    2    0    0 -0.23496973478E+02 -0.42338539585E+02  0.93980097415E+01  0.49325270236E+02  0.00000000000E+00 0.  1.
         11    1    1    2    0    0 -0.68150846047E+01  0.17702454701E+02  0.81632773251E+02  0.83807708173E+02  0.00000000000E+00 0. -1.
</event>
<event>
 7    1  0.2412631E-010  0.9950410E+02  0.7561462E-02  0.1281342E+00
          1   -1    0    0  501    0  0.00000000000E+00  0.00000000000E+00  0.25988909717E+03  0.25988909717E+03  0.00000000000E+00 0. -1.
         -1   -1    0    0    0  501 -0.00000000000E+00 -0.00000000000E+00 -0.52428956366E+02  0.52428956366E+02  0.00000000000E+00 0.  1.
         25    2    1    2    0    0 -0.17552368320E+01 -0.32169018041E+02  0.15968761971E+03  0.20542773362E+03  0.12514987525E+03 0.  0.
          5    1    3    3  502    0 -0.61457167073E+02 -0.26289187127E+02  0.65499362710E+02  0.93678939254E+02  0.41800000000E+01 0.  1.
         -5    1    3    3    0  502  0.59701930241E+02 -0.58798309136E+01  0.94188256998E+02  0.11174879437E+03  0.41800000000E+01 0.  1.
        -11    1    1    2    0    0 -0.23342534433E+02  0.39385291564E+02 -0.69010673192E+01  0.46300106214E+02  0.00000000000E+00 0.  1.
         11    1    1    2    0    0  0.25097771265E+02 -0.72162735234E+01  0.54673588413E+02  0.60590213698E+02  0.00000000000E+00 0. -1.
</event>
<event>
 7    1  0.2412631E-010  0.1336252E+03  0.7561462E-02  0.1222174E+00
          2   -1    0    0  501    0  0.00000000000E+00  0.00000000000E+00  0.67192263037E+03  0.67192263037E+03  0.00000000000E+00 0. -1.
         -2   -1    0    0    0  501 -0.00000000000E+00 -0.00000000000E+00 -0.34531124637E+02  0.34531124637E+02  0.00000000000E+00 0.  1.
         25    2    1    2    0    0  0.24088394224E+02  0.99709174516E+02  0.27608986061E+03  0.32000216529E+03  0.12511436545E+03 0.  0.
          5    1    3    3  502    0  0.45769038567E+02 -0.11880245255E+02  0.93888370744E+02  0.10520667127E+03  0.41800000000E+01 0. -1.
         -5    1    3    3    0  502 -0.21680644343E+02  0.11158941977E+03  0.18220148986E+03  0.21479549402E+03  0.41800000000E+01 0. -1.
        -11    1    1    2    0    0 -0.14210855965E+02 -0.93017026028E+02  0.36245025024E+03  0.37446535148E+03  0.00000000000E+00 0. -1.
         11    1    1    2    0    0 -0.98775382594E+01 -0.66921484889E+01 -0.11486051115E+01  0.11986238241E+02  0.00000000000E+00 0.  1.
</event>
<event>
 7    1  0.2412631E-010  0.8919586E+02  0.7561462E-02  0.1304811E+00
          3   -1    0    0  501    0  0.00000000000E+00  0.00000000000E+00  0.60327190174E+02  0.60327190174E+02  0.00000000000E+00 0. -1.
         -3   -1    0    0    0  501 -0.00000000000E+00 -0.00000000000E+00 -0.25710617373E+03  0.25710617373E+03  0.00000000000E+00 0.  1.
         25    2    1    2    0    0 -0.30006595012E+02  0.43628448091E+02 -0.71960376180E+02  0.15374718147E+03  0.12512418968E+03 0.  0.
          5    1    3    3  502    0 -0.11292375915E+02 -0.11465997664E+02 -0.90904244852E+02  0.92412342186E+02  0.41800000000E+01 0. -1.
         -5    1    3    3    0  502 -0.18714219097E+02  0.55094445755E+02  0.18943868672E+02  0.61334839282E+02  0.41800000000E+01 0. -1.
        -11    1    1    2    0    0  0.86558220052E+01 -0.69413668034E+02 -0.99887251673E+02  0.12194524842E+03  0.00000000000E+00 0.  1.
         11    1    1    2    0    0  0.21350773007E+02  0.25785219943E+02 -0.24931355700E+02  0.41740934016E+02  0.00000000000E+00 0. -1.
</event>
<event>
 7    1  0.2412631E-010  0.1534784E+03  0.7561462E-02  0.1196263E+00
         -2   -1    0    0    0  501 -0.00000000000E+00  0.00000000000E+00  0.54608830967E+02  0.54608830967E+02  0.00000000000E+00 0.  1.
          2   -1    0    0  501    0  0.00000000000E+00 -0.00000000000E+00 -0.55587916419E+03  0.55587916419E+03  0.00000000000E+00 0. -1.
         25    2    1    2    0    0  0.10385943743E+03  0.84685948293E+02 -0.22374403607E+03  0.28926745911E+03  0.12512304600E+03 0.  0.
          5    1    3    3  502    0  0.69919101407E+00 -0.63133587531E+01  0.13212380620E+02  0.15244237222E+02  0.41800000000E+01 0.  1.
         -5    1    3    3    0  502  0.10316024641E+03  0.90999307047E+02 -0.23695641669E+03  0.27402322188E+03  0.41800000000E+01 0.  1.
        -11    1    1    2    0    0 -0.57822761413E+02  0.78698375962E+01 -0.97888314537E+02  0.11396283694E+03  0.00000000000E+00 0.  1.
         11    1    1    2    0    0 -0.46036676015E+02 -0.92555785890E+02 -0.17963798262E+03  0.20725769911E+03  0.00000000000E+00 0. -1.
</event>
<event>
 6    1  0.2412631E-010  0.1699460E+03  0.7561462E-02  0.1177904E+00
          2   -1    0    0  501    0  0.00000000000E+00  0.00000000000E+00  0.10393239241E+03  0.10393239241E+03  0.00000000000E+00 0. -1.
         -2   -1    0    0    0  501 -0.00000000000E+00 -0.00000000000E+00 -0.30574305135E+03  0.30574305135E+03  0.00000000000E+00 0.  1.
          5    1    1    2  502    0 -0.59246694304E+02 -0.87685890779E+02 -0.59472658914E+02  0.12146380443E+03  0.41800000000E+01 0.  1.
         -5    1    1    2    0  502  0.61433526121E+02 -0.55113253792E+02 -0.24715087046E+02  0.86254604532E+02  0.41800000000E+01 0.  1.
        -11    1    1    2    0    0  0.18678270170E+02  0.11542712062E+03 -0.11988435367E+03  0.16746508951E+03  0.00000000000E+00 0.  1.
         11    1    1    2    0    0 -0.20865101987E+02  0.27372023950E+02  0.22614406870E+01  0.34491945293E+02  0.00000000000E+00 0. -1.
</event>
<event>
 6    1  0.2412631E-010  0.2061282E+03  0.7561462E-02  0.1144669E+00
         -1   -1    0    0    0  501 -0.00000000000E+00  0.00000000000E+00  0.91111619929E+02  0.91111619929E+02  0.00000000000E+00 0.  1.
          1   -1    0    0  501    0  0.00000000000E+00 -0.00000000000E+00 -0.59577367693E+03  0.59577367693E+03  0.00000000000E+00 0. -1.
          5    1    1    2  502    0  0.84215574527E+01  0.48370728051E+02 -0.12040452007E+03  0.13009754347E+03  0.41800000000E+01 0. -1.
         -5    1    1    2    0  502  0.16961002457E+03 -0.72673763935E+01 -0.28254724859E+03  0.32965253719E+03  0.41800000000E+01 0. -1.
        -11    1    1    2    0    0 -0.62054371393E+02 -0.45745155926E+02 -0.75991222743E+02  0.10824985096E+03  0.00000000000E+00 0. -1.
         11    1    1    2    0    0 -0.11597721063E+03  0.46418042685E+01 -0.25719065594E+02  0.11888536523E+03  0.00000000000E+00 0.  1.
</event>
<event>
 7    1  0.2412631E-010  0.1343171E+03  0.7561462E-02  0.1221187E+00
         -1   -1    0    0    0  501 -0.00000000000E+00  0.00000000000E+00  0.24919195437E+02  0.24919195437E+02  0.00000000000E+00 0.  1.
          1   -1    0    0  501    0  0.00000000000E+00 -0.00000000000E+00 -0.81032282409E+03  0.81032282409E+03  0.00000000000E+00 0. -1.
         25    2    1    2    0    0  0.24447596150E+02 -0.85482578053E+02 -0.36192751628E+03  0.39312910895E+03  0.12511599878E+03 0.  0.
          5    1    3    3  502    0  0.47219412200E+02 -0.10456544879E+03 -0.22099030976E+03  0.24903372337E+03  0.41800000000E+01 0. -1.
         -5    1    3    3    0  502 -0.22771816050E+02  0.19082870735E+02 -0.14093720652E+03  0.14409538557E+03  0.41800000000E+01 0. -1.
        -11    1    1    2    0    0 -0.55029493037E+02  0.36356145287E+02 -0.27400459125E+03  0.28183067688E+03  0.00000000000E+00 0.  1.
         11    1    1    2    0    0  0.30581896887E+02  0.49126432767E+02 -0.14947152112E+03  0.16028223370E+03  0.00000000000E+00 0. -1.
</event>
<event>
 7    1  0.2412631E-010  0.2939368E+03  0.7561462E-02  0.1088311E+00
          3   -1    0    0  501    0  0.00000000000E+00  0.00000000000E+00  0.15914972281E+03  0.15914972281E+03  0.00000000000E+00 0. -1.
         -3   -1    0    0    0  501 -0.00000000000E+00 -0.00000000000E+00 -0.75972305211E+03  0.75972305211E+03  0.00000000000E+00 0.  1.
         25    2    1    2    0    0  0.25746533850E+03 -0.11214739528E+03 -0.53156799125E+03  0.61405483427E+03  0.12503348100E+03 0.  0.
          5    1    3    3  502    0  0.20915024639E+03 -0.31595025689E+02 -0.39761785550E+03  0.45039927023E+03  0.41800000000E+01 0. -1.
         -5    1    3    3    0  502  0.48315092108E+02 -0.80552369596E+02 -0.13395013575E+03  0.16365556404E+03  0.41800000000E+01 0. -1.
        -11    1    1    2    0    0 -0.17773380498E+03  0.91594979197E+02 -0.41254784719E+01  0.19998991280E+03  0.00000000000E+00 0. -1.
         11    1    1    2    0    0 -0.79731533520E+02  0.20552416088E+02 -0.64879859576E+02  0.10482802785E+03  0.00000000000E+00 0.  1.
</event>
<event>
 7    1  0.2412631E-010  0.1827136E+03  0.7561462E-02  0.1165202E+00
         -1   -1    0    0    0  501 -0.00000000000E+00  0.00000000000E+00  0.59400634709E+03  0.59400634709E+03  0.00000000000E+00 0.  1.
          1   -1    0    0  501    0  0.00000000000E+00 -0.00000000000E+00 -0.82431102472E+02  0.82431102472E+02  0.00000000000E+00 0. -1.
         25    2    1    2    0    0  0.83528860533E+02  0.14373876777E+03  0.41490048486E+03  0.46413487406E+03  0.12506344421E+03 0.  0.
          5    1    3    3  502    0  0.90269978626E+02  0.88930636566E+02  0.16453351860E+03  0.20771634096E+03  0.41800000000E+01 0. -1.
         -5    1    3    3    0  502 -0.67411180927E+01  0.54808131201E+02  0.25036696626E+03  0.25641853309E+03  0.41800000000E+01 0. -1.
        -11    1    1    2    0    0 -0.66619405535E+02 -0.39059817234E+02  0.66879492459E+02  0.10216007551E+03  0.00000000000E+00 0. -1.
         11    1    1    2    0    0 -0.16909454999E+02 -0.10467895053E+03  0.29795267304E+02  0.11014250000E+03  0.00000000000E+00 0.  1.
</event>
<event>
 7    1  0.2412631E-010  0.1042654E+03  0.7561462E-02  0.1271574E+00
          2   -1    0    0  501    0  0.00000000000E+00  0.00000000000E+00  0.28183759052E+03  0.28183759052E+03  0.00000000000E+00 0. -1.
         -2   -1    0    0    0  501 -0.00000000000E+00 -0.00000000000E+00 -0.43685666282E+02  0.43685666282E+02  0.00000000000E+00 0.  1.
         25    2    1    2    0    0  0.42191227859E+01 -0.17056130868E+02  0.11917703463E+03  0.17368578121E+03  0.12511943260E+03 0.  0.
          5    1    3    3  502    0  0.25297149347E+02 -0.62150062350E+02  0.99311453672E+02  0.11992836714E+03  0.41800000000E+01 0. -1.
         -5    1    3    3    0  502 -0.21078026561E+02  0.45093931482E+02  0.19865580956E+02  0.53757414065E+02  0.41800000000E+01 0. -1.
        -11    1    1    2    0    0  0.23806508283E+02  0.45540425838E+02  0.47641798699E+02  0.70074397646E+02  0.00000000000E+00 0.  1.
         11    1    1    2    0    0 -0.28025631069E+02 -0.28484294970E+02  0.71333090915E+02  0.81763077952E+02  0.00000000000E+00 0. -1.
</event>
<event>
 7    1  0.2412631E-010  0.1021411E+03  0.7561462E-02  0.1275857E+00
         -2   -1    0    0    0  501 -0.00000000000E+00  0.00000000000E+00  0.46314546139E+02  0.46314546139E+02  0.00000000000E+00 0.  1.
          2   -1    0    0  501    0  0.00000000000E+00 -0.00000000000E+00 -0.38871925570E+03  0.38871925570E+03  0.00000000000E+00 0. -1.
         25    2    1    2    0    0 -0.67298670095E+02 -0.17514809081E+02 -0.12793888506E+03  0.19198245705E+03  0.12511205367E+03 0.  0.
          5    1    3    3  502    0 -0.54303031877E+02 -0.54073317413E+02 -0.13205949615E+03  0.15274136915E+03  0.41800000000E+01 0.  1.
         -5    1    3    3    0  502 -0.12995638218E+02  0.36558508332E+02  0.41206110878E+01  0.39241087904E+02  0.41800000000E+01 0.  1.
        -11    1    1    2    0    0  0.26400296208E+02 -0.19915162512E+02 -0.16646555538E+03  0.16971850360E+03  0.00000000000E+00 0. -1.
         11    1    1    2    0    0  0.40898373887E+02  0.37429971592E+02 -0.48000269122E+02  0.73332841182E+02  0.00000000000E+00 0.  1.
</event>
<event>
 7    1  0.2412631E-010  0.1147281E+03  0.7561462E-02  0.1252056E+00
         -2   -1    0    0    0  501 -0.00000000000E+00  0.00000000000E+00  0.24817140422E+02  0.24817140422E+02  0.00000000000E+00 0.  1.
          2   -1    0    0  501    0  0.00000000000E+00 -0.00000000000E+00 -0.57611699248E+03  0.57611699248E+03  0.00000000000E+00 0. -1.
         25    2    1    2    0    0  0.38150454649E+02  0.22131316968E+02 -0.28018500094E+03  0.30998071498E+03  0.12505661330E+03 0.  0.
          5    1    3    3  502    0 -0.30967088905E+02 -0.25524837489E+02 -0.46111970196E+02  0.61272050067E+02  0.41800000000E+01 0.  1.
         -5    1    3    3    0  502  0.69117543554E+02  0.47656154457E+02 -0.23407303074E+03  0.24870866492E+03  0.41800000000E+01 0.  1.
        -11    1    1    2    0    0 -0.28983694798E+02  0.35990277460E+02 -0.13410445221E+03  0.14184272537E+03  0.00000000000E+00 0.  1.
         11    1    1    2    0    0 -0.91667598515E+01 -0.58121594428E+02 -0.13701039891E+03  0.14911069256E+03  0.00000000000E+00 0. -1.
</event>
<event>
 6    1  0.2412631E-010  0.1080925E+03  0.7561462E-02  0.1264144E+00
         -2   -1    0    0    0  501 -0.00000000000E+00  0.00000000000E+00  0.12195649357E+03  0.12195649357E+03  0.00000000000E+00 0.  1.
          2   -1    0    0  501    0  0.00000000000E+00 -0.00000000000E+00 -0.13926300375E+03  0.13926300375E+03  0.00000000000E+00 0. -1.
          5    1    1    2  502    0  0.33838817852E+02 -0.59539261194E+02 -0.68905611314E+02  0.97239111924E+02  0.41800000000E+01 0. -1.
         -5    1    1    2    0  502 -0.48874599739E+02  0.18535274467E+02 -0.92069366855E+00  0.52446191245E+02  0.41800000000E+01 0. -1.
        -11    1    1    2    0    0  0.41065042957E+02 -0.59067492545E+01  0.89974425519E+01  0.42452107277E+02  0.00000000000E+00 0. -1.
         11    1    1    2    0    0 -0.26029261069E+02  0.46910735981E+02  0.43522352251E+02  0.69082086879E+02  0.00000000000E+00 0.  1.
</event>
<event>
 6    1  0.2412631E-010  0.1705799E+03  0.7561462E-02  0.1177244E+00
          1   -1    0    0  501    0  0.00000000000E+00  0.00000000000E+00  0.19331393716E+04  0.19331393716E+04  0.00000000000E+00 0. -1.
         -1   -1    0    0    0  501 -0.00000000000E+00 -0.00000000000E+00 -0.17597851051E+02  0.17597851051E+02  0.00000000000E+00 0.  1.
          5    1    1    2  502    0 -0.12286188815E+02 -0.19707200374E+02  0.22070566000E+03  0.22196347659E+03  0.41800000000E+01 0. -1.
         -5    1    1    2    0  502  0.12446113645E+03  0.10696076122E+03  0.10297102281E+04  0.10427136736E+04  0.41800000000E+01 0. -1.
        -11    1    1    2    0    0 -0.11168306619E+03 -0.61214158914E+02  0.62753763141E+03  0.64033097641E+03  0.00000000000E+00 0. -1.
         11    1    1    2    0    0 -0.49188144091E+00 -0.26039401935E+02  0.37588001066E+02  0.45729096040E+02  0.00000000000E+00 0.  1.
</event>
<event>
 7    1  0.2412631E-010  0.2515850E+03  0.7561462E-02  0.1112307E+00
         -3   -1    0    0    0  501 -0.00000000000E+00  0.00000000000E+00  0.78318448698E+02  0.78318448698E+02  0.00000000000E+00 0.  1.
          3   -1    0    0  501    0  0.00000000000E+00 -0.00000000000E+00 -0.10248453726E+04  0.10248453726E+04  0.00000000000E+00 0. -1.
         25    2    1    2    0    0  0.10947204298E+03 -0.21894539184E+03 -0.30597472796E+03  0.41131640941E+03  0.12505775344E+03 0.  0.
          5    1    3    3  502    0  0.99659986023E+02 -0.13134996832E+03 -0.26922270443E+03  0.31572656520E+03  0.41800000000E+01 0.  1.
         -5    1    3    3    0  502  0.98120569620E+01 -0.87595423516E+02 -0.36752023536E+02  0.95589844214E+02  0.41800000000E+01 0.  1.
        -11    1    1    2    0    0 -0.11820798165E+02  0.75792987391E+02 -0.11310721830E+03  0.13666583713E+03  0.00000000000E+00 0.  1.
         11    1    1    2    0    0 -0.97651244820E+02  0.14315240445E+03 -0.52744497765E+03  0.55518157477E+03  0.00000000000E+00 0. -1.
</event>
<event>
 7    1  0.2412631E-010  0.1044840E+03  0.7561462E-02  0.1271140E+00
         -2   -1    0    0    0  501 -0.00000000000E+00  0.00000000000E+00  0.57950928334E+03  0.57950928334E+03  0.00000000000E+00 0.  1.
          2   -1    0    0  501    0  0.00000000000E+00 -0.00000000000E+00 -0.31647571753E+02  0.31647571753E+02  0.00000000000E+00 0. -1.
         25    2    1    2    0    0  0.19132561652E+02 -0.78778489858E+02  0.28732610650E+03  0.32371407329E+03  0.12514952812E+03 0.  0.
          5    1    3    3  502    0 -0.36045092613E+01 -0.51592170646E+02  0.22602449659E+02  0.56595827493E+02  0.41800000000E+01 0.  1.
         -5    1    3    3    0  502  0.22737070913E+02 -0.27186319212E+02  0.26472365684E+03  0.26711824580E+03  0.41800000000E+01 0.  1.
        -11    1    1    2    0    0  0.35000956004E+02  0.15955718572E+02  0.79492415694E+02  0.88310226074E+02  0.00000000000E+00 0.  1.
         11    1    1    2    0    0 -0.54133517655E+02  0.62822771286E+02  0.18104318939E+03  0.19913255573E+03  0.00000000000E+00 0. -1.
</event>
<event>
 6    1  0.2412631E-010  0.1307821E+03  0.7561462E-02  0.1226300E+00
         -2   -1    0    0    0  501 -0.00000000000E+00  0.00000000000E+00  0.42217427898E+02  0.42217427898E+02  0.00000000000E+00 0.  1.
          2   -1    0    0  501    0  0.00000000000E+00 -0.00000000000E+00 -0.53446907434E+03  0.53446907434E+03  0.00000000000E+00 0. -1.
          5    1    1    2  502    0 -0.48717479264E+01  0.50785933701E+02 -0.24261749632E+02  0.56648476457E+02  0.41800000000E+01 0. -1.
         -5    1    1    2    0  502 -0.72556916375E+02  0.17598433260E+02 -0.26215989627E+03  0.27261602040E+03  0.41800000000E+01 0. -1.
        -11    1    1    2    0    0  0.23457105491E+02  0.20801215550E+02 -0.65425217767E+02  0.72549193560E+02  0.00000000000E+00 0.  1.
         11    1    1    2    0    0  0.53971558810E+02 -0.89185582511E+02 -0.14040478277E+03  0.17487281182E+03  0.00000000000E+00 0. -1.
</event>
<event>
 6    1  0.2412631E-010  0.1781208E+03  0.7561462E-02  0.1169634E+00
         -1   -1    0    0    0  501 -0.00000000000E+00  0.00000000000E+00  0.33800159401E+02  0.33800159401E+02  0.00000000000E+00 0.  1.
          1   -1    0    0  501    0  0.00000000000E+00 -0.00000000000E+00 -0.12407762303E+04  0.12407762303E+04  0.00000000000E+00 0. -1.
          5    1    1    2  502    0  0.15733615760E+02 -0.95774344949E+02 -0.35087150279E+03  0.36407218472E+03  0.41800000000E+01 0. -1.
         -5    1    1    2    0  502  0.66422188661E+02 -0.42583693748E+02 -0.79092334699E+02  0.11179601034E+03  0.41800000000E+01 0. -1.
        -11    1    1    2    0    0 -0.76403034419E+02  0.49496069791E+02 -0.48310253422E+03  0.49160486487E+03  0.00000000000E+00 0.  1.
         11    1    1    2    0    0 -0.57527700017E+01  0.88861968906E+02 -0.29390969919E+03  0.30710332978E+03  0.00000000000E+00 0. -1.
</event>
<event>
 7    1  0.2412631E-010  0.1230981E+03  0.7561462E-02  0.1238072E+00
          2   -1    0    0  501    0  0.00000000000E+00  0.00000000000E+00  0.64564129355E+03  0.64564129355E+03  0.00000000000E+00 0.  1.
         -2   -1    0    0    0  501 -0.00000000000E+00 -0.00000000000E+00 -0.35834476351E+02  0.35834476351E+02  0.00000000000E+00 0. -1.
         25    2    1    2    0    0 -0.22380940488E+02  0.74355059551E+02  0.48616747341E+03  0.50796449032E+03  0.12505810590E+03 0.  0.
          5    1    3    3  502    0 -0.40482237031E+01  0.10227599985E+03  0.26254917232E+03  0.28182673498E+03  0.41800000000E+01 0.  1.
         -5    1    3    3    0  502 -0.18332716785E+02 -0.27920940301E+02  0.22361830108E+03  0.22613775534E+03  0.41800000000E+01 0.  1.
        -11    1    1    2    0    0 -0.16237105867E+02 -0.69262612257E+02  0.40895415233E+02  0.82057224244E+02  0.00000000000E+00 0.  1.
         11    1    1    2    0    0  0.38618046355E+02 -0.50924472940E+01  0.82743928562E+02  0.91454055337E+02  0.00000000000E+00 0. -1.
</event>
<event>
 6    1  0.2412631E-010  0.1045479E+03  0.7561462E-02  0.1271013E+00
         -1   -1    0    0    0  501 -0.00000000000E+00  0.00000000000E+00  0.24206765778E+03  0.24206765778E+03  0.00000000000E+00 0.  1.
          1   -1    0    0  501    0  0.00000000000E+00 -0.00000000000E+00 -0.73797500947E+02  0.73797500947E+02  0.00000000000E+00 0. -1.
          5    1    1    2  502    0  0.43624861241E+01  0.39089661858E+02  0.21046918723E+02  0.44804889656E+02  0.41800000000E+01 0.  1.
         -5    1    1    2    0  502 -0.50403894681E+02 -0.80823665718E+02  0.12661063126E+03  0.15849524247E+03  0.41800000000E+01 0.  1.
        -11    1    1    2    0    0  0.39840377344E+02  0.89509118742E+01  0.52434366427E+02  0.66458537999E+02  0.00000000000E+00 0.  1.
         11    1    1    2    0    0  0.62010312137E+01  0.32783091986E+02 -0.31821759576E+02  0.46106488597E+02  0.00000000000E+00 0. -1.
</event>
<event>
 7    1  0.2412631E-010  0.5131647E+02  0.7561462E-02  0.1438368E+00
          1   -1    0    0  501    0  0.00000000000E+00  0.00000000000E+00  0.22395292782E+03  0.22395292782E+03  0.00000000000E+00 0. -1.
         -1   -1    0    0    0  501 -0.00000000000E+00 -0.00000000000E+00 -0.85708863401E+02  0.85708863401E+02  0.00000000000E+00 0.  1.
         25    2    1    2    0    0  0.36572251701E+02 -0.25014498470E+02  0.16227957204E+03  0.20965311365E+03  0.12512599183E+03 0.  0.
          5    1    3    3  502    0  0.23635216413E+02 -0.19054757490E+02  0.18222831050E+03  0.18478727442E+03  0.41800000000E+01 0.  1.
         -5    1    3    3    0  502  0.12937035288E+02 -0.59597409808E+01 -0.19948738459E+02  0.24865839231E+02  0.41800000000E+01 0.  1.
        -11    1    1    2    0    0  0.43183378792E+01  0.14205485009E+02  0.28756643139E+02  0.32363380093E+02  0.00000000000E+00 0. -1.
         11    1    1    2    0    0 -0.40890589580E+02  0.10809013461E+02 -0.52792150767E+02  0.67645297478E+02  0.00000000000E+00 0.  1.
</event>
<event>
 7    1  0.2412631E-010  0.2063096E+03  0.7561462E-02  0.1144522E+00
          2   -1    0    0  501    0  0.00000000000E+00  0.00000000000E+00  0.13792552895E+04  0.13792552895E+04  0.00000000000E+00 0. -1.
         -2   -1    0    0    0  501 -0.00000000000E+00 -0.00000000000E+00 -0.44287363110E+02  0.44287363110E+02  0.00000000000E+00 0.  1.
         25    2    1    2    0    0  0.10536605731E+03 -0.17468838362E+03  0.93200250119E+03  0.96224178506E+03  0.12515012302E+03 0.  0.
          5    1    3    3  502    0  0.42508371052E+02 -0.10273281433E+03  0.73364251540E+03  0.74203086563E+03  0.41800000000E+01 0.  1.
         -5    1    3    3    0  502  0.62857686262E+02 -0.71955569284E+02  0.19835998579E+03  0.22021091943E+03  0.41800000000E+01 0.  1.
        -11    1    1    2    0    0 -0.51388717071E+02  0.60202317514E+02  0.72162478515E+02  0.10710995557E+03  0.00000000000E+00 0.  1.
         11    1    1    2    0    0 -0.53977340244E+02  0.11448606610E+03  0.33080294664E+03  0.35419091193E+03  0.00000000000E+00 0. -1.
</event>
<event>
 7    1  0.2412631E-010  0.1683385E+03  0.7561462E-02  0.1179592E+00
         -2   -1    0    0    0  501 -0.00000000000E+00  0.00000000000E+00  0.25851973377E+03  0.25851973377E+03  0.00000000000E+00 0.  1.
          2   -1    0    0  501    0  0.00000000000E+00 -0.00000000000E+00 -0.25126224042E+03  0.25126224042E+03  0.00000000000E+00 0. -1.
         25    2    1    2    0    0 -0.10194217189E+03  0.13146162246E+03  0.16145286614E+03  0.26340329218E+03  0.12505959281E+03 0.  0.
          5    1    3    3  502    0 -0.10004237870E+03  0.12265048141E+03  0.72924086488E+02  0.17431871075E+03  0.41800000000E+01 0.  1.
         -5    1    3    3    0  502 -0.18997931876E+01  0.88111410514E+01  0.88528779655E+02  0.89084581427E+02  0.41800000000E+01 0.  1.
        -11    1    1    2    0    0  0.87368377457E+02 -0.12490441681E+03 -0.16685008912E+03  0.22599402416E+03  0.00000000000E+00 0. -1.
         11    1    1    2    0    0  0.14573794435E+02 -0.65572056513E+01  0.12654716326E+02  0.20384657845E+02  0.00000000000E+00 0.  1.
</event>
<event>
 6    1  0.2412631E-010  0.1410216E+03  0.7561462E-02  0.1211961E+00
         -1   -1    0    0    0  501 -0.00000000000E+00  0.00000000000E+00  0.32135292729E+03  0.32135292729E+03  0.00000000000E+00 0.  1.
          1   -1    0    0  501    0  0.00000000000E+00 -0.00000000000E+00 -0.73292791533E+02  0.73292791533E+02  0.00000000000E+00 0. -1.
          5    1    1    2  502    0 -0.20767142775E+02 -0.30129196916E+02  0.25429508269E+02  0.44756843238E+02  0.41800000000E+01 0. -1.
         -5    1    1    2    0  502  0.12780375278E+03  0.13911516978E+02  0.96514697412E+02  0.16081010151E+03  0.41800000000E+01 0. -1.
        -11    1    1    2    0    0 -0.55148203315E+01  0.13991868461E+02 -0.10872287251E+02  0.18557808501E+02  0.00000000000E+00 0. -1.
         11    1    1    2    0    0 -0.10152178968E+03  0.22258114771E+01  0.13698821733E+03  0.17052096558E+03  0.00000000000E+00 0.  1.
</event>
<event>
 7    1  0.2412631E-010  0.8296126E+02  0.7561462E-02  0.1320852E+00
          2   -1    0    0  501    0  0.00000000000E+00  0.00000000000E+00  0.10570359740E+03  0.10570359740E+03  0.00000000000E+00 0.  1.
         -2   -1    0    0    0  501 -0.00000000000E+00 -0.00000000000E+00 -0.13434561861E+03  0.13434561861E+03  0.00000000000E+00 0. -1.
         25    2    1    2    0    0  0.59857438442E+01  0.14568178739E+01 -0.66555753459E+02  0.14177843530E+03  0.12503401517E+03 0.  0.
          5    1    3    3  502    0  0.45658346607E+02 -0.64642624318E+01 -0.85252975819E+02  0.97015532724E+02  0.41800000000E+01 0. -1.
         -5    1    3    3    0  502 -0.39672602763E+02  0.79210803057E+01  0.18697222360E+02  0.44762902578E+02  0.41800000000E+01 0. -1.
        -11    1    1    2    0    0  0.20828572018E+02 -0.32077810839E+02 -0.56382733015E+01  0.38660127862E+02  0.00000000000E+00 0. -1.
         11    1    1    2    0    0 -0.26814315862E+02  0.30620992965E+02  0.43552005552E+02  0.59610652847E+02  0.00000000000E+00 0.  1.
</event>
<event>
 7    1  0.2412631E-010  0.1402917E+03  0.7561462E-02  0.1212937E+00
          2   -1    0    0  501    0  0.00000000000E+00  0.00000000000E+00  0.11069529506E+04  0.11069529506E+04  0.00000000000E+00 0.  1.
         -2   -1    0    0    0  501 -0.00000000000E+00 -0.00000000000E+00 -0.27227691680E+02  0.27227691680E+02  0.00000000000E+00 0. -1.
         25    2    1    2    0    0 -0.99040238855E+02  0.61293426081E+02  0.32695146343E+03  0.36894002389E+03  0.12511446278E+03 0.  0.
          5    1    3    3  502    0 -0.11355162226E+03  0.49438187356E+02  0.16759621465E+03  0.20843240835E+03  0.41800000000E+01 0. -1.
         -5    1    3    3    0  502  0.14511383401E+02  0.11855238725E+02  0.15935524877E+03  0.16050761554E+03  0.41800000000E+01 0. -1.
        -11    1    1    2    0    0  0.20351953086E+02 -0.54863037084E+02  0.33498885560E+03  0.34006130067E+03  0.00000000000E+00 0.  1.
         11    1    1    2    0    0  0.78688285769E+02 -0.64303889976E+01  0.41778493985E+03  0.42517931768E+03  0.00000000000E+00 0. -1.
</event>
<event>
 6    1  0.2412631E-010  0.1756217E+03  0.7561462E-02  0.1172109E+00
         -2   -1    0    0    0  501 -0.00000000000E+00  0.00000000000E+00  0.50744817003E+02  0.50744817003E+02  0.00000000000E+00 0.  1.
          2   -1    0    0  501    0  0.00000000000E+00 -0.00000000000E+00 -0.95384922770E+03  0.95384922770E+03  0.00000000000E+00 0. -1.
          5    1    1    2  502    0 -0.63786217134E+01  0.16075848883E+03 -0.39306224257E+03  0.42473447880E+03  0.41800000000E+01 0. -1.
         -5    1    1    2    0  502  0.20039280385E+02  0.71782052242E+01 -0.26946097269E+03  0.27033273496E+03  0.41800000000E+01 0. -1.
        -11    1    1    2    0    0 -0.60712352421E+01 -0.11170065690E+03 -0.75486970748E+02  0.13495250795E+03  0.00000000000E+00 0. -1.
         11    1    1    2    0    0 -0.75894234300E+01 -0.56236037152E+02 -0.16509422469E+03  0.17457432299E+03  0.00000000000E+00 0.  1.
</event>
<event>
 7    1  0.2412631E-010  0.6462046E+02  0.7561462E-02  0.1379405E+00
          1   -1    0    0  501    0  0.00000000000E+00  0.00000000000E+00  0.27371842360E+03  0.27371842360E+03  0.00000000000E+00 0. -1.
         -1   -1    0    0    0  501 -0.00000000000E+00 -0.00000000000E+00 -0.47061811190E+02  0.47061811190E+02  0.00000000000E+00 0.  1.
         25    2    1    2    0    0  0.26648342881E+02  0.25962784962E+02  0.13827578881E+03  0.19015816539E+03  0.12512287445E+03 0.  0.
          5    1    3    3  502    0  0.70742829261E+01 -0.12019049716E+02  0.14583917749E+03  0.14656411950E+03  0.41800000000E+01 0.  1.
         -5    1    3    3    0  502  0.19574059955E+02  0.37981834678E+02 -0.75633886763E+01  0.43594045888E+02  0.41800000000E+01 0.  1.
        -11    1    1    2    0    0 -0.39496185156E+02 -0.37513320626E+02  0.97050324847E+02  0.11129224330E+03  0.00000000000E+00 0. -1.
         11    1    1    2    0    0  0.12847842274E+02  0.11550535664E+02 -0.86695012466E+01  0.19329826101E+02  0.00000000000E+00 0.  1.
</event>
<event>
 7    1  0.2412631E-010  0.1890618E+03  0.7561462E-02  0.1159310E+00
          2   -1    0    0  501    0  0.00000000000E+00  0.00000000000E+00  0.35700197337E+03  0.35700197337E+03  0.00000000000E+00 0. -1.
         -2   -1    0    0    0  501 -0.00000000000E+00 -0.00000000000E+00 -0.12102468950E+03  0.12102468950E+03  0.00000000000E+00 0.  1.
         25    2    1    2    0    0  0.16578291841E+03  0.30644928103E+02  0.18017709600E+03  0.27663465160E+03  0.12505941342E+03 0.  0.
          5    1    3    3  502    0  0.13044461753E+03 -0.14224058028E+02  0.61736012688E+02  0.14507560005E+03  0.41800000000E+01 0. -1.
         -5    1    3    3    0  502  0.35338300879E+02  0.44868986130E+02  0.11844108332E+03  0.13155905154E+03  0.41800000000E+01 0. -1.
        -11    1    1    2    0    0 -0.67027463362E+02  0.30265091110E+02  0.41609873398E+02  0.84498746434E+02  0.00000000000E+00 0. -1.
         11    1    1    2    0    0 -0.98755455044E+02 -0.60910019213E+02  0.14190314464E+02  0.11689326485E+03  0.00000000000E+00 0.  1.
</event>
<event>
 6    1  0.2412631E-010  0.1063631E+03  0.7561462E-02  0.1267457E+00
          1   -1    0    0  501    0  0.00000000000E+00  0.00000000000E+00  0.12440168770E+03  0.12440168770E+03  0.00000000000E+00 0. -1.
         -1   -1    0    0    0  501 -0.00000000000E+00 -0.00000000000E+00 -0.16599816179E+03  0.16599816179E+03  0.00000000000E+00 0.  1.
          5    1    1    2  502    0 -0.57560368059E+01  0.76968892132E+01  0.43765029778E+02  0.45002492094E+02  0.41800000000E+01 0.  1.
         -5    1    1    2    0  502 -0.16781377207E+02 -0.94946992762E+02 -0.52549998262E+02  0.10988867445E+03  0.41800000000E+01 0.  1.
        -11    1    1    2    0    0  0.41039967330E+02  0.63901318117E+02  0.16668193013E+02  0.77752723643E+02  0.00000000000E+00 0. -1.
         11    1    1    2    0    0 -0.18502553318E+02  0.23348785431E+02 -0.49479698618E+02  0.57755959309E+02  0.00000000000E+00 0.  1.
</event>
<event>
 6    1  0.2412631E-010  0.1079003E+03  0.7561462E-02  0.1264508E+00
         -2   -1    0    0    0  501 -0.00000000000E+00  0.00000000000E+00  0.38145976918E+02  0.38145976918E+02  0.00000000000E+00 0.  1.
          2   -1    0    0  501    0  0.00000000000E+00 -0.00000000000E+00 -0.77110058768E+03  0.77110058768E+03  0.00000000000E+00 0. -1.
          5    1    1    2  502    0 -0.36771585704E+02  0.67422165163E+02 -0.19059739322E+03  0.20553037871E+03  0.41800000000E+01 0.  1.
         -5    1    1    2    0  502 -0.86851064255E+01  0.83830990288E+01  0.21991749379E+02  0.25432594514E+02  0.41800000000E+01 0.  1.
        -11    1    1    2    0    0  0.65124534345E+02 -0.21858869595E+02 -0.29791474202E+03  0.30573224996E+03  0.00000000000E+00 0.  1.
         11    1    1    2    0    0 -0.19667842215E+02 -0.53946394596E+02 -0.26643422490E+03  0.27255134141E+03  0.00000000000E+00 0. -1.
</event>
<event>
 7    1  0.2412631E-010  0.1152263E+03  0.7561462E-02  0.1251187E+00
         -1   -1    0    0    0  501 -0.00000000000E+00  0.00000000000E+00  0.34458736075E+02  0.34458736075E+02  0.00000000000E+00 0.  1.
          1   -1    0    0  501    0  0.00000000000E+00 -0.00000000000E+00 -0.51262846918E+03  0.51262846918E+03  0.00000000000E+00 0. -1.
         25    2    1    2    0    0 -0.61052968362E+02 -0.36903422312E+02 -0.33365424480E+03  0.36339551513E+03  0.12506725318E+03 0.  0.
          5    1    3    3  502    0  0.36032530325E+02 -0.15519490243E+02 -0.14294499431E+03  0.14829005906E+03  0.41800000000E+01 0.  1.
         -5    1    3    3    0  502 -0.97085498687E+02 -0.21383932069E+02 -0.19070925049E+03  0.21510545607E+03  0.41800000000E+01 0.  1.
        -11    1    1    2    0    0  0.35226916254E+02 -0.11145155417E+02 -0.96135032457E+01  0.38178129376E+02  0.00000000000E+00 0.  1.
         11    1    1    2    0    0  0.25826052108E+02  0.48048577729E+02 -0.13490198506E+03  0.14551356075E+03  0.00000000000E+00 0. -1.
</event>
<event>
 6    1  0.2412631E-010  0.1895529E+03  0.7561462E-02  0.1158865E+00
          1   -1    0    0  501    0  0.00000000000E+00  0.00000000000E+00  0.33904410499E+03  0.33904410499E+03  0.00000000000E+00 0. -1.
         -1   -1    0    0    0  501 -0.00000000000E+00 -0.00000000000E+00 -0.12978491409E+03  0.12978491409E+03  0.00000000000E+00 0.  1.
          5    1    1    2  502    0 -0.46580969520E+02  0.90930770853E+02 -0.15972644034E+02  0.10349294453E+03  0.41800000000E+01 0.  1.
         -5    1    1    2    0  502 -0.64644863668E+02  0.48759963061E+02  0.10361077795E+03  0.13156427366E+03  0.41800000000E+01 0.  1.
        -11    1    1    2    0    0  0.15790615955E+02 -0.83593010554E+02  0.30439643961E+02  0.90353233977E+02  0.00000000000E+00 0. -1.
         11    1    1    2    0    0  0.95435217233E+02 -0.56097723360E+02  0.91181413033E+02  0.14341856692E+03  0.00000000000E+00 0.  1.
</event>
<event>
 7    1  0.2412631E-010  0.1654927E+03  0.7561462E-02  0.1182631E+00
          2   -1    0    0  501    0  0.00000000000E+00  0.00000000000E+00  0.87000641872E+03  0.87000641872E+03  0.00000000000E+00 0. -1.
         -2   -1    0    0    0  501 -0.00000000000E+00 -0.00000000000E+00 -0.34546372349E+02  0.34546372349E+02  0.00000000000E+00 0.  1.
         25    2    1    2    0    0 -0.11321271442E+03  0.69700953278E+02  0.43123026300E+03  0.46826517486E+03  0.12504956083E+03 0.  0.
          5    1    3    3  502    0 -0.57209257558E+02  0.91729247150E+02  0.18102332428E+03  0.21088876278E+03  0.41800000000E+01 0. -1.
         -5    1    3    3    0  502 -0.56003456862E+02 -0.22028293872E+02  0.25020693873E+03  0.25737641208E+03  0.41800000000E+01 0. -1.
        -11    1    1    2    0    0  0.71799229836E+02  0.10157789391E+02  0.14992662499E+03  0.16654219577E+03  0.00000000000E+00 0.  1.
         11    1    1    2    0    0  0.41413484584E+02 -0.79858742670E+02  0.25430315838E+03  0.26974542044E+03  0.00000000000E+00 0. -1.
</event>
<event>
 6    1  0.2412631E-010  0.1044799E+03  0.7561462E-02  0.1271148E+00
         -1   -1    0    0    0  501 -0.00000000000E+00  0.00000000000E+00  0.23796664817E+02  0.23796664817E+02  0.00000000000E+00 0.  1.
          1   -1    0    0  501    0  0.00000000000E+00 -0.00000000000E+00 -0.68895462054E+03  0.68895462054E+03  0.00000000000E+00 0. -1.
          5    1    1    2  502    0 -0.43840406372E+02  0.28012985431E+02 -0.21797136361E+03  0.22413321115E+03  0.41800000000E+01 0.  1.
         -5    1    1    2    0  502  0.11814382720E+02 -0.87073459457E+02 -0.25123931697E+03  0.26619548038E+03  0.41800000000E+01 0.  1.
        -11    1    1    2    0    0  0.26820985360E+01  0.18721284275E+02  0.13080938060E+01  0.18957617120E+02  0.00000000000E+00 0.  1.
         11    1    1    2    0    0  0.29343925116E+02  0.40339189751E+02 -0.19725536895E+03  0.20346497672E+03  0.00000000000E+00 0. -1.
</event>
<event>
 6    1  0.2412631E-010  0.1350982E+03  0.7561462E-02  0.1220081E+00
          2   -1    0    0  501    0  0.00000000000E+00  0.00000000000E+00  0.19732838340E+03  0.19732838340E+03  0.00000000000E+00 0.  1.
         -2   -1    0    0    0  501 -0.00000000000E+00 -0.00000000000E+00 -0.10343449996E+03  0.10343449996E+03  0.00000000000E+00 0. -1.
          5    1    1    2  502    0  0.10888785724E+03 -0.43056129242E+01  0.42972987254E+02  0.11721456305E+03  0.41800000000E+01 0.  1.
         -5    1    1    2    0  502 -0.34579246953E+02 -0.90415881114E+01  0.52697541392E+01  0.36369181240E+02  0.41800000000E+01 0.  1.
        -11    1    1    2    0    0  0.15594008064E+02  0.29920683293E+02 -0.15565721855E+02  0.37157934188E+02  0.00000000000E+00 0. -1.
         11    1    1    2    0    0 -0.89902618348E+02 -0.16573482258E+02  0.61216863903E+02  0.11002120489E+03  0.00000000000E+00 0.  1.
</event>
<event>
 6    1  0.2412631E-010  0.1527509E+03  0.7561462E-02  0.1197133E+00
          1   -1    0    0  501    0  0.00000000000E+00  0.00000000000E+00  0.11051511990E+03  0.11051511990E+03  0.00000000000E+00 0. -1.
         -1   -1    0    0    0  501 -0.00000000000E+00 -0.00000000000E+00 -0.23458363761E+03  0.23458363761E+03  0.00000000000E+00 0.  1.
          5    1    1    2  502    0  0.30689130798E+02 -0.28507755070E+02 -0.28212706903E+02  0.50674886078E+02  0.41800000000E+01 0. -1.
         -5    1    1    2    0  502 -0.32098195363E+02  0.90981437669E+02 -0.66368222990E+02  0.11717563556E+03  0.41800000000E+01 0. -1.
        -11    1    1    2    0    0 -0.76274296721E+02 -0.39118370600E+02 -0.41512723788E+02  0.95243485315E+02  0.00000000000E+00 0.  1.
         11    1    1    2    0    0  0.77683361286E+02 -0.23355312000E+02  0.12025135970E+02  0.82004750560E+02  0.00000000000E+00 0. -1.
</event>
<event>
 6    1  0.2412631E-010  0.1499889E+03  0.7561462E-02  0.1200487E+00
         -4   -1    0    0    0  501 -0.00000000000E+00  0.00000000000E+00  0.42325594254E+02  0.42325594254E+02  0.00000000000E+00 0.  1.
          4   -1    0    0  501    0  0.00000000000E+00 -0.00000000000E+00 -0.56608871241E+03  0.56608871241E+03  0.00000000000E+00 0. -1.
          5    1    1    2  502    0  0.10981761438E+02  0.27876283517E+02 -0.77699343154E+02  0.83380732747E+02  0.41800000000E+01 0. -1.
         -5    1    1    2    0  502 -0.84466989684E+02 -0.10105408432E+03 -0.27750389461E+03  0.30720104854E+03  0.41800000000E+01 0. -1.
        -11    1    1    2    0    0  0.93392724596E+02  0.45571884777E+02 -0.12881188932E+03  0.16550377796E+03  0.00000000000E+00 0.  1.
         11    1    1    2    0    0 -0.19907496350E+02  0.27605916030E+02 -0.39747991070E+02  0.52328747404E+02  0.00000000000E+00 0. -1.
</event>
<event>
 7    1  0.2412631E-010  0.1016146E+03  0.7561462E-02  0.1276937E+00
          1   -1    0    0  501    0  0.00000000000E+00  0.00000000000E+00  0.45538866975E+03  0.45538866975E+03  0.00000000000E+00 0. -1.
         -1   -1    0    0    0  501 -0.00000000000E+00 -0.00000000000E+00 -0.30802733962E+02  0.30802733962E+02  0.00000000000E+00 0.  1.
         25    2    1    2    0    0 -0.47459208485E+02  0.69845519882E+01  0.23766881373E+03  0.27281249784E+03  0.12505612149E+03 0.  0.
          5    1    3    3  502    0 -0.75715933324E+02  0.12328482781E+02  0.23038012697E+03  0.24285256710E+03  0.41800000000E+01 0. -1.
         -5    1    3    3    0  502  0.28256724839E+02 -0.53439307923E+01  0.72886867589E+01  0.29959930734E+02  0.41800000000E+01 0. -1.
        -11    1    1    2    0    0  0.23622523453E+01 -0.40867145061E+02  0.11442213892E+03  0.12152419371E+03  0.00000000000E+00 0.  1.
         11    1    1    2    0    0  0.45096956140E+02  0.33882593073E+02  0.72494983136E+02  0.91854712162E+02  0.00000000000E+00 0. -1.
</event>
<event>
 7    1  0.2412631E-010  0.1682606E+03  0.7561462E-02  0.1179674E+00
          2   -1    0    0  501    0  0.00000000000E+00  0.00000000000E+00  0.69629070038E+03  0.69629070038E+03  0.00000000000E+00 0. -1.
         -2   -1    0    0    0  501 -0.00000000000E+00 -0.00000000000E+00 -0.44267205839E+02  0.44267205839E+02  0.00000000000E+00 0.  1.
         25    2    1    2    0    0  0.12935625363E+03 -0.38376147644E+01  0.45187861271E+03  0.48639931999E+03  0.12506898183E+03 0.  0.
          5    1    3    3  502    0  0.12168726492E+03  0.45382133221E+02  0.33099920897E+03  0.35559144703E+03  0.41800000000E+01 0. -1.
         -5    1    3    3    0  502  0.76689887116E+01 -0.49219747986E+02  0.12087940374E+03  0.13080787296E+03  0.41800000000E+01 0. -1.
        -11    1    1    2    0    0 -0.12760008627E+03  0.29420542474E+02  0.16985887628E+03  0.21447467959E+03  0.00000000000E+00 0. -1.
         11    1    1    2    0    0 -0.17561673618E+01 -0.25582927710E+02  0.30286005551E+02  0.39683906640E+02  0.00000000000E+00 0.  1.
</event>
<event>
 7    1  0.2412631E-010  0.1669113E+03  0.7561462E-02  0.1181108E+00
         -1   -1    0    0    0  501 -0.00000000000E+00  0.00000000000E+00  0.13724431708E+03  0.13724431708E+03  0.00000000000E+00 0.  1.
          1   -1    0    0  501    0  0.00000000000E+00 -0.00000000000E+00 -0.30629816866E+03  0.30629816866E+03  0.00000000000E+00 0. -1.
         25    2    1    2    0    0  0.80650396547E+02  0.11379552858E+03  0.23658617399E+02  0.18882237355E+03  0.12506098428E+03 0.  0.
          5    1    3    3  502    0  0.16047087841E+02  0.11897127307E+03  0.29268055142E+02  0.12363561095E+03  0.41800000000E+01 0. -1.
         -5    1    3    3    0  502  0.64603308705E+02 -0.51757444856E+01 -0.56094377425E+01  0.65186762601E+02  0.41800000000E+01 0. -1.
        -11    1    1    2    0    0 -0.31412875828E+02 -0.85390130031E+01 -0.35897173343E+01  0.32750108113E+02  0.00000000000E+00 0.  1.
         11    1    1    2    0    0 -0.49237520718E+02 -0.10525651558E+03 -0.18912275165E+03  0.22197000408E+03  0.00000000000E+00 0. -1.
</event>
<event>
 7    1  0.2412631E-010  0.9009849E+02  0.7561462E-02  0.1302613E+00
         -1   -1    0    0    0  501 -0.00000000000E+00  0.00000000000E+00  0.12997373374E+03  0.12997373374E+03  0.00000000000E+00 0.  1.
          1   -1    0    0  501    0  0.00000000000E+00 -0.00000000000E+00 -0.10810440046E+03  0.10810440046E+03  0.00000000000E+00 0. -1.
         25    2    1    2    0    0  0.23990608925E+02  0.30327750377E+02  0.41451695331E+02  0.13728971426E+03  0.12503959708E+03 0.  0.
          5    1    3    3  502    0  0.47424147638E+02  0.48202888019E+02 -0.18607058429E+02  0.70258545501E+02  0.41800000000E+01 0. -1.
         -5    1    3    3    0  502 -0.23433538714E+02 -0.17875137642E+02  0.60058753760E+02  0.67031168762E+02  0.41800000000E+01 0. -1.
        -11    1    1    2    0    0  0.23068039640E+02  0.52831562236E+01  0.18942488262E+02  0.30312770479E+02  0.00000000000E+00 0.  1.
         11    1    1    2    0    0 -0.47058648565E+02 -0.35610906600E+02 -0.38524850315E+02  0.70475649451E+02  0.00000000000E+00 0. -1.
</event>
<event>
 7    1  0.2412631E-010  0.4069010E+03  0.7561462E-02  0.1041416E+00
         -1   -1    0    0    0  501 -0.00000000000E+00  0.00000000000E+00  0.33768037723E+03  0.33768037723E+03  0.00000000000E+00 0. -1.
          1   -1    0    0  501    0  0.00000000000E+00 -0.00000000000E+00 -0.58718451551E+03  0.58718451551E+03  0.00000000000E+00 0.  1.
         25    2    1    2    0    0  0.37344671487E+03 -0.14180156772E+03  0.45067779814E+02  0.42100251225E+03  0.12506749013E+03 0.  0.
          5    1    3    3  502    0  0.15044084037E+03 -0.11402105758E+03  0.52943178972E+02  0.19609615148E+03  0.41800000000E+01 0.  1.
         -5    1    3    3    0  502  0.22300587450E+03 -0.27780510139E+02 -0.78753991585E+01  0.22490636077E+03  0.41800000000E+01 0.  1.
        -11    1    1    2    0    0 -0.13475342754E+02  0.10374129181E+02  0.46911812391E+01  0.17641275465E+02  0.00000000000E+00 0. -1.
         11    1    1    2    0    0 -0.35997137212E+03  0.13142743854E+03 -0.29926309934E+03  0.48622110502E+03  0.00000000000E+00 0.  1.
</event>
<event>
 6    1  0.2412631E-010  0.1007239E+03  0.7561462E-02  0.1278781E+00
          1   -1    0    0  501    0  0.00000000000E+00  0.00000000000E+00  0.11502283002E+03  0.11502283002E+03  0.00000000000E+00 0. -1.
         -1   -1    0    0    0  501 -0.00000000000E+00 -0.00000000000E+00 -0.10766023429E+03  0.10766023429E+03  0.00000000000E+00 0.  1.
          5    1    1    2  502    0 -0.38705211963E+02 -0.48336363771E+02  0.13361869310E+02  0.63486293380E+02  0.41800000000E+01 0.  1.
         -5    1    1    2    0  502  0.18816482330E+02  0.60656482782E+02 -0.79217953893E+01  0.64136543039E+02  0.41800000000E+01 0.  1.
        -11    1    1    2    0    0  0.39503348695E+02  0.14871846931E+02 -0.27562076211E+02  0.50411848154E+02  0.00000000000E+00 0.  1.
         11    1    1    2    0    0 -0.19614619063E+02 -0.27191965942E+02  0.29484598025E+02  0.44648379741E+02  0.00000000000E+00 0. -1.
</event>
<event>
 6    1  0.2412631E-010  0.9673451E+02  0.7561462E-02  0.1287317E+00
         -2   -1    0    0    0  501 -0.00000000000E+00  0.00000000000E+00  0.36521107404E+02  0.36521107404E+02  0.00000000000E+00 0.  1.
          2   -1    0    0  501    0  0.00000000000E+00 -0.00000000000E+00 -0.46401394522E+03  0.46401394522E+03  0.00000000000E+00 0. -1.
          5    1    1    2  502    0  0.17696354959E+02 -0.35953545080E+02  0.20532495686E+01  0.40342367511E+02  0.41800000000E+01 0.  1.
         -5    1    1    2    0  502 -0.41526138766E+02  0.34353789871E+02 -0.12767700964E+03  0.13864881633E+03  0.41800000000E+01 0.  1.
        -11    1    1    2    0    0  0.31883085561E+02  0.44906350715E+02 -0.93028084451E+02  0.10810798294E+03  0.00000000000E+00 0. -1.
         11    1    1    2    0    0 -0.80533017532E+01 -0.43306595506E+02 -0.20884099329E+03  0.21343588584E+03  0.00000000000E+00 0.  1.
</event>
<event>
 7    1  0.2412631E-010  0.1083778E+03  0.7561462E-02  0.1263604E+00
         -1   -1    0    0    0  501 -0.00000000000E+00  0.00000000000E+00  0.65974977467E+02  0.65974977467E+02  0.00000000000E+00 0.  1.
          1   -1    0    0  501    0  0.00000000000E+00 -0.00000000000E+00 -0.30725089217E+03  0.30725089217E+03  0.00000000000E+00 0. -1.
         25    2    1    2    0    0 -0.46033273938E+02 -0.56083804882E+02 -0.24033609064E+03  0.28047120824E+03  0.12505281566E+03 0.  0.
          5    1    3    3  502    0 -0.12295608296E+02 -0.93054851653E+02 -0.16629990297E+03  0.19100659028E+03  0.41800000000E+01 0.  1.
         -5    1    3    3    0  502 -0.33737665642E+02  0.36971046771E+02 -0.74036187671E+02  0.89464617962E+02  0.41800000000E+01 0.  1.
        -11    1    1    2    0    0  0.28772007451E+02  0.36251681969E+02  0.27650897804E+02  0.53912753665E+02  0.00000000000E+00 0.  1.
         11    1    1    2    0    0  0.17261266487E+02  0.19832122913E+02 -0.28590721864E+02  0.38841907737E+02  0.00000000000E+00 0. -1.
</event>
<event>
 7    1  0.2412631E-010  0.1838382E+03  0.7561462E-02  0.1164139E+00
          1   -1    0    0  501    0  0.00000000000E+00  0.00000000000E+00  0.11022954265E+04  0.11022954265E+04  0.00000000000E+00 0. -1.
         -1   -1    0    0    0  501 -0.00000000000E+00 -0.00000000000E+00 -0.38321521442E+02  0.38321521442E+02  0.00000000000E+00 0.  1.
         25    2    1    2    0    0  0.92436978498E+02 -0.14440275611E+03  0.63911835797E+03  0.67343127020E+03  0.12506258123E+03 0.  0.
          5    1    3    3  502    0  0.75057303127E+02 -0.91403866117E+02  0.58037828676E+03  0.59232144452E+03  0.41800000000E+01 0.  1.
         -5    1    3    3    0  502  0.17379675371E+02 -0.52998889992E+02  0.58740071209E+02  0.81109825681E+02  0.41800000000E+01 0.  1.
        -11    1    1    2    0    0 -0.96149491588E+02  0.70069475199E+02  0.28301103863E+03  0.30700114670E+03  0.00000000000E+00 0. -1.
         11    1    1    2    0    0  0.37125130900E+01  0.74333280910E+02  0.14184450841E+03  0.16018453099E+03  0.00000000000E+00 0.  1.
</event>
<event>
 7    1  0.2412631E-010  0.1789257E+03  0.7561462E-02  0.1168847E+00
         -1   -1    0    0    0  501 -0.00000000000E+00  0.00000000000E+00  0.19875184903E+03  0.19875184903E+03  0.00000000000E+00 0.  1.
          1   -1    0    0  501    0  0.00000000000E+00 -0.00000000000E+00 -0.26719727565E+03  0.26719727565E+03  0.00000000000E+00 0. -1.
         25    2    1    2    0    0 -0.13531767007E+03  0.78167734812E+02 -0.15735044778E+03  0.25463607887E+03  0.12513713538E+03 0.  0.
          5    1    3    3  502    0 -0.11615448534E+03  0.11041855192E+03 -0.14099807734E+03  0.21349953463E+03  0.41800000000E+01 0.  1.
         -5    1    3    3    0  502 -0.19163184734E+02 -0.32250817112E+02 -0.16352370435E+02  0.41136544245E+02  0.41800000000E+01 0.  1.
        -11    1    1    2    0    0  0.52270003849E+02 -0.12066550231E+02 -0.21835989663E+02  0.57918609974E+02  0.00000000000E+00 0. -1.
         11    1    1    2    0    0  0.83047666220E+02 -0.66101184581E+02  0.11074101082E+03  0.15339443584E+03  0.00000000000E+00 0.  1.
</event>
<event>
 7    1  0.2412631E-010  0.1027550E+03  0.7561462E-02  0.1274607E+00
          2   -1    0    0  501    0  0.00000000000E+00  0.00000000000E+00  0.30002133987E+03  0.30002133987E+03  0.00000000000E+00 0. -1.
         -2   -1    0    0    0  501 -0.00000000000E+00 -0.00000000000E+00 -0.54794023179E+02  0.54794023179E+02  0.00000000000E+00 0.  1.
         25    2    1    2    0    0 -0.52744739424E+02  0.19660298355E+02  0.84897433765E+02  0.16134286984E+03  0.12512159094E+03 0.  0.
          5    1    3    3  502    0  0.27929295149E+02  0.15725946215E+02 -0.12576524557E+02  0.34684179128E+02  0.41800000000E+01 0.  1.
         -5    1    3    3    0  502 -0.80674034573E+02  0.39343521402E+01  0.97473958323E+02  0.12665869071E+03  0.41800000000E+01 0.  1.
        -11    1    1    2    0    0  0.17152744676E+02 -0.45302677767E+02  0.32521498356E+02  0.58345497839E+02  0.00000000000E+00 0.  1.
         11    1    1    2    0    0  0.35591994748E+02  0.25642379412E+02  0.12780838457E+03  0.13512699537E+03  0.00000000000E+00 0. -1.
</event>
<event>
 6    1  0.2412631E-010  0.1315092E+03  0.7561462E-02  0.1225233E+00
          1   -1    0    0  501    0  0.00000000000E+00  0.00000000000E+00  0.47659297008E+03  0.47659297008E+03  0.00000000000E+00 0. -1.
         -1   -1    0    0    0  501 -0.00000000000E+00 -0.00000000000E+00 -0.53817152641E+02  0.53817152641E+02  0.00000000000E+00 0.  1.
          5    1    1    2  502    0 -0.39647882533E+02 -0.26586064676E+02 -0.70635456010E+01  0.48436964198E+02  0.41800000000E+01 0.  1.
         -5    1    1    2    0  502 -0.25545152164E+01 -0.74280471567E+02  0.16278281060E+03  0.17899673134E+03  0.41800000000E+01 0.  1.
        -11    1    1    2    0    0  0.62509748780E+02  0.34807470505E+02  0.16358959909E+03  0.17855135291E+03  0.00000000000E+00 0. -1.
         11    1    1    2    0    0 -0.20307351031E+02  0.66059065737E+02  0.10346695335E+03  0.12442507428E+03  0.00000000000E+00 0.  1.
</event>
<event>
 7    1  0.2412631E-010  0.1131712E+03  0.7561462E-02  0.1254808E+00
          3   -1    0    0  501    0  0.00000000000E+00  0.00000000000E+00  0.57069560428E+02  0.57069560428E+02  0.00000000000E+00 0. -1.
         -3   -1    0    0    0  501 -0.00000000000E+00 -0.00000000000E+00 -0.30198307310E+03  0.30198307310E+03  0.00000000000E+00 0.  1.
         25    2    1    2    0    0 -0.18903453963E+02  0.49265357426E+02 -0.65263137114E+02  0.15067821843E+03  0.12514085036E+03 0.  0.
          5    1    3    3  502    0 -0.11766344332E+01  0.86798354848E+02 -0.65717996627E+02  0.10895717670E+03  0.41800000000E+01 0.  1.
         -5    1    3    3    0  502 -0.17726819530E+02 -0.37532997422E+02  0.45485951292E+00  0.41721041733E+02  0.41800000000E+01 0.  1.
        -11    1    1    2    0    0  0.30283537342E+02  0.14052072005E+02 -0.27747659223E+02  0.43410666361E+02  0.00000000000E+00 0.  1.
         11    1    1    2    0    0 -0.11380083379E+02 -0.63317429431E+02 -0.15190271634E+03  0.16496374874E+03  0.00000000000E+00 0. -1.
</event>
<event>
 6    1  0.2412631E-010  0.1053939E+03  0.7561462E-02  0.1269346E+00
          2   -1    0    0  501    0  0.00000000000E+00  0.00000000000E+00  0.30995454839E+03  0.30995454839E+03  0.00000000000E+00 0. -1.
         -2   -1    0    0    0  501 -0.00000000000E+00 -0.00000000000E+00 -0.63998298741E+02  0.63998298741E+02  0.00000000000E+00 0.  1.
          5    1    1    2  502    0  0.19295055131E+02  0.22731694554E+02 -0.20505106939E+02  0.36427474527E+02  0.41800000000E+01 0.  1.
         -5    1    1    2    0  502 -0.85552098835E+02 -0.10376973695E+02  0.79440891593E+02  0.11728244052E+03  0.41800000000E+01 0.  1.
        -11    1    1    2    0    0  0.83812345331E+00  0.20966256995E+02  0.11673715253E+03  0.11860796416E+03  0.00000000000E+00 0. -1.
         11    1    1    2    0    0  0.65418920251E+02 -0.33320977855E+02  0.70283312473E+02  0.10163496792E+03  0.00000000000E+00 0.  1.
</event>
<event>
 7    1  0.2412631E-010  0.1390383E+03  0.7561462E-02  0.1214629E+00
          2   -1    0    0  501    0  0.00000000000E+00  0.00000000000E+00  0.89971429459E+03  0.89971429459E+03  0.00000000000E+00 0. -1.
         -2   -1    0    0    0  501 -0.00000000000E+00 -0.00000000000E+00 -0.28982751272E+02  0.28982751272E+02  0.00000000000E+00 0.  1.
         25    2    1    2    0    0  0.93408378547E+02 -0.73636857556E+02  0.44605238194E+03  0.47830167870E+03  0.12514893701E+03 0.  0.
          5    1    3    3  502    0  0.56491164552E+02  0.12386912306E+02  0.29424253552E+03  0.29990136608E+03  0.41800000000E+01 0. -1.
         -5    1    3    3    0  502  0.36917213995E+02 -0.86023769862E+02  0.15180984643E+03  0.17840031262E+03  0.41800000000E+01 0. -1.
        -11    1    1    2    0    0 -0.34986609477E+02  0.35811286288E+01  0.32976162475E+02  0.48211146185E+02  0.00000000000E+00 0.  1.
         11    1    1    2    0    0 -0.58421769070E+02  0.70055728927E+02  0.39170299890E+03  0.40218422098E+03  0.00000000000E+00 0. -1.
</event>
<event>
 6    1  0.2412631E-010  0.9972123E+02  0.7561462E-02  0.1280883E+00
          2   -1    0    0  501    0  0.00000000000E+00  0.00000000000E+00  0.30287564629E+03  0.30287564629E+03  0.00000000000E+00 0. -1.
         -2   -1    0    0    0  501 -0.00000000000E+00 -0.00000000000E+00 -0.57261086586E+02  0.57261086586E+02  0.00000000000E+00 0.  1.
          5    1    1    2  502    0 -0.23231106551E+02 -0.83953712189E+01  0.12179089342E+03  0.12434090514E+03  0.41800000000E+01 0.  1.
         -5    1    1    2    0  502  0.83813288315E+02  0.25368743232E+02  0.64926500763E+02  0.10909245314E+03  0.41800000000E+01 0.  1.
        -11    1    1    2    0    0 -0.52627063095E+02 -0.37557124374E+02  0.91141235838E+00  0.64660467317E+02  0.00000000000E+00 0.  1.
         11    1    1    2    0    0 -0.79551186686E+01  0.20583752361E+02  0.57985753157E+02  0.62042907278E+02  0.00000000000E+00 0. -1.
</event>
<event>
 6    1  0.2412631E-010  0.1229996E+03  0.7561462E-02  0.1238229E+00
         -3   -1    0    0    0  501 -0.00000000000E+00  0.00000000000E+00  0.51496561302E+02  0.51496561302E+02  0.00000000000E+00 0.  1.
          3   -1    0    0  501    0  0.00000000000E+00 -0.00000000000E+00 -0.40079226088E+03  0.40079226088E+03  0.00000000000E+00 0. -1.
          5    1    1    2  502    0 -0.32967163352E+02 -0.48510112854E+01 -0.91076444149E+02  0.97070887751E+02  0.41800000000E+01 0.  1.
         -5    1    1    2    0  502  0.75566775671E+02  0.85834252054E+02 -0.13470570681E+03  0.17675111388E+03  0.41800000000E+01 0.  1.
        -11    1    1    2    0    0 -0.45479347931E+02 -0.52949354349E+02 -0.22106631470E+02  0.73216858504E+02  0.00000000000E+00 0.  1.
         11    1    1    2    0    0  0.28797356126E+01 -0.28033886419E+02 -0.10140691715E+03  0.10524996204E+03  0.00000000000E+00 0. -1.
</event>
<event>
 7    1  0.2412631E-010  0.1422211E+03  0.7561462E-02  0.1210371E+00
          2   -1    0    0  501    0  0.00000000000E+00  0.00000000000E+00  0.37966020331E+03  0.37966020331E+03  0.00000000000E+00 0. -1.
         -2   -1    0    0    0  501 -0.00000000000E+00 -0.00000000000E+00 -0.57238904209E+02  0.57238904209E+02  0.00000000000E+00 0.  1.
         25    2    1    2    0    0  0.36390545340E+02  0.89263248741E+02  0.19806968404E+03  0.25334284029E+03  0.12513510948E+03 0.  0.
          5    1    3    3  502    0  0.48822705046E+02 -0.15601328770E+02  0.52860492227E+02  0.73747962859E+02  0.41800000000E+01 0.  1.
         -5    1    3    3    0  502 -0.12432159707E+02  0.10486457751E+03  0.14520919181E+03  0.17959487743E+03  0.41800000000E+01 0.  1.
        -11    1    1    2    0    0  0.29992444177E+01 -0.87869923768E+02  0.54764682015E+02  0.10358228307E+03  0.00000000000E+00 0.  1.
         11    1    1    2    0    0 -0.39389789757E+02 -0.13933249735E+01  0.69586933047E+02  0.79973984161E+02  0.00000000000E+00 0. -1.
</event>
<event>
 7    1  0.2412631E-010  0.1571447E+03  0.7561462E-02  0.1191959E+00
         -2   -1    0    0    0  501 -0.00000000000E+00  0.00000000000E+00  0.30552497583E+03  0.30552497583E+03  0.00000000000E+00 0. -1.
          2   -1    0    0  501    0  0.00000000000E+00 -0.00000000000E+00 -0.94439687341E+02  0.94439687341E+02  0.00000000000E+00 0.  1.
         25    2    1    2    0    0  0.11240165022E+03  0.38066555728E+02  0.53741044205E+02  0.18062971165E+03  0.12512313639E+03 0.  0.
          5    1    3    3  502    0  0.42817926018E+02  0.76520939518E+02  0.64301893450E+01  0.88020728855E+02  0.41800000000E+01 0. -1.
         -5    1    3    3    0  502  0.69583724201E+02 -0.38454383790E+02  0.47310854860E+02  0.92608982792E+02  0.41800000000E+01 0. -1.
        -11    1    1    2    0    0 -0.10502698911E+03  0.30971369113E+01  0.82464452535E+02  0.13356888346E+03  0.00000000000E+00 0. -1.
         11    1    1    2    0    0 -0.73746611124E+01 -0.41163692640E+02  0.74879791746E+02  0.85766068058E+02  0.00000000000E+00 0.  1.
</event>
<event>
 6    1  0.2412631E-010  0.8699257E+02  0.7561462E-02  0.1310302E+00
          1   -1    0    0  501    0  0.00000000000E+00  0.00000000000E+00  0.11064249962E+03  0.11064249962E+03  0.00000000000E+00 0. -1.
         -1   -1    0    0    0  501 -0.00000000000E+00 -0.00000000000E+00 -0.15948132872E+03  0.15948132872E+03  0.00000000000E+00 0.  1.
          5    1    1    2  502    0  0.31158449196E+02  0.48831463140E+02 -0.40898550617E+02  0.71031856172E+02  0.41800000000E+01 0. -1.
         -5    1    1    2    0  502  0.16268762868E+02 -0.17311336155E+02  0.63799969121E+02  0.68207502993E+02  0.41800000000E+01 0. -1.
        -11    1    1    2    0    0 -0.56726635979E+02  0.22395926571E+01 -0.76798834288E+02  0.95503863549E+02  0.00000000000E+00 0.  1.
         11    1    1    2    0    0  0.92994239150E+01 -0.33759719642E+02  0.50585866873E+01  0.35380605630E+02  0.00000000000E+00 0. -1.
</event>
<event>
 6    1  0.2412631E-010  0.1146227E+03  0.7561462E-02  0.1252241E+00
          1   -1    0    0  501    0  0.00000000000E+00  0.00000000000E+00  0.12703607457E+04  0.12703607457E+04  0.00000000000E+00 0. -1.
         -1   -1    0    0    0  501 -0.00000000000E+00 -0.00000000000E+00 -0.17187528226E+02  0.17187528226E+02  0.00000000000E+00 0.  1.
          5    1    1    2  502    0 -0.25555191080E+02 -0.81831122412E+01  0.38860131063E+03  0.38954907539E+03  0.41800000000E+01 0. -1.
         -5    1    1    2    0  502  0.10357091080E+03  0.18655247901E+02  0.57229906706E+03  0.58190948300E+03  0.41800000000E+01 0. -1.
        -11    1    1    2    0    0 -0.44468041363E+02  0.22407224036E+02  0.24286123233E+03  0.24791342956E+03  0.00000000000E+00 0. -1.
         11    1    1    2    0    0 -0.33547678360E+02 -0.32879359695E+02  0.49411607448E+02  0.68176285964E+02  0.00000000000E+00 0.  1.
</event>
<event>
 6    1  0.2412631E-010  0.1298569E+03  0.7561462E-02  0.1227668E+00
          2   -1    0    0  501    0  0.00000000000E+00  0.00000000000E+00  0.13008365464E+04  0.13008365464E+04  0.00000000000E+00 0. -1.
         -2   -1    0    0    0  501 -0.00000000000E+00 -0.00000000000E+00 -0.16132994771E+02  0.16132994771E+02  0.00000000000E+00 0.  1.
          5    1    1    2  502    0 -0.46516724275E+02 -0.31293285502E+02  0.10897153055E+03  0.12261868628E+03  0.41800000000E+01 0.  1.
         -5    1    1    2    0  502 -0.27407597945E+02  0.64983837025E+02  0.46744974612E+03  0.47275872604E+03  0.41800000000E+01 0.  1.
        -11    1    1    2    0    0 -0.26695401143E+02 -0.14607887749E+02  0.93204024759E+02  0.98046035402E+02  0.00000000000E+00 0.  1.
         11    1    1    2    0    0  0.10061972336E+03 -0.19082663774E+02  0.61507825022E+03  0.62354609346E+03  0.00000000000E+00 0. -1.
</event>
<event>
 7    1  0.2412631E-010  0.1063258E+03  0.7561462E-02  0.1267529E+00
         -2   -1    0    0    0  501 -0.00000000000E+00  0.00000000000E+00  0.67557969227E+01  0.67557969227E+01  0.00000000000E+00 0.  1.
          2   -1    0    0  501    0  0.00000000000E+00 -0.00000000000E+00 -0.20674389791E+04  0.20674389791E+04  0.00000000000E+00 0. -1.
         25    2    1    2    0    0  0.24020823876E+02  0.17353091243E+00 -0.15381310546E+04  0.15433983008E+04  0.12511652009E+03 0.  0.
          5    1    3    3  502    0 -0.35712576829E+02 -0.34888801582E+02 -0.39524407567E+03  0.39840678756E+03  0.41800000000E+01 0.  1.
         -5    1    3    3    0  502  0.59733400705E+02  0.35062332494E+02 -0.11428869789E+04  0.11449915132E+04  0.41800000000E+01 0.  1.
        -11    1    1    2    0    0 -0.41525989390E+02 -0.34918249404E+02 -0.29791332309E+03  0.30281354001E+03  0.00000000000E+00 0.  1.
         11    1    1    2    0    0  0.17505165514E+02  0.34744718492E+02 -0.22463880450E+03  0.22798293526E+03  0.00000000000E+00 0. -1.
</event>
<event>
 6    1  0.2412631E-010  0.5729862E+02  0.7561462E-02  0.1409531E+00
          1   -1    0    0  501    0  0.00000000000E+00  0.00000000000E+00  0.48278310266E+03  0.48278310266E+03  0.00000000000E+00 0. -1.
         -1   -1    0    0    0  501 -0.00000000000E+00 -0.00000000000E+00 -0.26928267596E+02  0.26928267596E+02  0.00000000000E+00 0.  1.
          5    1    1    2  502    0 -0.99249958041E+01  0.87782083039E+01 -0.16607755901E+02  0.21653000688E+02  0.41800000000E+01 0.  1.
         -5    1    1    2    0  502  0.77467310581E+01 -0.23152953766E+02  0.19557161045E+03  0.19713396035E+03  0.41800000000E+01 0.  1.
        -11    1    1    2    0    0 -0.36109419019E+02  0.44651924587E+01  0.21069699777E+03  0.21381546473E+03  0.00000000000E+00 0. -1.
         11    1    1    2    0    0  0.38287683765E+02  0.99095530038E+01  0.66193982737E+02  0.77108944484E+02  0.00000000000E+00 0.  1.
</event>
<event>
 7    1  0.2412631E-010  0.2429033E+03  0.7561462E-02  0.1117874E+00
          1   -1    0    0  501    0  0.00000000000E+00  0.00000000000E+00  0.49665293211E+03  0.49665293211E+03  0.00000000000E+00 0. -1.
         -1   -1    0    0    0  501 -0.00000000000E+00 -0.00000000000E+00 -0.16172336641E+03  0.16172336641E+03  0.00000000000E+00 0.  1.
         25    2    1    2    0    0 -0.19562525504E+03 -0.12765563697E+03  0.33744422320E+02  0.26710303485E+03  0.12506055785E+03 0.  0.
          5    1    3    3  502    0 -0.11844308670E+03 -0.21128974666E+02 -0.25031592729E+02  0.12296036512E+03  0.41800000000E+01 0. -1.
         -5    1    3    3    0  502 -0.77182168337E+02 -0.10652666230E+03  0.58776015049E+02  0.14414266972E+03  0.41800000000E+01 0. -1.
        -11    1    1    2    0    0  0.13874015819E+03  0.95890185571E+02  0.27163193587E+03  0.31973061750E+03  0.00000000000E+00 0.  1.
         11    1    1    2    0    0  0.56885096848E+02  0.31765451395E+02  0.29553207512E+02  0.71542646163E+02  0.00000000000E+00 0. -1.
</event>
<event>
 7    1  0.2412631E-010  0.9499740E+02  0.7561462E-02  0.1291182E+00
          1   -1    0    0  501    0  0.00000000000E+00  0.00000000000E+00  0.43421780015E+02  0.43421780015E+02  0.00000000000E+00 0. -1.
         -1   -1    0    0    0  501 -0.00000000000E+00 -0.00000000000E+00 -0.38008842768E+03  0.38008842768E+03  0.00000000000E+00 0.  1.
         25    2    1    2    0    0 -0.11729486029E+02 -0.49231775593E+02 -0.26451689615E+03  0.29697184826E+03  0.12514688067E+03 0.  0.
          5    1    3    3  502    0  0.21071525665E+02  0.18994056270E+02 -0.18459880204E+03  0.18681266949E+03  0.41800000000E+01 0.  1.
         -5    1    3    3    0  502 -0.32801011693E+02 -0.68225831863E+02 -0.79918094105E+02  0.11015917877E+03  0.41800000000E+01 0.  1.
        -11    1    1    2    0    0  0.26633436716E+02 -0.68291564227E+01 -0.61764355570E+02  0.67607787626E+02  0.00000000000E+00 0.  1.
         11    1    1    2    0    0 -0.14903950687E+02  0.56060932016E+02 -0.10385395946E+02  0.58930571807E+02  0.00000000000E+00 0. -1.
</event>
<event>
 7    1  0.2412631E-010  0.1441477E+03  0.7561462E-02  0.1207854E+00
          2   -1    0    0  501    0  0.00000000000E+00  0.00000000000E+00  0.55258880629E+03  0.55258880629E+03  0.00000000000E+00 0.  1.
         -2   -1    0    0    0  501 -0.00000000000E+00 -0.00000000000E+00 -0.71229075474E+02  0.71229075474E+02  0.00000000000E+00 0. -1.
         25    2    1    2    0    0 -0.10952298503E+03  0.67624912125E+02  0.41669971124E+03  0.45372589245E+03  0.12514041372E+03 0.  0.
          5    1    3    3  502    0 -0.86043025928E+02  0.40645575967E+01  0.11092294848E+03  0.14050372180E+03  0.41800000000E+01 0. -1.
         -5    1    3    3    0  502 -0.23479959104E+02  0.63560354528E+02  0.30577676276E+03  0.31322217065E+03  0.41800000000E+01 0. -1.
        -11    1    1    2    0    0  0.56657843376E+02 -0.12958984238E+02 -0.14933937628E+02  0.60008907518E+02  0.00000000000E+00 0. -1.
         11    1    1    2    0    0  0.52865141656E+02 -0.54665927887E+02  0.79593957207E+02  0.11008308180E+03  0.00000000000E+00 0.  1.
</event>
<event>
 6    1  0.2412631E-010  0.1164830E+03  0.7561462E-02  0.1249014E+00
          2   -1    0    0  501    0  0.00000000000E+00  0.00000000000E+00  0.16157227327E+03  0.16157227327E+03  0.00000000000E+00 0. -1.
         -2   -1    0    0    0  501 -0.00000000000E+00 -0.00000000000E+00 -0.87545853993E+02  0.87545853993E+02  0.00000000000E+00 0.  1.
          5    1    1    2  502    0  0.40743227389E+02 -0.35546511877E+02  0.74218777404E+01  0.54736840920E+02  0.41800000000E+01 0.  1.
         -5    1    1    2    0  502 -0.80651585583E+02  0.15317303776E+01  0.31437701485E+02  0.86676559286E+02  0.41800000000E+01 0.  1.
        -11    1    1    2    0    0  0.64693388354E+02  0.14212635956E+02  0.95334023405E+01  0.66918751317E+02  0.00000000000E+00 0.  1.
         11    1    1    2    0    0 -0.24785030160E+02  0.19802145544E+02  0.25633437711E+02  0.40785975740E+02  0.00000000000E+00 0. -1.
</event>
<event>
 6    1  0.2412631E-010  0.1449387E+03  0.7561462E-02  0.1206834E+00
         -1   -1    0    0    0  501 -0.00000000000E+00  0.00000000000E+00  0.69896887304E+02  0.69896887304E+02  0.00000000000E+00 0.  1.
          1   -1    0    0  501    0  0.00000000000E+00 -0.00000000000E+00 -0.42467955076E+03  0.42467955076E+03  0.00000000000E+00 0. -1.
          5    1    1    2  502    0  0.10655400265E+03 -0.78434610343E+01 -0.10929599823E+03  0.15289984628E+03  0.41800000000E+01 0. -1.
         -5    1    1    2    0  502  0.74651634625E+01  0.57548142384E+02 -0.14876437943E+03  0.15973675327E+03  0.41800000000E+01 0. -1.
        -11    1    1    2    0    0 -0.40220784053E+02 -0.12446908687E+02  0.13450989262E+02  0.44199164221E+02  0.00000000000E+00 0.  1.
         11    1    1    2    0    0 -0.73798382064E+02 -0.37257772663E+02 -0.11017327506E+03  0.13774067430E+03  0.00000000000E+00 0. -1.
</event>
<event>
 6    1  0.2412631E-010  0.1102581E+03  0.7561462E-02  0.1260093E+00
         -2   -1    0    0    0  501 -0.00000000000E+00  0.00000000000E+00  0.14584270664E+03  0.14584270664E+03  0.00000000000E+00 0.  1.
          2   -1    0    0  501    0  0.00000000000E+00 -0.00000000000E+00 -0.14715853672E+03  0.14715853672E+03  0.00000000000E+00 0. -1.
          5    1    1    2  502    0 -0.37841219922E+02  0.80012731641E+02  0.60230090111E+02  0.10714070797E+03  0.41800000000E+01 0. -1.
         -5    1    1    2    0  502  0.92231829196E+01  0.13683191437E+02 -0.49203378728E+02  0.52064783773E+02  0.41800000000E+01 0. -1.
        -11    1    1    2    0    0 -0.13983874856E+02 -0.56897715177E+02  0.27604638034E+02  0.64768161850E+02  0.00000000000E+00 0.  1.
         11    1    1    2    0    0  0.42601911859E+02 -0.36798207900E+02 -0.39947179504E+02  0.69027589767E+02  0.00000000000E+00 0. -1.
</event>
<event>
 7    1  0.2412631E-010  0.1101467E+03  0.7561462E-02  0.1260298E+00
          2   -1    0    0  501    0  0.00000000000E+00  0.00000000000E+00  0.41942128707E+03  0.41942128707E+03  0.00000000000E+00 0.  1.
         -2   -1    0    0    0  501 -0.00000000000E+00 -0.00000000000E+00 -0.98083561915E+02  0.98083561915E+02  0.00000000000E+00 0. -1.
         25    2    1    2    0    0 -0.73426754613E+02 -0.44377134792E+02  0.35699905114E+03  0.38787859904E+03  0.12506265108E+03 0.  0.
          5    1    3    3  502    0  0.33981102467E+01 -0.17306180878E+02 -0.33345967922E+01  0.18429405460E+02  0.41800000000E+01 0.  1.
         -5    1    3    3    0  502 -0.76824864860E+02 -0.27070953914E+02  0.36033364793E+03  0.36944919358E+03  0.41800000000E+01 0.  1.
        -11    1    1    2    0    0  0.73613274765E+02 -0.25704978859E+01 -0.37475070236E+02  0.82643224587E+02  0.00000000000E+00 0.  1.
         11    1    1    2    0    0 -0.18652015126E+00  0.46947632678E+02  0.18137442572E+01  0.46983025361E+02  0.00000000000E+00 0. -1.
</event>
<event>
 7    1  0.2412631E-010  0.1830241E+03  0.7561462E-02  0.1164908E+00
          3   -1    0    0  501    0  0.00000000000E+00  0.00000000000E+00  0.14063609816E+04  0.14063609816E+04  0.00000000000E+00 0. -1.
         -3   -1    0    0    0  501 -0.00000000000E+00 -0.00000000000E+00 -0.24504454520E+02  0.24504454520E+02  0.00000000000E+00 0.  1.
         25    2    1    2    0    0 -0.80310555361E+02 -0.12315713112E+03  0.73915334718E+03  0.76395474260E+03  0.12514676924E+03 0.  0.
          5    1    3    3  502    0 -0.42039878620E+02 -0.14080217499E+03  0.50328284942E+03  0.52431260026E+03  0.41800000000E+01 0.  1.
         -5    1    3    3    0  502 -0.38270676741E+02  0.17645043871E+02  0.23587049776E+03  0.23964214234E+03  0.41800000000E+01 0.  1.
        -11    1    1    2    0    0  0.80052224086E+02  0.33080293202E+02  0.27407592164E+03  0.28743742832E+03  0.00000000000E+00 0.  1.
         11    1    1    2    0    0  0.25833127446E+00  0.90076837914E+02  0.36862725829E+03  0.37947326522E+03  0.00000000000E+00 0. -1.
</event>
<event>
 7    1  0.2412631E-010  0.1333798E+03  0.7561462E-02  0.1222525E+00
         -3   -1    0    0    0  501 -0.00000000000E+00  0.00000000000E+00  0.16224589731E+03  0.16224589731E+03  0.00000000000E+00 0.  1.
          3   -1    0    0  501    0  0.00000000000E+00 -0.00000000000E+00 -0.17037590540E+03  0.17037590540E+03  0.00000000000E+00 0. -1.
         25    2    1    2    0    0 -0.90217025093E+02 -0.70302325777E+02 -0.57430796350E+02  0.17898667345E+03  0.12512555406E+03 0.  0.
          5    1    3    3  502    0  0.82758043194E+01 -0.51065756351E+02  0.16287603792E+02  0.54396312799E+02  0.41800000000E+01 0. -1.
         -5    1    3    3    0  502 -0.98492829413E+02 -0.19236569427E+02 -0.73718400141E+02  0.12459036066E+03  0.41800000000E+01 0. -1.
        -11    1    1    2    0    0  0.44021718321E+02  0.36306139292E+02 -0.22847716226E+02  0.61465970838E+02  0.00000000000E+00 0. -1.
         11    1    1    2    0    0  0.46195306772E+02  0.33996186485E+02  0.72148504493E+02  0.92169158420E+02  0.00000000000E+00 0.  1.
</event>
<event>
 7    1  0.2412631E-010  0.1349733E+03  0.7561462E-02  0.1220257E+00
         -2   -1    0    0    0  501 -0.00000000000E+00  0.00000000000E+00  0.16443422222E+03  0.16443422222E+03  0.00000000000E+00 0.  1.
          2   -1    0    0  501    0  0.00000000000E+00 -0.00000000000E+00 -0.16389179995E+03  0.16389179995E+03  0.00000000000E+00 0. -1.
         25    2    1    2    0    0 -0.83986631609E+02  0.26436937905E+02  0.86075503359E+02  0.17550911320E+03  0.12506714422E+03 0.  0.
          5    1    3    3  502    0 -0.11257372808E+03  0.83725201354E+01  0.85085179886E+02  0.14142101535E+03  0.41800000000E+01 0.  1.
         -5    1    3    3    0  502  0.28587096473E+02  0.18064417770E+02  0.99032347269E+00  0.34088097845E+02  0.41800000000E+01 0.  1.
        -11    1    1    2    0    0  0.67773001268E+02  0.22458597716E+02 -0.67455761156E+02  0.98223459649E+02  0.00000000000E+00 0. -1.
         11    1    1    2    0    0  0.16213630341E+02 -0.48895535622E+02 -0.18077319931E+02  0.54593449318E+02  0.00000000000E+00 0.  1.
</event>
<event>
 7    1  0.2412631E-010  0.1633988E+03  0.7561462E-02  0.1184912E+00
         -1   -1    0    0    0  501 -0.00000000000E+00  0.00000000000E+00  0.14979606364E+03  0.14979606364E+03  0.00000000000E+00 0. -1.
          1   -1    0    0  501    0  0.00000000000E+00 -0.00000000000E+00 -0.23647676858E+03  0.23647676858E+03  0.00000000000E+00 0.  1.
         25    2    1    2    0    0  0.97156953252E+02  0.11347146220E+03 -0.81935053224E+02  0.21135428277E+03  0.12506811585E+03 0.  0.
          5    1    3    3  502    0  0.53841753636E+02  0.87097443326E+02 -0.11235297651E+03  0.15207091372E+03  0.41800000000E+01 0. -1.
         -5    1    3    3    0  502  0.43315199616E+02  0.26374018871E+02  0.30417923288E+02  0.59283369053E+02  0.41800000000E+01 0. -1.
        -11    1    1    2    0    0 -0.20185757674E+02 -0.91050732245E+02  0.85531760039E+01  0.93652856203E+02  0.00000000000E+00 0. -1.
         11    1    1    2    0    0 -0.76971195578E+02 -0.22420729951E+02 -0.13298827717E+02  0.81265693247E+02  0.00000000000E+00 0.  1.
</event>
<event>
 7    1  0.2412631E-010  0.9548376E+02  0.7561462E-02  0.1290090E+00
          3   -1    0    0  501    0  0.00000000000E+00  0.00000000000E+00  0.85903479011E+02  0.85903479011E+02  0.00000000000E+00 0. -1.
         -3   -1    0    0    0  501 -0.00000000000E+00 -0.00000000000E+00 -0.21527247343E+03  0.21527247343E+03  0.00000000000E+00 0.  1.
         25    2    1    2    0    0  0.29059211569E+02 -0.11200210900E+02  0.12032668528E+02  0.12943229939E+03  0.12505219915E+03 0.  0.
          5    1    3    3  502    0 -0.42712465057E+02  0.40273890051E+01 -0.22058817168E+02  0.48421465780E+02  0.41800000000E+01 0.  1.
         -5    1    3    3    0  502  0.71771676625E+02 -0.15227599905E+02  0.34091485697E+02  0.81010833605E+02  0.41800000000E+01 0.  1.
        -11    1    1    2    0    0 -0.19537108557E+02 -0.27939554533E+02 -0.11880944976E+02  0.36103658704E+02  0.00000000000E+00 0. -1.
         11    1    1    2    0    0 -0.95221030117E+01  0.39139765433E+02 -0.12952071797E+03  0.13563999435E+03  0.00000000000E+00 0.  1.
</event>
<event>
 7    1  0.2412631E-010  0.1161694E+03  0.7561462E-02  0.1249554E+00
         -2   -1    0    0    0  501 -0.00000000000E+00  0.00000000000E+00  0.89637906761E+03  0.89637906761E+03  0.00000000000E+00 0. -1.
          2   -1    0    0  501    0  0.00000000000E+00 -0.00000000000E+00 -0.15454291449E+02  0.15454291449E+02  0.00000000000E+00 0.  1.
         25    2    1    2    0    0  0.36285626209E+02 -0.33841958546E+02  0.49732974404E+03  0.51520901517E+03  0.12506610324E+03 0.  0.
          5    1    3    3  502    0  0.76778259739E+02  0.51703812892E+01  0.31905895264E+03  0.32823424817E+03  0.41800000000E+01 0. -1.
         -5    1    3    3    0  502 -0.40492633529E+02 -0.39012339836E+02  0.17827079140E+03  0.18697476700E+03  0.41800000000E+01 0. -1.
        -11    1    1    2    0    0  0.27675718208E+02  0.28698129769E+01  0.14605222373E+03  0.14867896039E+03  0.00000000000E+00 0.  1.
         11    1    1    2    0    0 -0.63961344418E+02  0.30972145570E+02  0.23754280839E+03  0.24794538350E+03  0.00000000000E+00 0. -1.
</event>
<event>
 6    1  0.2412631E-010  0.1151708E+03  0.7561462E-02  0.1251283E+00
          1   -1    0    0  501    0  0.00000000000E+00  0.00000000000E+00  0.39347883067E+03  0.39347883067E+03  0.00000000000E+00 0. -1.
         -1   -1    0    0    0  501 -0.00000000000E+00 -0.00000000000E+00 -0.42428186451E+02  0.42428186451E+02  0.00000000000E+00 0.  1.
          5    1    1    2  502    0  0.37613508544E+02  0.77995351160E+02  0.72642050322E+02  0.11310345133E+03  0.41800000000E+01 0. -1.
         -5    1    1    2    0  502  0.17093065638E+02 -0.34869336570E+02  0.12518094183E+03  0.13113269662E+03  0.41800000000E+01 0. -1.
        -11    1    1    2    0    0 -0.27616084430E+02  0.21186128341E+02  0.93664835993E+02  0.99922978613E+02  0.00000000000E+00 0.  1.
         11    1    1    2    0    0 -0.27090489753E+02 -0.64312142931E+02  0.59562816078E+02  0.91747890562E+02  0.00000000000E+00 0. -1.
</event>
<event>
 7    1  0.2412631E-010  0.9249696E+02  0.7561462E-02  0.1296915E+00
         -2   -1    0    0    0  501 -0.00000000000E+00  0.00000000000E+00  0.63060707426E+02  0.63060707426E+02  0.00000000000E+00 0.  1.
          2   -1    0    0  501    0  0.00000000000E+00 -0.00000000000E+00 -0.29189616134E+03  0.29189616134E+03  0.00000000000E+00 0. -1.
         25    2    1    2    0    0 -0.48637486050E+02 -0.57942808504E+02 -0.15718923409E+03  0.21464605281E+03  0.12506597684E+03 0.  0.
          5    1    3    3  502    0 -0.59235217029E+02 -0.50946912565E+02 -0.17539706956E+03  0.19205729157E+03  0.41800000000E+01 0. -1.
         -5    1    3    3    0  502  0.10597730979E+02 -0.69958959393E+01  0.18207835464E+02  0.22588761236E+02  0.41800000000E+01 0. -1.
        -11    1    1    2    0    0  0.36546577457E+01  0.46929022158E+02  0.84174826633E+01  0.47817817373E+02  0.00000000000E+00 0.  1.
         11    1    1    2    0    0  0.44982828304E+02  0.11013786346E+02 -0.80063702488E+02  0.92492998589E+02  0.00000000000E+00 0. -1.
</event>
<event>
 6    1  0.2412631E-010  0.1450895E+03  0.7561462E-02  0.1206640E+00
          2   -1    0    0  501    0  0.00000000000E+00  0.00000000000E+00  0.97808405169E+03  0.97808405169E+03  0.00000000000E+00 0. -1.
         -2   -1    0    0    0  501 -0.00000000000E+00 -0.00000000000E+00 -0.22647104936E+02  0.22647104936E+02  0.00000000000E+00 0.  1.
          5    1    1    2  502    0  0.24577376327E+02  0.16929295118E+02  0.89354253907E+02  0.94299011403E+02  0.41800000000E+01 0.  1.
         -5    1    1    2    0  502 -0.10584326227E+03 -0.70583815167E+02  0.52735975996E+03  0.54250406446E+03  0.41800000000E+01 0.  1.
        -11    1    1    2    0    0  0.12418407404E+02  0.62156673961E+02  0.14906734364E+03  0.16198377048E+03  0.00000000000E+00 0.  1.
         11    1    1    2    0    0  0.68847478534E+02 -0.85021539114E+01  0.18965558924E+03  0.20194431027E+03  0.00000000000E+00 0. -1.
</event>
<event>
 6    1  0.2412631E-010  0.9540557E+02  0.7561462E-02  0.1290265E+00
         -2   -1    0    0    0  501 -0.00000000000E+00  0.00000000000E+00  0.75039765397E+02  0.75039765397E+02  0.00000000000E+00 0.  1.
          2   -1    0    0  501    0  0.00000000000E+00 -0.00000000000E+00 -0.24666638639E+03  0.24666638639E+03  0.00000000000E+00 0. -1.
          5    1    1    2  502    0  0.59687784753E+02  0.26245376704E+02  0.36743938789E+02  0.74960262038E+02  0.41800000000E+01 0. -1.
         -5    1    1    2    0  502 -0.20174959115E+02 -0.25281086736E+02 -0.46109336960E+02  0.56477479377E+02  0.41800000000E+01 0. -1.
        -11    1    1    2    0    0  0.61499287038E+01 -0.35235260843E+02 -0.31794122774E+02  0.47856153969E+02  0.00000000000E+00 0.  1.
         11    1    1    2    0    0 -0.45662754342E+02  0.34270970875E+02 -0.13046710005E+03  0.14241225640E+03  0.00000000000E+00 0. -1.
</event>
<event>
 7    1  0.2412631E-010  0.1110936E+03  0.7561462E-02  0.1258558E+00
         -3   -1    0    0    0  501 -0.00000000000E+00  0.00000000000E+00  0.48012107426E+03  0.48012107426E+03  0.00000000000E+00 0.  1.
          3   -1    0    0  501    0  0.00000000000E+00 -0.00000000000E+00 -0.40586238711E+02  0.40586238711E+02  0.00000000000E+00 0. -1.
         25    2    1    2    0    0 -0.71264672436E+02  0.39343911287E+02  0.30127019386E+03  0.33621973176E+03  0.12511347417E+03 0.  0.
          5    1    3    3  502    0  0.92454534335E+01 -0.16117067372E+02  0.17712532165E+03  0.17814626081E+03  0.41800000000E+01 0.  1.
         -5    1    3    3    0  502 -0.80510125870E+02  0.55460978659E+02  0.12414487221E+03  0.15807347095E+03  0.41800000000E+01 0.  1.
        -11    1    1    2    0    0  0.80672906847E+02 -0.19007649297E+02  0.58016275956E+02  0.10116964420E+03  0.00000000000E+00 0. -1.
         11    1    1    2    0    0 -0.94082344104E+01 -0.20336261990E+02  0.80248365727E+02  0.83317937015E+02  0.00000000000E+00 0.  1.
</event>
<event>
 7    1  0.2412631E-010  0.1091121E+03  0.7561462E-02  0.1262223E+00
         -1   -1    0    0    0  501 -0.00000000000E+00  0.00000000000E+00  0.18972937644E+02  0.18972937644E+02  0.00000000000E+00 0.  1.
          1   -1    0    0  501    0  0.00000000000E+00 -0.00000000000E+00 -0.71189688188E+03  0.71189688188E+03  0.00000000000E+00 0. -1.
         25    2    1    2    0    0 -0.34208474869E+02  0.28021336018E+02 -0.40893592403E+03  0.42990911605E+03  0.12505136177E+03 0.  0.
          5    1    3    3  502    0 -0.61404371894E+02 -0.23535630667E+02 -0.14048204692E+03  0.15516797577E+03  0.41800000000E+01 0. -1.
         -5    1    3    3    0  502  0.27195897025E+02  0.51556966685E+02 -0.26845387711E+03  0.27474114028E+03  0.41800000000E+01 0. -1.
        -11    1    1    2    0    0  0.28705511589E+02  0.26515312517E+02 -0.71120885559E+02  0.81149544399E+02  0.00000000000E+00 0.  1.
         11    1    1    2    0    0  0.55029632798E+01 -0.54536648536E+02 -0.21286713464E+03  0.21981115907E+03  0.00000000000E+00 0. -1.
</event>
<event>
 7    1  0.2412631E-010  0.5309019E+02  0.7561462E-02  0.1429353E+00
         -2   -1    0    0    0  501 -0.00000000000E+00  0.00000000000E+00  0.10079328631E+03  0.10079328631E+03  0.00000000000E+00 0.  1.
          2   -1    0    0  501    0  0.00000000000E+00 -0.00000000000E+00 -0.12644573194E+03  0.12644573194E+03  0.00000000000E+00 0. -1.
         25    2    1    2    0    0 -0.58876928528E+01 -0.17682510548E+02  0.84295716577E+01  0.12677534786E+03  0.12511432788E+03 0.  0.
          5    1    3    3  502    0  0.37936857919E+02 -0.97210372569E+01 -0.43200524076E+02  0.58459057763E+02  0.41800000000E+01 0.  1.
         -5    1    3    3    0  502 -0.43824550772E+02 -0.79614732915E+01  0.51630095734E+02  0.68316290098E+02  0.41800000000E+01 0.  1.
        -11    1    1    2    0    0 -0.28577412270E+01  0.10055828989E+02  0.31848219012E+02  0.33520075117E+02  0.00000000000E+00 0.  1.
         11    1    1    2    0    0  0.87454340798E+01  0.76266815599E+01 -0.65930236303E+02  0.66943595271E+02  0.00000000000E+00 0. -1.
</event>
<event>
 7    1  0.2412631E-010  0.1201249E+03  0.7561462E-02  0.1242891E+00
          2   -1    0    0  501    0  0.00000000000E+00  0.00000000000E+00  0.10355916724E+04  0.10355916724E+04  0.00000000000E+00 0. -1.
         -2   -1    0    0    0  501 -0.00000000000E+00 -0.00000000000E+00 -0.38466806496E+02  0.38466806496E+02  0.00000000000E+00 0.  1.
         25    2    1    2    0    0  0.76547743915E+02  0.76700636102E+02  0.86371382675E+03  0.87942320327E+03  0.12506418857E+03 0.  0.
          5    1    3    3  502    0  0.39658821656E+01  0.33957953180E+02  0.63030545220E+03  0.63124583664E+03  0.41800000000E+01 0.  1.
         -5    1    3    3    0  502  0.72581861750E+02  0.42742682922E+02  0.23340837455E+03  0.24817736663E+03  0.41800000000E+01 0.  1.
        -11    1    1    2    0    0 -0.66142717101E+02 -0.28263162167E+02  0.26236259019E+02  0.76563742389E+02  0.00000000000E+00 0.  1.
         11    1    1    2    0    0 -0.10405026814E+02 -0.48437473935E+02  0.10717478018E+03  0.11807153328E+03  0.00000000000E+00 0. -1.
</event>
<event>
 6    1  0.2412631E-010  0.1047179E+03  0.7561462E-02  0.1270676E+00
         -1   -1    0    0    0  501 -0.00000000000E+00  0.00000000000E+00  0.52846014741E+02  0.52846014741E+02  0.00000000000E+00 0.  1.
          1   -1    0    0  501    0  0.00000000000E+00 -0.00000000000E+00 -0.25873328669E+03  0.25873328669E+03  0.00000000000E+00 0. -1.
          5    1    1    2  502    0  0.68314435538E+02  0.34417955917E+02 -0.25628957302E+02  0.80782260706E+02  0.41800000000E+01 0.  1.
         -5    1    1    2    0  502 -0.40057155781E+02 -0.24680504621E+02 -0.48072121127E+02  0.67395135339E+02  0.41800000000E+01 0.  1.
        -11    1    1    2    0    0  0.24696443362E+02 -0.19844928314E+02 -0.88543717576E+02  0.94041083664E+02  0.00000000000E+00 0. -1.
         11    1    1    2    0    0 -0.52953723118E+02  0.10107477018E+02 -0.43642475946E+02  0.69360821725E+02  0.00000000000E+00 0.  1.
</event>
<event>
 7    1  0.2412631E-010  0.8808571E+02  0.7561462E-02  0.1307555E+00
         -2   -1    0    0    0  501 -0.00000000000E+00  0.00000000000E+00  0.20535723893E+02  0.20535723893E+02  0.00000000000E+00 0.  1.
          2   -1    0    0  501    0  0.00000000000E+00 -0.00000000000E+00 -0.64310706611E+03  0.64310706611E+03  0.00000000000E+00 0. -1.
         25    2    1    2    0    0  0.31189492262E+02 -0.81342439316E+01 -0.28705386872E+03  0.31480118731E+03  0.12514357209E+03 0.  0.
          5    1    3    3  502    0  0.57748604163E+02 -0.20742566507E+02 -0.60371612827E+02  0.86182129141E+02  0.41800000000E+01 0. -1.
         -5    1    3    3    0  502 -0.26559111900E+02  0.12608322576E+02 -0.22668225589E+03  0.22861905817E+03  0.41800000000E+01 0. -1.
        -11    1    1    2    0    0  0.16224165207E+00  0.40157222735E+02 -0.23996175160E+03  0.24329872810E+03  0.00000000000E+00 0. -1.
         11    1    1    2    0    0 -0.31351733914E+02 -0.32022978803E+02 -0.95555721894E+02  0.10554287459E+03  0.00000000000E+00 0.  1.
</event>
<event>
 7    1  0.2412631E-010  0.2004419E+03  0.7561462E-02  0.1149367E+00
         -1   -1    0    0    0  501 -0.00000000000E+00  0.00000000000E+00  0.33973657457E+03  0.33973657457E+03  0.00000000000E+00 0.  1.
          1   -1    0    0  501    0  0.00000000000E+00 -0.00000000000E+00 -0.12268126240E+03  0.12268126240E+03  0.00000000000E+00 0. -1.
         25    2    1    2    0    0 -0.14362260180E+03  0.90256223131E+02  0.14893890986E+03  0.25808800582E+03  0.12511187920E+03 0.  0.
          5    1    3    3  502    0 -0.37518696924E+02  0.97260385405E+02  0.71574420080E+02  0.12652116502E+03  0.41800000000E+01 0. -1.
         -5    1    3    3    0  502 -0.10610390488E+03 -0.70041622743E+01  0.77364489776E+02  0.13156684080E+03  0.41800000000E+01 0. -1.
        -11    1    1    2    0    0 -0.20855351632E+01  0.11966709570E+02 -0.32359910172E+01  0.12570729203E+02  0.00000000000E+00 0.  1.
         11    1    1    2    0    0  0.14570813696E+03 -0.10222293270E+03  0.71352393324E+02  0.19175910195E+03  0.00000000000E+00 0. -1.
</event>
<event>
 7    1  0.2412631E-010  0.7395260E+02  0.7561462E-02  0.1347145E+00
          2   -1    0    0  501    0  0.00000000000E+00  0.00000000000E+00  0.55802578563E+03  0.55802578563E+03  0.00000000000E+00 0. -1.
         -2   -1    0    0    0  501 -0.00000000000E+00 -0.00000000000E+00 -0.23444685725E+02  0.23444685725E+02  0.00000000000E+00 0.  1.
         25    2    1    2    0    0 -0.21728799171E+01  0.83125230342E+01  0.39491024849E+03  0.41435065465E+03  0.12513409287E+03 0.  0.
          5    1    3    3  502    0 -0.56201437842E+01  0.47991849125E+02  0.35324755981E+03  0.35656151574E+03  0.41800000000E+01 0.  1.
         -5    1    3    3    0  502  0.34472638671E+01 -0.39679326091E+02  0.41662688684E+02  0.57789138906E+02  0.41800000000E+01 0.  1.
        -11    1    1    2    0    0 -0.28014254813E+02 -0.81285506952E+01  0.56126712232E+01  0.29704778865E+02  0.00000000000E+00 0.  1.
         11    1    1    2    0    0  0.30187134730E+02 -0.18397233905E+00  0.13405818019E+03  0.13741503784E+03  0.00000000000E+00 0. -1.
</event>
<event>
 7    1  0.2412631E-010  0.8900323E+02  0.7561462E-02  0.1305284E+00
         -1   -1    0    0    0  501 -0.00000000000E+00  0.00000000000E+00  0.56882981793E+02  0.56882981793E+02  0.00000000000E+00 0.  1.
          1   -1    0    0  501    0  0.00000000000E+00 -0.00000000000E+00 -0.22647960493E+03  0.22647960493E+03  0.00000000000E+00 0. -1.
         25    2    1    2    0    0  0.91686420744E+01 -0.57748106065E+01 -0.13725956520E+03  0.18600023627E+03  0.12505393724E+03 0.  0.
          5    1    3    3  502    0  0.38666438593E+02  0.34488990149E+02 -0.12359639251E+03  0.13408252890E+03  0.41800000000E+01 0.  1.
         -5    1    3    3    0  502 -0.29497796519E+02 -0.40263800755E+02 -0.13663172695E+02  0.51917707372E+02  0.41800000000E+01 0.  1.
        -11    1    1    2    0    0  0.24360007081E+02 -0.21673904095E+02  0.12582200022E+02  0.34949675550E+02  0.00000000000E+00 0.  1.
         11    1    1    2    0    0 -0.33528649155E+02  0.27448714701E+02 -0.44919257954E+02  0.62412674899E+02  0.00000000000E+00 0. -1.
</event>
<event>
 6    1  0.2412631E-010  0.1182962E+03  0.7561462E-02  0.1245934E+00
         -2   -1    0    0    0  501 -0.00000000000E+00  0.00000000000E+00  0.25341154716E+03  0.25341154716E+03  0.00000000000E+00 0.  1.
          2   -1    0    0  501    0  0.00000000000E+00 -0.00000000000E+00 -0.64003380841E+02  0.64003380841E+02  0.00000000000E+00 0. -1.
          5    1    1    2  502    0 -0.80515155783E+02  0.27935547059E+02  0.50588138113E+02  0.99195348772E+02  0.41800000000E+01 0.  1.
         -5    1    1    2    0  502  0.17863044902E+02 -0.47565068320E+02  0.69327903350E+02  0.86054370489E+02  0.41800000000E+01 0.  1.
        -11    1    1    2    0    0  0.80476300847E+02  0.14888016458E+02  0.76887958424E+02  0.11229357142E+03  0.00000000000E+00 0.  1.
         11    1    1    2    0    0 -0.17824189966E+02  0.47415048024E+01 -0.73958335642E+01  0.19871637321E+02  0.00000000000E+00 0. -1.
</event>
<event>
 6    1  0.2412631E-010  0.2133647E+03  0.7561462E-02  0.1138929E+00
         -2   -1    0    0    0  501 -0.00000000000E+00  0.00000000000E+00  0.40637329408E+03  0.40637329408E+03  0.00000000000E+00 0.  1.
          2   -1    0    0  501    0  0.00000000000E+00 -0.00000000000E+00 -0.15591163649E+03  0.15591163649E+03  0.00000000000E+00 0. -1.
          5    1    1    2  502    0  0.37847354652E+02 -0.15473366903E+03 -0.42464723108E+02  0.16491105389E+03  0.41800000000E+01 0. -1.
         -5    1    1    2    0  502  0.40598834130E+02 -0.29100789841E+02  0.50372370741E+02  0.71063136971E+02  0.41800000000E+01 0. -1.
        -11    1    1    2    0    0 -0.91673525014E+02  0.18215156927E+03  0.21896393816E+03  0.29921302711E+03  0.00000000000E+00 0. -1.
         11    1    1    2    0    0  0.13227336231E+02  0.16828896041E+01  0.23590071787E+02  0.27097712599E+02  0.00000000000E+00 0.  1.
</event>
<event>
 7    1  0.2412631E-010  0.1097725E+03  0.7561462E-02  0.1260992E+00
          1   -1    0    0  501    0  0.00000000000E+00  0.00000000000E+00  0.22019090633E+03  0.22019090633E+03  0.00000000000E+00 0. -1.
         -1   -1    0    0    0  501 -0.00000000000E+00 -0.00000000000E+00 -0.82467982602E+02  0.82467982602E+02  0.00000000000E+00 0.  1.
         25    2    1    2    0    0  0.71367981928E+02  0.36445991170E+02  0.68746998971E+02  0.16372032974E+03  0.12512592612E+03 0.  0.
          5    1    3    3  502    0 -0.84377744377E+01  0.30713651420E+02 -0.24777179338E+02  0.40569760130E+02  0.41800000000E+01 0. -1.
         -5    1    3    3    0  502  0.79805756365E+02  0.57323397503E+01  0.93524178309E+02  0.12315056961E+03  0.41800000000E+01 0. -1.
        -11    1    1    2    0    0 -0.60346131174E+02 -0.57614872785E+02  0.77224409181E+02  0.11368701987E+03  0.00000000000E+00 0. -1.
         11    1    1    2    0    0 -0.11021850754E+02  0.21168881615E+02 -0.82484844204E+01  0.25251539321E+02  0.00000000000E+00 0.  1.
</event>
<event>
 6    1  0.2412631E-010  0.8052449E+02  0.7561462E-02  0.1327570E+00
          4   -1    0    0  501    0  0.00000000000E+00  0.00000000000E+00  0.12918508153E+04  0.12918508153E+04  0.00000000000E+00 0. -1.
         -4   -1    0    0    0  501 -0.00000000000E+00 -0.00000000000E+00 -0.10273591242E+02  0.10273591242E+02  0.00000000000E+00 0.  1.
          5    1    1    2  502    0  0.18008816568E+02 -0.11711728223E+02  0.23754407624E+02  0.32299014439E+02  0.41800000000E+01 0.  1.
         -5    1    1    2    0  502 -0.43525748871E+02 -0.19650056478E+02  0.84844903655E+03  0.84980224497E+03  0.41800000000E+01 0.  1.
        -11    1    1    2    0    0 -0.28564435585E+02  0.22633250529E+02  0.21543764750E+03  0.21849844615E+03  0.00000000000E+00 0. -1.
         11    1    1    2    0    0  0.54081367887E+02  0.87285341717E+01  0.19393613234E+03  0.20152470093E+03  0.00000000000E+00 0.  1.
</event>
<event>
 6    1  0.2412631E-010  0.1435093E+03  0.7561462E-02  0.1208683E+00
         -1   -1    0    0    0  501 -0.00000000000E+00  0.00000000000E+00  0.56511501296E+03  0.56511501296E+03  0.00000000000E+00 0.  1.
          1   -1    0    0  501    0  0.00000000000E+00 -0.00000000000E+00 -0.96983656781E+02  0.96983656781E+02  0.00000000000E+00 0. -1.
          5    1    1    2  502    0 -0.68795235095E+02  0.17818980130E+01  0.75163142067E+02  0.10199475407E+03  0.41800000000E+01 0. -1.
         -5    1    1    2    0  502 -0.68832430978E+02 -0.18237067456E+02 -0.49404400892E+02  0.86768435570E+02  0.41800000000E+01 0. -1.
        -11    1    1    2    0    0  0.69998755751E+02 -0.15886836795E+02  0.33358619235E+03  0.34122128468E+03  0.00000000000E+00 0.  1.
         11    1    1    2    0    0  0.67628910321E+02  0.32342006238E+02  0.10878642265E+03  0.13211419542E+03  0.00000000000E+00 0. -1.
</event>
<event>
 6    1  0.2412631E-010  0.4197565E+03  0.7561462E-02  0.1037146E+00
         -2   -1    0    0    0  501 -0.00000000000E+00  0.00000000000E+00  0.12762710440E+03  0.12762710440E+03  0.00000000000E+00 0.  1.
          2   -1    0    0  501    0  0.00000000000E+00 -0.00000000000E+00 -0.14989652942E+04  0.14989652942E+04  0.00000000000E+00 0. -1.
          5    1    1    2  502    0 -0.16660015564E+00  0.17187137079E+02 -0.69110740433E+01  0.18991071086E+02  0.41800000000E+01 0. -1.
         -5    1    1    2    0  502 -0.40534291675E+03  0.51358705942E+02 -0.49552166362E+03  0.64226146417E+03  0.41800000000E+01 0. -1.
        -11    1    1    2    0    0  0.31627095584E+03 -0.36362785412E+02 -0.58513277568E+03  0.66613056892E+03  0.00000000000E+00 0.  1.
         11    1    1    2    0    0  0.89238561057E+02 -0.32183057609E+02 -0.28377267649E+03  0.29920929447E+03  0.00000000000E+00 0. -1.
</event>
<event>
 6    1  0.2412631E-010  0.3408882E+03  0.7561462E-02  0.1066418E+00
          2   -1    0    0  501    0  0.00000000000E+00  0.00000000000E+00  0.87115157966E+03  0.87115157966E+03  0.00000000000E+00 0. -1.
         -2   -1    0    0    0  501 -0.00000000000E+00 -0.00000000000E+00 -0.14270816457E+03  0.14270816457E+03  0.00000000000E+00 0.  1.
          5    1    1    2  502    0 -0.12062315997E+03 -0.12147819541E+03  0.30260658075E+03  0.34769974661E+03  0.41800000000E+01 0. -1.
         -5    1    1    2    0  502 -0.82756813337E+02 -0.14381145875E+03  0.11652906192E+03  0.20279773296E+03  0.41800000000E+01 0. -1.
        -11    1    1    2    0    0  0.13401889053E+03  0.23128660115E+03  0.24966232375E+03  0.36576745452E+03  0.00000000000E+00 0.  1.
         11    1    1    2    0    0  0.69361082773E+02  0.34003053020E+02  0.59645448672E+02  0.97594810136E+02  0.00000000000E+00 0. -1.
</event>
<event>
 7    1  0.2412631E-010  0.9678734E+02  0.7561462E-02  0.1287201E+00
          1   -1    0    0  501    0  0.00000000000E+00  0.00000000000E+00  0.99977321414E+02  0.99977321414E+02  0.00000000000E+00 0. -1.
         -1   -1    0    0    0  501 -0.00000000000E+00 -0.00000000000E+00 -0.16112715431E+03  0.16112715431E+03  0.00000000000E+00 0.  1.
         25    2    1    2    0    0  0.15328170809E+02 -0.27009766108E+02 -0.95305551598E+02  0.16024991850E+03  0.12502962820E+03 0.  0.
          5    1    3    3  502    0  0.63213329940E+02 -0.43661316146E+02 -0.47367438999E+02  0.90351437659E+02  0.41800000000E+01 0. -1.
         -5    1    3    3    0  502 -0.47885159131E+02  0.16651550039E+02 -0.47938112599E+02  0.69898480837E+02  0.41800000000E+01 0. -1.
        -11    1    1    2    0    0 -0.35227305562E+02  0.29186668562E+02 -0.14704631851E+02  0.48052584497E+02  0.00000000000E+00 0.  1.
         11    1    1    2    0    0  0.19899134753E+02 -0.21769024546E+01  0.48860350553E+02  0.52801972732E+02  0.00000000000E+00 0. -1.
</event>
<event>
 7    1  0.3404166E-010  0.1342406E+03  0.7561462E-02  0.1221296E+00
          3   -1    0    0  501    0  0.00000000000E+00  0.00000000000E+00  0.82255640216E+03  0.82255640216E+03  0.00000000000E+00 0. -1.
         -3   -1    0    0    0  501 -0.00000000000E+00 -0.00000000000E+00 -0.27478369524E+02  0.27478369524E+02  0.00000000000E+00 0.  1.
         25    2    1    2    0    0  0.91025928114E+02 -0.34849613743E+02  0.52831538200E+03  0.55160933311E+03  0.12512193390E+03 0.  0.
          5    1    3    3  502    0  0.70771687313E+02 -0.68835573026E+02  0.22561613915E+03  0.24630688679E+03  0.41800000000E+01 0. -1.
         -5    1    3    3    0  502  0.20254240801E+02  0.33985959283E+02  0.30269924286E+03  0.30530244631E+03  0.41800000000E+01 0. -1.
        -11    1    1    2    0    0 -0.18106780047E+01  0.40450848740E+02  0.52787653670E+02  0.66528836594E+02  0.00000000000E+00 0. -1.
         11    1    1    2    0    0 -0.89215250110E+02 -0.56012349965E+01  0.21397499696E+03  0.23189660198E+03  0.00000000000E+00 0.  1.
</event>
<event>
 7    1  0.2412631E-010  0.9274509E+02  0.7561462E-02  0.1296337E+00
          1   -1    0    0  501    0  0.00000000000E+00  0.00000000000E+00  0.13810687581E+03  0.13810687581E+03  0.00000000000E+00 0. -1.
         -1   -1    0    0    0  501 -0.00000000000E+00 -0.00000000000E+00 -0.11186221254E+03  0.11186221254E+03  0.00000000000E+00 0.  1.
         25    2    1    2    0    0  0.50448242753E+02 -0.39878452247E+02  0.19230534949E+02  0.14197886639E+03  0.12511142584E+03 0.  0.
          5    1    3    3  502    0 -0.18612617202E+02  0.85962479808E+01 -0.35580489726E+02  0.41276732521E+02  0.41800000000E+01 0. -1.
         -5    1    3    3    0  502  0.69060859955E+02 -0.48474700227E+02  0.54811024675E+02  0.10070213387E+03  0.41800000000E+01 0. -1.
        -11    1    1    2    0    0 -0.58031525335E+02  0.24598887182E+02  0.37293681738E+02  0.73236479168E+02  0.00000000000E+00 0. -1.
         11    1    1    2    0    0  0.75832825825E+01  0.15279565065E+02 -0.30279553416E+02  0.34753742796E+02  0.00000000000E+00 0.  1.
</event>
<event>
 6    1  0.2412631E-010  0.3812136E+03  0.7561462E-02  0.1050486E+00
          1   -1    0    0  501    0  0.00000000000E+00  0.00000000000E+00  0.46382305673E+03  0.46382305673E+03  0.00000000000E+00 0. -1.
         -1   -1    0    0    0  501 -0.00000000000E+00 -0.00000000000E+00 -0.31736638572E+03  0.31736638572E+03  0.00000000000E+00 0.  1.
          5    1    1    2  502    0  0.30057038693E+03 -0.82484475864E+02  0.84194036545E+02  0.32288133183E+03  0.41800000000E+01 0. -1.
         -5    1    1    2    0  502  0.33359732226E+02 -0.65296912772E+02  0.27119378021E+02  0.78291069836E+02  0.41800000000E+01 0. -1.
        -11    1    1    2    0    0 -0.10841742449E+03  0.14192980959E+01 -0.30657989219E+01  0.10847004869E+03  0.00000000000E+00 0.  1.
         11    1    1    2    0    0 -0.22551269467E+03  0.14636209054E+03  0.38209055361E+02  0.27154699209E+03  0.00000000000E+00 0. -1.
</event>
<event>
 7    1  0.2412631E-010  0.1204330E+03  0.7561462E-02  0.1242384E+00
          2   -1    0    0  501    0  0.00000000000E+00  0.00000000000E+00  0.32228603160E+03  0.32228603160E+03  0.00000000000E+00 0. -1.
         -2   -1    0    0    0  501 -0.00000000000E+00 -0.00000000000E+00 -0.70705456329E+02  0.70705456329E+02  0.00000000000E+00 0.  1.
         25    2    1    2    0    0 -0.74115261437E+02 -0.98015668047E+01  0.41291832875E+02  0.15149585235E+03  0.12512727571E+03 0.  0.
          5    1    3    3  502    0 -0.23786852682E+01 -0.45449276859E+02 -0.20647516254E+02  0.50150645440E+02  0.41800000000E+01 0.  1.
         -5    1    3    3    0  502 -0.71736576169E+02  0.35647710055E+02  0.61939349129E+02  0.10134520691E+03  0.41800000000E+01 0.  1.
        -11    1    1    2    0    0  0.28102101919E+02 -0.38873426171E+02  0.58972183403E+02  0.76017036314E+02  0.00000000000E+00 0.  1.
         11    1    1    2    0    0  0.46013159518E+02  0.48674992976E+02  0.15131655900E+03  0.16547859927E+03  0.00000000000E+00 0. -1.
</event>
<event>
 7    1  0.2412631E-010  0.1299013E+03  0.7561462E-02  0.1227602E+00
         -1   -1    0    0    0  501 -0.00000000000E+00  0.00000000000E+00  0.12611082052E+03  0.12611082052E+03  0.00000000000E+00 0.  1.
          1   -1    0    0  501    0  0.00000000000E+00 -0.00000000000E+00 -0.21008299414E+03  0.21008299414E+03  0.00000000000E+00 0. -1.
         25    2    1    2    0    0  0.95095341184E+02  0.22274369625E+02 -0.11655842700E+03  0.19689415743E+03  0.12506866461E+03 0.  0.
          5    1    3    3  502    0  0.11577441585E+03 -0.10017202576E+01 -0.56013584572E+02  0.12868454789E+03  0.41800000000E+01 0.  1.
         -5    1    3    3    0  502 -0.20679074663E+02  0.23276089882E+02 -0.60544842431E+02  0.68209609544E+02  0.41800000000E+01 0.  1.
        -11    1    1    2    0    0 -0.63854117512E+01 -0.22949651804E+02  0.43822335429E+02  0.49878423026E+02  0.00000000000E+00 0.  1.
         11    1    1    2    0    0 -0.88709929433E+02  0.67528217956E+00 -0.11236082048E+02  0.89421234200E+02  0.00000000000E+00 0. -1.
</event>
<event>
 7    1  0.2412631E-010  0.1142690E+03  0.7561462E-02  0.1252862E+00
         -1   -1    0    0    0  501 -0.00000000000E+00  0.00000000000E+00  0.22211902094E+03  0.22211902094E+03  0.00000000000E+00 0.  1.
          1   -1    0    0  501    0  0.00000000000E+00 -0.00000000000E+00 -0.78150636457E+02  0.78150636457E+02  0.00000000000E+00 0. -1.
         25    2    1    2    0    0  0.55048962203E+02 -0.40039557739E+02  0.50578580782E+02  0.15108854815E+03  0.12504400076E+03 0.  0.
          5    1    3    3  502    0 -0.20499533715E+02 -0.29093017768E+02 -0.24915053640E+02  0.43644780481E+02  0.41800000000E+01 0. -1.
         -5    1    3    3    0  502  0.75548495918E+02 -0.10946539970E+02  0.75493634422E+02  0.10744376767E+03  0.41800000000E+01 0. -1.
        -11    1    1    2    0    0 -0.81250535721E+02  0.21171209274E+02  0.64927833572E+02  0.10613902783E+03  0.00000000000E+00 0.  1.
         11    1    1    2    0    0  0.26201573518E+02  0.18868348465E+02  0.28461970126E+02  0.43042081410E+02  0.00000000000E+00 0. -1.
</event>
<event>
 6    1  0.2412631E-010  0.1220757E+03  0.7561462E-02  0.1239712E+00
          1   -1    0    0  501    0  0.00000000000E+00  0.00000000000E+00  0.65361422670E+03  0.65361422670E+03  0.00000000000E+00 0. -1.
         -1   -1    0    0    0  501 -0.00000000000E+00 -0.00000000000E+00 -0.24611005851E+02  0.24611005851E+02  0.00000000000E+00 0.  1.
          5    1    1    2  502    0 -0.91560214074E+02  0.42864358220E+02  0.20201176136E+03  0.22593549994E+03  0.41800000000E+01 0.  1.
         -5    1    1    2    0  502  0.36080354050E+02 -0.10718913850E+02  0.10902163005E+03  0.11541176405E+03  0.41800000000E+01 0.  1.
        -11    1    1    2    0    0  0.33178641428E+02 -0.60513952989E+02  0.25627940318E+03  0.26540891704E+03  0.00000000000E+00 0. -1.
         11    1    1    2    0    0  0.22301218595E+02  0.28368508619E+02  0.61690426269E+02  0.71469051521E+02  0.00000000000E+00 0.  1.
</event>
<event>
 7    1  0.2412631E-010  0.1326181E+03  0.7561462E-02  0.1223622E+00
         -1   -1    0    0    0  501 -0.00000000000E+00  0.00000000000E+00  0.13090938281E+02  0.13090938281E+02  0.00000000000E+00 0.  1.
          1   -1    0    0  501    0  0.00000000000E+00 -0.00000000000E+00 -0.16248628188E+04  0.16248628188E+04  0.00000000000E+00 0. -1.
         25    2    1    2    0    0  0.67038934174E+02 -0.69384650083E+02 -0.98704202507E+03  0.99960103008E+03  0.12506722880E+03 0.  0.
          5    1    3    3  502    0 -0.17153405396E+02 -0.44657984519E+02 -0.63315521817E+03  0.63497368260E+03  0.41800000000E+01 0. -1.
         -5    1    3    3    0  502  0.84192339571E+02 -0.24726665565E+02 -0.35388680689E+03  0.36462734747E+03  0.41800000000E+01 0. -1.
        -11    1    1    2    0    0 -0.12316975813E+02  0.73467796006E+02 -0.41064934204E+03  0.41735129934E+03  0.00000000000E+00 0. -1.
         11    1    1    2    0    0 -0.54721958361E+02 -0.40831459227E+01 -0.21408051346E+03  0.22100142771E+03  0.00000000000E+00 0.  1.
</event>
<event>
 7    1  0.2412631E-010  0.2676696E+03  0.7561462E-02  0.1102621E+00
         -2   -1    0    0    0  501 -0.00000000000E+00  0.00000000000E+00  0.82832999439E+02  0.82832999439E+02  0.00000000000E+00 0.  1.
          2   -1    0    0  501    0  0.00000000000E+00 -0.00000000000E+00 -0.94507174810E+03  0.94507174810E+03  0.00000000000E+00 0. -1.
         25    2    1    2    0    0 -0.16651519413E+03 -0.17960753094E+03 -0.29296413744E+03  0.40183265022E+03  0.12512121285E+03 0.  0.
          5    1    3    3  502    0 -0.11200836632E+03 -0.30587734512E+02 -0.12955861279E+03  0.17402410803E+03  0.41800000000E+01 0. -1.
         -5    1    3    3    0  502 -0.54506827815E+02 -0.14901979643E+03 -0.16340552465E+03  0.22780854218E+03  0.41800000000E+01 0.  1.
        -11    1    1    2    0    0  0.11365950762E+03  0.57519237185E+02 -0.26825818543E+03  0.29696700216E+03  0.00000000000E+00 0.  1.
         11    1    1    2    0    0  0.52855686511E+02  0.12208829376E+03 -0.30101642579E+03  0.32910509516E+03  0.00000000000E+00 0. -1.
</event>
<event>
 7    1  0.2412631E-010  0.1036770E+03  0.7561462E-02  0.1272748E+00
         -2   -1    0    0    0  501 -0.00000000000E+00  0.00000000000E+00  0.22741783081E+03  0.22741783081E+03  0.00000000000E+00 0. -1.
          2   -1    0    0  501    0  0.00000000000E+00 -0.00000000000E+00 -0.60678048589E+02  0.60678048589E+02  0.00000000000E+00 0.  1.
         25    2    1    2    0    0 -0.17199200617E+02  0.24925217268E+02  0.55681978634E+02  0.14019387746E+03  0.12504703745E+03 0.  0.
          5    1    3    3  502    0  0.46095186318E+02  0.38255874574E+02  0.43729023749E+02  0.74283094033E+02  0.41800000000E+01 0.  1.
         -5    1    3    3    0  502 -0.63294386935E+02 -0.13330657306E+02  0.11952954885E+02  0.65910783428E+02  0.41800000000E+01 0.  1.
        -11    1    1    2    0    0  0.47835169965E+02 -0.17758729979E+02  0.26115928567E+02  0.57320307928E+02  0.00000000000E+00 0.  1.
         11    1    1    2    0    0 -0.30635969348E+02 -0.71664872891E+01  0.84941875017E+02  0.90581694008E+02  0.00000000000E+00 0. -1.
</event>
<event>
 7    1  0.2412631E-010  0.1339780E+03  0.7561462E-02  0.1221670E+00
         -1   -1    0    0    0  501 -0.00000000000E+00  0.00000000000E+00  0.57076892246E+03  0.57076892246E+03  0.00000000000E+00 0.  1.
          1   -1    0    0  501    0  0.00000000000E+00 -0.00000000000E+00 -0.45182345204E+02  0.45182345204E+02  0.00000000000E+00 0. -1.
         25    2    1    2    0    0 -0.60787475900E+02  0.72005100761E+02  0.41830161367E+03  0.44665070095E+03  0.12506301169E+03 0.  0.
          5    1    3    3  502    0 -0.23027003242E+02  0.10334369156E+03  0.25664119584E+03  0.27765506887E+03  0.41800000000E+01 0.  1.
         -5    1    3    3    0  502 -0.37760472658E+02 -0.31338590800E+02  0.16166041783E+03  0.16899563208E+03  0.41800000000E+01 0.  1.
        -11    1    1    2    0    0  0.32915332030E+02 -0.77623658671E+02  0.11230045549E+03  0.14042878541E+03  0.00000000000E+00 0.  1.
         11    1    1    2    0    0  0.27872143870E+02  0.56185579102E+01 -0.50154919065E+01  0.28871781309E+02  0.00000000000E+00 0. -1.
</event>
<event>
 7    1  0.2412631E-010  0.1347045E+03  0.7561462E-02  0.1220637E+00
          2   -1    0    0  501    0  0.00000000000E+00  0.00000000000E+00  0.94146066930E+03  0.94146066930E+03  0.00000000000E+00 0. -1.
         -2   -1    0    0    0  501 -0.00000000000E+00 -0.00000000000E+00 -0.22380382157E+02  0.22380382157E+02  0.00000000000E+00 0.  1.
         25    2    1    2    0    0 -0.80329196497E+02 -0.31732021040E+02  0.62935902769E+03  0.64744926073E+03  0.12505222316E+03 0.  0.
          5    1    3    3  502    0 -0.10855608000E+03  0.71327612837E+00  0.46224396607E+03  0.47483880195E+03  0.41800000000E+01 0. -1.
         -5    1    3    3    0  502  0.28226883506E+02 -0.32445297169E+02  0.16711506162E+03  0.17261045878E+03  0.41800000000E+01 0. -1.
        -11    1    1    2    0    0  0.39868699353E+02  0.57222261772E+02  0.10861092649E+03  0.12907452802E+03  0.00000000000E+00 0.  1.
         11    1    1    2    0    0  0.40460497144E+02 -0.25490240731E+02  0.18111033296E+03  0.18731726271E+03  0.00000000000E+00 0. -1.
</event>
<event>
 7    1  0.2412631E-010  0.1764455E+03  0.7561462E-02  0.1171288E+00
          2   -1    0    0  501    0  0.00000000000E+00  0.00000000000E+00  0.96252162459E+02  0.96252162459E+02  0.00000000000E+00 0. -1.
         -2   -1    0    0    0  501 -0.00000000000E+00 -0.00000000000E+00 -0.34752277054E+03  0.34752277054E+03  0.00000000000E+00 0.  1.
         25    2    1    2    0    0 -0.12535976441E+03 -0.74405417639E+02 -0.11387122343E+03  0.22327544352E+03  0.12503612057E+03 0.  0.
          5    1    3    3  502    0 -0.14696809612E+03 -0.46316851170E+02 -0.78325270700E+02  0.17290804611E+03  0.41800000000E+01 0. -1.
         -5    1    3    3    0  502  0.21608331716E+02 -0.28088566469E+02 -0.35545952734E+02  0.50367397407E+02  0.41800000000E+01 0. -1.
        -11    1    1    2    0    0  0.65298260995E+02 -0.26576644370E+01 -0.91780008133E+02  0.11266985383E+03  0.00000000000E+00 0.  1.
         11    1    1    2    0    0  0.60061503410E+02  0.77063082076E+02 -0.45619376513E+02  0.10782963565E+03  0.00000000000E+00 0. -1.
</event>
<event>
 7    1  0.2412631E-010  0.8452652E+02  0.7561462E-02  0.1316675E+00
          2   -1    0    0  501    0  0.00000000000E+00  0.00000000000E+00  0.50053654160E+03  0.50053654160E+03  0.00000000000E+00 0. -1.
         -2   -1    0    0    0  501 -0.00000000000E+00 -0.00000000000E+00 -0.30262409023E+02  0.30262409023E+02  0.00000000000E+00 0.  1.
         25    2    1    2    0    0 -0.46965029398E+02 -0.28834155669E+02  0.25126027627E+03  0.28605018446E+03  0.12512337543E+03 0.  0.
          5    1    3    3  502    0 -0.39106355866E+02 -0.11726036737E+02  0.77350634278E+01  0.41762550364E+02  0.41800000000E+01 0. -1.
         -5    1    3    3    0  502 -0.78586735320E+01 -0.17108118932E+02  0.24352521285E+03  0.24428763410E+03  0.41800000000E+01 0. -1.
        -11    1    1    2    0    0 -0.56930962181E+01  0.51200894605E+02  0.91926914449E+02  0.10537789404E+03  0.00000000000E+00 0. -1.
         11    1    1    2    0    0  0.52658125616E+02 -0.22366738936E+02  0.12708694186E+03  0.13937087212E+03  0.00000000000E+00 0.  1.
</event>
<event>
 7    1  0.2412631E-010  0.1177592E+03  0.7561462E-02  0.1246840E+00
         -1   -1    0    0    0  501 -0.00000000000E+00  0.00000000000E+00  0.21966355493E+02  0.21966355493E+02  0.00000000000E+00 0.  1.
          1   -1    0    0  501    0  0.00000000000E+00 -0.00000000000E+00 -0.94323866909E+03  0.94323866909E+03  0.00000000000E+00 0. -1.
         25    2    1    2    0    0  0.88465160342E+02  0.26460912089E+00 -0.38887250277E+03  0.41798367913E+03  0.12514942267E+03 0.  0.
          5    1    3    3  502    0  0.59708995462E+02 -0.30428495715E+02 -0.36137430870E+03  0.36755941136E+03  0.41800000000E+01 0. -1.
         -5    1    3    3    0  502  0.28756164881E+02  0.30693104836E+02 -0.27498194073E+02  0.50424267773E+02  0.41800000000E+01 0. -1.
        -11    1    1    2    0    0  0.18712844815E+02 -0.26636979883E+01 -0.96347435498E+02  0.98183981255E+02  0.00000000000E+00 0. -1.
         11    1    1    2    0    0 -0.10717800516E+03  0.23990888674E+01 -0.43605237532E+03  0.44903736419E+03  0.00000000000E+00 0.  1.
</event>
<event>
 7    1  0.2412631E-010  0.8217193E+02  0.7561462E-02  0.1322998E+00
          2   -1    0    0  501    0  0.00000000000E+00  0.00000000000E+00  0.56328236774E+03  0.56328236774E+03  0.00000000000E+00 0. -1.
         -2   -1    0    0    0  501 -0.00000000000E+00 -0.00000000000E+00 -0.27386273746E+02  0.27386273746E+02  0.00000000000E+00 0.  1.
         25    2    1    2    0    0  0.61928913401E+01 -0.57404939120E+02  0.34912566944E+03  0.37534492273E+03  0.12514551140E+03 0.  0.
          5    1    3    3  502    0 -0.23564630127E+02 -0.37431871826E+02  0.33278092395E+03  0.33573360357E+03  0.41800000000E+01 0.  1.
         -5    1    3    3    0  502  0.29757521467E+02 -0.19973067294E+02  0.16344745488E+02  0.39611319166E+02  0.41800000000E+01 0.  1.
        -11    1    1    2    0    0  0.27450832264E+02  0.25538602698E+02  0.15417469668E+03  0.15866822466E+03  0.00000000000E+00 0. -1.
         11    1    1    2    0    0 -0.33643723604E+02  0.31866336422E+02  0.32595727874E+02  0.56655494090E+02  0.00000000000E+00 0.  1.
</event>
<event>
 6    1  0.2412631E-010  0.1149794E+03  0.7561462E-02  0.1251617E+00
          1   -1    0    0  501    0  0.00000000000E+00  0.00000000000E+00  0.50807351712E+02  0.50807351712E+02  0.00000000000E+00 0. -1.
         -1   -1    0    0    0  501 -0.00000000000E+00 -0.00000000000E+00 -0.34251013337E+03  0.34251013337E+03  0.00000000000E+00 0.  1.
          5    1    1    2  502    0 -0.12977921625E+02  0.49446881391E+02 -0.36940863334E+02  0.63210128246E+02  0.41800000000E+01 0. -1.
         -5    1    1    2    0  502 -0.57067809499E+02 -0.67636678891E+02 -0.13799918584E+03  0.16398994757E+03  0.41800000000E+01 0. -1.
        -11    1    1    2    0    0  0.26012705690E+02  0.34419630956E+02 -0.11068554746E+03  0.11879672668E+03  0.00000000000E+00 0.  1.
         11    1    1    2    0    0  0.44033025434E+02 -0.16229833457E+02 -0.60771850281E+01  0.47320682590E+02  0.00000000000E+00 0. -1.
</event>
<event>
 7    1  0.2412631E-010  0.1294117E+03  0.7561462E-02  0.1228331E+00
         -2   -1    0    0    0  501 -0.00000000000E+00  0.00000000000E+00  0.78386610904E+02  0.78386610904E+02  0.00000000000E+00 0.  1.
          2   -1    0    0  501    0  0.00000000000E+00 -0.00000000000E+00 -0.28499300923E+03  0.28499300923E+03  0.00000000000E+00 0. -1.
         25    2    1    2    0    0  0.10048791397E+03  0.92033208968E+01 -0.13170920836E+03  0.20781228690E+03  0.12512437433E+03 0.  0.
          5    1    3    3  502    0  0.12411302997E+03  0.23166905195E+02 -0.81184241181E+02  0.15016358787E+03  0.41800000000E+01 0. -1.
         -5    1    3    3    0  502 -0.23625115996E+02 -0.13963584298E+02 -0.50524967178E+02  0.57648699036E+02  0.41800000000E+01 0. -1.
        -11    1    1    2    0    0 -0.84768571832E+02  0.30247695425E+01 -0.73442214158E+01  0.85139870738E+02  0.00000000000E+00 0.  1.
         11    1    1    2    0    0 -0.15719342143E+02 -0.12228090439E+02 -0.67552968553E+02  0.70427462496E+02  0.00000000000E+00 0. -1.
</event>
<event>
 7    1  0.2412631E-010  0.1469814E+03  0.7561462E-02  0.1204232E+00
         -1   -1    0    0    0  501 -0.00000000000E+00  0.00000000000E+00  0.66862503901E+02  0.66862503901E+02  0.00000000000E+00 0.  1.
          1   -1    0    0  501    0  0.00000000000E+00 -0.00000000000E+00 -0.40668932529E+03  0.40668932529E+03  0.00000000000E+00 0. -1.
         25    2    1    2    0    0 -0.64523482978E+02  0.85762653254E+02 -0.27205142331E+03  0.31807634598E+03  0.12506827093E+03 0.  0.
          5    1    3    3  502    0  0.15402098349E+02  0.82938708343E+02 -0.13070706064E+03  0.15562089216E+03  0.41800000000E+01 0. -1.
         -5    1    3    3    0  502 -0.79925581327E+02  0.28239449113E+01 -0.14134436267E+03  0.16245545381E+03  0.41800000000E+01 0. -1.
        -11    1    1    2    0    0  0.63921836354E+01 -0.68471956541E+02 -0.62012939514E+01  0.69048713897E+02  0.00000000000E+00 0.  1.
         11    1    1    2    0    0  0.58131299342E+02 -0.17290696714E+02 -0.61574104119E+02  0.86426769314E+02  0.00000000000E+00 0. -1.
</event>
<event>
 7    1  0.2412631E-010  0.9606824E+02  0.7561462E-02  0.1288788E+00
          2   -1    0    0  501    0  0.00000000000E+00  0.00000000000E+00  0.13493748809E+04  0.13493748809E+04  0.00000000000E+00 0.  1.
         -2   -1    0    0    0  501 -0.00000000000E+00 -0.00000000000E+00 -0.13779528330E+02  0.13779528330E+02  0.00000000000E+00 0. -1.
         25    2    1    2    0    0  0.12094311827E+02  0.36209678340E+02  0.10932397885E+04  0.11010391356E+04  0.12512605607E+03 0.  0.
          5    1    3    3  502    0  0.12694069948E+02 -0.37906603753E+02  0.67980995850E+03  0.68099713810E+03  0.41800000000E+01 0.  1.
         -5    1    3    3    0  502 -0.59975812167E+00  0.74116282094E+02  0.41342982997E+03  0.42004199753E+03  0.41800000000E+01 0.  1.
        -11    1    1    2    0    0  0.94685353377E+01 -0.50797607409E+02  0.22492702815E+03  0.23078608726E+03  0.00000000000E+00 0.  1.
         11    1    1    2    0    0 -0.21562847165E+02  0.14587929068E+02  0.17428535978E+02  0.31329186371E+02  0.00000000000E+00 0. -1.
</event>
<event>
 6    1  0.2412631E-010  0.1086349E+03  0.7561462E-02  0.1263119E+00
          4   -1    0    0  501    0  0.00000000000E+00  0.00000000000E+00  0.39248233374E+02  0.39248233374E+02  0.00000000000E+00 0. -1.
         -4   -1    0    0    0  501 -0.00000000000E+00 -0.00000000000E+00 -0.33081628405E+03  0.33081628405E+03  0.00000000000E+00 0.  1.
          5    1    1    2  502    0 -0.71763753243E+02  0.20096074937E+01 -0.11204971983E+03  0.13314160475E+03  0.41800000000E+01 0.  1.
         -5    1    1    2    0  502  0.53574693283E+02 -0.11619943877E+02 -0.92909688754E+02  0.10795811003E+03  0.41800000000E+01 0.  1.
        -11    1    1    2    0    0  0.32536429929E+02  0.43065751240E+02 -0.71419059762E+02  0.89520725532E+02  0.00000000000E+00 0.  1.
         11    1    1    2    0    0 -0.14347369969E+02 -0.33455414856E+02 -0.15189582334E+02  0.39444077119E+02  0.00000000000E+00 0. -1.
</event>
<event>
 7    1  0.2412631E-010  0.1797950E+03  0.7561462E-02  0.1168002E+00
          1   -1    0    0  501    0  0.00000000000E+00  0.00000000000E+00  0.91988090284E+02  0.91988090284E+02  0.00000000000E+00 0. -1.
         -1   -1    0    0    0  501 -0.00000000000E+00 -0.00000000000E+00 -0.40371437452E+03  0.40371437452E+03  0.00000000000E+00 0.  1.
         25    2    1    2    0    0 -0.12481517972E+03  0.98524770796E+02 -0.17601532534E+03  0.26818654651E+03  0.12512661358E+03 0.  0.
          5    1    3    3  502    0 -0.10620457478E+03  0.11083478631E+02 -0.12758292902E+03  0.16642455161E+03  0.41800000000E+01 0.  1.
         -5    1    3    3    0  502 -0.18610604935E+02  0.87441292165E+02 -0.48432396320E+02  0.10176199489E+03  0.41800000000E+01 0.  1.
        -11    1    1    2    0    0  0.82638254370E+02 -0.41987768440E+02 -0.24592082780E+02  0.95900074658E+02  0.00000000000E+00 0. -1.
         11    1    1    2    0    0  0.42176925346E+02 -0.56537002355E+02 -0.11111887611E+03  0.13161584363E+03  0.00000000000E+00 0.  1.
</event>
<event>
 7    1  0.2412631E-010  0.1050712E+03  0.7561462E-02  0.1269979E+00
          2   -1    0    0  501    0  0.00000000000E+00  0.00000000000E+00  0.48401262167E+03  0.48401262167E+03  0.00000000000E+00 0. -1.
         -2   -1    0    0    0  501 -0.00000000000E+00 -0.00000000000E+00 -0.51320662539E+02  0.51320662539E+02  0.00000000000E+00 0.  1.
         25    2    1    2    0    0  0.36464439154E+02 -0.35457183013E+02  0.57927608917E+02  0.14695810964E+03  0.12511678930E+03 0.  0.
          5    1    3    3  502    0 -0.45911843920E+02 -0.23304818182E+02  0.23656040196E+02  0.56816305762E+02  0.41800000000E+01 0.  1.
         -5    1    3    3    0  502  0.82376283074E+02 -0.12152364831E+02  0.34271568721E+02  0.90141803880E+02  0.41800000000E+01 0.  1.
        -11    1    1    2    0    0  0.46707963225E+01 -0.11662753535E+02  0.52697979203E+01  0.13623763372E+02  0.00000000000E+00 0.  1.
         11    1    1    2    0    0 -0.41135235476E+02  0.47119936548E+02  0.36949455229E+03  0.37475141120E+03  0.00000000000E+00 0. -1.
</event>
<event>
 6    1  0.2412631E-010  0.1643043E+03  0.7561462E-02  0.1183921E+00
         -1   -1    0    0    0  501 -0.00000000000E+00  0.00000000000E+00  0.63835889769E+03  0.63835889769E+03  0.00000000000E+00 0. -1.
          1   -1    0    0  501    0  0.00000000000E+00 -0.00000000000E+00 -0.51487290816E+02  0.51487290816E+02  0.00000000000E+00 0.  1.
          5    1    1    2  502    0 -0.56788761862E+02 -0.80379753484E+02  0.10259514037E+03  0.14222905284E+03  0.41800000000E+01 0.  1.
         -5    1    1    2    0  502 -0.74802466515E+02  0.40472340268E+02  0.11420006575E+03  0.14245191028E+03  0.41800000000E+01 0.  1.
        -11    1    1    2    0    0  0.68293974975E+02  0.44458972901E+02  0.29888536184E+03  0.30979529824E+03  0.00000000000E+00 0. -1.
         11    1    1    2    0    0  0.63297253401E+02 -0.45515596845E+01  0.71191038924E+02  0.95369927162E+02  0.00000000000E+00 0.  1.
</event>
<event>
 6    1  0.2412631E-010  0.1236574E+03  0.7561462E-02  0.1237183E+00
          2   -1    0    0  501    0  0.00000000000E+00  0.00000000000E+00  0.10046350301E+04  0.10046350301E+04  0.00000000000E+00 0. -1.
         -2   -1    0    0    0  501 -0.00000000000E+00 -0.00000000000E+00 -0.18205290106E+02  0.18205290106E+02  0.00000000000E+00 0.  1.
          5    1    1    2  502    0  0.36081084240E+02  0.95654802227E+02  0.43268823798E+03  0.44462149016E+03  0.41800000000E+01 0. -1.
         -5    1    1    2    0  502 -0.38734755010E-01 -0.26847964704E+02  0.27842398189E+02  0.38903550559E+02  0.41800000000E+01 0. -1.
        -11    1    1    2    0    0  0.21125146486E+02 -0.55136885952E+02  0.30911694309E+03  0.31470562835E+03  0.00000000000E+00 0.  1.
         11    1    1    2    0    0 -0.57167495971E+02 -0.13669951570E+02  0.21678216068E+03  0.22460965109E+03  0.00000000000E+00 0. -1.
</event>
<event>
 7    1  0.2412631E-010  0.7149816E+02  0.7561462E-02  0.1355071E+00
         -1   -1    0    0    0  501 -0.00000000000E+00  0.00000000000E+00  0.36059639522E+02  0.36059639522E+02  0.00000000000E+00 0.  1.
          1   -1    0    0  501    0  0.00000000000E+00 -0.00000000000E+00 -0.68864691000E+03  0.68864691000E+03  0.00000000000E+00 0. -1.
         25    2    1    2    0    0 -0.44720470890E+02  0.76040540946E+01 -0.59019082454E+03  0.60501477608E+03  0.12513963300E+03 0.  0.
          5    1    3    3  502    0 -0.17832764095E+02  0.34132739920E+01 -0.51549097524E+01  0.19331409911E+02  0.41800000000E+01 0.  1.
         -5    1    3    3    0  502 -0.26887706795E+02  0.41907801026E+01 -0.58503591479E+03  0.58568336617E+03  0.41800000000E+01 0.  1.
        -11    1    1    2    0    0  0.65101582424E+02 -0.25297151336E+02 -0.60891460004E+02  0.92660303265E+02  0.00000000000E+00 0.  1.
         11    1    1    2    0    0 -0.20381111534E+02  0.17693097241E+02 -0.15049859352E+01  0.27031470178E+02  0.00000000000E+00 0. -1.
</event>
<event>
 7    1  0.2412631E-010  0.1001747E+03  0.7561462E-02  0.1279929E+00
          3   -1    0    0  501    0  0.00000000000E+00  0.00000000000E+00  0.18666968867E+03  0.18666968867E+03  0.00000000000E+00 0. -1.
         -3   -1    0    0    0  501 -0.00000000000E+00 -0.00000000000E+00 -0.72534105345E+02  0.72534105345E+02  0.00000000000E+00 0.  1.
         25    2    1    2    0    0  0.32996282196E+02  0.89919902049E+01  0.92712449223E+02  0.15943695016E+03  0.12511967194E+03 0.  0.
          5    1    3    3  502    0 -0.35554076793E+02  0.40561176755E+02  0.40185593143E+02  0.67391807608E+02  0.41800000000E+01 0. -1.
         -5    1    3    3    0  502  0.68550358989E+02 -0.31569186550E+02  0.52526856080E+02  0.92045142548E+02  0.41800000000E+01 0. -1.
        -11    1    1    2    0    0 -0.11469368400E+02  0.26656763416E+02  0.43761958815E+02  0.52509413315E+02  0.00000000000E+00 0. -1.
         11    1    1    2    0    0 -0.21526913796E+02 -0.35648753621E+02 -0.22338824713E+02  0.47257430546E+02  0.00000000000E+00 0.  1.
</event>
<event>
 7    1  0.2412631E-010  0.9323724E+02  0.7561462E-02  0.1295196E+00
          4   -1    0    0  501    0  0.00000000000E+00  0.00000000000E+00  0.35807569746E+02  0.35807569746E+02  0.00000000000E+00 0. -1.
         -4   -1    0    0    0  501 -0.00000000000E+00 -0.00000000000E+00 -0.49918354892E+03  0.49918354892E+03  0.00000000000E+00 0.  1.
         25    2    1    2    0    0 -0.17317124235E+02  0.51456158941E+02 -0.37801384702E+03  0.40185073628E+03  0.12506768818E+03 0.  0.
          5    1    3    3  502    0 -0.38647114125E+02  0.92205401218E+01 -0.28380614657E+02  0.49005606605E+02  0.41800000000E+01 0. -1.
         -5    1    3    3    0  502  0.21329989890E+02  0.42235618820E+02 -0.34963323236E+03  0.35284512967E+03  0.41800000000E+01 0. -1.
        -11    1    1    2    0    0  0.45062665663E+02 -0.55767759047E+01 -0.55710955184E+02  0.71871098458E+02  0.00000000000E+00 0.  1.
         11    1    1    2    0    0 -0.27745541428E+02 -0.45879383037E+02 -0.29651176971E+02  0.61269283925E+02  0.00000000000E+00 0. -1.
</event>
<event>
 7    1  0.2412631E-010  0.1218776E+03  0.7561462E-02  0.1240031E+00
          1   -1    0    0  501    0  0.00000000000E+00  0.00000000000E+00  0.15429039580E+03  0.15429039580E+03  0.00000000000E+00 0. -1.
         -1   -1    0    0    0  501 -0.00000000000E+00 -0.00000000000E+00 -0.10168083650E+03  0.10168083650E+03  0.00000000000E+00 0.  1.
         25    2    1    2    0    0  0.52599791524E+02  0.30451543995E+02  0.11952826760E+02  0.13960631911E+03  0.12511202847E+03 0.  0.
          5    1    3    3  502    0  0.53710458534E+02  0.76100537111E+02  0.77752695513E+01  0.93562985850E+02  0.41800000000E+01 0.  1.
         -5    1    3    3    0  502 -0.11106670104E+01 -0.45648993116E+02  0.41775572083E+01  0.46043333262E+02  0.41800000000E+01 0.  1.
        -11    1    1    2    0    0  0.23426621198E+02 -0.12468498942E+02  0.25460412418E+02  0.36776387087E+02  0.00000000000E+00 0. -1.
         11    1    1    2    0    0 -0.76026412721E+02 -0.17983045053E+02  0.15196320121E+02  0.79588526094E+02  0.00000000000E+00 0.  1.
</event>
<event>
 7    1  0.2412631E-010  0.1251314E+03  0.7561462E-02  0.1234864E+00
          1   -1    0    0  501    0  0.00000000000E+00  0.00000000000E+00  0.46005307124E+03  0.46005307124E+03  0.00000000000E+00 0. -1.
         -1   -1    0    0    0  501 -0.00000000000E+00 -0.00000000000E+00 -0.37493684753E+02  0.37493684753E+02  0.00000000000E+00 0.  1.
         25    2    1    2    0    0 -0.65625616670E+02  0.34139137403E+00  0.16945226439E+03  0.22059568608E+03  0.12506617728E+03 0.  0.
          5    1    3    3  502    0 -0.99974164204E+02  0.18789528827E+02  0.11675661189E+03  0.15491113170E+03  0.41800000000E+01 0. -1.
         -5    1    3    3    0  502  0.34348547534E+02 -0.18448137453E+02  0.52695652493E+02  0.65684554385E+02  0.41800000000E+01 0. -1.
        -11    1    1    2    0    0  0.32116153025E+02  0.43492199159E+02  0.15805093002E+03  0.16704225559E+03  0.00000000000E+00 0. -1.
         11    1    1    2    0    0  0.33509463645E+02 -0.43833590533E+02  0.95056192079E+02  0.10990881432E+03  0.00000000000E+00 0.  1.
</event>
<event>
 7    1  0.2412631E-010  0.2720842E+03  0.7561462E-02  0.1100093E+00
         -2   -1    0    0    0  501 -0.00000000000E+00  0.00000000000E+00  0.88214052290E+03  0.88214052290E+03  0.00000000000E+00 0.  1.
          2   -1    0    0  501    0  0.00000000000E+00 -0.00000000000E+00 -0.10658628777E+03  0.10658628777E+03  0.00000000000E+00 0. -1.
         25    2    1    2    0    0 -0.23573972754E+03 -0.12749427073E+03  0.56012849243E+03  0.63341154859E+03  0.12505300338E+03 0.  0.
          5    1    3    3  502    0 -0.30396196794E+02 -0.34573583498E+02  0.22379550823E+03  0.22851950323E+03  0.41800000000E+01 0.  1.
         -5    1    3    3    0  502 -0.20534353075E+03 -0.92920687234E+02  0.33633298420E+03  0.40489204536E+03  0.41800000000E+01 0.  1.
        -11    1    1    2    0    0  0.18685265682E+03  0.12237867258E+03  0.20872491559E+03  0.30570663266E+03  0.00000000000E+00 0.  1.
         11    1    1    2    0    0  0.48887070726E+02  0.51155981556E+01  0.67008271129E+01  0.49608629417E+02  0.00000000000E+00 0. -1.
</event>
<event>
 7    1  0.2412631E-010  0.1315906E+03  0.7561462E-02  0.1225114E+00
         -1   -1    0    0    0  501 -0.00000000000E+00  0.00000000000E+00  0.15912505529E+03  0.15912505529E+03  0.00000000000E+00 0.  1.
          1   -1    0    0  501    0  0.00000000000E+00 -0.00000000000E+00 -0.13806182722E+03  0.13806182722E+03  0.00000000000E+00 0. -1.
         25    2    1    2    0    0  0.35593437832E+02 -0.86497742046E+02  0.50113255280E+02  0.16406640153E+03  0.12513070591E+03 0.  0.
          5    1    3    3  502    0  0.29507156821E+02 -0.10778570218E+03  0.30316201632E+01  0.11187087655E+03  0.41800000000E+01 0. -1.
         -5    1    3    3    0  502  0.60862810107E+01  0.21287960136E+02  0.47081635116E+02  0.52195524986E+02  0.41800000000E+01 0. -1.
        -11    1    1    2    0    0 -0.48906555601E+02  0.84337691159E+01 -0.28590240854E+01  0.49710699663E+02  0.00000000000E+00 0. -1.
         11    1    1    2    0    0  0.13313117769E+02  0.78063972930E+02 -0.26191003131E+02  0.83409781317E+02  0.00000000000E+00 0.  1.
</event>
<event>
 6    1  0.2412631E-010  0.1116134E+03  0.7561462E-02  0.1257611E+00
         -1   -1    0    0    0  501 -0.00000000000E+00  0.00000000000E+00  0.85591383507E+01  0.85591383507E+01  0.00000000000E+00 0.  1.
          1   -1    0    0  501    0  0.00000000000E+00 -0.00000000000E+00 -0.27690135407E+04  0.27690135407E+04  0.00000000000E+00 0. -1.
          5    1    1    2  502    0 -0.47460869940E+02 -0.64986281084E+02 -0.11256944782E+04  0.11285748896E+04  0.41800000000E+01 0. -1.
         -5    1    1    2    0  502  0.36760495157E+02  0.24353698721E+02 -0.12511368277E+04  0.12519206327E+04  0.41800000000E+01 0. -1.
        -11    1    1    2    0    0  0.50658433815E+01 -0.28522393003E+02 -0.67925848488E+02  0.73845179698E+02  0.00000000000E+00 0.  1.
         11    1    1    2    0    0  0.56345314006E+01  0.69154975365E+02 -0.31569724801E+03  0.32323197701E+03  0.00000000000E+00 0. -1.
</event>
<event>
 7    1  0.2412631E-010  0.8130756E+02  0.7561462E-02  0.1325381E+00
          1   -1    0    0  501    0  0.00000000000E+00  0.00000000000E+00  0.97066150262E+02  0.97066150262E+02  0.00000000000E+00 0. -1.
         -1   -1    0    0    0  501 -0.00000000000E+00 -0.00000000000E+00 -0.17809221712E+03  0.17809221712E+03  0.00000000000E+00 0.  1.
         25    2    1    2    0    0 -0.28759979848E+02 -0.69673400517E+02 -0.41615858761E+02  0.15183778158E+03  0.12506523511E+03 0.  0.
          5    1    3    3  502    0 -0.80099562245E+01  0.44642920318E+01  0.39004129626E+02  0.40285032331E+02  0.41800000000E+01 0.  1.
         -5    1    3    3    0  502 -0.20750023623E+02 -0.74137692549E+02 -0.80619988387E+02  0.11155274925E+03  0.41800000000E+01 0.  1.
        -11    1    1    2    0    0  0.96791262056E+01  0.19823481934E+02  0.29071601075E+02  0.36494025664E+02  0.00000000000E+00 0. -1.
         11    1    1    2    0    0  0.19080853642E+02  0.49849918583E+02 -0.68481809169E+02  0.86826560139E+02  0.00000000000E+00 0.  1.
</event>
<event>
 7    1  0.2412631E-010  0.2801459E+03  0.7561462E-02  0.1095609E+00
          2   -1    0    0  501    0  0.00000000000E+00  0.00000000000E+00  0.10987227796E+04  0.10987227796E+04  0.00000000000E+00 0. -1.
         -2   -1    0    0    0  501 -0.00000000000E+00 -0.00000000000E+00 -0.93553871242E+02  0.93553871242E+02  0.00000000000E+00 0.  1.
         25    2    1    2    0    0 -0.27689230839E+03 -0.12781071173E+02  0.72935031855E+03  0.79021489934E+03  0.12511991748E+03 0.  0.
          5    1    3    3  502    0 -0.18816382433E+03 -0.34176894445E+02  0.61373920704E+03  0.64285843820E+03  0.41800000000E+01 0.  1.
         -5    1    3    3    0  502 -0.88728484063E+02  0.21395823272E+02  0.11561111150E+03  0.14735646114E+03  0.41800000000E+01 0.  1.
        -11    1    1    2    0    0  0.43107102272E+02 -0.37342181308E+01  0.10036709576E+03  0.10929648010E+03  0.00000000000E+00 0. -1.
         11    1    1    2    0    0  0.23378520612E+03  0.16515289304E+02  0.17545149408E+03  0.29276527143E+03  0.00000000000E+00 0.  1.
</event>
<event>
 7    1  0.2412631E-010  0.2227534E+03  0.7561462E-02  0.1131847E+00
          1   -1    0    0  501    0  0.00000000000E+00  0.00000000000E+00  0.11790386976E+04  0.11790386976E+04  0.00000000000E+00 0. -1.
         -1   -1    0    0    0  501 -0.00000000000E+00 -0.00000000000E+00 -0.55683632892E+02  0.55683632892E+02  0.00000000000E+00 0.  1.
         25    2    1    2    0    0 -0.17811882701E+03  0.97943694665E+02  0.84617391782E+03  0.87918491272E+03  0.12504610232E+03 0.  0.
          5    1    3    3  502    0 -0.27504844297E+02 -0.26966767528E+02  0.87900482593E+02  0.96060867427E+02  0.41800000000E+01 0.  1.
         -5    1    3    3    0  502 -0.15061398271E+03  0.12491046219E+03  0.75827343523E+03  0.78312404530E+03  0.41800000000E+01 0.  1.
        -11    1    1    2    0    0  0.12476950910E+03 -0.37192335168E+02  0.22295648787E+03  0.25818655209E+03  0.00000000000E+00 0. -1.
         11    1    1    2    0    0  0.53349317905E+02 -0.60751359498E+02  0.54224659007E+02  0.97350865667E+02  0.00000000000E+00 0.  1.
</event>
<event>
 7    1  0.2412631E-010  0.9465308E+02  0.7561462E-02  0.1291959E+00
         -2   -1    0    0    0  501 -0.00000000000E+00  0.00000000000E+00  0.22661771541E+02  0.22661771541E+02  0.00000000000E+00 0.  1.
          2   -1    0    0  501    0  0.00000000000E+00 -0.00000000000E+00 -0.58554880494E+03  0.58554880494E+03  0.00000000000E+00 0. -1.
         25    2    1    2    0    0 -0.55875554870E+01 -0.31436128102E+02 -0.38396428210E+03  0.40507451290E+03  0.12504935085E+03 0.  0.
          5    1    3    3  502    0 -0.21908788413E+02 -0.65058865298E+02 -0.11892260927E+03  0.13737798353E+03  0.41800000000E+01 0. -1.
         -5    1    3    3    0  502  0.16321232926E+02  0.33622737196E+02 -0.26504167283E+03  0.26769652937E+03  0.41800000000E+01 0. -1.
        -11    1    1    2    0    0  0.28837909409E+02  0.46859125840E+02 -0.16058241158E+03  0.16974720499E+03  0.00000000000E+00 0.  1.
         11    1    1    2    0    0 -0.23250353922E+02 -0.15422997738E+02 -0.18340339721E+02  0.33388858588E+02  0.00000000000E+00 0. -1.
</event>
<event>
 6    1  0.2412631E-010  0.1132372E+03  0.7561462E-02  0.1254690E+00
          1   -1    0    0  501    0  0.00000000000E+00  0.00000000000E+00  0.47939796174E+03  0.47939796174E+03  0.00000000000E+00 0. -1.
         -1   -1    0    0    0  501 -0.00000000000E+00 -0.00000000000E+00 -0.41197242812E+02  0.41197242812E+02  0.00000000000E+00 0.  1.
          5    1    1    2  502    0 -0.53743270037E+02  0.84916151752E+02  0.11492094913E+03  0.15271996874E+03  0.41800000000E+01 0.  1.
         -5    1    1    2    0  502  0.19847918987E+02 -0.28678767539E+02  0.12341061942E+02  0.37231516294E+02  0.41800000000E+01 0.  1.
        -11    1    1    2    0    0 -0.16857880822E+02 -0.28010200327E+02  0.32082696384E+02  0.45804572647E+02  0.00000000000E+00 0.  1.
         11    1    1    2    0    0  0.50753231873E+02 -0.28227183887E+02  0.27885601147E+03  0.28483914687E+03  0.00000000000E+00 0. -1.
</event>
<event>
 6    1  0.2412631E-010  0.1796139E+03  0.7561462E-02  0.1168177E+00
          2   -1    0    0  501    0  0.00000000000E+00  0.00000000000E+00  0.87758235847E+03  0.87758235847E+03  0.00000000000E+00 0.  1.
         -2   -1    0    0    0  501 -0.00000000000E+00 -0.00000000000E+00 -0.48943359822E+02  0.48943359822E+02  0.00000000000E+00 0. -1.
          5    1    1    2  502    0 -0.19089771678E+02  0.76262498692E+02  0.25922442039E+03  0.27091541229E+03  0.41800000000E+01 0. -1.
         -5    1    1    2    0  502  0.47437225581E+01  0.91740896473E+02  0.55334203451E+02  0.10732307050E+03  0.41800000000E+01 0. -1.
        -11    1    1    2    0    0  0.48101800314E+02 -0.70373664519E+02  0.27324347895E+03  0.28623108609E+03  0.00000000000E+00 0.  1.
         11    1    1    2    0    0 -0.33755751195E+02 -0.97629730645E+02  0.24083689586E+03  0.26205614942E+03  0.00000000000E+00 0. -1.
</event>
<event>
 7    1  0.2412631E-010  0.1024441E+03  0.7561462E-02  0.1275239E+00
         -2   -1    0    0    0  501 -0.00000000000E+00  0.00000000000E+00  0.99213725355E+02  0.99213725355E+02  0.00000000000E+00 0.  1.
          2   -1    0    0  501    0  0.00000000000E+00 -0.00000000000E+00 -0.21757726898E+03  0.21757726898E+03  0.00000000000E+00 0. -1.
         25    2    1    2    0    0  0.39249154565E+02  0.53553782120E+02 -0.14145348600E+03  0.20014642651E+03  0.12506398215E+03 0.  0.
          5    1    3    3  502    0  0.71164706405E+02 -0.45980025623E+01 -0.50446054309E+02  0.87451894551E+02  0.41800000000E+01 0. -1.
         -5    1    3    3    0  502 -0.31915551840E+02  0.58151784682E+02 -0.91007431691E+02  0.11269453196E+03  0.41800000000E+01 0. -1.
        -11    1    1    2    0    0 -0.29599712341E+02 -0.33311575356E+02  0.59224643131E+02  0.74117220518E+02  0.00000000000E+00 0.  1.
         11    1    1    2    0    0 -0.96494422238E+01 -0.20242206764E+02 -0.36134700753E+02  0.42527347300E+02  0.00000000000E+00 0. -1.
</event>
<event>
 7    1  0.2412631E-010  0.1026094E+03  0.7561462E-02  0.1274902E+00
          4   -1    0    0  501    0  0.00000000000E+00  0.00000000000E+00  0.38469469926E+03  0.38469469926E+03  0.00000000000E+00 0.  1.
         -4   -1    0    0    0  501 -0.00000000000E+00 -0.00000000000E+00 -0.32341553974E+02  0.32341553974E+02  0.00000000000E+00 0. -1.
         25    2    1    2    0    0  0.17037533204E+02  0.18770013146E+02  0.17989567516E+03  0.22055870842E+03  0.12506437937E+03 0.  0.
          5    1    3    3  502    0  0.19936604325E+02 -0.50116666466E+02  0.10838063828E+03  0.12113209155E+03  0.41800000000E+01 0.  1.
         -5    1    3    3    0  502 -0.28990711209E+01  0.68886679613E+02  0.71515036877E+02  0.99426616864E+02  0.41800000000E+01 0.  1.
        -11    1    1    2    0    0 -0.46111654553E+02  0.22547490894E+01  0.14231835606E+03  0.14961912662E+03  0.00000000000E+00 0.  1.
         11    1    1    2    0    0  0.29074121349E+02 -0.21024762236E+02  0.30139114075E+02  0.46858418204E+02  0.00000000000E+00 0. -1.
</event>
<event>
 7    1  0.2412631E-010  0.1024743E+03  0.7561462E-02  0.1275177E+00
         -2   -1    0    0    0  501 -0.00000000000E+00  0.00000000000E+00  0.23871328982E+02  0.23871328982E+02  0.00000000000E+00 0.  1.
          2   -1    0    0  501    0  0.00000000000E+00 -0.00000000000E+00 -0.58097166257E+03  0.58097166257E+03  0.00000000000E+00 0. -1.
         25    2    1    2    0    0 -0.86267445342E+01 -0.39923902251E+02 -0.36792932349E+03  0.39076372276E+03  0.12512378371E+03 0.  0.
          5    1    3    3  502    0  0.91481684866E+01 -0.78063588289E+02 -0.30467237889E+03  0.31467498099E+03  0.41800000000E+01 0. -1.
         -5    1    3    3    0  502 -0.17774913021E+02  0.38139686038E+02 -0.63256944592E+02  0.76088741763E+02  0.41800000000E+01 0. -1.
        -11    1    1    2    0    0 -0.20482412835E+02  0.49289242425E+02 -0.55681836162E+02  0.77132519294E+02  0.00000000000E+00 0.  1.
         11    1    1    2    0    0  0.29109157369E+02 -0.93653401734E+01 -0.13348917394E+03  0.13694674950E+03  0.00000000000E+00 0. -1.
</event>
<event>
 6    1  0.2412631E-010  0.1117993E+03  0.7561462E-02  0.1257274E+00
         -3   -1    0    0    0  501 -0.00000000000E+00  0.00000000000E+00  0.19542020669E+03  0.19542020669E+03  0.00000000000E+00 0.  1.
          3   -1    0    0  501    0  0.00000000000E+00 -0.00000000000E+00 -0.11117049497E+03  0.11117049497E+03  0.00000000000E+00 0. -1.
          5    1    1    2  502    0  0.12749056679E+02 -0.17827143249E+02 -0.32665125659E+02  0.39557910928E+02  0.41800000000E+01 0.  1.
         -5    1    1    2    0  502 -0.50939279461E+02  0.96675794259E+02  0.29067356613E+02  0.11315212330E+03  0.41800000000E+01 0.  1.
        -11    1    1    2    0    0  0.11727226477E+02 -0.55231186981E+02  0.10127806732E+03  0.11595369238E+03  0.00000000000E+00 0.  1.
         11    1    1    2    0    0  0.26462996305E+02 -0.23617464030E+02 -0.13430586556E+02  0.37926975043E+02  0.00000000000E+00 0. -1.
</event>
<event>
 7    1  0.2412631E-010  0.1130054E+03  0.7561462E-02  0.1255103E+00
          2   -1    0    0  501    0  0.00000000000E+00  0.00000000000E+00  0.26646626105E+03  0.26646626105E+03  0.00000000000E+00 0. -1.
         -2   -1    0    0    0  501 -0.00000000000E+00 -0.00000000000E+00 -0.50673996927E+02  0.50673996927E+02  0.00000000000E+00 0.  1.
         25    2    1    2    0    0 -0.14527360624E+02 -0.30398934586E+02  0.96520592667E+02  0.16157309154E+03  0.12511794304E+03 0.  0.
          5    1    3    3  502    0 -0.12769450616E+02 -0.77684177143E+02  0.77046786142E+02  0.11023415942E+03  0.41800000000E+01 0.  1.
         -5    1    3    3    0  502 -0.17579100089E+01  0.47285242557E+02  0.19473806525E+02  0.51338932126E+02  0.41800000000E+01 0.  1.
        -11    1    1    2    0    0 -0.29425977906E+01  0.62795491557E+02  0.70344197610E+02  0.94341076838E+02  0.00000000000E+00 0. -1.
         11    1    1    2    0    0  0.17469958415E+02 -0.32396556970E+02  0.48927473850E+02  0.61226089601E+02  0.00000000000E+00 0.  1.
</event>
<event>
 7    1  0.2412631E-010  0.7459148E+02  0.7561462E-02  0.1345141E+00
          1   -1    0    0  501    0  0.00000000000E+00  0.00000000000E+00  0.21354844867E+03  0.21354844867E+03  0.00000000000E+00 0. -1.
         -1   -1    0    0    0  501 -0.00000000000E+00 -0.00000000000E+00 -0.65823578824E+02  0.65823578824E+02  0.00000000000E+00 0.  1.
         25    2    1    2    0    0  0.23150272880E+02  0.20181958466E+02  0.37704153665E+02  0.13423483156E+03  0.12511650658E+03 0.  0.
          5    1    3    3  502    0 -0.35689528962E+02  0.60045668752E+00  0.58532048477E+02  0.68684613449E+02  0.41800000000E+01 0. -1.
         -5    1    3    3    0  502  0.58839801842E+02  0.19581501778E+02 -0.20827894812E+02  0.65550218115E+02  0.41800000000E+01 0. -1.
        -11    1    1    2    0    0 -0.43228026841E+01  0.12581481721E+02 -0.11681085049E+02  0.17703899380E+02  0.00000000000E+00 0.  1.
         11    1    1    2    0    0 -0.18827470196E+02 -0.32763440186E+02  0.12170180123E+03  0.12743329655E+03  0.00000000000E+00 0. -1.
</event>
<event>
 7    1  0.4019181E-010  0.1389037E+03  0.7561462E-02  0.1214812E+00
          1   -1    0    0  501    0  0.00000000000E+00  0.00000000000E+00  0.10280488012E+03  0.10280488012E+03  0.00000000000E+00 0. -1.
         -1   -1    0    0    0  501 -0.00000000000E+00 -0.00000000000E+00 -0.23548728892E+03  0.23548728892E+03  0.00000000000E+00 0.  1.
         25    2    1    2    0    0  0.86539665635E+02 -0.92970746546E+01  0.30115980017E+01  0.15243943721E+03  0.12511260116E+03 0.  0.
          5    1    3    3  502    0  0.11701024989E+03  0.61240926812E+01  0.86980692980E+01  0.11756713784E+03  0.41800000000E+01 0.  1.
         -5    1    3    3    0  502 -0.30470584259E+02 -0.15421167336E+02 -0.56864712963E+01  0.34872299364E+02  0.41800000000E+01 0.  1.
        -11    1    1    2    0    0 -0.34116026949E+02  0.49482343724E+02 -0.75351008016E+02  0.96385580064E+02  0.00000000000E+00 0.  1.
         11    1    1    2    0    0 -0.52423638686E+02 -0.40185269069E+02 -0.60342998786E+02  0.89467151769E+02  0.00000000000E+00 0. -1.
</event>
<event>
 7    1  0.2412631E-010  0.9829799E+02  0.7561462E-02  0.1283916E+00
          1   -1    0    0  501    0  0.00000000000E+00  0.00000000000E+00  0.37843139916E+02  0.37843139916E+02  0.00000000000E+00 0. -1.
         -1   -1    0    0    0  501 -0.00000000000E+00 -0.00000000000E+00 -0.41467440974E+03  0.41467440974E+03  0.00000000000E+00 0.  1.
         25    2    1    2    0    0 -0.56413744688E+02  0.20214027523E+02 -0.25072767681E+03  0.28651864977E+03  0.12504979507E+03 0.  0.
          5    1    3    3  502    0  0.13787048165E+02  0.34558607164E+02 -0.18644392700E+03  0.19016621767E+03  0.41800000000E+01 0. -1.
         -5    1    3    3    0  502 -0.70200792854E+02 -0.14344579641E+02 -0.64283749815E+02  0.96352432105E+02  0.41800000000E+01 0. -1.
        -11    1    1    2    0    0  0.52062831215E+02  0.13179976279E+02 -0.24631109930E+02  0.59084192008E+02  0.00000000000E+00 0. -1.
         11    1    1    2    0    0  0.43509134730E+01 -0.33394003802E+02 -0.10147248308E+03  0.10691470787E+03  0.00000000000E+00 0.  1.
</event>
<event>
 6    1  0.2412631E-010  0.7312754E+02  0.7561462E-02  0.1349769E+00
          2   -1    0    0  501    0  0.00000000000E+00  0.00000000000E+00  0.14040066590E+03  0.14040066590E+03  0.00000000000E+00 0. -1.
         -2   -1    0    0    0  501 -0.00000000000E+00 -0.00000000000E+00 -0.85562820751E+02  0.85562820751E+02  0.00000000000E+00 0.  1.
          5    1    1    2  502    0 -0.13292781137E+02 -0.40894558977E+02  0.70295015574E+02  0.82510148460E+02  0.41800000000E+01 0. -1.
         -5    1    1    2    0  502  0.53565421771E+01  0.22550168867E+02 -0.41264925326E+02  0.47512831132E+02  0.41800000000E+01 0. -1.
        -11    1    1    2    0    0  0.33156752459E+02  0.35824947716E+02 -0.88935491254E+01  0.49617459916E+02  0.00000000000E+00 0.  1.
         11    1    1    2    0    0 -0.25220513500E+02 -0.17480557606E+02  0.34701304025E+02  0.46323047141E+02  0.00000000000E+00 0. -1.
</event>
<event>
 7    1  0.2412631E-010  0.2025948E+03  0.7561462E-02  0.1147568E+00
          1   -1    0    0  501    0  0.00000000000E+00  0.00000000000E+00  0.64046818770E+03  0.64046818770E+03  0.00000000000E+00 0. -1.
         -1   -1    0    0    0  501 -0.00000000000E+00 -0.00000000000E+00 -0.66235484492E+02  0.66235484492E+02  0.00000000000E+00 0.  1.
         25    2    1    2    0    0  0.13381134421E+03  0.11178224859E+03  0.31385903494E+03  0.38019593219E+03  0.12506280862E+03 0.  0.
          5    1    3    3  502    0  0.15811469027E+03  0.10088963627E+03  0.27542172482E+03  0.33324701482E+03  0.41800000000E+01 0. -1.
         -5    1    3    3    0  502 -0.24303346057E+02  0.10892612325E+02  0.38437310120E+02  0.46948917369E+02  0.41800000000E+01 0. -1.
        -11    1    1    2    0    0 -0.47858453631E+02 -0.90031880625E+02  0.97555609372E+02  0.14111437926E+03  0.00000000000E+00 0.  1.
         11    1    1    2    0    0 -0.85952890578E+02 -0.21750367968E+02  0.16281805889E+03  0.18539336074E+03  0.00000000000E+00 0. -1.
</event>
<event>
 7    1  0.2412631E-010  0.9048874E+02  0.7561462E-02  0.1301672E+00
          1   -1    0    0  501    0  0.00000000000E+00  0.00000000000E+00  0.15121971095E+03  0.15121971095E+03  0.00000000000E+00 0. -1.
         -1   -1    0    0    0  501 -0.00000000000E+00 -0.00000000000E+00 -0.93912033755E+02  0.93912033755E+02  0.00000000000E+00 0.  1.
         25    2    1    2    0    0  0.23300190062E+02  0.44268093761E+02  0.40733334734E+02  0.14078951571E+03  0.12513960282E+03 0.  0.
          5    1    3    3  502    0  0.41889136203E+02 -0.63217665142E+01  0.68013797793E+02  0.80237232966E+02  0.41800000000E+01 0.  1.
         -5    1    3    3    0  502 -0.18588946141E+02  0.50589860275E+02 -0.27280463059E+02  0.60552282748E+02  0.41800000000E+01 0.  1.
        -11    1    1    2    0    0 -0.37306768969E+02  0.63538698832E+00 -0.22170837751E+02  0.43402128682E+02  0.00000000000E+00 0.  1.
         11    1    1    2    0    0  0.14006578907E+02 -0.44903480749E+02  0.38745180213E+02  0.60940100310E+02  0.00000000000E+00 0. -1.
</event>
<event>
 6    1  0.2412631E-010  0.1183432E+03  0.7561462E-02  0.1245856E+00
          3   -1    0    0  501    0  0.00000000000E+00  0.00000000000E+00  0.39714360339E+02  0.39714360339E+02  0.00000000000E+00 0. -1.
         -3   -1    0    0    0  501 -0.00000000000E+00 -0.00000000000E+00 -0.48170302087E+03  0.48170302087E+03  0.00000000000E+00 0.  1.
          5    1    1    2  502    0  0.28140808953E+02 -0.23866524752E+02 -0.70980659351E+02  0.80107693352E+02  0.41800000000E+01 0. -1.
         -5    1    1    2    0  502 -0.74128235847E+02  0.70855311994E+02 -0.27530582555E+03  0.29381327500E+03  0.41800000000E+01 0. -1.
        -11    1    1    2    0    0  0.47630450411E+02 -0.64029107557E+02 -0.40084632784E+02  0.89303774872E+02  0.00000000000E+00 0. -1.
         11    1    1    2    0    0 -0.16430235177E+01  0.17040320315E+02 -0.55617542848E+02  0.58192637981E+02  0.00000000000E+00 0.  1.
</event>
<event>
 6    1  0.2412631E-010  0.1103109E+03  0.7561462E-02  0.1259995E+00
          2   -1    0    0  501    0  0.00000000000E+00  0.00000000000E+00  0.63136880060E+03  0.63136880060E+03  0.00000000000E+00 0. -1.
         -2   -1    0    0    0  501 -0.00000000000E+00 -0.00000000000E+00 -0.21135133774E+02  0.21135133774E+02  0.00000000000E+00 0.  1.
          5    1    1    2  502    0  0.20728894001E+02  0.41698987494E+02  0.11510113341E+03  0.12423460032E+03  0.41800000000E+01 0. -1.
         -5    1    1    2    0  502 -0.45364248357E+02 -0.68979419837E+02  0.26334192738E+03  0.27601180863E+03  0.41800000000E+01 0. -1.
        -11    1    1    2    0    0  0.39393217411E+02  0.50280591530E+02  0.10790112726E+03  0.12538985895E+03  0.00000000000E+00 0.  1.
         11    1    1    2    0    0 -0.14757863055E+02 -0.23000159187E+02  0.12388947878E+03  0.12686766647E+03  0.00000000000E+00 0. -1.
</event>
<event>
 7    1  0.2412631E-010  0.8408573E+02  0.7561462E-02  0.1317841E+00
          1   -1    0    0  501    0  0.00000000000E+00  0.00000000000E+00  0.38791068076E+03  0.38791068076E+03  0.00000000000E+00 0. -1.
         -1   -1    0    0    0  501 -0.00000000000E+00 -0.00000000000E+00 -0.33469350556E+02  0.33469350556E+02  0.00000000000E+00 0.  1.
         25    2    1    2    0    0  0.19670548729E+02  0.27181702128E+02  0.19451823268E+03  0.23366636898E+03  0.12504740591E+03 0.  0.
          5    1    3    3  502    0  0.44790579673E+02 -0.41352369237E+01  0.18728912495E+03  0.19266028376E+03  0.41800000000E+01 0.  1.
         -5    1    3    3    0  502 -0.25120030944E+02  0.31316939052E+02  0.72291077294E+01  0.41006085216E+02  0.41800000000E+01 0.  1.
        -11    1    1    2    0    0  0.11540037377E+02  0.21734299011E+02  0.93106081541E+01  0.26310447361E+02  0.00000000000E+00 0.  1.
         11    1    1    2    0    0 -0.31210586106E+02 -0.48916001139E+02  0.15061248937E+03  0.16140321498E+03  0.00000000000E+00 0. -1.
</event>
<event>
 7    1  0.2412631E-010  0.1448030E+03  0.7561462E-02  0.1207008E+00
         -1   -1    0    0    0  501 -0.00000000000E+00  0.00000000000E+00  0.19453843322E+03  0.19453843322E+03  0.00000000000E+00 0.  1.
          1   -1    0    0  501    0  0.00000000000E+00 -0.00000000000E+00 -0.15479702940E+03  0.15479702940E+03  0.00000000000E+00 0. -1.
         25    2    1    2    0    0 -0.12488574576E+03 -0.51681467731E+02  0.20698216502E+02  0.18534868271E+03  0.12513310680E+03 0.  0.
          5    1    3    3  502    0 -0.35159211889E+02 -0.25442500579E+02 -0.51266165423E+02  0.67299206040E+02  0.41800000000E+01 0.  1.
         -5    1    3    3    0  502 -0.89726533866E+02 -0.26238967152E+02  0.71964381925E+02  0.11804947667E+03  0.41800000000E+01 0.  1.
        -11    1    1    2    0    0  0.79627937460E+02 -0.51304041584E+01  0.38780428920E+02  0.88717817479E+02  0.00000000000E+00 0.  1.
         11    1    1    2    0    0  0.45257808295E+02  0.56811871890E+02 -0.19737241602E+02  0.75268962430E+02  0.00000000000E+00 0. -1.
</event>
<event>
 7    1  0.4376849E-010  0.6994824E+02  0.7561462E-02  0.1360269E+00
         -2   -1    0    0    0  501 -0.00000000000E+00  0.00000000000E+00  0.13615383289E+03  0.13615383289E+03  0.00000000000E+00 0.  1.
          2   -1    0    0  501    0  0.00000000000E+00 -0.00000000000E+00 -0.88807164010E+02  0.88807164010E+02  0.00000000000E+00 0. -1.
         25    2    1    2    0    0 -0.14122462882E+02 -0.14127628644E+02  0.45982137637E+02  0.13473739981E+03  0.12506308839E+03 0.  0.
          5    1    3    3  502    0  0.39157528397E+02 -0.22734279494E+02 -0.19757988773E+02  0.49578322023E+02  0.41800000000E+01 0. -1.
         -5    1    3    3    0  502 -0.53279991279E+02  0.86066508494E+01  0.65740126410E+02  0.85159077789E+02  0.41800000000E+01 0. -1.
        -11    1    1    2    0    0 -0.10394754795E+02  0.11708109604E+02 -0.39509737519E+02  0.42498824885E+02  0.00000000000E+00 0. -1.
         11    1    1    2    0    0  0.24517217677E+02  0.24195190398E+01  0.40874268758E+02  0.47724772199E+02  0.00000000000E+00 0.  1.
</event>
<event>
 7    1  0.2412631E-010  0.7586532E+02  0.7561462E-02  0.1341212E+00
         -2   -1    0    0    0  501 -0.00000000000E+00  0.00000000000E+00  0.13912682665E+03  0.13912682665E+03  0.00000000000E+00 0.  1.
          2   -1    0    0  501    0  0.00000000000E+00 -0.00000000000E+00 -0.11676976449E+03  0.11676976449E+03  0.00000000000E+00 0. -1.
         25    2    1    2    0    0 -0.22915460975E+02 -0.57273540531E+02 -0.14194446771E+02  0.14021437063E+03  0.12511279158E+03 0.  0.
          5    1    3    3  502    0 -0.37923303132E+02 -0.39611698421E+02 -0.64442763685E+02  0.84720751671E+02  0.41800000000E+01 0.  1.
         -5    1    3    3    0  502  0.15007842157E+02 -0.17661842110E+02  0.50248316914E+02  0.55493618963E+02  0.41800000000E+01 0.  1.
        -11    1    1    2    0    0  0.34220617108E+02  0.44185475107E+02  0.62914627683E+02  0.84152582980E+02  0.00000000000E+00 0.  1.
         11    1    1    2    0    0 -0.11305156132E+02  0.13088065424E+02 -0.26363118757E+02  0.31529637523E+02  0.00000000000E+00 0. -1.
</event>
<event>
 7    1  0.2412631E-010  0.7941150E+02  0.7561462E-02  0.1330730E+00
          1   -1    0    0  501    0  0.00000000000E+00  0.00000000000E+00  0.94012435207E+03  0.94012435207E+03  0.00000000000E+00 0. -1.
         -1   -1    0    0    0  501 -0.00000000000E+00 -0.00000000000E+00 -0.17078443178E+02  0.17078443178E+02  0.00000000000E+00 0.  1.
         25    2    1    2    0    0  0.10989047223E+02 -0.51041071307E+02  0.64336982816E+03  0.65749835573E+03  0.12511355592E+03 0.  0.
          5    1    3    3  502    0  0.71924567276E+01 -0.39087684773E+02  0.64303340369E+03  0.64427401716E+03  0.41800000000E+01 0.  1.
         -5    1    3    3    0  502  0.37965904952E+01 -0.11953386534E+02  0.33642447630E+00  0.13224338564E+02  0.41800000000E+01 0.  1.
        -11    1    1    2    0    0  0.28349470191E+01 -0.26613654260E+02  0.99159933506E+02  0.10270840243E+03  0.00000000000E+00 0. -1.
         11    1    1    2    0    0 -0.13823994242E+02  0.77654725567E+02  0.18051614722E+03  0.19699603708E+03  0.00000000000E+00 0.  1.
</event>
<event>
 7    1  0.2412631E-010  0.1022002E+03  0.7561462E-02  0.1275736E+00
         -1   -1    0    0    0  501 -0.00000000000E+00  0.00000000000E+00  0.69289749478E+02  0.69289749478E+02  0.00000000000E+00 0.  1.
          1   -1    0    0  501    0  0.00000000000E+00 -0.00000000000E+00 -0.23726128936E+03  0.23726128936E+03  0.00000000000E+00 0. -1.
         25    2    1    2    0    0 -0.15116656400E+02 -0.21244112968E+02 -0.17144867140E+03  0.21381462681E+03  0.12506886933E+03 0.  0.
          5    1    3    3  502    0  0.25539597358E+02  0.43532845549E+02 -0.58943750915E+02  0.77712404716E+02  0.41800000000E+01 0. -1.
         -5    1    3    3    0  502 -0.40656253758E+02 -0.64776958516E+02 -0.11250492049E+03  0.13610222209E+03  0.41800000000E+01 0. -1.
        -11    1    1    2    0    0 -0.96295451928E+01  0.43090629798E+02 -0.23579282795E+02  0.50055100581E+02  0.00000000000E+00 0. -1.
         11    1    1    2    0    0  0.24746201593E+02 -0.21846516831E+02  0.27056414320E+02  0.42681311446E+02  0.00000000000E+00 0.  1.
</event>
<event>
 7    1  0.2412631E-010  0.1282367E+03  0.7561462E-02  0.1230096E+00
         -2   -1    0    0    0  501 -0.00000000000E+00  0.00000000000E+00  0.81275867982E+03  0.81275867982E+03  0.00000000000E+00 0.  1.
          2   -1    0    0  501    0  0.00000000000E+00 -0.00000000000E+00 -0.24708265840E+02  0.24708265840E+02  0.00000000000E+00 0. -1.
         25    2    1    2    0    0  0.43818369891E+02 -0.77135713897E+02  0.48475321289E+03  0.50844089838E+03  0.12512594393E+03 0.  0.
          5    1    3    3  502    0 -0.28353685727E+02  0.14604512642E+02  0.61982032362E+02  0.69831712134E+02  0.41800000000E+01 0.  1.
         -5    1    3    3    0  502  0.72172055618E+02 -0.91740226539E+02  0.42277118053E+03  0.43860918625E+03  0.41800000000E+01 0.  1.
        -11    1    1    2    0    0 -0.45226640675E+02  0.18518322337E+02  0.23013757846E+03  0.23526938243E+03  0.00000000000E+00 0.  1.
         11    1    1    2    0    0  0.14082707846E+01  0.58617391561E+02  0.73159622627E+02  0.93756664845E+02  0.00000000000E+00 0. -1.
</event>
<event>
 7    1  0.2412631E-010  0.1229814E+03  0.7561462E-02  0.1238258E+00
         -2   -1    0    0    0  501 -0.00000000000E+00  0.00000000000E+00  0.10279331910E+03  0.10279331910E+03  0.00000000000E+00 0.  1.
          2   -1    0    0  501    0  0.00000000000E+00 -0.00000000000E+00 -0.20774583083E+03  0.20774583083E+03  0.00000000000E+00 0. -1.
         25    2    1    2    0    0 -0.63243261313E+02 -0.74695598879E+02 -0.57025297413E+02  0.16878908832E+03  0.12513484406E+03 0.  0.
          5    1    3    3  502    0 -0.27919602031E+02  0.16598440579E+02  0.24845684749E+02  0.41107090117E+02  0.41800000000E+01 0. -1.
         -5    1    3    3    0  502 -0.35323659282E+02 -0.91294039459E+02 -0.81870982162E+02  0.12768199821E+03  0.41800000000E+01 0. -1.
        -11    1    1    2    0    0  0.24089020151E+01 -0.10375142752E+02  0.15966346256E+02  0.19192983322E+02  0.00000000000E+00 0.  1.
         11    1    1    2    0    0  0.60834359298E+02  0.85070741631E+02 -0.63893560574E+02  0.12255707828E+03  0.00000000000E+00 0. -1.
</event>
<event>
 7    1  0.2412631E-010  0.8510185E+02  0.7561462E-02  0.1315166E+00
          1   -1    0    0  501    0  0.00000000000E+00  0.00000000000E+00  0.28757822706E+02  0.28757822706E+02  0.00000000000E+00 0. -1.
         -1   -1    0    0    0  501 -0.00000000000E+00 -0.00000000000E+00 -0.52391292427E+03  0.52391292427E+03  0.00000000000E+00 0.  1.
         25    2    1    2    0    0  0.19401176898E+02 -0.25907989723E+02 -0.16944658659E+03  0.21307405603E+03  0.12506309626E+03 0.  0.
          5    1    3    3  502    0  0.20541183563E+02  0.21264311875E+02  0.67566054974E+01  0.30614298939E+02  0.41800000000E+01 0. -1.
         -5    1    3    3    0  502 -0.11400066650E+01 -0.47172301598E+02 -0.17620319209E+03  0.18245975709E+03  0.41800000000E+01 0. -1.
        -11    1    1    2    0    0  0.34624266704E+02  0.15587009467E+02 -0.17738080981E+03  0.18139941124E+03  0.00000000000E+00 0.  1.
         11    1    1    2    0    0 -0.54025443602E+02  0.10320980256E+02 -0.14832770516E+03  0.15819727971E+03  0.00000000000E+00 0. -1.
</event>
<event>
 7    1  0.2412631E-010  0.1262046E+03  0.7561462E-02  0.1233199E+00
          1   -1    0    0  501    0  0.00000000000E+00  0.00000000000E+00  0.78669215195E+02  0.78669215195E+02  0.00000000000E+00 0. -1.
         -1   -1    0    0    0  501 -0.00000000000E+00 -0.00000000000E+00 -0.21475310999E+03  0.21475310999E+03  0.00000000000E+00 0.  1.
         25    2    1    2    0    0  0.19501854253E+02 -0.65634953887E+02 -0.48487764704E+02  0.15065239701E+03  0.12512718293E+03 0.  0.
          5    1    3    3  502    0 -0.51796450997E+02 -0.28578571561E+02 -0.35587061404E+02  0.69162984520E+02  0.41800000000E+01 0. -1.
         -5    1    3    3    0  502  0.71298305251E+02 -0.37056382326E+02 -0.12900703300E+02  0.81489412492E+02  0.41800000000E+01 0. -1.
        -11    1    1    2    0    0 -0.55123156195E+02  0.32488773727E+02 -0.52679610844E+02  0.82880782850E+02  0.00000000000E+00 0. -1.
         11    1    1    2    0    0  0.35621301942E+02  0.33146180160E+02 -0.34916519250E+02  0.59889145325E+02  0.00000000000E+00 0.  1.
</event>
<event>
 7    1  0.2412631E-010  0.1482514E+03  0.7561462E-02  0.1202638E+00
         -2   -1    0    0    0  501 -0.00000000000E+00  0.00000000000E+00  0.30465510545E+02  0.30465510545E+02  0.00000000000E+00 0.  1.
          2   -1    0    0  501    0  0.00000000000E+00 -0.00000000000E+00 -0.80161014364E+03  0.80161014364E+03  0.00000000000E+00 0. -1.
         25    2    1    2    0    0 -0.39025617769E+02  0.97383525888E+02 -0.52290943967E+03  0.54779132489E+03  0.12503800849E+03 0.  0.
          5    1    3    3  502    0  0.20610714846E+02  0.10096785112E+03 -0.34358553317E+03  0.35873081765E+03  0.41800000000E+01 0. -1.
         -5    1    3    3    0  502 -0.59636332614E+02 -0.35843252306E+01 -0.17932390650E+03  0.18906050724E+03  0.41800000000E+01 0. -1.
        -11    1    1    2    0    0  0.41050282638E+01  0.15126322850E+02 -0.10220034088E+02  0.18711119602E+02  0.00000000000E+00 0.  1.
         11    1    1    2    0    0  0.34920589505E+02 -0.11250984874E+03 -0.23801515933E+03  0.26557320969E+03  0.00000000000E+00 0. -1.
</event>
<event>
 7    1  0.2412631E-010  0.1128396E+03  0.7561462E-02  0.1255400E+00
          4   -1    0    0  501    0  0.00000000000E+00  0.00000000000E+00  0.18493036223E+03  0.18493036223E+03  0.00000000000E+00 0. -1.
         -4   -1    0    0    0  501 -0.00000000000E+00 -0.00000000000E+00 -0.87618707210E+02  0.87618707210E+02  0.00000000000E+00 0.  1.
         25    2    1    2    0    0  0.35606378570E+02 -0.29001697763E+02  0.10708194947E+03  0.17092075978E+03  0.12505378664E+03 0.  0.
          5    1    3    3  502    0  0.21553291596E+02 -0.76213488693E+02  0.86539672983E+02  0.11738665869E+03  0.41800000000E+01 0.  1.
         -5    1    3    3    0  502  0.14053086974E+02  0.47211790930E+02  0.20542276486E+02  0.53534101090E+02  0.41800000000E+01 0.  1.
        -11    1    1    2    0    0  0.10194921518E+02  0.46721581338E+02  0.97089041034E+01  0.48796571666E+02  0.00000000000E+00 0. -1.
         11    1    1    2    0    0 -0.45801300088E+02 -0.17719883575E+02 -0.19479198552E+02  0.52831737998E+02  0.00000000000E+00 0.  1.
</event>
<event>
 7    1  0.2412631E-010  0.1098139E+03  0.7561462E-02  0.1260915E+00
         -2   -1    0    0    0  501 -0.00000000000E+00  0.00000000000E+00  0.53566157464E+02  0.53566157464E+02  0.00000000000E+00 0.  1.
          2   -1    0    0  501    0  0.00000000000E+00 -0.00000000000E+00 -0.24443153466E+03  0.24443153466E+03  0.00000000000E+00 0. -1.
         25    2    1    2    0    0 -0.14788197210E+02 -0.30515276168E+02 -0.12252960177E+03  0.17833283983E+03  0.12505688943E+03 0.  0.
          5    1    3    3  502    0  0.38797964160E+02 -0.54063928415E+02 -0.42405104903E+02  0.79018071986E+02  0.41800000000E+01 0.  1.
         -5    1    3    3    0  502 -0.53586161370E+02  0.23548652247E+02 -0.80124496869E+02  0.99314767842E+02  0.41800000000E+01 0.  1.
        -11    1    1    2    0    0  0.20529037207E+02  0.60423918300E+02 -0.61127266731E+02  0.88368738869E+02  0.00000000000E+00 0.  1.
         11    1    1    2    0    0 -0.57408399974E+01 -0.29908642132E+02 -0.72085086942E+01  0.31296113428E+02  0.00000000000E+00 0. -1.
</event>
<event>
 7    1  0.2412631E-010  0.1052065E+03  0.7561462E-02  0.1269713E+00
          2   -1    0    0  501    0  0.00000000000E+00  0.00000000000E+00  0.26592234312E+03  0.26592234312E+03  0.00000000000E+00 0.  1.
         -2   -1    0    0    0  501 -0.00000000000E+00 -0.00000000000E+00 -0.63914765773E+02  0.63914765773E+02  0.00000000000E+00 0. -1.
         25    2    1    2    0    0  0.51022650050E+02  0.13238097628E+02  0.17510511368E+03  0.22153772461E+03  0.12505440633E+03 0.  0.
          5    1    3    3  502    0  0.80401168148E+02  0.40673467421E+02  0.90494771200E+02  0.12777110317E+03  0.41800000000E+01 0. -1.
         -5    1    3    3    0  502 -0.29378518098E+02 -0.27435369793E+02  0.84610342483E+02  0.93766621440E+02  0.41800000000E+01 0. -1.
        -11    1    1    2    0    0 -0.28840404546E+01 -0.29001687089E+02  0.45756767465E+02  0.54250320849E+02  0.00000000000E+00 0.  1.
         11    1    1    2    0    0 -0.48138609595E+02  0.15763589460E+02 -0.18854303798E+02  0.54049063434E+02  0.00000000000E+00 0. -1.
</event>
<event>
 7    1  0.3009316E-010  0.8016881E+02  0.7561462E-02  0.1328573E+00
          1   -1    0    0  501    0  0.00000000000E+00  0.00000000000E+00  0.31672652745E+03  0.31672652745E+03  0.00000000000E+00 0. -1.
         -1   -1    0    0    0  501 -0.00000000000E+00 -0.00000000000E+00 -0.54531966572E+02  0.54531966572E+02  0.00000000000E+00 0.  1.
         25    2    1    2    0    0 -0.40265001541E+02  0.17766077435E+02  0.23003768060E+03  0.26551149763E+03  0.12506844935E+03 0.  0.
          5    1    3    3  502    0 -0.58807565312E+02  0.50851908218E+02  0.20647268448E+03  0.22066419769E+03  0.41800000000E+01 0.  1.
         -5    1    3    3    0  502  0.18542563771E+02 -0.33085830783E+02  0.23564996120E+02  0.44847299941E+02  0.41800000000E+01 0.  1.
        -11    1    1    2    0    0  0.26854740988E+02 -0.90909975297E+01  0.64068655824E+02  0.70061515890E+02  0.00000000000E+00 0. -1.
         11    1    1    2    0    0  0.13410260553E+02 -0.86750799049E+01 -0.31911775550E+02  0.35685480496E+02  0.00000000000E+00 0.  1.
</event>
<event>
 6    1  0.2412631E-010  0.1428615E+03  0.7561462E-02  0.1209530E+00
          3   -1    0    0  501    0  0.00000000000E+00  0.00000000000E+00  0.17957700471E+03  0.17957700471E+03  0.00000000000E+00 0. -1.
         -3   -1    0    0    0  501 -0.00000000000E+00 -0.00000000000E+00 -0.12799960402E+03  0.12799960402E+03  0.00000000000E+00 0.  1.
          5    1    1    2  502    0 -0.13665661028E+02  0.51550879289E+02  0.16471027371E+01  0.53520358689E+02  0.41800000000E+01 0. -1.
         -5    1    1    2    0  502  0.99264074847E+02 -0.36366581258E+01  0.65730825212E+02  0.11918303411E+03  0.41800000000E+01 0. -1.
        -11    1    1    2    0    0 -0.17983279019E+02  0.26652204922E+02 -0.11422064505E+02  0.34120403120E+02  0.00000000000E+00 0.  1.
         11    1    1    2    0    0 -0.67615134800E+02 -0.74566426085E+02 -0.43784627529E+01  0.10075281281E+03  0.00000000000E+00 0. -1.
</event>
<event>
 7    1  0.2412631E-010  0.4194139E+03  0.7561462E-02  0.1037257E+00
         -2   -1    0    0    0  501 -0.00000000000E+00  0.00000000000E+00  0.29680370512E+03  0.29680370512E+03  0.00000000000E+00 0.  1.
          2   -1    0    0  501    0  0.00000000000E+00 -0.00000000000E+00 -0.77804083942E+03  0.77804083942E+03  0.00000000000E+00 0. -1.
         25    2    1    2    0    0 -0.13408080540E+03  0.39303311170E+03 -0.48337823670E+03  0.64943168876E+03  0.12511718260E+03 0.  0.
          5    1    3    3  502    0 -0.10478018509E+03  0.36976757631E+03 -0.47471355539E+03  0.61080060556E+03  0.41800000000E+01 0. -1.
         -5    1    3    3    0  502 -0.29300620304E+02  0.23265535385E+02 -0.86646813115E+01  0.38631083200E+02  0.41800000000E+01 0. -1.
        -11    1    1    2    0    0  0.11776530530E+03 -0.29831903426E+03 -0.34463982907E+02  0.32256887551E+03  0.00000000000E+00 0.  1.
         11    1    1    2    0    0  0.16315500093E+02 -0.94714077443E+02  0.36605085304E+02  0.10284398028E+03  0.00000000000E+00 0. -1.
</event>
<event>
 7    1  0.2412631E-010  0.1161224E+03  0.7561462E-02  0.1249635E+00
          3   -1    0    0  501    0  0.00000000000E+00  0.00000000000E+00  0.93525272163E+02  0.93525272163E+02  0.00000000000E+00 0. -1.
         -3   -1    0    0    0  501 -0.00000000000E+00 -0.00000000000E+00 -0.15987996236E+03  0.15987996236E+03  0.00000000000E+00 0.  1.
         25    2    1    2    0    0 -0.56525545562E+02 -0.64040940492E+01 -0.40727457577E+02  0.14334912265E+03  0.12511632763E+03 0.  0.
          5    1    3    3  502    0 -0.90454850785E+02 -0.29294056827E+02 -0.36730925373E+02  0.10201399450E+03  0.41800000000E+01 0.  1.
         -5    1    3    3    0  502  0.33929305223E+02  0.22889962777E+02 -0.39965322042E+01  0.41335128142E+02  0.41800000000E+01 0.  1.
        -11    1    1    2    0    0  0.40649423640E+02 -0.33698058104E+02  0.10451387795E+02  0.53825331110E+02  0.00000000000E+00 0. -1.
         11    1    1    2    0    0  0.15876121922E+02  0.40102152153E+02 -0.36078620412E+02  0.56230780765E+02  0.00000000000E+00 0.  1.
</event>
<event>
 6    1  0.2412631E-010  0.1233771E+03  0.7561462E-02  0.1237628E+00
         -3   -1    0    0    0  501 -0.00000000000E+00  0.00000000000E+00  0.20409797604E+03  0.20409797604E+03  0.00000000000E+00 0.  1.
          3   -1    0    0  501    0  0.00000000000E+00 -0.00000000000E+00 -0.10027611599E+03  0.10027611599E+03  0.00000000000E+00 0. -1.
          5    1    1    2  502    0 -0.20448258633E+02 -0.52164305140E+02  0.73232158117E+02  0.92302044367E+02  0.41800000000E+01 0. -1.
         -5    1    1    2    0  502  0.51414699769E+02 -0.34253435025E+02 -0.30035026401E+02  0.68821104135E+02  0.41800000000E+01 0. -1.
        -11    1    1    2    0    0 -0.52217357529E+02  0.92780325932E+02  0.42613664664E+02  0.11467678808E+03  0.00000000000E+00 0. -1.
         11    1    1    2    0    0  0.21250916393E+02 -0.63625857667E+01  0.18011063668E+02  0.28574155449E+02  0.00000000000E+00 0.  1.
</event>
<event>
 7    1  0.2412631E-010  0.8737732E+02  0.7561462E-02  0.1309330E+00
          2   -1    0    0  501    0  0.00000000000E+00  0.00000000000E+00  0.12572175712E+03  0.12572175712E+03  0.00000000000E+00 0. -1.
         -2   -1    0    0    0  501 -0.00000000000E+00 -0.00000000000E+00 -0.14166560851E+03  0.14166560851E+03  0.00000000000E+00 0.  1.
         25    2    1    2    0    0  0.47610180765E+02  0.27978079332E+02 -0.67990906606E+02  0.15272613614E+03  0.12511197802E+03 0.  0.
          5    1    3    3  502    0 -0.22955313525E+02  0.83343412682E+01 -0.75036068221E+02  0.79020830150E+02  0.41800000000E+01 0. -1.
         -5    1    3    3    0  502  0.70565494290E+02  0.19643738063E+02  0.70451616159E+01  0.73705305994E+02  0.41800000000E+01 0. -1.
        -11    1    1    2    0    0 -0.10724387183E+02 -0.37095239547E+02  0.64071649806E+02  0.74808058298E+02  0.00000000000E+00 0. -1.
         11    1    1    2    0    0 -0.36885793582E+02  0.91171602151E+01 -0.12024594591E+02  0.39853171187E+02  0.00000000000E+00 0.  1.
</event>
<event>
 6    1  0.2412631E-010  0.2884836E+03  0.7561462E-02  0.1091144E+00
         -2   -1    0    0    0  501 -0.00000000000E+00  0.00000000000E+00  0.60046902248E+02  0.60046902248E+02  0.00000000000E+00 0. -1.
          2   -1    0    0  501    0  0.00000000000E+00 -0.00000000000E+00 -0.16364243157E+04  0.16364243157E+04  0.00000000000E+00 0.  1.
          5    1    1    2  502    0 -0.80997368925E+02 -0.16780189428E+03 -0.50976757077E+03  0.54276928626E+03  0.41800000000E+01 0. -1.
         -5    1    1    2    0  502 -0.98040322642E+02 -0.46566842473E+02 -0.53613037217E+03  0.54702250781E+03  0.41800000000E+01 0. -1.
        -11    1    1    2    0    0  0.65528234135E+02  0.50964946377E+02 -0.85118765977E+02  0.11889734879E+03  0.00000000000E+00 0. -1.
         11    1    1    2    0    0  0.11350945743E+03  0.16340379038E+03 -0.44536070450E+03  0.48778207506E+03  0.00000000000E+00 0.  1.
</event>
<event>
 7    1  0.2412631E-010  0.1188455E+03  0.7561462E-02  0.1245014E+00
         -1   -1    0    0    0  501 -0.00000000000E+00  0.00000000000E+00  0.13384047546E+03  0.13384047546E+03  0.00000000000E+00 0.  1.
          1   -1    0    0  501    0  0.00000000000E+00 -0.00000000000E+00 -0.12522039378E+03  0.12522039378E+03  0.00000000000E+00 0. -1.
         25    2    1    2    0    0  0.64611341366E+02  0.28728461358E+02  0.14955217518E+02  0.14442028581E+03  0.12503443725E+03 0.  0.
          5    1    3    3  502    0 -0.18758469271E+02  0.41889984971E+02  0.34637005968E+02  0.57652802124E+02  0.41800000000E+01 0.  1.
         -5    1    3    3    0  502  0.83369810637E+02 -0.13161523613E+02 -0.19681788450E+02  0.86767483691E+02  0.41800000000E+01 0.  1.
        -11    1    1    2    0    0  0.15954348849E+02  0.87991044941E+01  0.14580263497E+02  0.23335585930E+02  0.00000000000E+00 0.  1.
         11    1    1    2    0    0 -0.80565690215E+02 -0.37527565852E+02 -0.20915399331E+02  0.91304997496E+02  0.00000000000E+00 0. -1.
</event>
<event>
 7    1  0.2412631E-010  0.1136277E+03  0.7561462E-02  0.1253996E+00
         -4   -1    0    0    0  501 -0.00000000000E+00  0.00000000000E+00  0.55949815040E+03  0.55949815040E+03  0.00000000000E+00 0.  1.
          4   -1    0    0  501    0  0.00000000000E+00 -0.00000000000E+00 -0.38395430119E+02  0.38395430119E+02  0.00000000000E+00 0. -1.
         25    2    1    2    0    0  0.37235641686E+02  0.80282952353E+02  0.37200541306E+03  0.40231380732E+03  0.12504609854E+03 0.  0.
          5    1    3    3  502    0  0.33563727632E+02  0.98659500393E+02  0.36826956752E+03  0.38275340311E+03  0.41800000000E+01 0. -1.
         -5    1    3    3    0  502  0.36719140533E+01 -0.18376548041E+02  0.37358455379E+01  0.19560404203E+02  0.41800000000E+01 0. -1.
        -11    1    1    2    0    0 -0.45057317139E+02 -0.33040697308E+02  0.22508746427E+02  0.60236975124E+02  0.00000000000E+00 0.  1.
         11    1    1    2    0    0  0.78216754532E+01 -0.47242255045E+02  0.12658856079E+03  0.13534279808E+03  0.00000000000E+00 0. -1.
</event>
<event>
 7    1  0.2412631E-010  0.1973151E+03  0.7561462E-02  0.1152024E+00
          2   -1    0    0  501    0  0.00000000000E+00  0.00000000000E+00  0.50902783902E+03  0.50902783902E+03  0.00000000000E+00 0. -1.
         -2   -1    0    0    0  501 -0.00000000000E+00 -0.00000000000E+00 -0.19483467082E+03  0.19483467082E+03  0.00000000000E+00 0.  1.
         25    2    1    2    0    0  0.44230038311E+02 -0.17556975777E+03 -0.10071340778E+03  0.24202793108E+03  0.12511311995E+03 0.  0.
          5    1    3    3  502    0  0.63744097009E+02 -0.73380445743E+02 -0.97677989964E+02  0.13786392510E+03  0.41800000000E+01 0. -1.
         -5    1    3    3    0  502 -0.19514058698E+02 -0.10218931203E+03 -0.30354178138E+01  0.10416400598E+03  0.41800000000E+01 0. -1.
        -11    1    1    2    0    0 -0.60012605924E+02  0.10531125655E+03  0.18721784693E+03  0.22303025766E+03  0.00000000000E+00 0.  1.
         11    1    1    2    0    0  0.15782567612E+02  0.70258501228E+02  0.22768872905E+03  0.23880432109E+03  0.00000000000E+00 0. -1.
</event>
<event>
 7    1  0.2412631E-010  0.8965877E+02  0.7561462E-02  0.1303680E+00
          2   -1    0    0  501    0  0.00000000000E+00  0.00000000000E+00  0.51516200312E+02  0.51516200312E+02  0.00000000000E+00 0. -1.
         -2   -1    0    0    0  501 -0.00000000000E+00 -0.00000000000E+00 -0.32246585916E+03  0.32246585916E+03  0.00000000000E+00 0.  1.
         25    2    1    2    0    0  0.17634880469E+02  0.26610378240E+02 -0.19581349113E+03  0.23455279238E+03  0.12511190138E+03 0.  0.
          5    1    3    3  502    0  0.44838845895E+02 -0.33426231106E+01 -0.12605989272E+02  0.46883670888E+02  0.41800000000E+01 0.  1.
         -5    1    3    3    0  502 -0.27203965426E+02  0.29953001351E+02 -0.18320750186E+03  0.18766912150E+03  0.41800000000E+01 0.  1.
        -11    1    1    2    0    0  0.34804764127E+02 -0.21226785246E+02  0.74604953030E+01  0.41444022584E+02  0.00000000000E+00 0. -1.
         11    1    1    2    0    0 -0.52439644596E+02 -0.53835929944E+01 -0.82596663020E+02  0.97985244506E+02  0.00000000000E+00 0.  1.
</event>
<event>
 7    1  0.2412631E-010  0.1471520E+03  0.7561462E-02  0.1204017E+00
         -1   -1    0    0    0  501 -0.00000000000E+00  0.00000000000E+00  0.10299597631E+03  0.10299597631E+03  0.00000000000E+00 0.  1.
          1   -1    0    0  501    0  0.00000000000E+00 -0.00000000000E+00 -0.27717667772E+03  0.27717667772E+03  0.00000000000E+00 0. -1.
         25    2    1    2    0    0 -0.11515322512E+03 -0.43510390869E+02 -0.49037588651E+02  0.18226347467E+03  0.12514739202E+03 0.  0.
          5    1    3    3  502    0 -0.60542103851E+02  0.36975688076E+02 -0.46405961580E+02  0.84873632640E+02  0.41800000000E+01 0. -1.
         -5    1    3    3    0  502 -0.54611121271E+02 -0.80486078945E+02 -0.26316270710E+01  0.97389842034E+02  0.41800000000E+01 0. -1.
        -11    1    1    2    0    0  0.76155189933E+02  0.15102232282E+02 -0.12785898605E+03  0.14958479431E+03  0.00000000000E+00 0. -1.
         11    1    1    2    0    0  0.38998035189E+02  0.28408158587E+02  0.27158732900E+01  0.48324385052E+02  0.00000000000E+00 0.  1.
</event>
<event>
 7    1  0.2412631E-010  0.2301775E+03  0.7561462E-02  0.1126515E+00
         -1   -1    0    0    0  501 -0.00000000000E+00  0.00000000000E+00  0.13293153973E+03  0.13293153973E+03  0.00000000000E+00 0.  1.
          1   -1    0    0  501    0  0.00000000000E+00 -0.00000000000E+00 -0.40545849316E+03  0.40545849316E+03  0.00000000000E+00 0. -1.
         25    2    1    2    0    0  0.18838796207E+03 -0.75466650939E+02 -0.10871334634E+03  0.26200269132E+03  0.12506629813E+03 0.  0.
          5    1    3    3  502    0  0.18432884592E+03 -0.10224179597E+03 -0.99172068080E+02  0.23298729530E+03  0.41800000000E+01 0.  1.
         -5    1    3    3    0  502  0.40591161480E+01  0.26775145032E+02 -0.95412782646E+01  0.29015396022E+02  0.41800000000E+01 0.  1.
        -11    1    1    2    0    0 -0.19543757395E+03  0.58896928720E+02 -0.15522980411E+03  0.25643904852E+03  0.00000000000E+00 0. -1.
         11    1    1    2    0    0  0.70496118801E+01  0.16569722219E+02 -0.85838029801E+01  0.19948293052E+02  0.00000000000E+00 0.  1.
</event>
<event>
 6    1  0.2412631E-010  0.1342978E+03  0.7561462E-02  0.1221214E+00
         -1   -1    0    0    0  501 -0.00000000000E+00  0.00000000000E+00  0.63422379977E+02  0.63422379977E+02  0.00000000000E+00 0.  1.
          1   -1    0    0  501    0  0.00000000000E+00 -0.00000000000E+00 -0.42536178713E+03  0.42536178713E+03  0.00000000000E+00 0. -1.
          5    1    1    2  502    0  0.67787178426E+00 -0.11661144743E+02  0.10444788103E+02  0.16217515389E+02  0.41800000000E+01 0. -1.
         -5    1    1    2    0  502 -0.11744965899E+03  0.31301289278E+02 -0.25879036608E+03  0.28594425870E+03  0.41800000000E+01 0. -1.
        -11    1    1    2    0    0  0.76922217661E+02  0.18815022181E+02 -0.26676871026E+02  0.83562480081E+02  0.00000000000E+00 0.  1.
         11    1    1    2    0    0  0.39849569549E+02 -0.38455166717E+02 -0.86916958149E+02  0.10305991294E+03  0.00000000000E+00 0. -1.
</event>
<event>
 6    1  0.2412631E-010  0.1307553E+03  0.7561462E-02  0.1226339E+00
         -1   -1    0    0    0  501 -0.00000000000E+00  0.00000000000E+00  0.15731396680E+02  0.15731396680E+02  0.00000000000E+00 0.  1.
          1   -1    0    0  501    0  0.00000000000E+00 -0.00000000000E+00 -0.11100822312E+04  0.11100822312E+04  0.00000000000E+00 0. -1.
          5    1    1    2  502    0  0.61782408917E+02 -0.18518001295E+02 -0.21829255784E+03  0.22766004399E+03  0.41800000000E+01 0. -1.
         -5    1    1    2    0  502 -0.14459199890E+02  0.79369812511E+02 -0.33218288347E+03  0.34186485059E+03  0.41800000000E+01 0. -1.
        -11    1    1    2    0    0  0.25462579019E+02 -0.10262258830E+02 -0.15763221352E+03  0.16000491126E+03  0.00000000000E+00 0.  1.
         11    1    1    2    0    0 -0.72785788047E+02 -0.50589552387E+02 -0.38624317973E+03  0.39628382208E+03  0.00000000000E+00 0. -1.
</event>
<event>
 7    1  0.3472468E-010  0.1747568E+03  0.7561462E-02  0.1172976E+00
         -1   -1    0    0    0  501 -0.00000000000E+00  0.00000000000E+00  0.40102210737E+02  0.40102210737E+02  0.00000000000E+00 0.  1.
          1   -1    0    0  501    0  0.00000000000E+00 -0.00000000000E+00 -0.84828370692E+03  0.84828370692E+03  0.00000000000E+00 0. -1.
         25    2    1    2    0    0  0.13998927278E+03  0.26056116389E+02 -0.53126861529E+03  0.56406010797E+03  0.12506616696E+03 0.  0.
          5    1    3    3  502    0  0.10418603102E+03  0.73132737192E+02 -0.40520531157E+03  0.42474927102E+03  0.41800000000E+01 0.  1.
         -5    1    3    3    0  502  0.35803241765E+02 -0.47076620803E+02 -0.12606330372E+03  0.13931083695E+03  0.41800000000E+01 0.  1.
        -11    1    1    2    0    0 -0.44862693898E+02  0.28549201065E+02 -0.53456667719E+02  0.75401150581E+02  0.00000000000E+00 0.  1.
         11    1    1    2    0    0 -0.95126578883E+02 -0.54605317454E+02 -0.22345621317E+03  0.24892465910E+03  0.00000000000E+00 0. -1.
</event>
<event>
 6    1  0.2412631E-010  0.1306153E+03  0.7561462E-02  0.1226546E+00
         -2   -1    0    0    0  501 -0.00000000000E+00  0.00000000000E+00  0.52934941248E+02  0.52934941248E+02  0.00000000000E+00 0.  1.
          2   -1    0    0  501    0  0.00000000000E+00 -0.00000000000E+00 -0.49451254636E+03  0.49451254636E+03  0.00000000000E+00 0. -1.
          5    1    1    2  502    0 -0.93097949216E+02 -0.51017776112E+02 -0.23062264418E+03  0.25391793564E+03  0.41800000000E+01 0.  1.
         -5    1    1    2    0  502  0.18767118064E+00 -0.23569655720E+02  0.10228267349E+02  0.26031783346E+02  0.41800000000E+01 0.  1.
        -11    1    1    2    0    0  0.77647183224E+02  0.82970302863E+02 -0.22270134206E+03  0.25001808730E+03  0.00000000000E+00 0. -1.
         11    1    1    2    0    0  0.15263094812E+02 -0.83828710317E+01  0.15181137821E+01  0.17479681331E+02  0.00000000000E+00 0.  1.
</event>
<event>
 6    1  0.2412631E-010  0.7945119E+02  0.7561462E-02  0.1330616E+00
         -1   -1    0    0    0  501 -0.00000000000E+00  0.00000000000E+00  0.14377107724E+03  0.14377107724E+03  0.00000000000E+00 0.  1.
          1   -1    0    0  501    0  0.00000000000E+00 -0.00000000000E+00 -0.86798956014E+02  0.86798956014E+02  0.00000000000E+00 0. -1.
          5    1    1    2  502    0 -0.43623904542E+02 -0.14462677614E+02 -0.43297404279E+02  0.63279947128E+02  0.41800000000E+01 0. -1.
         -5    1    1    2    0  502  0.27149443992E+02  0.52056146431E+01  0.58017872802E+02  0.64402924602E+02  0.41800000000E+01 0. -1.
        -11    1    1    2    0    0 -0.28029699607E+02 -0.17330163254E+02 -0.42732266097E+01  0.33230393981E+02  0.00000000000E+00 0. -1.
         11    1    1    2    0    0  0.44504160157E+02  0.26587226225E+02  0.46524879316E+02  0.69656767547E+02  0.00000000000E+00 0.  1.
</event>
<event>
 6    1  0.2412631E-010  0.1820250E+03  0.7561462E-02  0.1165857E+00
          1   -1    0    0  501    0  0.00000000000E+00  0.00000000000E+00  0.48787473662E+02  0.48787473662E+02  0.00000000000E+00 0. -1.
         -1   -1    0    0    0  501 -0.00000000000E+00 -0.00000000000E+00 -0.94498865679E+03  0.94498865679E+03  0.00000000000E+00 0.  1.
          5    1    1    2  502    0  0.39655280637E+02  0.74547408142E+01 -0.31180407792E+03  0.31443182067E+03  0.41800000000E+01 0.  1.
         -5    1    1    2    0  502  0.84245303602E+01  0.14241025287E+03 -0.37814864526E+03  0.40418501103E+03  0.41800000000E+01 0.  1.
        -11    1    1    2    0    0 -0.58029956518E+02 -0.40072805844E+02 -0.97266332579E+02  0.12014177073E+03  0.00000000000E+00 0.  1.
         11    1    1    2    0    0  0.99501455212E+01 -0.10979218784E+03 -0.10898212738E+03  0.15501752802E+03  0.00000000000E+00 0. -1.
</event>
<event>
 7    1  0.2412631E-010  0.1081043E+03  0.7561462E-02  0.1264121E+00
         -1   -1    0    0    0  501 -0.00000000000E+00  0.00000000000E+00  0.74910541166E+02  0.74910541166E+02  0.00000000000E+00 0.  1.
          1   -1    0    0  501    0  0.00000000000E+00 -0.00000000000E+00 -0.22267843138E+03  0.22267843138E+03  0.00000000000E+00 0. -1.
         25    2    1    2    0    0  0.60597481565E+02 -0.13237853641E+02 -0.12148017920E+03  0.18508891619E+03  0.12511265890E+03 0.  0.
          5    1    3    3  502    0  0.71659327222E+02  0.20473355531E+02 -0.19668936944E+02  0.77191689611E+02  0.41800000000E+01 0.  1.
         -5    1    3    3    0  502 -0.11061845657E+02 -0.33711209171E+02 -0.10181124226E+03  0.10789722658E+03  0.41800000000E+01 0.  1.
        -11    1    1    2    0    0  0.95370539163E+01  0.31875046707E+02  0.46825981893E+01  0.33599117932E+02  0.00000000000E+00 0.  1.
         11    1    1    2    0    0 -0.70134535481E+02 -0.18637193066E+02 -0.30970309202E+02  0.78900938427E+02  0.00000000000E+00 0. -1.
</event>
<event>
 7    1  0.2412631E-010  0.9061312E+02  0.7561462E-02  0.1301374E+00
          2   -1    0    0  501    0  0.00000000000E+00  0.00000000000E+00  0.13797687946E+03  0.13797687946E+03  0.00000000000E+00 0. -1.
         -2   -1    0    0    0  501 -0.00000000000E+00 -0.00000000000E+00 -0.11168858330E+03  0.11168858330E+03  0.00000000000E+00 0.  1.
         25    2    1    2    0    0  0.48039865659E+01  0.14659791755E+02  0.72724618846E+02  0.14553718095E+03  0.12511679772E+03 0.  0.
          5    1    3    3  502    0 -0.45592092981E+02  0.26762925020E+02 -0.36334044711E+01  0.53156063869E+02  0.41800000000E+01 0. -1.
         -5    1    3    3    0  502  0.50396079547E+02 -0.12103133265E+02  0.76358023317E+02  0.92381117083E+02  0.41800000000E+01 0. -1.
        -11    1    1    2    0    0  0.29478885251E+02  0.12931405029E+02 -0.50550395511E+02  0.59929695460E+02  0.00000000000E+00 0.  1.
         11    1    1    2    0    0 -0.34282871817E+02 -0.27591196784E+02  0.41140728187E+01  0.44198586348E+02  0.00000000000E+00 0. -1.
</event>
<event>
 7    1  0.2412631E-010  0.1656975E+03  0.7561462E-02  0.1182410E+00
         -4   -1    0    0    0  501 -0.00000000000E+00  0.00000000000E+00  0.18886223492E+03  0.18886223492E+03  0.00000000000E+00 0.  1.
          4   -1    0    0  501    0  0.00000000000E+00 -0.00000000000E+00 -0.16176588344E+03  0.16176588344E+03  0.00000000000E+00 0. -1.
         25    2    1    2    0    0 -0.53119235282E+02  0.11613710774E+03 -0.50557181053E+01  0.17885741873E+03  0.12511968270E+03 0.  0.
          5    1    3    3  502    0 -0.10107204513E+01  0.11973191109E+03  0.18814163067E+02  0.12127735659E+03  0.41800000000E+01 0.  1.
         -5    1    3    3    0  502 -0.52108514831E+02 -0.35948033506E+01 -0.23869881173E+02  0.57580062141E+02  0.41800000000E+01 0.  1.
        -11    1    1    2    0    0  0.70439167013E+02 -0.39792512876E+02 -0.12166673519E+02  0.81811663441E+02  0.00000000000E+00 0. -1.
         11    1    1    2    0    0 -0.17319931731E+02 -0.76344594866E+02  0.44318743103E+02  0.89959036182E+02  0.00000000000E+00 0.  1.
</event>
<event>
 7    1  0.2412631E-010  0.2285078E+03  0.7561462E-02  0.1127694E+00
          1   -1    0    0  501    0  0.00000000000E+00  0.00000000000E+00  0.54399090392E+03  0.54399090392E+03  0.00000000000E+00 0. -1.
         -1   -1    0    0    0  501 -0.00000000000E+00 -0.00000000000E+00 -0.11488322384E+03  0.11488322384E+03  0.00000000000E+00 0.  1.
         25    2    1    2    0    0 -0.17347908522E+03  0.13425699659E+03  0.28587658334E+03  0.38141987258E+03  0.12504304920E+03 0.  0.
          5    1    3    3  502    0 -0.92124075502E+02  0.76301041829E+02  0.58896484430E+02  0.13339776066E+03  0.41800000000E+01 0. -1.
         -5    1    3    3    0  502 -0.81355009721E+02  0.57955954763E+02  0.22698009891E+03  0.24802211192E+03  0.41800000000E+01 0. -1.
        -11    1    1    2    0    0  0.10274829492E+03 -0.22648453421E+02  0.56863395874E+02  0.11959770207E+03  0.00000000000E+00 0.  1.
         11    1    1    2    0    0  0.70730790303E+02 -0.11160854317E+03  0.86367700868E+02  0.15785655311E+03  0.00000000000E+00 0. -1.
</event>
<event>
 6    1  0.2412631E-010  0.1206569E+03  0.7561462E-02  0.1242017E+00
         -1   -1    0    0    0  501 -0.00000000000E+00  0.00000000000E+00  0.21546352169E+03  0.21546352169E+03  0.00000000000E+00 0.  1.
          1   -1    0    0  501    0  0.00000000000E+00 -0.00000000000E+00 -0.10915218878E+03  0.10915218878E+03  0.00000000000E+00 0. -1.
          5    1    1    2  502    0  0.66749670759E+02  0.83128632830E+01  0.10753179633E+03  0.12690619317E+03  0.41800000000E+01 0.  1.
         -5    1    1    2    0  502 -0.20848879526E+02  0.62810413066E+02  0.16114967961E+02  0.68242130384E+02  0.41800000000E+01 0.  1.
        -11    1    1    2    0    0 -0.63324779626E+02 -0.56069426630E+02  0.18776072380E+02  0.86639189812E+02  0.00000000000E+00 0.  1.
         11    1    1    2    0    0  0.17423988392E+02 -0.15053849719E+02 -0.36111503771E+02  0.42828197107E+02  0.00000000000E+00 0. -1.
</event>
<event>
 7    1  0.2412631E-010  0.1492339E+03  0.7561462E-02  0.1201417E+00
         -1   -1    0    0    0  501 -0.00000000000E+00  0.00000000000E+00  0.55162056954E+03  0.55162056954E+03  0.00000000000E+00 0.  1.
          1   -1    0    0  501    0  0.00000000000E+00 -0.00000000000E+00 -0.75594542569E+02  0.75594542569E+02  0.00000000000E+00 0. -1.
         25    2    1    2    0    0  0.12661213369E+02  0.13760387226E+03  0.40761427569E+03  0.44821553715E+03  0.12511050319E+03 0.  0.
          5    1    3    3  502    0 -0.33665784716E+02  0.57197021925E+02  0.29416384625E+03  0.30158701103E+03  0.41800000000E+01 0. -1.
         -5    1    3    3    0  502  0.46326998084E+02  0.80406850339E+02  0.11345042944E+03  0.14662852612E+03  0.41800000000E+01 0. -1.
        -11    1    1    2    0    0 -0.16215066747E+02 -0.10029436041E+03  0.69015648841E+00  0.10159903265E+03  0.00000000000E+00 0. -1.
         11    1    1    2    0    0  0.35538533778E+01 -0.37309511853E+02  0.67721594785E+02  0.77400542303E+02  0.00000000000E+00 0.  1.
</event>
<event>
 7    1  0.2412631E-010  0.1012493E+03  0.7561462E-02  0.1277691E+00
         -1   -1    0    0    0  501 -0.00000000000E+00  0.00000000000E+00  0.51600447937E+02  0.51600447937E+02  0.00000000000E+00 0.  1.
          1   -1    0    0  501    0  0.00000000000E+00 -0.00000000000E+00 -0.28625777076E+03  0.28625777076E+03  0.00000000000E+00 0. -1.
         25    2    1    2    0    0  0.12004633113E+02 -0.99178114267E+01 -0.59528874561E+02  0.13943668363E+03  0.12512564739E+03 0.  0.
          5    1    3    3  502    0  0.38813021089E+02  0.48057565439E+02 -0.25697271339E+02  0.67035828900E+02  0.41800000000E+01 0.  1.
         -5    1    3    3    0  502 -0.26808387976E+02 -0.57975376865E+02 -0.33831603222E+02  0.72400854726E+02  0.41800000000E+01 0.  1.
        -11    1    1    2    0    0 -0.42915400315E+02 -0.31133884614E+01 -0.38508864135E+02  0.57743894819E+02  0.00000000000E+00 0.  1.
         11    1    1    2    0    0  0.30910767202E+02  0.13031199888E+02 -0.13661958413E+03  0.14067764026E+03  0.00000000000E+00 0. -1.
</event>
<event>
 6    1  0.2412631E-010  0.1139494E+03  0.7561462E-02  0.1253426E+00
         -2   -1    0    0    0  501 -0.00000000000E+00  0.00000000000E+00  0.50838161676E+02  0.50838161676E+02  0.00000000000E+00 0.  1.
          2   -1    0    0  501    0  0.00000000000E+00 -0.00000000000E+00 -0.46125320850E+03  0.46125320850E+03  0.00000000000E+00 0. -1.
          5    1    1    2  502    0  0.47035522778E+01 -0.48612876154E+02  0.13350495749E+02  0.50803969026E+02  0.41800000000E+01 0. -1.
         -5    1    1    2    0  502 -0.58801736006E+02 -0.89283317280E+01 -0.11713687053E+03  0.13143773470E+03  0.41800000000E+01 0. -1.
        -11    1    1    2    0    0  0.79001763900E+02  0.48831445283E+02 -0.20876298920E+03  0.22849020637E+03  0.00000000000E+00 0.  1.
         11    1    1    2    0    0 -0.24903580172E+02  0.87097625996E+01 -0.97865682837E+02  0.10135946008E+03  0.00000000000E+00 0. -1.
</event>
<event>
 6    1  0.2412631E-010  0.2250029E+03  0.7561462E-02  0.1130207E+00
         -2   -1    0    0    0  501 -0.00000000000E+00  0.00000000000E+00  0.20504403816E+03  0.20504403816E+03  0.00000000000E+00 0.  1.
          2   -1    0    0  501    0  0.00000000000E+00 -0.00000000000E+00 -0.36697472973E+03  0.36697472973E+03  0.00000000000E+00 0. -1.
          5    1    1    2  502    0 -0.54987376421E+02  0.10714737233E+03 -0.45823507219E+02  0.12892415280E+03  0.41800000000E+01 0.  1.
         -5    1    1    2    0  502 -0.75985821858E+02  0.49489809101E+02 -0.17378066746E+03  0.19606192672E+03  0.41800000000E+01 0.  1.
        -11    1    1    2    0    0  0.76930487436E+02 -0.16684250065E+03  0.55767162887E+02  0.19200181347E+03  0.00000000000E+00 0.  1.
         11    1    1    2    0    0  0.54042710843E+02  0.10205319218E+02  0.19063202225E+01  0.55030874901E+02  0.00000000000E+00 0. -1.
</event>
<event>
 7    1  0.2412631E-010  0.7210170E+02  0.7561462E-02  0.1353089E+00
          2   -1    0    0  501    0  0.00000000000E+00  0.00000000000E+00  0.34095009320E+03  0.34095009320E+03  0.00000000000E+00 0. -1.
         -2   -1    0    0    0  501 -0.00000000000E+00 -0.00000000000E+00 -0.37153007441E+02  0.37153007441E+02  0.00000000000E+00 0.  1.
         25    2    1    2    0    0 -0.28724779195E+02  0.14032221766E+02  0.18517043172E+03  0.22575095130E+03  0.12511349665E+03 0.  0.
          5    1    3    3  502    0 -0.34752115075E+02  0.23256381441E+01 -0.46870697728E+01  0.35391511948E+02  0.41800000000E+01 0.  1.
         -5    1    3    3    0  502  0.60273358793E+01  0.11706583622E+02  0.18985750149E+03  0.19035943935E+03  0.41800000000E+01 0.  1.
        -11    1    1    2    0    0  0.13405407894E+02 -0.52351677419E+02  0.61352303193E+02  0.81758841702E+02  0.00000000000E+00 0.  1.
         11    1    1    2    0    0  0.15319371301E+02  0.38319455652E+02  0.57274350849E+02  0.70593307641E+02  0.00000000000E+00 0. -1.
</event>
<event>
 7    1  0.2412631E-010  0.1572646E+03  0.7561462E-02  0.1191820E+00
         -2   -1    0    0    0  501 -0.00000000000E+00  0.00000000000E+00  0.33642726871E+02  0.33642726871E+02  0.00000000000E+00 0. -1.
          2   -1    0    0  501    0  0.00000000000E+00 -0.00000000000E+00 -0.93198243094E+03  0.93198243094E+03  0.00000000000E+00 0.  1.
         25    2    1    2    0    0  0.89343400354E+02 -0.97697724696E+02 -0.63503773886E+03  0.66064638215E+03  0.12511444310E+03 0.  0.
          5    1    3    3  502    0  0.53852638760E+02  0.75922858163E+01 -0.35794948594E+03  0.36208156041E+03  0.41800000000E+01 0.  1.
         -5    1    3    3    0  502  0.35490761594E+02 -0.10529001051E+03 -0.27708825292E+03  0.29856482174E+03  0.41800000000E+01 0.  1.
        -11    1    1    2    0    0 -0.54926920140E+02  0.11691184640E+02 -0.13930819666E+03  0.15020127833E+03  0.00000000000E+00 0. -1.
         11    1    1    2    0    0 -0.34416480214E+02  0.86006540057E+02 -0.12399376855E+03  0.15477749733E+03  0.00000000000E+00 0.  1.
</event>
<event>
 7    1  0.2412631E-010  0.1541943E+03  0.7561462E-02  0.1195412E+00
          2   -1    0    0  501    0  0.00000000000E+00  0.00000000000E+00  0.15246952626E+03  0.15246952626E+03  0.00000000000E+00 0. -1.
         -2   -1    0    0    0  501 -0.00000000000E+00 -0.00000000000E+00 -0.17634051674E+03  0.17634051674E+03  0.00000000000E+00 0.  1.
         25    2    1    2    0    0 -0.43868353279E+02  0.10755355235E+03  0.29115651722E+02  0.17313224647E+03  0.12503941198E+03 0.  0.
          5    1    3    3  502    0 -0.86247915770E+02  0.77145866085E+02  0.33724207924E+02  0.12060257969E+03  0.41800000000E+01 0. -1.
         -5    1    3    3    0  502  0.42379562492E+02  0.30407686266E+02 -0.46085562022E+01  0.52529666773E+02  0.41800000000E+01 0. -1.
        -11    1    1    2    0    0  0.64281387840E+02 -0.57622989675E+02 -0.53817640261E+02  0.10172926897E+03  0.00000000000E+00 0.  1.
         11    1    1    2    0    0 -0.20413034561E+02 -0.49930562675E+02  0.83099805654E+00  0.53948527569E+02  0.00000000000E+00 0. -1.
</event>
<event>
 7    1  0.2412631E-010  0.9297844E+02  0.7561462E-02  0.1295795E+00
         -1   -1    0    0    0  501 -0.00000000000E+00  0.00000000000E+00  0.36410791878E+03  0.36410791878E+03  0.00000000000E+00 0.  1.
          1   -1    0    0  501    0  0.00000000000E+00 -0.00000000000E+00 -0.53813146015E+02  0.53813146015E+02  0.00000000000E+00 0. -1.
         25    2    1    2    0    0  0.47704104663E+02 -0.38772186080E+02  0.74942835143E+02  0.15826930961E+03  0.12511507427E+03 0.  0.
          5    1    3    3  502    0  0.47976576049E+02 -0.46898028159E+02  0.10620897252E+03  0.12569405371E+03  0.41800000000E+01 0. -1.
         -5    1    3    3    0  502 -0.27247138572E+00  0.81258420793E+01 -0.31266137379E+02  0.32575255897E+02  0.41800000000E+01 0. -1.
        -11    1    1    2    0    0 -0.31692736400E+02 -0.27164374109E+02  0.84849220081E+02  0.94560683741E+02  0.00000000000E+00 0. -1.
         11    1    1    2    0    0 -0.16011368263E+02  0.65936560189E+02  0.15050271754E+03  0.16509107144E+03  0.00000000000E+00 0.  1.
</event>
<event>
 7    1  0.2412631E-010  0.1590807E+03  0.7561462E-02  0.1189739E+00
         -1   -1    0    0    0  501 -0.00000000000E+00  0.00000000000E+00  0.60007991636E+02  0.60007991636E+02  0.00000000000E+00 0.  1.
          1   -1    0    0  501    0  0.00000000000E+00 -0.00000000000E+00 -0.63214055774E+03  0.63214055774E+03  0.00000000000E+00 0. -1.
         25    2    1    2    0    0  0.14077531341E+02 -0.13566496609E+03 -0.14525295282E+03  0.23524672657E+03  0.12505775524E+03 0.  0.
          5    1    3    3  502    0  0.55204187362E+02 -0.69710770008E+02 -0.25822109433E+02  0.92689522024E+02  0.41800000000E+01 0.  1.
         -5    1    3    3    0  502 -0.41126656021E+02 -0.65954196086E+02 -0.11943084338E+03  0.14255720455E+03  0.41800000000E+01 0.  1.
        -11    1    1    2    0    0 -0.39604232160E+02  0.98993320586E+02 -0.21056456678E+03  0.23602035826E+03  0.00000000000E+00 0.  1.
         11    1    1    2    0    0  0.25526700819E+02  0.36671645508E+02 -0.21631504650E+03  0.22088146455E+03  0.00000000000E+00 0. -1.
</event>
<event>
 6    1  0.2412631E-010  0.7630992E+02  0.7561462E-02  0.1339862E+00
         -2   -1    0    0    0  501 -0.00000000000E+00  0.00000000000E+00  0.44185110095E+02  0.44185110095E+02  0.00000000000E+00 0. -1.
          2   -1    0    0  501    0  0.00000000000E+00 -0.00000000000E+00 -0.39622555437E+03  0.39622555437E+03  0.00000000000E+00 0.  1.
          5    1    1    2  502    0 -0.41441559155E+02  0.10148423285E+02 -0.24319573321E+02  0.49288004290E+02  0.41800000000E+01 0.  1.
         -5    1    1    2    0  502  0.10705630086E+02 -0.40484732959E+02 -0.27256781472E+03  0.27579758907E+03  0.41800000000E+01 0.  1.
        -11    1    1    2    0    0 -0.14756638142E+02  0.10053288131E+02  0.18950388225E+02  0.26037361337E+02  0.00000000000E+00 0. -1.
         11    1    1    2    0    0  0.45492567211E+02  0.20283021543E+02 -0.74103444460E+02  0.89287709766E+02  0.00000000000E+00 0.  1.
</event>
<event>
 7    1  0.2412631E-010  0.2383170E+03  0.7561462E-02  0.1120919E+00
          2   -1    0    0  501    0  0.00000000000E+00  0.00000000000E+00  0.99489500949E+03  0.99489500949E+03  0.00000000000E+00 0. -1.
         -2   -1    0    0    0  501 -0.00000000000E+00 -0.00000000000E+00 -0.68043828223E+02  0.68043828223E+02  0.00000000000E+00 0.  1.
         25    2    1    2    0    0 -0.18250968627E+03  0.13719214067E+03  0.35371801570E+03  0.43921101008E+03  0.12513355944E+03 0.  0.
          5    1    3    3  502    0 -0.24752564736E+02 -0.14840955320E+02  0.86038110085E+01  0.30404627603E+02  0.41800000000E+01 0.  1.
         -5    1    3    3    0  502 -0.15775712154E+03  0.15203309599E+03  0.34511420469E+03  0.40880638247E+03  0.41800000000E+01 0.  1.
        -11    1    1    2    0    0  0.15618597834E+03 -0.11617002966E+03  0.54844129257E+03  0.58195995310E+03  0.00000000000E+00 0. -1.
         11    1    1    2    0    0  0.26323707933E+02 -0.21022111012E+02  0.24691872996E+02  0.41767874531E+02  0.00000000000E+00 0.  1.
</event>
<event>
 7    1  0.2412631E-010  0.1106521E+03  0.7561462E-02  0.1259367E+00
          2   -1    0    0  501    0  0.00000000000E+00  0.00000000000E+00  0.75747338450E+03  0.75747338450E+03  0.00000000000E+00 0. -1.
         -2   -1    0    0    0  501 -0.00000000000E+00 -0.00000000000E+00 -0.24139808707E+02  0.24139808707E+02  0.00000000000E+00 0.  1.
         25    2    1    2    0    0 -0.71159691204E+02 -0.20351965550E+01  0.33228907635E+03  0.36212958673E+03  0.12511580094E+03 0.  0.
          5    1    3    3  502    0 -0.31281289273E+02 -0.39923785606E+02  0.40135581713E+02  0.64813309090E+02  0.41800000000E+01 0.  1.
         -5    1    3    3    0  502 -0.39878401931E+02  0.37888589051E+02  0.29215349464E+03  0.29731627764E+03  0.41800000000E+01 0.  1.
        -11    1    1    2    0    0  0.47264231463E+02 -0.43235777391E+02  0.14727469130E+03  0.16060222514E+03  0.00000000000E+00 0.  1.
         11    1    1    2    0    0  0.23895459741E+02  0.45270973946E+02  0.25376980814E+03  0.25888138134E+03  0.00000000000E+00 0. -1.
</event>
<event>
 7    1  0.2412631E-010  0.1108410E+03  0.7561462E-02  0.1259020E+00
         -1   -1    0    0    0  501 -0.00000000000E+00  0.00000000000E+00  0.14829692287E+02  0.14829692287E+02  0.00000000000E+00 0.  1.
          1   -1    0    0  501    0  0.00000000000E+00 -0.00000000000E+00 -0.94616523376E+03  0.94616523376E+03  0.00000000000E+00 0. -1.
         25    2    1    2    0    0  0.32206107025E+02  0.33220239119E+02 -0.48563571198E+03  0.50362259860E+03  0.12511138816E+03 0.  0.
          5    1    3    3  502    0 -0.40792959612E+02  0.17431083592E+02 -0.84059822603E+02  0.95139026719E+02  0.41800000000E+01 0.  1.
         -5    1    3    3    0  502  0.72999066637E+02  0.15789155527E+02 -0.40157588938E+03  0.40848357188E+03  0.41800000000E+01 0.  1.
        -11    1    1    2    0    0 -0.13656435331E+02  0.31851823579E+02 -0.13359340522E+03  0.13801534266E+03  0.00000000000E+00 0.  1.
         11    1    1    2    0    0 -0.18549671694E+02 -0.65072062698E+02 -0.31210642427E+03  0.31935698479E+03  0.00000000000E+00 0. -1.
</event>
<event>
 7    1  0.2412631E-010  0.7480376E+02  0.7561462E-02  0.1344480E+00
          1   -1    0    0  501    0  0.00000000000E+00  0.00000000000E+00  0.81328585055E+03  0.81328585055E+03  0.00000000000E+00 0. -1.
         -1   -1    0    0    0  501 -0.00000000000E+00 -0.00000000000E+00 -0.21004712033E+02  0.21004712033E+02  0.00000000000E+00 0.  1.
         25    2    1    2    0    0 -0.13832256770E+02  0.11292607787E+02  0.66230980622E+03  0.67424817917E+03  0.12504988360E+03 0.  0.
          5    1    3    3  502    0 -0.23569313215E+02  0.40893500708E+02  0.95911586256E+02  0.10697801505E+03  0.41800000000E+01 0. -1.
         -5    1    3    3    0  502  0.97370564450E+01 -0.29600892920E+02  0.56639821996E+03  0.56727016413E+03  0.41800000000E+01 0. -1.
        -11    1    1    2    0    0  0.32702684723E+02 -0.29878472988E+02  0.23139618984E+02  0.49976301413E+02  0.00000000000E+00 0.  1.
         11    1    1    2    0    0 -0.18870427953E+02  0.18585865201E+02  0.10683171331E+03  0.11006608200E+03  0.00000000000E+00 0. -1.
</event>
<event>
 7    1  0.2412631E-010  0.1278949E+03  0.7561462E-02  0.1230613E+00
         -2   -1    0    0    0  501 -0.00000000000E+00  0.00000000000E+00  0.20644345598E+02  0.20644345598E+02  0.00000000000E+00 0.  1.
          2   -1    0    0  501    0  0.00000000000E+00 -0.00000000000E+00 -0.11866540969E+04  0.11866540969E+04  0.00000000000E+00 0. -1.
         25    2    1    2    0    0 -0.48107792985E+02  0.86085048920E+02 -0.86471726287E+03  0.87927138688E+03  0.12512886033E+03 0.  0.
          5    1    3    3  502    0 -0.71714288761E+02  0.64367215037E+02 -0.80988379541E+03  0.81560732712E+03  0.41800000000E+01 0.  1.
         -5    1    3    3    0  502  0.23606495776E+02  0.21717833882E+02 -0.54833467456E+02  0.63664059756E+02  0.41800000000E+01 0.  1.
        -11    1    1    2    0    0 -0.29104668561E+01 -0.74644846405E+02 -0.20906090353E+03  0.22200627311E+03  0.00000000000E+00 0.  1.
         11    1    1    2    0    0  0.51018259841E+02 -0.11440202515E+02 -0.92231584862E+02  0.10602078248E+03  0.00000000000E+00 0. -1.
</event>
<event>
 6    1  0.2412631E-010  0.1928496E+03  0.7561462E-02  0.1155916E+00
         -1   -1    0    0    0  501 -0.00000000000E+00  0.00000000000E+00  0.17179644762E+03  0.17179644762E+03  0.00000000000E+00 0.  1.
          1   -1    0    0  501    0  0.00000000000E+00 -0.00000000000E+00 -0.33190074290E+03  0.33190074290E+03  0.00000000000E+00 0. -1.
          5    1    1    2  502    0  0.28578579041E+02  0.77735923053E+02 -0.12707887771E+02  0.83896196127E+02  0.41800000000E+01 0.  1.
         -5    1    1    2    0  502  0.11555983480E+03  0.11539703091E+02  0.64955975383E+02  0.13313148127E+03  0.41800000000E+01 0.  1.
        -11    1    1    2    0    0 -0.60354308056E+02  0.48485491036E+01 -0.37781462543E+02  0.71369390086E+02  0.00000000000E+00 0.  1.
         11    1    1    2    0    0 -0.83784105790E+02 -0.94124175247E+02 -0.17457092035E+03  0.21530012304E+03  0.00000000000E+00 0. -1.
</event>
<event>
 7    1  0.2412631E-010  0.1247989E+03  0.7561462E-02  0.1235384E+00
         -3   -1    0    0    0  501 -0.00000000000E+00  0.00000000000E+00  0.39664584934E+03  0.39664584934E+03  0.00000000000E+00 0.  1.
          3   -1    0    0  501    0  0.00000000000E+00 -0.00000000000E+00 -0.49619852794E+02  0.49619852794E+02  0.00000000000E+00 0. -1.
         25    2    1    2    0    0  0.62851098533E+02 -0.60850244809E+02  0.21635631790E+03  0.26475814021E+03  0.12503520956E+03 0.  0.
          5    1    3    3  502    0  0.85074020721E+02 -0.53884840955E+02  0.21887180932E+03  0.24096370349E+03  0.41800000000E+01 0.  1.
         -5    1    3    3    0  502 -0.22222922188E+02 -0.69654038546E+01 -0.25154914192E+01  0.23794436714E+02  0.41800000000E+01 0.  1.
        -11    1    1    2    0    0  0.23046837709E+02  0.85633114498E+01  0.34495658266E+02  0.42360801109E+02  0.00000000000E+00 0.  1.
         11    1    1    2    0    0 -0.85897936242E+02  0.52286933359E+02  0.96174020383E+02  0.13914676082E+03  0.00000000000E+00 0. -1.
</event>
<event>
 7    1  0.2412631E-010  0.1296785E+03  0.7561462E-02  0.1227933E+00
          2   -1    0    0  501    0  0.00000000000E+00  0.00000000000E+00  0.27258078711E+03  0.27258078711E+03  0.00000000000E+00 0. -1.
         -2   -1    0    0    0  501 -0.00000000000E+00 -0.00000000000E+00 -0.13932834701E+03  0.13932834701E+03  0.00000000000E+00 0.  1.
         25    2    1    2    0    0  0.84831630690E+02 -0.47872744221E+02 -0.65769364844E+02  0.17162098068E+03  0.12505977152E+03 0.  0.
          5    1    3    3  502    0  0.56109720662E+01 -0.74266728339E+02 -0.36431379790E+02  0.83016551236E+02  0.41800000000E+01 0.  1.
         -5    1    3    3    0  502  0.79220658624E+02  0.26393984118E+02 -0.29337985054E+02  0.88604429446E+02  0.41800000000E+01 0.  1.
        -11    1    1    2    0    0 -0.57730738331E+02  0.17229201879E+02  0.18871914116E+03  0.19810249313E+03  0.00000000000E+00 0.  1.
         11    1    1    2    0    0 -0.27100892359E+02  0.30643542342E+02  0.10302663783E+02  0.42185660300E+02  0.00000000000E+00 0. -1.
</event>
<event>
 7    1  0.2412631E-010  0.1282358E+03  0.7561462E-02  0.1230097E+00
          2   -1    0    0  501    0  0.00000000000E+00  0.00000000000E+00  0.11355866092E+03  0.11355866092E+03  0.00000000000E+00 0. -1.
         -2   -1    0    0    0  501 -0.00000000000E+00 -0.00000000000E+00 -0.28941697601E+03  0.28941697601E+03  0.00000000000E+00 0.  1.
         25    2    1    2    0    0  0.51898777506E+02  0.97765489219E+02 -0.19648412687E+03  0.25787505149E+03  0.12506780594E+03 0.  0.
          5    1    3    3  502    0  0.30569499643E+02 -0.12308850851E+02 -0.11366537580E+03  0.11841998216E+03  0.41800000000E+01 0. -1.
         -5    1    3    3    0  502  0.21329277863E+02  0.11007434007E+03 -0.82818751064E+02  0.13945506934E+03  0.41800000000E+01 0. -1.
        -11    1    1    2    0    0 -0.27285828262E+01 -0.10906102879E+02 -0.30823341630E+02  0.32809550949E+02  0.00000000000E+00 0.  1.
         11    1    1    2    0    0 -0.49170194680E+02 -0.86859386340E+02  0.51449153408E+02  0.11229103449E+03  0.00000000000E+00 0. -1.
</event>
<event>
 6    1  0.2412631E-010  0.1571584E+03  0.7561462E-02  0.1191943E+00
          1   -1    0    0  501    0  0.00000000000E+00  0.00000000000E+00  0.35199344041E+03  0.35199344041E+03  0.00000000000E+00 0. -1.
         -1   -1    0    0    0  501 -0.00000000000E+00 -0.00000000000E+00 -0.98826102668E+02  0.98826102668E+02  0.00000000000E+00 0.  1.
          5    1    1    2  502    0 -0.32007406368E+02  0.45352200540E+02 -0.29928925455E+02  0.63202129197E+02  0.41800000000E+01 0. -1.
         -5    1    1    2    0  502 -0.85721265250E+02  0.37034520017E+02  0.10776561182E+03  0.14265549580E+03  0.41800000000E+01 0. -1.
        -11    1    1    2    0    0  0.50028987355E+02 -0.83646432412E+02  0.13377564898E+03  0.16551600977E+03  0.00000000000E+00 0.  1.
         11    1    1    2    0    0  0.67699684263E+02  0.12597118551E+01  0.41555002386E+02  0.79445908306E+02  0.00000000000E+00 0. -1.
</event>
<event>
 7    1  0.2412631E-010  0.1260884E+03  0.7561462E-02  0.1233378E+00
          1   -1    0    0  501    0  0.00000000000E+00  0.00000000000E+00  0.59811018639E+03  0.59811018639E+03  0.00000000000E+00 0.  1.
         -1   -1    0    0    0  501 -0.00000000000E+00 -0.00000000000E+00 -0.41801523555E+02  0.41801523555E+02  0.00000000000E+00 0. -1.
         25    2    1    2    0    0 -0.79426755423E+02  0.63944025073E+02  0.41244367525E+03  0.44290002205E+03  0.12511273500E+03 0.  0.
          5    1    3    3  502    0 -0.50810944665E+02 -0.12710415945E+02  0.29536835519E+03  0.30000540731E+03  0.41800000000E+01 0.  1.
         -5    1    3    3    0  502 -0.28615810759E+02  0.76654441018E+02  0.11707532006E+03  0.14289461474E+03  0.41800000000E+01 0.  1.
        -11    1    1    2    0    0 -0.17489858855E+01 -0.29454872382E+02  0.87498775900E+02  0.92340046798E+02  0.00000000000E+00 0.  1.
         11    1    1    2    0    0  0.81175741309E+02 -0.34489152691E+02  0.56366211688E+02  0.10467164110E+03  0.00000000000E+00 0. -1.
</event>
<event>
 6    1  0.2412631E-010  0.1762799E+03  0.7561462E-02  0.1171453E+00
          1   -1    0    0  501    0  0.00000000000E+00  0.00000000000E+00  0.58552010015E+02  0.58552010015E+02  0.00000000000E+00 0. -1.
         -1   -1    0    0    0  501 -0.00000000000E+00 -0.00000000000E+00 -0.70270063220E+03  0.70270063220E+03  0.00000000000E+00 0.  1.
          5    1    1    2  502    0 -0.75477170179E+01 -0.13750794117E+03 -0.36709994995E+03  0.39210361841E+03  0.41800000000E+01 0. -1.
         -5    1    1    2    0  502 -0.33720503022E+02 -0.26391397711E+02 -0.17985668589E+02  0.46631908301E+02  0.41800000000E+01 0. -1.
        -11    1    1    2    0    0  0.33660692637E+02  0.71300009720E+02 -0.19308397651E+03  0.20856211449E+03  0.00000000000E+00 0.  1.
         11    1    1    2    0    0  0.76075274026E+01  0.92599329164E+02 -0.65979027142E+02  0.11395500102E+03  0.00000000000E+00 0. -1.
</event>
<event>
 7    1  0.2412631E-010  0.1433301E+03  0.7561462E-02  0.1208917E+00
         -2   -1    0    0    0  501 -0.00000000000E+00  0.00000000000E+00  0.38981988134E+03  0.38981988134E+03  0.00000000000E+00 0. -1.
          2   -1    0    0  501    0  0.00000000000E+00 -0.00000000000E+00 -0.78007652486E+02  0.78007652486E+02  0.00000000000E+00 0.  1.
         25    2    1    2    0    0 -0.74468506332E+02  0.11434386500E+03  0.16073583861E+03  0.24513828574E+03  0.12504675694E+03 0.  0.
          5    1    3    3  502    0 -0.31096017732E+02  0.83736239010E+02  0.16905040620E+03  0.19124390782E+03  0.41800000000E+01 0.  1.
         -5    1    3    3    0  502 -0.43372488600E+02  0.30607625994E+02 -0.83145675970E+01  0.53894377913E+02  0.41800000000E+01 0.  1.
        -11    1    1    2    0    0  0.48325482943E+02 -0.10608418889E+03  0.67442797786E+02  0.13467642113E+03  0.00000000000E+00 0.  1.
         11    1    1    2    0    0  0.26143023389E+02 -0.82596761103E+01  0.83633592460E+02  0.88012826958E+02  0.00000000000E+00 0. -1.
</event>
<event>
 7    1  0.2412631E-010  0.1493546E+03  0.7561462E-02  0.1201268E+00
         -2   -1    0    0    0  501 -0.00000000000E+00  0.00000000000E+00  0.32193880620E+02  0.32193880620E+02  0.00000000000E+00 0.  1.
          2   -1    0    0  501    0  0.00000000000E+00 -0.00000000000E+00 -0.15026426915E+04  0.15026426915E+04  0.00000000000E+00 0. -1.
         25    2    1    2    0    0  0.73281719495E+01 -0.12959075238E+03 -0.12566135952E+04  0.12694717750E+04  0.12503357385E+03 0.  0.
          5    1    3    3  502    0  0.36963761000E+02 -0.14811839244E+01 -0.13072059482E+03  0.13591857799E+03  0.41800000000E+01 0. -1.
         -5    1    3    3    0  502 -0.29635589051E+02 -0.12810956846E+03 -0.11258930004E+04  0.11335531970E+04  0.41800000000E+01 0. -1.
        -11    1    1    2    0    0 -0.65777062827E+01  0.66195912283E+02 -0.34052976341E+02  0.74731320212E+02  0.00000000000E+00 0.  1.
         11    1    1    2    0    0 -0.75046566674E+00  0.63394840098E+02 -0.17978223937E+03  0.19063347697E+03  0.00000000000E+00 0. -1.
</event>
<event>
 7    1  0.2412631E-010  0.1714855E+03  0.7561462E-02  0.1176307E+00
         -2   -1    0    0    0  501 -0.00000000000E+00  0.00000000000E+00  0.42653193574E+02  0.42653193574E+02  0.00000000000E+00 0.  1.
          2   -1    0    0  501    0  0.00000000000E+00 -0.00000000000E+00 -0.17524201316E+04  0.17524201316E+04  0.00000000000E+00 0. -1.
         25    2    1    2    0    0  0.14069833217E+03  0.73468352840E+02 -0.15092005573E+04  0.15226693845E+04  0.12506843204E+03 0.  0.
          5    1    3    3  502    0  0.14967961892E+03  0.80186638899E+02 -0.10777559773E+04  0.10910587997E+04  0.41800000000E+01 0.  1.
         -5    1    3    3    0  502 -0.89812867412E+01 -0.67182860595E+01 -0.43144458003E+03  0.43161058480E+03  0.41800000000E+01 0.  1.
        -11    1    1    2    0    0 -0.26915491594E+02 -0.27343767891E+02 -0.11892550136E+03  0.12496159492E+03  0.00000000000E+00 0. -1.
         11    1    1    2    0    0 -0.11378284058E+03 -0.46124584949E+02 -0.81640879354E+02  0.14744234578E+03  0.00000000000E+00 0.  1.
</event>
<event>
 7    1  0.2412631E-010  0.1184785E+03  0.7561462E-02  0.1245628E+00
         -1   -1    0    0    0  501 -0.00000000000E+00  0.00000000000E+00  0.18691670981E+03  0.18691670981E+03  0.00000000000E+00 0.  1.
          1   -1    0    0  501    0  0.00000000000E+00 -0.00000000000E+00 -0.89721346654E+02  0.89721346654E+02  0.00000000000E+00 0. -1.
         25    2    1    2    0    0  0.56924319019E+02  0.25270488728E+02  0.17587559551E+02  0.14086506856E+03  0.12511862208E+03 0.  0.
          5    1    3    3  502    0 -0.32641967775E+02  0.27633979628E+02  0.26885341739E+02  0.50689534331E+02  0.41800000000E+01 0.  1.
         -5    1    3    3    0  502  0.89566286794E+02 -0.23634909000E+01 -0.92977821875E+01  0.90175534226E+02  0.41800000000E+01 0.  1.
        -11    1    1    2    0    0  0.90681576665E+01  0.21546761067E+02  0.38437866457E+02  0.44988487124E+02  0.00000000000E+00 0.  1.
         11    1    1    2    0    0 -0.65992476685E+02 -0.46817249795E+02  0.41169937147E+02  0.90784500781E+02  0.00000000000E+00 0. -1.
</event>
<event>
 7    1  0.2412631E-010  0.8740991E+02  0.7561462E-02  0.1309248E+00
         -2   -1    0    0    0  501 -0.00000000000E+00  0.00000000000E+00  0.12346054362E+03  0.12346054362E+03  0.00000000000E+00 0. -1.
          2   -1    0    0  501    0  0.00000000000E+00 -0.00000000000E+00 -0.10125070559E+03  0.10125070559E+03  0.00000000000E+00 0.  1.
         25    2    1    2    0    0  0.18054790504E+02 -0.16034218933E+02  0.81898951260E+01  0.12763318655E+03  0.12506032260E+03 0.  0.
          5    1    3    3  502    0  0.37611947495E+02  0.29822227190E+02  0.44681208674E+02  0.65710780223E+02  0.41800000000E+01 0.  1.
         -5    1    3    3    0  502 -0.19557156991E+02 -0.45856446123E+02 -0.36491313548E+02  0.61922406325E+02  0.41800000000E+01 0.  1.
        -11    1    1    2    0    0  0.13373855465E+02  0.36656401320E+02  0.36373037721E+02  0.53343693543E+02  0.00000000000E+00 0. -1.
         11    1    1    2    0    0 -0.31428645969E+02 -0.20622182387E+02 -0.22353094814E+02  0.43734369112E+02  0.00000000000E+00 0.  1.
</event>
<event>
 7    1  0.2412631E-010  0.1346013E+03  0.7561462E-02  0.1220784E+00
          2   -1    0    0  501    0  0.00000000000E+00  0.00000000000E+00  0.21733892564E+03  0.21733892564E+03  0.00000000000E+00 0. -1.
         -2   -1    0    0    0  501 -0.00000000000E+00 -0.00000000000E+00 -0.10148720632E+03  0.10148720632E+03  0.00000000000E+00 0.  1.
         25    2    1    2    0    0  0.60998387218E+02 -0.76867281413E+02  0.97704713428E+02  0.18663716122E+03  0.12513127798E+03 0.  0.
          5    1    3    3  502    0 -0.26401732453E+02 -0.35373823590E+02  0.75072492663E+02  0.87187788287E+02  0.41800000000E+01 0. -1.
         -5    1    3    3    0  502  0.87400119671E+02 -0.41493457824E+02  0.22632220765E+02  0.99449372936E+02  0.41800000000E+01 0. -1.
        -11    1    1    2    0    0  0.19237044676E+02  0.28351875825E+02 -0.73067755410E+01  0.35032580828E+02  0.00000000000E+00 0. -1.
         11    1    1    2    0    0 -0.80235431894E+02  0.48515405588E+02  0.25453781430E+02  0.97156389907E+02  0.00000000000E+00 0.  1.
</event>
<event>
 6    1  0.2412631E-010  0.9710700E+02  0.7561462E-02  0.1286500E+00
          1   -1    0    0  501    0  0.00000000000E+00  0.00000000000E+00  0.39535638537E+03  0.39535638537E+03  0.00000000000E+00 0. -1.
         -1   -1    0    0    0  501 -0.00000000000E+00 -0.00000000000E+00 -0.35107297111E+02  0.35107297111E+02  0.00000000000E+00 0.  1.
          5    1    1    2  502    0 -0.43820890442E+02 -0.33199513277E+02  0.33542782479E+02  0.64537344053E+02  0.41800000000E+01 0.  1.
         -5    1    1    2    0  502  0.49144802137E+02  0.37584887099E+02  0.10810011535E+03  0.12462320271E+03  0.41800000000E+01 0.  1.
        -11    1    1    2    0    0  0.17451617735E+02 -0.34882588677E+02  0.30856815765E+02  0.49734264180E+02  0.00000000000E+00 0.  1.
         11    1    1    2    0    0 -0.22775529430E+02  0.30497214855E+02  0.18774937467E+03  0.19156887154E+03  0.00000000000E+00 0. -1.
</event>
<event>
 7    1  0.2412631E-010  0.1185286E+03  0.7561462E-02  0.1245544E+00
         -2   -1    0    0    0  501 -0.00000000000E+00  0.00000000000E+00  0.14271328968E+03  0.14271328968E+03  0.00000000000E+00 0.  1.
          2   -1    0    0  501    0  0.00000000000E+00 -0.00000000000E+00 -0.11866678966E+03  0.11866678966E+03  0.00000000000E+00 0. -1.
         25    2    1    2    0    0  0.56805040036E+02 -0.22970562413E+01  0.58099690327E+02  0.14921300364E+03  0.12512736471E+03 0.  0.
          5    1    3    3  502    0  0.93669748226E+02 -0.19935695721E+02  0.46404568476E+02  0.10650028203E+03  0.41800000000E+01 0.  1.
         -5    1    3    3    0  502 -0.36864708190E+02  0.17638639480E+02  0.11695121851E+02  0.42712721614E+02  0.41800000000E+01 0.  1.
        -11    1    1    2    0    0 -0.76240973916E+02  0.13877286547E+02 -0.83765612286E+01  0.77945057339E+02  0.00000000000E+00 0.  1.
         11    1    1    2    0    0  0.19435933880E+02 -0.11580230306E+02 -0.25676629081E+02  0.34222018361E+02  0.00000000000E+00 0. -1.
</event>
<event>
 6    1  0.2412631E-010  0.8183799E+02  0.7561462E-02  0.1323915E+00
         -1   -1    0    0    0  501 -0.00000000000E+00  0.00000000000E+00  0.16328829396E+03  0.16328829396E+03  0.00000000000E+00 0.  1.
          1   -1    0    0  501    0  0.00000000000E+00 -0.00000000000E+00 -0.63407379459E+02  0.63407379459E+02  0.00000000000E+00 0. -1.
          5    1    1    2  502    0  0.17665537024E+02 -0.28708706367E+02 -0.63338097131E+01  0.34552142699E+02  0.41800000000E+01 0. -1.
         -5    1    1    2    0  502 -0.17269351447E+02  0.72096134973E+02  0.11369268215E+03  0.13579242082E+03  0.41800000000E+01 0. -1.
        -11    1    1    2    0    0 -0.15648425183E+02 -0.34302047660E+02 -0.81961416495E+01  0.38583421599E+02  0.00000000000E+00 0.  1.
         11    1    1    2    0    0  0.15252239605E+02 -0.90853809459E+01  0.71818371750E+00  0.17767688306E+02  0.00000000000E+00 0. -1.
</event>
<event>
 7    1  0.2412631E-010  0.1055591E+03  0.7561462E-02  0.1269022E+00
         -2   -1    0    0    0  501 -0.00000000000E+00  0.00000000000E+00  0.67697033167E+02  0.67697033167E+02  0.00000000000E+00 0.  1.
          2   -1    0    0  501    0  0.00000000000E+00 -0.00000000000E+00 -0.22597446253E+03  0.22597446253E+03  0.00000000000E+00 0. -1.
         25    2    1    2    0    0  0.18176256819E+02 -0.56625207655E+02 -0.80340599233E+02  0.16010517283E+03  0.12506903704E+03 0.  0.
          5    1    3    3  502    0  0.42750208503E+02 -0.75410673307E+02 -0.15522505005E+02  0.88163317413E+02  0.41800000000E+01 0.  1.
         -5    1    3    3    0  502 -0.24573951684E+02  0.18785465652E+02 -0.64818094228E+02  0.71941855415E+02  0.41800000000E+01 0.  1.
        -11    1    1    2    0    0 -0.37972015303E+02  0.61912654803E+02 -0.25015381912E+02  0.76816795710E+02  0.00000000000E+00 0.  1.
         11    1    1    2    0    0  0.19795758484E+02 -0.52874471483E+01 -0.52921448214E+02  0.56749527156E+02  0.00000000000E+00 0. -1.
</event>
<event>
 6    1  0.2412631E-010  0.1041550E+03  0.7561462E-02  0.1271793E+00
          2   -1    0    0  501    0  0.00000000000E+00  0.00000000000E+00  0.13496633840E+04  0.13496633840E+04  0.00000000000E+00 0.  1.
         -2   -1    0    0    0  501 -0.00000000000E+00 -0.00000000000E+00 -0.13331857174E+02  0.13331857174E+02  0.00000000000E+00 0. -1.
          5    1    1    2  502    0 -0.33324889784E+02  0.79906372901E+01  0.63309301803E+03  0.63403362721E+03  0.41800000000E+01 0.  1.
         -5    1    1    2    0  502  0.76215809664E+02 -0.23236630353E+02  0.42867675862E+03  0.43603901937E+03  0.41800000000E+01 0.  1.
        -11    1    1    2    0    0 -0.64359394556E+02  0.26684469413E+02  0.14228031025E+03  0.15842310204E+03  0.00000000000E+00 0. -1.
         11    1    1    2    0    0  0.21468474676E+02 -0.11438476350E+02  0.13228143998E+03  0.13449949260E+03  0.00000000000E+00 0.  1.
</event>
<event>
 6    1  0.2412631E-010  0.8155052E+02  0.7561462E-02  0.1324708E+00
         -2   -1    0    0    0  501 -0.00000000000E+00  0.00000000000E+00  0.22378940962E+02  0.22378940962E+02  0.00000000000E+00 0. -1.
          2   -1    0    0  501    0  0.00000000000E+00 -0.00000000000E+00 -0.64656264063E+03  0.64656264063E+03  0.00000000000E+00 0.  1.
          5    1    1    2  502    0  0.15588857216E+02 -0.45935481548E+02 -0.35823140983E+03  0.36152495948E+03  0.41800000000E+01 0. -1.
         -5    1    1    2    0  502  0.19298150849E+02  0.76176602856E+01  0.33288479799E+00  0.21166733019E+02  0.41800000000E+01 0. -1.
        -11    1    1    2    0    0 -0.54516017565E+02  0.52166758214E+01 -0.86401712947E+02  0.10229597195E+03  0.00000000000E+00 0. -1.
         11    1    1    2    0    0  0.19629009501E+02  0.33101145441E+02 -0.17988346168E+03  0.18395391714E+03  0.00000000000E+00 0.  1.
</event>
<event>
 7    1  0.2412631E-010  0.1413427E+03  0.7561462E-02  0.1211534E+00
          2   -1    0    0  501    0  0.00000000000E+00  0.00000000000E+00  0.41586753602E+03  0.41586753602E+03  0.00000000000E+00 0. -1.
         -2   -1    0    0    0  501 -0.00000000000E+00 -0.00000000000E+00 -0.51789326335E+02  0.51789326335E+02  0.00000000000E+00 0.  1.
         25    2    1    2    0    0  0.74867961411E+02  0.64348784443E+02  0.20551438761E+03  0.26004696664E+03  0.12506911544E+03 0.  0.
          5    1    3    3  502    0  0.93161841895E+02  0.93210675811E+01  0.86256970377E+02  0.12737247907E+03  0.41800000000E+01 0.  1.
         -5    1    3    3    0  502 -0.18293880484E+02  0.55027716862E+02  0.11925741723E+03  0.13267448757E+03  0.41800000000E+01 0.  1.
        -11    1    1    2    0    0 -0.51537274785E+02 -0.85174015842E+02  0.13807896723E+03  0.17022486557E+03  0.00000000000E+00 0. -1.
         11    1    1    2    0    0 -0.23330686626E+02  0.20825231399E+02  0.20484854850E+02  0.37385030152E+02  0.00000000000E+00 0.  1.
</event>
<event>
 6    1  0.2412631E-010  0.8010930E+02  0.7561462E-02  0.1328742E+00
         -1   -1    0    0    0  501 -0.00000000000E+00  0.00000000000E+00  0.15047375894E+02  0.15047375894E+02  0.00000000000E+00 0.  1.
          1   -1    0    0  501    0  0.00000000000E+00 -0.00000000000E+00 -0.83404013539E+03  0.83404013539E+03  0.00000000000E+00 0. -1.
          5    1    1    2  502    0 -0.43088286731E+02  0.18860013841E+02 -0.67058221055E+02  0.82015717923E+02  0.41800000000E+01 0. -1.
         -5    1    1    2    0  502  0.91558783095E+01 -0.21554910446E+02 -0.46310005204E+03  0.46371065857E+03  0.41800000000E+01 0. -1.
        -11    1    1    2    0    0  0.38212880979E+02 -0.34671806253E+02 -0.12432676994E+03  0.13460870754E+03  0.00000000000E+00 0.  1.
         11    1    1    2    0    0 -0.42804725581E+01  0.37366702859E+02 -0.16450771646E+03  0.16875242725E+03  0.00000000000E+00 0. -1.
</event>
<event>
 7    1  0.2412631E-010  0.1563924E+03  0.7561462E-02  0.1192831E+00
          2   -1    0    0  501    0  0.00000000000E+00  0.00000000000E+00  0.16284080652E+03  0.16284080652E+03  0.00000000000E+00 0. -1.
         -2   -1    0    0    0  501 -0.00000000000E+00 -0.00000000000E+00 -0.19042357187E+03  0.19042357187E+03  0.00000000000E+00 0.  1.
         25    2    1    2    0    0 -0.76050225245E+02  0.11336410103E+03 -0.39332542174E+02  0.18926282689E+03  0.12505323909E+03 0.  0.
          5    1    3    3  502    0 -0.29388829101E+02  0.95362437155E+02  0.29440413007E+02  0.10412448326E+03  0.41800000000E+01 0.  1.
         -5    1    3    3    0  502 -0.46661396144E+02  0.18001663875E+02 -0.68772955181E+02  0.85138343633E+02  0.41800000000E+01 0.  1.
        -11    1    1    2    0    0  0.16282014607E+02 -0.10020806927E+03 -0.81746070908E+00  0.10152551103E+03  0.00000000000E+00 0.  1.
         11    1    1    2    0    0  0.59768210637E+02 -0.13156031758E+02  0.12567237527E+02  0.62476040476E+02  0.00000000000E+00 0. -1.
</event>
<event>
 6    1  0.2412631E-010  0.9184905E+02  0.7561462E-02  0.1298435E+00
          1   -1    0    0  501    0  0.00000000000E+00  0.00000000000E+00  0.43481334297E+02  0.43481334297E+02  0.00000000000E+00 0. -1.
         -1   -1    0    0    0  501 -0.00000000000E+00 -0.00000000000E+00 -0.30622816441E+03  0.30622816441E+03  0.00000000000E+00 0.  1.
          5    1    1    2  502    0  0.27158870863E+02  0.50891406756E+02 -0.67765393261E+02  0.89090742908E+02  0.41800000000E+01 0. -1.
         -5    1    1    2    0  502 -0.15411289051E+02 -0.64456872114E+02 -0.12955996639E+03  0.14558658415E+03  0.41800000000E+01 0. -1.
        -11    1    1    2    0    0 -0.66158656906E+01 -0.22282169496E+02  0.14426118162E+02  0.27356491762E+02  0.00000000000E+00 0. -1.
         11    1    1    2    0    0 -0.51317161212E+01  0.35847634854E+02 -0.79847588628E+02  0.87675679892E+02  0.00000000000E+00 0.  1.
</event>
<event>
 6    1  0.2412631E-010  0.1063805E+03  0.7561462E-02  0.1267423E+00
         -2   -1    0    0    0  501 -0.00000000000E+00  0.00000000000E+00  0.12504335018E+03  0.12504335018E+03  0.00000000000E+00 0.  1.
          2   -1    0    0  501    0  0.00000000000E+00 -0.00000000000E+00 -0.12530147363E+03  0.12530147363E+03  0.00000000000E+00 0. -1.
          5    1    1    2  502    0  0.29782181615E+02 -0.67339687870E+02  0.17216836622E+02  0.75733108793E+02  0.41800000000E+01 0. -1.
         -5    1    1    2    0  502  0.12132759403E+02  0.35519854195E+02 -0.52286495871E+02  0.64499720490E+02  0.41800000000E+01 0. -1.
        -11    1    1    2    0    0  0.22282054477E+02  0.29546648109E+02  0.26104627528E+02  0.45287370696E+02  0.00000000000E+00 0.  1.
         11    1    1    2    0    0 -0.64196995495E+02  0.22731855663E+01  0.87069082704E+01  0.64824623831E+02  0.00000000000E+00 0. -1.
</event>
<event>
 6    1  0.2412631E-010  0.1303827E+03  0.7561462E-02  0.1226889E+00
         -2   -1    0    0    0  501 -0.00000000000E+00  0.00000000000E+00  0.77718656794E+03  0.77718656794E+03  0.00000000000E+00 0.  1.
          2   -1    0    0  501    0  0.00000000000E+00 -0.00000000000E+00 -0.34925320474E+02  0.34925320474E+02  0.00000000000E+00 0. -1.
          5    1    1    2  502    0 -0.57734329924E+02  0.43566152301E+02  0.42868456399E+03  0.43476337275E+03  0.41800000000E+01 0.  1.
         -5    1    1    2    0  502 -0.41367600897E+02  0.28269412386E+02  0.36222064588E+02  0.61967317544E+02  0.41800000000E+01 0.  1.
        -11    1    1    2    0    0  0.90645656364E+02 -0.83760545136E+02  0.27380736107E+03  0.30033803441E+03  0.00000000000E+00 0. -1.
         11    1    1    2    0    0  0.84562744559E+01  0.11924980449E+02  0.35472578185E+01  0.15043163710E+02  0.00000000000E+00 0.  1.
</event>
<event>
 7    1  0.2412631E-010  0.6796276E+02  0.7561462E-02  0.1367161E+00
          1   -1    0    0  501    0  0.00000000000E+00  0.00000000000E+00  0.98516596610E+02  0.98516596610E+02  0.00000000000E+00 0. -1.
         -1   -1    0    0    0  501 -0.00000000000E+00 -0.00000000000E+00 -0.13384935413E+03  0.13384935413E+03  0.00000000000E+00 0.  1.
         25    2    1    2    0    0 -0.25156632049E+01 -0.23272609286E+02 -0.52901289604E+02  0.13784615022E+03  0.12512022931E+03 0.  0.
          5    1    3    3  502    0  0.23265518111E+00  0.24919071714E+02 -0.78909329880E+02  0.82856315424E+02  0.41800000000E+01 0. -1.
         -5    1    3    3    0  502 -0.27483183860E+01 -0.48191681000E+02  0.26008040277E+02  0.54989834793E+02  0.41800000000E+01 0. -1.
        -11    1    1    2    0    0  0.24086080014E+02  0.31032341420E+02 -0.24722861062E+02  0.46415141102E+02  0.00000000000E+00 0.  1.
         11    1    1    2    0    0 -0.21570416809E+02 -0.77597321341E+01  0.42291393143E+02  0.48104659422E+02  0.00000000000E+00 0. -1.
</event>
<event>
 7    1  0.2412631E-010  0.9103902E+02  0.7561462E-02  0.1300355E+00
          2   -1    0    0  501    0  0.00000000000E+00  0.00000000000E+00  0.22301704354E+03  0.22301704354E+03  0.00000000000E+00 0. -1.
         -2   -1    0    0    0  501 -0.00000000000E+00 -0.00000000000E+00 -0.80318777133E+02  0.80318777133E+02  0.00000000000E+00 0.  1.
         25    2    1    2    0    0 -0.33353527557E+02 -0.63740498735E+02  0.11842029864E+03  0.18665535251E+03  0.12506616053E+03 0.  0.
          5    1    3    3  502    0 -0.30505190601E+02 -0.29316385532E+02 -0.17778782080E+02  0.46082259129E+02  0.41800000000E+01 0.  1.
         -5    1    3    3    0  502 -0.28483369567E+01 -0.34424113203E+02  0.13619908072E+03  0.14057309338E+03  0.41800000000E+01 0.  1.
        -11    1    1    2    0    0  0.53499360793E+02  0.65471125659E+02 -0.68914732661E+00  0.84552497446E+02  0.00000000000E+00 0.  1.
         11    1    1    2    0    0 -0.20145833236E+02 -0.17306269248E+01  0.24967115092E+02  0.32127970716E+02  0.00000000000E+00 0. -1.
</event>
<event>
 7    1  0.2412631E-010  0.1357119E+03  0.7561462E-02  0.1219218E+00
          1   -1    0    0  501    0  0.00000000000E+00  0.00000000000E+00  0.19002603308E+03  0.19002603308E+03  0.00000000000E+00 0. -1.
         -1   -1    0    0    0  501 -0.00000000000E+00 -0.00000000000E+00 -0.11256581926E+03  0.11256581926E+03  0.00000000000E+00 0.  1.
         25    2    1    2    0    0 -0.88969495217E+02 -0.15331151841E+02  0.37265202203E+01  0.15429219780E+03  0.12506630263E+03 0.  0.
          5    1    3    3  502    0 -0.34319539856E+01  0.44254865466E+02  0.19708051821E+02  0.48745780661E+02  0.41800000000E+01 0. -1.
         -5    1    3    3    0  502 -0.85537541231E+02 -0.59586017307E+02 -0.15981531601E+02  0.10554641714E+03  0.41800000000E+01 0. -1.
        -11    1    1    2    0    0  0.52496569800E+02 -0.32965482196E+02  0.14599806756E+02  0.63684905704E+02  0.00000000000E+00 0.  1.
         11    1    1    2    0    0  0.36472925417E+02  0.48296634037E+02  0.59133886841E+02  0.84614748836E+02  0.00000000000E+00 0. -1.
</event>
<event>
 6    1  0.2412631E-010  0.1080866E+03  0.7561462E-02  0.1264155E+00
          1   -1    0    0  501    0  0.00000000000E+00  0.00000000000E+00  0.21462158145E+03  0.21462158145E+03  0.00000000000E+00 0. -1.
         -1   -1    0    0    0  501 -0.00000000000E+00 -0.00000000000E+00 -0.96002217828E+02  0.96002217828E+02  0.00000000000E+00 0.  1.
          5    1    1    2  502    0 -0.86246178725E+01 -0.25579668994E+02 -0.48779074560E+02  0.55906833341E+02  0.41800000000E+01 0.  1.
         -5    1    1    2    0  502  0.84799999613E+01 -0.61348135712E+02  0.77345361498E+02  0.99172987754E+02  0.41800000000E+01 0.  1.
        -11    1    1    2    0    0 -0.44259547182E+02  0.25797710780E+02  0.38299837921E+02  0.63963325297E+02  0.00000000000E+00 0. -1.
         11    1    1    2    0    0  0.44404165094E+02  0.61130093926E+02  0.51753238766E+02  0.91580652890E+02  0.00000000000E+00 0.  1.
</event>
<event>
 6    1  0.2412631E-010  0.1263799E+03  0.7561462E-02  0.1232928E+00
         -2   -1    0    0    0  501 -0.00000000000E+00  0.00000000000E+00  0.27211317109E+02  0.27211317109E+02  0.00000000000E+00 0.  1.
          2   -1    0    0  501    0  0.00000000000E+00 -0.00000000000E+00 -0.76565290977E+03  0.76565290977E+03  0.00000000000E+00 0. -1.
          5    1    1    2  502    0 -0.69936591041E+02  0.31641451176E+02 -0.89613592829E+02  0.11806937206E+03  0.41800000000E+01 0.  1.
         -5    1    1    2    0  502 -0.21960734386E+02 -0.45221846940E+02 -0.25737790531E+03  0.26227494702E+03  0.41800000000E+01 0.  1.
        -11    1    1    2    0    0  0.80626723566E+02  0.44807128498E+02 -0.33031529695E+03  0.34295268291E+03  0.00000000000E+00 0.  1.
         11    1    1    2    0    0  0.11270601860E+02 -0.31226732734E+02 -0.61134797574E+02  0.69567224884E+02  0.00000000000E+00 0. -1.
</event>
<event>
 7    1  0.2412631E-010  0.1464978E+03  0.7561462E-02  0.1204844E+00
          3   -1    0    0  501    0  0.00000000000E+00  0.00000000000E+00  0.21112409040E+03  0.21112409040E+03  0.00000000000E+00 0. -1.
         -3   -1    0    0    0  501 -0.00000000000E+00 -0.00000000000E+00 -0.10721818343E+03  0.10721818343E+03  0.00000000000E+00 0.  1.
         25    2    1    2    0    0 -0.83733289209E+02 -0.55936291653E+02  0.86195111480E+02  0.18227258283E+03  0.12511420687E+03 0.  0.
          5    1    3    3  502    0  0.68191132001E+01 -0.67749657864E+02  0.46800423460E+02  0.82730094171E+02  0.41800000000E+01 0. -1.
         -5    1    3    3    0  502 -0.90552402409E+02  0.11813366211E+02  0.39394688020E+02  0.99542488654E+02  0.41800000000E+01 0. -1.
        -11    1    1    2    0    0  0.45188292578E+02  0.77115342729E+02  0.21490836385E+02  0.91927220772E+02  0.00000000000E+00 0.  1.
         11    1    1    2    0    0  0.38544996632E+02 -0.21179051076E+02 -0.37800408953E+01  0.44142470241E+02  0.00000000000E+00 0. -1.
</event>
<event>
 6    1  0.2412631E-010  0.1307523E+03  0.7561462E-02  0.1226344E+00
         -2   -1    0    0    0  501 -0.00000000000E+00  0.00000000000E+00  0.24719227199E+02  0.24719227199E+02  0.00000000000E+00 0.  1.
          2   -1    0    0  501    0  0.00000000000E+00 -0.00000000000E+00 -0.10696970455E+04  0.10696970455E+04  0.00000000000E+00 0. -1.
          5    1    1    2  502    0  0.58011590679E+02 -0.66825618089E+01 -0.47978921403E+03  0.48334787016E+03  0.41800000000E+01 0.  1.
         -5    1    1    2    0  502  0.30697267764E+02 -0.70168356247E+02 -0.13866721479E+03  0.15846762863E+03  0.41800000000E+01 0.  1.
        -11    1    1    2    0    0 -0.46859544364E+02  0.10838812959E+02 -0.55520876173E+02  0.73456548077E+02  0.00000000000E+00 0. -1.
         11    1    1    2    0    0 -0.41849314079E+02  0.66012105098E+02 -0.37100051332E+03  0.37914422584E+03  0.00000000000E+00 0.  1.
</event>
<event>
 7    1  0.2412631E-010  0.1227077E+03  0.7561462E-02  0.1238696E+00
         -1   -1    0    0    0  501 -0.00000000000E+00  0.00000000000E+00  0.28978173761E+02  0.28978173761E+02  0.00000000000E+00 0.  1.
          1   -1    0    0  501    0  0.00000000000E+00 -0.00000000000E+00 -0.67180732758E+03  0.67180732758E+03  0.00000000000E+00 0. -1.
         25    2    1    2    0    0  0.64637578096E+02  0.11828696472E+02 -0.48092697706E+03  0.50126061053E+03  0.12511397943E+03 0.  0.
          5    1    3    3  502    0 -0.74966441938E+01 -0.46522394519E+02 -0.13350233376E+03  0.14163643029E+03  0.41800000000E+01 0. -1.
         -5    1    3    3    0  502  0.72134222290E+02  0.58351090991E+02 -0.34742464330E+03  0.35962418025E+03  0.41800000000E+01 0. -1.
        -11    1    1    2    0    0  0.17732283786E+02  0.95415813821E+01 -0.75947596186E+02  0.78571706294E+02  0.00000000000E+00 0. -1.
         11    1    1    2    0    0 -0.82369861882E+02 -0.21370277854E+02 -0.85954580578E+02  0.12095318451E+03  0.00000000000E+00 0.  1.
</event>
<event>
 7    1  0.2412631E-010  0.1317787E+03  0.7561462E-02  0.1224840E+00
          1   -1    0    0  501    0  0.00000000000E+00  0.00000000000E+00  0.29848973780E+02  0.29848973780E+02  0.00000000000E+00 0. -1.
         -1   -1    0    0    0  501 -0.00000000000E+00 -0.00000000000E+00 -0.67461744084E+03  0.67461744084E+03  0.00000000000E+00 0.  1.
         25    2    1    2    0    0  0.53325755293E+02 -0.67617352747E+02 -0.28008711369E+03  0.31861773322E+03  0.12511085524E+03 0.  0.
          5    1    3    3  502    0  0.34764406220E+02  0.31250864746E+02 -0.12695184531E+03  0.13534926639E+03  0.41800000000E+01 0. -1.
         -5    1    3    3    0  502  0.18561349073E+02 -0.98868217493E+02 -0.15313526839E+03  0.18326846683E+03  0.41800000000E+01 0. -1.
        -11    1    1    2    0    0 -0.52614180656E+02  0.44836143391E+01 -0.24400544029E+03  0.24965377965E+03  0.00000000000E+00 0.  1.
         11    1    1    2    0    0 -0.71157463706E+00  0.63133738407E+02 -0.12067591307E+03  0.13619490174E+03  0.00000000000E+00 0. -1.
</event>
<event>
 6    1  0.2412631E-010  0.8962827E+02  0.7561462E-02  0.1303754E+00
         -1   -1    0    0    0  501 -0.00000000000E+00  0.00000000000E+00  0.23378396870E+02  0.23378396870E+02  0.00000000000E+00 0.  1.
          1   -1    0    0  501    0  0.00000000000E+00 -0.00000000000E+00 -0.71732396748E+03  0.71732396748E+03  0.00000000000E+00 0. -1.
          5    1    1    2  502    0  0.22858222501E+02  0.36474592059E+02 -0.49835277136E+02  0.65984251522E+02  0.41800000000E+01 0. -1.
         -5    1    1    2    0  502  0.34985709151E+02 -0.19559530015E+02 -0.48116877838E+03  0.48285343609E+03  0.41800000000E+01 0. -1.
        -11    1    1    2    0    0 -0.55841723502E+02 -0.42419510506E+02 -0.14354900090E+03  0.15976241302E+03  0.00000000000E+00 0.  1.
         11    1    1    2    0    0 -0.20022081499E+01  0.25504448462E+02 -0.19392514197E+02  0.32102263716E+02  0.00000000000E+00 0. -1.
</event>
<event>
 7    1  0.2412631E-010  0.1012209E+03  0.7561462E-02  0.1277749E+00
         -2   -1    0    0    0  501 -0.00000000000E+00  0.00000000000E+00  0.32745056377E+03  0.32745056377E+03  0.00000000000E+00 0.  1.
          2   -1    0    0  501    0  0.00000000000E+00 -0.00000000000E+00 -0.42814576817E+02  0.42814576817E+02  0.00000000000E+00 0. -1.
         25    2    1    2    0    0 -0.11332338478E+02 -0.14095860803E+02  0.22932646172E+03  0.26183734414E+03  0.12506419775E+03 0.  0.
          5    1    3    3  502    0 -0.37701528416E+02  0.38911852318E+02  0.16766982843E+03  0.17625601057E+03  0.41800000000E+01 0.  1.
         -5    1    3    3    0  502  0.26369189938E+02 -0.53007713121E+02  0.61656633281E+02  0.85581333571E+02  0.41800000000E+01 0.  1.
        -11    1    1    2    0    0 -0.97329633033E+01 -0.34466401346E+02  0.39198534609E+02  0.53096031037E+02  0.00000000000E+00 0.  1.
         11    1    1    2    0    0  0.21065301781E+02  0.48562262148E+02  0.16110990631E+02  0.55331765408E+02  0.00000000000E+00 0. -1.
</event>
<event>
 7    1  0.2412631E-010  0.1203198E+03  0.7561462E-02  0.1242570E+00
         -1   -1    0    0    0  501 -0.00000000000E+00  0.00000000000E+00  0.71797491189E+02  0.71797491189E+02  0.00000000000E+00 0.  1.
          1   -1    0    0  501    0  0.00000000000E+00 -0.00000000000E+00 -0.23128323481E+03  0.23128323481E+03  0.00000000000E+00 0. -1.
         25    2    1    2    0    0  0.38307244420E+02  0.45709203227E+02 -0.39234978636E+02  0.14400861954E+03  0.12506927168E+03 0.  0.
          5    1    3    3  502    0 -0.22589544490E+02  0.67808235199E+02 -0.82249116721E+01  0.72065011296E+02  0.41800000000E+01 0. -1.
         -5    1    3    3    0  502  0.60896788909E+02 -0.22099031973E+02 -0.31010066964E+02  0.71943608241E+02  0.41800000000E+01 0. -1.
        -11    1    1    2    0    0 -0.65089870568E+02 -0.23064234769E+02 -0.80466456168E+02  0.10603537497E+03  0.00000000000E+00 0. -1.
         11    1    1    2    0    0  0.26782626148E+02 -0.22644968457E+02 -0.39784308821E+02  0.53036731500E+02  0.00000000000E+00 0.  1.
</event>
<event>
 7    1  0.2412631E-010  0.1488593E+03  0.7561462E-02  0.1201882E+00
          2   -1    0    0  501    0  0.00000000000E+00  0.00000000000E+00  0.39559696256E+03  0.39559696256E+03  0.00000000000E+00 0.  1.
         -2   -1    0    0    0  501 -0.00000000000E+00 -0.00000000000E+00 -0.71552542548E+02  0.71552542548E+02  0.00000000000E+00 0. -1.
         25    2    1    2    0    0  0.81736247709E+02  0.69593676555E+02  0.26724686232E+03  0.31398203869E+03  0.12505895087E+03 0.  0.
          5    1    3    3  502    0 -0.26530879807E+02 -0.11604593163E+02  0.52935397984E+02  0.60482914328E+02  0.41800000000E+01 0. -1.
         -5    1    3    3    0  502  0.10826712752E+03  0.81198269718E+02  0.21431146434E+03  0.25349912436E+03  0.41800000000E+01 0. -1.
        -11    1    1    2    0    0 -0.48035398192E+02  0.77871388935E+01 -0.44788849628E+01  0.48868184150E+02  0.00000000000E+00 0. -1.
         11    1    1    2    0    0 -0.33700849517E+02 -0.77380815448E+02  0.61276442658E+02  0.10429928227E+03  0.00000000000E+00 0.  1.
</event>
<event>
 7    1  0.2412631E-010  0.1132903E+03  0.7561462E-02  0.1254595E+00
         -1   -1    0    0    0  501 -0.00000000000E+00  0.00000000000E+00  0.29071052931E+02  0.29071052931E+02  0.00000000000E+00 0.  1.
          1   -1    0    0  501    0  0.00000000000E+00 -0.00000000000E+00 -0.65013085643E+03  0.65013085643E+03  0.00000000000E+00 0. -1.
         25    2    1    2    0    0  0.48857560800E+02 -0.67793718311E+02 -0.36532304436E+03  0.39509886894E+03  0.12513648552E+03 0.  0.
          5    1    3    3  502    0  0.84821874118E+02 -0.29107412633E+02 -0.28556991045E+03  0.29934868958E+03  0.41800000000E+01 0. -1.
         -5    1    3    3    0  502 -0.35964313318E+02 -0.38686305678E+02 -0.79753133913E+02  0.95750179365E+02  0.41800000000E+01 0. -1.
        -11    1    1    2    0    0 -0.33313092802E+02  0.51191436739E+02 -0.25405945802E+03  0.26129778713E+03  0.00000000000E+00 0. -1.
         11    1    1    2    0    0 -0.15544467998E+02  0.16602281572E+02 -0.16773011197E+01  0.22805253294E+02  0.00000000000E+00 0.  1.
</event>
<event>
 6    1  0.2412631E-010  0.9041588E+02  0.7561462E-02  0.1301848E+00
         -1   -1    0    0    0  501 -0.00000000000E+00  0.00000000000E+00  0.76605747910E+02  0.76605747910E+02  0.00000000000E+00 0.  1.
          1   -1    0    0  501    0  0.00000000000E+00 -0.00000000000E+00 -0.22042061974E+03  0.22042061974E+03  0.00000000000E+00 0. -1.
          5    1    1    2  502    0  0.14840454398E+02 -0.19998423833E+02 -0.12428204592E+03  0.12682143108E+03  0.41800000000E+01 0. -1.
         -5    1    1    2    0  502  0.24589242485E+02  0.53960240865E+02 -0.37994098991E+01  0.59567158366E+02  0.41800000000E+01 0. -1.
        -11    1    1    2    0    0  0.21093645295E+02 -0.28370836138E+02 -0.32035309512E+02  0.47708566008E+02  0.00000000000E+00 0.  1.
         11    1    1    2    0    0 -0.60523342179E+02 -0.55909808940E+01  0.16301893504E+02  0.62929212196E+02  0.00000000000E+00 0. -1.
</event>
<event>
 7    1  0.2412631E-010  0.1328804E+03  0.7561462E-02  0.1223243E+00
          4   -1    0    0  501    0  0.00000000000E+00  0.00000000000E+00  0.11803797211E+03  0.11803797211E+03  0.00000000000E+00 0. -1.
         -4   -1    0    0    0  501 -0.00000000000E+00 -0.00000000000E+00 -0.21447118371E+03  0.21447118371E+03  0.00000000000E+00 0.  1.
         25    2    1    2    0    0  0.30382214680E+02 -0.10599119594E+03 -0.46776542230E+02  0.17319949177E+03  0.12511117641E+03 0.  0.
          5    1    3    3  502    0  0.10991420958E+02  0.21937747927E+02 -0.35356307682E+02  0.43239068118E+02  0.41800000000E+01 0. -1.
         -5    1    3    3    0  502  0.19390793722E+02 -0.12792894386E+03 -0.11420234548E+02  0.12996042365E+03  0.41800000000E+01 0. -1.
        -11    1    1    2    0    0 -0.12216293728E+02  0.70411624646E+02 -0.81375072126E+02  0.10830021736E+03  0.00000000000E+00 0.  1.
         11    1    1    2    0    0 -0.18165920952E+02  0.35579571291E+02  0.31718402759E+02  0.51009446682E+02  0.00000000000E+00 0. -1.
</event>
<event>
 7    1  0.2412631E-010  0.3550741E+03  0.7561462E-02  0.1060551E+00
         -2   -1    0    0    0  501 -0.00000000000E+00  0.00000000000E+00  0.70748205418E+02  0.70748205418E+02  0.00000000000E+00 0. -1.
          2   -1    0    0  501    0  0.00000000000E+00 -0.00000000000E+00 -0.19648257397E+04  0.19648257397E+04  0.00000000000E+00 0.  1.
         25    2    1    2    0    0 -0.70755906623E+02  0.34514094041E+03 -0.11055599945E+04  0.11670619345E+04  0.12506794307E+03 0.  0.
          5    1    3    3  502    0 -0.33918188482E+02  0.21200763221E+03 -0.47126089814E+03  0.51788221261E+03  0.41800000000E+01 0. -1.
         -5    1    3    3    0  502 -0.36837718141E+02  0.13313330820E+03 -0.63429909635E+03  0.64917972185E+03  0.41800000000E+01 0. -1.
        -11    1    1    2    0    0  0.76917815096E+02 -0.24310678457E+03 -0.48032997518E+03  0.54381443898E+03  0.00000000000E+00 0. -1.
         11    1    1    2    0    0 -0.61619084722E+01 -0.10203415583E+03 -0.30818756465E+03  0.32469757172E+03  0.00000000000E+00 0.  1.
</event>
<event>
 6    1  0.2412631E-010  0.1333909E+03  0.7561462E-02  0.1222509E+00
          1   -1    0    0  501    0  0.00000000000E+00  0.00000000000E+00  0.44542694648E+03  0.44542694648E+03  0.00000000000E+00 0. -1.
         -1   -1    0    0    0  501 -0.00000000000E+00 -0.00000000000E+00 -0.41530981628E+02  0.41530981628E+02  0.00000000000E+00 0.  1.
          5    1    1    2  502    0 -0.36158317198E+02 -0.25243487111E+02  0.53601609890E+02  0.69536051994E+02  0.41800000000E+01 0.  1.
         -5    1    1    2    0  502  0.97671599178E+01  0.10476462913E+03  0.17569260976E+03  0.20483259129E+03  0.41800000000E+01 0.  1.
        -11    1    1    2    0    0 -0.29704760359E+02 -0.32035670344E+02  0.40022292555E+02  0.59248973524E+02  0.00000000000E+00 0.  1.
         11    1    1    2    0    0  0.56095917639E+02 -0.47485471672E+02  0.13457945265E+03  0.15334031130E+03  0.00000000000E+00 0. -1.
</event>
<event>
 7    1  0.2412631E-010  0.1017593E+03  0.7561462E-02  0.1276639E+00
         -2   -1    0    0    0  501 -0.00000000000E+00  0.00000000000E+00  0.25008735741E+02  0.25008735741E+02  0.00000000000E+00 0.  1.
          2   -1    0    0  501    0  0.00000000000E+00 -0.00000000000E+00 -0.62731020464E+03  0.62731020464E+03  0.00000000000E+00 0. -1.
         25    2    1    2    0    0  0.56662102574E+02 -0.24027116274E+02 -0.31310181704E+03  0.34272648488E+03  0.12506318170E+03 0.  0.
          5    1    3    3  502    0 -0.19368593781E+01 -0.53151949390E+02 -0.55800043185E+02  0.77201025690E+02  0.41800000000E+01 0.  1.
         -5    1    3    3    0  502  0.58598961952E+02  0.29124833115E+02 -0.25730177386E+03  0.26552545919E+03  0.41800000000E+01 0.  1.
        -11    1    1    2    0    0  0.53180615834E+01  0.21946140532E+02 -0.12061834782E+02  0.25600834392E+02  0.00000000000E+00 0.  1.
         11    1    1    2    0    0 -0.61980164158E+02  0.20809757427E+01 -0.27713781707E+03  0.28399162111E+03  0.00000000000E+00 0. -1.
</event>
<event>
 6    1  0.2412631E-010  0.9815680E+02  0.7561462E-02  0.1284220E+00
          4   -1    0    0  501    0  0.00000000000E+00  0.00000000000E+00  0.51582694500E+03  0.51582694500E+03  0.00000000000E+00 0. -1.
         -4   -1    0    0    0  501 -0.00000000000E+00 -0.00000000000E+00 -0.21107703212E+02  0.21107703212E+02  0.00000000000E+00 0.  1.
          5    1    1    2  502    0  0.55658345892E+00 -0.48433459592E+02  0.19750164606E+03  0.20339735099E+03  0.41800000000E+01 0.  1.
         -5    1    1    2    0  502  0.16425478803E+02  0.69215643714E+02  0.13135745720E+03  0.14944181360E+03  0.41800000000E+01 0.  1.
        -11    1    1    2    0    0  0.76132346929E+01 -0.42771933335E+02  0.66789665064E+02  0.79675962392E+02  0.00000000000E+00 0.  1.
         11    1    1    2    0    0 -0.24595296955E+02  0.21989749213E+02  0.99070473463E+02  0.10441952124E+03  0.00000000000E+00 0. -1.
</event>
<event>
 7    1  0.2412631E-010  0.1098116E+03  0.7561462E-02  0.1260919E+00
         -2   -1    0    0    0  501 -0.00000000000E+00  0.00000000000E+00  0.37961009932E+03  0.37961009932E+03  0.00000000000E+00 0. -1.
          2   -1    0    0  501    0  0.00000000000E+00 -0.00000000000E+00 -0.36579509188E+02  0.36579509188E+02  0.00000000000E+00 0.  1.
         25    2    1    2    0    0 -0.15830894873E+01  0.39279069723E+02  0.15175162374E+03  0.20053320090E+03  0.12505861772E+03 0.  0.
          5    1    3    3  502    0  0.29666508146E+02 -0.37511250479E+02  0.58873976167E+02  0.75965867913E+02  0.41800000000E+01 0.  1.
         -5    1    3    3    0  502 -0.31249597633E+02  0.76790320202E+02  0.92877647573E+02  0.12456733299E+03  0.41800000000E+01 0.  1.
        -11    1    1    2    0    0  0.15815741346E+02  0.21214008026E+02  0.11113262452E+03  0.11423936293E+03  0.00000000000E+00 0. -1.
         11    1    1    2    0    0 -0.14232651859E+02 -0.60493077749E+02  0.80146341869E+02  0.10141704467E+03  0.00000000000E+00 0.  1.
</event>
<event>
 6    1  0.2412631E-010  0.1162281E+03  0.7561462E-02  0.1249452E+00
         -2   -1    0    0    0  501 -0.00000000000E+00  0.00000000000E+00  0.26139576129E+03  0.26139576129E+03  0.00000000000E+00 0. -1.
          2   -1    0    0  501    0  0.00000000000E+00 -0.00000000000E+00 -0.89243730039E+02  0.89243730039E+02  0.00000000000E+00 0.  1.
          5    1    1    2  502    0 -0.11055926660E+02  0.13833374062E+02  0.10086206193E+03  0.10249011508E+03  0.41800000000E+01 0. -1.
         -5    1    1    2    0  502 -0.40658804743E+02  0.79907547931E+02 -0.15137357903E+01  0.89767022984E+02  0.41800000000E+01 0. -1.
        -11    1    1    2    0    0 -0.12372631700E+02 -0.36635698509E+02  0.60306928448E+02  0.71639249293E+02  0.00000000000E+00 0. -1.
         11    1    1    2    0    0  0.64087363103E+02 -0.57105223484E+02  0.12496776655E+02  0.86743103964E+02  0.00000000000E+00 0.  1.
</event>
<event>
 7    1  0.2412631E-010  0.6413973E+02  0.7561462E-02  0.1381237E+00
          1   -1    0    0  501    0  0.00000000000E+00  0.00000000000E+00  0.76187938523E+02  0.76187938523E+02  0.00000000000E+00 0. -1.
         -1   -1    0    0    0  501 -0.00000000000E+00 -0.00000000000E+00 -0.17697738614E+03  0.17697738614E+03  0.00000000000E+00 0.  1.
         25    2    1    2    0    0 -0.15573624993E+02  0.26435323878E+02 -0.95528302443E+02  0.16038063905E+03  0.12511965741E+03 0.  0.
          5    1    3    3  502    0 -0.16326032860E+01  0.19216333908E+02 -0.12509640194E+03  0.12664325904E+03  0.41800000000E+01 0. -1.
         -5    1    3    3    0  502 -0.13941021707E+02  0.72189899704E+01  0.29568099494E+02  0.33737380013E+02  0.41800000000E+01 0. -1.
        -11    1    1    2    0    0  0.48060520697E+02 -0.34090257399E+02  0.43835535962E+00  0.58924964612E+02  0.00000000000E+00 0. -1.
         11    1    1    2    0    0 -0.32486895703E+02  0.76549335208E+01 -0.56995005292E+01  0.33859720996E+02  0.00000000000E+00 0.  1.
</event>
<event>
 6    1  0.2412631E-010  0.1507260E+03  0.7561462E-02  0.1199584E+00
         -1   -1    0    0    0  501 -0.00000000000E+00  0.00000000000E+00  0.82703563516E+02  0.82703563516E+02  0.00000000000E+00 0.  1.
          1   -1    0    0  501    0  0.00000000000E+00 -0.00000000000E+00 -0.38200770675E+03  0.38200770675E+03  0.00000000000E+00 0. -1.
          5    1    1    2  502    0  0.22646174218E+02 -0.86664916168E+02 -0.17663852305E+02  0.91395519471E+02  0.41800000000E+01 0.  1.
         -5    1    1    2    0  502  0.72014125835E+02  0.27120836770E+02 -0.28913751819E+02  0.82310701316E+02  0.41800000000E+01 0.  1.
        -11    1    1    2    0    0 -0.66163484073E+02 -0.27407166884E+01 -0.72442045783E+02  0.98147685403E+02  0.00000000000E+00 0.  1.
         11    1    1    2    0    0 -0.28496815980E+02  0.62284796086E+02 -0.18028449333E+03  0.19285736408E+03  0.00000000000E+00 0. -1.
</event>
<event>
 6    1  0.2412631E-010  0.7657202E+02  0.7561462E-02  0.1339071E+00
          2   -1    0    0  501    0  0.00000000000E+00  0.00000000000E+00  0.46138509638E+02  0.46138509638E+02  0.00000000000E+00 0. -1.
         -2   -1    0    0    0  501 -0.00000000000E+00 -0.00000000000E+00 -0.27472986760E+03  0.27472986760E+03  0.00000000000E+00 0.  1.
          5    1    1    2  502    0  0.44322764840E+02 -0.47570507699E+01 -0.17717020436E+03  0.18273995383E+03  0.41800000000E+01 0.  1.
         -5    1    1    2    0  502 -0.16622836198E+02  0.10911142616E+01  0.15886495734E+02  0.23395776549E+02  0.41800000000E+01 0.  1.
        -11    1    1    2    0    0 -0.33298565537E+02  0.41354416729E+02 -0.28143051792E+02  0.60091710027E+02  0.00000000000E+00 0. -1.
         11    1    1    2    0    0  0.55986368955E+01 -0.37688480221E+02 -0.39164597547E+02  0.54640936828E+02  0.00000000000E+00 0.  1.
</event>
<event>
 7    1  0.2412631E-010  0.1271556E+03  0.7561462E-02  0.1231738E+00
          2   -1    0    0  501    0  0.00000000000E+00  0.00000000000E+00  0.47581196970E+03  0.47581196970E+03  0.00000000000E+00 0. -1.
         -2   -1    0    0    0  501 -0.00000000000E+00 -0.00000000000E+00 -0.36378074195E+02  0.36378074195E+02  0.00000000000E+00 0.  1.
         25    2    1    2    0    0 -0.56133106782E+02  0.38690622125E+02  0.18468055095E+03  0.23326917908E+03  0.12513877933E+03 0.  0.
          5    1    3    3  502    0 -0.61151771658E+02  0.79591336650E+02  0.12047362827E+03  0.15686200163E+03  0.41800000000E+01 0. -1.
         -5    1    3    3    0  502  0.50186648768E+01 -0.40900714524E+02  0.64206922677E+02  0.76407177447E+02  0.41800000000E+01 0. -1.
        -11    1    1    2    0    0 -0.24218948068E+02 -0.26292347677E+01  0.40363024370E+02  0.47144926103E+02  0.00000000000E+00 0.  1.
         11    1    1    2    0    0  0.80352054850E+02 -0.36061387358E+02  0.21439032019E+03  0.23177593871E+03  0.00000000000E+00 0. -1.
</event>
<event>
 7    1  0.2412631E-010  0.1279810E+03  0.7561462E-02  0.1230483E+00
          1   -1    0    0  501    0  0.00000000000E+00  0.00000000000E+00  0.41164184007E+03  0.41164184007E+03  0.00000000000E+00 0. -1.
         -1   -1    0    0    0  501 -0.00000000000E+00 -0.00000000000E+00 -0.62333646095E+02  0.62333646095E+02  0.00000000000E+00 0.  1.
         25    2    1    2    0    0 -0.31843852834E+02 -0.79768363004E+02  0.30971374148E+03  0.34487726834E+03  0.12506280767E+03 0.  0.
          5    1    3    3  502    0 -0.33536520421E+02  0.19848642512E+02  0.16186774504E+03  0.16654520736E+03  0.41800000000E+01 0.  1.
         -5    1    3    3    0  502  0.16926675865E+01 -0.99617005517E+02  0.14784599644E+03  0.17833206098E+03  0.41800000000E+01 0.  1.
        -11    1    1    2    0    0 -0.20415339723E+02  0.56064176738E+02  0.39785926658E+02  0.71714001209E+02  0.00000000000E+00 0. -1.
         11    1    1    2    0    0  0.52259192557E+02  0.23704186266E+02 -0.19147416339E+00  0.57384216607E+02  0.00000000000E+00 0.  1.
</event>
<event>
 7    1  0.2412631E-010  0.1065934E+03  0.7561462E-02  0.1267012E+00
         -1   -1    0    0    0  501 -0.00000000000E+00  0.00000000000E+00  0.36475386073E+02  0.36475386073E+02  0.00000000000E+00 0.  1.
          1   -1    0    0  501    0  0.00000000000E+00 -0.00000000000E+00 -0.35020602282E+03  0.35020602282E+03  0.00000000000E+00 0. -1.
         25    2    1    2    0    0 -0.17251445244E+02 -0.19264472532E+02 -0.14493640022E+03  0.19320596270E+03  0.12511295557E+03 0.  0.
          5    1    3    3  502    0  0.35061645435E+02  0.31222908561E+02 -0.26227035438E+02  0.53939955390E+02  0.41800000000E+01 0. -1.
         -5    1    3    3    0  502 -0.52313090678E+02 -0.50487381094E+02 -0.11870936478E+03  0.13926600731E+03  0.41800000000E+01 0. -1.
        -11    1    1    2    0    0  0.54152259315E+02  0.14199890474E+02 -0.85047301853E+02  0.10181919088E+03  0.00000000000E+00 0.  1.
         11    1    1    2    0    0 -0.36900814071E+02  0.50645820585E+01 -0.83746934677E+02  0.91656255315E+02  0.00000000000E+00 0. -1.
</event>
<event>
 7    1  0.2412631E-010  0.1308984E+03  0.7561462E-02  0.1226129E+00
          1   -1    0    0  501    0  0.00000000000E+00  0.00000000000E+00  0.26016886876E+03  0.26016886876E+03  0.00000000000E+00 0. -1.
         -1   -1    0    0    0  501 -0.00000000000E+00 -0.00000000000E+00 -0.11799266940E+03  0.11799266940E+03  0.00000000000E+00 0.  1.
         25    2    1    2    0    0 -0.51213661352E+02  0.10299057624E+03 -0.54698277868E+01  0.17004796235E+03  0.12512590691E+03 0.  0.
          5    1    3    3  502    0 -0.38724099093E+02 -0.33445393638E+01 -0.41492167043E+02  0.57007140956E+02  0.41800000000E+01 0. -1.
         -5    1    3    3    0  502 -0.12489562259E+02  0.10633511560E+03  0.36022339256E+02  0.11304082139E+03  0.41800000000E+01 0. -1.
        -11    1    1    2    0    0  0.36064975356E+02 -0.60349121020E+02  0.14689813751E+03  0.16285503265E+03  0.00000000000E+00 0. -1.
         11    1    1    2    0    0  0.15148685996E+02 -0.42641455218E+02  0.74788963898E+00  0.45258543165E+02  0.00000000000E+00 0.  1.
</event>
<event>
 7    1  0.2412631E-010  0.1084706E+03  0.7561462E-02  0.1263429E+00
          2   -1    0    0  501    0  0.00000000000E+00  0.00000000000E+00  0.45788269198E+03  0.45788269198E+03  0.00000000000E+00 0. -1.
         -2   -1    0    0    0  501 -0.00000000000E+00 -0.00000000000E+00 -0.46506747798E+02  0.46506747798E+02  0.00000000000E+00 0.  1.
         25    2    1    2    0    0 -0.20397568833E+02 -0.34140218899E+02  0.37771785645E+03  0.39988294797E+03  0.12511585685E+03 0.  0.
          5    1    3    3  502    0  0.38321164844E+02 -0.43808448302E+02  0.99568706913E+02  0.11540836891E+03  0.41800000000E+01 0.  1.
         -5    1    3    3    0  502 -0.58718733678E+02  0.96682294022E+01  0.27814914954E+03  0.28447457906E+03  0.41800000000E+01 0.  1.
        -11    1    1    2    0    0  0.43388159260E+02 -0.13993430663E+02  0.16117331746E+02  0.48354077887E+02  0.00000000000E+00 0. -1.
         11    1    1    2    0    0 -0.22990590427E+02  0.48133649562E+02  0.17540755982E+02  0.56152413918E+02  0.00000000000E+00 0.  1.
</event>
<event>
 7    1  0.2412631E-010  0.1270168E+03  0.7561462E-02  0.1231951E+00
          1   -1    0    0  501    0  0.00000000000E+00  0.00000000000E+00  0.37208719308E+02  0.37208719308E+02  0.00000000000E+00 0. -1.
         -1   -1    0    0    0  501 -0.00000000000E+00 -0.00000000000E+00 -0.65683035720E+03  0.65683035720E+03  0.00000000000E+00 0.  1.
         25    2    1    2    0    0 -0.15336806109E+02 -0.84535107490E+02 -0.49420371084E+03  0.51698370027E+03  0.12511369436E+03 0.  0.
          5    1    3    3  502    0 -0.27500411318E+02  0.23327368593E+02 -0.20212764149E+03  0.20536186258E+03  0.41800000000E+01 0. -1.
         -5    1    3    3    0  502  0.12163605209E+02 -0.10786247608E+03 -0.29207606935E+03  0.31162183769E+03  0.41800000000E+01 0. -1.
        -11    1    1    2    0    0 -0.62120453560E+01  0.87173167928E+02 -0.12821403095E+03  0.15516632511E+03  0.00000000000E+00 0.  1.
         11    1    1    2    0    0  0.21548851465E+02 -0.26380604378E+01  0.27961039018E+01  0.21889051129E+02  0.00000000000E+00 0. -1.
</event>
<event>
 7    1  0.2412631E-010  0.6444311E+02  0.7561462E-02  0.1380079E+00
          1   -1    0    0  501    0  0.00000000000E+00  0.00000000000E+00  0.23461196462E+02  0.23461196462E+02  0.00000000000E+00 0. -1.
         -1   -1    0    0    0  501 -0.00000000000E+00 -0.00000000000E+00 -0.55958834653E+03  0.55958834653E+03  0.00000000000E+00 0.  1.
         25    2    1    2    0    0 -0.25743510482E+02  0.48369332322E+01 -0.34369805705E+03  0.36669833201E+03  0.12511270128E+03 0.  0.
          5    1    3    3  502    0 -0.35238237112E+02 -0.54758986948E+01 -0.17093841681E+02  0.39766702714E+02  0.41800000000E+01 0. -1.
         -5    1    3    3    0  502  0.94947266306E+01  0.10312831927E+02 -0.32660421537E+03  0.32693162929E+03  0.41800000000E+01 0. -1.
        -11    1    1    2    0    0 -0.17334673153E+02  0.21687279706E+02 -0.14404271611E+02  0.31277980034E+02  0.00000000000E+00 0. -1.
         11    1    1    2    0    0  0.43078183635E+02 -0.26524212938E+02 -0.17802482141E+03  0.18507323095E+03  0.00000000000E+00 0.  1.
</event>
<event>
 6    1  0.2412631E-010  0.1143463E+03  0.7561462E-02  0.1252727E+00
          1   -1    0    0  501    0  0.00000000000E+00  0.00000000000E+00  0.50308982392E+02  0.50308982392E+02  0.00000000000E+00 0. -1.
         -1   -1    0    0    0  501 -0.00000000000E+00 -0.00000000000E+00 -0.29417567163E+03  0.29417567163E+03  0.00000000000E+00 0.  1.
          5    1    1    2  502    0 -0.63458517731E+02  0.97395141489E+00 -0.10010509719E+03  0.11860200225E+03  0.41800000000E+01 0. -1.
         -5    1    1    2    0  502  0.60558974027E+02  0.14901669191E+02 -0.88979603239E+02  0.10873955707E+03  0.41800000000E+01 0. -1.
        -11    1    1    2    0    0 -0.20929259732E+02  0.38162577995E+02 -0.31190020316E+02  0.53546555813E+02  0.00000000000E+00 0.  1.
         11    1    1    2    0    0  0.23828803437E+02 -0.54038198601E+02 -0.23591968497E+02  0.63596538890E+02  0.00000000000E+00 0. -1.
</event>
<event>
 6    1  0.2412631E-010  0.1374656E+03  0.7561462E-02  0.1216780E+00
          2   -1    0    0  501    0  0.00000000000E+00  0.00000000000E+00  0.40468686985E+03  0.40468686985E+03  0.00000000000E+00 0. -1.
         -2   -1    0    0    0  501 -0.00000000000E+00 -0.00000000000E+00 -0.65248537910E+02  0.65248537910E+02  0.00000000000E+00 0.  1.
          5    1    1    2  502    0  0.58362925324E+02  0.86643703346E+02  0.52670461066E+02  0.11706840842E+03  0.41800000000E+01 0.  1.
         -5    1    1    2    0  502  0.24622446533E+02 -0.44478728577E+02  0.18459849902E+02  0.54248139392E+02  0.41800000000E+01 0.  1.
        -11    1    1    2    0    0 -0.59838093283E+02 -0.63952537784E+02  0.24198519434E+03  0.25734676757E+03  0.00000000000E+00 0.  1.
         11    1    1    2    0    0 -0.23147278574E+02  0.21787563014E+02  0.26322826634E+02  0.41272092381E+02  0.00000000000E+00 0. -1.
</event>
<event>
 7    1  0.2412631E-010  0.1471896E+03  0.7561462E-02  0.1203970E+00
         -1   -1    0    0    0  501 -0.00000000000E+00  0.00000000000E+00  0.17194802739E+03  0.17194802739E+03  0.00000000000E+00 0.  1.
          1   -1    0    0  501    0  0.00000000000E+00 -0.00000000000E+00 -0.20273245323E+03  0.20273245323E+03  0.00000000000E+00 0. -1.
         25    2    1    2    0    0  0.13063138372E+03 -0.55059944735E+02 -0.71004275820E+02  0.20193386891E+03  0.12505808372E+03 0.  0.
          5    1    3    3  502    0  0.66672418667E+02 -0.40417766158E+02  0.28119548984E+02  0.82987882652E+02  0.41800000000E+01 0. -1.
         -5    1    3    3    0  502  0.63958965051E+02 -0.14642178577E+02 -0.99123824804E+02  0.11894598626E+03  0.41800000000E+01 0. -1.
        -11    1    1    2    0    0 -0.71567832615E+02  0.56947434967E+02 -0.14026902083E+02  0.92529557421E+02  0.00000000000E+00 0. -1.
         11    1    1    2    0    0 -0.59063551103E+02 -0.18874902315E+01  0.54246752071E+02  0.80217054287E+02  0.00000000000E+00 0.  1.
</event>
<event>
 7    1  0.2412631E-010  0.1107753E+03  0.7561462E-02  0.1259141E+00
          2   -1    0    0  501    0  0.00000000000E+00  0.00000000000E+00  0.68881216766E+03  0.68881216766E+03  0.00000000000E+00 0. -1.
         -2   -1    0    0    0  501 -0.00000000000E+00 -0.00000000000E+00 -0.19423099320E+02  0.19423099320E+02  0.00000000000E+00 0.  1.
         25    2    1    2    0    0 -0.41669023786E+02 -0.36292889615E+01  0.35567953510E+03  0.37933995063E+03  0.12506553153E+03 0.  0.
          5    1    3    3  502    0 -0.76660713058E+02  0.28928722869E+02  0.19253169491E+03  0.20928368756E+03  0.41800000000E+01 0. -1.
         -5    1    3    3    0  502  0.34991689272E+02 -0.32558011830E+02  0.16314784019E+03  0.17005626308E+03  0.41800000000E+01 0. -1.
        -11    1    1    2    0    0  0.47609470268E+02  0.35323393207E+02  0.13712927958E+03  0.14939492322E+03  0.00000000000E+00 0.  1.
         11    1    1    2    0    0 -0.59404464816E+01 -0.31694104245E+02  0.17658025366E+03  0.17950039312E+03  0.00000000000E+00 0. -1.
</event>
<event>
 6    1  0.2412631E-010  0.1216035E+03  0.7561462E-02  0.1240475E+00
          1   -1    0    0  501    0  0.00000000000E+00  0.00000000000E+00  0.68903238160E+03  0.68903238160E+03  0.00000000000E+00 0. -1.
         -1   -1    0    0    0  501 -0.00000000000E+00 -0.00000000000E+00 -0.24126734089E+02  0.24126734089E+02  0.00000000000E+00 0.  1.
          5    1    1    2  502    0  0.76478419422E+02  0.12319302957E+02  0.14797112720E+03  0.16707375841E+03  0.41800000000E+01 0. -1.
         -5    1    1    2    0  502 -0.38009898543E+02  0.45856646273E+02  0.20476714456E+03  0.21329472635E+03  0.41800000000E+01 0. -1.
        -11    1    1    2    0    0 -0.59271616151E+02 -0.20196174032E+02  0.11519276368E+03  0.13111209986E+03  0.00000000000E+00 0. -1.
         11    1    1    2    0    0  0.20803095272E+02 -0.37979775198E+02  0.19697461207E+03  0.20167853107E+03  0.00000000000E+00 0.  1.
</event>
<event>
 7    1  0.2412631E-010  0.8941932E+02  0.7561462E-02  0.1304264E+00
         -1   -1    0    0    0  501 -0.00000000000E+00  0.00000000000E+00  0.12227775968E+03  0.12227775968E+03  0.00000000000E+00 0.  1.
          1   -1    0    0  501    0  0.00000000000E+00 -0.00000000000E+00 -0.12199604295E+03  0.12199604295E+03  0.00000000000E+00 0. -1.
         25    2    1    2    0    0 -0.13279081939E+02  0.59949170443E+00  0.55150942995E+02  0.13737604562E+03  0.12511537871E+03 0.  0.
          5    1    3    3  502    0  0.20199781863E+02  0.52048766476E+02  0.50962864046E+02  0.75708593903E+02  0.41800000000E+01 0.  1.
         -5    1    3    3    0  502 -0.33478863802E+02 -0.51449274771E+02  0.41880789494E+01  0.61667451717E+02  0.41800000000E+01 0.  1.
        -11    1    1    2    0    0  0.88814741199E+01 -0.30159962832E+02  0.12000995549E+02  0.33653050898E+02  0.00000000000E+00 0.  1.
         11    1    1    2    0    0  0.43976078192E+01  0.29560471128E+02 -0.66870221811E+02  0.73244706108E+02  0.00000000000E+00 0. -1.
</event>
<event>
 7    1  0.2412631E-010  0.1244176E+03  0.7561462E-02  0.1235982E+00
          1   -1    0    0  501    0  0.00000000000E+00  0.00000000000E+00  0.47910677657E+03  0.47910677657E+03  0.00000000000E+00 0. -1.
         -1   -1    0    0    0  501 -0.00000000000E+00 -0.00000000000E+00 -0.55014682046E+02  0.55014682046E+02  0.00000000000E+00 0.  1.
         25    2    1    2    0    0  0.10452546515E+03  0.45900717918E+02  0.16404056978E+03  0.23579180870E+03  0.12512401746E+03 0.  0.
          5    1    3    3  502    0 -0.54943315162E+01  0.20361101307E+02 -0.13457751191E+02  0.25364258167E+02  0.41800000000E+01 0.  1.
         -5    1    3    3    0  502  0.11001979667E+03  0.25539616611E+02  0.17749832097E+03  0.21042755053E+03  0.41800000000E+01 0.  1.
        -11    1    1    2    0    0 -0.64088030637E+02 -0.31273466672E+02  0.58484025765E+02  0.92226279652E+02  0.00000000000E+00 0.  1.
         11    1    1    2    0    0 -0.40437434516E+02 -0.14627251246E+02  0.20156749898E+03  0.20610337027E+03  0.00000000000E+00 0. -1.
</event>
<event>
 7    1  0.2412631E-010  0.1492851E+03  0.7561462E-02  0.1201354E+00
         -1   -1    0    0    0  501 -0.00000000000E+00  0.00000000000E+00  0.83824952388E+02  0.83824952388E+02  0.00000000000E+00 0.  1.
          1   -1    0    0  501    0  0.00000000000E+00 -0.00000000000E+00 -0.34829058587E+03  0.34829058587E+03  0.00000000000E+00 0. -1.
         25    2    1    2    0    0  0.40169591936E+02  0.10912862113E+03 -0.22072694660E+03  0.27906157765E+03  0.12502930495E+03 0.  0.
          5    1    3    3  502    0  0.85264585129E+02  0.70528809600E+02 -0.15364543405E+03  0.18939048093E+03  0.41800000000E+01 0.  1.
         -5    1    3    3    0  502 -0.45094993193E+02  0.38599811533E+02 -0.67081512546E+02  0.89671096719E+02  0.41800000000E+01 0.  1.
        -11    1    1    2    0    0 -0.40517950533E+02 -0.33148754949E+02  0.17783939303E+02  0.55288450577E+02  0.00000000000E+00 0.  1.
         11    1    1    2    0    0  0.34835859643E+00 -0.75979866184E+02 -0.61522626181E+02  0.97765510029E+02  0.00000000000E+00 0. -1.
</event>
<event>
 6    1  0.2412631E-010  0.9422436E+02  0.7561462E-02  0.1292933E+00
          1   -1    0    0  501    0  0.00000000000E+00  0.00000000000E+00  0.23821996345E+03  0.23821996345E+03  0.00000000000E+00 0. -1.
         -1   -1    0    0    0  501 -0.00000000000E+00 -0.00000000000E+00 -0.57864048974E+02  0.57864048974E+02  0.00000000000E+00 0.  1.
          5    1    1    2  502    0  0.48040792368E+02 -0.63693030065E+02  0.21630029566E+02  0.82765031198E+02  0.41800000000E+01 0. -1.
         -5    1    1    2    0  502 -0.14233812908E+02  0.34345266683E+02  0.67846165681E+02  0.77477566889E+02  0.41800000000E+01 0. -1.
        -11    1    1    2    0    0 -0.25967860233E+02 -0.12324961744E+02 -0.66402718617E+01  0.29501316199E+02  0.00000000000E+00 0.  1.
         11    1    1    2    0    0 -0.78391192270E+01  0.41672725126E+02  0.97519991092E+02  0.10634009814E+03  0.00000000000E+00 0. -1.
</event>
<event>
 7    1  0.2412631E-010  0.9605621E+02  0.7561462E-02  0.1288815E+00
          1   -1    0    0  501    0  0.00000000000E+00  0.00000000000E+00  0.54531210139E+02  0.54531210139E+02  0.00000000000E+00 0. -1.
         -1   -1    0    0    0  501 -0.00000000000E+00 -0.00000000000E+00 -0.22796581112E+03  0.22796581112E+03  0.00000000000E+00 0.  1.
         25    2    1    2    0    0  0.20235461025E+02  0.32308104630E+02 -0.59367519473E+02  0.14359387508E+03  0.12506562711E+03 0.  0.
          5    1    3    3  502    0 -0.40800722066E+02  0.52195087804E+02 -0.28488582542E+02  0.72236402508E+02  0.41800000000E+01 0. -1.
         -5    1    3    3    0  502  0.61036183092E+02 -0.19886983174E+02 -0.30878936931E+02  0.71357472574E+02  0.41800000000E+01 0. -1.
        -11    1    1    2    0    0 -0.14450919187E+02  0.10715300378E+02 -0.84466496822E+02  0.86361078113E+02  0.00000000000E+00 0. -1.
         11    1    1    2    0    0 -0.57845418387E+01 -0.43023405008E+02 -0.29600584690E+02  0.52542068067E+02  0.00000000000E+00 0.  1.
</event>
<event>
 6    1  0.2412631E-010  0.1387797E+03  0.7561462E-02  0.1214980E+00
          1   -1    0    0  501    0  0.00000000000E+00  0.00000000000E+00  0.25978589210E+03  0.25978589210E+03  0.00000000000E+00 0. -1.
         -1   -1    0    0    0  501 -0.00000000000E+00 -0.00000000000E+00 -0.11239792297E+03  0.11239792297E+03  0.00000000000E+00 0.  1.
          5    1    1    2  502    0 -0.52960759391E+02  0.50446678654E+02  0.10887500326E+03  0.13122861029E+03  0.41800000000E+01 0.  1.
         -5    1    1    2    0  502 -0.12531932312E+01  0.70915803243E+02 -0.17008479538E+02  0.73057391270E+02  0.41800000000E+01 0.  1.
        -11    1    1    2    0    0  0.18917905329E+02 -0.32084546119E+02 -0.23084599372E+02  0.43820132016E+02  0.00000000000E+00 0.  1.
         11    1    1    2    0    0  0.35296047293E+02 -0.89277935778E+02  0.78606044780E+02  0.12407768150E+03  0.00000000000E+00 0. -1.
</event>
<event>
 7    1  0.2412631E-010  0.1049825E+03  0.7561462E-02  0.1270154E+00
         -3   -1    0    0    0  501 -0.00000000000E+00  0.00000000000E+00  0.20242539290E+02  0.20242539290E+02  0.00000000000E+00 0.  1.
          3   -1    0    0  501    0  0.00000000000E+00 -0.00000000000E+00 -0.85622820634E+03  0.85622820634E+03  0.00000000000E+00 0. -1.
         25    2    1    2    0    0  0.51525328207E+02 -0.23904470018E+02 -0.30288740815E+03  0.33259952266E+03  0.12512145029E+03 0.  0.
          5    1    3    3  502    0 -0.13968927183E+02  0.19245242830E+02 -0.51650465013E+01  0.24691302185E+02  0.41800000000E+01 0.  1.
         -5    1    3    3    0  502  0.65494255390E+02 -0.43149712848E+02 -0.29772236165E+03  0.30790822047E+03  0.41800000000E+01 0.  1.
        -11    1    1    2    0    0 -0.74336303114E+02  0.34705718719E+02 -0.42729343982E+03  0.43509775521E+03  0.00000000000E+00 0. -1.
         11    1    1    2    0    0  0.22810974907E+02 -0.10801248700E+02 -0.10580481907E+03  0.10877346776E+03  0.00000000000E+00 0.  1.
</event>
<event>
 6    1  0.2412631E-010  0.1341297E+03  0.7561462E-02  0.1221454E+00
          3   -1    0    0  501    0  0.00000000000E+00  0.00000000000E+00  0.73435851892E+02  0.73435851892E+02  0.00000000000E+00 0. -1.
         -3   -1    0    0    0  501 -0.00000000000E+00 -0.00000000000E+00 -0.25256746998E+03  0.25256746998E+03  0.00000000000E+00 0.  1.
          5    1    1    2  502    0  0.16922441922E+02  0.53110373297E+02 -0.31593488112E+02  0.64208268030E+02  0.41800000000E+01 0.  1.
         -5    1    1    2    0  502 -0.89389698439E+02 -0.20946162742E+02 -0.39817273984E+02  0.10016060916E+03  0.41800000000E+01 0.  1.
        -11    1    1    2    0    0  0.61226264701E+00  0.27226429390E+02 -0.22405830287E+02  0.35265770284E+02  0.00000000000E+00 0. -1.
         11    1    1    2    0    0  0.71854993870E+02 -0.59390639945E+02 -0.85315025703E+02  0.12636867439E+03  0.00000000000E+00 0.  1.
</event>
<event>
 7    1  0.2412631E-010  0.1631278E+03  0.7561462E-02  0.1185210E+00
         -1   -1    0    0    0  501 -0.00000000000E+00  0.00000000000E+00  0.11632482169E+03  0.11632482169E+03  0.00000000000E+00 0.  1.
          1   -1    0    0  501    0  0.00000000000E+00 -0.00000000000E+00 -0.37999127174E+03  0.37999127174E+03  0.00000000000E+00 0. -1.
         25    2    1    2    0    0  0.36137734514E+02  0.73822868098E+02 -0.20659958413E+03  0.25510927661E+03  0.12506639493E+03 0.  0.
          5    1    3    3  502    0  0.82691699070E+02  0.42242673405E+02 -0.13626169413E+03  0.16494569482E+03  0.41800000000E+01 0. -1.
         -5    1    3    3    0  502 -0.46553964556E+02  0.31580194693E+02 -0.70337889993E+02  0.90163581791E+02  0.41800000000E+01 0. -1.
        -11    1    1    2    0    0  0.23514071416E+02  0.41135359124E+02 -0.95078342515E+02  0.10623050664E+03  0.00000000000E+00 0.  1.
         11    1    1    2    0    0 -0.59651805930E+02 -0.11495822722E+03  0.38011476591E+02  0.13497631018E+03  0.00000000000E+00 0. -1.
</event>
<event>
 7    1  0.2412631E-010  0.1121954E+03  0.7561462E-02  0.1256558E+00
         -1   -1    0    0    0  501 -0.00000000000E+00  0.00000000000E+00  0.54835025991E+02  0.54835025991E+02  0.00000000000E+00 0.  1.
          1   -1    0    0  501    0  0.00000000000E+00 -0.00000000000E+00 -0.30336787465E+03  0.30336787465E+03  0.00000000000E+00 0. -1.
         25    2    1    2    0    0  0.54920659266E+01 -0.62520871333E+02 -0.94096671814E+02  0.16862700538E+03  0.12506742644E+03 0.  0.
          5    1    3    3  502    0 -0.55564779028E+02 -0.51249799891E+02 -0.37390050805E+02  0.84436218275E+02  0.41800000000E+01 0. -1.
         -5    1    3    3    0  502  0.61056844955E+02 -0.11271071442E+02 -0.56706621009E+02  0.84190787106E+02  0.41800000000E+01 0. -1.
        -11    1    1    2    0    0  0.27074435438E+02  0.26272301839E+02 -0.12875123203E+02  0.39862610247E+02  0.00000000000E+00 0.  1.
         11    1    1    2    0    0 -0.32566501364E+02  0.36248569494E+02 -0.14156105364E+03  0.14971328502E+03  0.00000000000E+00 0. -1.
</event>
<event>
 7    1  0.2412631E-010  0.1015663E+03  0.7561462E-02  0.1277036E+00
         -2   -1    0    0    0  501 -0.00000000000E+00  0.00000000000E+00  0.11947242150E+02  0.11947242150E+02  0.00000000000E+00 0.  1.
          2   -1    0    0  501    0  0.00000000000E+00 -0.00000000000E+00 -0.12406827388E+04  0.12406827388E+04  0.00000000000E+00 0. -1.
         25    2    1    2    0    0  0.13907392247E+02  0.16195254375E+01 -0.99084731529E+03  0.99881328371E+03  0.12511408818E+03 0.  0.
          5    1    3    3  502    0 -0.45835203661E+02  0.34105892397E+02 -0.40958502115E+03  0.41357156544E+03  0.41800000000E+01 0.  1.
         -5    1    3    3    0  502  0.59742595908E+02 -0.32486366960E+02 -0.58126229415E+03  0.58524171827E+03  0.41800000000E+01 0.  1.
        -11    1    1    2    0    0 -0.11533480288E+02 -0.38790493779E+02 -0.62075622209E+02  0.74102000295E+02  0.00000000000E+00 0.  1.
         11    1    1    2    0    0 -0.23739119588E+01  0.37170968342E+02 -0.17581255913E+03  0.17971469694E+03  0.00000000000E+00 0. -1.
</event>
<event>
 7    1  0.2412631E-010  0.1753604E+03  0.7561462E-02  0.1172370E+00
         -1   -1    0    0    0  501 -0.00000000000E+00  0.00000000000E+00  0.21191344149E+02  0.21191344149E+02  0.00000000000E+00 0.  1.
          1   -1    0    0  501    0  0.00000000000E+00 -0.00000000000E+00 -0.18147249387E+04  0.18147249387E+04  0.00000000000E+00 0. -1.
         25    2    1    2    0    0  0.61134518344E+02  0.14880373808E+03 -0.10261593990E+04  0.10462047055E+04  0.12514468366E+03 0.  0.
          5    1    3    3  502    0  0.39210346256E+01  0.93270954720E+02 -0.26743700100E+03  0.28329290039E+03  0.41800000000E+01 0. -1.
         -5    1    3    3    0  502  0.57213483718E+02  0.55532783358E+02 -0.75872239797E+03  0.76291180508E+03  0.41800000000E+01 0. -1.
        -11    1    1    2    0    0 -0.23100885901E+01 -0.10261433590E+03 -0.31795047007E+03  0.33410707844E+03  0.00000000000E+00 0.  1.
         11    1    1    2    0    0 -0.58824429754E+02 -0.46189402175E+02 -0.44942372551E+03  0.45560449895E+03  0.00000000000E+00 0. -1.
</event>
<event>
 7    1  0.2412631E-010  0.9370861E+02  0.7561462E-02  0.1294111E+00
          1   -1    0    0  501    0  0.00000000000E+00  0.00000000000E+00  0.53964643842E+03  0.53964643842E+03  0.00000000000E+00 0. -1.
         -1   -1    0    0    0  501 -0.00000000000E+00 -0.00000000000E+00 -0.30134369329E+02  0.30134369329E+02  0.00000000000E+00 0.  1.
         25    2    1    2    0    0 -0.22778603559E+02 -0.17879487367E+02  0.15765983769E+03  0.20331455415E+03  0.12506655293E+03 0.  0.
          5    1    3    3  502    0  0.20150762232E+02  0.23129999396E+02 -0.38399718416E+01  0.31197241454E+02  0.41800000000E+01 0. -1.
         -5    1    3    3    0  502 -0.42929365791E+02 -0.41009486763E+02  0.16149980953E+03  0.17211731270E+03  0.41800000000E+01 0. -1.
        -11    1    1    2    0    0  0.35515884338E+02 -0.30560551807E+02  0.11139114742E+03  0.12084416863E+03  0.00000000000E+00 0.  1.
         11    1    1    2    0    0 -0.12737280779E+02  0.48440039173E+02  0.24046108398E+03  0.24562208497E+03  0.00000000000E+00 0. -1.
</event>
<event>
 7    1  0.2412631E-010  0.2261827E+03  0.7561462E-02  0.1129356E+00
          3   -1    0    0  501    0  0.00000000000E+00  0.00000000000E+00  0.74278442927E+02  0.74278442927E+02  0.00000000000E+00 0. -1.
         -3   -1    0    0    0  501 -0.00000000000E+00 -0.00000000000E+00 -0.78452192323E+03  0.78452192323E+03  0.00000000000E+00 0.  1.
         25    2    1    2    0    0  0.14860595504E+03 -0.14921521842E+03 -0.44498380056E+03  0.50793800667E+03  0.12506608083E+03 0.  0.
          5    1    3    3  502    0  0.15934828756E+03 -0.14336381704E+03 -0.44612092825E+03  0.49496102453E+03  0.41800000000E+01 0. -1.
         -5    1    3    3    0  502 -0.10742332517E+02 -0.58514013806E+01  0.11371276874E+01  0.12976982138E+02  0.41800000000E+01 0. -1.
        -11    1    1    2    0    0  0.89943204488E+01  0.17416574132E+02 -0.47991397906E+02  0.51840226927E+02  0.00000000000E+00 0.  1.
         11    1    1    2    0    0 -0.15760027549E+03  0.13179864429E+03 -0.21726828184E+03  0.29902213256E+03  0.00000000000E+00 0. -1.
</event>
<event>
 7    1  0.2412631E-010  0.1051892E+03  0.7561462E-02  0.1269747E+00
          2   -1    0    0  501    0  0.00000000000E+00  0.00000000000E+00  0.55534306414E+02  0.55534306414E+02  0.00000000000E+00 0.  1.
         -2   -1    0    0    0  501 -0.00000000000E+00 -0.00000000000E+00 -0.24414650859E+03  0.24414650859E+03  0.00000000000E+00 0. -1.
         25    2    1    2    0    0  0.44076079576E+02  0.69341030707E+00 -0.11127804360E+03  0.17309637370E+03  0.12504547169E+03 0.  0.
          5    1    3    3  502    0 -0.26597344517E+02 -0.37331085826E+02 -0.67165860633E+02  0.81423300958E+02  0.41800000000E+01 0. -1.
         -5    1    3    3    0  502  0.70673424093E+02  0.38024496133E+02 -0.44112182966E+02  0.91673072738E+02  0.41800000000E+01 0. -1.
        -11    1    1    2    0    0  0.13664274928E+01 -0.29925367580E+02  0.26350858427E+01  0.30072220176E+02  0.00000000000E+00 0.  1.
         11    1    1    2    0    0 -0.45442507069E+02  0.29231957273E+02 -0.79969244417E+02  0.96512221130E+02  0.00000000000E+00 0. -1.
</event>
<event>
 7    1  0.2412631E-010  0.2835050E+03  0.7561462E-02  0.1093790E+00
          1   -1    0    0  501    0  0.00000000000E+00  0.00000000000E+00  0.84386211102E+03  0.84386211102E+03  0.00000000000E+00 0. -1.
         -1   -1    0    0    0  501 -0.00000000000E+00 -0.00000000000E+00 -0.24571570764E+03  0.24571570764E+03  0.00000000000E+00 0.  1.
         25    2    1    2    0    0 -0.23901480489E+03  0.13282000651E+03  0.71675964378E+03  0.77727265886E+03  0.12505665982E+03 0.  0.
          5    1    3    3  502    0 -0.13045275251E+03  0.13528644718E+02  0.23422540261E+03  0.26847710609E+03  0.41800000000E+01 0. -1.
         -5    1    3    3    0  502 -0.10856205238E+03  0.11929136179E+03  0.48253424117E+03  0.50879555277E+03  0.41800000000E+01 0. -1.
        -11    1    1    2    0    0  0.13949066141E+02 -0.14691718662E+02  0.14940226709E+02  0.25172076148E+02  0.00000000000E+00 0. -1.
         11    1    1    2    0    0  0.22506573875E+03 -0.11812828785E+03 -0.13355346712E+03  0.28713308366E+03  0.00000000000E+00 0.  1.
</event>
<event>
 7    1  0.2412631E-010  0.1791795E+03  0.7561462E-02  0.1168599E+00
         -1   -1    0    0    0  501 -0.00000000000E+00  0.00000000000E+00  0.36082946738E+02  0.36082946738E+02  0.00000000000E+00 0.  1.
          1   -1    0    0  501    0  0.00000000000E+00 -0.00000000000E+00 -0.98637533779E+03  0.98637533779E+03  0.00000000000E+00 0. -1.
         25    2    1    2    0    0 -0.85172532645E+02  0.11849042995E+03 -0.63159452093E+03  0.66018375502E+03  0.12504642825E+03 0.  0.
          5    1    3    3  502    0 -0.86243424450E+02  0.16111376239E+02 -0.24618546368E+03  0.26138527050E+03  0.41800000000E+01 0. -1.
         -5    1    3    3    0  502  0.10708918054E+01  0.10237905371E+03 -0.38540905724E+03  0.39879848452E+03  0.41800000000E+01 0. -1.
        -11    1    1    2    0    0 -0.12096707601E+01 -0.67974928942E+02 -0.16949547248E+03  0.18262193039E+03  0.00000000000E+00 0. -1.
         11    1    1    2    0    0  0.86382203405E+02 -0.50515501008E+02 -0.14920239764E+03  0.17965259911E+03  0.00000000000E+00 0.  1.
</event>
<event>
 7    1  0.2412631E-010  0.5759280E+02  0.7561462E-02  0.1408221E+00
         -1   -1    0    0    0  501 -0.00000000000E+00  0.00000000000E+00  0.50596660933E+02  0.50596660933E+02  0.00000000000E+00 0.  1.
          1   -1    0    0  501    0  0.00000000000E+00 -0.00000000000E+00 -0.20221139886E+03  0.20221139886E+03  0.00000000000E+00 0. -1.
         25    2    1    2    0    0  0.45725680367E+01  0.29291347418E+02 -0.10293420385E+03  0.16466192512E+03  0.12505681850E+03 0.  0.
          5    1    3    3  502    0  0.24206547457E+02  0.14421509756E+02  0.22789860042E+02  0.36479953457E+02  0.41800000000E+01 0.  1.
         -5    1    3    3    0  502 -0.19633979421E+02  0.14869837662E+02 -0.12572406389E+03  0.12818197167E+03  0.41800000000E+01 0.  1.
        -11    1    1    2    0    0 -0.10134473486E+02 -0.44440236717E+02 -0.54448170173E+02  0.71008770074E+02  0.00000000000E+00 0. -1.
         11    1    1    2    0    0  0.55619054496E+01  0.15148889299E+02  0.57676360913E+01  0.17137364596E+02  0.00000000000E+00 0.  1.
</event>
<event>
 6    1  0.2412631E-010  0.9152427E+02  0.7561462E-02  0.1299202E+00
          2   -1    0    0  501    0  0.00000000000E+00  0.00000000000E+00  0.13620313786E+03  0.13620313786E+03  0.00000000000E+00 0. -1.
         -2   -1    0    0    0  501 -0.00000000000E+00 -0.00000000000E+00 -0.96020252528E+02  0.96020252528E+02  0.00000000000E+00 0.  1.
          5    1    1    2  502    0  0.47006167121E+02  0.10612236833E+02  0.29968974388E+02  0.56901767493E+02  0.41800000000E+01 0. -1.
         -5    1    1    2    0  502 -0.56381314085E+02 -0.74770794323E+01 -0.38924074291E+02  0.69045747546E+02  0.41800000000E+01 0. -1.
        -11    1    1    2    0    0  0.33047288117E+02 -0.28003363735E+02 -0.34703635379E+01  0.43455207461E+02  0.00000000000E+00 0.  1.
         11    1    1    2    0    0 -0.23672141153E+02  0.24868206334E+02  0.52608348770E+02  0.62820667884E+02  0.00000000000E+00 0. -1.
</event>
<event>
 7    1  0.2412631E-010  0.9534227E+02  0.7561462E-02  0.1290407E+00
         -3   -1    0    0    0  501 -0.00000000000E+00  0.00000000000E+00  0.46750982160E+02  0.46750982160E+02  0.00000000000E+00 0.  1.
          3   -1    0    0  501    0  0.00000000000E+00 -0.00000000000E+00 -0.33717842235E+03  0.33717842235E+03  0.00000000000E+00 0. -1.
         25    2    1    2    0    0  0.12087725112E+02 -0.11507817325E+02 -0.26035258508E+03  0.28931509063E+03  0.12506482380E+03 0.  0.
          5    1    3    3  502    0  0.25145776444E-01  0.49796236618E+02 -0.53569738053E+02  0.73258822327E+02  0.41800000000E+01 0. -1.
         -5    1    3    3    0  502  0.12062579335E+02 -0.61304053943E+02 -0.20678284703E+03  0.21605626831E+03  0.41800000000E+01 0. -1.
        -11    1    1    2    0    0 -0.35758061185E+02  0.31082013560E+02 -0.40343371120E+02  0.62227952722E+02  0.00000000000E+00 0. -1.
         11    1    1    2    0    0  0.23670336073E+02 -0.19574196234E+02  0.10268516008E+02  0.32386361158E+02  0.00000000000E+00 0.  1.
</event>
<event>
 7    1  0.2412631E-010  0.1304919E+03  0.7561462E-02  0.1226728E+00
         -1   -1    0    0    0  501 -0.00000000000E+00  0.00000000000E+00  0.13845320404E+03  0.13845320404E+03  0.00000000000E+00 0.  1.
          1   -1    0    0  501    0  0.00000000000E+00 -0.00000000000E+00 -0.13004859738E+03  0.13004859738E+03  0.00000000000E+00 0. -1.
         25    2    1    2    0    0  0.78561153714E+02 -0.12757463775E+02  0.67840724671E+01  0.14838898574E+03  0.12505462684E+03 0.  0.
          5    1    3    3  502    0  0.55637304719E+02  0.53794785984E+02  0.75532071469E+01  0.77871124390E+02  0.41800000000E+01 0.  1.
         -5    1    3    3    0  502  0.22923848995E+02 -0.66552249760E+02 -0.76913467980E+00  0.70517861347E+02  0.41800000000E+01 0.  1.
        -11    1    1    2    0    0 -0.90662552139E+02 -0.57598985843E+01  0.17970132869E+02  0.92605617904E+02  0.00000000000E+00 0.  1.
         11    1    1    2    0    0  0.12101398425E+02  0.18517362360E+02 -0.16349598679E+02  0.27507197777E+02  0.00000000000E+00 0. -1.
</event>
<event>
 7    1  0.2412631E-010  0.1141083E+03  0.7561462E-02  0.1253146E+00
          2   -1    0    0  501    0  0.00000000000E+00  0.00000000000E+00  0.13154922255E+04  0.13154922255E+04  0.00000000000E+00 0. -1.
         -2   -1    0    0    0  501 -0.00000000000E+00 -0.00000000000E+00 -0.13906978779E+02  0.13906978779E+02  0.00000000000E+00 0.  1.
         25    2    1    2    0    0  0.59996394180E+02 -0.30773439205E+02  0.92052401064E+03  0.93142531290E+03  0.12506833119E+03 0.  0.
          5    1    3    3  502    0  0.94846628506E+02 -0.46100023090E+00  0.66221176965E+03  0.66898280675E+03  0.41800000000E+01 0.  1.
         -5    1    3    3    0  502 -0.34850234326E+02 -0.30312438974E+02  0.25831224099E+03  0.26244250615E+03  0.41800000000E+01 0.  1.
        -11    1    1    2    0    0  0.13094254320E+01  0.25317554555E+02  0.21671224034E+02  0.33351688335E+02  0.00000000000E+00 0.  1.
         11    1    1    2    0    0 -0.61305819612E+02  0.54558846497E+01  0.35939001205E+03  0.36462220305E+03  0.00000000000E+00 0. -1.
</event>
<event>
 7    1  0.2412631E-010  0.1017067E+03  0.7561462E-02  0.1276747E+00
         -2   -1    0    0    0  501 -0.00000000000E+00  0.00000000000E+00  0.35309202495E+03  0.35309202495E+03  0.00000000000E+00 0.  1.
          2   -1    0    0  501    0  0.00000000000E+00 -0.00000000000E+00 -0.37902672987E+02  0.37902672987E+02  0.00000000000E+00 0. -1.
         25    2    1    2    0    0  0.16293179855E+02  0.39759132341E+02  0.18148114878E+03  0.22458637633E+03  0.12512944001E+03 0.  0.
          5    1    3    3  502    0  0.62350235627E+02  0.74094046797E-02  0.51375744174E+02  0.80898031046E+02  0.41800000000E+01 0. -1.
         -5    1    3    3    0  502 -0.46057055772E+02  0.39751722936E+02  0.13010540461E+03  0.14368834528E+03  0.41800000000E+01 0. -1.
        -11    1    1    2    0    0 -0.39716079848E+02 -0.40203899108E+02  0.13119221418E+03  0.14284648250E+03  0.00000000000E+00 0.  1.
         11    1    1    2    0    0  0.23422899993E+02  0.44476676737E+00  0.25159890099E+01  0.23561839111E+02  0.00000000000E+00 0. -1.
</event>
<event>
 7    1  0.2412631E-010  0.1443011E+03  0.7561462E-02  0.1207656E+00
         -1   -1    0    0    0  501 -0.00000000000E+00  0.00000000000E+00  0.54388355333E+02  0.54388355333E+02  0.00000000000E+00 0.  1.
          1   -1    0    0  501    0  0.00000000000E+00 -0.00000000000E+00 -0.54836805502E+03  0.54836805502E+03  0.00000000000E+00 0. -1.
         25    2    1    2    0    0 -0.81529651350E+02  0.50363893918E+02 -0.98439063075E+02  0.18576068419E+03  0.12503270288E+03 0.  0.
          5    1    3    3  502    0 -0.24132205870E+01 -0.38003475143E+02 -0.17575544753E+02  0.42148071485E+02  0.41800000000E+01 0. -1.
         -5    1    3    3    0  502 -0.79116430763E+02  0.88367369061E+02 -0.80863518322E+02  0.14361261270E+03  0.41800000000E+01 0. -1.
        -11    1    1    2    0    0  0.84947901939E+02 -0.39173286776E+01 -0.23923308383E+03  0.25389753820E+03  0.00000000000E+00 0. -1.
         11    1    1    2    0    0 -0.34182505896E+01 -0.46446565240E+02 -0.15630755278E+03  0.16309818796E+03  0.00000000000E+00 0.  1.
</event>
<event>
 7    1  0.2412631E-010  0.1672538E+03  0.7561462E-02  0.1180742E+00
          1   -1    0    0  501    0  0.00000000000E+00  0.00000000000E+00  0.95282472332E+03  0.95282472332E+03  0.00000000000E+00 0. -1.
         -1   -1    0    0    0  501 -0.00000000000E+00 -0.00000000000E+00 -0.37122603391E+02  0.37122603391E+02  0.00000000000E+00 0.  1.
         25    2    1    2    0    0 -0.10765912933E+03  0.10885529592E+03  0.50747796381E+03  0.54463771688E+03  0.12512551825E+03 0.  0.
          5    1    3    3  502    0 -0.98788629200E+02  0.49913184052E+02  0.44339353132E+03  0.45701839702E+03  0.41800000000E+01 0.  1.
         -5    1    3    3    0  502 -0.88705001305E+01  0.58942111871E+02  0.64084432486E+02  0.87619319853E+02  0.41800000000E+01 0.  1.
        -11    1    1    2    0    0  0.49546441144E+02 -0.11897415826E+02  0.21936962702E+03  0.22520975022E+03  0.00000000000E+00 0. -1.
         11    1    1    2    0    0  0.58112688186E+02 -0.96957880097E+02  0.18885452909E+03  0.22009985961E+03  0.00000000000E+00 0.  1.
</event>
<event>
 7    1  0.2412631E-010  0.1506238E+03  0.7561462E-02  0.1199709E+00
          3   -1    0    0  501    0  0.00000000000E+00  0.00000000000E+00  0.43505079859E+02  0.43505079859E+02  0.00000000000E+00 0. -1.
         -3   -1    0    0    0  501 -0.00000000000E+00 -0.00000000000E+00 -0.55015033736E+03  0.55015033736E+03  0.00000000000E+00 0.  1.
         25    2    1    2    0    0  0.68028159507E+02 -0.85412658385E+02 -0.24297737928E+03  0.29431497632E+03  0.12514050403E+03 0.  0.
          5    1    3    3  502    0 -0.18271719464E+02  0.20698932547E+02 -0.56425465440E+02  0.62957184585E+02  0.41800000000E+01 0. -1.
         -5    1    3    3    0  502  0.86299878971E+02 -0.10611159093E+03 -0.18655191384E+03  0.23135779174E+03  0.41800000000E+01 0. -1.
        -11    1    1    2    0    0 -0.80076828996E+02  0.92626312721E+02 -0.25490669608E+03  0.28278853594E+03  0.00000000000E+00 0.  1.
         11    1    1    2    0    0  0.12048669489E+02 -0.72136543359E+01 -0.87611821410E+01  0.16551904961E+02  0.00000000000E+00 0. -1.
</event>
<event>
 7    1  0.2412631E-010  0.6654797E+02  0.7561462E-02  0.1372241E+00
          2   -1    0    0  501    0  0.00000000000E+00  0.00000000000E+00  0.88964859585E+03  0.88964859585E+03  0.00000000000E+00 0. -1.
         -2   -1    0    0    0  501 -0.00000000000E+00 -0.00000000000E+00 -0.14705074681E+02  0.14705074681E+02  0.00000000000E+00 0.  1.
         25    2    1    2    0    0  0.12658465853E+02 -0.28392909000E+02  0.56631156348E+03  0.58078400768E+03  0.12503952416E+03 0.  0.
          5    1    3    3  502    0  0.11406707570E+02 -0.28450821565E+01  0.55004066413E+03  0.55018216262E+03  0.41800000000E+01 0.  1.
         -5    1    3    3    0  502  0.12517582829E+01 -0.25547826843E+02  0.16270899353E+02  0.30601845058E+02  0.41800000000E+01 0.  1.
        -11    1    1    2    0    0 -0.44761723865E+02 -0.87480205938E+01  0.18519924407E+03  0.19073253470E+03  0.00000000000E+00 0.  1.
         11    1    1    2    0    0  0.32103258011E+02  0.37140929593E+02  0.12343271362E+03  0.13283712816E+03  0.00000000000E+00 0. -1.
</event>
<event>
 7    1  0.2412631E-010  0.1566587E+03  0.7561462E-02  0.1192522E+00
          1   -1    0    0  501    0  0.00000000000E+00  0.00000000000E+00  0.80715261006E+03  0.80715261006E+03  0.00000000000E+00 0. -1.
         -1   -1    0    0    0  501 -0.00000000000E+00 -0.00000000000E+00 -0.36965646494E+02  0.36965646494E+02  0.00000000000E+00 0.  1.
         25    2    1    2    0    0 -0.97179273184E+02 -0.92144932589E+02  0.42808183419E+03  0.46566583149E+03  0.12512437857E+03 0.  0.
          5    1    3    3  502    0 -0.10247282947E+03 -0.10745518172E+03  0.42277996154E+03  0.44811568276E+03  0.41800000000E+01 0.  1.
         -5    1    3    3    0  502  0.52935562815E+01  0.15310249132E+02  0.53018726446E+01  0.17550148721E+02  0.41800000000E+01 0.  1.
        -11    1    1    2    0    0  0.51911737980E+02  0.88537583077E+02  0.29787637308E+03  0.31506200310E+03  0.00000000000E+00 0.  1.
         11    1    1    2    0    0  0.45267535204E+02  0.36073495117E+01  0.44228756302E+02  0.63390421973E+02  0.00000000000E+00 0. -1.
</event>
<event>
 7    1  0.2412631E-010  0.8018842E+02  0.7561462E-02  0.1328518E+00
          1   -1    0    0  501    0  0.00000000000E+00  0.00000000000E+00  0.16356489537E+03  0.16356489537E+03  0.00000000000E+00 0. -1.
         -1   -1    0    0    0  501 -0.00000000000E+00 -0.00000000000E+00 -0.11803977564E+03  0.11803977564E+03  0.00000000000E+00 0.  1.
         25    2    1    2    0    0  0.24572880100E+02  0.39980185598E+02  0.99976064408E+02  0.16688765094E+03  0.12511607772E+03 0.  0.
          5    1    3    3  502    0  0.88168889937E+01 -0.35172242755E+02  0.79237441493E+02  0.87240293021E+02  0.41800000000E+01 0. -1.
         -5    1    3    3    0  502  0.15755991106E+02  0.75152428352E+02  0.20738622914E+02  0.79647357918E+02  0.41800000000E+01 0. -1.
        -11    1    1    2    0    0 -0.14792839132E+02 -0.22055276191E+02 -0.78674213845E+02  0.83035505789E+02  0.00000000000E+00 0.  1.
         11    1    1    2    0    0 -0.97800409675E+01 -0.17924909406E+02  0.24223269158E+02  0.31681514283E+02  0.00000000000E+00 0. -1.
</event>
<event>
 7    1  0.2412631E-010  0.1311496E+03  0.7561462E-02  0.1225760E+00
          2   -1    0    0  501    0  0.00000000000E+00  0.00000000000E+00  0.32810765359E+03  0.32810765359E+03  0.00000000000E+00 0.  1.
         -2   -1    0    0    0  501 -0.00000000000E+00 -0.00000000000E+00 -0.84411457123E+02  0.84411457123E+02  0.00000000000E+00 0. -1.
         25    2    1    2    0    0  0.18788044191E+02 -0.98555703687E+02  0.22528286683E+03  0.27653709993E+03  0.12511666643E+03 0.  0.
          5    1    3    3  502    0 -0.44685458597E+02 -0.83746142824E+02  0.13012005220E+03  0.16111768070E+03  0.41800000000E+01 0. -1.
         -5    1    3    3    0  502  0.63473502788E+02 -0.14809560863E+02  0.95162814624E+02  0.11541941923E+03  0.41800000000E+01 0. -1.
        -11    1    1    2    0    0 -0.89988188664E+01  0.83697114732E+02 -0.26027522943E+02  0.88111393735E+02  0.00000000000E+00 0. -1.
         11    1    1    2    0    0 -0.97892253249E+01  0.14858588956E+02  0.44440852587E+02  0.47870617051E+02  0.00000000000E+00 0.  1.
</event>
<event>
 7    1  0.2412631E-010  0.9166780E+02  0.7561462E-02  0.1298862E+00
          2   -1    0    0  501    0  0.00000000000E+00  0.00000000000E+00  0.77786518605E+02  0.77786518605E+02  0.00000000000E+00 0. -1.
         -2   -1    0    0    0  501 -0.00000000000E+00 -0.00000000000E+00 -0.15114026848E+03  0.15114026848E+03  0.00000000000E+00 0.  1.
         25    2    1    2    0    0  0.32419209111E+01  0.24546272328E+01 -0.32377996705E+02  0.12929904745E+03  0.12511344354E+03 0.  0.
          5    1    3    3  502    0 -0.25034291585E+02 -0.46269019943E+02  0.15765431912E+02  0.55077755991E+02  0.41800000000E+01 0. -1.
         -5    1    3    3    0  502  0.28276212496E+02  0.48723647176E+02 -0.48143428617E+02  0.74221291462E+02  0.41800000000E+01 0. -1.
        -11    1    1    2    0    0 -0.37536662939E+02  0.76763477984E+01  0.78478840728E+01  0.39109035587E+02  0.00000000000E+00 0.  1.
         11    1    1    2    0    0  0.34294742028E+02 -0.10130975031E+02 -0.48823637245E+02  0.60518704048E+02  0.00000000000E+00 0. -1.
</event>
<event>
 6    1  0.2412631E-010  0.1247474E+03  0.7561462E-02  0.1235465E+00
         -1   -1    0    0    0  501 -0.00000000000E+00  0.00000000000E+00  0.21026743268E+03  0.21026743268E+03  0.00000000000E+00 0.  1.
          1   -1    0    0  501    0  0.00000000000E+00 -0.00000000000E+00 -0.11216287129E+03  0.11216287129E+03  0.00000000000E+00 0. -1.
          5    1    1    2  502    0 -0.23019398080E+02 -0.41907291409E+02 -0.45811440888E+02  0.66349636604E+02  0.41800000000E+01 0. -1.
         -5    1    1    2    0  502  0.79429399908E+02 -0.10906375039E+02  0.20331538696E+02  0.82818008017E+02  0.41800000000E+01 0. -1.
        -11    1    1    2    0    0 -0.76428326735E+02  0.14221265884E+02  0.74184083669E+02  0.10745609243E+03  0.00000000000E+00 0. -1.
         11    1    1    2    0    0  0.20018324908E+02  0.38592400564E+02  0.49400379913E+02  0.65806566913E+02  0.00000000000E+00 0.  1.
</event>
<event>
 7    1  0.2412631E-010  0.1886053E+03  0.7561462E-02  0.1159725E+00
          2   -1    0    0  501    0  0.00000000000E+00  0.00000000000E+00  0.12650499520E+04  0.12650499520E+04  0.00000000000E+00 0. -1.
         -2   -1    0    0    0  501 -0.00000000000E+00 -0.00000000000E+00 -0.30429615128E+02  0.30429615128E+02  0.00000000000E+00 0.  1.
         25    2    1    2    0    0  0.43084562619E+02 -0.15383684740E+03  0.76088101328E+03  0.78746684124E+03  0.12506819955E+03 0.  0.
          5    1    3    3  502    0 -0.28746638760E+00 -0.15124628003E+03  0.66683201294E+03  0.68378207475E+03  0.41800000000E+01 0. -1.
         -5    1    3    3    0  502  0.43372029007E+02 -0.25905673699E+01  0.94049000335E+02  0.10368476650E+03  0.41800000000E+01 0. -1.
        -11    1    1    2    0    0  0.26138864842E+02  0.61735096114E+02  0.14733367030E+03  0.16186930763E+03  0.00000000000E+00 0. -1.
         11    1    1    2    0    0 -0.69223427461E+02  0.92101751289E+02  0.32640565329E+03  0.34614341825E+03  0.00000000000E+00 0.  1.
</event>
<event>
 6    1  0.2412631E-010  0.1284885E+03  0.7561462E-02  0.1229716E+00
         -3   -1    0    0    0  501 -0.00000000000E+00  0.00000000000E+00  0.67123191789E+03  0.67123191789E+03  0.00000000000E+00 0.  1.
          3   -1    0    0  501    0  0.00000000000E+00 -0.00000000000E+00 -0.35286205344E+02  0.35286205344E+02  0.00000000000E+00 0. -1.
          5    1    1    2  502    0 -0.83909056545E+02 -0.73738741437E+02  0.17701347199E+03  0.20935465943E+03  0.41800000000E+01 0. -1.
         -5    1    1    2    0  502  0.22160418010E+02  0.16811424032E+02  0.81266101943E+01  0.29278358862E+02  0.41800000000E+01 0. -1.
        -11    1    1    2    0    0 -0.50599591042E+01  0.49598609642E+02  0.27865615824E+03  0.28308104810E+03  0.00000000000E+00 0.  1.
         11    1    1    2    0    0  0.66808597639E+02  0.73287077634E+01  0.17214947212E+03  0.18480405685E+03  0.00000000000E+00 0. -1.
</event>
<event>
 7    1  0.2412631E-010  0.1070837E+03  0.7561462E-02  0.1266068E+00
         -2   -1    0    0    0  501 -0.00000000000E+00  0.00000000000E+00  0.11068518023E+02  0.11068518023E+02  0.00000000000E+00 0.  1.
          2   -1    0    0  501    0  0.00000000000E+00 -0.00000000000E+00 -0.20151702932E+04  0.20151702932E+04  0.00000000000E+00 0. -1.
         25    2    1    2    0    0  0.66382375803E+02 -0.94463491475E+01 -0.15794086305E+04  0.15857688412E+04  0.12504136218E+03 0.  0.
          5    1    3    3  502    0  0.82285050414E+02  0.12804532852E+02 -0.14862895845E+04  0.14886265438E+04  0.41800000000E+01 0. -1.
         -5    1    3    3    0  502 -0.15902674611E+02 -0.22250881999E+02 -0.93119046034E+02  0.97142297399E+02  0.41800000000E+01 0. -1.
        -11    1    1    2    0    0  0.77408121058E+01 -0.21458639480E+02 -0.29991998336E+02  0.37681737547E+02  0.00000000000E+00 0.  1.
         11    1    1    2    0    0 -0.74123187909E+02  0.30904988628E+02 -0.39470114633E+03  0.40278823247E+03  0.00000000000E+00 0. -1.
</event>
<event>
 7    1  0.2412631E-010  0.1158963E+03  0.7561462E-02  0.1250025E+00
         -2   -1    0    0    0  501 -0.00000000000E+00  0.00000000000E+00  0.18181176472E+02  0.18181176472E+02  0.00000000000E+00 0. -1.
          2   -1    0    0  501    0  0.00000000000E+00 -0.00000000000E+00 -0.75187587920E+03  0.75187587920E+03  0.00000000000E+00 0.  1.
         25    2    1    2    0    0 -0.21195722260E+02  0.39347002845E+02 -0.39282344990E+03  0.41468446762E+03  0.12512193901E+03 0.  0.
          5    1    3    3  502    0 -0.32017846125E+02 -0.40554205447E+02 -0.14049632172E+03  0.14975471567E+03  0.41800000000E+01 0.  1.
         -5    1    3    3    0  502  0.10822123865E+02  0.79901208292E+02 -0.25232712818E+03  0.26492975195E+03  0.41800000000E+01 0.  1.
        -11    1    1    2    0    0  0.55584076652E+02 -0.31693664272E+02 -0.19164916784E+03  0.20204821570E+03  0.00000000000E+00 0. -1.
         11    1    1    2    0    0 -0.34388354392E+02 -0.76533385729E+01 -0.14922208499E+03  0.15332437235E+03  0.00000000000E+00 0.  1.
</event>
<event>
 6    1  0.2412631E-010  0.1106827E+03  0.7561462E-02  0.1259311E+00
          1   -1    0    0  501    0  0.00000000000E+00  0.00000000000E+00  0.29661987385E+03  0.29661987385E+03  0.00000000000E+00 0.  1.
         -1   -1    0    0    0  501 -0.00000000000E+00 -0.00000000000E+00 -0.51193383078E+02  0.51193383078E+02  0.00000000000E+00 0. -1.
          5    1    1    2  502    0 -0.27747650209E+02 -0.83936738532E+02  0.36534235442E+02  0.95747224120E+02  0.41800000000E+01 0. -1.
         -5    1    1    2    0  502  0.12033600349E+02  0.26362443046E+02  0.80624600805E+02  0.85776363852E+02  0.41800000000E+01 0. -1.
        -11    1    1    2    0    0 -0.35100339612E+02  0.26963282460E+02  0.38338690818E+02  0.58556875391E+02  0.00000000000E+00 0.  1.
         11    1    1    2    0    0  0.50814389472E+02  0.30611013025E+02  0.89928963703E+02  0.10773279356E+03  0.00000000000E+00 0. -1.
</event>
<event>
 6    1  0.2412631E-010  0.1084164E+03  0.7561462E-02  0.1263531E+00
          2   -1    0    0  501    0  0.00000000000E+00  0.00000000000E+00  0.69982700743E+02  0.69982700743E+02  0.00000000000E+00 0. -1.
         -2   -1    0    0    0  501 -0.00000000000E+00 -0.00000000000E+00 -0.26434138842E+03  0.26434138842E+03  0.00000000000E+00 0.  1.
          5    1    1    2  502    0 -0.73164302846E+02 -0.14650807885E+02  0.57920189064E+01  0.74957863267E+02  0.41800000000E+01 0.  1.
         -5    1    1    2    0  502  0.92316775267E+01  0.46344536333E+02 -0.65380980227E+02  0.80778616560E+02  0.41800000000E+01 0.  1.
        -11    1    1    2    0    0 -0.53009216764E+01 -0.24484386267E+02  0.19919628894E+01  0.25130715423E+02  0.00000000000E+00 0. -1.
         11    1    1    2    0    0  0.69233546995E+02 -0.72093421807E+01 -0.13676168924E+03  0.15345689391E+03  0.00000000000E+00 0.  1.
</event>
<event>
 7    1  0.2412631E-010  0.8893021E+02  0.7561462E-02  0.1305463E+00
          2   -1    0    0  501    0  0.00000000000E+00  0.00000000000E+00  0.58748755012E+03  0.58748755012E+03  0.00000000000E+00 0. -1.
         -2   -1    0    0    0  501 -0.00000000000E+00 -0.00000000000E+00 -0.25954658956E+02  0.25954658956E+02  0.00000000000E+00 0.  1.
         25    2    1    2    0    0 -0.38129097774E+02  0.33968033376E+02  0.25144156896E+03  0.28542342680E+03  0.12504405053E+03 0.  0.
          5    1    3    3  502    0  0.30464618047E+01  0.29744765910E+02 -0.37503181609E+00  0.30193460839E+02  0.41800000000E+01 0. -1.
         -5    1    3    3    0  502 -0.41175559579E+02  0.42232674661E+01  0.25181660078E+03  0.25522996596E+03  0.41800000000E+01 0. -1.
        -11    1    1    2    0    0  0.66337852597E+02 -0.39660921024E+02  0.24359501854E+03  0.25556258021E+03  0.00000000000E+00 0. -1.
         11    1    1    2    0    0 -0.28208754822E+02  0.56928876481E+01  0.66496303660E+02  0.72456202073E+02  0.00000000000E+00 0.  1.
</event>
<event>
 7    1  0.2412631E-010  0.2402114E+03  0.7561462E-02  0.1119652E+00
         -1   -1    0    0    0  501 -0.00000000000E+00  0.00000000000E+00  0.40369998638E+03  0.40369998638E+03  0.00000000000E+00 0.  1.
          1   -1    0    0  501    0  0.00000000000E+00 -0.00000000000E+00 -0.15971070097E+03  0.15971070097E+03  0.00000000000E+00 0. -1.
         25    2    1    2    0    0 -0.11527283934E+03 -0.19265510016E+03  0.75923592163E+02  0.26799794482E+03  0.12511870952E+03 0.  0.
          5    1    3    3  502    0 -0.12213832032E+03 -0.87609123586E+02  0.31338801084E+02  0.15359922096E+03  0.41800000000E+01 0. -1.
         -5    1    3    3    0  502  0.68654809843E+01 -0.10504597658E+03  0.44584791079E+02  0.11439872386E+03  0.41800000000E+01 0. -1.
        -11    1    1    2    0    0  0.66294567607E+02  0.11966283120E+03  0.44667479157E+02  0.14390742357E+03  0.00000000000E+00 0.  1.
         11    1    1    2    0    0  0.48978271733E+02  0.72992268964E+02  0.12339821410E+03  0.15150531896E+03  0.00000000000E+00 0. -1.
</event>
<event>
 7    1  0.2412631E-010  0.2202956E+03  0.7561462E-02  0.1133663E+00
         -1   -1    0    0    0  501 -0.00000000000E+00  0.00000000000E+00  0.32776892351E+02  0.32776892351E+02  0.00000000000E+00 0.  1.
          1   -1    0    0  501    0  0.00000000000E+00 -0.00000000000E+00 -0.17132601301E+04  0.17132601301E+04  0.00000000000E+00 0. -1.
         25    2    1    2    0    0 -0.62152079885E+02  0.20088377607E+03 -0.90073335430E+03  0.93337746130E+03  0.12512288837E+03 0.  0.
          5    1    3    3  502    0 -0.64024816224E+01  0.67819171613E+02 -0.54835647933E+03  0.55258730770E+03  0.41800000000E+01 0. -1.
         -5    1    3    3    0  502 -0.55749598262E+02  0.13306460445E+03 -0.35237687497E+03  0.38079015360E+03  0.41800000000E+01 0. -1.
        -11    1    1    2    0    0  0.79478391305E+01 -0.15979634046E+03 -0.51271023408E+03  0.53709386768E+03  0.00000000000E+00 0.  1.
         11    1    1    2    0    0  0.54204240754E+02 -0.41087435604E+02 -0.26703964936E+03  0.27556569346E+03  0.00000000000E+00 0. -1.
</event>
<event>
 7    1  0.2412631E-010  0.1259609E+03  0.7561462E-02  0.1233575E+00
         -1   -1    0    0    0  501 -0.00000000000E+00  0.00000000000E+00  0.82366651116E+02  0.82366651116E+02  0.00000000000E+00 0.  1.
          1   -1    0    0  501    0  0.00000000000E+00 -0.00000000000E+00 -0.25596978685E+03  0.25596978685E+03  0.00000000000E+00 0. -1.
         25    2    1    2    0    0  0.30166389625E+02 -0.89842562295E+02 -0.81317662527E+02  0.17673872465E+03  0.12506925077E+03 0.  0.
          5    1    3    3  502    0 -0.20948239465E+02 -0.50488371440E+02  0.18463598766E+02  0.57847050631E+02  0.41800000000E+01 0. -1.
         -5    1    3    3    0  502  0.51114629090E+02 -0.39354190855E+02 -0.99781261294E+02  0.11889167402E+03  0.41800000000E+01 0. -1.
        -11    1    1    2    0    0 -0.38635532838E+02 -0.34411000089E+01 -0.23057611411E+02  0.45124261888E+02  0.00000000000E+00 0. -1.
         11    1    1    2    0    0  0.84691432135E+01  0.93283662304E+02 -0.69227861796E+02  0.11647345143E+03  0.00000000000E+00 0.  1.
</event>
<event>
 7    1  0.2412631E-010  0.7538149E+02  0.7561462E-02  0.1342694E+00
          1   -1    0    0  501    0  0.00000000000E+00  0.00000000000E+00  0.29720237070E+03  0.29720237070E+03  0.00000000000E+00 0. -1.
         -1   -1    0    0    0  501 -0.00000000000E+00 -0.00000000000E+00 -0.58440372619E+02  0.58440372619E+02  0.00000000000E+00 0.  1.
         25    2    1    2    0    0 -0.96830601878E+01  0.30521281333E+02  0.41489392650E+02  0.13557767418E+03  0.12503849714E+03 0.  0.
          5    1    3    3  502    0  0.27036111838E+02  0.22435342463E+02  0.76340626931E+02  0.84140713421E+02  0.41800000000E+01 0.  1.
         -5    1    3    3    0  502 -0.36719172025E+02  0.80859388701E+01 -0.34851234281E+02  0.51436960763E+02  0.41800000000E+01 0.  1.
        -11    1    1    2    0    0  0.14982154665E+02  0.20979197153E+02  0.14204420043E+03  0.14436463052E+03  0.00000000000E+00 0. -1.
         11    1    1    2    0    0 -0.52990944776E+01 -0.51500478486E+02  0.55228405010E+02  0.75700438615E+02  0.00000000000E+00 0.  1.
</event>
<event>
 6    1  0.2412631E-010  0.1239993E+03  0.7561462E-02  0.1236641E+00
         -2   -1    0    0    0  501 -0.00000000000E+00  0.00000000000E+00  0.15100297243E+03  0.15100297243E+03  0.00000000000E+00 0.  1.
          2   -1    0    0  501    0  0.00000000000E+00 -0.00000000000E+00 -0.13570371106E+03  0.13570371106E+03  0.00000000000E+00 0. -1.
          5    1    1    2  502    0 -0.19607994256E+02 -0.91150591376E+01  0.34372362416E+02  0.40822658413E+02  0.41800000000E+01 0.  1.
         -5    1    1    2    0  502  0.89527832886E+02  0.70823403839E+02 -0.19110998098E+02  0.11581834933E+03  0.41800000000E+01 0.  1.
        -11    1    1    2    0    0 -0.14591808264E+02 -0.53933913475E+02  0.33298964157E+02  0.65043131114E+02  0.00000000000E+00 0.  1.
         11    1    1    2    0    0 -0.55328030366E+02 -0.77744312269E+01 -0.33261067106E+02  0.65022544630E+02  0.00000000000E+00 0. -1.
</event>
<event>
 7    1  0.2412631E-010  0.1157456E+03  0.7561462E-02  0.1250285E+00
         -1   -1    0    0    0  501 -0.00000000000E+00  0.00000000000E+00  0.16634033104E+03  0.16634033104E+03  0.00000000000E+00 0.  1.
          1   -1    0    0  501    0  0.00000000000E+00 -0.00000000000E+00 -0.10486498462E+03  0.10486498462E+03  0.00000000000E+00 0. -1.
         25    2    1    2    0    0  0.33325421231E+02 -0.67647355098E+02  0.17402479198E+02  0.14707704025E+03  0.12506822592E+03 0.  0.
          5    1    3    3  502    0  0.71589816641E+02 -0.14125525312E+02  0.31618809389E+02  0.79635757165E+02  0.41800000000E+01 0. -1.
         -5    1    3    3    0  502 -0.38264395410E+02 -0.53521829786E+02 -0.14216330191E+02  0.67441283083E+02  0.41800000000E+01 0. -1.
        -11    1    1    2    0    0 -0.45718973186E+02  0.65530063432E+02  0.16906508841E+01  0.79920410554E+02  0.00000000000E+00 0. -1.
         11    1    1    2    0    0  0.12393551955E+02  0.21172916658E+01  0.42382216335E+02  0.44207864861E+02  0.00000000000E+00 0.  1.
</event>
<event>
 7    1  0.2412631E-010  0.2359506E+03  0.7561462E-02  0.1122520E+00
          2   -1    0    0  501    0  0.00000000000E+00  0.00000000000E+00  0.11958176160E+04  0.11958176160E+04  0.00000000000E+00 0. -1.
         -2   -1    0    0    0  501 -0.00000000000E+00 -0.00000000000E+00 -0.52732632455E+02  0.52732632455E+02  0.00000000000E+00 0.  1.
         25    2    1    2    0    0  0.20235463764E+03  0.80188375852E+02  0.43576724581E+03  0.50291659583E+03  0.12511768396E+03 0.  0.
          5    1    3    3  502    0  0.36925460507E+02 -0.30343599735E+02  0.12503395343E+03  0.13392231177E+03  0.41800000000E+01 0. -1.
         -5    1    3    3    0  502  0.16542917713E+03  0.11053197559E+03  0.31073329238E+03  0.36899428406E+03  0.41800000000E+01 0. -1.
        -11    1    1    2    0    0 -0.66433443758E+02 -0.55956876748E+02  0.39043468030E+03  0.39997976710E+03  0.00000000000E+00 0.  1.
         11    1    1    2    0    0 -0.13592119388E+03 -0.24231499104E+02  0.31688305742E+03  0.34565388552E+03  0.00000000000E+00 0. -1.
</event>
<event>
 6    1  0.2412631E-010  0.9220194E+02  0.7561462E-02  0.1297605E+00
          2   -1    0    0  501    0  0.00000000000E+00  0.00000000000E+00  0.16645838954E+02  0.16645838954E+02  0.00000000000E+00 0.  1.
         -2   -1    0    0    0  501 -0.00000000000E+00 -0.00000000000E+00 -0.11110821388E+04  0.11110821388E+04  0.00000000000E+00 0. -1.
          5    1    1    2  502    0  0.27214290552E+02 -0.62512717311E+02 -0.83762136388E+03  0.84040197469E+03  0.41800000000E+01 0. -1.
         -5    1    1    2    0  502 -0.10998017449E+02  0.67457015000E+01 -0.67122811880E+01  0.15132349298E+02  0.41800000000E+01 0. -1.
        -11    1    1    2    0    0  0.34359281094E+02  0.14644013887E+02 -0.54944241643E+02  0.66437015509E+02  0.00000000000E+00 0.  1.
         11    1    1    2    0    0 -0.50575554197E+02  0.41123001925E+02 -0.19515841317E+03  0.20575663829E+03  0.00000000000E+00 0. -1.
</event>
<event>
 7    1  0.2412631E-010  0.1156267E+03  0.7561462E-02  0.1250491E+00
          1   -1    0    0  501    0  0.00000000000E+00  0.00000000000E+00  0.30422014417E+03  0.30422014417E+03  0.00000000000E+00 0. -1.
         -1   -1    0    0    0  501 -0.00000000000E+00 -0.00000000000E+00 -0.66051901117E+02  0.66051901117E+02  0.00000000000E+00 0.  1.
         25    2    1    2    0    0  0.49082327004E+02 -0.62870612868E+02  0.18389423946E+03  0.23629830276E+03  0.12513196151E+03 0.  0.
          5    1    3    3  502    0  0.47448592343E+02  0.16716245815E+02  0.20476355838E+02  0.54475272720E+02  0.41800000000E+01 0. -1.
         -5    1    3    3    0  502  0.16337346608E+01 -0.79586858682E+02  0.16341788363E+03  0.18182303004E+03  0.41800000000E+01 0. -1.
        -11    1    1    2    0    0 -0.64101732980E+02  0.50717724315E+02  0.59791822582E+01  0.81957735152E+02  0.00000000000E+00 0.  1.
         11    1    1    2    0    0  0.15019405976E+02  0.12152888553E+02  0.48294821325E+02  0.52016007372E+02  0.00000000000E+00 0. -1.
</event>
<event>
 7    1  0.2412631E-010  0.1308385E+03  0.7561462E-02  0.1226217E+00
         -2   -1    0    0    0  501 -0.00000000000E+00  0.00000000000E+00  0.14884966907E+03  0.14884966907E+03  0.00000000000E+00 0.  1.
          2   -1    0    0  501    0  0.00000000000E+00 -0.00000000000E+00 -0.16271323063E+03  0.16271323063E+03  0.00000000000E+00 0. -1.
         25    2    1    2    0    0  0.11026894728E+03  0.11330645210E+02 -0.11780717900E+02  0.16753498960E+03  0.12506623513E+03 0.  0.
          5    1    3    3  502    0  0.37825025585E+02  0.27553478061E+02 -0.62013468725E+02  0.77801474388E+02  0.41800000000E+01 0. -1.
         -5    1    3    3    0  502  0.72443921695E+02 -0.16222832850E+02  0.50232750824E+02  0.89733515208E+02  0.41800000000E+01 0. -1.
        -11    1    1    2    0    0  0.69149099044E+01  0.18218196897E+02  0.11154619207E+02  0.22453155832E+02  0.00000000000E+00 0. -1.
         11    1    1    2    0    0 -0.11718385718E+03 -0.29548842107E+02 -0.13237462863E+02  0.12157475428E+03  0.00000000000E+00 0.  1.
</event>
<event>
 6    1  0.2412631E-010  0.1284806E+03  0.7561462E-02  0.1229728E+00
          1   -1    0    0  501    0  0.00000000000E+00  0.00000000000E+00  0.80719080523E+03  0.80719080523E+03  0.00000000000E+00 0. -1.
         -1   -1    0    0    0  501 -0.00000000000E+00 -0.00000000000E+00 -0.35171291640E+02  0.35171291640E+02  0.00000000000E+00 0.  1.
          5    1    1    2  502    0 -0.95842711575E+02 -0.43469118827E+02  0.15444079298E+03  0.18693533800E+03  0.41800000000E+01 0. -1.
         -5    1    1    2    0  502 -0.20323646555E+02 -0.48998944960E+01  0.30409382037E+03  0.30484025909E+03  0.41800000000E+01 0. -1.
        -11    1    1    2    0    0  0.10425583067E+03  0.30106857483E+02  0.31007930080E+03  0.32851921386E+03  0.00000000000E+00 0. -1.
         11    1    1    2    0    0  0.11910527463E+02  0.18262155840E+02  0.34055994416E+01  0.22067285922E+02  0.00000000000E+00 0.  1.
</event>
<event>
 6    1  0.2412631E-010  0.1398923E+03  0.7561462E-02  0.1213474E+00
          1   -1    0    0  501    0  0.00000000000E+00  0.00000000000E+00  0.63025039902E+03  0.63025039902E+03  0.00000000000E+00 0. -1.
         -1   -1    0    0    0  501 -0.00000000000E+00 -0.00000000000E+00 -0.49425159380E+02  0.49425159380E+02  0.00000000000E+00 0.  1.
          5    1    1    2  502    0  0.59128865231E+01  0.15736054277E+02  0.20173471795E+03  0.20247704674E+03  0.41800000000E+01 0.  1.
         -5    1    1    2    0  502 -0.41476599054E+01  0.12299579462E+03  0.13611633978E+03  0.18354917306E+03  0.41800000000E+01 0.  1.
        -11    1    1    2    0    0  0.53618022893E+01 -0.76369759977E+02  0.51802550548E+02  0.92436969909E+02  0.00000000000E+00 0.  1.
         11    1    1    2    0    0 -0.71270289070E+01 -0.62362088917E+02  0.19117163137E+03  0.20121236869E+03  0.00000000000E+00 0. -1.
</event>
<event>
 7    1  0.2412631E-010  0.1724382E+03  0.7561462E-02  0.1175329E+00
         -2   -1    0    0    0  501 -0.00000000000E+00  0.00000000000E+00  0.24518697005E+02  0.24518697005E+02  0.00000000000E+00 0.  1.
          2   -1    0    0  501    0  0.00000000000E+00 -0.00000000000E+00 -0.13424794632E+04  0.13424794632E+04  0.00000000000E+00 0. -1.
         25    2    1    2    0    0  0.14309604808E+03  0.22335290034E+01 -0.73402257426E+03  0.75823724473E+03  0.12511239807E+03 0.  0.
          5    1    3    3  502    0  0.13371468532E+01 -0.29856048198E+02 -0.27705382600E+03  0.27869242271E+03  0.41800000000E+01 0.  1.
         -5    1    3    3    0  502  0.14175890123E+03  0.32089577201E+02 -0.45696874826E+03  0.47954482202E+03  0.41800000000E+01 0.  1.
        -11    1    1    2    0    0 -0.12589951277E+03 -0.36389622286E+02 -0.49272947227E+03  0.50986000507E+03  0.00000000000E+00 0. -1.
         11    1    1    2    0    0 -0.17196535311E+02  0.34156093282E+02 -0.91208719663E+02  0.98900910398E+02  0.00000000000E+00 0.  1.
</event>
<event>
 7    1  0.2412631E-010  0.9919489E+02  0.7561462E-02  0.1281998E+00
          1   -1    0    0  501    0  0.00000000000E+00  0.00000000000E+00  0.28011367136E+03  0.28011367136E+03  0.00000000000E+00 0. -1.
         -1   -1    0    0    0  501 -0.00000000000E+00 -0.00000000000E+00 -0.52014165425E+02  0.52014165425E+02  0.00000000000E+00 0.  1.
         25    2    1    2    0    0  0.39632832912E+02  0.33547700231E+02  0.13684076227E+03  0.19250163459E+03  0.12504109510E+03 0.  0.
          5    1    3    3  502    0  0.93558758718E+01  0.57329520233E+02  0.90068434294E+01  0.58930483895E+02  0.41800000000E+01 0. -1.
         -5    1    3    3    0  502  0.30276957040E+02 -0.23781820002E+02  0.12783391884E+03  0.13357115069E+03  0.41800000000E+01 0. -1.
        -11    1    1    2    0    0  0.14055732948E+02  0.20752395079E+02  0.72347341519E+01  0.26087677330E+02  0.00000000000E+00 0.  1.
         11    1    1    2    0    0 -0.53688565860E+02 -0.54300095311E+02  0.84024009507E+02  0.11353852486E+03  0.00000000000E+00 0. -1.
</event>
<event>
 7    1  0.2551476E-010  0.1120383E+03  0.7561462E-02  0.1256841E+00
          3   -1    0    0  501    0  0.00000000000E+00  0.00000000000E+00  0.60992123218E+02  0.60992123218E+02  0.00000000000E+00 0. -1.
         -3   -1    0    0    0  501 -0.00000000000E+00 -0.00000000000E+00 -0.28682600141E+03  0.28682600141E+03  0.00000000000E+00 0.  1.
         25    2    1    2    0    0 -0.60498461716E+02  0.23628201348E+02 -0.73966923708E+02  0.15915493453E+03  0.12506331043E+03 0.  0.
          5    1    3    3  502    0  0.26484336445E+02  0.18833947110E+02 -0.63316129398E+02  0.71291951037E+02  0.41800000000E+01 0.  1.
         -5    1    3    3    0  502 -0.86982798161E+02  0.47942542382E+01 -0.10650794310E+02  0.87862983498E+02  0.41800000000E+01 0.  1.
        -11    1    1    2    0    0 -0.17967625981E+02 -0.17992075235E+02 -0.11834898704E+02  0.28046660800E+02  0.00000000000E+00 0. -1.
         11    1    1    2    0    0  0.78466087697E+02 -0.56361261127E+01 -0.14003205578E+03  0.16061652929E+03  0.00000000000E+00 0.  1.
</event>
<event>
 7    1  0.3028489E-010  0.1237268E+03  0.7561462E-02  0.1237073E+00
          2   -1    0    0  501    0  0.00000000000E+00  0.00000000000E+00  0.18726141370E+03  0.18726141370E+03  0.00000000000E+00 0.  1.
         -2   -1    0    0    0  501 -0.00000000000E+00 -0.00000000000E+00 -0.10055568626E+03  0.10055568626E+03  0.00000000000E+00 0. -1.
         25    2    1    2    0    0 -0.26787416491E+02  0.76799260287E+02  0.27532466332E+02  0.15170247086E+03  0.12505962938E+03 0.  0.
          5    1    3    3  502    0  0.34578447766E+02  0.11124423833E+02  0.47092923595E+02  0.59620782520E+02  0.41800000000E+01 0.  1.
         -5    1    3    3    0  502 -0.61365864257E+02  0.65674836454E+02 -0.19560457263E+02  0.92081688340E+02  0.41800000000E+01 0.  1.
        -11    1    1    2    0    0  0.58255831869E+02 -0.32922228045E+02  0.21530866154E+02  0.70293621642E+02  0.00000000000E+00 0.  1.
         11    1    1    2    0    0 -0.31468415379E+02 -0.43877032243E+02  0.37642394952E+02  0.65821007456E+02  0.00000000000E+00 0. -1.
</event>
<event>
 6    1  0.2412631E-010  0.1930847E+03  0.7561462E-02  0.1155708E+00
          1   -1    0    0  501    0  0.00000000000E+00  0.00000000000E+00  0.43823424519E+03  0.43823424519E+03  0.00000000000E+00 0. -1.
         -1   -1    0    0    0  501 -0.00000000000E+00 -0.00000000000E+00 -0.10872627674E+03  0.10872627674E+03  0.00000000000E+00 0.  1.
          5    1    1    2  502    0  0.27837267515E+02  0.17009855075E+03  0.13650605401E+03  0.21990863015E+03  0.41800000000E+01 0.  1.
         -5    1    1    2    0  502  0.10711860712E+02  0.58857797303E+01  0.10738272510E+03  0.10815686946E+03  0.41800000000E+01 0.  1.
        -11    1    1    2    0    0  0.26266881550E+00 -0.15810965260E+03  0.74262195197E+02  0.17468143827E+03  0.00000000000E+00 0.  1.
         11    1    1    2    0    0 -0.38811797043E+02 -0.17874677889E+02  0.11356994148E+02  0.44213584060E+02  0.00000000000E+00 0. -1.
</event>
<event>
 6    1  0.2412631E-010  0.1039384E+03  0.7561462E-02  0.1272225E+00
         -1   -1    0    0    0  501 -0.00000000000E+00  0.00000000000E+00  0.14551610259E+03  0.14551610259E+03  0.00000000000E+00 0.  1.
          1   -1    0    0  501    0  0.00000000000E+00 -0.00000000000E+00 -0.15609646288E+03  0.15609646288E+03  0.00000000000E+00 0. -1.
          5    1    1    2  502    0  0.63857582272E+02  0.21209055058E+00  0.35707649564E+02  0.73282633915E+02  0.41800000000E+01 0. -1.
         -5    1    1    2    0  502  0.35284463218E+02  0.34322603407E+01 -0.87868789355E+02  0.94842871627E+02  0.41800000000E+01 0. -1.
        -11    1    1    2    0    0 -0.68712860810E+02  0.17773836567E+02 -0.80787400856E+01  0.71432713433E+02  0.00000000000E+00 0. -1.
         11    1    1    2    0    0 -0.30429184680E+02 -0.21418187458E+02  0.49659519584E+02  0.62054346500E+02  0.00000000000E+00 0.  1.
</event>
<event>
 7    1  0.2412631E-010  0.1634177E+03  0.7561462E-02  0.1184891E+00
         -2   -1    0    0    0  501 -0.00000000000E+00  0.00000000000E+00  0.22123425911E+02  0.22123425911E+02  0.00000000000E+00 0. -1.
          2   -1    0    0  501    0  0.00000000000E+00 -0.00000000000E+00 -0.14323037104E+04  0.14323037104E+04  0.00000000000E+00 0.  1.
         25    2    1    2    0    0 -0.44624960818E+02 -0.13244936075E+03 -0.79610821911E+03  0.81789943540E+03  0.12504786924E+03 0.  0.
          5    1    3    3  502    0 -0.51225283551E+02 -0.28037580797E+02 -0.50786867372E+03  0.51123203905E+03  0.41800000000E+01 0. -1.
         -5    1    3    3    0  502  0.66003227330E+01 -0.10441177995E+03 -0.28823954540E+03  0.30666739635E+03  0.41800000000E+01 0. -1.
        -11    1    1    2    0    0  0.69394094053E+02  0.82285665212E+02 -0.46519358148E+03  0.47748459581E+03  0.00000000000E+00 0.  1.
         11    1    1    2    0    0 -0.24769133234E+02  0.50163695539E+02 -0.14887848391E+03  0.15904310511E+03  0.00000000000E+00 0. -1.
</event>
<event>
 7    1  0.2412631E-010  0.1203125E+03  0.7561462E-02  0.1242582E+00
         -2   -1    0    0    0  501 -0.00000000000E+00  0.00000000000E+00  0.11026287237E+02  0.11026287237E+02  0.00000000000E+00 0. -1.
          2   -1    0    0  501    0  0.00000000000E+00 -0.00000000000E+00 -0.15970170418E+04  0.15970170418E+04  0.00000000000E+00 0.  1.
         25    2    1    2    0    0 -0.25700735138E+01 -0.49873203415E+02 -0.11922145206E+04  0.11998021667E+04  0.12512327615E+03 0.  0.
          5    1    3    3  502    0  0.47358818318E+02 -0.66267917501E+02 -0.67570565436E+03  0.68060994579E+03  0.41800000000E+01 0. -1.
         -5    1    3    3    0  502 -0.49928891832E+02  0.16394714085E+02 -0.51650886627E+03  0.51919222088E+03  0.41800000000E+01 0. -1.
        -11    1    1    2    0    0  0.33418056174E+02  0.64169026754E+02 -0.23589404656E+03  0.24673960297E+03  0.00000000000E+00 0. -1.
         11    1    1    2    0    0 -0.30847982660E+02 -0.14295823339E+02 -0.15788218739E+03  0.16150155942E+03  0.00000000000E+00 0.  1.
</event>
<event>
 6    1  0.2412631E-010  0.1359471E+03  0.7561462E-02  0.1218889E+00
          3   -1    0    0  501    0  0.00000000000E+00  0.00000000000E+00  0.56767245569E+03  0.56767245569E+03  0.00000000000E+00 0. -1.
         -3   -1    0    0    0  501 -0.00000000000E+00 -0.00000000000E+00 -0.57126932701E+02  0.57126932701E+02  0.00000000000E+00 0.  1.
          5    1    1    2  502    0 -0.32092539281E+02 -0.56752213355E+02  0.24807148892E+03  0.25653007779E+03  0.41800000000E+01 0. -1.
         -5    1    1    2    0  502  0.82893439621E+02 -0.11358990112E+02  0.22447003827E+03  0.23959261147E+03  0.41800000000E+01 0. -1.
        -11    1    1    2    0    0 -0.11608638839E+00 -0.20610802653E+02  0.87578700224E+01  0.22394618759E+02  0.00000000000E+00 0. -1.
         11    1    1    2    0    0 -0.50684813952E+02  0.88722006120E+02  0.29246125779E+02  0.10628208037E+03  0.00000000000E+00 0.  1.
</event>
<event>
 6    1  0.2412631E-010  0.7956148E+02  0.7561462E-02  0.1330301E+00
          2   -1    0    0  501    0  0.00000000000E+00  0.00000000000E+00  0.22961220381E+03  0.22961220381E+03  0.00000000000E+00 0. -1.
         -2   -1    0    0    0  501 -0.00000000000E+00 -0.00000000000E+00 -0.75152342038E+02  0.75152342038E+02  0.00000000000E+00 0.  1.
          5    1    1    2  502    0  0.27850810220E+01 -0.29652335549E+02 -0.37246235165E+02  0.47872456734E+02  0.41800000000E+01 0.  1.
         -5    1    1    2    0  502 -0.38940305786E+02  0.52219117513E+02  0.55091040836E+02  0.85414745969E+02  0.41800000000E+01 0.  1.
        -11    1    1    2    0    0 -0.56498942381E+01 -0.21207622860E+02 -0.60836093231E+01  0.22774873757E+02  0.00000000000E+00 0.  1.
         11    1    1    2    0    0  0.41805119002E+02 -0.13591591040E+01  0.14269866542E+03  0.14870246938E+03  0.00000000000E+00 0. -1.
</event>
<event>
 7    1  0.2412631E-010  0.1443459E+03  0.7561462E-02  0.1207598E+00
          1   -1    0    0  501    0  0.00000000000E+00  0.00000000000E+00  0.17758420966E+03  0.17758420966E+03  0.00000000000E+00 0. -1.
         -1   -1    0    0    0  501 -0.00000000000E+00 -0.00000000000E+00 -0.17784791834E+03  0.17784791834E+03  0.00000000000E+00 0.  1.
         25    2    1    2    0    0  0.58251413938E+02 -0.12527054980E+03 -0.19673587432E+02  0.18738794285E+03  0.12506499595E+03 0.  0.
          5    1    3    3  502    0  0.38117683511E+02 -0.11542359348E+03 -0.64077075081E+02  0.13747329806E+03  0.41800000000E+01 0. -1.
         -5    1    3    3    0  502  0.20133730428E+02 -0.98469563203E+01  0.44403487649E+02  0.49914644796E+02  0.41800000000E+01 0. -1.
        -11    1    1    2    0    0 -0.18035349733E+02  0.70018493145E+01  0.37136125371E+02  0.41873518378E+02  0.00000000000E+00 0. -1.
         11    1    1    2    0    0 -0.40216064205E+02  0.11826870049E+03 -0.17726246617E+02  0.12617066677E+03  0.00000000000E+00 0.  1.
</event>
<event>
 7    1  0.2412631E-010  0.1030454E+03  0.7561462E-02  0.1274019E+00
         -1   -1    0    0    0  501 -0.00000000000E+00  0.00000000000E+00  0.11674853864E+03  0.11674853864E+03  0.00000000000E+00 0.  1.
          1   -1    0    0  501    0  0.00000000000E+00 -0.00000000000E+00 -0.95198480691E+02  0.95198480691E+02  0.00000000000E+00 0. -1.
         25    2    1    2    0    0 -0.82815335961E+00 -0.22517731643E+02 -0.42826245537E+01  0.12719596017E+03  0.12511090014E+03 0.  0.
          5    1    3    3  502    0 -0.61797653749E+02 -0.16201295359E+02  0.80668905163E+01  0.64528901299E+02  0.41800000000E+01 0. -1.
         -5    1    3    3    0  502  0.60969500389E+02 -0.63164362839E+01 -0.12349515070E+02  0.62667058871E+02  0.41800000000E+01 0. -1.
        -11    1    1    2    0    0 -0.37956956653E+02  0.16469542519E+02  0.15235570444E+02  0.44091937992E+02  0.00000000000E+00 0. -1.
         11    1    1    2    0    0  0.38785110013E+02  0.60481891242E+01  0.10597112061E+02  0.40659121172E+02  0.00000000000E+00 0.  1.
</event>
<event>
 6    1  0.2412631E-010  0.8753340E+02  0.7561462E-02  0.1308937E+00
         -4   -1    0    0    0  501 -0.00000000000E+00  0.00000000000E+00  0.11512666971E+03  0.11512666971E+03  0.00000000000E+00 0.  1.
          4   -1    0    0  501    0  0.00000000000E+00 -0.00000000000E+00 -0.12938101732E+03  0.12938101732E+03  0.00000000000E+00 0. -1.
          5    1    1    2  502    0  0.35071649210E+02  0.41610967100E+02  0.68417183383E+02  0.87520720651E+02  0.41800000000E+01 0. -1.
         -5    1    1    2    0  502  0.44526051518E+01 -0.19160158893E+02 -0.43535503410E+02  0.47955707049E+02  0.41800000000E+01 0. -1.
        -11    1    1    2    0    0 -0.31279155983E+02 -0.56913042667E+02 -0.33753307132E+02  0.73189929410E+02  0.00000000000E+00 0. -1.
         11    1    1    2    0    0 -0.82450983788E+01  0.34462234460E+02 -0.53827204507E+01  0.35841329924E+02  0.00000000000E+00 0.  1.
</event>
<event>
 7    1  0.2412631E-010  0.1000382E+03  0.7561462E-02  0.1280216E+00
          1   -1    0    0  501    0  0.00000000000E+00  0.00000000000E+00  0.40151255124E+03  0.40151255124E+03  0.00000000000E+00 0.  1.
         -1   -1    0    0    0  501 -0.00000000000E+00 -0.00000000000E+00 -0.30441297176E+02  0.30441297176E+02  0.00000000000E+00 0. -1.
         25    2    1    2    0    0 -0.22483274695E+02 -0.64591032362E+01  0.16470453517E+03  0.20812724949E+03  0.12506858287E+03 0.  0.
          5    1    3    3  502    0 -0.45474963891E+02 -0.54147633626E+02  0.11683654034E+03  0.13663157807E+03  0.41800000000E+01 0.  1.
         -5    1    3    3    0  502  0.22991689196E+02  0.47688530390E+02  0.47867994833E+02  0.71495671422E+02  0.41800000000E+01 0.  1.
        -11    1    1    2    0    0 -0.11983291002E+02  0.31389080487E+02  0.40652489759E+02  0.52739914302E+02  0.00000000000E+00 0. -1.
         11    1    1    2    0    0  0.34466565697E+02 -0.24929977250E+02  0.16571422913E+03  0.17108668462E+03  0.00000000000E+00 0.  1.
</event>
<event>
 7    1  0.2412631E-010  0.1509433E+03  0.7561462E-02  0.1199319E+00
         -2   -1    0    0    0  501 -0.00000000000E+00  0.00000000000E+00  0.11273791549E+03  0.11273791549E+03  0.00000000000E+00 0.  1.
          2   -1    0    0  501    0  0.00000000000E+00 -0.00000000000E+00 -0.21040930799E+03  0.21040930799E+03  0.00000000000E+00 0. -1.
         25    2    1    2    0    0  0.93650796543E+02 -0.53177397677E+02 -0.36039605205E+02  0.16892889537E+03  0.12505923089E+03 0.  0.
          5    1    3    3  502    0  0.76976951094E+02  0.26992635524E+02 -0.71328158966E+01  0.81990260610E+02  0.41800000000E+01 0.  1.
         -5    1    3    3    0  502  0.16673845449E+02 -0.80170033201E+02 -0.28906789308E+02  0.86938634758E+02  0.41800000000E+01 0.  1.
        -11    1    1    2    0    0 -0.88227784678E+02  0.35573338315E+01 -0.23410896887E+02  0.91350241960E+02  0.00000000000E+00 0.  1.
         11    1    1    2    0    0 -0.54230118655E+01  0.49620063845E+02 -0.38220890403E+02  0.62868086156E+02  0.00000000000E+00 0. -1.
</event>
<event>
 6    1  0.2412631E-010  0.1737396E+03  0.7561462E-02  0.1174003E+00
         -1   -1    0    0    0  501 -0.00000000000E+00  0.00000000000E+00  0.10943136315E+03  0.10943136315E+03  0.00000000000E+00 0.  1.
          1   -1    0    0  501    0  0.00000000000E+00 -0.00000000000E+00 -0.27895913842E+03  0.27895913842E+03  0.00000000000E+00 0. -1.
          5    1    1    2  502    0 -0.51177194672E+02 -0.25978405549E+02 -0.16477575155E+02  0.59857879117E+02  0.41800000000E+01 0.  1.
         -5    1    1    2    0  502  0.63253819184E+02 -0.10980264330E+03 -0.59279749702E+02  0.13996152058E+03  0.41800000000E+01 0.  1.
        -11    1    1    2    0    0  0.26707505113E+02  0.55703943673E+01 -0.10584694332E+02  0.29263558855E+02  0.00000000000E+00 0.  1.
         11    1    1    2    0    0 -0.38784129625E+02  0.13021065448E+03 -0.83185756081E+02  0.15930754303E+03  0.00000000000E+00 0. -1.
</event>
<event>
 7    1  0.2412631E-010  0.8707061E+02  0.7561462E-02  0.1310105E+00
         -4   -1    0    0    0  501 -0.00000000000E+00  0.00000000000E+00  0.48361808848E+02  0.48361808848E+02  0.00000000000E+00 0.  1.
          4   -1    0    0  501    0  0.00000000000E+00 -0.00000000000E+00 -0.23964917072E+03  0.23964917072E+03  0.00000000000E+00 0. -1.
         25    2    1    2    0    0 -0.19133451152E+01  0.10069262746E+02 -0.99973677573E+02  0.16043480051E+03  0.12505813874E+03 0.  0.
          5    1    3    3  502    0  0.31698307834E+02  0.33424047277E+02  0.61070075242E+01  0.46655306202E+02  0.41800000000E+01 0. -1.
         -5    1    3    3    0  502 -0.33611652949E+02 -0.23354784531E+02 -0.10608068510E+03  0.11377949431E+03  0.41800000000E+01 0. -1.
        -11    1    1    2    0    0  0.42649417486E+02  0.57706524195E+01 -0.30777675181E+02  0.52910665568E+02  0.00000000000E+00 0.  1.
         11    1    1    2    0    0 -0.40736072371E+02 -0.15839915165E+02 -0.60536009113E+02  0.74665513485E+02  0.00000000000E+00 0. -1.
</event>
<event>
 7    1  0.2412631E-010  0.9384144E+02  0.7561462E-02  0.1293807E+00
         -1   -1    0    0    0  501 -0.00000000000E+00  0.00000000000E+00  0.19201727627E+02  0.19201727627E+02  0.00000000000E+00 0.  1.
          1   -1    0    0  501    0  0.00000000000E+00 -0.00000000000E+00 -0.91672022035E+03  0.91672022035E+03  0.00000000000E+00 0. -1.
         25    2    1    2    0    0 -0.36636989412E+02 -0.28636392881E+01 -0.82306669461E+03  0.83333193199E+03  0.12511137306E+03 0.  0.
          5    1    3    3  502    0  0.31725430764E+02  0.38571962639E+02 -0.34133822282E+03  0.34499790437E+03  0.41800000000E+01 0.  1.
         -5    1    3    3    0  502 -0.68362420175E+02 -0.41435601927E+02 -0.48172847178E+03  0.48833402762E+03  0.41800000000E+01 0.  1.
        -11    1    1    2    0    0  0.35018626468E+02  0.19984229310E+02 -0.75253691116E+02  0.85374420334E+02  0.00000000000E+00 0. -1.
         11    1    1    2    0    0  0.16183629432E+01 -0.17120590022E+02  0.80189300532E+00  0.17215595653E+02  0.00000000000E+00 0.  1.
</event>
<event>
 6    1  0.2412631E-010  0.9810169E+02  0.7561462E-02  0.1284339E+00
          3   -1    0    0  501    0  0.00000000000E+00  0.00000000000E+00  0.58195050806E+03  0.58195050806E+03  0.00000000000E+00 0. -1.
         -3   -1    0    0    0  501 -0.00000000000E+00 -0.00000000000E+00 -0.31643396476E+02  0.31643396476E+02  0.00000000000E+00 0.  1.
          5    1    1    2  502    0  0.27269087954E+02 -0.55627720781E+02  0.92357889664E+02  0.11129015527E+03  0.41800000000E+01 0.  1.
         -5    1    1    2    0  502  0.11352902244E+02  0.24866971979E+02  0.34856613043E+03  0.34966137099E+03  0.41800000000E+01 0.  1.
        -11    1    1    2    0    0  0.17487637871E+01  0.57826419435E+02  0.60445597946E+02  0.83669727325E+02  0.00000000000E+00 0. -1.
         11    1    1    2    0    0 -0.40370753985E+02 -0.27065670633E+02  0.48937493551E+02  0.68972650951E+02  0.00000000000E+00 0.  1.
</event>
<event>
 7    1  0.2412631E-010  0.1125012E+03  0.7561462E-02  0.1256007E+00
          1   -1    0    0  501    0  0.00000000000E+00  0.00000000000E+00  0.69657681862E+03  0.69657681862E+03  0.00000000000E+00 0. -1.
         -1   -1    0    0    0  501 -0.00000000000E+00 -0.00000000000E+00 -0.24899823428E+02  0.24899823428E+02  0.00000000000E+00 0.  1.
         25    2    1    2    0    0 -0.26933384185E+02 -0.52867721155E+02  0.49343318878E+03  0.51249325625E+03  0.12511044234E+03 0.  0.
          5    1    3    3  502    0  0.27464630213E+02  0.13156386767E+02  0.29191481827E+03  0.29352875490E+03  0.41800000000E+01 0. -1.
         -5    1    3    3    0  502 -0.54398014398E+02 -0.66024107922E+02  0.20151837051E+03  0.21896450135E+03  0.41800000000E+01 0. -1.
        -11    1    1    2    0    0 -0.23073512688E+02  0.53863645000E+02  0.86264865295E+02  0.10428473630E+03  0.00000000000E+00 0.  1.
         11    1    1    2    0    0  0.50006896873E+02 -0.99592384542E+00  0.91978941115E+02  0.10469864950E+03  0.00000000000E+00 0. -1.
</event>
<event>
 7    1  0.2412631E-010  0.1180535E+03  0.7561462E-02  0.1246343E+00
         -2   -1    0    0    0  501 -0.00000000000E+00  0.00000000000E+00  0.19936344801E+03  0.19936344801E+03  0.00000000000E+00 0.  1.
          2   -1    0    0  501    0  0.00000000000E+00 -0.00000000000E+00 -0.79853462720E+02  0.79853462720E+02  0.00000000000E+00 0. -1.
         25    2    1    2    0    0 -0.48759273354E+02  0.41316193970E+02  0.62667861954E+02  0.15379371031E+03  0.12506298328E+03 0.  0.
          5    1    3    3  502    0  0.96577547573E+01  0.67975652841E+02  0.77953207056E+01  0.69225725211E+02  0.41800000000E+01 0.  1.
         -5    1    3    3    0  502 -0.58417028112E+02 -0.26659458871E+02  0.54872541248E+02  0.84567985099E+02  0.41800000000E+01 0.  1.
        -11    1    1    2    0    0  0.43990979741E+02  0.14982650112E+02  0.17443712506E+01  0.46505149543E+02  0.00000000000E+00 0. -1.
         11    1    1    2    0    0  0.47682936136E+01 -0.56298844083E+02  0.55097752082E+02  0.78918050873E+02  0.00000000000E+00 0.  1.
</event>
<event>
 7    1  0.2412631E-010  0.1553552E+03  0.7561462E-02  0.1194043E+00
          1   -1    0    0  501    0  0.00000000000E+00  0.00000000000E+00  0.19318596962E+02  0.19318596962E+02  0.00000000000E+00 0. -1.
         -1   -1    0    0    0  501 -0.00000000000E+00 -0.00000000000E+00 -0.14387505636E+04  0.14387505636E+04  0.00000000000E+00 0.  1.
         25    2    1    2    0    0  0.12500991374E+03  0.20160059782E+02 -0.71923954081E+03  0.74094528252E+03  0.12514187180E+03 0.  0.
          5    1    3    3  502    0 -0.19939078430E+02  0.23210005775E+02 -0.17533382564E+03  0.17803284537E+03  0.41800000000E+01 0.  1.
         -5    1    3    3    0  502  0.14494899217E+03 -0.30499459937E+01 -0.54390571517E+03  0.56291243715E+03  0.41800000000E+01 0.  1.
        -11    1    1    2    0    0 -0.11378571600E+03 -0.32271636026E+02 -0.68344985273E+03  0.69360820991E+03  0.00000000000E+00 0.  1.
         11    1    1    2    0    0 -0.11224197738E+02  0.12111576244E+02 -0.16742573101E+02  0.23515668139E+02  0.00000000000E+00 0. -1.
</event>
<event>
 6    1  0.2412631E-010  0.9721979E+02  0.7561462E-02  0.1286253E+00
         -2   -1    0    0    0  501 -0.00000000000E+00  0.00000000000E+00  0.19456266333E+02  0.19456266333E+02  0.00000000000E+00 0.  1.
          2   -1    0    0  501    0  0.00000000000E+00 -0.00000000000E+00 -0.87119582053E+03  0.87119582053E+03  0.00000000000E+00 0. -1.
          5    1    1    2  502    0  0.38354292862E+02  0.32595719909E+02 -0.19863051712E+03  0.20495142709E+03  0.41800000000E+01 0.  1.
         -5    1    1    2    0  502 -0.63503537642E+02 -0.35024586465E+02 -0.50262945705E+03  0.50785161656E+03  0.41800000000E+01 0.  1.
        -11    1    1    2    0    0  0.37756159864E+02 -0.22072982452E+02 -0.14264933832E+03  0.14920314301E+03  0.00000000000E+00 0. -1.
         11    1    1    2    0    0 -0.12606915084E+02  0.24501849008E+02 -0.78302417126E+01  0.28645900196E+02  0.00000000000E+00 0.  1.
</event>
<event>
 7    1  0.2412631E-010  0.1315636E+03  0.7561462E-02  0.1225154E+00
         -3   -1    0    0    0  501 -0.00000000000E+00  0.00000000000E+00  0.12326380810E+04  0.12326380810E+04  0.00000000000E+00 0.  1.
          3   -1    0    0  501    0  0.00000000000E+00 -0.00000000000E+00 -0.18404508592E+02  0.18404508592E+02  0.00000000000E+00 0. -1.
         25    2    1    2    0    0  0.97248405464E+02 -0.31069258947E+02  0.68398863077E+03  0.70277777765E+03  0.12503442134E+03 0.  0.
          5    1    3    3  502    0  0.11282218242E+03 -0.98077423669E+01  0.35365810774E+03  0.37137119736E+03  0.41800000000E+01 0. -1.
         -5    1    3    3    0  502 -0.15573776959E+02 -0.21261516580E+02  0.33033052303E+03  0.33140658029E+03  0.41800000000E+01 0. -1.
        -11    1    1    2    0    0 -0.10801171619E+03  0.30932538436E+02  0.52380952165E+03  0.53572359267E+03  0.00000000000E+00 0.  1.
         11    1    1    2    0    0  0.10763310727E+02  0.13672051157E+00  0.64354199748E+01  0.12541219261E+02  0.00000000000E+00 0. -1.
</event>
<event>
 7    1  0.2412631E-010  0.8574824E+02  0.7561462E-02  0.1313487E+00
         -1   -1    0    0    0  501 -0.00000000000E+00  0.00000000000E+00  0.96820653417E+01  0.96820653417E+01  0.00000000000E+00 0.  1.
          1   -1    0    0  501    0  0.00000000000E+00 -0.00000000000E+00 -0.14769172181E+04  0.14769172181E+04  0.00000000000E+00 0. -1.
         25    2    1    2    0    0 -0.12925542402E+02 -0.34813950547E+02 -0.10279640707E+04  0.10362187630E+04  0.12514037380E+03 0.  0.
          5    1    3    3  502    0 -0.13483383600E+02  0.15999797656E+02 -0.29257505965E+02  0.36211451416E+02  0.41800000000E+01 0. -1.
         -5    1    3    3    0  502  0.55784119832E+00 -0.50813748203E+02 -0.99870656478E+03  0.10000073115E+04  0.41800000000E+01 0. -1.
        -11    1    1    2    0    0 -0.12321253680E+02  0.61331619215E+02 -0.29205804339E+03  0.29868257652E+03  0.00000000000E+00 0.  1.
         11    1    1    2    0    0  0.25246796082E+02 -0.26517668668E+02 -0.14721303865E+03  0.15169794400E+03  0.00000000000E+00 0. -1.
</event>
<event>
 7    1  0.2412631E-010  0.8024241E+02  0.7561462E-02  0.1328365E+00
          2   -1    0    0  501    0  0.00000000000E+00  0.00000000000E+00  0.56863203534E+03  0.56863203534E+03  0.00000000000E+00 0. -1.
         -2   -1    0    0    0  501 -0.00000000000E+00 -0.00000000000E+00 -0.27802257202E+02  0.27802257202E+02  0.00000000000E+00 0.  1.
         25    2    1    2    0    0 -0.55266848842E+02 -0.35910014070E+02  0.28643989302E+03  0.31944822869E+03  0.12512156013E+03 0.  0.
          5    1    3    3  502    0 -0.42386626458E+02  0.10624342421E+01  0.27523162860E+03  0.27850974247E+03  0.41800000000E+01 0. -1.
         -5    1    3    3    0  502 -0.12880222385E+02 -0.36972448312E+02  0.11208264421E+02  0.40938486222E+02  0.41800000000E+01 0. -1.
        -11    1    1    2    0    0 -0.84154358515E+00  0.20229164272E+02  0.49633065487E+01  0.20846143400E+02  0.00000000000E+00 0.  1.
         11    1    1    2    0    0  0.56108392428E+02  0.15680849797E+02  0.24942657857E+03  0.25613992045E+03  0.00000000000E+00 0. -1.
</event>
<event>
 7    1  0.2412631E-010  0.1580596E+03  0.7561462E-02  0.1190905E+00
          1   -1    0    0  501    0  0.00000000000E+00  0.00000000000E+00  0.48478553225E+03  0.48478553225E+03  0.00000000000E+00 0. -1.
         -1   -1    0    0    0  501 -0.00000000000E+00 -0.00000000000E+00 -0.60567597936E+02  0.60567597936E+02  0.00000000000E+00 0.  1.
         25    2    1    2    0    0  0.97300935382E+02  0.87613034224E+02  0.19788931719E+03  0.26824794641E+03  0.12511300133E+03 0.  0.
          5    1    3    3  502    0  0.66273696454E+02  0.11233462286E+03  0.10616742164E+03  0.16822682352E+03  0.41800000000E+01 0. -1.
         -5    1    3    3    0  502  0.31027238928E+02 -0.24721588634E+02  0.91721895545E+02  0.10002112288E+03  0.41800000000E+01 0. -1.
        -11    1    1    2    0    0 -0.94187323594E+02 -0.47476334923E+02  0.20727046333E+03  0.23256461311E+03  0.00000000000E+00 0.  1.
         11    1    1    2    0    0 -0.31136117875E+01 -0.40136699301E+02  0.19058153792E+02  0.44540570664E+02  0.00000000000E+00 0. -1.
</event>
<event>
 7    1  0.2801398E-010  0.4457513E+03  0.7561462E-02  0.1028997E+00
         -1   -1    0    0    0  501 -0.00000000000E+00  0.00000000000E+00  0.24112957815E+03  0.24112957815E+03  0.00000000000E+00 0.  1.
          1   -1    0    0  501    0  0.00000000000E+00 -0.00000000000E+00 -0.84875303838E+03  0.84875303838E+03  0.00000000000E+00 0. -1.
         25    2    1    2    0    0  0.41025557542E+03  0.15127754927E+03 -0.25783186948E+03  0.52280577871E+03  0.12511624697E+03 0.  0.
          5    1    3    3  502    0  0.34969518184E+03  0.86289949014E+02 -0.23787408950E+03  0.43166448818E+03  0.41800000000E+01 0.  1.
         -5    1    3    3    0  502  0.60560393580E+02  0.64987600253E+02 -0.19957779986E+02  0.91141290529E+02  0.41800000000E+01 0.  1.
        -11    1    1    2    0    0 -0.11738449952E+03 -0.76453272269E+02 -0.76719249698E+02  0.15971871162E+03  0.00000000000E+00 0. -1.
         11    1    1    2    0    0 -0.29287107590E+03 -0.74824276998E+02 -0.27307234105E+03  0.40735812619E+03  0.00000000000E+00 0.  1.
</event>
<event>
 7    1  0.2412631E-010  0.1036530E+03  0.7561462E-02  0.1272797E+00
         -1   -1    0    0    0  501 -0.00000000000E+00  0.00000000000E+00  0.22233509190E+02  0.22233509190E+02  0.00000000000E+00 0.  1.
          1   -1    0    0  501    0  0.00000000000E+00 -0.00000000000E+00 -0.70483235219E+03  0.70483235219E+03  0.00000000000E+00 0. -1.
         25    2    1    2    0    0  0.28173282353E+02 -0.28188025479E+02 -0.25402579990E+03  0.28596156754E+03  0.12512638601E+03 0.  0.
          5    1    3    3  502    0  0.25814640240E+02  0.33334514279E+02 -0.19842643042E+03  0.20289925131E+03  0.41800000000E+01 0.  1.
         -5    1    3    3    0  502  0.23586421122E+01 -0.61522539758E+02 -0.55599369485E+02  0.83062316233E+02  0.41800000000E+01 0.  1.
        -11    1    1    2    0    0 -0.11079223383E+01  0.60821569930E+02 -0.21935246906E+03  0.22763127321E+03  0.00000000000E+00 0. -1.
         11    1    1    2    0    0 -0.27065360014E+02 -0.32633544451E+02 -0.20922057404E+03  0.21347302064E+03  0.00000000000E+00 0.  1.
</event>
<event>
 7    1  0.2412631E-010  0.9877763E+02  0.7561462E-02  0.1282888E+00
         -3   -1    0    0    0  501 -0.00000000000E+00  0.00000000000E+00  0.26157034807E+02  0.26157034807E+02  0.00000000000E+00 0.  1.
          3   -1    0    0  501    0  0.00000000000E+00 -0.00000000000E+00 -0.46725987099E+03  0.46725987099E+03  0.00000000000E+00 0. -1.
         25    2    1    2    0    0 -0.98086081076E+00  0.18232239428E+02 -0.23125523619E+03  0.26357401763E+03  0.12513553397E+03 0.  0.
          5    1    3    3  502    0 -0.45540857093E+02 -0.31178385754E+02 -0.14013560456E+03  0.15067024082E+03  0.41800000000E+01 0. -1.
         -5    1    3    3    0  502  0.44559996282E+02  0.49410625182E+02 -0.91119631630E+02  0.11290377681E+03  0.41800000000E+01 0. -1.
        -11    1    1    2    0    0  0.22386197241E+02  0.21097903483E+02 -0.15960479247E+03  0.16254215803E+03  0.00000000000E+00 0. -1.
         11    1    1    2    0    0 -0.21405336430E+02 -0.39330142911E+02 -0.50242807524E+02  0.67300730137E+02  0.00000000000E+00 0.  1.
</event>
<event>
 7    1  0.2412631E-010  0.1248322E+03  0.7561462E-02  0.1235332E+00
          2   -1    0    0  501    0  0.00000000000E+00  0.00000000000E+00  0.28156486321E+02  0.28156486321E+02  0.00000000000E+00 0. -1.
         -2   -1    0    0    0  501 -0.00000000000E+00 -0.00000000000E+00 -0.83884581497E+03  0.83884581497E+03  0.00000000000E+00 0.  1.
         25    2    1    2    0    0 -0.64515376135E+02  0.67026002265E+02 -0.59334248382E+03  0.61347123777E+03  0.12504774175E+03 0.  0.
          5    1    3    3  502    0  0.49351579101E+01  0.56224162134E+02 -0.98147785845E+02  0.11329595075E+03  0.41800000000E+01 0. -1.
         -5    1    3    3    0  502 -0.69450534045E+02  0.10801840132E+02 -0.49519469798E+03  0.50017528701E+03  0.41800000000E+01 0. -1.
        -11    1    1    2    0    0  0.59655412278E+02 -0.85109474532E+02 -0.20817927420E+03  0.23268218900E+03  0.00000000000E+00 0.  1.
         11    1    1    2    0    0  0.48599638578E+01  0.18083472266E+02 -0.91675706193E+01  0.20848874525E+02  0.00000000000E+00 0. -1.
</event>
<event>
 7    1  0.2412631E-010  0.1113323E+03  0.7561462E-02  0.1258122E+00
          4   -1    0    0  501    0  0.00000000000E+00  0.00000000000E+00  0.15273318871E+03  0.15273318871E+03  0.00000000000E+00 0. -1.
         -4   -1    0    0    0  501 -0.00000000000E+00 -0.00000000000E+00 -0.10688398740E+03  0.10688398740E+03  0.00000000000E+00 0.  1.
         25    2    1    2    0    0 -0.29525598007E+02 -0.61211956950E+02  0.28890724803E+02  0.14522877386E+03  0.12505222176E+03 0.  0.
          5    1    3    3  502    0  0.31982024929E+02 -0.23497571025E+02 -0.31664518740E+02  0.50942123137E+02  0.41800000000E+01 0.  1.
         -5    1    3    3    0  502 -0.61507622936E+02 -0.37714385925E+02  0.60555243543E+02  0.94286650728E+02  0.41800000000E+01 0.  1.
        -11    1    1    2    0    0  0.56621717607E+02  0.17871857474E+02 -0.31576075104E+01  0.59459168170E+02  0.00000000000E+00 0.  1.
         11    1    1    2    0    0 -0.27096119600E+02  0.43340099477E+02  0.20116084015E+02  0.54929234075E+02  0.00000000000E+00 0. -1.
</event>
<event>
 7    1  0.2412631E-010  0.3033834E+03  0.7561462E-02  0.1083561E+00
          2   -1    0    0  501    0  0.00000000000E+00  0.00000000000E+00  0.87808429079E+03  0.87808429079E+03  0.00000000000E+00 0. -1.
         -2   -1    0    0    0  501 -0.00000000000E+00 -0.00000000000E+00 -0.12210507243E+03  0.12210507243E+03  0.00000000000E+00 0.  1.
         25    2    1    2    0    0 -0.27378097884E+03  0.89687523544E+02  0.22832251050E+03  0.38830950771E+03  0.12511286394E+03 0.  0.
          5    1    3    3  502    0  0.79798492293E+00  0.25429868748E+02  0.54901915246E+00  0.25789316131E+02  0.41800000000E+01 0. -1.
         -5    1    3    3    0  502 -0.27457896376E+03  0.64257654795E+02  0.22777349135E+03  0.36252019158E+03  0.41800000000E+01 0. -1.
        -11    1    1    2    0    0  0.20829363087E+03 -0.10262327141E+03  0.33195842183E+03  0.40511006692E+03  0.00000000000E+00 0.  1.
         11    1    1    2    0    0  0.65487347964E+02  0.12935747867E+02  0.19569828604E+03  0.20676978859E+03  0.00000000000E+00 0. -1.
</event>
<event>
 6    1  0.2412631E-010  0.1112465E+03  0.7561462E-02  0.1258279E+00
         -1   -1    0    0    0  501 -0.00000000000E+00  0.00000000000E+00  0.15069300838E+03  0.15069300838E+03  0.00000000000E+00 0.  1.
          1   -1    0    0  501    0  0.00000000000E+00 -0.00000000000E+00 -0.16758865378E+03  0.16758865378E+03  0.00000000000E+00 0. -1.
          5    1    1    2  502    0 -0.34521376218E+02  0.28543516307E+02 -0.66282826177E+02  0.80108321573E+02  0.41800000000E+01 0. -1.
         -5    1    1    2    0  502  0.85656447521E+02  0.33138428874E+02 -0.29364801719E+02  0.96513970233E+02  0.41800000000E+01 0. -1.
        -11    1    1    2    0    0  0.12853636074E+01 -0.15949174039E+02  0.69693067299E+02  0.71506307006E+02  0.00000000000E+00 0.  1.
         11    1    1    2    0    0 -0.52420434910E+02 -0.45732771142E+02  0.90589152034E+01  0.70153063348E+02  0.00000000000E+00 0. -1.
</event>
<event>
 7    1  0.2412631E-010  0.1693149E+03  0.7561462E-02  0.1178564E+00
          2   -1    0    0  501    0  0.00000000000E+00  0.00000000000E+00  0.47452102463E+03  0.47452102463E+03  0.00000000000E+00 0. -1.
         -2   -1    0    0    0  501 -0.00000000000E+00 -0.00000000000E+00 -0.66745556231E+02  0.66745556231E+02  0.00000000000E+00 0.  1.
         25    2    1    2    0    0 -0.93907526675E+01  0.13854534961E+03  0.18167278166E+03  0.26065964460E+03  0.12512174308E+03 0.  0.
          5    1    3    3  502    0 -0.34518343219E+02  0.15349146770E+03  0.15235421638E+03  0.21904434785E+03  0.41800000000E+01 0. -1.
         -5    1    3    3    0  502  0.25127590551E+02 -0.14946118097E+02  0.29318565277E+02  0.41615296743E+02  0.41800000000E+01 0. -1.
        -11    1    1    2    0    0 -0.26070402187E+02 -0.51466557469E+02  0.14636648852E+03  0.15732648019E+03  0.00000000000E+00 0. -1.
         11    1    1    2    0    0  0.35461154854E+02 -0.87078792138E+02  0.79736198222E+02  0.12328045608E+03  0.00000000000E+00 0.  1.
</event>
<event>
 7    1  0.2412631E-010  0.1230183E+03  0.7561462E-02  0.1238199E+00
          2   -1    0    0  501    0  0.00000000000E+00  0.00000000000E+00  0.15588162990E+04  0.15588162990E+04  0.00000000000E+00 0. -1.
         -2   -1    0    0    0  501 -0.00000000000E+00 -0.00000000000E+00 -0.20840763905E+02  0.20840763905E+02  0.00000000000E+00 0.  1.
         25    2    1    2    0    0 -0.86345408969E+02  0.58559545274E+02  0.12340093633E+04  0.12447160693E+04  0.12511688300E+03 0.  0.
          5    1    3    3  502    0 -0.41380326043E+02  0.38934961308E+02  0.16472765934E+03  0.17430128154E+03  0.41800000000E+01 0. -1.
         -5    1    3    3    0  502 -0.44965082926E+02  0.19624583966E+02  0.10692817039E+04  0.10704147877E+04  0.41800000000E+01 0. -1.
        -11    1    1    2    0    0  0.21734279904E+02 -0.70804628255E+02  0.14254508408E+03  0.16063864822E+03  0.00000000000E+00 0.  1.
         11    1    1    2    0    0  0.64611129065E+02  0.12245082981E+02  0.16142108769E+03  0.17430234538E+03  0.00000000000E+00 0. -1.
</event>
<event>
 6    1  0.2412631E-010  0.1061066E+03  0.7561462E-02  0.1267955E+00
          2   -1    0    0  501    0  0.00000000000E+00  0.00000000000E+00  0.90059985569E+02  0.90059985569E+02  0.00000000000E+00 0. -1.
         -2   -1    0    0    0  501 -0.00000000000E+00 -0.00000000000E+00 -0.19475328607E+03  0.19475328607E+03  0.00000000000E+00 0.  1.
          5    1    1    2  502    0  0.22310813313E+02  0.43792670182E+02  0.35102174157E+02  0.60540939726E+02  0.41800000000E+01 0. -1.
         -5    1    1    2    0  502 -0.63271010820E+02 -0.22043968251E+02 -0.28887002804E+02  0.73082752257E+02  0.41800000000E+01 0. -1.
        -11    1    1    2    0    0  0.64679062575E+02 -0.17040183368E+01 -0.98279701548E+02  0.11766556230E+03  0.00000000000E+00 0.  1.
         11    1    1    2    0    0 -0.23718865069E+02 -0.20044683595E+02 -0.12628770306E+02  0.33524017361E+02  0.00000000000E+00 0. -1.
</event>
<event>
 7    1  0.2412631E-010  0.1045623E+03  0.7561462E-02  0.1270984E+00
          2   -1    0    0  501    0  0.00000000000E+00  0.00000000000E+00  0.26552438706E+03  0.26552438706E+03  0.00000000000E+00 0. -1.
         -2   -1    0    0    0  501 -0.00000000000E+00 -0.00000000000E+00 -0.75397289891E+02  0.75397289891E+02  0.00000000000E+00 0.  1.
         25    2    1    2    0    0 -0.36863142342E+02  0.10830428214E+02  0.33146560910E+01  0.13086700524E+03  0.12505597417E+03 0.  0.
          5    1    3    3  502    0  0.28180091589E+02  0.33909293390E+02 -0.30623120667E+02  0.53844272300E+02  0.41800000000E+01 0. -1.
         -5    1    3    3    0  502 -0.65043233931E+02 -0.23078865176E+02  0.33937776758E+02  0.77022732938E+02  0.41800000000E+01 0. -1.
        -11    1    1    2    0    0  0.11910939751E+02 -0.48814775879E+02  0.10698181933E+03  0.11819417286E+03  0.00000000000E+00 0.  1.
         11    1    1    2    0    0  0.24952202591E+02  0.37984347665E+02  0.79830621749E+02  0.91860498859E+02  0.00000000000E+00 0. -1.
</event>
<event>
 7    1  0.2412631E-010  0.1667453E+03  0.7561462E-02  0.1181285E+00
          1   -1    0    0  501    0  0.00000000000E+00  0.00000000000E+00  0.19573279383E+04  0.19573279383E+04  0.00000000000E+00 0. -1.
         -1   -1    0    0    0  501 -0.00000000000E+00 -0.00000000000E+00 -0.20538347424E+02  0.20538347424E+02  0.00000000000E+00 0.  1.
         25    2    1    2    0    0  0.24045164806E+02  0.16304597313E+03  0.11923283116E+04  0.12101497939E+04  0.12511419484E+03 0.  0.
          5    1    3    3  502    0  0.13320809993E+02  0.12176355740E+03  0.11151978657E+04  0.11219124565E+04  0.41800000000E+01 0.  1.
         -5    1    3    3    0  502  0.10724354813E+02  0.41282415735E+02  0.77130445844E+02  0.88237337399E+02  0.41800000000E+01 0.  1.
        -11    1    1    2    0    0 -0.46303679424E+01 -0.12738276102E+03  0.67764670859E+03  0.68953090559E+03  0.00000000000E+00 0. -1.
         11    1    1    2    0    0 -0.19414796864E+02 -0.35663212115E+02  0.66814570673E+02  0.78185586202E+02  0.00000000000E+00 0.  1.
</event>
<event>
 7    1  0.2452957E-010  0.1875643E+03  0.7561462E-02  0.1160677E+00
          1   -1    0    0  501    0  0.00000000000E+00  0.00000000000E+00  0.34903552773E+03  0.34903552773E+03  0.00000000000E+00 0. -1.
         -1   -1    0    0    0  501 -0.00000000000E+00 -0.00000000000E+00 -0.11791808472E+03  0.11791808472E+03  0.00000000000E+00 0.  1.
         25    2    1    2    0    0  0.14400445487E+03 -0.91865021181E+02  0.12167260031E+03  0.24420017953E+03  0.12511211323E+03 0.  0.
          5    1    3    3  502    0  0.77592416923E+02  0.13625057397E+02  0.15485778096E+02  0.80395939427E+02  0.41800000000E+01 0.  1.
         -5    1    3    3    0  502  0.66412037948E+02 -0.10549007858E+03  0.10618682222E+03  0.16380424010E+03  0.41800000000E+01 0.  1.
        -11    1    1    2    0    0 -0.63240289679E+02  0.31292086779E+02 -0.42739357759E+01  0.70688014972E+02  0.00000000000E+00 0.  1.
         11    1    1    2    0    0 -0.80764165192E+02  0.60572934402E+02  0.11371877847E+03  0.15206541795E+03  0.00000000000E+00 0. -1.
</event>
<event>
 6    1  0.2412631E-010  0.1415389E+03  0.7561462E-02  0.1211273E+00
          1   -1    0    0  501    0  0.00000000000E+00  0.00000000000E+00  0.14923907077E+03  0.14923907077E+03  0.00000000000E+00 0. -1.
         -1   -1    0    0    0  501 -0.00000000000E+00 -0.00000000000E+00 -0.16055184756E+03  0.16055184756E+03  0.00000000000E+00 0.  1.
          5    1    1    2  502    0  0.63682322479E+02  0.86483873118E+01  0.10110634631E+00  0.64402759428E+02  0.41800000000E+01 0.  1.
         -5    1    1    2    0  502 -0.13692656927E+01 -0.10401119836E+03 -0.19973946959E+02  0.10600299632E+03  0.41800000000E+01 0.  1.
        -11    1    1    2    0    0 -0.35384621519E+02  0.42978532444E+02 -0.35325938800E+02  0.65932902585E+02  0.00000000000E+00 0.  1.
         11    1    1    2    0    0 -0.26928435267E+02  0.52384278602E+02  0.43886002625E+02  0.73452259986E+02  0.00000000000E+00 0. -1.
</event>
<event>
 7    1  0.2412631E-010  0.2091425E+03  0.7561462E-02  0.1142247E+00
          1   -1    0    0  501    0  0.00000000000E+00  0.00000000000E+00  0.37034545274E+03  0.37034545274E+03  0.00000000000E+00 0. -1.
         -1   -1    0    0    0  501 -0.00000000000E+00 -0.00000000000E+00 -0.13967251352E+03  0.13967251352E+03  0.00000000000E+00 0.  1.
         25    2    1    2    0    0  0.18452669043E+03  0.69772321646E+02  0.81913480825E+02  0.24755143771E+03  0.12511442612E+03 0.  0.
          5    1    3    3  502    0 -0.35567270593E+01  0.55522306476E+01  0.44615829663E+02  0.45293732779E+02  0.41800000000E+01 0. -1.
         -5    1    3    3    0  502  0.18808341749E+03  0.64220090998E+02  0.37297651161E+02  0.20225770494E+03  0.41800000000E+01 0. -1.
        -11    1    1    2    0    0 -0.10235240092E+03  0.23121778139E+01  0.45279963149E+02  0.11194478640E+03  0.00000000000E+00 0.  1.
         11    1    1    2    0    0 -0.82174289515E+02 -0.72084499460E+02  0.10347949525E+03  0.15052174214E+03  0.00000000000E+00 0. -1.
</event>
<event>
 7    1  0.2412631E-010  0.1363690E+03  0.7561462E-02  0.1218300E+00
         -2   -1    0    0    0  501 -0.00000000000E+00  0.00000000000E+00  0.67634592466E+02  0.67634592466E+02  0.00000000000E+00 0.  1.
          2   -1    0    0  501    0  0.00000000000E+00 -0.00000000000E+00 -0.38861393820E+03  0.38861393820E+03  0.00000000000E+00 0. -1.
         25    2    1    2    0    0  0.10858517914E+03  0.47418929433E+02 -0.19474447899E+03  0.26001310801E+03  0.12506841424E+03 0.  0.
          5    1    3    3  502    0  0.76431534490E+02  0.61968561359E+02 -0.20109012832E+03  0.22391202328E+03  0.41800000000E+01 0. -1.
         -5    1    3    3    0  502  0.32153644652E+02 -0.14549631926E+02  0.63456493250E+01  0.36101084734E+02  0.41800000000E+01 0. -1.
        -11    1    1    2    0    0 -0.97131262145E+02 -0.65611972520E+02 -0.71187307058E+02  0.13713878266E+03  0.00000000000E+00 0.  1.
         11    1    1    2    0    0 -0.11453916997E+02  0.18193043087E+02 -0.55047559682E+02  0.59096639992E+02  0.00000000000E+00 0. -1.
</event>
<event>
 7    1  0.2412631E-010  0.1206726E+03  0.7561462E-02  0.1241992E+00
         -1   -1    0    0    0  501 -0.00000000000E+00  0.00000000000E+00  0.89117450289E+02  0.89117450289E+02  0.00000000000E+00 0.  1.
          1   -1    0    0  501    0  0.00000000000E+00 -0.00000000000E+00 -0.18651803395E+03  0.18651803395E+03  0.00000000000E+00 0. -1.
         25    2    1    2    0    0 -0.64777466138E+02 -0.16872273998E+02 -0.88027650696E+02  0.16700744129E+03  0.12514721096E+03 0.  0.
          5    1    3    3  502    0  0.11346990935E+02  0.43179175808E+02 -0.26106269085E+02  0.51886463671E+02  0.41800000000E+01 0.  1.
         -5    1    3    3    0  502 -0.76124457073E+02 -0.60051449806E+02 -0.61921381611E+02  0.11512097762E+03  0.41800000000E+01 0.  1.
        -11    1    1    2    0    0  0.38228098584E+02  0.46153825032E+02 -0.26529912539E+02  0.65539296196E+02  0.00000000000E+00 0. -1.
         11    1    1    2    0    0  0.26549367554E+02 -0.29281551035E+02  0.17156979572E+02  0.43088746751E+02  0.00000000000E+00 0.  1.
</event>
<event>
 7    1  0.2412631E-010  0.1957985E+03  0.7561462E-02  0.1153333E+00
         -2   -1    0    0    0  501 -0.00000000000E+00  0.00000000000E+00  0.76665558690E+02  0.76665558690E+02  0.00000000000E+00 0.  1.
          2   -1    0    0  501    0  0.00000000000E+00 -0.00000000000E+00 -0.61850298747E+03  0.61850298747E+03  0.00000000000E+00 0. -1.
         25    2    1    2    0    0  0.75154105680E+02  0.16741696461E+03 -0.21342069086E+03  0.30799624370E+03  0.12504685203E+03 0.  0.
          5    1    3    3  502    0  0.68489981667E+02  0.40896172021E+02 -0.14085946992E+03  0.16193281675E+03  0.41800000000E+01 0. -1.
         -5    1    3    3    0  502  0.66641240127E+01  0.12652079259E+03 -0.72561220941E+02  0.14606342695E+03  0.41800000000E+01 0. -1.
        -11    1    1    2    0    0 -0.10597506855E+02 -0.48472601519E+02 -0.17822070768E+03  0.18499870512E+03  0.00000000000E+00 0. -1.
         11    1    1    2    0    0 -0.64556598825E+02 -0.11894436309E+03 -0.15019603024E+03  0.20217359734E+03  0.00000000000E+00 0.  1.
</event>
<event>
 6    1  0.2412631E-010  0.1360202E+03  0.7561462E-02  0.1218787E+00
          1   -1    0    0  501    0  0.00000000000E+00  0.00000000000E+00  0.36572001893E+02  0.36572001893E+02  0.00000000000E+00 0. -1.
         -1   -1    0    0    0  501 -0.00000000000E+00 -0.00000000000E+00 -0.71375556031E+03  0.71375556031E+03  0.00000000000E+00 0.  1.
          5    1    1    2  502    0  0.25129486945E+02  0.95291295959E+02 -0.80458274493E+02  0.12729072446E+03  0.41800000000E+01 0. -1.
         -5    1    1    2    0  502 -0.44385151356E+02 -0.71706890607E+01 -0.10159527065E+03  0.11117792884E+03  0.41800000000E+01 0. -1.
        -11    1    1    2    0    0 -0.34951291931E+02 -0.53579929329E+02 -0.20764317053E+03  0.21727422282E+03  0.00000000000E+00 0. -1.
         11    1    1    2    0    0  0.54206956342E+02 -0.34540677568E+02 -0.28748684275E+03  0.29458468609E+03  0.00000000000E+00 0.  1.
</event>
<event>
 6    1  0.2412631E-010  0.2497710E+03  0.7561462E-02  0.1113450E+00
          2   -1    0    0  501    0  0.00000000000E+00  0.00000000000E+00  0.12735327889E+04  0.12735327889E+04  0.00000000000E+00 0. -1.
         -2   -1    0    0    0  501 -0.00000000000E+00 -0.00000000000E+00 -0.64294374795E+02  0.64294374795E+02  0.00000000000E+00 0.  1.
          5    1    1    2  502    0 -0.76235416718E+02 -0.22718777011E+03  0.83751244558E+03  0.87113184452E+03  0.41800000000E+01 0.  1.
         -5    1    1    2    0  502 -0.54312355632E+01 -0.65965841075E+01 -0.15839194264E+01  0.96433626075E+01  0.41800000000E+01 0.  1.
        -11    1    1    2    0    0  0.68150785583E+02  0.14115986006E+03  0.15940886226E+03  0.22356614465E+03  0.00000000000E+00 0.  1.
         11    1    1    2    0    0  0.13515866698E+02  0.92624494157E+02  0.21390102568E+03  0.23348581190E+03  0.00000000000E+00 0. -1.
</event>
<event>
 7    1  0.2412631E-010  0.1269323E+03  0.7561462E-02  0.1232080E+00
         -2   -1    0    0    0  501 -0.00000000000E+00  0.00000000000E+00  0.64053568116E+03  0.64053568116E+03  0.00000000000E+00 0.  1.
          2   -1    0    0  501    0  0.00000000000E+00 -0.00000000000E+00 -0.43155897605E+02  0.43155897605E+02  0.00000000000E+00 0. -1.
         25    2    1    2    0    0 -0.41616466314E+02  0.94116023101E+02  0.17065101879E+03  0.23529815843E+03  0.12511473564E+03 0.  0.
          5    1    3    3  502    0  0.24300591522E+02 -0.80422377590E+01  0.25974253942E+00  0.25937158724E+02  0.41800000000E+01 0.  1.
         -5    1    3    3    0  502 -0.65917057836E+02  0.10215826086E+03  0.17039127625E+03  0.20936099970E+03  0.41800000000E+01 0.  1.
        -11    1    1    2    0    0  0.15659877364E+02 -0.66742169908E+02  0.38916484327E+03  0.39515696153E+03  0.00000000000E+00 0.  1.
         11    1    1    2    0    0  0.25956588950E+02 -0.27373853193E+02  0.37563921495E+02  0.53236458810E+02  0.00000000000E+00 0. -1.
</event>
<event>
 7    1  0.2412631E-010  0.1133559E+03  0.7561462E-02  0.1254479E+00
          1   -1    0    0  501    0  0.00000000000E+00  0.00000000000E+00  0.17507074755E+03  0.17507074755E+03  0.00000000000E+00 0. -1.
         -1   -1    0    0    0  501 -0.00000000000E+00 -0.00000000000E+00 -0.97899622275E+02  0.97899622275E+02  0.00000000000E+00 0.  1.
         25    2    1    2    0    0 -0.29466740610E+02 -0.53319640772E+02  0.83725348128E+02  0.16235574432E+03  0.12505271249E+03 0.  0.
          5    1    3    3  502    0  0.25270047962E+02 -0.74995620025E+02  0.56688989342E+02  0.97437324776E+02  0.41800000000E+01 0. -1.
         -5    1    3    3    0  502 -0.54736788571E+02  0.21675979253E+02  0.27036358786E+02  0.64918419544E+02  0.41800000000E+01 0. -1.
        -11    1    1    2    0    0 -0.20534880974E+02  0.16616653928E+02 -0.33774833379E+02  0.42878128389E+02  0.00000000000E+00 0.  1.
         11    1    1    2    0    0  0.50001621584E+02  0.36702986844E+02  0.27220610528E+02  0.67736497118E+02  0.00000000000E+00 0. -1.
</event>
<event>
 7    1  0.2412631E-010  0.3956973E+03  0.7561462E-02  0.1045280E+00
         -2   -1    0    0    0  501 -0.00000000000E+00  0.00000000000E+00  0.38027933529E+03  0.38027933529E+03  0.00000000000E+00 0.  1.
          2   -1    0    0  501    0  0.00000000000E+00 -0.00000000000E+00 -0.53241306251E+03  0.53241306251E+03  0.00000000000E+00 0. -1.
         25    2    1    2    0    0  0.17999013701E+03  0.34903698388E+03 -0.26991660694E+03  0.49267840650E+03  0.12511503504E+03 0.  0.
          5    1    3    3  502    0  0.24258192209E+02  0.68556041667E+02  0.85899446976E+00  0.72846420706E+02  0.41800000000E+01 0.  1.
         -5    1    3    3    0  502  0.15573194480E+03  0.28048094222E+03 -0.27077560141E+03  0.41983198580E+03  0.41800000000E+01 0.  1.
        -11    1    1    2    0    0 -0.40229388393E+02 -0.32583918345E+02 -0.70305522347E+01  0.52245038902E+02  0.00000000000E+00 0.  1.
         11    1    1    2    0    0 -0.13976074862E+03 -0.31645306554E+03  0.12481343196E+03  0.36776895239E+03  0.00000000000E+00 0. -1.
</event>
<event>
 6    1  0.2412631E-010  0.8779507E+02  0.7561462E-02  0.1308281E+00
         -2   -1    0    0    0  501 -0.00000000000E+00  0.00000000000E+00  0.45137478527E+02  0.45137478527E+02  0.00000000000E+00 0.  1.
          2   -1    0    0  501    0  0.00000000000E+00 -0.00000000000E+00 -0.27793760532E+03  0.27793760532E+03  0.00000000000E+00 0. -1.
          5    1    1    2  502    0  0.34312765951E+02  0.29974227307E+02 -0.43323741037E-01  0.45752535304E+02  0.41800000000E+01 0.  1.
         -5    1    1    2    0  502 -0.13348332736E+02 -0.48409548039E+02 -0.11854840080E+03  0.12881326818E+03  0.41800000000E+01 0.  1.
        -11    1    1    2    0    0  0.24949317363E+01 -0.27635588200E+02 -0.57193082221E+01  0.28331270816E+02  0.00000000000E+00 0.  1.
         11    1    1    2    0    0 -0.23459364951E+02  0.46070908933E+02 -0.10848909403E+03  0.12017800954E+03  0.00000000000E+00 0. -1.
</event>
<event>
 7    1  0.2412631E-010  0.9782221E+02  0.7561462E-02  0.1284943E+00
          2   -1    0    0  501    0  0.00000000000E+00  0.00000000000E+00  0.29371834383E+03  0.29371834383E+03  0.00000000000E+00 0.  1.
         -2   -1    0    0    0  501 -0.00000000000E+00 -0.00000000000E+00 -0.47354425958E+02  0.47354425958E+02  0.00000000000E+00 0. -1.
         25    2    1    2    0    0 -0.43206056483E+02  0.21405817744E+01  0.16223994517E+03  0.20939664362E+03  0.12511518350E+03 0.  0.
          5    1    3    3  502    0  0.22952860341E+02 -0.43141186464E+02  0.84160044716E+02  0.97408322509E+02  0.41800000000E+01 0. -1.
         -5    1    3    3    0  502 -0.66158916824E+02  0.45281768239E+02  0.78079900450E+02  0.11198832111E+03  0.41800000000E+01 0. -1.
        -11    1    1    2    0    0  0.61177834300E+01 -0.22977405324E+02  0.85868272962E+02  0.89099656178E+02  0.00000000000E+00 0.  1.
         11    1    1    2    0    0  0.37088273053E+02  0.20836823550E+02 -0.17443002582E+01  0.42576469993E+02  0.00000000000E+00 0. -1.
</event>
<event>
 7    1  0.2412631E-010  0.9483266E+02  0.7561462E-02  0.1291553E+00
         -1   -1    0    0    0  501 -0.00000000000E+00  0.00000000000E+00  0.11492029552E+03  0.11492029552E+03  0.00000000000E+00 0.  1.
          1   -1    0    0  501    0  0.00000000000E+00 -0.00000000000E+00 -0.10443037690E+03  0.10443037690E+03  0.00000000000E+00 0. -1.
         25    2    1    2    0    0 -0.91014173605E+01 -0.16892506867E+02 -0.17381215083E+01  0.12659559209E+03  0.12512086270E+03 0.  0.
          5    1    3    3  502    0  0.35048341537E+02  0.19529191491E+02  0.39086410371E+02  0.56169346093E+02  0.41800000000E+01 0. -1.
         -5    1    3    3    0  502 -0.44149758897E+02 -0.36421698358E+02 -0.40824531880E+02  0.70426245997E+02  0.41800000000E+01 0. -1.
        -11    1    1    2    0    0 -0.39722482410E+02  0.16765341482E+02  0.62585032284E+01  0.43567432177E+02  0.00000000000E+00 0.  1.
         11    1    1    2    0    0  0.48823899771E+02  0.12716538583E+00  0.59695369012E+01  0.49187648151E+02  0.00000000000E+00 0. -1.
</event>
<event>
 7    1  0.2412631E-010  0.1121873E+03  0.7561462E-02  0.1256572E+00
          1   -1    0    0  501    0  0.00000000000E+00  0.00000000000E+00  0.13997975598E+03  0.13997975598E+03  0.00000000000E+00 0. -1.
         -1   -1    0    0    0  501 -0.00000000000E+00 -0.00000000000E+00 -0.10520700760E+03  0.10520700760E+03  0.00000000000E+00 0.  1.
         25    2    1    2    0    0  0.47176716621E+02  0.68598655555E+01  0.46237766075E+02  0.14159471603E+03  0.12505371746E+03 0.  0.
          5    1    3    3  502    0  0.35395774409E+02 -0.52023298117E+02 -0.40022508512E+01  0.63188407203E+02  0.41800000000E+01 0.  1.
         -5    1    3    3    0  502  0.11780942212E+02  0.58883163673E+02  0.50240016926E+02  0.78406308829E+02  0.41800000000E+01 0.  1.
        -11    1    1    2    0    0 -0.32160720298E+02 -0.47742585878E+02  0.31541765887E+01  0.57650804559E+02  0.00000000000E+00 0.  1.
         11    1    1    2    0    0 -0.15015996323E+02  0.40882720322E+02 -0.14619194282E+02  0.45941242996E+02  0.00000000000E+00 0. -1.
</event>
<event>
 7    1  0.2412631E-010  0.1070651E+03  0.7561462E-02  0.1266103E+00
          2   -1    0    0  501    0  0.00000000000E+00  0.00000000000E+00  0.10137682719E+04  0.10137682719E+04  0.00000000000E+00 0. -1.
         -2   -1    0    0    0  501 -0.00000000000E+00 -0.00000000000E+00 -0.11955766665E+02  0.11955766665E+02  0.00000000000E+00 0.  1.
         25    2    1    2    0    0 -0.24735448395E+01 -0.17475334267E+02  0.54122212382E+03  0.55577730881E+03  0.12512203619E+03 0.  0.
          5    1    3    3  502    0 -0.37153990198E+02 -0.57021126647E+02  0.38206747358E+03  0.38810418013E+03  0.41800000000E+01 0.  1.
         -5    1    3    3    0  502  0.34680445359E+02  0.39545792380E+02  0.15915465024E+03  0.16767312867E+03  0.41800000000E+01 0.  1.
        -11    1    1    2    0    0 -0.33620825370E+01  0.55051245638E+02  0.26041140332E+03  0.26618798287E+03  0.00000000000E+00 0.  1.
         11    1    1    2    0    0  0.58356273765E+01 -0.37575911371E+02  0.20017897808E+03  0.20375874687E+03  0.00000000000E+00 0. -1.
</event>
<event>
 6    1  0.2412631E-010  0.1404718E+03  0.7561462E-02  0.1212696E+00
         -1   -1    0    0    0  501 -0.00000000000E+00  0.00000000000E+00  0.42263717665E+02  0.42263717665E+02  0.00000000000E+00 0.  1.
          1   -1    0    0  501    0  0.00000000000E+00 -0.00000000000E+00 -0.53343780898E+03  0.53343780898E+03  0.00000000000E+00 0. -1.
          5    1    1    2  502    0 -0.57713723730E+01 -0.26361353395E+02 -0.11396385933E+03  0.11718986017E+03  0.41800000000E+01 0. -1.
         -5    1    1    2    0  502  0.10716738288E+03  0.45914249833E+02 -0.12575677414E+03  0.17153776533E+03  0.41800000000E+01 0. -1.
        -11    1    1    2    0    0 -0.10161096975E+03  0.14743596011E+02 -0.20449825939E+03  0.22882679234E+03  0.00000000000E+00 0. -1.
         11    1    1    2    0    0  0.21495924683E+00 -0.34296492449E+02 -0.46955198446E+02  0.58147108810E+02  0.00000000000E+00 0.  1.
</event>
<event>
 6    1  0.2412631E-010  0.8965419E+02  0.7561462E-02  0.1303691E+00
          1   -1    0    0  501    0  0.00000000000E+00  0.00000000000E+00  0.83568970483E+02  0.83568970483E+02  0.00000000000E+00 0. -1.
         -1   -1    0    0    0  501 -0.00000000000E+00 -0.00000000000E+00 -0.16874670045E+03  0.16874670045E+03  0.00000000000E+00 0.  1.
          5    1    1    2  502    0  0.37655926670E+02  0.40616407504E+02 -0.16266372444E+02  0.57876840311E+02  0.41800000000E+01 0. -1.
         -5    1    1    2    0  502 -0.48966178064E+02 -0.36389595993E+02 -0.81145989123E+02  0.10160724995E+03  0.41800000000E+01 0. -1.
        -11    1    1    2    0    0 -0.21742115309E+02 -0.16565463902E+02 -0.28129317671E+02  0.39222349306E+02  0.00000000000E+00 0.  1.
         11    1    1    2    0    0  0.33052366703E+02  0.12338652392E+02  0.40363949271E+02  0.53609231372E+02  0.00000000000E+00 0. -1.
</event>
<event>
 7    1  0.2412631E-010  0.1451073E+03  0.7561462E-02  0.1206617E+00
          2   -1    0    0  501    0  0.00000000000E+00  0.00000000000E+00  0.35720990675E+03  0.35720990675E+03  0.00000000000E+00 0. -1.
         -2   -1    0    0    0  501 -0.00000000000E+00 -0.00000000000E+00 -0.67501476063E+02  0.67501476063E+02  0.00000000000E+00 0.  1.
         25    2    1    2    0    0  0.49522344789E+02 -0.97161502126E+02  0.17836456194E+03  0.24361436040E+03  0.12506486120E+03 0.  0.
          5    1    3    3  502    0  0.72385367634E+02 -0.15256171674E+02  0.11767551765E+03  0.13905895180E+03  0.41800000000E+01 0.  1.
         -5    1    3    3    0  502 -0.22863022845E+02 -0.81905330451E+02  0.60689044283E+02  0.10455540859E+03  0.41800000000E+01 0.  1.
        -11    1    1    2    0    0 -0.40444437954E+02  0.10888546580E+03  0.66451484597E+02  0.13381927002E+03  0.00000000000E+00 0.  1.
         11    1    1    2    0    0 -0.90779068350E+01 -0.11723963673E+02  0.44892384158E+02  0.47277752401E+02  0.00000000000E+00 0. -1.
</event>
<event>
 7    1  0.2412631E-010  0.2570878E+03  0.7561462E-02  0.1108906E+00
         -1   -1    0    0    0  501 -0.00000000000E+00  0.00000000000E+00  0.19838730316E+04  0.19838730316E+04  0.00000000000E+00 0.  1.
          1   -1    0    0  501    0  0.00000000000E+00 -0.00000000000E+00 -0.34006617415E+02  0.34006617415E+02  0.00000000000E+00 0. -1.
         25    2    1    2    0    0 -0.18826853390E+03 -0.13709531800E+03  0.11418625703E+04  0.11720685009E+04  0.12511704185E+03 0.  0.
          5    1    3    3  502    0  0.15149092265E+02  0.44241534465E+01  0.82669208732E+02  0.84265880417E+02  0.41800000000E+01 0. -1.
         -5    1    3    3    0  502 -0.20341762617E+03 -0.14151947144E+03  0.10591933616E+04  0.10878026205E+04  0.41800000000E+01 0. -1.
        -11    1    1    2    0    0  0.60096321393E+02  0.99844470835E+02  0.38433297697E+03  0.40161215542E+03  0.00000000000E+00 0. -1.
         11    1    1    2    0    0  0.12817221251E+03  0.37250847161E+02  0.42367086687E+03  0.44419899269E+03  0.00000000000E+00 0.  1.
</event>
<event>
 6    1  0.2412631E-010  0.1547334E+03  0.7561462E-02  0.1194774E+00
         -2   -1    0    0    0  501 -0.00000000000E+00  0.00000000000E+00  0.16446846623E+03  0.16446846623E+03  0.00000000000E+00 0.  1.
          2   -1    0    0  501    0  0.00000000000E+00 -0.00000000000E+00 -0.20843638573E+03  0.20843638573E+03  0.00000000000E+00 0. -1.
          5    1    1    2  502    0 -0.11907996316E+02 -0.49010307656E+01 -0.57748221730E+02  0.59313994907E+02  0.41800000000E+01 0.  1.
         -5    1    1    2    0  502  0.12396524360E+03 -0.66818765602E+02 -0.33986580601E+02  0.14492994556E+03  0.41800000000E+01 0.  1.
        -11    1    1    2    0    0 -0.10792549199E+03  0.28503191012E+02  0.55341457114E+02  0.12459141461E+03  0.00000000000E+00 0.  1.
         11    1    1    2    0    0 -0.41317552970E+01  0.43216605356E+02 -0.75745742882E+01  0.44069496888E+02  0.00000000000E+00 0. -1.
</event>
<event>
 7    1  0.2412631E-010  0.1888185E+03  0.7561462E-02  0.1159531E+00
          1   -1    0    0  501    0  0.00000000000E+00  0.00000000000E+00  0.79147467796E+03  0.79147467796E+03  0.00000000000E+00 0. -1.
         -1   -1    0    0    0  501 -0.00000000000E+00 -0.00000000000E+00 -0.60025283885E+02  0.60025283885E+02  0.00000000000E+00 0.  1.
         25    2    1    2    0    0 -0.12611618053E+03 -0.13355939066E+03  0.29395646743E+03  0.36851961963E+03  0.12511156415E+03 0.  0.
          5    1    3    3  502    0 -0.59604972907E+01 -0.40979300048E+02  0.16252784103E+03  0.16777247113E+03  0.41800000000E+01 0. -1.
         -5    1    3    3    0  502 -0.12015568324E+03 -0.92580090617E+02  0.13142862640E+03  0.20074714850E+03  0.41800000000E+01 0. -1.
        -11    1    1    2    0    0  0.76639979406E+02  0.70623374060E+02  0.34625944835E+03  0.36160330886E+03  0.00000000000E+00 0.  1.
         11    1    1    2    0    0  0.49476201121E+02  0.62936016605E+02  0.91233478288E+02  0.12137703335E+03  0.00000000000E+00 0. -1.
</event>
<event>
 7    1  0.2412631E-010  0.8287146E+02  0.7561462E-02  0.1321095E+00
         -2   -1    0    0    0  501 -0.00000000000E+00  0.00000000000E+00  0.12507065512E+03  0.12507065512E+03  0.00000000000E+00 0.  1.
          2   -1    0    0  501    0  0.00000000000E+00 -0.00000000000E+00 -0.11689271527E+03  0.11689271527E+03  0.00000000000E+00 0. -1.
         25    2    1    2    0    0  0.27256738618E+02 -0.18910049043E+02  0.48745724556E+02  0.13831000441E+03  0.12511191751E+03 0.  0.
          5    1    3    3  502    0  0.21444501083E+01  0.32281818290E+02  0.70068786421E+02  0.77290501932E+02  0.41800000000E+01 0.  1.
         -5    1    3    3    0  502  0.25112288510E+02 -0.51191867334E+02 -0.21323061865E+02  0.61019502478E+02  0.41800000000E+01 0.  1.
        -11    1    1    2    0    0 -0.30939786162E+02  0.42223471625E+02 -0.55048005310E+02  0.75962983172E+02  0.00000000000E+00 0. -1.
         11    1    1    2    0    0  0.36830475434E+01 -0.23313422582E+02  0.14480220599E+02  0.27690382812E+02  0.00000000000E+00 0.  1.
</event>
<event>
 7    1  0.2412631E-010  0.1490946E+03  0.7561462E-02  0.1201590E+00
          1   -1    0    0  501    0  0.00000000000E+00  0.00000000000E+00  0.13790796509E+04  0.13790796509E+04  0.00000000000E+00 0. -1.
         -1   -1    0    0    0  501 -0.00000000000E+00 -0.00000000000E+00 -0.22031636789E+02  0.22031636789E+02  0.00000000000E+00 0.  1.
         25    2    1    2    0    0  0.10621956977E+03 -0.10620566534E+02  0.10538985039E+04  0.10666476660E+04  0.12505915967E+03 0.  0.
          5    1    3    3  502    0  0.11513400359E+03 -0.43984747787E+02  0.92315353029E+03  0.93135407323E+03  0.41800000000E+01 0.  1.
         -5    1    3    3    0  502 -0.89144338270E+01  0.33364181253E+02  0.13074497360E+03  0.13529359277E+03  0.41800000000E+01 0.  1.
        -11    1    1    2    0    0  0.20462803847E+01 -0.25779803805E+02  0.40497010093E+02  0.48049905037E+02  0.00000000000E+00 0.  1.
         11    1    1    2    0    0 -0.10826585015E+03  0.36400370338E+02  0.26265250011E+03  0.28641371664E+03  0.00000000000E+00 0. -1.
</event>
<event>
 6    1  0.2412631E-010  0.1821536E+03  0.7561462E-02  0.1165735E+00
          2   -1    0    0  501    0  0.00000000000E+00  0.00000000000E+00  0.37599183638E+03  0.37599183638E+03  0.00000000000E+00 0. -1.
         -2   -1    0    0    0  501 -0.00000000000E+00 -0.00000000000E+00 -0.10924569394E+03  0.10924569394E+03  0.00000000000E+00 0.  1.
          5    1    1    2  502    0 -0.41943727043E+02 -0.64426563197E+00 -0.59939916394E+01  0.42580413951E+02  0.41800000000E+01 0.  1.
         -5    1    1    2    0  502 -0.81720978614E+02 -0.10990603115E+03  0.19448504907E+03  0.23790662189E+03  0.41800000000E+01 0.  1.
        -11    1    1    2    0    0  0.10296752154E+02  0.60213874850E+02  0.64547086150E+01  0.61427982978E+02  0.00000000000E+00 0.  1.
         11    1    1    2    0    0  0.11336795350E+03  0.50336421928E+02  0.71800376392E+02  0.14332251150E+03  0.00000000000E+00 0. -1.
</event>
<event>
 6    1  0.2412631E-010  0.7544850E+02  0.7561462E-02  0.1342488E+00
         -3   -1    0    0    0  501 -0.00000000000E+00  0.00000000000E+00  0.33095484427E+02  0.33095484427E+02  0.00000000000E+00 0.  1.
          3   -1    0    0  501    0  0.00000000000E+00 -0.00000000000E+00 -0.42201600371E+03  0.42201600371E+03  0.00000000000E+00 0. -1.
          5    1    1    2  502    0 -0.90043900472E+01  0.31998679460E+01 -0.20346947932E+03  0.20373664277E+03  0.41800000000E+01 0.  1.
         -5    1    1    2    0  502  0.54356555756E+02  0.13972652804E+02 -0.25733160723E+02  0.61883262202E+02  0.41800000000E+01 0.  1.
        -11    1    1    2    0    0 -0.57489543529E+02 -0.31384307017E+02 -0.15761726892E+03  0.17068457987E+03  0.00000000000E+00 0. -1.
         11    1    1    2    0    0  0.12137377820E+02  0.14211786267E+02 -0.21006103232E+01  0.18807003296E+02  0.00000000000E+00 0.  1.
</event>
<event>
 7    1  0.2412631E-010  0.1182533E+03  0.7561462E-02  0.1246007E+00
         -1   -1    0    0    0  501 -0.00000000000E+00  0.00000000000E+00  0.30432519637E+02  0.30432519637E+02  0.00000000000E+00 0.  1.
          1   -1    0    0  501    0  0.00000000000E+00 -0.00000000000E+00 -0.46265441922E+03  0.46265441922E+03  0.00000000000E+00 0. -1.
         25    2    1    2    0    0 -0.12821698426E+02 -0.46919050636E+02 -0.24384301666E+03  0.27832404349E+03  0.12505623993E+03 0.  0.
          5    1    3    3  502    0 -0.63794351018E+02  0.11762757559E+01 -0.11308033870E+03  0.12990665205E+03  0.41800000000E+01 0. -1.
         -5    1    3    3    0  502  0.50972652592E+02 -0.48095326392E+02 -0.13076267796E+03  0.14841739144E+03  0.41800000000E+01 0. -1.
        -11    1    1    2    0    0  0.51744639537E+02  0.30897824721E+02 -0.97734914879E+02  0.11482289354E+03  0.00000000000E+00 0.  1.
         11    1    1    2    0    0 -0.38922941111E+02  0.16021225915E+02 -0.90643968047E+02  0.99940001841E+02  0.00000000000E+00 0. -1.
</event>
<event>
 7    1  0.2412631E-010  0.9346752E+02  0.7561462E-02  0.1294665E+00
          3   -1    0    0  501    0  0.00000000000E+00  0.00000000000E+00  0.15268657742E+03  0.15268657742E+03  0.00000000000E+00 0. -1.
         -3   -1    0    0    0  501 -0.00000000000E+00 -0.00000000000E+00 -0.86641564636E+02  0.86641564636E+02  0.00000000000E+00 0.  1.
         25    2    1    2    0    0 -0.43113052198E+01 -0.32972320078E+02  0.22928999336E+02  0.13143005381E+03  0.12506941589E+03 0.  0.
          5    1    3    3  502    0 -0.79275824205E+01  0.39920350722E+02 -0.21159939310E+02  0.46061875736E+02  0.41800000000E+01 0. -1.
         -5    1    3    3    0  502  0.36162772008E+01 -0.72892670800E+02  0.44088938646E+02  0.85368178076E+02  0.41800000000E+01 0. -1.
        -11    1    1    2    0    0  0.47725173122E+01  0.52835496907E+02 -0.74477196323E+01  0.53570842653E+02  0.00000000000E+00 0.  1.
         11    1    1    2    0    0 -0.46121209247E+00 -0.19863176828E+02  0.50563733075E+02  0.54327245585E+02  0.00000000000E+00 0. -1.
</event>
<event>
 7    1  0.2412631E-010  0.1026923E+03  0.7561462E-02  0.1274734E+00
         -2   -1    0    0    0  501 -0.00000000000E+00  0.00000000000E+00  0.14741566372E+03  0.14741566372E+03  0.00000000000E+00 0. -1.
          2   -1    0    0  501    0  0.00000000000E+00 -0.00000000000E+00 -0.11559202625E+03  0.11559202625E+03  0.00000000000E+00 0.  1.
         25    2    1    2    0    0 -0.48722307254E+02  0.69805435266E+01 -0.35355009091E+02  0.13897726688E+03  0.12506843259E+03 0.  0.
          5    1    3    3  502    0  0.29953210944E+02 -0.25040885679E+02  0.12733521074E+02  0.41277787736E+02  0.41800000000E+01 0. -1.
         -5    1    3    3    0  502 -0.78675518198E+02  0.32021429206E+02 -0.48088530165E+02  0.97699479147E+02  0.41800000000E+01 0. -1.
        -11    1    1    2    0    0  0.62168992724E+02  0.59074814336E+01  0.79948397377E+02  0.10144766255E+03  0.00000000000E+00 0. -1.
         11    1    1    2    0    0 -0.13446685469E+02 -0.12888024960E+02 -0.12769750820E+02  0.22582760538E+02  0.00000000000E+00 0.  1.
</event>
<event>
 6    1  0.2412631E-010  0.1264264E+03  0.7561462E-02  0.1232857E+00
          1   -1    0    0  501    0  0.00000000000E+00  0.00000000000E+00  0.22535156085E+03  0.22535156085E+03  0.00000000000E+00 0. -1.
         -1   -1    0    0    0  501 -0.00000000000E+00 -0.00000000000E+00 -0.83780886624E+02  0.83780886624E+02  0.00000000000E+00 0.  1.
          5    1    1    2  502    0 -0.93701000623E+02 -0.63727245180E+02  0.53987478162E+02  0.12559123972E+03  0.41800000000E+01 0.  1.
         -5    1    1    2    0  502  0.22641653514E+02  0.23933299858E+02  0.38945351303E+02  0.51182615253E+02  0.41800000000E+01 0.  1.
        -11    1    1    2    0    0  0.28794343832E+02  0.54382695602E+02  0.60295512810E+02  0.86151846658E+02  0.00000000000E+00 0. -1.
         11    1    1    2    0    0  0.42265003277E+02 -0.14588750280E+02 -0.11657668052E+02  0.46206745840E+02  0.00000000000E+00 0.  1.
</event>
<event>
 6    1  0.2412631E-010  0.1716404E+03  0.7561462E-02  0.1176148E+00
          1   -1    0    0  501    0  0.00000000000E+00  0.00000000000E+00  0.78595989204E+03  0.78595989204E+03  0.00000000000E+00 0. -1.
         -1   -1    0    0    0  501 -0.00000000000E+00 -0.00000000000E+00 -0.47146686429E+02  0.47146686429E+02  0.00000000000E+00 0.  1.
          5    1    1    2  502    0 -0.15571934514E+03 -0.62075335337E+02  0.42204683784E+03  0.45413970036E+03  0.41800000000E+01 0.  1.
         -5    1    1    2    0  502  0.21473818530E+02  0.31469332059E+00  0.10749239142E+03  0.10969644720E+03  0.41800000000E+01 0.  1.
        -11    1    1    2    0    0  0.31669350387E+02 -0.39201550033E+01  0.62581002216E+01  0.32518905080E+02  0.00000000000E+00 0.  1.
         11    1    1    2    0    0  0.10257617622E+03  0.65680797019E+02  0.20301587613E+03  0.23675152584E+03  0.00000000000E+00 0. -1.
</event>
<event>
 7    1  0.2717417E-010  0.2473049E+03  0.7561462E-02  0.1115020E+00
         -2   -1    0    0    0  501 -0.00000000000E+00  0.00000000000E+00  0.11328249519E+03  0.11328249519E+03  0.00000000000E+00 0.  1.
          2   -1    0    0  501    0  0.00000000000E+00 -0.00000000000E+00 -0.62794491295E+03  0.62794491295E+03  0.00000000000E+00 0. -1.
         25    2    1    2    0    0 -0.64111271779E+02 -0.23446022458E+03 -0.25197330042E+03  0.37178847786E+03  0.12511704947E+03 0.  0.
          5    1    3    3  502    0 -0.73830140547E+02 -0.21881807946E+03 -0.26291556340E+03  0.34996329440E+03  0.41800000000E+01 0.  1.
         -5    1    3    3    0  502  0.97188687676E+01 -0.15642145121E+02  0.10942262979E+02  0.21825183463E+02  0.41800000000E+01 0.  1.
        -11    1    1    2    0    0  0.62063978677E+02  0.18278514434E+03 -0.14673115260E+03  0.24247139539E+03  0.00000000000E+00 0.  1.
         11    1    1    2    0    0  0.20472931028E+01  0.51675080239E+02 -0.11595796474E+03  0.12696753488E+03  0.00000000000E+00 0. -1.
</event>
<event>
 7    1  0.2412631E-010  0.2354695E+03  0.7561462E-02  0.1122848E+00
          1   -1    0    0  501    0  0.00000000000E+00  0.00000000000E+00  0.13574419892E+04  0.13574419892E+04  0.00000000000E+00 0. -1.
         -1   -1    0    0    0  501 -0.00000000000E+00 -0.00000000000E+00 -0.43764815681E+02  0.43764815681E+02  0.00000000000E+00 0.  1.
         25    2    1    2    0    0  0.18268381768E+03 -0.11747108019E+03  0.62649650967E+03  0.67476750800E+03  0.12506190985E+03 0.  0.
          5    1    3    3  502    0 -0.15821519176E+02 -0.13145964995E+02  0.24037197983E+02  0.31912319746E+02  0.41800000000E+01 0. -1.
         -5    1    3    3    0  502  0.19850533686E+03 -0.10432511520E+03  0.60245931169E+03  0.64285518825E+03  0.41800000000E+01 0. -1.
        -11    1    1    2    0    0 -0.86775942173E+02  0.20279136368E+02  0.37947260984E+03  0.38979580440E+03  0.00000000000E+00 0. -1.
         11    1    1    2    0    0 -0.95907875511E+02  0.97191943825E+02  0.30770805404E+03  0.33664349251E+03  0.00000000000E+00 0.  1.
</event>
<event>
 7    1  0.2412631E-010  0.1120486E+03  0.7561462E-02  0.1256822E+00
          1   -1    0    0  501    0  0.00000000000E+00  0.00000000000E+00  0.13348809184E+03  0.13348809184E+03  0.00000000000E+00 0. -1.
         -1   -1    0    0    0  501 -0.00000000000E+00 -0.00000000000E+00 -0.15497877039E+03  0.15497877039E+03  0.00000000000E+00 0.  1.
         25    2    1    2    0    0  0.21111801527E+02  0.12093295219E+02 -0.94911623229E+02  0.15887806269E+03  0.12506824788E+03 0.  0.
          5    1    3    3  502    0  0.43220357754E+02 -0.44609598547E+02 -0.68027542691E+02  0.92212984831E+02  0.41800000000E+01 0. -1.
         -5    1    3    3    0  502 -0.22108556227E+02  0.56702893766E+02 -0.26884080538E+02  0.66665077861E+02  0.41800000000E+01 0. -1.
        -11    1    1    2    0    0  0.12774131748E+02  0.38153226017E+02  0.91739254384E+01  0.41267517557E+02  0.00000000000E+00 0.  1.
         11    1    1    2    0    0 -0.33885933274E+02 -0.50246521236E+02  0.64247019234E+02  0.88321281980E+02  0.00000000000E+00 0. -1.
</event>
<event>
 7    1  0.2412631E-010  0.9938704E+02  0.7561462E-02  0.1281590E+00
          1   -1    0    0  501    0  0.00000000000E+00  0.00000000000E+00  0.71844305739E+03  0.71844305739E+03  0.00000000000E+00 0. -1.
         -1   -1    0    0    0  501 -0.00000000000E+00 -0.00000000000E+00 -0.52715382077E+02  0.52715382077E+02  0.00000000000E+00 0.  1.
         25    2    1    2    0    0 -0.95902781531E+02  0.22615967262E+02  0.60767523429E+03  0.62820351581E+03  0.12514647986E+03 0.  0.
          5    1    3    3  502    0 -0.19179174869E+02  0.88747494013E+01  0.46559974599E+03  0.46609784144E+03  0.41800000000E+01 0.  1.
         -5    1    3    3    0  502 -0.76723606661E+02  0.13741217860E+02  0.14207548830E+03  0.16210567437E+03  0.41800000000E+01 0.  1.
        -11    1    1    2    0    0  0.52471048836E+02 -0.65995695637E+01 -0.16326671423E+02  0.55347316865E+02  0.00000000000E+00 0.  1.
         11    1    1    2    0    0  0.43431732695E+02 -0.16016397698E+02  0.74379112444E+02  0.87607606794E+02  0.00000000000E+00 0. -1.
</event>
<event>
 7    1  0.2412631E-010  0.1481628E+03  0.7561462E-02  0.1202749E+00
          2   -1    0    0  501    0  0.00000000000E+00  0.00000000000E+00  0.12896861889E+04  0.12896861889E+04  0.00000000000E+00 0. -1.
         -2   -1    0    0    0  501 -0.00000000000E+00 -0.00000000000E+00 -0.17632251520E+02  0.17632251520E+02  0.00000000000E+00 0.  1.
         25    2    1    2    0    0 -0.61965384921E+02 -0.80508080680E+02  0.65950327807E+03  0.67889658928E+03  0.12503897459E+03 0.  0.
          5    1    3    3  502    0 -0.30870604373E+02 -0.11208735350E+03  0.45934357439E+03  0.47384655825E+03  0.41800000000E+01 0. -1.
         -5    1    3    3    0  502 -0.31094780548E+02  0.31579272820E+02  0.20015970367E+03  0.20505003103E+03  0.41800000000E+01 0. -1.
        -11    1    1    2    0    0 -0.43936832340E+01 -0.16983031916E+02  0.37464300838E+02  0.41367882018E+02  0.00000000000E+00 0.  1.
         11    1    1    2    0    0  0.66359068156E+02  0.97491112596E+02  0.57508635846E+03  0.58705396911E+03  0.00000000000E+00 0. -1.
</event>
<event>
 7    1  0.2412631E-010  0.7104443E+02  0.7561462E-02  0.1356577E+00
          2   -1    0    0  501    0  0.00000000000E+00  0.00000000000E+00  0.52551987569E+02  0.52551987569E+02  0.00000000000E+00 0. -1.
         -2   -1    0    0    0  501 -0.00000000000E+00 -0.00000000000E+00 -0.28533282579E+03  0.28533282579E+03  0.00000000000E+00 0.  1.
         25    2    1    2    0    0  0.25184115255E+02 -0.44755644480E+02 -0.15563965555E+03  0.20620142446E+03  0.12513200109E+03 0.  0.
          5    1    3    3  502    0  0.39873034548E+02 -0.63275037362E+01  0.44744665417E+01  0.40833680197E+02  0.41800000000E+01 0.  1.
         -5    1    3    3    0  502 -0.14688919294E+02 -0.38428140744E+02 -0.16011412209E+03  0.16536774426E+03  0.41800000000E+01 0.  1.
        -11    1    1    2    0    0 -0.21958906746E+01  0.35176938263E+02  0.13455203822E+02  0.37726402310E+02  0.00000000000E+00 0. -1.
         11    1    1    2    0    0 -0.22988224580E+02  0.95787062173E+01 -0.90596386495E+02  0.93956986585E+02  0.00000000000E+00 0.  1.
</event>
<event>
 7    1  0.2412631E-010  0.8444285E+02  0.7561462E-02  0.1316896E+00
         -1   -1    0    0    0  501 -0.00000000000E+00  0.00000000000E+00  0.80534475227E+03  0.80534475227E+03  0.00000000000E+00 0.  1.
          1   -1    0    0  501    0  0.00000000000E+00 -0.00000000000E+00 -0.49903617162E+02  0.49903617162E+02  0.00000000000E+00 0. -1.
         25    2    1    2    0    0  0.24505618462E+02  0.58740304069E+02  0.72690740168E+03  0.74032622327E+03  0.12505038020E+03 0.  0.
          5    1    3    3  502    0  0.46768770558E+02  0.26903721712E+02  0.11419136578E+03  0.12636561463E+03  0.41800000000E+01 0. -1.
         -5    1    3    3    0  502 -0.22263152096E+02  0.31836582356E+02  0.61271603590E+03  0.61396060864E+03  0.41800000000E+01 0. -1.
        -11    1    1    2    0    0  0.86377165219E+01 -0.31897573350E+02 -0.28545858852E+02  0.43668425549E+02  0.00000000000E+00 0. -1.
         11    1    1    2    0    0 -0.33143334984E+02 -0.26842730718E+02  0.57079592285E+02  0.71253720617E+02  0.00000000000E+00 0.  1.
</event>
<event>
 7    1  0.2412631E-010  0.1409694E+03  0.7561462E-02  0.1212031E+00
         -1   -1    0    0    0  501 -0.00000000000E+00  0.00000000000E+00  0.85783595974E+03  0.85783595974E+03  0.00000000000E+00 0.  1.
          1   -1    0    0  501    0  0.00000000000E+00 -0.00000000000E+00 -0.30548701834E+02  0.30548701834E+02  0.00000000000E+00 0. -1.
         25    2    1    2    0    0  0.11011789918E+03 -0.10088694786E+02  0.31884696681E+03  0.35990761845E+03  0.12506946904E+03 0.  0.
          5    1    3    3  502    0  0.33733961436E+02  0.55943392944E+02  0.11295053819E+03  0.13054861105E+03  0.41800000000E+01 0. -1.
         -5    1    3    3    0  502  0.76383937749E+02 -0.66032087730E+02  0.20589642862E+03  0.22935900740E+03  0.41800000000E+01 0. -1.
        -11    1    1    2    0    0 -0.30589192878E+02 -0.12038626664E+02  0.35484636393E+02  0.48371341441E+02  0.00000000000E+00 0. -1.
         11    1    1    2    0    0 -0.79528706307E+02  0.22127321449E+02  0.47295565469E+03  0.48010570168E+03  0.00000000000E+00 0.  1.
</event>
<event>
 7    1  0.2412631E-010  0.1059482E+03  0.7561462E-02  0.1268263E+00
          1   -1    0    0  501    0  0.00000000000E+00  0.00000000000E+00  0.19219460049E+02  0.19219460049E+02  0.00000000000E+00 0. -1.
         -1   -1    0    0    0  501 -0.00000000000E+00 -0.00000000000E+00 -0.68183477472E+03  0.68183477472E+03  0.00000000000E+00 0.  1.
         25    2    1    2    0    0  0.19412518118E+02  0.20706471613E+02 -0.47907084911E+03  0.49595479467E+03  0.12512664010E+03 0.  0.
          5    1    3    3  502    0 -0.49321311807E+02  0.14087880281E+02 -0.29204835396E+03  0.29654809664E+03  0.41800000000E+01 0. -1.
         -5    1    3    3    0  502  0.68733829925E+02  0.66185913318E+01 -0.18702249515E+03  0.19940669803E+03  0.41800000000E+01 0. -1.
        -11    1    1    2    0    0  0.27720699345E+02  0.15554798245E+02 -0.56560057157E+02  0.64880112410E+02  0.00000000000E+00 0.  1.
         11    1    1    2    0    0 -0.47133217463E+02 -0.36261269858E+02 -0.12698440840E+03  0.14021932768E+03  0.00000000000E+00 0. -1.
</event>
<event>
 7    1  0.2412631E-010  0.1100345E+03  0.7561462E-02  0.1260506E+00
         -2   -1    0    0    0  501 -0.00000000000E+00  0.00000000000E+00  0.83523558442E+02  0.83523558442E+02  0.00000000000E+00 0. -1.
          2   -1    0    0  501    0  0.00000000000E+00 -0.00000000000E+00 -0.24236911760E+03  0.24236911760E+03  0.00000000000E+00 0.  1.
         25    2    1    2    0    0 -0.90067902420E+02  0.80248079322E+01 -0.10910152211E+03  0.18903320931E+03  0.12511509704E+03 0.  0.
          5    1    3    3  502    0 -0.78299156689E+02 -0.18556563430E+02 -0.13002881386E+03  0.15297081034E+03  0.41800000000E+01 0.  1.
         -5    1    3    3    0  502 -0.11768745730E+02  0.26581371362E+02  0.20927291745E+02  0.36062398968E+02  0.41800000000E+01 0.  1.
        -11    1    1    2    0    0  0.52713063165E+02 -0.35673242413E+02  0.64066886673E+01  0.63971031821E+02  0.00000000000E+00 0. -1.
         11    1    1    2    0    0  0.37354839254E+02  0.27648434481E+02 -0.56150725710E+02  0.72888434904E+02  0.00000000000E+00 0.  1.
</event>
<event>
 7    1  0.2412631E-010  0.8716008E+02  0.7561462E-02  0.1309878E+00
          4   -1    0    0  501    0  0.00000000000E+00  0.00000000000E+00  0.17843364711E+03  0.17843364711E+03  0.00000000000E+00 0. -1.
         -4   -1    0    0    0  501 -0.00000000000E+00 -0.00000000000E+00 -0.16016664454E+03  0.16016664454E+03  0.00000000000E+00 0.  1.
         25    2    1    2    0    0 -0.30969373160E+02 -0.50545581151E+02 -0.10421894874E+03  0.17330264885E+03  0.12513297317E+03 0.  0.
          5    1    3    3  502    0 -0.27688343307E+02 -0.24116069338E+02  0.22820997128E+02  0.43433851606E+02  0.41800000000E+01 0. -1.
         -5    1    3    3    0  502 -0.32810298527E+01 -0.26429511813E+02 -0.12703994587E+03  0.12986879725E+03  0.41800000000E+01 0. -1.
        -11    1    1    2    0    0 -0.24787548260E+01 -0.26394298716E+02  0.22455855084E+02  0.34742893630E+02  0.00000000000E+00 0.  1.
         11    1    1    2    0    0  0.33448127986E+02  0.76939879867E+02  0.10003009623E+03  0.13055474917E+03  0.00000000000E+00 0. -1.
</event>
<event>
 7    1  0.2412631E-010  0.1928740E+03  0.7561462E-02  0.1155894E+00
          2   -1    0    0  501    0  0.00000000000E+00  0.00000000000E+00  0.95200835597E+02  0.95200835597E+02  0.00000000000E+00 0. -1.
         -2   -1    0    0    0  501 -0.00000000000E+00 -0.00000000000E+00 -0.49012768109E+03  0.49012768109E+03  0.00000000000E+00 0.  1.
         25    2    1    2    0    0 -0.72748708514E+02  0.17115895292E+03 -0.21674193864E+03  0.31180471619E+03  0.12512933834E+03 0.  0.
          5    1    3    3  502    0 -0.81969128848E+02  0.12525519153E+03 -0.85592962569E+02  0.17248602474E+03  0.41800000000E+01 0. -1.
         -5    1    3    3    0  502  0.92204203331E+01  0.45903761396E+02 -0.13114897607E+03  0.13931869145E+03  0.41800000000E+01 0. -1.
        -11    1    1    2    0    0  0.48016167696E+02 -0.70229675364E+02 -0.13798483106E+03  0.16210358807E+03  0.00000000000E+00 0.  1.
         11    1    1    2    0    0  0.24732540819E+02 -0.10092927756E+03 -0.40200075785E+02  0.11142021243E+03  0.00000000000E+00 0. -1.
</event>
<event>
 7    1  0.2412631E-010  0.1098325E+03  0.7561462E-02  0.1260880E+00
          1   -1    0    0  501    0  0.00000000000E+00  0.00000000000E+00  0.19391285497E+03  0.19391285497E+03  0.00000000000E+00 0. -1.
         -1   -1    0    0    0  501 -0.00000000000E+00 -0.00000000000E+00 -0.11018772896E+03  0.11018772896E+03  0.00000000000E+00 0.  1.
         25    2    1    2    0    0  0.66659779986E+02  0.70966350868E+02  0.50633210823E+02  0.16638565666E+03  0.12506284612E+03 0.  0.
          5    1    3    3  502    0  0.37278831169E+02  0.71118490132E+02  0.87648499486E+02  0.11894235055E+03  0.41800000000E+01 0.  1.
         -5    1    3    3    0  502  0.29380948817E+02 -0.15213926416E+00 -0.37015288663E+02  0.47443306109E+02  0.41800000000E+01 0.  1.
        -11    1    1    2    0    0 -0.24466946167E+02 -0.61713889028E+02 -0.19940387781E+02  0.69317058640E+02  0.00000000000E+00 0.  1.
         11    1    1    2    0    0 -0.42192833819E+02 -0.92524618404E+01  0.53032302966E+02  0.68397868634E+02  0.00000000000E+00 0. -1.
</event>
<event>
 7    1  0.2412631E-010  0.1179943E+03  0.7561462E-02  0.1246443E+00
          2   -1    0    0  501    0  0.00000000000E+00  0.00000000000E+00  0.42969340126E+02  0.42969340126E+02  0.00000000000E+00 0. -1.
         -2   -1    0    0    0  501 -0.00000000000E+00 -0.00000000000E+00 -0.37422312147E+03  0.37422312147E+03  0.00000000000E+00 0.  1.
         25    2    1    2    0    0 -0.40542390131E+02  0.50821446683E+02 -0.15573747237E+03  0.21004367546E+03  0.12505071156E+03 0.  0.
          5    1    3    3  502    0 -0.65127137480E+02  0.72834159766E+02 -0.76676761679E+02  0.12427049950E+03  0.41800000000E+01 0.  1.
         -5    1    3    3    0  502  0.24584747349E+02 -0.22012713083E+02 -0.79060710688E+02  0.85773175959E+02  0.41800000000E+01 0.  1.
        -11    1    1    2    0    0 -0.17626869927E+02 -0.42702467496E+02 -0.10915956340E+03  0.11853276996E+03  0.00000000000E+00 0.  1.
         11    1    1    2    0    0  0.58169260058E+02 -0.81189791871E+01 -0.66356745584E+02  0.88616016178E+02  0.00000000000E+00 0. -1.
</event>
<event>
 7    1  0.2412631E-010  0.9113375E+02  0.7561462E-02  0.1300129E+00
          2   -1    0    0  501    0  0.00000000000E+00  0.00000000000E+00  0.22557279926E+03  0.22557279926E+03  0.00000000000E+00 0. -1.
         -2   -1    0    0    0  501 -0.00000000000E+00 -0.00000000000E+00 -0.91942661189E+02  0.91942661189E+02  0.00000000000E+00 0.  1.
         25    2    1    2    0    0  0.79661612320E+02 -0.11459943586E+02  0.18775399165E+02  0.14994671755E+03  0.12511674431E+03 0.  0.
          5    1    3    3  502    0  0.50363824706E+02  0.13127010156E+02  0.69093814626E+02  0.86604046408E+02  0.41800000000E+01 0.  1.
         -5    1    3    3    0  502  0.29297787614E+02 -0.24586953742E+02 -0.50318415461E+02  0.63342671146E+02  0.41800000000E+01 0.  1.
        -11    1    1    2    0    0 -0.10555300059E+02 -0.14345996516E+02 -0.11539927823E+02  0.21222438822E+02  0.00000000000E+00 0.  1.
         11    1    1    2    0    0 -0.69106312260E+02  0.25805940102E+02  0.12639466673E+03  0.14634630407E+03  0.00000000000E+00 0. -1.
</event>
<event>
 7    1  0.2412631E-010  0.9825583E+02  0.7561462E-02  0.1284007E+00
          1   -1    0    0  501    0  0.00000000000E+00  0.00000000000E+00  0.24134375738E+03  0.24134375738E+03  0.00000000000E+00 0. -1.
         -1   -1    0    0    0  501 -0.00000000000E+00 -0.00000000000E+00 -0.89570575274E+02  0.89570575274E+02  0.00000000000E+00 0.  1.
         25    2    1    2    0    0  0.14296461100E+02  0.33146231527E+01  0.19207003405E+03  0.22969376268E+03  0.12511175447E+03 0.  0.
          5    1    3    3  502    0  0.34342883244E+02  0.57873597522E+02  0.95524804558E+02  0.11692411045E+03  0.41800000000E+01 0. -1.
         -5    1    3    3    0  502 -0.20046422144E+02 -0.54558974369E+02  0.96545229494E+02  0.11276965223E+03  0.41800000000E+01 0. -1.
        -11    1    1    2    0    0  0.27750351412E+02 -0.69478154739E+01 -0.50283680471E+02  0.57851557153E+02  0.00000000000E+00 0.  1.
         11    1    1    2    0    0 -0.42046812512E+02  0.36331923212E+01  0.99868285219E+01  0.43369012818E+02  0.00000000000E+00 0. -1.
</event>
<event>
 6    1  0.2412631E-010  0.1093385E+03  0.7561462E-02  0.1261800E+00
          1   -1    0    0  501    0  0.00000000000E+00  0.00000000000E+00  0.25065532560E+03  0.25065532560E+03  0.00000000000E+00 0. -1.
         -1   -1    0    0    0  501 -0.00000000000E+00 -0.00000000000E+00 -0.90255955740E+02  0.90255955740E+02  0.00000000000E+00 0.  1.
          5    1    1    2  502    0  0.10078290058E+03 -0.24529340748E+02  0.12115971045E+03  0.15954945767E+03  0.41800000000E+01 0. -1.
         -5    1    1    2    0  502 -0.35821264765E+02  0.10527212625E+02  0.53488184901E+02  0.65363931484E+02  0.41800000000E+01 0. -1.
        -11    1    1    2    0    0 -0.31671638623E+02 -0.13195775170E+02 -0.49620862254E+02  0.60327863764E+02  0.00000000000E+00 0.  1.
         11    1    1    2    0    0 -0.33289997190E+02  0.27197903293E+02  0.35372336760E+02  0.55670028420E+02  0.00000000000E+00 0. -1.
</event>
<event>
 6    1  0.2412631E-010  0.7497438E+02  0.7561462E-02  0.1343950E+00
          2   -1    0    0  501    0  0.00000000000E+00  0.00000000000E+00  0.15215237107E+03  0.15215237107E+03  0.00000000000E+00 0. -1.
         -2   -1    0    0    0  501 -0.00000000000E+00 -0.00000000000E+00 -0.90384650359E+02  0.90384650359E+02  0.00000000000E+00 0.  1.
          5    1    1    2  502    0  0.54350513914E+02  0.29430733069E+02  0.74768593887E+02  0.97097690207E+02  0.41800000000E+01 0.  1.
         -5    1    1    2    0  502 -0.12210242909E+02 -0.26680412298E+02 -0.30043747980E+02  0.42202294073E+02  0.41800000000E+01 0.  1.
        -11    1    1    2    0    0 -0.43630513192E+02 -0.14912920467E+02 -0.29745397919E+02  0.54870808046E+02  0.00000000000E+00 0.  1.
         11    1    1    2    0    0  0.14902421871E+01  0.12162599696E+02  0.46788272722E+02  0.48366229101E+02  0.00000000000E+00 0. -1.
</event>
<event>
 7    1  0.2412631E-010  0.1982027E+03  0.7561462E-02  0.1151264E+00
          1   -1    0    0  501    0  0.00000000000E+00  0.00000000000E+00  0.29123062294E+03  0.29123062294E+03  0.00000000000E+00 0. -1.
         -1   -1    0    0    0  501 -0.00000000000E+00 -0.00000000000E+00 -0.17553275550E+03  0.17553275550E+03  0.00000000000E+00 0.  1.
         25    2    1    2    0    0  0.65005000065E+02  0.15817500566E+03  0.16262332190E+03  0.26710836645E+03  0.12512214894E+03 0.  0.
          5    1    3    3  502    0  0.84459070852E+02  0.61528330223E+02  0.45739178649E+02  0.11414295831E+03  0.41800000000E+01 0. -1.
         -5    1    3    3    0  502 -0.19454070788E+02  0.96646675436E+02  0.11688414325E+03  0.15296540814E+03  0.41800000000E+01 0. -1.
        -11    1    1    2    0    0 -0.18924900386E+02 -0.14357370516E+03 -0.26701362215E+02  0.14725665829E+03  0.00000000000E+00 0. -1.
         11    1    1    2    0    0 -0.46080099678E+02 -0.14601300499E+02 -0.20224092244E+02  0.52398353693E+02  0.00000000000E+00 0.  1.
</event>
<event>
 7    1  0.2412631E-010  0.8512753E+02  0.7561462E-02  0.1315099E+00
          1   -1    0    0  501    0  0.00000000000E+00  0.00000000000E+00  0.49228007254E+02  0.49228007254E+02  0.00000000000E+00 0. -1.
         -1   -1    0    0    0  501 -0.00000000000E+00 -0.00000000000E+00 -0.35016871446E+03  0.35016871446E+03  0.00000000000E+00 0.  1.
         25    2    1    2    0    0 -0.21822580414E+02  0.40605461096E+02 -0.11127571728E+03  0.17362907135E+03  0.12505894880E+03 0.  0.
          5    1    3    3  502    0 -0.48010283840E+00  0.69380185863E+01  0.27765150330E+02  0.28926502960E+02  0.41800000000E+01 0.  1.
         -5    1    3    3    0  502 -0.21342477576E+02  0.33667442509E+02 -0.13904086761E+03  0.14470256839E+03  0.41800000000E+01 0.  1.
        -11    1    1    2    0    0 -0.18808253856E+02 -0.69631165361E+02 -0.12100484853E+03  0.14087023451E+03  0.00000000000E+00 0.  1.
         11    1    1    2    0    0  0.40630834270E+02  0.29025704265E+02 -0.68660141393E+02  0.84897415848E+02  0.00000000000E+00 0. -1.
</event>
<event>
 7    1  0.2412631E-010  0.7631885E+02  0.7561462E-02  0.1339835E+00
          2   -1    0    0  501    0  0.00000000000E+00  0.00000000000E+00  0.87148934151E+02  0.87148934151E+02  0.00000000000E+00 0.  1.
         -2   -1    0    0    0  501 -0.00000000000E+00 -0.00000000000E+00 -0.17943859425E+03  0.17943859425E+03  0.00000000000E+00 0. -1.
         25    2    1    2    0    0  0.38460651067E+02  0.13730874327E+02 -0.92551542880E+02  0.16091245963E+03  0.12513701684E+03 0.  0.
          5    1    3    3  502    0  0.17152202887E+02  0.18062936226E+02 -0.12170799565E+03  0.12430115178E+03  0.41800000000E+01 0. -1.
         -5    1    3    3    0  502  0.21308448180E+02 -0.43320618990E+01  0.29156452769E+02  0.36611307846E+02  0.41800000000E+01 0. -1.
        -11    1    1    2    0    0 -0.36982768205E+02 -0.53721088717E+02  0.48236863708E+01  0.65398382757E+02  0.00000000000E+00 0.  1.
         11    1    1    2    0    0 -0.14778828614E+01  0.39990214389E+02 -0.45618035911E+01  0.40276686019E+02  0.00000000000E+00 0. -1.
</event>
<event>
 6    1  0.2412631E-010  0.7697299E+02  0.7561462E-02  0.1337868E+00
         -2   -1    0    0    0  501 -0.00000000000E+00  0.00000000000E+00  0.25171435694E+03  0.25171435694E+03  0.00000000000E+00 0.  1.
          2   -1    0    0  501    0  0.00000000000E+00 -0.00000000000E+00 -0.52118757747E+02  0.52118757747E+02  0.00000000000E+00 0. -1.
          5    1    1    2  502    0  0.22536898265E+00 -0.13587225974E+02  0.13442738492E+03  0.13517713459E+03  0.41800000000E+01 0.  1.
         -5    1    1    2    0  502 -0.14922503997E+02  0.42291630832E+02 -0.76096016925E+01  0.45679772349E+02  0.41800000000E+01 0.  1.
        -11    1    1    2    0    0  0.44480654694E+02 -0.42807342156E+02  0.29064159929E+02  0.68232855553E+02  0.00000000000E+00 0.  1.
         11    1    1    2    0    0 -0.29783519680E+02  0.14102937299E+02  0.43713656038E+02  0.54743352192E+02  0.00000000000E+00 0. -1.
</event>
<event>
 7    1  0.2412631E-010  0.6854157E+02  0.7561462E-02  0.1365124E+00
         -2   -1    0    0    0  501 -0.00000000000E+00  0.00000000000E+00  0.22571828549E+03  0.22571828549E+03  0.00000000000E+00 0.  1.
          2   -1    0    0  501    0  0.00000000000E+00 -0.00000000000E+00 -0.40011721521E+02  0.40011721521E+02  0.00000000000E+00 0. -1.
         25    2    1    2    0    0 -0.37535153275E+02  0.28444409675E+02  0.13106918420E+03  0.18723066234E+03  0.12513280025E+03 0.  0.
          5    1    3    3  502    0 -0.56176288510E+02  0.66112227391E+01  0.39638975418E+01  0.56856561104E+02  0.41800000000E+01 0. -1.
         -5    1    3    3    0  502  0.18641135235E+02  0.21833186936E+02  0.12710528666E+03  0.13037410123E+03  0.41800000000E+01 0. -1.
        -11    1    1    2    0    0  0.98824976515E+01 -0.20216854357E+02  0.84409804262E+01  0.24034040660E+02  0.00000000000E+00 0. -1.
         11    1    1    2    0    0  0.27652655623E+02 -0.82275553180E+01  0.46196399341E+02  0.54465304017E+02  0.00000000000E+00 0.  1.
</event>
<event>
 7    1  0.2412631E-010  0.1317917E+03  0.7561462E-02  0.1224821E+00
         -4   -1    0    0    0  501 -0.00000000000E+00  0.00000000000E+00  0.47418669454E+03  0.47418669454E+03  0.00000000000E+00 0.  1.
          4   -1    0    0  501    0  0.00000000000E+00 -0.00000000000E+00 -0.44864780313E+02  0.44864780313E+02  0.00000000000E+00 0. -1.
         25    2    1    2    0    0  0.90945592819E+02 -0.36719292836E+02  0.23565286568E+03  0.28422759883E+03  0.12503458527E+03 0.  0.
          5    1    3    3  502    0  0.76826437630E+01 -0.67963700311E+02  0.84370375532E+02  0.10869185914E+03  0.41800000000E+01 0. -1.
         -5    1    3    3    0  502  0.83262949056E+02  0.31244407475E+02  0.15128249015E+03  0.17553573969E+03  0.41800000000E+01 0. -1.
        -11    1    1    2    0    0 -0.39330803215E+02  0.37592152839E+02  0.27780344574E+02  0.61088702566E+02  0.00000000000E+00 0. -1.
         11    1    1    2    0    0 -0.51614789604E+02 -0.87286000258E+00  0.16588870397E+03  0.17373517345E+03  0.00000000000E+00 0.  1.
</event>
<event>
 7    1  0.2412631E-010  0.1150386E+03  0.7561462E-02  0.1251514E+00
         -4   -1    0    0    0  501 -0.00000000000E+00  0.00000000000E+00  0.85564343117E+03  0.85564343117E+03  0.00000000000E+00 0.  1.
          4   -1    0    0  501    0  0.00000000000E+00 -0.00000000000E+00 -0.17763870498E+02  0.17763870498E+02  0.00000000000E+00 0. -1.
         25    2    1    2    0    0 -0.52288424711E+02 -0.27526270805E+02  0.45915798063E+03  0.47954000446E+03  0.12506314311E+03 0.  0.
          5    1    3    3  502    0 -0.31607500741E+02 -0.68955300350E+02  0.16397872307E+03  0.18072177946E+03  0.41800000000E+01 0. -1.
         -5    1    3    3    0  502 -0.20680923969E+02  0.41429029546E+02  0.29517925755E+03  0.29881822500E+03  0.41800000000E+01 0. -1.
        -11    1    1    2    0    0  0.31134227391E+02 -0.31876505781E+02  0.17682136286E+03  0.18234924212E+03  0.00000000000E+00 0. -1.
         11    1    1    2    0    0  0.21154197320E+02  0.59402776585E+02  0.20190021719E+03  0.21151805509E+03  0.00000000000E+00 0.  1.
</event>
<event>
 7    1  0.4081309E-010  0.1072182E+03  0.7561462E-02  0.1265810E+00
          2   -1    0    0  501    0  0.00000000000E+00  0.00000000000E+00  0.22408950504E+03  0.22408950504E+03  0.00000000000E+00 0. -1.
         -2   -1    0    0    0  501 -0.00000000000E+00 -0.00000000000E+00 -0.62262980235E+02  0.62262980235E+02  0.00000000000E+00 0.  1.
         25    2    1    2    0    0  0.65077146746E+00  0.11742497381E+02  0.14691964165E+03  0.19333140445E+03  0.12511331303E+03 0.  0.
          5    1    3    3  502    0 -0.33507411068E+02  0.56788118534E+02  0.99439758360E+02  0.11938749912E+03  0.41800000000E+01 0.  1.
         -5    1    3    3    0  502  0.34158182535E+02 -0.45045621154E+02  0.47479883285E+02  0.73943905334E+02  0.41800000000E+01 0.  1.
        -11    1    1    2    0    0 -0.32764589056E+02 -0.38017341775E+02  0.10695035122E+02  0.51314913504E+02  0.00000000000E+00 0.  1.
         11    1    1    2    0    0  0.32113817589E+02  0.26274844395E+02  0.42118480320E+01  0.41706167313E+02  0.00000000000E+00 0. -1.
</event>
<event>
 7    1  0.2412631E-010  0.1289361E+03  0.7561462E-02  0.1229043E+00
          2   -1    0    0  501    0  0.00000000000E+00  0.00000000000E+00  0.22107687542E+03  0.22107687542E+03  0.00000000000E+00 0. -1.
         -2   -1    0    0    0  501 -0.00000000000E+00 -0.00000000000E+00 -0.11309727441E+03  0.11309727441E+03  0.00000000000E+00 0.  1.
         25    2    1    2    0    0  0.45315905571E+02 -0.99532558814E+02  0.22074632519E+02  0.16764282396E+03  0.12512619814E+03 0.  0.
          5    1    3    3  502    0  0.54524241854E+02 -0.61669779070E+02  0.68297511173E+02  0.10704240764E+03  0.41800000000E+01 0.  1.
         -5    1    3    3    0  502 -0.92083362825E+01 -0.37862779745E+02 -0.46222878653E+02  0.60600416320E+02  0.41800000000E+01 0.  1.
        -11    1    1    2    0    0  0.23353351165E+02  0.34655642327E+02  0.50729132222E+02  0.65725470038E+02  0.00000000000E+00 0. -1.
         11    1    1    2    0    0 -0.68669256736E+02  0.64876916488E+02  0.35175836270E+02  0.10080585584E+03  0.00000000000E+00 0.  1.
</event>
<event>
 7    1  0.2412631E-010  0.1196517E+03  0.7561462E-02  0.1243673E+00
          1   -1    0    0  501    0  0.00000000000E+00  0.00000000000E+00  0.72197216794E+03  0.72197216794E+03  0.00000000000E+00 0. -1.
         -1   -1    0    0    0  501 -0.00000000000E+00 -0.00000000000E+00 -0.23853868247E+02  0.23853868247E+02  0.00000000000E+00 0.  1.
         25    2    1    2    0    0  0.61869658353E+02 -0.74897375112E+01  0.47078885305E+03  0.49108751068E+03  0.12506337671E+03 0.  0.
          5    1    3    3  502    0  0.42699202527E+02 -0.62701972378E+02  0.32919621770E+03  0.33784964317E+03  0.41800000000E+01 0. -1.
         -5    1    3    3    0  502  0.19170455826E+02  0.55212234867E+02  0.14159263534E+03  0.15323786751E+03  0.41800000000E+01 0. -1.
        -11    1    1    2    0    0  0.19595150480E+02 -0.90860376202E+01  0.10255902844E+03  0.10480877977E+03  0.00000000000E+00 0. -1.
         11    1    1    2    0    0 -0.81464808833E+02  0.16575775131E+02  0.12477041820E+03  0.14992974574E+03  0.00000000000E+00 0.  1.
</event>
<event>
 7    1  0.2412631E-010  0.1332195E+03  0.7561462E-02  0.1222755E+00
         -1   -1    0    0    0  501 -0.00000000000E+00  0.00000000000E+00  0.10029402400E+03  0.10029402400E+03  0.00000000000E+00 0. -1.
          1   -1    0    0  501    0  0.00000000000E+00 -0.00000000000E+00 -0.25965399203E+03  0.25965399203E+03  0.00000000000E+00 0.  1.
         25    2    1    2    0    0  0.94184105546E+02 -0.18082315650E+02 -0.89076268630E+01  0.15784568837E+03  0.12505318727E+03 0.  0.
          5    1    3    3  502    0  0.82819446607E+02 -0.66118360221E+02 -0.17724967767E+02  0.10752834592E+03  0.41800000000E+01 0.  1.
         -5    1    3    3    0  502  0.11364658939E+02  0.48036044571E+02  0.88173409044E+01  0.50317342452E+02  0.41800000000E+01 0.  1.
        -11    1    1    2    0    0 -0.79913811548E+02 -0.88108568475E+01 -0.15163946172E+03  0.17163442203E+03  0.00000000000E+00 0.  1.
         11    1    1    2    0    0 -0.14270293998E+02  0.26893172497E+02  0.11871205572E+01  0.30467905622E+02  0.00000000000E+00 0. -1.
</event>
<event>
 7    1  0.2412631E-010  0.2305227E+03  0.7561462E-02  0.1126272E+00
         -2   -1    0    0    0  501 -0.00000000000E+00  0.00000000000E+00  0.74056338386E+03  0.74056338386E+03  0.00000000000E+00 0.  1.
          2   -1    0    0  501    0  0.00000000000E+00 -0.00000000000E+00 -0.82721876222E+02  0.82721876222E+02  0.00000000000E+00 0. -1.
         25    2    1    2    0    0 -0.61895547331E+02 -0.19528523102E+03  0.47867559539E+03  0.53548116122E+03  0.12506945336E+03 0.  0.
          5    1    3    3  502    0 -0.83915807553E+02 -0.19930329143E+03  0.41738244910E+03  0.47009493291E+03  0.41800000000E+01 0.  1.
         -5    1    3    3    0  502  0.22020260223E+02  0.40180604158E+01  0.61293146289E+02  0.65386228303E+02  0.41800000000E+01 0.  1.
        -11    1    1    2    0    0 -0.60377233555E+01  0.12165088297E+03  0.12230047476E+03  0.17260590244E+03  0.00000000000E+00 0.  1.
         11    1    1    2    0    0  0.67933270686E+02  0.73634348043E+02  0.56865437485E+02  0.11519819642E+03  0.00000000000E+00 0. -1.
</event>
<event>
 7    1  0.2412631E-010  0.1052284E+03  0.7561462E-02  0.1269670E+00
         -1   -1    0    0    0  501 -0.00000000000E+00  0.00000000000E+00  0.40433727910E+02  0.40433727910E+02  0.00000000000E+00 0.  1.
          1   -1    0    0  501    0  0.00000000000E+00 -0.00000000000E+00 -0.40821726920E+03  0.40821726920E+03  0.00000000000E+00 0. -1.
         25    2    1    2    0    0 -0.59702375446E+02  0.27349250451E+02 -0.16560472035E+03  0.21769867978E+03  0.12512168733E+03 0.  0.
          5    1    3    3  502    0  0.22161071167E+02 -0.25092382417E+02 -0.11889257160E+02  0.35771043687E+02  0.41800000000E+01 0.  1.
         -5    1    3    3    0  502 -0.81863446613E+02  0.52441632868E+02 -0.15371546319E+03  0.18192763609E+03  0.41800000000E+01 0.  1.
        -11    1    1    2    0    0  0.77809166458E+01  0.11972362848E+02  0.39201091144E+01  0.14807004811E+02  0.00000000000E+00 0.  1.
         11    1    1    2    0    0  0.51921458800E+02 -0.39321613299E+02 -0.20609893006E+03  0.21614531253E+03  0.00000000000E+00 0. -1.
</event>
<event>
 6    1  0.2412631E-010  0.1310298E+03  0.7561462E-02  0.1225936E+00
         -2   -1    0    0    0  501 -0.00000000000E+00  0.00000000000E+00  0.63321642742E+02  0.63321642742E+02  0.00000000000E+00 0.  1.
          2   -1    0    0  501    0  0.00000000000E+00 -0.00000000000E+00 -0.39701503000E+03  0.39701503000E+03  0.00000000000E+00 0. -1.
          5    1    1    2  502    0  0.84620238630E+02  0.74422369418E+02 -0.50057245275E+02  0.12337939074E+03  0.41800000000E+01 0.  1.
         -5    1    1    2    0  502 -0.40889586533E+02  0.96141630467E+01 -0.33502478661E+02  0.53891361964E+02  0.41800000000E+01 0.  1.
        -11    1    1    2    0    0  0.70263649453E+01 -0.37709931310E+02 -0.20753984650E+02  0.43613491062E+02  0.00000000000E+00 0.  1.
         11    1    1    2    0    0 -0.50757017043E+02 -0.46326601155E+02 -0.22937967867E+03  0.23945242897E+03  0.00000000000E+00 0. -1.
</event>
<event>
 6    1  0.2412631E-010  0.1168520E+03  0.7561462E-02  0.1248383E+00
         -3   -1    0    0    0  501 -0.00000000000E+00  0.00000000000E+00  0.12513200806E+03  0.12513200806E+03  0.00000000000E+00 0.  1.
          3   -1    0    0  501    0  0.00000000000E+00 -0.00000000000E+00 -0.24864906395E+03  0.24864906395E+03  0.00000000000E+00 0. -1.
          5    1    1    2  502    0  0.35939239664E+02  0.88203642041E+02  0.76756083128E+02  0.12239477160E+03  0.41800000000E+01 0. -1.
         -5    1    1    2    0  502 -0.61414166657E+01  0.94109893871E+01 -0.41100905678E+02  0.42814023024E+02  0.41800000000E+01 0. -1.
        -11    1    1    2    0    0 -0.18408868273E+02  0.80566964396E+01 -0.39967045531E+01  0.20488299976E+02  0.00000000000E+00 0.  1.
         11    1    1    2    0    0 -0.11388954725E+02 -0.10567132787E+03 -0.15517552879E+03  0.18808397741E+03  0.00000000000E+00 0. -1.
</event>
<event>
 7    1  0.2412631E-010  0.8480988E+02  0.7561462E-02  0.1315930E+00
         -1   -1    0    0    0  501 -0.00000000000E+00  0.00000000000E+00  0.68897821223E+02  0.68897821223E+02  0.00000000000E+00 0.  1.
          1   -1    0    0  501    0  0.00000000000E+00 -0.00000000000E+00 -0.19759535657E+03  0.19759535657E+03  0.00000000000E+00 0. -1.
         25    2    1    2    0    0 -0.22403350289E+02  0.20064167403E+02 -0.10321884756E+03  0.16496331685E+03  0.12511708316E+03 0.  0.
          5    1    3    3  502    0  0.24927544230E+02 -0.45282712030E+01  0.18737341334E+02  0.31787545701E+02  0.41800000000E+01 0.  1.
         -5    1    3    3    0  502 -0.47330894518E+02  0.24592438606E+02 -0.12195618889E+03  0.13317577115E+03  0.41800000000E+01 0.  1.
        -11    1    1    2    0    0  0.13146963463E+02  0.33549143204E+02  0.89719511299E+01  0.37133321493E+02  0.00000000000E+00 0.  1.
         11    1    1    2    0    0  0.92563868253E+01 -0.53613310607E+02 -0.34450638922E+02  0.64396539452E+02  0.00000000000E+00 0. -1.
</event>
<event>
 7    1  0.2412631E-010  0.2002133E+03  0.7561462E-02  0.1149559E+00
         -4   -1    0    0    0  501 -0.00000000000E+00  0.00000000000E+00  0.67330451358E+03  0.67330451358E+03  0.00000000000E+00 0.  1.
          4   -1    0    0  501    0  0.00000000000E+00 -0.00000000000E+00 -0.71331044485E+02  0.71331044485E+02  0.00000000000E+00 0. -1.
         25    2    1    2    0    0 -0.67546828070E+02 -0.16680073594E+03  0.41557966010E+03  0.46981692252E+03  0.12504570087E+03 0.  0.
          5    1    3    3  502    0 -0.59966223095E+02 -0.86679694362E+01  0.11146340503E+03  0.12693559260E+03  0.41800000000E+01 0. -1.
         -5    1    3    3    0  502 -0.75806049751E+01 -0.15813276650E+03  0.30411625507E+03  0.34288132993E+03  0.41800000000E+01 0. -1.
        -11    1    1    2    0    0  0.17042635476E+02  0.21131287574E+02  0.87588548005E+02  0.91699162919E+02  0.00000000000E+00 0.  1.
         11    1    1    2    0    0  0.50504192594E+02  0.14566944836E+03  0.98805260993E+02  0.18311947263E+03  0.00000000000E+00 0. -1.
</event>
<event>
 7    1  0.2412631E-010  0.9154892E+02  0.7561462E-02  0.1299144E+00
         -2   -1    0    0    0  501 -0.00000000000E+00  0.00000000000E+00  0.36944562568E+02  0.36944562568E+02  0.00000000000E+00 0. -1.
          2   -1    0    0  501    0  0.00000000000E+00 -0.00000000000E+00 -0.39478233666E+03  0.39478233666E+03  0.00000000000E+00 0.  1.
         25    2    1    2    0    0  0.22273633502E+02  0.26569320690E+02 -0.13083514889E+03  0.18428623671E+03  0.12506613173E+03 0.  0.
          5    1    3    3  502    0  0.45567375879E+02  0.40355811796E+02 -0.11802145335E+02  0.62142902449E+02  0.41800000000E+01 0.  1.
         -5    1    3    3    0  502 -0.23293742377E+02 -0.13786491107E+02 -0.11903300355E+03  0.12214333426E+03  0.41800000000E+01 0.  1.
        -11    1    1    2    0    0 -0.37354292808E+02 -0.52659103036E+02 -0.11987827219E+03  0.13615845353E+03  0.00000000000E+00 0. -1.
         11    1    1    2    0    0  0.15080659307E+02  0.26089782347E+02 -0.10712435301E+03  0.11128220898E+03  0.00000000000E+00 0.  1.
</event>
<event>
 6    1  0.2412631E-010  0.1044215E+03  0.7561462E-02  0.1271264E+00
          1   -1    0    0  501    0  0.00000000000E+00  0.00000000000E+00  0.47204559628E+02  0.47204559628E+02  0.00000000000E+00 0. -1.
         -1   -1    0    0    0  501 -0.00000000000E+00 -0.00000000000E+00 -0.28239573618E+03  0.28239573618E+03  0.00000000000E+00 0.  1.
          5    1    1    2  502    0  0.24170780622E+02  0.48053688847E+02 -0.62354202215E+02  0.82455458167E+02  0.41800000000E+01 0. -1.
         -5    1    1    2    0  502 -0.23276760254E+02 -0.59454485905E+02 -0.16992144625E+02  0.66203087852E+02  0.41800000000E+01 0. -1.
        -11    1    1    2    0    0  0.44535425381E+02  0.24510510765E+01 -0.90006475636E+02  0.10045186619E+03  0.00000000000E+00 0.  1.
         11    1    1    2    0    0 -0.45429445748E+02  0.89497459807E+01 -0.65838354080E+02  0.80489883601E+02  0.00000000000E+00 0. -1.
</event>
<event>
 7    1  0.2412631E-010  0.1117616E+03  0.7561462E-02  0.1257342E+00
          2   -1    0    0  501    0  0.00000000000E+00  0.00000000000E+00  0.48807327546E+03  0.48807327546E+03  0.00000000000E+00 0. -1.
         -2   -1    0    0    0  501 -0.00000000000E+00 -0.00000000000E+00 -0.36103273894E+02  0.36103273894E+02  0.00000000000E+00 0.  1.
         25    2    1    2    0    0 -0.64533441491E+02  0.37861919972E+02  0.28089564212E+03  0.31647138737E+03  0.12511469622E+03 0.  0.
          5    1    3    3  502    0 -0.33110525438E+02 -0.38468636881E+02  0.17429438087E+03  0.18158234088E+03  0.41800000000E+01 0.  1.
         -5    1    3    3    0  502 -0.31422916052E+02  0.76330556853E+02  0.10660126125E+03  0.13488904649E+03  0.41800000000E+01 0.  1.
        -11    1    1    2    0    0  0.40062526163E+02  0.52165263214E+01  0.13611479448E+02  0.42632036336E+02  0.00000000000E+00 0. -1.
         11    1    1    2    0    0  0.24470915328E+02 -0.43078446294E+02  0.15746288001E+03  0.16507312565E+03  0.00000000000E+00 0.  1.
</event>
<event>
 7    1  0.2412631E-010  0.1324661E+03  0.7561462E-02  0.1223842E+00
          2   -1    0    0  501    0  0.00000000000E+00  0.00000000000E+00  0.23188483749E+03  0.23188483749E+03  0.00000000000E+00 0. -1.
         -2   -1    0    0    0  501 -0.00000000000E+00 -0.00000000000E+00 -0.18617767354E+03  0.18617767354E+03  0.00000000000E+00 0.  1.
         25    2    1    2    0    0 -0.10885572288E+02 -0.10080901229E+03  0.16950269715E+03  0.23377552303E+03  0.12505550041E+03 0.  0.
          5    1    3    3  502    0 -0.65278286765E+02 -0.75377154503E+02  0.92837757921E+02  0.13630587603E+03  0.41800000000E+01 0. -1.
         -5    1    3    3    0  502  0.54392714477E+02 -0.25431857785E+02  0.76664939233E+02  0.97469647000E+02  0.41800000000E+01 0. -1.
        -11    1    1    2    0    0  0.19490315554E+02  0.55534407413E+02 -0.12502519979E+03  0.13818553972E+03  0.00000000000E+00 0.  1.
         11    1    1    2    0    0 -0.86047432665E+01  0.45274604874E+02  0.12296665862E+01  0.46101448276E+02  0.00000000000E+00 0. -1.
</event>
<event>
 7    1  0.2412631E-010  0.1492958E+03  0.7561462E-02  0.1201341E+00
          2   -1    0    0  501    0  0.00000000000E+00  0.00000000000E+00  0.24204704250E+03  0.24204704250E+03  0.00000000000E+00 0. -1.
         -2   -1    0    0    0  501 -0.00000000000E+00 -0.00000000000E+00 -0.11832262203E+03  0.11832262203E+03  0.00000000000E+00 0.  1.
         25    2    1    2    0    0  0.67359667662E+02 -0.10941096517E+03  0.62501622231E+02  0.18991568931E+03  0.12511367686E+03 0.  0.
          5    1    3    3  502    0 -0.26404108643E+02 -0.55495573146E+02  0.52995890445E+02  0.81258675821E+02  0.41800000000E+01 0. -1.
         -5    1    3    3    0  502  0.93763776304E+02 -0.53915392028E+02  0.95057317857E+01  0.10865701349E+03  0.41800000000E+01 0. -1.
        -11    1    1    2    0    0 -0.56224088731E+02  0.96666862351E+02  0.52204829566E+01  0.11195036343E+03  0.00000000000E+00 0.  1.
         11    1    1    2    0    0 -0.11135578931E+02  0.12744102824E+02  0.56002315286E+02  0.58503611789E+02  0.00000000000E+00 0. -1.
</event>
<event>
 7    1  0.2412631E-010  0.1857372E+03  0.7561462E-02  0.1162363E+00
         -2   -1    0    0    0  501 -0.00000000000E+00  0.00000000000E+00  0.93459919005E+02  0.93459919005E+02  0.00000000000E+00 0.  1.
          2   -1    0    0  501    0  0.00000000000E+00 -0.00000000000E+00 -0.49042130996E+03  0.49042130996E+03  0.00000000000E+00 0. -1.
         25    2    1    2    0    0  0.68457690928E+01 -0.16188530834E+03 -0.89719172448E+02  0.22348249952E+03  0.12506470356E+03 0.  0.
          5    1    3    3  502    0 -0.50671907958E+02 -0.62526014828E+02 -0.50074174478E+01  0.80744606110E+02  0.41800000000E+01 0. -1.
         -5    1    3    3    0  502  0.57517677051E+02 -0.99359293511E+02 -0.84711755001E+02  0.14273789341E+03  0.41800000000E+01 0. -1.
        -11    1    1    2    0    0 -0.37810884997E+02  0.96940468176E+02 -0.11476348589E+03  0.15491215281E+03  0.00000000000E+00 0.  1.
         11    1    1    2    0    0  0.30965115904E+02  0.64944840163E+02 -0.19247873262E+03  0.20548657663E+03  0.00000000000E+00 0. -1.
</event>
<event>
 7    1  0.2412631E-010  0.1624345E+03  0.7561462E-02  0.1185975E+00
          2   -1    0    0  501    0  0.00000000000E+00  0.00000000000E+00  0.69381431219E+03  0.69381431219E+03  0.00000000000E+00 0. -1.
         -2   -1    0    0    0  501 -0.00000000000E+00 -0.00000000000E+00 -0.57079611088E+02  0.57079611088E+02  0.00000000000E+00 0.  1.
         25    2    1    2    0    0  0.13473442085E+03  0.47837909860E+02  0.49288933805E+03  0.52823877179E+03  0.12511782716E+03 0.  0.
          5    1    3    3  502    0  0.10624337093E+03  0.84098573787E+02  0.28983593127E+03  0.31997275420E+03  0.41800000000E+01 0.  1.
         -5    1    3    3    0  502  0.28491049926E+02 -0.36260663926E+02  0.20305340678E+03  0.20826601758E+03  0.41800000000E+01 0.  1.
        -11    1    1    2    0    0 -0.15026832464E+02 -0.62519360681E+01  0.78316995085E+02  0.79990275144E+02  0.00000000000E+00 0. -1.
         11    1    1    2    0    0 -0.11970758839E+03 -0.41585973792E+02  0.65528367963E+02  0.14266487634E+03  0.00000000000E+00 0.  1.
</event>
<event>
 6    1  0.2412631E-010  0.2793616E+03  0.7561462E-02  0.1096038E+00
          2   -1    0    0  501    0  0.00000000000E+00  0.00000000000E+00  0.13297276301E+04  0.13297276301E+04  0.00000000000E+00 0.  1.
         -2   -1    0    0    0  501 -0.00000000000E+00 -0.00000000000E+00 -0.63139662784E+02  0.63139662784E+02  0.00000000000E+00 0. -1.
          5    1    1    2  502    0  0.11714412515E+03  0.31281215373E+02  0.27496191243E+03  0.30053749546E+03  0.41800000000E+01 0.  1.
         -5    1    1    2    0  502  0.70383115600E+02  0.15658894793E+03  0.45671106446E+03  0.48793068194E+03  0.41800000000E+01 0.  1.
        -11    1    1    2    0    0 -0.82939352871E+02 -0.90819267536E+02  0.34904661981E+03  0.37008190771E+03  0.00000000000E+00 0.  1.
         11    1    1    2    0    0 -0.10458788788E+03 -0.97050895765E+02  0.18586837057E+03  0.23431720773E+03  0.00000000000E+00 0. -1.
</event>
<event>
 7    1  0.2412631E-010  0.1101053E+03  0.7561462E-02  0.1260375E+00
         -1   -1    0    0    0  501 -0.00000000000E+00  0.00000000000E+00  0.64567791785E+02  0.64567791785E+02  0.00000000000E+00 0.  1.
          1   -1    0    0  501    0  0.00000000000E+00 -0.00000000000E+00 -0.23411330857E+03  0.23411330857E+03  0.00000000000E+00 0. -1.
         25    2    1    2    0    0  0.39939189905E+02 -0.17056167959E+02 -0.42339711010E+02  0.13899353902E+03  0.12506198866E+03 0.  0.
          5    1    3    3  502    0  0.81481132062E+02  0.65010676190E+01 -0.39738935068E+02  0.90984032240E+02  0.41800000000E+01 0.  1.
         -5    1    3    3    0  502 -0.41541942157E+02 -0.23557235578E+02 -0.26007759414E+01  0.48009506785E+02  0.41800000000E+01 0.  1.
        -11    1    1    2    0    0  0.62693795618E+01  0.38837189519E+02 -0.28609034880E+02  0.48642669403E+02  0.00000000000E+00 0.  1.
         11    1    1    2    0    0 -0.46208569467E+02 -0.21781021560E+02 -0.98596770893E+02  0.11104489193E+03  0.00000000000E+00 0. -1.
</event>
<event>
 7    1  0.6616972E-010  0.1324877E+03  0.7561462E-02  0.1223810E+00
          2   -1    0    0  501    0  0.00000000000E+00  0.00000000000E+00  0.71501134044E+03  0.71501134044E+03  0.00000000000E+00 0.  1.
         -2   -1    0    0    0  501 -0.00000000000E+00 -0.00000000000E+00 -0.33758430311E+02  0.33758430311E+02  0.00000000000E+00 0. -1.
         25    2    1    2    0    0  0.26777700261E+02  0.92956588118E+02  0.23546793111E+03  0.28362498461E+03  0.12506003682E+03 0.  0.
          5    1    3    3  502    0  0.60153040519E+02  0.61770016730E+02  0.21812852052E+03  0.23458782388E+03  0.41800000000E+01 0. -1.
         -5    1    3    3    0  502 -0.33375340258E+02  0.31186571388E+02  0.17339410586E+02  0.49037160722E+02  0.41800000000E+01 0. -1.
        -11    1    1    2    0    0 -0.53593463539E+02 -0.23855588509E+02  0.19363309069E+03  0.20232429969E+03  0.00000000000E+00 0.  1.
         11    1    1    2    0    0  0.26815763278E+02 -0.69100999609E+02  0.25215188834E+03  0.26282048646E+03  0.00000000000E+00 0. -1.
</event>
<event>
 6    1  0.2412631E-010  0.9103459E+02  0.7561462E-02  0.1300365E+00
         -1   -1    0    0    0  501 -0.00000000000E+00  0.00000000000E+00  0.26274818456E+03  0.26274818456E+03  0.00000000000E+00 0.  1.
          1   -1    0    0  501    0  0.00000000000E+00 -0.00000000000E+00 -0.51000299554E+02  0.51000299554E+02  0.00000000000E+00 0. -1.
          5    1    1    2  502    0 -0.53363575911E+02  0.49469416798E+02  0.41349720973E+02  0.83798366672E+02  0.41800000000E+01 0. -1.
         -5    1    1    2    0  502  0.21426206783E+02 -0.49219099990E+02  0.59335406352E+02  0.80123435947E+02  0.41800000000E+01 0. -1.
        -11    1    1    2    0    0  0.30896923072E+02 -0.19190346894E+02  0.12242622037E+03  0.12771479438E+03  0.00000000000E+00 0.  1.
         11    1    1    2    0    0  0.10404460564E+01  0.18940030087E+02 -0.11363462687E+02  0.22111887118E+02  0.00000000000E+00 0. -1.
</event>
<event>
 7    1  0.2412631E-010  0.1141018E+03  0.7561462E-02  0.1253157E+00
         -2   -1    0    0    0  501 -0.00000000000E+00  0.00000000000E+00  0.90244703990E+02  0.90244703990E+02  0.00000000000E+00 0.  1.
          2   -1    0    0  501    0  0.00000000000E+00 -0.00000000000E+00 -0.17226901164E+03  0.17226901164E+03  0.00000000000E+00 0. -1.
         25    2    1    2    0    0  0.38194325510E+02  0.47977211106E+02 -0.52456568206E+02  0.14888004684E+03  0.12511178007E+03 0.  0.
          5    1    3    3  502    0 -0.45149187683E+02  0.54912551535E+01 -0.16080908553E+02  0.48421803472E+02  0.41800000000E+01 0. -1.
         -5    1    3    3    0  502  0.83343513193E+02  0.42485955953E+02 -0.36375659653E+02  0.10045824336E+03  0.41800000000E+01 0. -1.
        -11    1    1    2    0    0  0.17876348389E+02 -0.60371101852E+01 -0.38666312870E+02  0.43024345225E+02  0.00000000000E+00 0. -1.
         11    1    1    2    0    0 -0.56070673899E+02 -0.41940100921E+02  0.90985734231E+01  0.70609323571E+02  0.00000000000E+00 0.  1.
</event>
<event>
 6    1  0.2412631E-010  0.5541512E+02  0.7561462E-02  0.1418146E+00
         -2   -1    0    0    0  501 -0.00000000000E+00  0.00000000000E+00  0.12071210122E+02  0.12071210122E+02  0.00000000000E+00 0.  1.
          2   -1    0    0  501    0  0.00000000000E+00 -0.00000000000E+00 -0.14027025851E+04  0.14027025851E+04  0.00000000000E+00 0. -1.
          5    1    1    2  502    0 -0.14985678060E+02  0.96530810547E+01 -0.22815799246E+02  0.29253813700E+02  0.41800000000E+01 0. -1.
         -5    1    1    2    0  502  0.26527793631E+02 -0.49183065257E+01 -0.11391475289E+04  0.11394746503E+04  0.41800000000E+01 0. -1.
        -11    1    1    2    0    0  0.14350617850E+02  0.23105539558E+02 -0.19543096553E+02  0.33492369487E+02  0.00000000000E+00 0.  1.
         11    1    1    2    0    0 -0.25892733421E+02 -0.27840314087E+02 -0.20912495027E+03  0.21255296177E+03  0.00000000000E+00 0. -1.
</event>
<event>
 7    1  0.2412631E-010  0.1730368E+03  0.7561462E-02  0.1174717E+00
          2   -1    0    0  501    0  0.00000000000E+00  0.00000000000E+00  0.15976870901E+04  0.15976870901E+04  0.00000000000E+00 0. -1.
         -2   -1    0    0    0  501 -0.00000000000E+00 -0.00000000000E+00 -0.74172156829E+02  0.74172156829E+02  0.00000000000E+00 0.  1.
         25    2    1    2    0    0  0.91969613278E+02 -0.14090521884E+03  0.14518324180E+04  0.14668984980E+04  0.12514448871E+03 0.  0.
          5    1    3    3  502    0  0.39771660531E+02 -0.20341167736E+02  0.11228005312E+03  0.12091249239E+03  0.41800000000E+01 0.  1.
         -5    1    3    3    0  502  0.52197952747E+02 -0.12056405110E+03  0.13395523649E+04  0.13459860056E+04  0.41800000000E+01 0.  1.
        -11    1    1    2    0    0 -0.17817186557E+02  0.45950102074E+02 -0.20383269412E+02  0.53332369996E+02  0.00000000000E+00 0.  1.
         11    1    1    2    0    0 -0.74152426721E+02  0.94955116766E+02  0.92065784713E+02  0.15162837895E+03  0.00000000000E+00 0. -1.
</event>
<event>
 6    1  0.2412631E-010  0.1859863E+03  0.7561462E-02  0.1162132E+00
         -2   -1    0    0    0  501 -0.00000000000E+00  0.00000000000E+00  0.15630954029E+03  0.15630954029E+03  0.00000000000E+00 0.  1.
          2   -1    0    0  501    0  0.00000000000E+00 -0.00000000000E+00 -0.33935736782E+03  0.33935736782E+03  0.00000000000E+00 0. -1.
          5    1    1    2  502    0 -0.13793379078E+03  0.11143181074E+03  0.49748044510E+02  0.18421487295E+03  0.41800000000E+01 0. -1.
         -5    1    1    2    0  502  0.10210622418E+02 -0.16014245415E+02 -0.74940651781E+01  0.20840975967E+02  0.41800000000E+01 0. -1.
        -11    1    1    2    0    0  0.89107364156E+02 -0.21355557609E+02 -0.73977790967E+02  0.11776627592E+03  0.00000000000E+00 0.  1.
         11    1    1    2    0    0  0.38615804203E+02 -0.74062007716E+02 -0.15132401589E+03  0.17284478328E+03  0.00000000000E+00 0. -1.
</event>
<event>
 7    1  0.2412631E-010  0.1322205E+03  0.7561462E-02  0.1224198E+00
         -2   -1    0    0    0  501 -0.00000000000E+00  0.00000000000E+00  0.44722744630E+03  0.44722744630E+03  0.00000000000E+00 0.  1.
          2   -1    0    0  501    0  0.00000000000E+00 -0.00000000000E+00 -0.60641423440E+02  0.60641423440E+02  0.00000000000E+00 0. -1.
         25    2    1    2    0    0  0.10188262200E+03 -0.59100803713E+02  0.26183329934E+03  0.31315668645E+03  0.12504982989E+03 0.  0.
          5    1    3    3  502    0  0.62932353425E+02 -0.47679369330E+02  0.41921618424E+02  0.89491328399E+02  0.41800000000E+01 0. -1.
         -5    1    3    3    0  502  0.38950268577E+02 -0.11421434383E+02  0.21991168092E+03  0.22366535805E+03  0.41800000000E+01 0. -1.
        -11    1    1    2    0    0 -0.95606219686E+02  0.11199152227E+02  0.10520128830E+03  0.14259481517E+03  0.00000000000E+00 0.  1.
         11    1    1    2    0    0 -0.62764023159E+01  0.47901651486E+02  0.19551435215E+02  0.52117368123E+02  0.00000000000E+00 0. -1.
</event>
<event>
 6    1  0.2412631E-010  0.1578894E+03  0.7561462E-02  0.1191100E+00
          2   -1    0    0  501    0  0.00000000000E+00  0.00000000000E+00  0.10142529917E+04  0.10142529917E+04  0.00000000000E+00 0. -1.
         -2   -1    0    0    0  501 -0.00000000000E+00 -0.00000000000E+00 -0.40510797952E+02  0.40510797952E+02  0.00000000000E+00 0.  1.
          5    1    1    2  502    0 -0.89423106437E+02 -0.19327184572E+02  0.60761185174E+03  0.61447511488E+03  0.41800000000E+01 0. -1.
         -5    1    1    2    0  502 -0.21861499570E+02 -0.67560015895E+02  0.14692926243E+03  0.16324203340E+03  0.41800000000E+01 0. -1.
        -11    1    1    2    0    0  0.87385998730E+02  0.31759061501E+02  0.70559413089E+02  0.11672009911E+03  0.00000000000E+00 0. -1.
         11    1    1    2    0    0  0.23898607278E+02  0.55128138967E+02  0.14864166648E+03  0.16032654225E+03  0.00000000000E+00 0.  1.
</event>
<event>
 6    1  0.2412631E-010  0.1152905E+03  0.7561462E-02  0.1251075E+00
         -1   -1    0    0    0  501 -0.00000000000E+00  0.00000000000E+00  0.36844514589E+02  0.36844514589E+02  0.00000000000E+00 0.  1.
          1   -1    0    0  501    0  0.00000000000E+00 -0.00000000000E+00 -0.61316982531E+03  0.61316982531E+03  0.00000000000E+00 0. -1.
          5    1    1    2  502    0 -0.36780097916E+02  0.76286816773E+02 -0.13441194381E+03  0.15892292804E+03  0.41800000000E+01 0. -1.
         -5    1    1    2    0  502  0.30028259394E+02  0.11266880749E+02 -0.30283087042E+03  0.30455319312E+03  0.41800000000E+01 0. -1.
        -11    1    1    2    0    0 -0.32430589681E+02 -0.46508944619E+02 -0.10765150619E+03  0.12167034092E+03  0.00000000000E+00 0. -1.
         11    1    1    2    0    0  0.39182428203E+02 -0.41044752903E+02 -0.31430990306E+02  0.64867877816E+02  0.00000000000E+00 0.  1.
</event>
<event>
 7    1  0.2412631E-010  0.1103217E+03  0.7561462E-02  0.1259975E+00
          2   -1    0    0  501    0  0.00000000000E+00  0.00000000000E+00  0.52701461399E+02  0.52701461399E+02  0.00000000000E+00 0. -1.
         -2   -1    0    0    0  501 -0.00000000000E+00 -0.00000000000E+00 -0.25198851830E+03  0.25198851830E+03  0.00000000000E+00 0.  1.
         25    2    1    2    0    0  0.19418282335E+02  0.12125173450E+02 -0.77606408060E+02  0.14895951422E+03  0.12506835245E+03 0.  0.
          5    1    3    3  502    0  0.71164046377E+02  0.51389129566E+01 -0.27829773047E+02  0.76698752213E+02  0.41800000000E+01 0.  1.
         -5    1    3    3    0  502 -0.51745764042E+02  0.69862604935E+01 -0.49776635013E+02  0.72260762003E+02  0.41800000000E+01 0.  1.
        -11    1    1    2    0    0 -0.57720261550E+02 -0.77585395244E+01 -0.80026245080E+02  0.98974862619E+02  0.00000000000E+00 0.  1.
         11    1    1    2    0    0  0.38301979215E+02 -0.43666339257E+01 -0.41654403757E+02  0.56755602859E+02  0.00000000000E+00 0. -1.
</event>
<event>
 6    1  0.2412631E-010  0.1355471E+03  0.7561462E-02  0.1219449E+00
         -2   -1    0    0    0  501 -0.00000000000E+00  0.00000000000E+00  0.14120711452E+02  0.14120711452E+02  0.00000000000E+00 0.  1.
          2   -1    0    0  501    0  0.00000000000E+00 -0.00000000000E+00 -0.13191613811E+04  0.13191613811E+04  0.00000000000E+00 0. -1.
          5    1    1    2  502    0  0.61755947823E+02 -0.90247519516E+02 -0.50568208539E+03  0.51738791613E+03  0.41800000000E+01 0. -1.
         -5    1    1    2    0  502 -0.33565799159E+02  0.17255217421E+02 -0.16917008800E+03  0.17337934270E+03  0.41800000000E+01 0. -1.
        -11    1    1    2    0    0 -0.63963402705E+02  0.43914902856E+02 -0.44228975294E+03  0.44904349582E+03  0.00000000000E+00 0. -1.
         11    1    1    2    0    0  0.35773254042E+02  0.29077399239E+02 -0.18789874328E+03  0.19347133787E+03  0.00000000000E+00 0.  1.
</event>
<event>
 7    1  0.2412631E-010  0.7184053E+02  0.7561462E-02  0.1353944E+00
         -4   -1    0    0    0  501 -0.00000000000E+00  0.00000000000E+00  0.34219209221E+03  0.34219209221E+03  0.00000000000E+00 0.  1.
          4   -1    0    0  501    0  0.00000000000E+00 -0.00000000000E+00 -0.34046730975E+02  0.34046730975E+02  0.00000000000E+00 0. -1.
         25    2    1    2    0    0  0.11674105809E+02 -0.21098506238E+01  0.19421720433E+03  0.23133403935E+03  0.12511746116E+03 0.  0.
          5    1    3    3  502    0  0.32205592431E+02 -0.11869783408E+02  0.20350646511E+03  0.20642297761E+03  0.41800000000E+01 0.  1.
         -5    1    3    3    0  502 -0.20531486623E+02  0.97599327844E+01 -0.92892607847E+01  0.24911061736E+02  0.41800000000E+01 0.  1.
        -11    1    1    2    0    0 -0.30718339466E+02 -0.33596038513E+02  0.80225064153E+02  0.92240832073E+02  0.00000000000E+00 0.  1.
         11    1    1    2    0    0  0.19044233658E+02  0.35705889137E+02  0.33703092758E+02  0.52663951770E+02  0.00000000000E+00 0. -1.
</event>
<event>
 7    1  0.2412631E-010  0.1514028E+03  0.7561462E-02  0.1198760E+00
         -1   -1    0    0    0  501 -0.00000000000E+00  0.00000000000E+00  0.24739771026E+02  0.24739771026E+02  0.00000000000E+00 0.  1.
          1   -1    0    0  501    0  0.00000000000E+00 -0.00000000000E+00 -0.98845121809E+03  0.98845121809E+03  0.00000000000E+00 0. -1.
         25    2    1    2    0    0 -0.87575665362E+02  0.66882860313E+02 -0.54108834389E+03  0.56618171395E+03  0.12506927341E+03 0.  0.
          5    1    3    3  502    0 -0.11060340238E+03  0.17523914610E+02 -0.36477986934E+03  0.38160454095E+03  0.41800000000E+01 0.  1.
         -5    1    3    3    0  502  0.23027737016E+02  0.49358945702E+02 -0.17630847455E+03  0.18457717300E+03  0.41800000000E+01 0.  1.
        -11    1    1    2    0    0  0.24809179346E+02 -0.68991004121E+02 -0.30480215392E+03  0.31349578476E+03  0.00000000000E+00 0. -1.
         11    1    1    2    0    0  0.62766486015E+02  0.21081438080E+01 -0.11782094926E+03  0.13351349041E+03  0.00000000000E+00 0.  1.
</event>
<event>
 7    1  0.2412631E-010  0.1347690E+03  0.7561462E-02  0.1220546E+00
          2   -1    0    0  501    0  0.00000000000E+00  0.00000000000E+00  0.80945004866E+03  0.80945004866E+03  0.00000000000E+00 0. -1.
         -2   -1    0    0    0  501 -0.00000000000E+00 -0.00000000000E+00 -0.23004480573E+02  0.23004480573E+02  0.00000000000E+00 0.  1.
         25    2    1    2    0    0 -0.27020536271E+02 -0.84786733896E+02  0.41561528548E+03  0.44306819095E+03  0.12511777126E+03 0.  0.
          5    1    3    3  502    0 -0.75036350196E+02 -0.70940564770E+02  0.28470188763E+03  0.30287894414E+03  0.41800000000E+01 0. -1.
         -5    1    3    3    0  502  0.48015813925E+02 -0.13846169126E+02  0.13091339785E+03  0.14018924682E+03  0.41800000000E+01 0. -1.
        -11    1    1    2    0    0  0.40528584419E+01  0.91908792878E+02  0.32307849438E+03  0.33592166557E+03  0.00000000000E+00 0. -1.
         11    1    1    2    0    0  0.22967677829E+02 -0.71220589819E+01  0.47751788217E+02  0.53464672700E+02  0.00000000000E+00 0.  1.
</event>
<event>
 6    1  0.2412631E-010  0.9596630E+02  0.7561462E-02  0.1289014E+00
          2   -1    0    0  501    0  0.00000000000E+00  0.00000000000E+00  0.34692998009E+04  0.34692998009E+04  0.00000000000E+00 0. -1.
         -2   -1    0    0    0  501 -0.00000000000E+00 -0.00000000000E+00 -0.93021741014E+01  0.93021741014E+01  0.00000000000E+00 0.  1.
          5    1    1    2  502    0  0.77580244255E+01 -0.38556673828E+02  0.46031389685E+03  0.46200991339E+03  0.41800000000E+01 0.  1.
         -5    1    1    2    0  502 -0.67805034707E+02  0.50217483374E+02  0.27973667603E+04  0.27986420961E+04  0.41800000000E+01 0.  1.
        -11    1    1    2    0    0  0.34580864924E+02 -0.21366371254E+02  0.17385666162E+03  0.17854550352E+03  0.00000000000E+00 0.  1.
         11    1    1    2    0    0  0.25466145358E+02  0.97055617076E+01  0.28460308076E+02  0.39404461971E+02  0.00000000000E+00 0. -1.
</event>
<event>
 6    1  0.2412631E-010  0.1202149E+03  0.7561462E-02  0.1242743E+00
          2   -1    0    0  501    0  0.00000000000E+00  0.00000000000E+00  0.17707966130E+03  0.17707966130E+03  0.00000000000E+00 0. -1.
         -2   -1    0    0    0  501 -0.00000000000E+00 -0.00000000000E+00 -0.12188539243E+03  0.12188539243E+03  0.00000000000E+00 0.  1.
          5    1    1    2  502    0 -0.29504845170E+02  0.27418223472E+02 -0.17118513757E+02  0.43963743928E+02  0.41800000000E+01 0. -1.
         -5    1    1    2    0  502  0.85154740419E+02  0.11074042117E+02  0.10550396964E+03  0.13609748063E+03  0.41800000000E+01 0. -1.
        -11    1    1    2    0    0  0.15252508825E+02  0.17792607248E+02 -0.39115764340E+01  0.23759552360E+02  0.00000000000E+00 0.  1.
         11    1    1    2    0    0 -0.70902404073E+02 -0.56284872838E+02 -0.29279610580E+02  0.95144276809E+02  0.00000000000E+00 0. -1.
</event>
<event>
 6    1  0.2412631E-010  0.1078555E+03  0.7561462E-02  0.1264593E+00
          1   -1    0    0  501    0  0.00000000000E+00  0.00000000000E+00  0.16864622784E+03  0.16864622784E+03  0.00000000000E+00 0. -1.
         -1   -1    0    0    0  501 -0.00000000000E+00 -0.00000000000E+00 -0.85427649865E+02  0.85427649865E+02  0.00000000000E+00 0.  1.
          5    1    1    2  502    0  0.33699536321E+02  0.74874734383E+02  0.39852288672E+02  0.91364992801E+02  0.41800000000E+01 0. -1.
         -5    1    1    2    0  502 -0.43762153041E+02 -0.25892796623E+02  0.85770251698E+01  0.51735874560E+02  0.41800000000E+01 0. -1.
        -11    1    1    2    0    0  0.30733213038E+02 -0.53143665664E+02  0.54513237992E+02  0.82100381851E+02  0.00000000000E+00 0. -1.
         11    1    1    2    0    0 -0.20670596318E+02  0.41617279037E+01 -0.19723973858E+02  0.28872628492E+02  0.00000000000E+00 0.  1.
</event>
<event>
 7    1  0.2412631E-010  0.1543338E+03  0.7561462E-02  0.1195247E+00
          2   -1    0    0  501    0  0.00000000000E+00  0.00000000000E+00  0.11462844031E+04  0.11462844031E+04  0.00000000000E+00 0. -1.
         -2   -1    0    0    0  501 -0.00000000000E+00 -0.00000000000E+00 -0.25251430437E+02  0.25251430437E+02  0.00000000000E+00 0.  1.
         25    2    1    2    0    0  0.64738145670E+02 -0.11477146985E+03  0.59509902827E+03  0.62222285034E+03  0.12511955977E+03 0.  0.
          5    1    3    3  502    0 -0.15856356801E+02 -0.11413842744E+02  0.95030571528E+01  0.22124202865E+02  0.41800000000E+01 0.  1.
         -5    1    3    3    0  502  0.80594502471E+02 -0.10335762711E+03  0.58559597112E+03  0.60009864747E+03  0.41800000000E+01 0.  1.
        -11    1    1    2    0    0 -0.84871390849E+02  0.76262668970E+02  0.35190618335E+03  0.36994203538E+03  0.00000000000E+00 0.  1.
         11    1    1    2    0    0  0.20133245180E+02  0.38508800883E+02  0.17402776104E+03  0.17937094781E+03  0.00000000000E+00 0. -1.
</event>
<event>
 7    1  0.2412631E-010  0.9252112E+02  0.7561462E-02  0.1296859E+00
         -3   -1    0    0    0  501 -0.00000000000E+00  0.00000000000E+00  0.34935908879E+03  0.34935908879E+03  0.00000000000E+00 0.  1.
          3   -1    0    0  501    0  0.00000000000E+00 -0.00000000000E+00 -0.42420476245E+02  0.42420476245E+02  0.00000000000E+00 0. -1.
         25    2    1    2    0    0  0.38234763459E+02 -0.13663591035E+01  0.11091211185E+03  0.17152015593E+03  0.12511555964E+03 0.  0.
          5    1    3    3  502    0  0.65070952451E+02 -0.24467534644E+02  0.11620211449E+03  0.13547432568E+03  0.41800000000E+01 0.  1.
         -5    1    3    3    0  502 -0.26836188992E+02  0.23101175540E+02 -0.52900026493E+01  0.36045830258E+02  0.41800000000E+01 0.  1.
        -11    1    1    2    0    0  0.14681071765E+02 -0.18147991112E+02  0.91742459701E+01  0.25080873962E+02  0.00000000000E+00 0.  1.
         11    1    1    2    0    0 -0.52915835224E+02  0.19514350216E+02  0.18685225473E+03  0.19517853514E+03  0.00000000000E+00 0. -1.
</event>
<event>
 6    1  0.2412631E-010  0.1392020E+03  0.7561462E-02  0.1214407E+00
          1   -1    0    0  501    0  0.00000000000E+00  0.00000000000E+00  0.50129659325E+03  0.50129659325E+03  0.00000000000E+00 0. -1.
         -1   -1    0    0    0  501 -0.00000000000E+00 -0.00000000000E+00 -0.46861181120E+02  0.46861181120E+02  0.00000000000E+00 0.  1.
          5    1    1    2  502    0 -0.36757655853E+00 -0.30802755821E+02  0.11073302982E+03  0.11501400424E+03  0.41800000000E+01 0.  1.
         -5    1    1    2    0  502 -0.30948860169E+02  0.11495001877E+03  0.24035246941E+03  0.26825010850E+03  0.41800000000E+01 0.  1.
        -11    1    1    2    0    0 -0.41853495796E+01 -0.91789500708E+02  0.78934610691E+02  0.12113423280E+03  0.00000000000E+00 0. -1.
         11    1    1    2    0    0  0.35501786307E+02  0.76422377607E+01  0.24415302210E+02  0.43759428824E+02  0.00000000000E+00 0.  1.
</event>
<event>
 7    1  0.2412631E-010  0.8612180E+02  0.7561462E-02  0.1312525E+00
         -4   -1    0    0    0  501 -0.00000000000E+00  0.00000000000E+00  0.11698559386E+03  0.11698559386E+03  0.00000000000E+00 0.  1.
          4   -1    0    0  501    0  0.00000000000E+00 -0.00000000000E+00 -0.10614733252E+03  0.10614733252E+03  0.00000000000E+00 0. -1.
         25    2    1    2    0    0 -0.33352997222E+02 -0.31744269498E+02  0.30152678560E+02  0.13662642504E+03  0.12504988974E+03 0.  0.
          5    1    3    3  502    0 -0.11021228844E+02  0.25011867267E+02  0.61860101549E+02  0.67758435291E+02  0.41800000000E+01 0. -1.
         -5    1    3    3    0  502 -0.22331768379E+02 -0.56756136764E+02 -0.31707422989E+02  0.68867989748E+02  0.41800000000E+01 0. -1.
        -11    1    1    2    0    0  0.55247265143E+02  0.24003434938E+02 -0.83038711123E+01  0.60806080864E+02  0.00000000000E+00 0.  1.
         11    1    1    2    0    0 -0.21894267921E+02  0.77408345590E+01 -0.11010546108E+02  0.25700420484E+02  0.00000000000E+00 0. -1.
</event>
<event>
 6    1  0.2412631E-010  0.1114818E+03  0.7561462E-02  0.1257850E+00
          1   -1    0    0  501    0  0.00000000000E+00  0.00000000000E+00  0.62989809952E+02  0.62989809952E+02  0.00000000000E+00 0. -1.
         -1   -1    0    0    0  501 -0.00000000000E+00 -0.00000000000E+00 -0.21721890410E+03  0.21721890410E+03  0.00000000000E+00 0.  1.
          5    1    1    2  502    0 -0.47184634856E+02 -0.66227830405E+02 -0.47177030496E+02  0.94104515795E+02  0.41800000000E+01 0.  1.
         -5    1    1    2    0  502  0.27868270137E+02  0.34698248539E+02 -0.59003573248E+02  0.74023665055E+02  0.41800000000E+01 0.  1.
        -11    1    1    2    0    0  0.55371620457E+02  0.21660016662E+02 -0.13050690214E+02  0.60872762291E+02  0.00000000000E+00 0.  1.
         11    1    1    2    0    0 -0.36055255738E+02  0.98695652039E+01 -0.34997800193E+02  0.51207770914E+02  0.00000000000E+00 0. -1.
</event>
<event>
 7    1  0.2412631E-010  0.1186078E+03  0.7561462E-02  0.1245412E+00
          2   -1    0    0  501    0  0.00000000000E+00  0.00000000000E+00  0.53224819188E+02  0.53224819188E+02  0.00000000000E+00 0. -1.
         -2   -1    0    0    0  501 -0.00000000000E+00 -0.00000000000E+00 -0.30690628515E+03  0.30690628515E+03  0.00000000000E+00 0.  1.
         25    2    1    2    0    0 -0.40857520852E+02  0.48141222992E+02 -0.18036578331E+03  0.22837038192E+03  0.12503719922E+03 0.  0.
          5    1    3    3  502    0 -0.83892277229E+02  0.28080572883E+02 -0.14120675613E+03  0.16668309191E+03  0.41800000000E+01 0. -1.
         -5    1    3    3    0  502  0.43034756377E+02  0.20060650109E+02 -0.39159027178E+02  0.61687290010E+02  0.41800000000E+01 0. -1.
        -11    1    1    2    0    0 -0.20742752617E+02  0.29541691003E+01  0.30099547043E+01  0.21167161561E+02  0.00000000000E+00 0. -1.
         11    1    1    2    0    0  0.61600273470E+02 -0.51095392092E+02 -0.76325637356E+02  0.11059356085E+03  0.00000000000E+00 0.  1.
</event>
<event>
 6    1  0.2412631E-010  0.1127384E+03  0.7561462E-02  0.1255581E+00
          2   -1    0    0  501    0  0.00000000000E+00  0.00000000000E+00  0.17456707216E+03  0.17456707216E+03  0.00000000000E+00 0. -1.
         -2   -1    0    0    0  501 -0.00000000000E+00 -0.00000000000E+00 -0.82599047923E+02  0.82599047923E+02  0.00000000000E+00 0.  1.
          5    1    1    2  502    0  0.18768024331E+02 -0.57000467024E+02 -0.30155227641E+01  0.60231700589E+02  0.41800000000E+01 0. -1.
         -5    1    1    2    0  502  0.26723138729E+02  0.61576429206E+02  0.39256553398E+02  0.77873822059E+02  0.41800000000E+01 0. -1.
        -11    1    1    2    0    0 -0.11325386028E+02 -0.44268264025E+02  0.47739733290E+02  0.66083475265E+02  0.00000000000E+00 0.  1.
         11    1    1    2    0    0 -0.34165777032E+02  0.39692301843E+02  0.79872603092E+01  0.52977122167E+02  0.00000000000E+00 0. -1.
</event>
<event>
 6    1  0.2412631E-010  0.2148133E+03  0.7561462E-02  0.1137810E+00
          2   -1    0    0  501    0  0.00000000000E+00  0.00000000000E+00  0.13593435142E+04  0.13593435142E+04  0.00000000000E+00 0.  1.
         -2   -1    0    0    0  501 -0.00000000000E+00 -0.00000000000E+00 -0.35937308468E+02  0.35937308468E+02  0.00000000000E+00 0. -1.
          5    1    1    2  502    0  0.20306953664E+03 -0.47587009081E+02  0.59893095066E+03  0.63422197708E+03  0.41800000000E+01 0. -1.
         -5    1    1    2    0  502 -0.16614459668E+02  0.47270719424E+01  0.86120894382E+02  0.87935580560E+02  0.41800000000E+01 0. -1.
        -11    1    1    2    0    0 -0.62753290569E+02 -0.18132642409E+02  0.31299328391E+03  0.31973671039E+03  0.00000000000E+00 0.  1.
         11    1    1    2    0    0 -0.12370178641E+03  0.60992579548E+02  0.32536107677E+03  0.35338655463E+03  0.00000000000E+00 0. -1.
</event>
<event>
 7    1  0.2412631E-010  0.2665350E+03  0.7561462E-02  0.1103279E+00
          2   -1    0    0  501    0  0.00000000000E+00  0.00000000000E+00  0.15467480063E+04  0.15467480063E+04  0.00000000000E+00 0. -1.
         -2   -1    0    0    0  501 -0.00000000000E+00 -0.00000000000E+00 -0.52273074266E+02  0.52273074266E+02  0.00000000000E+00 0.  1.
         25    2    1    2    0    0 -0.26070197559E+03 -0.13808454383E+02  0.83656978705E+03  0.88523554704E+03  0.12504707772E+03 0.  0.
          5    1    3    3  502    0 -0.18348630982E+03 -0.12617381371E+01  0.73150673255E+03  0.75418060837E+03  0.41800000000E+01 0. -1.
         -5    1    3    3    0  502 -0.77215665767E+02 -0.12546716246E+02  0.10506305450E+03  0.13105493867E+03  0.41800000000E+01 0. -1.
        -11    1    1    2    0    0  0.13671366368E+03 -0.29494614634E+02  0.26707144007E+03  0.30147588996E+03  0.00000000000E+00 0. -1.
         11    1    1    2    0    0  0.12398831191E+03  0.43303069017E+02  0.39083370489E+03  0.41230964354E+03  0.00000000000E+00 0.  1.
</event>
<event>
 6    1  0.2412631E-010  0.1368942E+03  0.7561462E-02  0.1217570E+00
          2   -1    0    0  501    0  0.00000000000E+00  0.00000000000E+00  0.68308506586E+02  0.68308506586E+02  0.00000000000E+00 0. -1.
         -2   -1    0    0    0  501 -0.00000000000E+00 -0.00000000000E+00 -0.38625115167E+03  0.38625115167E+03  0.00000000000E+00 0.  1.
          5    1    1    2  502    0  0.41212236573E+02 -0.19267305248E+02  0.37528454318E+01  0.45839216220E+02  0.41800000000E+01 0. -1.
         -5    1    1    2    0  502  0.70294629726E+02  0.55078946363E+02 -0.17471814614E+03  0.19626239653E+03  0.41800000000E+01 0. -1.
        -11    1    1    2    0    0 -0.96551492333E+02  0.35279479878E+01 -0.13953395727E+03  0.16971847961E+03  0.00000000000E+00 0.  1.
         11    1    1    2    0    0 -0.14955373965E+02 -0.39339589103E+02 -0.74433871011E+01  0.42739565894E+02  0.00000000000E+00 0. -1.
</event>
<event>
 7    1  0.2412631E-010  0.1282980E+03  0.7561462E-02  0.1230003E+00
          1   -1    0    0  501    0  0.00000000000E+00  0.00000000000E+00  0.10110541721E+04  0.10110541721E+04  0.00000000000E+00 0. -1.
         -1   -1    0    0    0  501 -0.00000000000E+00 -0.00000000000E+00 -0.22769446695E+02  0.22769446695E+02  0.00000000000E+00 0.  1.
         25    2    1    2    0    0  0.97056457854E+02 -0.41282913207E+02  0.54128659644E+03  0.56548223864E+03  0.12511893460E+03 0.  0.
          5    1    3    3  502    0  0.57823280298E+02  0.26023293147E+01  0.71888584635E+02  0.92389094936E+02  0.41800000000E+01 0.  1.
         -5    1    3    3    0  502  0.39233177557E+02 -0.43885242522E+02  0.46939801180E+03  0.47309314370E+03  0.41800000000E+01 0.  1.
        -11    1    1    2    0    0 -0.47296449849E+02 -0.27457732573E+02  0.18823464629E+03  0.19601827289E+03  0.00000000000E+00 0. -1.
         11    1    1    2    0    0 -0.49760008006E+02  0.68740645780E+02  0.25876348263E+03  0.27232310721E+03  0.00000000000E+00 0.  1.
</event>
<event>
 7    1  0.2412631E-010  0.1248479E+03  0.7561462E-02  0.1235307E+00
         -2   -1    0    0    0  501 -0.00000000000E+00  0.00000000000E+00  0.24889691795E+02  0.24889691795E+02  0.00000000000E+00 0.  1.
          2   -1    0    0  501    0  0.00000000000E+00 -0.00000000000E+00 -0.10586412102E+04  0.10586412102E+04  0.00000000000E+00 0. -1.
         25    2    1    2    0    0  0.45451029781E+02 -0.91174273773E+02 -0.80330244399E+03  0.81934541383E+03  0.12511413324E+03 0.  0.
          5    1    3    3  502    0  0.24553927855E+02  0.21573799506E+02 -0.73114937904E+02  0.80197199097E+02  0.41800000000E+01 0. -1.
         -5    1    3    3    0  502  0.20897101926E+02 -0.11274807328E+03 -0.73018750609E+03  0.73914821473E+03  0.41800000000E+01 0. -1.
        -11    1    1    2    0    0 -0.37705358854E+02  0.79520687833E+02 -0.23378430577E+03  0.24980059148E+03  0.00000000000E+00 0. -1.
         11    1    1    2    0    0 -0.77456709274E+01  0.11653585940E+02  0.33352313850E+01  0.14384896655E+02  0.00000000000E+00 0.  1.
</event>
<event>
 7    1  0.2412631E-010  0.5473672E+02  0.7561462E-02  0.1421348E+00
         -1   -1    0    0    0  501 -0.00000000000E+00  0.00000000000E+00  0.46495432747E+03  0.46495432747E+03  0.00000000000E+00 0.  1.
          1   -1    0    0  501    0  0.00000000000E+00 -0.00000000000E+00 -0.27873840779E+02  0.27873840779E+02  0.00000000000E+00 0. -1.
         25    2    1    2    0    0  0.21825851044E+02  0.78712303436E+01  0.31299851110E+03  0.33784849912E+03  0.12504085879E+03 0.  0.
          5    1    3    3  502    0  0.21098719275E+02  0.52397193294E+01 -0.25287181030E+01  0.22281773469E+02  0.41800000000E+01 0. -1.
         -5    1    3    3    0  502  0.72713176886E+00  0.26315110142E+01  0.31552722920E+03  0.31556672565E+03  0.41800000000E+01 0. -1.
        -11    1    1    2    0    0 -0.32883594797E+02  0.29003071501E+02  0.29454354732E+02  0.52821094043E+02  0.00000000000E+00 0. -1.
         11    1    1    2    0    0  0.11057743753E+02 -0.36874301845E+02  0.94627620858E+02  0.10215857508E+03  0.00000000000E+00 0.  1.
</event>
<event>
 7    1  0.2412631E-010  0.1977823E+03  0.7561462E-02  0.1151624E+00
          2   -1    0    0  501    0  0.00000000000E+00  0.00000000000E+00  0.35395623524E+03  0.35395623524E+03  0.00000000000E+00 0. -1.
         -2   -1    0    0    0  501 -0.00000000000E+00 -0.00000000000E+00 -0.14827390218E+03  0.14827390218E+03  0.00000000000E+00 0.  1.
         25    2    1    2    0    0 -0.88264556475E+02  0.16163536055E+03  0.16336787242E+02  0.22320603397E+03  0.12504967523E+03 0.  0.
          5    1    3    3  502    0 -0.72837789408E+01  0.11898785832E+03  0.44564179881E+02  0.12733657131E+03  0.41800000000E+01 0.  1.
         -5    1    3    3    0  502 -0.80980777534E+02  0.42647502221E+02 -0.28227392639E+02  0.95869462661E+02  0.41800000000E+01 0.  1.
        -11    1    1    2    0    0  0.59284133906E+02 -0.94768494767E+02  0.17028221451E+03  0.20369513669E+03  0.00000000000E+00 0. -1.
         11    1    1    2    0    0  0.28980422569E+02 -0.66866865778E+02  0.19063331311E+02  0.75328966752E+02  0.00000000000E+00 0.  1.
</event>
<event>
 6    1  0.2412631E-010  0.1574392E+03  0.7561462E-02  0.1191619E+00
          2   -1    0    0  501    0  0.00000000000E+00  0.00000000000E+00  0.39625216000E+03  0.39625216000E+03  0.00000000000E+00 0. -1.
         -2   -1    0    0    0  501 -0.00000000000E+00 -0.00000000000E+00 -0.78887016042E+02  0.78887016042E+02  0.00000000000E+00 0.  1.
          5    1    1    2  502    0  0.69782932454E+02 -0.69354084434E+01  0.18467210488E+02  0.72637922708E+02  0.41800000000E+01 0.  1.
         -5    1    1    2    0  502  0.38282020859E+01 -0.10656835863E+03  0.10086982911E+03  0.14684571842E+03  0.41800000000E+01 0.  1.
        -11    1    1    2    0    0 -0.27387166716E+02  0.66806093083E+02  0.16908786433E+03  0.18385814324E+03  0.00000000000E+00 0.  1.
         11    1    1    2    0    0 -0.46223967824E+02  0.46697673995E+02  0.28940240037E+02  0.71797391675E+02  0.00000000000E+00 0. -1.
</event>
<event>
 6    1  0.2412631E-010  0.9496792E+02  0.7561462E-02  0.1291248E+00
          2   -1    0    0  501    0  0.00000000000E+00  0.00000000000E+00  0.30524955569E+03  0.30524955569E+03  0.00000000000E+00 0. -1.
         -2   -1    0    0    0  501 -0.00000000000E+00 -0.00000000000E+00 -0.43492882137E+02  0.43492882137E+02  0.00000000000E+00 0.  1.
          5    1    1    2  502    0 -0.33356840664E+02  0.18882187204E+02  0.74523405108E+01  0.39271180168E+02  0.41800000000E+01 0.  1.
         -5    1    1    2    0  502  0.66000640360E+02 -0.35341351661E+01  0.15801076414E+03  0.17132848165E+03  0.41800000000E+01 0.  1.
        -11    1    1    2    0    0 -0.56262171852E+02 -0.22315845102E+02  0.30263764106E+02  0.67670705198E+02  0.00000000000E+00 0.  1.
         11    1    1    2    0    0  0.23618372156E+02  0.69677930642E+01  0.66029804792E+02  0.70472070811E+02  0.00000000000E+00 0. -1.
</event>
<event>
 7    1  0.2412631E-010  0.7205536E+02  0.7561462E-02  0.1353240E+00
          1   -1    0    0  501    0  0.00000000000E+00  0.00000000000E+00  0.78680784415E+02  0.78680784415E+02  0.00000000000E+00 0. -1.
         -1   -1    0    0    0  501 -0.00000000000E+00 -0.00000000000E+00 -0.23847465592E+03  0.23847465592E+03  0.00000000000E+00 0.  1.
         25    2    1    2    0    0 -0.46548781942E+02 -0.13852588996E+02 -0.17141886324E+03  0.21771419509E+03  0.12512538010E+03 0.  0.
          5    1    3    3  502    0 -0.35633322074E+02 -0.46460679893E+02 -0.17335153686E+03  0.18302064405E+03  0.41800000000E+01 0.  1.
         -5    1    3    3    0  502 -0.10915459869E+02  0.32608090897E+02  0.19326736183E+01  0.34693551035E+02  0.41800000000E+01 0.  1.
        -11    1    1    2    0    0  0.10509752023E+02  0.10031976113E+02  0.46759707743E+02  0.48964943588E+02  0.00000000000E+00 0. -1.
         11    1    1    2    0    0  0.36039029919E+02  0.38206128827E+01 -0.35134716006E+02  0.50476301658E+02  0.00000000000E+00 0.  1.
</event>
<event>
 7    1  0.2412631E-010  0.1022394E+03  0.7561462E-02  0.1275656E+00
          2   -1    0    0  501    0  0.00000000000E+00  0.00000000000E+00  0.30114122941E+03  0.30114122941E+03  0.00000000000E+00 0. -1.
         -2   -1    0    0    0  501 -0.00000000000E+00 -0.00000000000E+00 -0.68219095492E+02  0.68219095492E+02  0.00000000000E+00 0.  1.
         25    2    1    2    0    0  0.92479698198E+01  0.63555095093E+02  0.21499985197E+03  0.25688831362E+03  0.12506755881E+03 0.  0.
          5    1    3    3  502    0  0.12664413519E+01 -0.36189776651E+02  0.87265376105E+02  0.94572840047E+02  0.41800000000E+01 0.  1.
         -5    1    3    3    0  502  0.79815284679E+01  0.99744871744E+02  0.12773447587E+03  0.16231547357E+03  0.41800000000E+01 0.  1.
        -11    1    1    2    0    0  0.72717194194E+01 -0.21220448284E+02  0.51364764049E+02  0.56049302534E+02  0.00000000000E+00 0. -1.
         11    1    1    2    0    0 -0.16519689239E+02 -0.42334646810E+02 -0.33442482105E+02  0.56422708747E+02  0.00000000000E+00 0.  1.
</event>
<event>
 6    1  0.2412631E-010  0.1735738E+03  0.7561462E-02  0.1174171E+00
          2   -1    0    0  501    0  0.00000000000E+00  0.00000000000E+00  0.91448797344E+03  0.91448797344E+03  0.00000000000E+00 0. -1.
         -2   -1    0    0    0  501 -0.00000000000E+00 -0.00000000000E+00 -0.42664300980E+02  0.42664300980E+02  0.00000000000E+00 0.  1.
          5    1    1    2  502    0 -0.57204199780E+01  0.30796826199E+02  0.23771493611E+03  0.23980623627E+03  0.41800000000E+01 0. -1.
         -5    1    1    2    0  502  0.14764895839E+03  0.64113893931E+01  0.40011250432E+03  0.42655457956E+03  0.41800000000E+01 0. -1.
        -11    1    1    2    0    0 -0.76145211147E+02 -0.61185967918E+02  0.10111235128E+03  0.14058991227E+03  0.00000000000E+00 0.  1.
         11    1    1    2    0    0 -0.65783327262E+02  0.23977752326E+02  0.13288388075E+03  0.15020154632E+03  0.00000000000E+00 0. -1.
</event>
<event>
 7    1  0.2412631E-010  0.8214736E+02  0.7561462E-02  0.1323066E+00
         -2   -1    0    0    0  501 -0.00000000000E+00  0.00000000000E+00  0.11772828976E+03  0.11772828976E+03  0.00000000000E+00 0.  1.
          2   -1    0    0  501    0  0.00000000000E+00 -0.00000000000E+00 -0.11657093096E+03  0.11657093096E+03  0.00000000000E+00 0. -1.
         25    2    1    2    0    0 -0.29053899549E+02 -0.30007949174E+02 -0.13082178082E+02  0.13254842719E+03  0.12511329296E+03 0.  0.
          5    1    3    3  502    0  0.12374895032E+02  0.22311184854E+02 -0.49911770703E+02  0.56210179250E+02  0.41800000000E+01 0.  1.
         -5    1    3    3    0  502 -0.41428794582E+02 -0.52319134028E+02  0.36829592621E+02  0.76338247940E+02  0.41800000000E+01 0.  1.
        -11    1    1    2    0    0 -0.63286712400E+01 -0.13847884955E+02  0.37741352833E+02  0.40696753077E+02  0.00000000000E+00 0.  1.
         11    1    1    2    0    0  0.35382570789E+02  0.43855834129E+02 -0.23501815950E+02  0.61054040454E+02  0.00000000000E+00 0. -1.
</event>
<event>
 6    1  0.2412631E-010  0.6249116E+02  0.7561462E-02  0.1387665E+00
          3   -1    0    0  501    0  0.00000000000E+00  0.00000000000E+00  0.50461394601E+02  0.50461394601E+02  0.00000000000E+00 0. -1.
         -3   -1    0    0    0  501 -0.00000000000E+00 -0.00000000000E+00 -0.25071429376E+03  0.25071429376E+03  0.00000000000E+00 0.  1.
          5    1    1    2  502    0 -0.71590080536E+01  0.63185527411E+01  0.21909997378E+02  0.24263056076E+02  0.41800000000E+01 0. -1.
         -5    1    1    2    0  502  0.30837655956E+02 -0.15511474480E+02 -0.16043778063E+03  0.16416248268E+03  0.41800000000E+01 0. -1.
        -11    1    1    2    0    0 -0.43064501240E+02 -0.17763562013E+02 -0.64351437757E+02  0.79443079899E+02  0.00000000000E+00 0.  1.
         11    1    1    2    0    0  0.19385853338E+02  0.26956483753E+02  0.26263218532E+01  0.33307069706E+02  0.00000000000E+00 0. -1.
</event>
<event>
 7    1  0.2412631E-010  0.1744962E+03  0.7561462E-02  0.1173239E+00
          2   -1    0    0  501    0  0.00000000000E+00  0.00000000000E+00  0.51618191218E+03  0.51618191218E+03  0.00000000000E+00 0. -1.
         -2   -1    0    0    0  501 -0.00000000000E+00 -0.00000000000E+00 -0.61368726622E+02  0.61368726622E+02  0.00000000000E+00 0.  1.
         25    2    1    2    0    0  0.90492646037E+02 -0.10445923801E+03  0.27969271834E+03  0.33610902989E+03  0.12506243195E+03 0.  0.
          5    1    3    3  502    0  0.29600560078E+02  0.27022570345E+02  0.77120170715E+02  0.87013824167E+02  0.41800000000E+01 0.  1.
         -5    1    3    3    0  502  0.60892085959E+02 -0.13148180836E+03  0.20257254762E+03  0.24909520572E+03  0.41800000000E+01 0.  1.
        -11    1    1    2    0    0 -0.10590008889E+03  0.72745110648E+02  0.11874786088E+03  0.17495066280E+03  0.00000000000E+00 0.  1.
         11    1    1    2    0    0  0.15407442854E+02  0.31714127365E+02  0.56372606340E+02  0.66490946116E+02  0.00000000000E+00 0. -1.
</event>
<event>
 7    1  0.2412631E-010  0.9650944E+02  0.7561462E-02  0.1287812E+00
          3   -1    0    0  501    0  0.00000000000E+00  0.00000000000E+00  0.14866148758E+03  0.14866148758E+03  0.00000000000E+00 0. -1.
         -3   -1    0    0    0  501 -0.00000000000E+00 -0.00000000000E+00 -0.98947187190E+02  0.98947187190E+02  0.00000000000E+00 0.  1.
         25    2    1    2    0    0 -0.31601189301E+02 -0.38908219669E+02  0.63790625159E+01  0.13488719541E+03  0.12506549614E+03 0.  0.
          5    1    3    3  502    0  0.12312828253E+02  0.35371172027E+02  0.26642222947E+02  0.46151987971E+02  0.41800000000E+01 0. -1.
         -5    1    3    3    0  502 -0.43914017555E+02 -0.74279391695E+02 -0.20263160431E+02  0.88735207438E+02  0.41800000000E+01 0. -1.
        -11    1    1    2    0    0 -0.53835173690E+01  0.30556053950E+02 -0.21406000551E+02  0.37694449882E+02  0.00000000000E+00 0.  1.
         11    1    1    2    0    0  0.36984706670E+02  0.83521657184E+01  0.64741238424E+02  0.75027029479E+02  0.00000000000E+00 0. -1.
</event>
<event>
 7    1  0.2412631E-010  0.8430612E+02  0.7561462E-02  0.1317257E+00
         -2   -1    0    0    0  501 -0.00000000000E+00  0.00000000000E+00  0.26318799325E+02  0.26318799325E+02  0.00000000000E+00 0. -1.
          2   -1    0    0  501    0  0.00000000000E+00 -0.00000000000E+00 -0.17468579002E+04  0.17468579002E+04  0.00000000000E+00 0.  1.
         25    2    1    2    0    0  0.49761088524E+02 -0.25688065840E+02 -0.16152064968E+04  0.16210082886E+04  0.12505919328E+03 0.  0.
          5    1    3    3  502    0  0.20142154479E+02  0.98900415974E+01 -0.14257649426E+04  0.14259476369E+04  0.41800000000E+01 0.  1.
         -5    1    3    3    0  502  0.29618934045E+02 -0.35578107437E+02 -0.18944155422E+03  0.19506065172E+03  0.41800000000E+01 0.  1.
        -11    1    1    2    0    0  0.10566875641E+02 -0.20675621854E+02 -0.12657770028E+01  0.23253868308E+02  0.00000000000E+00 0. -1.
         11    1    1    2    0    0 -0.60327964166E+02  0.46363687693E+02 -0.10406682710E+03  0.12891454262E+03  0.00000000000E+00 0.  1.
</event>
<event>
 7    1  0.2412631E-010  0.2049627E+03  0.7561462E-02  0.1145618E+00
         -3   -1    0    0    0  501 -0.00000000000E+00  0.00000000000E+00  0.66205728579E+03  0.66205728579E+03  0.00000000000E+00 0.  1.
          3   -1    0    0  501    0  0.00000000000E+00 -0.00000000000E+00 -0.73598242023E+02  0.73598242023E+02  0.00000000000E+00 0. -1.
         25    2    1    2    0    0 -0.15011339257E+03  0.99606858046E+02  0.41450058857E+03  0.46894388325E+03  0.12506826499E+03 0.  0.
          5    1    3    3  502    0  0.13751045093E+02 -0.76740133398E+01  0.77018521781E+02  0.78722975167E+02  0.41800000000E+01 0. -1.
         -5    1    3    3    0  502 -0.16386443766E+03  0.10728087139E+03  0.33748206679E+03  0.39022090808E+03  0.41800000000E+01 0. -1.
        -11    1    1    2    0    0  0.47988768834E+02  0.88061634767E+01  0.20686748259E+02  0.52994452567E+02  0.00000000000E+00 0.  1.
         11    1    1    2    0    0  0.10212462374E+03 -0.10841302152E+03  0.15327170693E+03  0.21371719200E+03  0.00000000000E+00 0. -1.
</event>
<event>
 6    1  0.2412631E-010  0.1107830E+03  0.7561462E-02  0.1259127E+00
         -1   -1    0    0    0  501 -0.00000000000E+00  0.00000000000E+00  0.25566778418E+03  0.25566778418E+03  0.00000000000E+00 0.  1.
          1   -1    0    0  501    0  0.00000000000E+00 -0.00000000000E+00 -0.48260024723E+02  0.48260024723E+02  0.00000000000E+00 0. -1.
          5    1    1    2  502    0  0.26493111538E+02 -0.43710736459E+02  0.57224556327E+02  0.76841627309E+02  0.41800000000E+01 0.  1.
         -5    1    1    2    0  502 -0.53275306516E+02  0.55107506796E+02  0.66193445365E+02  0.10136143349E+03  0.41800000000E+01 0.  1.
        -11    1    1    2    0    0  0.57414318049E+02 -0.21434088947E+02  0.53396219900E+02  0.81283333997E+02  0.00000000000E+00 0.  1.
         11    1    1    2    0    0 -0.30632123072E+02  0.10037318610E+02  0.30593537865E+02  0.44441414107E+02  0.00000000000E+00 0. -1.
</event>
<event>
 7    1  0.2412631E-010  0.1192625E+03  0.7561462E-02  0.1244319E+00
         -3   -1    0    0    0  501 -0.00000000000E+00  0.00000000000E+00  0.12473209909E+03  0.12473209909E+03  0.00000000000E+00 0.  1.
          3   -1    0    0  501    0  0.00000000000E+00 -0.00000000000E+00 -0.19189285650E+03  0.19189285650E+03  0.00000000000E+00 0. -1.
         25    2    1    2    0    0  0.46724883606E+02  0.76117802809E+02 -0.10741027367E+03  0.18749933149E+03  0.12506757280E+03 0.  0.
          5    1    3    3  502    0  0.79273876811E+02  0.80957487591E+02 -0.56361125730E+02  0.12661955313E+03  0.41800000000E+01 0.  1.
         -5    1    3    3    0  502 -0.32548993205E+02 -0.48396847819E+01 -0.51049147938E+02  0.60879778355E+02  0.41800000000E+01 0.  1.
        -11    1    1    2    0    0 -0.25972797578E+02 -0.60986720292E+02 -0.15208607815E+02  0.68009323020E+02  0.00000000000E+00 0. -1.
         11    1    1    2    0    0 -0.20752086028E+02 -0.15131082518E+02  0.55458124069E+02  0.61116301082E+02  0.00000000000E+00 0.  1.
</event>
<event>
 7    1  0.2412631E-010  0.8965285E+02  0.7561462E-02  0.1303695E+00
         -3   -1    0    0    0  501 -0.00000000000E+00  0.00000000000E+00  0.24655576367E+02  0.24655576367E+02  0.00000000000E+00 0.  1.
          3   -1    0    0  501    0  0.00000000000E+00 -0.00000000000E+00 -0.49120170574E+03  0.49120170574E+03  0.00000000000E+00 0. -1.
         25    2    1    2    0    0 -0.87888768326E+01  0.17619636745E+02 -0.24803192441E+03  0.27849663438E+03  0.12511132596E+03 0.  0.
          5    1    3    3  502    0 -0.31849072397E+02  0.44768805663E+02 -0.23330846853E+03  0.23972676792E+03  0.41800000000E+01 0.  1.
         -5    1    3    3    0  502  0.23060195564E+02 -0.27149168918E+02 -0.14723455880E+02  0.38769866462E+02  0.41800000000E+01 0.  1.
        -11    1    1    2    0    0 -0.27600531907E+02  0.21444711852E+02 -0.53329564476E+02  0.63762900461E+02  0.00000000000E+00 0.  1.
         11    1    1    2    0    0  0.36389408740E+02 -0.39064348597E+02 -0.16518464049E+03  0.17359774726E+03  0.00000000000E+00 0. -1.
</event>
<event>
 7    1  0.2412631E-010  0.1325189E+03  0.7561462E-02  0.1223765E+00
          1   -1    0    0  501    0  0.00000000000E+00  0.00000000000E+00  0.19246860273E+03  0.19246860273E+03  0.00000000000E+00 0. -1.
         -1   -1    0    0    0  501 -0.00000000000E+00 -0.00000000000E+00 -0.15361963621E+03  0.15361963621E+03  0.00000000000E+00 0.  1.
         25    2    1    2    0    0  0.21713426076E+02  0.10391539285E+03  0.10163078213E+03  0.19302526927E+03  0.12514014926E+03 0.  0.
          5    1    3    3  502    0  0.49768061217E+02 -0.72012386362E+00  0.56994234537E+02  0.75783861515E+02  0.41800000000E+01 0. -1.
         -5    1    3    3    0  502 -0.28054635140E+02  0.10463551671E+03  0.44636547588E+02  0.11724140775E+03  0.41800000000E+01 0. -1.
        -11    1    1    2    0    0 -0.14521641754E+02 -0.44057771263E+02  0.20114123013E+02  0.50562270840E+02  0.00000000000E+00 0. -1.
         11    1    1    2    0    0 -0.71917843227E+01 -0.59857621587E+02 -0.82895938620E+02  0.10250069884E+03  0.00000000000E+00 0.  1.
</event>
<event>
 7    1  0.2412631E-010  0.9194158E+02  0.7561462E-02  0.1298217E+00
         -2   -1    0    0    0  501 -0.00000000000E+00  0.00000000000E+00  0.13142924127E+03  0.13142924127E+03  0.00000000000E+00 0. -1.
          2   -1    0    0  501    0  0.00000000000E+00 -0.00000000000E+00 -0.10657293931E+03  0.10657293931E+03  0.00000000000E+00 0.  1.
         25    2    1    2    0    0  0.22850515527E+02  0.19419822322E+02  0.49022112818E+02  0.13761939144E+03  0.12504660649E+03 0.  0.
          5    1    3    3  502    0 -0.31675610107E+02  0.13701235545E+02 -0.26844990262E+02  0.43922591377E+02  0.41800000000E+01 0. -1.
         -5    1    3    3    0  502  0.54526125634E+02  0.57185867770E+01  0.75867103080E+02  0.93696800058E+02  0.41800000000E+01 0. -1.
        -11    1    1    2    0    0 -0.22219278063E+02 -0.54600537867E+02 -0.23768320661E+01  0.58996308221E+02  0.00000000000E+00 0. -1.
         11    1    1    2    0    0 -0.63123746378E+00  0.35180715545E+02 -0.21788978793E+02  0.41386480931E+02  0.00000000000E+00 0.  1.
</event>
<event>
 7    1  0.2412631E-010  0.2711627E+03  0.7561462E-02  0.1100616E+00
          2   -1    0    0  501    0  0.00000000000E+00  0.00000000000E+00  0.84869027680E+03  0.84869027680E+03  0.00000000000E+00 0. -1.
         -2   -1    0    0    0  501 -0.00000000000E+00 -0.00000000000E+00 -0.97640462134E+02  0.97640462134E+02  0.00000000000E+00 0.  1.
         25    2    1    2    0    0  0.16179063363E+03 -0.21122563340E+03  0.36082885201E+03  0.46543438483E+03  0.12505690229E+03 0.  0.
          5    1    3    3  502    0  0.64840651799E+02 -0.12494158245E+03  0.27737373149E+03  0.31107614578E+03  0.41800000000E+01 0.  1.
         -5    1    3    3    0  502  0.96949981829E+02 -0.86284050943E+02  0.83455120521E+02  0.15435823906E+03  0.41800000000E+01 0.  1.
        -11    1    1    2    0    0 -0.14198335349E+03  0.14673575302E+03  0.34073653175E+03  0.39723045949E+03  0.00000000000E+00 0. -1.
         11    1    1    2    0    0 -0.19807280142E+02  0.64489880379E+02  0.49484430906E+02  0.83665894604E+02  0.00000000000E+00 0.  1.
</event>
<event>
 7    1  0.2412631E-010  0.1025326E+03  0.7561462E-02  0.1275059E+00
         -1   -1    0    0    0  501 -0.00000000000E+00  0.00000000000E+00  0.36848110969E+02  0.36848110969E+02  0.00000000000E+00 0.  1.
          1   -1    0    0  501    0  0.00000000000E+00 -0.00000000000E+00 -0.35505112295E+03  0.35505112295E+03  0.00000000000E+00 0. -1.
         25    2    1    2    0    0  0.27850381637E+02  0.95842192262E+01 -0.15509489209E+03  0.20143158194E+03  0.12511097329E+03 0.  0.
          5    1    3    3  502    0 -0.12905074116E+02 -0.52412164380E+02 -0.68929463439E+02  0.87648840511E+02  0.41800000000E+01 0. -1.
         -5    1    3    3    0  502  0.40755455752E+02  0.61996383606E+02 -0.86165428649E+02  0.11378274143E+03  0.41800000000E+01 0. -1.
        -11    1    1    2    0    0 -0.34985637738E+02  0.23906378103E+02 -0.14631877796E+03  0.15233087194E+03  0.00000000000E+00 0. -1.
         11    1    1    2    0    0  0.71352561017E+01 -0.33490597329E+02 -0.16789341934E+02  0.38136780038E+02  0.00000000000E+00 0.  1.
</event>
<event>
 7    1  0.2412631E-010  0.8800101E+02  0.7561462E-02  0.1307766E+00
          2   -1    0    0  501    0  0.00000000000E+00  0.00000000000E+00  0.33923694947E+03  0.33923694947E+03  0.00000000000E+00 0. -1.
         -2   -1    0    0    0  501 -0.00000000000E+00 -0.00000000000E+00 -0.41333618482E+02  0.41333618482E+02  0.00000000000E+00 0.  1.
         25    2    1    2    0    0 -0.24418842865E+02 -0.30747627833E+02  0.22974130664E+03  0.26449168945E+03  0.12503235303E+03 0.  0.
          5    1    3    3  502    0  0.30440411894E+02  0.33308559458E+02  0.98622259015E+02  0.10853525318E+03  0.41800000000E+01 0.  1.
         -5    1    3    3    0  502 -0.54859254759E+02 -0.64056187292E+02  0.13111904763E+03  0.15595643627E+03  0.41800000000E+01 0.  1.
        -11    1    1    2    0    0  0.99587458784E+01 -0.22576415441E+01 -0.19106261363E+02  0.21663859030E+02  0.00000000000E+00 0.  1.
         11    1    1    2    0    0  0.14460096987E+02  0.33005269377E+02  0.87268285712E+02  0.94415019476E+02  0.00000000000E+00 0. -1.
</event>
<event>
 7    1  0.2412631E-010  0.1111778E+03  0.7561462E-02  0.1258404E+00
         -2   -1    0    0    0  501 -0.00000000000E+00  0.00000000000E+00  0.35401924647E+02  0.35401924647E+02  0.00000000000E+00 0.  1.
          2   -1    0    0  501    0  0.00000000000E+00 -0.00000000000E+00 -0.51311078466E+03  0.51311078466E+03  0.00000000000E+00 0. -1.
         25    2    1    2    0    0  0.71534378972E+02  0.14930029481E+02 -0.33409882190E+03  0.36414091014E+03  0.12504601749E+03 0.  0.
          5    1    3    3  502    0  0.66640851691E+02  0.42609261395E+02 -0.96483166617E+02  0.12483199154E+03  0.41800000000E+01 0.  1.
         -5    1    3    3    0  502  0.48935272806E+01 -0.27679231914E+02 -0.23761565528E+03  0.23930891860E+03  0.41800000000E+01 0.  1.
        -11    1    1    2    0    0 -0.84838882119E+02  0.11035596895E+02 -0.96547612205E+02  0.12899946411E+03  0.00000000000E+00 0. -1.
         11    1    1    2    0    0  0.13304503147E+02 -0.25965626376E+02 -0.47062425905E+02  0.55372335052E+02  0.00000000000E+00 0.  1.
</event>
<event>
 7    1  0.2412631E-010  0.2699032E+03  0.7561462E-02  0.1101335E+00
         -1   -1    0    0    0  501 -0.00000000000E+00  0.00000000000E+00  0.11384580566E+03  0.11384580566E+03  0.00000000000E+00 0.  1.
          1   -1    0    0  501    0  0.00000000000E+00 -0.00000000000E+00 -0.72872759284E+03  0.72872759284E+03  0.00000000000E+00 0. -1.
         25    2    1    2    0    0 -0.10731082525E+03  0.23951970119E+03 -0.24980317284E+03  0.38331177795E+03  0.12506395758E+03 0.  0.
          5    1    3    3  502    0 -0.40973938403E+02  0.15158209575E+03 -0.69021261781E+02  0.17157331482E+03  0.41800000000E+01 0. -1.
         -5    1    3    3    0  502 -0.66336886845E+02  0.87937605440E+02 -0.18078191106E+03  0.21173846314E+03  0.41800000000E+01 0. -1.
        -11    1    1    2    0    0 -0.10320811223E+02 -0.89806990843E+01 -0.26941564917E+01  0.13943836615E+02  0.00000000000E+00 0.  1.
         11    1    1    2    0    0  0.11763163647E+03 -0.23053900210E+03 -0.36238445785E+03  0.44531778392E+03  0.00000000000E+00 0. -1.
</event>
<event>
 6    1  0.2412631E-010  0.1408185E+03  0.7561462E-02  0.1212232E+00
          1   -1    0    0  501    0  0.00000000000E+00  0.00000000000E+00  0.71475349287E+02  0.71475349287E+02  0.00000000000E+00 0. -1.
         -1   -1    0    0    0  501 -0.00000000000E+00 -0.00000000000E+00 -0.40606287667E+03  0.40606287667E+03  0.00000000000E+00 0.  1.
          5    1    1    2  502    0 -0.12383514921E+02 -0.13609442128E+02 -0.95510971601E+02  0.97357005156E+02  0.41800000000E+01 0. -1.
         -5    1    1    2    0  502 -0.55554730097E+02  0.11892374414E+03 -0.90394495211E+02  0.15942967767E+03  0.41800000000E+01 0. -1.
        -11    1    1    2    0    0 -0.29681559275E+01 -0.21294668898E+02  0.13079008211E+02  0.25166114695E+02  0.00000000000E+00 0. -1.
         11    1    1    2    0    0  0.70906400946E+02 -0.84019633114E+02 -0.16176106878E+03  0.19558542844E+03  0.00000000000E+00 0.  1.
</event>
<event>
 6    1  0.2412631E-010  0.1231843E+03  0.7561462E-02  0.1237934E+00
         -2   -1    0    0    0  501 -0.00000000000E+00  0.00000000000E+00  0.30706445999E+02  0.30706445999E+02  0.00000000000E+00 0.  1.
          2   -1    0    0  501    0  0.00000000000E+00 -0.00000000000E+00 -0.52678546992E+03  0.52678546992E+03  0.00000000000E+00 0. -1.
          5    1    1    2  502    0 -0.50992457851E+02  0.66974158821E+02 -0.13547050864E+03  0.15954779791E+03  0.41800000000E+01 0.  1.
         -5    1    1    2    0  502  0.57803348056E+02  0.17796643806E+01 -0.11474294592E+03  0.12856053162E+03  0.41800000000E+01 0.  1.
        -11    1    1    2    0    0  0.88665598804E+01  0.15796528053E+02 -0.85701428522E+02  0.87594982923E+02  0.00000000000E+00 0.  1.
         11    1    1    2    0    0 -0.15677450086E+02 -0.84550351255E+02 -0.16016414084E+03  0.18178860346E+03  0.00000000000E+00 0. -1.
</event>
<event>
 7    1  0.2412631E-010  0.9400192E+02  0.7561462E-02  0.1293440E+00
         -1   -1    0    0    0  501 -0.00000000000E+00  0.00000000000E+00  0.72167025092E+02  0.72167025092E+02  0.00000000000E+00 0.  1.
          1   -1    0    0  501    0  0.00000000000E+00 -0.00000000000E+00 -0.19490562168E+03  0.19490562168E+03  0.00000000000E+00 0. -1.
         25    2    1    2    0    0 -0.10434255188E+02 -0.38566722876E+01 -0.11325947230E+03  0.16908504510E+03  0.12505317593E+03 0.  0.
          5    1    3    3  502    0 -0.47007296350E+02  0.44196569778E+02 -0.64859637181E+02  0.91582026760E+02  0.41800000000E+01 0. -1.
         -5    1    3    3    0  502  0.36573041162E+02 -0.48053242066E+02 -0.48399835114E+02  0.77503018341E+02  0.41800000000E+01 0. -1.
        -11    1    1    2    0    0  0.91728969643E+01 -0.28752937497E+02  0.32804070646E+02  0.44575559496E+02  0.00000000000E+00 0.  1.
         11    1    1    2    0    0  0.12613582232E+01  0.32609609785E+02 -0.42283194934E+02  0.53412042170E+02  0.00000000000E+00 0. -1.
</event>
<event>
 7    1  0.2412631E-010  0.1008680E+03  0.7561462E-02  0.1278481E+00
          1   -1    0    0  501    0  0.00000000000E+00  0.00000000000E+00  0.86741728239E+02  0.86741728239E+02  0.00000000000E+00 0. -1.
         -1   -1    0    0    0  501 -0.00000000000E+00 -0.00000000000E+00 -0.23163122940E+03  0.23163122940E+03  0.00000000000E+00 0.  1.
         25    2    1    2    0    0  0.18047818545E+02  0.57053824157E+02  0.13066427523E+01  0.13863945435E+03  0.12505330216E+03 0.  0.
          5    1    3    3  502    0  0.11194753693E+02  0.81227567347E+02  0.40771772885E+02  0.91668151893E+02  0.41800000000E+01 0. -1.
         -5    1    3    3    0  502  0.68530648515E+01 -0.24173743190E+02 -0.39465130133E+02  0.46971302453E+02  0.41800000000E+01 0. -1.
        -11    1    1    2    0    0 -0.23009088963E+02 -0.73482751322E+02 -0.14280233659E+03  0.16223945344E+03  0.00000000000E+00 0.  1.
         11    1    1    2    0    0  0.49612704177E+01  0.16428927166E+02 -0.33938073161E+01  0.17494049848E+02  0.00000000000E+00 0. -1.
</event>
<event>
 7    1  0.2412631E-010  0.1369841E+03  0.7561462E-02  0.1217446E+00
         -2   -1    0    0    0  501 -0.00000000000E+00  0.00000000000E+00  0.20354969483E+03  0.20354969483E+03  0.00000000000E+00 0.  1.
          2   -1    0    0  501    0  0.00000000000E+00 -0.00000000000E+00 -0.11672154165E+03  0.11672154165E+03  0.00000000000E+00 0. -1.
         25    2    1    2    0    0  0.10284395163E+03  0.23420832807E+02  0.22062042213E+02  0.16513176443E+03  0.12512534564E+03 0.  0.
          5    1    3    3  502    0  0.12411716894E+03  0.14119449679E+02 -0.99308380413E+01  0.12538151550E+03  0.41800000000E+01 0. -1.
         -5    1    3    3    0  502 -0.21273217314E+02  0.93013831274E+01  0.31992880254E+02  0.39750248929E+02  0.41800000000E+01 0. -1.
        -11    1    1    2    0    0 -0.22818706281E+02 -0.37731337453E+02  0.58977492862E+02  0.73638928880E+02  0.00000000000E+00 0.  1.
         11    1    1    2    0    0 -0.80025245350E+02  0.14310504646E+02  0.57886181014E+01  0.81500543164E+02  0.00000000000E+00 0. -1.
</event>
<event>
 7    1  0.2412631E-010  0.5018334E+03  0.7561462E-02  0.1013301E+00
          1   -1    0    0  501    0  0.00000000000E+00  0.00000000000E+00  0.15835506431E+04  0.15835506431E+04  0.00000000000E+00 0. -1.
         -1   -1    0    0    0  501 -0.00000000000E+00 -0.00000000000E+00 -0.21788187701E+03  0.21788187701E+03  0.00000000000E+00 0.  1.
         25    2    1    2    0    0 -0.44494082124E+03 -0.21807720449E+03  0.11398696856E+04  0.12491950286E+04  0.12512121235E+03 0.  0.
          5    1    3    3  502    0 -0.42082469785E+03 -0.17059960856E+03  0.96814902380E+03  0.10693585261E+04  0.41800000000E+01 0.  1.
         -5    1    3    3    0  502 -0.24116123396E+02 -0.47477595928E+02  0.17172066176E+03  0.17983650241E+03  0.41800000000E+01 0.  1.
        -11    1    1    2    0    0  0.32380952484E+03  0.14613359395E+03  0.20403717830E+03  0.40968134664E+03  0.00000000000E+00 0. -1.
         11    1    1    2    0    0  0.12113129640E+03  0.71943610538E+02  0.21761902236E+02  0.14255614492E+03  0.00000000000E+00 0.  1.
</event>
<event>
 6    1  0.2412631E-010  0.1467451E+03  0.7561462E-02  0.1204531E+00
          2   -1    0    0  501    0  0.00000000000E+00  0.00000000000E+00  0.32102706036E+03  0.32102706036E+03  0.00000000000E+00 0.  1.
         -2   -1    0    0    0  501 -0.00000000000E+00 -0.00000000000E+00 -0.12058466468E+03  0.12058466468E+03  0.00000000000E+00 0. -1.
          5    1    1    2  502    0 -0.10999947175E+03 -0.55837790222E+02  0.20281612819E+03  0.23742282294E+03  0.41800000000E+01 0.  1.
         -5    1    1    2    0  502 -0.14180413671E+02 -0.17797716387E+02 -0.17251645814E+02  0.28860605048E+02  0.41800000000E+01 0.  1.
        -11    1    1    2    0    0  0.18372109962E+02  0.64990841147E+00  0.40304356380E+02  0.44298961033E+02  0.00000000000E+00 0.  1.
         11    1    1    2    0    0  0.10580777545E+03  0.72985598197E+02 -0.25426443066E+02  0.13102933602E+03  0.00000000000E+00 0. -1.
</event>
<event>
 7    1  0.2412631E-010  0.1914173E+03  0.7561462E-02  0.1157189E+00
          2   -1    0    0  501    0  0.00000000000E+00  0.00000000000E+00  0.11010690776E+04  0.11010690776E+04  0.00000000000E+00 0. -1.
         -2   -1    0    0    0  501 -0.00000000000E+00 -0.00000000000E+00 -0.36495841912E+02  0.36495841912E+02  0.00000000000E+00 0.  1.
         25    2    1    2    0    0 -0.51790844568E+02 -0.15733030130E+03  0.47356873750E+03  0.51705302184E+03  0.12506543475E+03 0.  0.
          5    1    3    3  502    0 -0.25433537592E+02 -0.17228957420E+03  0.36818429482E+03  0.40731770102E+03  0.41800000000E+01 0. -1.
         -5    1    3    3    0  502 -0.26357306976E+02  0.14959272898E+02  0.10538444268E+03  0.10973532082E+03  0.41800000000E+01 0. -1.
        -11    1    1    2    0    0 -0.90729182827E+01  0.75541230838E+02  0.36091417511E+03  0.36884663099E+03  0.00000000000E+00 0.  1.
         11    1    1    2    0    0  0.60863762851E+02  0.81789070463E+02  0.23009032307E+03  0.25166526666E+03  0.00000000000E+00 0. -1.
</event>
<event>
 7    1  0.2412631E-010  0.8370690E+02  0.7561462E-02  0.1318849E+00
         -2   -1    0    0    0  501 -0.00000000000E+00  0.00000000000E+00  0.10992116764E+03  0.10992116764E+03  0.00000000000E+00 0. -1.
          2   -1    0    0  501    0  0.00000000000E+00 -0.00000000000E+00 -0.11612120951E+03  0.11612120951E+03  0.00000000000E+00 0.  1.
         25    2    1    2    0    0 -0.24899399342E+02  0.23332885660E+02 -0.15522603455E+01  0.12972857945E+03  0.12515067389E+03 0.  0.
          5    1    3    3  502    0  0.12603940128E+02 -0.41560843915E+02 -0.25987822604E+02  0.50783879109E+02  0.41800000000E+01 0. -1.
         -5    1    3    3    0  502 -0.37503339469E+02  0.64893729575E+02  0.24435562258E+02  0.78944700344E+02  0.41800000000E+01 0. -1.
        -11    1    1    2    0    0  0.17916065958E+02  0.57418962459E+01 -0.43437473973E+02  0.47336760948E+02  0.00000000000E+00 0.  1.
         11    1    1    2    0    0  0.69833333841E+01 -0.29074781905E+02  0.38789692450E+02  0.48977036745E+02  0.00000000000E+00 0. -1.
</event>
<event>
 7    1  0.2412631E-010  0.3140281E+03  0.7561462E-02  0.1078431E+00
          2   -1    0    0  501    0  0.00000000000E+00  0.00000000000E+00  0.12372033984E+04  0.12372033984E+04  0.00000000000E+00 0. -1.
         -2   -1    0    0    0  501 -0.00000000000E+00 -0.00000000000E+00 -0.83387262171E+02  0.83387262171E+02  0.00000000000E+00 0.  1.
         25    2    1    2    0    0 -0.26306712869E+03 -0.14258564221E+03  0.50582809789E+03  0.60087805105E+03  0.12512948515E+03 0.  0.
          5    1    3    3  502    0 -0.19849886179E+03 -0.39258611647E+02  0.31152366918E+03  0.37149361445E+03  0.41800000000E+01 0. -1.
         -5    1    3    3    0  502 -0.64568266902E+02 -0.10332703056E+03  0.19430442871E+03  0.22938443659E+03  0.41800000000E+01 0. -1.
        -11    1    1    2    0    0  0.15159987924E+03  0.52490199739E+02  0.42875422467E+03  0.45778589933E+03  0.00000000000E+00 0. -1.
         11    1    1    2    0    0  0.11146724945E+03  0.90095442467E+02  0.21923381363E+03  0.26192671016E+03  0.00000000000E+00 0.  1.
</event>
<event>
 7    1  0.2412631E-010  0.1766476E+03  0.7561462E-02  0.1171088E+00
         -1   -1    0    0    0  501 -0.00000000000E+00  0.00000000000E+00  0.36785783292E+03  0.36785783292E+03  0.00000000000E+00 0.  1.
          1   -1    0    0  501    0  0.00000000000E+00 -0.00000000000E+00 -0.10644877356E+03  0.10644877356E+03  0.00000000000E+00 0. -1.
         25    2    1    2    0    0  0.27124819572E+02  0.10833067260E+03  0.20094541173E+02  0.16892045047E+03  0.12513607609E+03 0.  0.
          5    1    3    3  502    0 -0.47479443074E+02  0.65208326577E+02  0.17305253681E+02  0.82603677730E+02  0.41800000000E+01 0. -1.
         -5    1    3    3    0  502  0.74604262645E+02  0.43122346025E+02  0.27892874917E+01  0.86316772740E+02  0.41800000000E+01 0. -1.
        -11    1    1    2    0    0  0.55729330668E+02 -0.82669125010E+01  0.59665028202E+02  0.82061048795E+02  0.00000000000E+00 0. -1.
         11    1    1    2    0    0 -0.82854150239E+02 -0.10006376010E+03  0.18164948999E+03  0.22332510721E+03  0.00000000000E+00 0.  1.
</event>
<event>
 7    1  0.2412631E-010  0.1101360E+03  0.7561462E-02  0.1260318E+00
          2   -1    0    0  501    0  0.00000000000E+00  0.00000000000E+00  0.80159022696E+03  0.80159022696E+03  0.00000000000E+00 0. -1.
         -2   -1    0    0    0  501 -0.00000000000E+00 -0.00000000000E+00 -0.24283036651E+02  0.24283036651E+02  0.00000000000E+00 0.  1.
         25    2    1    2    0    0 -0.51027464004E+02 -0.65590766967E+02  0.50194119031E+03  0.52393178241E+03  0.12511436086E+03 0.  0.
          5    1    3    3  502    0 -0.25015876241E+02  0.25767907865E+01  0.11313244238E+02  0.27890783604E+02  0.41800000000E+01 0.  1.
         -5    1    3    3    0  502 -0.26011587763E+02 -0.68167557754E+02  0.49062794607E+03  0.49604099881E+03  0.41800000000E+01 0.  1.
        -11    1    1    2    0    0  0.60278117519E+02  0.82647237801E+02  0.24909933474E+03  0.26928515729E+03  0.00000000000E+00 0.  1.
         11    1    1    2    0    0 -0.92506535153E+01 -0.17056470834E+02  0.26266665260E+02  0.32656323915E+02  0.00000000000E+00 0. -1.
</event>
<event>
 7    1  0.2412631E-010  0.3648434E+03  0.7561462E-02  0.1056682E+00
          2   -1    0    0  501    0  0.00000000000E+00  0.00000000000E+00  0.71727150020E+03  0.71727150020E+03  0.00000000000E+00 0.  1.
         -2   -1    0    0    0  501 -0.00000000000E+00 -0.00000000000E+00 -0.19676654110E+03  0.19676654110E+03  0.00000000000E+00 0. -1.
         25    2    1    2    0    0 -0.35119010281E+03  0.75880214519E+02  0.26887166229E+03  0.46587840093E+03  0.12513360221E+03 0.  0.
          5    1    3    3  502    0 -0.23403748702E+03  0.29038337337E+02  0.10286190852E+03  0.25732239505E+03  0.41800000000E+01 0.  1.
         -5    1    3    3    0  502 -0.11715261579E+03  0.46841877182E+02  0.16600975377E+03  0.20855600588E+03  0.41800000000E+01 0.  1.
        -11    1    1    2    0    0  0.32655572885E+02  0.15568198340E+02  0.85729577664E+01  0.37178634252E+02  0.00000000000E+00 0.  1.
         11    1    1    2    0    0  0.31853452992E+03 -0.91448412859E+02  0.24306033904E+03  0.41098100611E+03  0.00000000000E+00 0. -1.
</event>
<event>
 6    1  0.2412631E-010  0.1006951E+03  0.7561462E-02  0.1278841E+00
         -1   -1    0    0    0  501 -0.00000000000E+00  0.00000000000E+00  0.17081295976E+03  0.17081295976E+03  0.00000000000E+00 0.  1.
          1   -1    0    0  501    0  0.00000000000E+00 -0.00000000000E+00 -0.91582724364E+02  0.91582724364E+02  0.00000000000E+00 0. -1.
          5    1    1    2  502    0  0.18250855652E+02  0.37223894963E+02 -0.24903901701E+02  0.48542649373E+02  0.41800000000E+01 0.  1.
         -5    1    1    2    0  502 -0.79172871902E+02 -0.31878023499E+02  0.30530202900E+02  0.90742039412E+02  0.41800000000E+01 0.  1.
        -11    1    1    2    0    0  0.47060744822E+02 -0.22544240084E+02  0.83850175780E+02  0.98761371206E+02  0.00000000000E+00 0.  1.
         11    1    1    2    0    0  0.13861271429E+02  0.17198368620E+02 -0.10246241584E+02  0.24349624133E+02  0.00000000000E+00 0. -1.
</event>
<event>
 7    1  0.2412631E-010  0.9649158E+02  0.7561462E-02  0.1287852E+00
          2   -1    0    0  501    0  0.00000000000E+00  0.00000000000E+00  0.55083973011E+03  0.55083973011E+03  0.00000000000E+00 0. -1.
         -2   -1    0    0    0  501 -0.00000000000E+00 -0.00000000000E+00 -0.21775503466E+02  0.21775503466E+02  0.00000000000E+00 0.  1.
         25    2    1    2    0    0 -0.36671998886E+01  0.18233381344E+02  0.34768647373E+03  0.36999093005E+03  0.12514591385E+03 0.  0.
          5    1    3    3  502    0 -0.63821534812E+02  0.79177593803E+01  0.15630546310E+03  0.16907024994E+03  0.41800000000E+01 0. -1.
         -5    1    3    3    0  502  0.60154334924E+02  0.10315621964E+02  0.19138101064E+03  0.20092068012E+03  0.41800000000E+01 0. -1.
        -11    1    1    2    0    0  0.14508060180E+02 -0.40269306522E+02  0.38245492835E+02  0.57400510277E+02  0.00000000000E+00 0.  1.
         11    1    1    2    0    0 -0.10840860291E+02  0.22035925177E+02  0.14313226007E+03  0.14522379324E+03  0.00000000000E+00 0. -1.
</event>
<event>
 7    1  0.2412631E-010  0.9357313E+02  0.7561462E-02  0.1294422E+00
          3   -1    0    0  501    0  0.00000000000E+00  0.00000000000E+00  0.53449551072E+02  0.53449551072E+02  0.00000000000E+00 0. -1.
         -3   -1    0    0    0  501 -0.00000000000E+00 -0.00000000000E+00 -0.34476077542E+03  0.34476077542E+03  0.00000000000E+00 0.  1.
         25    2    1    2    0    0  0.62434220518E+02 -0.47662462612E+02 -0.18369955234E+03  0.23570259314E+03  0.12506176335E+03 0.  0.
          5    1    3    3  502    0  0.37274815373E+02 -0.58667939135E+02 -0.19396767844E+03  0.20608801912E+03  0.41800000000E+01 0.  1.
         -5    1    3    3    0  502  0.25159405145E+02  0.11005476523E+02  0.10268126108E+02  0.29614574022E+02  0.41800000000E+01 0.  1.
        -11    1    1    2    0    0 -0.37354579511E+02  0.52260182876E+02 -0.14346930551E+02  0.65820405202E+02  0.00000000000E+00 0. -1.
         11    1    1    2    0    0 -0.25079641007E+02 -0.45977202640E+01 -0.93264741459E+02  0.96687328146E+02  0.00000000000E+00 0.  1.
</event>
<event>
 7    1  0.2412631E-010  0.9916606E+02  0.7561462E-02  0.1282059E+00
         -2   -1    0    0    0  501 -0.00000000000E+00  0.00000000000E+00  0.58940477921E+02  0.58940477921E+02  0.00000000000E+00 0.  1.
          2   -1    0    0  501    0  0.00000000000E+00 -0.00000000000E+00 -0.32351350471E+03  0.32351350471E+03  0.00000000000E+00 0. -1.
         25    2    1    2    0    0  0.60000217651E+02  0.10628404166E+02 -0.23159436818E+03  0.27016909543E+03  0.12506957927E+03 0.  0.
          5    1    3    3  502    0 -0.27498786660E+02  0.36524082071E+02 -0.99339224947E+02  0.10943466476E+03  0.41800000000E+01 0.  1.
         -5    1    3    3    0  502  0.87499004311E+02 -0.25895677905E+02 -0.13225514323E+03  0.16073443067E+03  0.41800000000E+01 0.  1.
        -11    1    1    2    0    0 -0.46752648447E+02 -0.65105875012E+01 -0.63287185838E+02  0.78952300649E+02  0.00000000000E+00 0. -1.
         11    1    1    2    0    0 -0.13247569204E+02 -0.41178166647E+01  0.30308527226E+02  0.33332586556E+02  0.00000000000E+00 0.  1.
</event>
<event>
 7    1  0.2412631E-010  0.7622163E+02  0.7561462E-02  0.1340129E+00
          2   -1    0    0  501    0  0.00000000000E+00  0.00000000000E+00  0.25436109750E+02  0.25436109750E+02  0.00000000000E+00 0. -1.
         -2   -1    0    0    0  501 -0.00000000000E+00 -0.00000000000E+00 -0.55298019777E+03  0.55298019777E+03  0.00000000000E+00 0.  1.
         25    2    1    2    0    0  0.43164581147E+02  0.78000064454E+01 -0.33644450916E+03  0.36160762057E+03  0.12506455272E+03 0.  0.
          5    1    3    3  502    0  0.39735233499E+02 -0.12973920600E+02 -0.23908475266E+02  0.48335276833E+02  0.41800000000E+01 0. -1.
         -5    1    3    3    0  502  0.34293476485E+01  0.20773927046E+02 -0.31253603389E+03  0.31327234374E+03  0.41800000000E+01 0. -1.
        -11    1    1    2    0    0 -0.53559827213E+02  0.21625912740E+02 -0.65230273486E+02  0.87128203080E+02  0.00000000000E+00 0. -1.
         11    1    1    2    0    0  0.10395246066E+02 -0.29425919185E+02 -0.12586930538E+03  0.12968048388E+03  0.00000000000E+00 0.  1.
</event>
<event>
 6    1  0.2412631E-010  0.7161199E+02  0.7561462E-02  0.1354696E+00
          2   -1    0    0  501    0  0.00000000000E+00  0.00000000000E+00  0.74100679083E+02  0.74100679083E+02  0.00000000000E+00 0. -1.
         -2   -1    0    0    0  501 -0.00000000000E+00 -0.00000000000E+00 -0.20702892484E+03  0.20702892484E+03  0.00000000000E+00 0.  1.
          5    1    1    2  502    0  0.14822222776E+02 -0.96648577799E+00 -0.84981004511E+02  0.86370573174E+02  0.41800000000E+01 0.  1.
         -5    1    1    2    0  502 -0.17105383651E+02 -0.59726239232E+02  0.22475602425E+02  0.66200021956E+02  0.41800000000E+01 0.  1.
        -11    1    1    2    0    0 -0.88410478048E+01  0.47281933561E+02  0.75258916367E+01  0.48686593766E+02  0.00000000000E+00 0. -1.
         11    1    1    2    0    0  0.11124208680E+02  0.13410791449E+02 -0.77948735312E+02  0.79872415030E+02  0.00000000000E+00 0.  1.
</event>
<event>
 7    1  0.2412631E-010  0.2084855E+03  0.7561462E-02  0.1142771E+00
          3   -1    0    0  501    0  0.00000000000E+00  0.00000000000E+00  0.94456819192E+03  0.94456819192E+03  0.00000000000E+00 0. -1.
         -3   -1    0    0    0  501 -0.00000000000E+00 -0.00000000000E+00 -0.56833057977E+02  0.56833057977E+02  0.00000000000E+00 0.  1.
         25    2    1    2    0    0 -0.50790579327E+02  0.19651859470E+03  0.51145719210E+03  0.56429380517E+03  0.12505917878E+03 0.  0.
          5    1    3    3  502    0 -0.49313882351E+02  0.19934441689E+03  0.37361674748E+03  0.42635314229E+03  0.41800000000E+01 0. -1.
         -5    1    3    3    0  502 -0.14766969759E+01 -0.28258221978E+01  0.13784044462E+03  0.13794066289E+03  0.41800000000E+01 0. -1.
        -11    1    1    2    0    0  0.11722174406E+02 -0.11835567943E+03  0.29374654428E+03  0.31691088417E+03  0.00000000000E+00 0. -1.
         11    1    1    2    0    0  0.39068404921E+02 -0.78162915263E+02  0.82531397559E+02  0.12019656055E+03  0.00000000000E+00 0.  1.
</event>
<event>
 7    1  0.2412631E-010  0.1374841E+03  0.7561462E-02  0.1216755E+00
         -1   -1    0    0    0  501 -0.00000000000E+00  0.00000000000E+00  0.15649158768E+03  0.15649158768E+03  0.00000000000E+00 0.  1.
          1   -1    0    0  501    0  0.00000000000E+00 -0.00000000000E+00 -0.27251200716E+03  0.27251200716E+03  0.00000000000E+00 0. -1.
         25    2    1    2    0    0  0.40604627283E+02  0.11954151984E+03 -0.18929202802E+03  0.25966821109E+03  0.12512872275E+03 0.  0.
          5    1    3    3  502    0 -0.22357177303E+02  0.31173974189E+02 -0.13071421127E+03  0.13629136976E+03  0.41800000000E+01 0. -1.
         -5    1    3    3    0  502  0.62961804586E+02  0.88367545649E+02 -0.58577816747E+02  0.12337684133E+03  0.41800000000E+01 0. -1.
        -11    1    1    2    0    0 -0.39697104285E+02 -0.91518745268E+02  0.10156659365E+02  0.10027311980E+03  0.00000000000E+00 0. -1.
         11    1    1    2    0    0 -0.90752299741E+00 -0.28022774570E+02  0.63114949172E+02  0.69062263948E+02  0.00000000000E+00 0.  1.
</event>
<event>
 7    1  0.2412631E-010  0.5236179E+02  0.7561462E-02  0.1433004E+00
          1   -1    0    0  501    0  0.00000000000E+00  0.00000000000E+00  0.10941878336E+04  0.10941878336E+04  0.00000000000E+00 0. -1.
         -1   -1    0    0    0  501 -0.00000000000E+00 -0.00000000000E+00 -0.10551181800E+02  0.10551181800E+02  0.00000000000E+00 0.  1.
         25    2    1    2    0    0  0.30504362056E+01  0.40718219815E+02  0.91279117997E+03  0.92223040574E+03  0.12511556442E+03 0.  0.
          5    1    3    3  502    0  0.10396267349E+02 -0.61886695371E+01  0.59124325567E+01  0.14100044829E+02  0.41800000000E+01 0. -1.
         -5    1    3    3    0  502 -0.73458311435E+01  0.46906889352E+02  0.90687874741E+03  0.90813036091E+03  0.41800000000E+01 0. -1.
        -11    1    1    2    0    0  0.63681827883E+01 -0.80636783483E+01  0.22457144069E+01  0.10517599238E+02  0.00000000000E+00 0.  1.
         11    1    1    2    0    0 -0.94186189938E+01 -0.32654541467E+02  0.16859975742E+03  0.17199101041E+03  0.00000000000E+00 0. -1.
</event>
<event>
 6    1  0.2412631E-010  0.1281754E+03  0.7561462E-02  0.1230189E+00
         -2   -1    0    0    0  501 -0.00000000000E+00  0.00000000000E+00  0.48983922804E+02  0.48983922804E+02  0.00000000000E+00 0. -1.
          2   -1    0    0  501    0  0.00000000000E+00 -0.00000000000E+00 -0.44654762043E+03  0.44654762043E+03  0.00000000000E+00 0.  1.
          5    1    1    2  502    0 -0.49832303694E+02  0.26772673085E+02 -0.15494467998E+02  0.58801236841E+02  0.41800000000E+01 0. -1.
         -5    1    1    2    0  502  0.43322432174E+02  0.68129232473E+02 -0.14435505398E+03  0.16545174358E+03  0.41800000000E+01 0. -1.
        -11    1    1    2    0    0  0.26902219747E+02 -0.94639346264E+02 -0.22872970132E+03  0.24899319580E+03  0.00000000000E+00 0.  1.
         11    1    1    2    0    0 -0.20392348227E+02 -0.26255929389E+00 -0.89844743280E+01  0.22285367005E+02  0.00000000000E+00 0. -1.
</event>
<event>
 7    1  0.2412631E-010  0.8385729E+02  0.7561462E-02  0.1318448E+00
         -3   -1    0    0    0  501 -0.00000000000E+00  0.00000000000E+00  0.88322923289E+02  0.88322923289E+02  0.00000000000E+00 0.  1.
          3   -1    0    0  501    0  0.00000000000E+00 -0.00000000000E+00 -0.13866048273E+03  0.13866048273E+03  0.00000000000E+00 0. -1.
         25    2    1    2    0    0  0.16208791324E+02 -0.10340604866E+02 -0.40497571471E+02  0.13282329555E+03  0.12502928265E+03 0.  0.
          5    1    3    3  502    0 -0.30582878071E+02  0.33196701883E+02  0.15335851618E+02  0.47853883770E+02  0.41800000000E+01 0. -1.
         -5    1    3    3    0  502  0.46791669396E+02 -0.43537306749E+02 -0.55833423089E+02  0.84969411776E+02  0.41800000000E+01 0. -1.
        -11    1    1    2    0    0 -0.32593963980E+02 -0.81814096308E+01  0.31453223594E+02  0.46028330688E+02  0.00000000000E+00 0.  1.
         11    1    1    2    0    0  0.16385172655E+02  0.18522014497E+02 -0.41293211564E+02  0.48131779785E+02  0.00000000000E+00 0. -1.
</event>
<event>
 6    1  0.2412631E-010  0.1399591E+03  0.7561462E-02  0.1213384E+00
         -3   -1    0    0    0  501 -0.00000000000E+00  0.00000000000E+00  0.49291953463E+03  0.49291953463E+03  0.00000000000E+00 0.  1.
          3   -1    0    0  501    0  0.00000000000E+00 -0.00000000000E+00 -0.60615237791E+02  0.60615237791E+02  0.00000000000E+00 0. -1.
          5    1    1    2  502    0 -0.55489708185E+02 -0.11570543939E+03  0.20575122877E+03  0.24252401316E+03  0.41800000000E+01 0. -1.
         -5    1    1    2    0  502  0.32857045709E+02  0.14922385163E+01  0.13108586091E+03  0.13521385860E+03  0.41800000000E+01 0. -1.
        -11    1    1    2    0    0  0.26645103275E+02  0.91261934016E+02  0.11223604394E+03  0.14709055608E+03  0.00000000000E+00 0.  1.
         11    1    1    2    0    0 -0.40124407987E+01  0.22951266857E+02 -0.16768836784E+02  0.28706344570E+02  0.00000000000E+00 0. -1.
</event>
<event>
 6    1  0.2412631E-010  0.7348031E+02  0.7561462E-02  0.1348643E+00
         -2   -1    0    0    0  501 -0.00000000000E+00  0.00000000000E+00  0.14743045904E+03  0.14743045904E+03  0.00000000000E+00 0.  1.
          2   -1    0    0  501    0  0.00000000000E+00 -0.00000000000E+00 -0.10740172122E+03  0.10740172122E+03  0.00000000000E+00 0. -1.
          5    1    1    2  502    0  0.51159114368E+02 -0.29993306140E+02 -0.57115318367E+02  0.82440799295E+02  0.41800000000E+01 0. -1.
         -5    1    1    2    0  502 -0.35183337174E+02 -0.15776794746E+02  0.36232092057E+02  0.53075525075E+02  0.41800000000E+01 0. -1.
        -11    1    1    2    0    0 -0.59863147067E+01  0.10700244109E+02 -0.23974954628E+02  0.26928231230E+02  0.00000000000E+00 0. -1.
         11    1    1    2    0    0 -0.99894624880E+01  0.35069856778E+02  0.84886918750E+02  0.92387624659E+02  0.00000000000E+00 0.  1.
</event>
<event>
 6    1  0.2412631E-010  0.1277571E+03  0.7561462E-02  0.1230822E+00
          2   -1    0    0  501    0  0.00000000000E+00  0.00000000000E+00  0.85700214960E+03  0.85700214960E+03  0.00000000000E+00 0. -1.
         -2   -1    0    0    0  501 -0.00000000000E+00 -0.00000000000E+00 -0.26385385615E+02  0.26385385615E+02  0.00000000000E+00 0.  1.
          5    1    1    2  502    0  0.32863161952E+01  0.92256661652E+01 -0.17212205549E+01  0.10786463300E+02  0.41800000000E+01 0.  1.
         -5    1    1    2    0  502 -0.17204274306E+00 -0.11000736839E+03  0.53402647441E+03  0.54525535162E+03  0.41800000000E+01 0.  1.
        -11    1    1    2    0    0  0.34244046133E+02  0.89386512763E+02  0.21157890963E+03  0.23222454297E+03  0.00000000000E+00 0.  1.
         11    1    1    2    0    0 -0.37358319585E+02  0.11395189464E+02  0.86732600495E+02  0.95121177315E+02  0.00000000000E+00 0. -1.
</event>
<event>
 6    1  0.2412631E-010  0.1473885E+03  0.7561462E-02  0.1203719E+00
         -1   -1    0    0    0  501 -0.00000000000E+00  0.00000000000E+00  0.18679102060E+03  0.18679102060E+03  0.00000000000E+00 0.  1.
          1   -1    0    0  501    0  0.00000000000E+00 -0.00000000000E+00 -0.22228202441E+03  0.22228202441E+03  0.00000000000E+00 0. -1.
          5    1    1    2  502    0  0.13978733973E+02 -0.11194187043E+02  0.21968384312E+02  0.28649557349E+02  0.41800000000E+01 0. -1.
         -5    1    1    2    0  502  0.11292136219E+03  0.50712718740E+02 -0.14916535875E+03  0.19388344574E+03  0.41800000000E+01 0. -1.
        -11    1    1    2    0    0 -0.32457559652E+02 -0.47742244621E+02  0.47938423704E+01  0.57929232903E+02  0.00000000000E+00 0.  1.
         11    1    1    2    0    0 -0.94442536508E+02  0.82237129245E+01  0.86912128268E+02  0.12861080902E+03  0.00000000000E+00 0. -1.
</event>
<event>
 7    1  0.2412631E-010  0.2149846E+03  0.7561462E-02  0.1137678E+00
          2   -1    0    0  501    0  0.00000000000E+00  0.00000000000E+00  0.11095816992E+04  0.11095816992E+04  0.00000000000E+00 0.  1.
         -2   -1    0    0    0  501 -0.00000000000E+00 -0.00000000000E+00 -0.53737321444E+02  0.53737321444E+02  0.00000000000E+00 0. -1.
         25    2    1    2    0    0  0.14386780466E+03  0.14961892206E+03  0.34431334523E+03  0.42104322795E+03  0.12506779379E+03 0.  0.
          5    1    3    3  502    0  0.11927904795E+02  0.62824002047E+02  0.18872275227E+03  0.19930599532E+03  0.41800000000E+01 0.  1.
         -5    1    3    3    0  502  0.13193989987E+03  0.86794920009E+02  0.15559059296E+03  0.22173723263E+03  0.41800000000E+01 0.  1.
        -11    1    1    2    0    0 -0.24909753223E+02 -0.32688424999E+02  0.93564625316E+02  0.10219279840E+03  0.00000000000E+00 0.  1.
         11    1    1    2    0    0 -0.11895805144E+03 -0.11693049706E+03  0.61796640723E+03  0.64008299431E+03  0.00000000000E+00 0. -1.
</event>
<event>
 6    1  0.2412631E-010  0.1097785E+03  0.7561462E-02  0.1260981E+00
          2   -1    0    0  501    0  0.00000000000E+00  0.00000000000E+00  0.41674418979E+03  0.41674418979E+03  0.00000000000E+00 0. -1.
         -2   -1    0    0    0  501 -0.00000000000E+00 -0.00000000000E+00 -0.41022347323E+02  0.41022347323E+02  0.00000000000E+00 0.  1.
          5    1    1    2  502    0 -0.61366449913E+02 -0.17207448035E+02  0.23888358064E+03  0.24727469531E+03  0.41800000000E+01 0.  1.
         -5    1    1    2    0  502  0.32953341957E+02 -0.24004245638E+02  0.22321779912E+02  0.46667556324E+02  0.41800000000E+01 0.  1.
        -11    1    1    2    0    0 -0.28451895538E+02 -0.17148740936E+02  0.18986117663E+02  0.38263067562E+02  0.00000000000E+00 0.  1.
         11    1    1    2    0    0  0.56865003493E+02  0.58360434609E+02  0.95530364259E+02  0.12556121792E+03  0.00000000000E+00 0. -1.
</event>
<event>
 7    1  0.2412631E-010  0.1751265E+03  0.7561462E-02  0.1172605E+00
          1   -1    0    0  501    0  0.00000000000E+00  0.00000000000E+00  0.12379237748E+03  0.12379237748E+03  0.00000000000E+00 0. -1.
         -1   -1    0    0    0  501 -0.00000000000E+00 -0.00000000000E+00 -0.29887141700E+03  0.29887141700E+03  0.00000000000E+00 0.  1.
         25    2    1    2    0    0 -0.73631693217E+02  0.12117795310E+03 -0.15252635503E+02  0.18966392466E+03  0.12503615024E+03 0.  0.
          5    1    3    3  502    0 -0.13443934497E+02  0.12577933377E+03 -0.23079334748E+02  0.12865188794E+03  0.41800000000E+01 0. -1.
         -5    1    3    3    0  502 -0.60187758720E+02 -0.46013806756E+01  0.78266992454E+01  0.61012036721E+02  0.41800000000E+01 0. -1.
        -11    1    1    2    0    0  0.70601000341E+02 -0.38441122370E+02 -0.11043287957E+03  0.13659297943E+03  0.00000000000E+00 0.  1.
         11    1    1    2    0    0  0.30306928759E+01 -0.82736830725E+02 -0.49393524447E+02  0.96406890392E+02  0.00000000000E+00 0. -1.
</event>
<event>
 7    1  0.2412631E-010  0.1008745E+03  0.7561462E-02  0.1278468E+00
          1   -1    0    0  501    0  0.00000000000E+00  0.00000000000E+00  0.43198084764E+03  0.43198084764E+03  0.00000000000E+00 0. -1.
         -1   -1    0    0    0  501 -0.00000000000E+00 -0.00000000000E+00 -0.34960793630E+02  0.34960793630E+02  0.00000000000E+00 0.  1.
         25    2    1    2    0    0 -0.39051832149E+02 -0.30949223946E+01  0.18884509866E+03  0.22990395968E+03  0.12513486823E+03 0.  0.
          5    1    3    3  502    0 -0.62300114721E+02 -0.44538528074E+02  0.14966932326E+03  0.16817658429E+03  0.41800000000E+01 0.  1.
         -5    1    3    3    0  502  0.23248282572E+02  0.41443605679E+02  0.39175775398E+02  0.61727375388E+02  0.41800000000E+01 0.  1.
        -11    1    1    2    0    0  0.39466475510E+02 -0.26637110265E+02  0.20084605787E+03  0.20641288064E+03  0.00000000000E+00 0. -1.
         11    1    1    2    0    0 -0.41464336085E+00  0.29732032659E+02  0.73288974805E+01  0.30624800954E+02  0.00000000000E+00 0.  1.
</event>
<event>
 7    1  0.2412631E-010  0.1565279E+03  0.7561462E-02  0.1192673E+00
         -1   -1    0    0    0  501 -0.00000000000E+00  0.00000000000E+00  0.96006301835E+03  0.96006301835E+03  0.00000000000E+00 0.  1.
          1   -1    0    0  501    0  0.00000000000E+00 -0.00000000000E+00 -0.41637177825E+02  0.41637177825E+02  0.00000000000E+00 0. -1.
         25    2    1    2    0    0  0.98335412363E+02  0.11385186964E+03  0.66717861347E+03  0.69527845460E+03  0.12511085329E+03 0.  0.
          5    1    3    3  502    0  0.54375608833E+02  0.95003727104E+02  0.61373931606E+03  0.62343871830E+03  0.41800000000E+01 0.  1.
         -5    1    3    3    0  502  0.43959803531E+02  0.18848142539E+02  0.53439297416E+02  0.71839736302E+02  0.41800000000E+01 0.  1.
        -11    1    1    2    0    0 -0.78285104711E+02 -0.61861697080E+02  0.22221963975E+03  0.24359186250E+03  0.00000000000E+00 0.  1.
         11    1    1    2    0    0 -0.20050307652E+02 -0.51990172563E+02  0.29027587302E+02  0.62829879076E+02  0.00000000000E+00 0. -1.
</event>
<event>
 6    1  0.2412631E-010  0.9250922E+02  0.7561462E-02  0.1296887E+00
         -3   -1    0    0    0  501 -0.00000000000E+00  0.00000000000E+00  0.71396769415E+02  0.71396769415E+02  0.00000000000E+00 0.  1.
          3   -1    0    0  501    0  0.00000000000E+00 -0.00000000000E+00 -0.24354685055E+03  0.24354685055E+03  0.00000000000E+00 0. -1.
          5    1    1    2  502    0 -0.47556578629E+02 -0.48993284471E+02  0.16935925840E+02  0.70471753761E+02  0.41800000000E+01 0. -1.
         -5    1    1    2    0  502 -0.65509864200E+01  0.40523594419E+02 -0.58082493446E+02  0.71246933777E+02  0.41800000000E+01 0. -1.
        -11    1    1    2    0    0  0.21562404828E+02  0.29545243609E+02  0.28375860276E-01  0.36576762119E+02  0.00000000000E+00 0.  1.
         11    1    1    2    0    0  0.32545160221E+02 -0.21075553558E+02 -0.13103188939E+03  0.13664817031E+03  0.00000000000E+00 0. -1.
</event>
<event>
 7    1  0.2412631E-010  0.1310692E+03  0.7561462E-02  0.1225878E+00
          2   -1    0    0  501    0  0.00000000000E+00  0.00000000000E+00  0.26415528965E+03  0.26415528965E+03  0.00000000000E+00 0. -1.
         -2   -1    0    0    0  501 -0.00000000000E+00 -0.00000000000E+00 -0.13639043989E+03  0.13639043989E+03  0.00000000000E+00 0.  1.
         25    2    1    2    0    0  0.11969083215E+02 -0.10764882179E+03 -0.50141035766E+02  0.17288016108E+03  0.12506757711E+03 0.  0.
          5    1    3    3  502    0 -0.32146584073E+02 -0.70076627911E+02  0.21970681795E+02  0.80276521508E+02  0.41800000000E+01 0.  1.
         -5    1    3    3    0  502  0.44115667288E+02 -0.37572193880E+02 -0.72111717561E+02  0.92603639576E+02  0.41800000000E+01 0.  1.
        -11    1    1    2    0    0 -0.39513092268E+02  0.62633312154E+02  0.50149027684E+02  0.89437918299E+02  0.00000000000E+00 0.  1.
         11    1    1    2    0    0  0.27544009052E+02  0.45015509637E+02  0.12775685784E+03  0.13822765016E+03  0.00000000000E+00 0. -1.
</event>
<event>
 7    1  0.2412631E-010  0.9183694E+02  0.7561462E-02  0.1298463E+00
          1   -1    0    0  501    0  0.00000000000E+00  0.00000000000E+00  0.15690119036E+03  0.15690119036E+03  0.00000000000E+00 0. -1.
         -1   -1    0    0    0  501 -0.00000000000E+00 -0.00000000000E+00 -0.10381556213E+03  0.10381556213E+03  0.00000000000E+00 0.  1.
         25    2    1    2    0    0  0.29859057974E+02 -0.19339948254E+02 -0.28309910555E+02  0.13313584771E+03  0.12513235380E+03 0.  0.
          5    1    3    3  502    0  0.10006269385E+02  0.39359487084E+02 -0.52481622463E+02  0.66491260680E+02  0.41800000000E+01 0. -1.
         -5    1    3    3    0  502  0.19852788590E+02 -0.58699435338E+02  0.24171711908E+02  0.66644587029E+02  0.41800000000E+01 0. -1.
        -11    1    1    2    0    0 -0.34800402070E+02  0.43712090251E+02  0.85737803049E+02  0.10233662927E+03  0.00000000000E+00 0. -1.
         11    1    1    2    0    0  0.49413440952E+01 -0.24372141998E+02 -0.43422642627E+01  0.25244275509E+02  0.00000000000E+00 0.  1.
</event>
<event>
 6    1  0.2412631E-010  0.1390567E+03  0.7561462E-02  0.1214604E+00
         -3   -1    0    0    0  501 -0.00000000000E+00  0.00000000000E+00  0.62332880580E+02  0.62332880580E+02  0.00000000000E+00 0.  1.
          3   -1    0    0  501    0  0.00000000000E+00 -0.00000000000E+00 -0.32375192083E+03  0.32375192083E+03  0.00000000000E+00 0. -1.
          5    1    1    2  502    0 -0.10651276162E+03 -0.56938314550E+02 -0.11320053875E+03  0.16558615408E+03  0.41800000000E+01 0. -1.
         -5    1    1    2    0  502  0.34447372807E+02 -0.19724576271E+01 -0.22757371925E+02  0.41543741518E+02  0.41800000000E+01 0. -1.
        -11    1    1    2    0    0  0.94930557064E+01 -0.19799158338E+02 -0.59071497132E+01  0.22738056101E+02  0.00000000000E+00 0.  1.
         11    1    1    2    0    0  0.62572333103E+02  0.78709930514E+02 -0.11955397986E+03  0.15621684971E+03  0.00000000000E+00 0. -1.
</event>
<event>
 7    1  0.2412631E-010  0.1012742E+03  0.7561462E-02  0.1277639E+00
         -1   -1    0    0    0  501 -0.00000000000E+00  0.00000000000E+00  0.11672598008E+03  0.11672598008E+03  0.00000000000E+00 0.  1.
          1   -1    0    0  501    0  0.00000000000E+00 -0.00000000000E+00 -0.20278325565E+03  0.20278325565E+03  0.00000000000E+00 0. -1.
         25    2    1    2    0    0  0.80836509724E+02 -0.32941949480E+02 -0.11531693326E+03  0.19118990059E+03  0.12504347105E+03 0.  0.
          5    1    3    3  502    0  0.86528436836E+02 -0.27318773329E+02 -0.13888519227E+03  0.16595196531E+03  0.41800000000E+01 0.  1.
         -5    1    3    3    0  502 -0.56919271129E+01 -0.56231761507E+01  0.23568259014E+02  0.25237935281E+02  0.41800000000E+01 0.  1.
        -11    1    1    2    0    0  0.73093207961E+01  0.85082386440E+01  0.34917489886E+02  0.36674887802E+02  0.00000000000E+00 0.  1.
         11    1    1    2    0    0 -0.88145830520E+02  0.24433710836E+02 -0.56578321935E+01  0.91644447341E+02  0.00000000000E+00 0. -1.
</event>
<event>
 7    1  0.2412631E-010  0.1898901E+03  0.7561462E-02  0.1158560E+00
         -3   -1    0    0    0  501 -0.00000000000E+00  0.00000000000E+00  0.32445997214E+03  0.32445997214E+03  0.00000000000E+00 0.  1.
          3   -1    0    0  501    0  0.00000000000E+00 -0.00000000000E+00 -0.12671931279E+03  0.12671931279E+03  0.00000000000E+00 0. -1.
         25    2    1    2    0    0  0.15911130996E+03  0.44091520509E+02  0.58145094968E+02  0.21512351566E+03  0.12504720623E+03 0.  0.
          5    1    3    3  502    0  0.38662757605E+02 -0.41666340714E+02  0.23838822499E+01  0.57044264117E+02  0.41800000000E+01 0.  1.
         -5    1    3    3    0  502  0.12044855235E+03  0.85757861223E+02  0.55761212718E+02  0.15807925155E+03  0.41800000000E+01 0.  1.
        -11    1    1    2    0    0 -0.16937240061E+02 -0.26720692573E+02 -0.55708326508E+01  0.32123195496E+02  0.00000000000E+00 0. -1.
         11    1    1    2    0    0 -0.14217406990E+03 -0.17370827936E+02  0.14516639703E+03  0.20393257376E+03  0.00000000000E+00 0.  1.
</event>
<event>
 7    1  0.2412631E-010  0.1027287E+03  0.7561462E-02  0.1274660E+00
          1   -1    0    0  501    0  0.00000000000E+00  0.00000000000E+00  0.38347238666E+03  0.38347238666E+03  0.00000000000E+00 0. -1.
         -1   -1    0    0    0  501 -0.00000000000E+00 -0.00000000000E+00 -0.42052696529E+02  0.42052696529E+02  0.00000000000E+00 0.  1.
         25    2    1    2    0    0  0.22831420753E+02  0.26878787873E+02  0.30596491094E+03  0.33243199768E+03  0.12511100410E+03 0.  0.
          5    1    3    3  502    0  0.22984916700E+02 -0.43234650922E+02  0.65292370316E+02  0.81719688310E+02  0.41800000000E+01 0.  1.
         -5    1    3    3    0  502 -0.15349594668E+00  0.70113438795E+02  0.24067254062E+03  0.25071230937E+03  0.41800000000E+01 0.  1.
        -11    1    1    2    0    0 -0.56544432755E+01 -0.53825005716E+02  0.22125750260E+02  0.58469246563E+02  0.00000000000E+00 0.  1.
         11    1    1    2    0    0 -0.17176977477E+02  0.26946217843E+02  0.13329028939E+02  0.34623838952E+02  0.00000000000E+00 0. -1.
</event>
<event>
 7    1  0.2412631E-010  0.1705782E+03  0.7561462E-02  0.1177246E+00
          1   -1    0    0  501    0  0.00000000000E+00  0.00000000000E+00  0.28968580250E+03  0.28968580250E+03  0.00000000000E+00 0. -1.
         -1   -1    0    0    0  501 -0.00000000000E+00 -0.00000000000E+00 -0.10902049200E+03  0.10902049200E+03  0.00000000000E+00 0.  1.
         25    2    1    2    0    0 -0.12719147445E+03 -0.43258698326E+02  0.14122555494E+03  0.23163388293E+03  0.12514236772E+03 0.  0.
          5    1    3    3  502    0 -0.69150632857E+01 -0.58127953107E+02  0.25419193696E+02  0.63955334732E+02  0.41800000000E+01 0. -1.
         -5    1    3    3    0  502 -0.12027641117E+03  0.14869254780E+02  0.11580636125E+03  0.16767854820E+03  0.41800000000E+01 0. -1.
        -11    1    1    2    0    0  0.34143507517E+02  0.57698138681E+02  0.26214594880E+02  0.71986521638E+02  0.00000000000E+00 0.  1.
         11    1    1    2    0    0  0.93047966937E+02 -0.14439440355E+02  0.13225160674E+02  0.95085889930E+02  0.00000000000E+00 0. -1.
</event>
<event>
 7    1  0.2412631E-010  0.1851155E+03  0.7561462E-02  0.1162942E+00
          2   -1    0    0  501    0  0.00000000000E+00  0.00000000000E+00  0.12689650341E+04  0.12689650341E+04  0.00000000000E+00 0. -1.
         -2   -1    0    0    0  501 -0.00000000000E+00 -0.00000000000E+00 -0.37859940271E+02  0.37859940271E+02  0.00000000000E+00 0.  1.
         25    2    1    2    0    0  0.26003671388E+02 -0.17702760020E+03  0.83011233730E+03  0.85834419143E+03  0.12511313382E+03 0.  0.
          5    1    3    3  502    0 -0.12438040160E+02 -0.10754468780E+03  0.24543310147E+03  0.26828239677E+03  0.41800000000E+01 0.  1.
         -5    1    3    3    0  502  0.38441711548E+02 -0.69482912393E+02  0.58467923583E+03  0.59006179466E+03  0.41800000000E+01 0.  1.
        -11    1    1    2    0    0  0.24039768976E+01  0.10377317740E+03  0.31656977471E+03  0.33315322858E+03  0.00000000000E+00 0. -1.
         11    1    1    2    0    0 -0.28407648285E+02  0.73254422796E+02  0.84422981858E+02  0.11532755441E+03  0.00000000000E+00 0.  1.
</event>
<event>
 7    1  0.2412631E-010  0.1321563E+03  0.7561462E-02  0.1224291E+00
         -2   -1    0    0    0  501 -0.00000000000E+00  0.00000000000E+00  0.65685155378E+02  0.65685155378E+02  0.00000000000E+00 0.  1.
          2   -1    0    0  501    0  0.00000000000E+00 -0.00000000000E+00 -0.38641415548E+03  0.38641415548E+03  0.00000000000E+00 0. -1.
         25    2    1    2    0    0 -0.49684809626E+02 -0.89559468511E+02 -0.95680362829E+02  0.18788397107E+03  0.12512464204E+03 0.  0.
          5    1    3    3  502    0  0.20596545808E+02 -0.33610073646E+02  0.17495585921E+02  0.43329235816E+02  0.41800000000E+01 0. -1.
         -5    1    3    3    0  502 -0.70281355435E+02 -0.55949394866E+02 -0.11317594875E+03  0.14455473525E+03  0.41800000000E+01 0. -1.
        -11    1    1    2    0    0  0.79025404665E+01  0.92519446951E+02 -0.12469413178E+03  0.15547001226E+03  0.00000000000E+00 0.  1.
         11    1    1    2    0    0  0.41782269160E+02 -0.29599784397E+01 -0.10035450548E+03  0.10874532753E+03  0.00000000000E+00 0. -1.
</event>
<event>
 7    1  0.2412631E-010  0.1479041E+03  0.7561462E-02  0.1203072E+00
         -2   -1    0    0    0  501 -0.00000000000E+00  0.00000000000E+00  0.41900500775E+02  0.41900500775E+02  0.00000000000E+00 0.  1.
          2   -1    0    0  501    0  0.00000000000E+00 -0.00000000000E+00 -0.70062819962E+03  0.70062819962E+03  0.00000000000E+00 0. -1.
         25    2    1    2    0    0 -0.97590480479E+02 -0.29132729192E+02 -0.17231145084E+03  0.23605514745E+03  0.12513264465E+03 0.  0.
          5    1    3    3  502    0 -0.93000034847E+02  0.28786573809E+02 -0.13637622277E+03  0.16761151467E+03  0.41800000000E+01 0.  1.
         -5    1    3    3    0  502 -0.45904456315E+01 -0.57919303001E+02 -0.35935228070E+02  0.68443632777E+02  0.41800000000E+01 0.  1.
        -11    1    1    2    0    0  0.28181695216E+02  0.58355756283E+02 -0.25532125947E+03  0.26341706052E+03  0.00000000000E+00 0. -1.
         11    1    1    2    0    0  0.69408785263E+02 -0.29223027090E+02 -0.23109498853E+03  0.24305649242E+03  0.00000000000E+00 0.  1.
</event>
<event>
 7    1  0.2412631E-010  0.1917543E+03  0.7561462E-02  0.1156889E+00
         -2   -1    0    0    0  501 -0.00000000000E+00  0.00000000000E+00  0.41113882793E+03  0.41113882793E+03  0.00000000000E+00 0.  1.
          2   -1    0    0  501    0  0.00000000000E+00 -0.00000000000E+00 -0.13013365102E+03  0.13013365102E+03  0.00000000000E+00 0. -1.
         25    2    1    2    0    0 -0.17387058446E+03 -0.48854207790E+02  0.34991665023E+02  0.22244293445E+03  0.12505490277E+03 0.  0.
          5    1    3    3  502    0 -0.78071428619E+02 -0.27299675526E+02 -0.46318348743E+02  0.94885626312E+02  0.41800000000E+01 0. -1.
         -5    1    3    3    0  502 -0.95799155841E+02 -0.21554532264E+02  0.81310013765E+02  0.12755730814E+03  0.41800000000E+01 0. -1.
        -11    1    1    2    0    0  0.93468225561E+02 -0.21120985960E+02  0.12637437154E+03  0.15859661730E+03  0.00000000000E+00 0.  1.
         11    1    1    2    0    0  0.80402358899E+02  0.69975193750E+02  0.11963914034E+03  0.16023292720E+03  0.00000000000E+00 0. -1.
</event>
<event>
 6    1  0.2412631E-010  0.1030924E+03  0.7561462E-02  0.1273924E+00
          3   -1    0    0  501    0  0.00000000000E+00  0.00000000000E+00  0.38298693928E+03  0.38298693928E+03  0.00000000000E+00 0. -1.
         -3   -1    0    0    0  501 -0.00000000000E+00 -0.00000000000E+00 -0.44482621864E+02  0.44482621864E+02  0.00000000000E+00 0.  1.
          5    1    1    2  502    0 -0.16687311954E+01 -0.35930575395E+02 -0.59594536282E+01  0.36698479526E+02  0.41800000000E+01 0. -1.
         -5    1    1    2    0  502 -0.65299387272E+02  0.23355089613E+02  0.15314661914E+03  0.16816905049E+03  0.41800000000E+01 0. -1.
        -11    1    1    2    0    0  0.78487694562E+02 -0.59168908211E+01  0.18312812630E+03  0.19932696365E+03  0.00000000000E+00 0. -1.
         11    1    1    2    0    0 -0.11519576094E+02  0.18492376602E+02  0.81890256010E+01  0.23275067478E+02  0.00000000000E+00 0.  1.
</event>
<event>
 7    1  0.2412631E-010  0.1080562E+03  0.7561462E-02  0.1264212E+00
          2   -1    0    0  501    0  0.00000000000E+00  0.00000000000E+00  0.16043594242E+03  0.16043594242E+03  0.00000000000E+00 0. -1.
         -2   -1    0    0    0  501 -0.00000000000E+00 -0.00000000000E+00 -0.79065846109E+02  0.79065846109E+02  0.00000000000E+00 0.  1.
         25    2    1    2    0    0  0.57841663208E+01  0.30331933893E+02  0.40938054736E+02  0.13521474672E+03  0.12511443007E+03 0.  0.
          5    1    3    3  502    0  0.54157688365E+02 -0.20974307698E+02  0.18914166629E+02  0.61222503148E+02  0.41800000000E+01 0.  1.
         -5    1    3    3    0  502 -0.48373522044E+02  0.51306241591E+02  0.22023888107E+02  0.73992243570E+02  0.41800000000E+01 0.  1.
        -11    1    1    2    0    0 -0.36866631854E+02  0.81727641650E+01  0.39708678679E+02  0.54797096463E+02  0.00000000000E+00 0. -1.
         11    1    1    2    0    0  0.31082465533E+02 -0.38504698058E+02  0.72336289207E+00  0.49489945343E+02  0.00000000000E+00 0.  1.
</event>
<event>
 7    1  0.2412631E-010  0.1294276E+03  0.7561462E-02  0.1228308E+00
          1   -1    0    0  501    0  0.00000000000E+00  0.00000000000E+00  0.58869701778E+03  0.58869701778E+03  0.00000000000E+00 0. -1.
         -1   -1    0    0    0  501 -0.00000000000E+00 -0.00000000000E+00 -0.32843127464E+02  0.32843127464E+02  0.00000000000E+00 0.  1.
         25    2    1    2    0    0 -0.70714824433E+02  0.51141092944E+01  0.41657777068E+03  0.44070822609E+03  0.12513976591E+03 0.  0.
          5    1    3    3  502    0 -0.99941146333E+02  0.30833191327E+02  0.30384289618E+03  0.32136722978E+03  0.41800000000E+01 0. -1.
         -5    1    3    3    0  502  0.29226321900E+02 -0.25719082032E+02  0.11273487450E+03  0.11934099632E+03  0.41800000000E+01 0. -1.
        -11    1    1    2    0    0  0.71496079149E+01  0.37710451869E+02  0.40363677385E+02  0.55699385325E+02  0.00000000000E+00 0.  1.
         11    1    1    2    0    0  0.63565216518E+02 -0.42824561163E+02  0.98912442252E+02  0.12513253383E+03  0.00000000000E+00 0. -1.
</event>
<event>
 7    1  0.2412631E-010  0.1283849E+03  0.7561462E-02  0.1229872E+00
          2   -1    0    0  501    0  0.00000000000E+00  0.00000000000E+00  0.11416565463E+04  0.11416565463E+04  0.00000000000E+00 0. -1.
         -2   -1    0    0    0  501 -0.00000000000E+00 -0.00000000000E+00 -0.14980395450E+02  0.14980395450E+02  0.00000000000E+00 0.  1.
         25    2    1    2    0    0  0.44582790313E+02  0.54803038881E+02  0.69885076062E+03  0.71347274762E+03  0.12513983264E+03 0.  0.
          5    1    3    3  502    0  0.84789376277E+02  0.56876119535E+02  0.45961909741E+03  0.47084107553E+03  0.41800000000E+01 0. -1.
         -5    1    3    3    0  502 -0.40206585964E+02 -0.20730806539E+01  0.23923166321E+03  0.24263167209E+03  0.41800000000E+01 0. -1.
        -11    1    1    2    0    0 -0.47071419790E+02  0.10934301873E+02  0.14711902004E+03  0.15485245745E+03  0.00000000000E+00 0.  1.
         11    1    1    2    0    0  0.24886294770E+01 -0.65737340754E+02  0.28070637015E+03  0.28831173665E+03  0.00000000000E+00 0. -1.
</event>
<event>
 6    1  0.2412631E-010  0.1074216E+03  0.7561462E-02  0.1265421E+00
          2   -1    0    0  501    0  0.00000000000E+00  0.00000000000E+00  0.67916479882E+02  0.67916479882E+02  0.00000000000E+00 0. -1.
         -2   -1    0    0    0  501 -0.00000000000E+00 -0.00000000000E+00 -0.23786824566E+03  0.23786824566E+03  0.00000000000E+00 0.  1.
          5    1    1    2  502    0 -0.34335273543E+02  0.33011644828E+02 -0.26086599635E+02  0.54467079819E+02  0.41800000000E+01 0. -1.
         -5    1    1    2    0  502  0.86549219282E+02 -0.28518614628E+01 -0.10815646303E+03  0.13861527105E+03  0.41800000000E+01 0. -1.
        -11    1    1    2    0    0 -0.48425916506E+02  0.14976880408E+01 -0.56661199389E+02  0.74550680581E+02  0.00000000000E+00 0.  1.
         11    1    1    2    0    0 -0.37880292331E+01 -0.31657471406E+02  0.20952496283E+02  0.38151694088E+02  0.00000000000E+00 0. -1.
</event>
<event>
 7    1  0.2412631E-010  0.1173909E+03  0.7561462E-02  0.1247464E+00
          2   -1    0    0  501    0  0.00000000000E+00  0.00000000000E+00  0.60482889391E+03  0.60482889391E+03  0.00000000000E+00 0. -1.
         -2   -1    0    0    0  501 -0.00000000000E+00 -0.00000000000E+00 -0.31041080337E+02  0.31041080337E+02  0.00000000000E+00 0.  1.
         25    2    1    2    0    0  0.33380146863E+02  0.57690410206E+02  0.19802973923E+03  0.24353845023E+03  0.12511107659E+03 0.  0.
          5    1    3    3  502    0  0.12753215228E+02  0.85982489110E+02  0.72862423944E+02  0.11349906676E+03  0.41800000000E+01 0. -1.
         -5    1    3    3    0  502  0.20626931635E+02 -0.28292078905E+02  0.12516731529E+03  0.13003938347E+03  0.41800000000E+01 0. -1.
        -11    1    1    2    0    0  0.11640759129E+02 -0.65739098773E+02  0.23752806325E+03  0.24673207577E+03  0.00000000000E+00 0. -1.
         11    1    1    2    0    0 -0.45020905992E+02  0.80486885675E+01  0.13823001109E+03  0.14559944825E+03  0.00000000000E+00 0.  1.
</event>
<event>
 6    1  0.2412631E-010  0.2482872E+03  0.7561462E-02  0.1114392E+00
         -2   -1    0    0    0  501 -0.00000000000E+00  0.00000000000E+00  0.35292842530E+02  0.35292842530E+02  0.00000000000E+00 0.  1.
          2   -1    0    0  501    0  0.00000000000E+00 -0.00000000000E+00 -0.26807297527E+04  0.26807297527E+04  0.00000000000E+00 0. -1.
          5    1    1    2  502    0  0.54227868740E+02  0.92446643332E+02 -0.92780760253E+03  0.93398686464E+03  0.41800000000E+01 0.  1.
         -5    1    1    2    0  502 -0.71661955013E+02  0.13237088288E+03 -0.12192930922E+04  0.12285563087E+04  0.41800000000E+01 0.  1.
        -11    1    1    2    0    0 -0.29078674390E+02 -0.50068891081E+02 -0.91735382844E+02  0.10847969222E+03  0.00000000000E+00 0.  1.
         11    1    1    2    0    0  0.46512760664E+02 -0.17474863513E+03 -0.40660083261E+03  0.44499972974E+03  0.00000000000E+00 0. -1.
</event>
<event>
 6    1  0.2412631E-010  0.1956824E+03  0.7561462E-02  0.1153434E+00
         -2   -1    0    0    0  501 -0.00000000000E+00  0.00000000000E+00  0.24160460638E+03  0.24160460638E+03  0.00000000000E+00 0.  1.
          2   -1    0    0  501    0  0.00000000000E+00 -0.00000000000E+00 -0.19043303662E+03  0.19043303662E+03  0.00000000000E+00 0. -1.
          5    1    1    2  502    0  0.12314125672E+02  0.13373149971E+03  0.38622758937E+02  0.13980322462E+03  0.41800000000E+01 0.  1.
         -5    1    1    2    0  502 -0.69675628268E+02  0.33238447817E+02 -0.11603438671E+02  0.78176721451E+02  0.41800000000E+01 0.  1.
        -11    1    1    2    0    0  0.22917569752E+02 -0.11555475688E+03 -0.40487935867E+02  0.12456881548E+03  0.00000000000E+00 0. -1.
         11    1    1    2    0    0  0.34443932844E+02 -0.51415190650E+02  0.64640185362E+02  0.89488881449E+02  0.00000000000E+00 0.  1.
</event>
<event>
 6    1  0.2412631E-010  0.1116085E+03  0.7561462E-02  0.1257620E+00
          1   -1    0    0  501    0  0.00000000000E+00  0.00000000000E+00  0.13926616849E+03  0.13926616849E+03  0.00000000000E+00 0. -1.
         -1   -1    0    0    0  501 -0.00000000000E+00 -0.00000000000E+00 -0.10524108442E+03  0.10524108442E+03  0.00000000000E+00 0.  1.
          5    1    1    2  502    0 -0.38540316354E+02 -0.67384202073E+02  0.58971228616E+01  0.77963036958E+02  0.41800000000E+01 0. -1.
         -5    1    1    2    0  502  0.13625649779E+02  0.44258683080E+02 -0.25593645729E+02  0.53075384705E+02  0.41800000000E+01 0. -1.
        -11    1    1    2    0    0 -0.30221965273E+02  0.30988834022E+02  0.31363475540E+02  0.53454116932E+02  0.00000000000E+00 0.  1.
         11    1    1    2    0    0  0.55136631848E+02 -0.78633150287E+01  0.22358131404E+02  0.60014714317E+02  0.00000000000E+00 0. -1.
</event>
<event>
 6    1  0.2412631E-010  0.1328044E+03  0.7561462E-02  0.1223353E+00
          2   -1    0    0  501    0  0.00000000000E+00  0.00000000000E+00  0.15598835356E+03  0.15598835356E+03  0.00000000000E+00 0. -1.
         -2   -1    0    0    0  501 -0.00000000000E+00 -0.00000000000E+00 -0.12988484321E+03  0.12988484321E+03  0.00000000000E+00 0.  1.
          5    1    1    2  502    0 -0.41514755382E+02  0.44199512639E+02 -0.34784265627E+02  0.70032059567E+02  0.41800000000E+01 0. -1.
         -5    1    1    2    0  502 -0.36056103609E+02 -0.71960358784E+02  0.11793392674E+02  0.81454848563E+02  0.41800000000E+01 0. -1.
        -11    1    1    2    0    0  0.21082203330E+02  0.56891375703E+02  0.16084606861E+02  0.62767846104E+02  0.00000000000E+00 0.  1.
         11    1    1    2    0    0  0.56488655660E+02 -0.29130529559E+02  0.33009776445E+02  0.71618442538E+02  0.00000000000E+00 0. -1.
</event>
<event>
 7    1  0.2412631E-010  0.8408184E+02  0.7561462E-02  0.1317851E+00
         -3   -1    0    0    0  501 -0.00000000000E+00  0.00000000000E+00  0.46781285932E+03  0.46781285932E+03  0.00000000000E+00 0. -1.
          3   -1    0    0  501    0  0.00000000000E+00 -0.00000000000E+00 -0.25263152366E+02  0.25263152366E+02  0.00000000000E+00 0.  1.
         25    2    1    2    0    0 -0.60704374425E+01  0.15939497809E+02  0.24724540484E+03  0.27763441175E+03  0.12513855750E+03 0.  0.
          5    1    3    3  502    0 -0.30771794394E+02  0.36654872954E+02  0.23942761054E+03  0.24419978733E+03  0.41800000000E+01 0. -1.
         -5    1    3    3    0  502  0.24701356951E+02 -0.20715375145E+02  0.78177942995E+01  0.33434624423E+02  0.41800000000E+01 0. -1.
        -11    1    1    2    0    0  0.24458770289E+02  0.29661831087E+02  0.57870216674E+02  0.69476741758E+02  0.00000000000E+00 0.  1.
         11    1    1    2    0    0 -0.18388332846E+02 -0.45601328896E+02  0.13743408544E+03  0.14596485818E+03  0.00000000000E+00 0. -1.
</event>
<event>
 7    1  0.2412631E-010  0.1750910E+03  0.7561462E-02  0.1172640E+00
         -1   -1    0    0    0  501 -0.00000000000E+00  0.00000000000E+00  0.12792375513E+04  0.12792375513E+04  0.00000000000E+00 0.  1.
          1   -1    0    0  501    0  0.00000000000E+00 -0.00000000000E+00 -0.33500775888E+02  0.33500775888E+02  0.00000000000E+00 0. -1.
         25    2    1    2    0    0  0.70615583165E+02  0.14525199132E+03  0.86836587742E+03  0.89206613078E+03  0.12505192139E+03 0.  0.
          5    1    3    3  502    0  0.18333032996E+02  0.12235557624E+03  0.36422327946E+03  0.38468565977E+03  0.41800000000E+01 0.  1.
         -5    1    3    3    0  502  0.52282550168E+02  0.22896415077E+02  0.50414259796E+03  0.50738047100E+03  0.41800000000E+01 0.  1.
        -11    1    1    2    0    0 -0.58758697692E+02 -0.63349555476E+02  0.27925063670E+03  0.29231262174E+03  0.00000000000E+00 0.  1.
         11    1    1    2    0    0 -0.11856885473E+02 -0.81902435844E+02  0.98120261249E+02  0.12835957463E+03  0.00000000000E+00 0. -1.
</event>
<event>
 7    1  0.2412631E-010  0.1075766E+03  0.7561462E-02  0.1265125E+00
          2   -1    0    0  501    0  0.00000000000E+00  0.00000000000E+00  0.38613796378E+03  0.38613796378E+03  0.00000000000E+00 0.  1.
         -2   -1    0    0    0  501 -0.00000000000E+00 -0.00000000000E+00 -0.40255011522E+02  0.40255011522E+02  0.00000000000E+00 0. -1.
         25    2    1    2    0    0 -0.58215446892E+02  0.17821346082E+02  0.14950430799E+03  0.20420540268E+03  0.12506666119E+03 0.  0.
          5    1    3    3  502    0  0.25841574832E+02  0.13191706406E+02 -0.34988210541E+01  0.29521555794E+02  0.41800000000E+01 0.  1.
         -5    1    3    3    0  502 -0.84057021725E+02  0.46296396758E+01  0.15300312904E+03  0.17468384688E+03  0.41800000000E+01 0.  1.
        -11    1    1    2    0    0 -0.18299662628E+02  0.91014553497E+01  0.22973238030E+02  0.30748720418E+02  0.00000000000E+00 0. -1.
         11    1    1    2    0    0  0.76515109520E+02 -0.26922801432E+02  0.17340540624E+03  0.19143885221E+03  0.00000000000E+00 0.  1.
</event>
<event>
 6    1  0.2412631E-010  0.8425642E+02  0.7561462E-02  0.1317389E+00
          1   -1    0    0  501    0  0.00000000000E+00  0.00000000000E+00  0.21923207394E+03  0.21923207394E+03  0.00000000000E+00 0. -1.
         -1   -1    0    0    0  501 -0.00000000000E+00 -0.00000000000E+00 -0.61812789446E+02  0.61812789446E+02  0.00000000000E+00 0.  1.
          5    1    1    2  502    0  0.49886813450E+02 -0.54056184825E+02  0.89980681315E+02  0.11629600459E+03  0.41800000000E+01 0. -1.
         -5    1    1    2    0  502 -0.20773952231E+02  0.24425832534E+02 -0.14788333906E+02  0.35557637801E+02  0.41800000000E+01 0. -1.
        -11    1    1    2    0    0  0.12898468683E+02  0.52453506372E+01 -0.15023658636E+02  0.20484006358E+02  0.00000000000E+00 0.  1.
         11    1    1    2    0    0 -0.42011329902E+02  0.24385001654E+02  0.97250595719E+02  0.10870721463E+03  0.00000000000E+00 0. -1.
</event>
<event>
 6    1  0.2412631E-010  0.1755008E+03  0.7561462E-02  0.1172230E+00
          1   -1    0    0  501    0  0.00000000000E+00  0.00000000000E+00  0.11103942298E+03  0.11103942298E+03  0.00000000000E+00 0. -1.
         -1   -1    0    0    0  501 -0.00000000000E+00 -0.00000000000E+00 -0.33917515467E+03  0.33917515467E+03  0.00000000000E+00 0.  1.
          5    1    1    2  502    0  0.71965229000E+02 -0.12757461916E+03 -0.11773234757E+02  0.14700462270E+03  0.41800000000E+01 0.  1.
         -5    1    1    2    0  502  0.27181858509E+02  0.28498254238E+02 -0.16125936152E+02  0.42761222426E+02  0.41800000000E+01 0.  1.
        -11    1    1    2    0    0  0.15772398635E+02  0.19516414535E+02 -0.18480493514E+02  0.31163883512E+02  0.00000000000E+00 0. -1.
         11    1    1    2    0    0 -0.11491948614E+03  0.79559950385E+02 -0.18175606726E+03  0.22928484901E+03  0.00000000000E+00 0.  1.
</event>
<event>
 6    1  0.2412631E-010  0.1155122E+03  0.7561462E-02  0.1250690E+00
          1   -1    0    0  501    0  0.00000000000E+00  0.00000000000E+00  0.69677772802E+02  0.69677772802E+02  0.00000000000E+00 0. -1.
         -1   -1    0    0    0  501 -0.00000000000E+00 -0.00000000000E+00 -0.23572565655E+03  0.23572565655E+03  0.00000000000E+00 0.  1.
          5    1    1    2  502    0  0.39669290423E+02  0.81225736613E+02 -0.34053759104E+02  0.96687143923E+02  0.41800000000E+01 0.  1.
         -5    1    1    2    0  502 -0.15539693852E+02 -0.38324897933E+02  0.94267965226E+00  0.41576927875E+02  0.41800000000E+01 0.  1.
        -11    1    1    2    0    0  0.26647659683E+02 -0.40055424703E+02 -0.46849722035E+02  0.67152299063E+02  0.00000000000E+00 0. -1.
         11    1    1    2    0    0 -0.50777256254E+02 -0.28454139761E+01 -0.86087082265E+02  0.99987058495E+02  0.00000000000E+00 0.  1.
</event>
<event>
 6    1  0.2412631E-010  0.3341192E+03  0.7561462E-02  0.1069329E+00
          3   -1    0    0  501    0  0.00000000000E+00  0.00000000000E+00  0.20341111928E+04  0.20341111928E+04  0.00000000000E+00 0. -1.
         -3   -1    0    0    0  501 -0.00000000000E+00 -0.00000000000E+00 -0.59444656168E+02  0.59444656168E+02  0.00000000000E+00 0.  1.
          5    1    1    2  502    0 -0.47724578967E+02 -0.14559603969E+02  0.32479048029E+03  0.32862736647E+03  0.41800000000E+01 0. -1.
         -5    1    1    2    0  502 -0.26787550668E+03  0.99851988244E+02  0.81216071971E+03  0.86101696480E+03  0.41800000000E+01 0. -1.
        -11    1    1    2    0    0  0.43948458340E+02 -0.34556959558E+02  0.81927494346E+02  0.99185506876E+02  0.00000000000E+00 0.  1.
         11    1    1    2    0    0  0.27165162731E+03 -0.50735424717E+02  0.75578784224E+03  0.80472601078E+03  0.00000000000E+00 0. -1.
</event>
<event>
 7    1  0.2412631E-010  0.9737828E+02  0.7561462E-02  0.1285908E+00
          2   -1    0    0  501    0  0.00000000000E+00  0.00000000000E+00  0.26438459680E+04  0.26438459680E+04  0.00000000000E+00 0.  1.
         -2   -1    0    0    0  501 -0.00000000000E+00 -0.00000000000E+00 -0.11471450629E+02  0.11471450629E+02  0.00000000000E+00 0. -1.
         25    2    1    2    0    0 -0.16934886045E+00  0.15708187004E+02  0.24222097155E+04  0.24254871089E+04  0.12506411992E+03 0.  0.
          5    1    3    3  502    0  0.78824371400E+01 -0.54377109182E+02  0.98275899983E+03  0.98430266024E+03  0.41800000000E+01 0. -1.
         -5    1    3    3    0  502 -0.80517860005E+01  0.70085296186E+02  0.14394507157E+04  0.14411844487E+04  0.41800000000E+01 0. -1.
        -11    1    1    2    0    0 -0.26217056759E+02 -0.29286735163E+02  0.36474100908E+02  0.53622821248E+02  0.00000000000E+00 0. -1.
         11    1    1    2    0    0  0.26386405619E+02  0.13578548159E+02  0.17369070098E+03  0.17620748843E+03  0.00000000000E+00 0.  1.
</event>
<event>
 6    1  0.2412631E-010  0.7072507E+02  0.7561462E-02  0.1357645E+00
          2   -1    0    0  501    0  0.00000000000E+00  0.00000000000E+00  0.55417054895E+03  0.55417054895E+03  0.00000000000E+00 0.  1.
         -2   -1    0    0    0  501 -0.00000000000E+00 -0.00000000000E+00 -0.22048384498E+02  0.22048384498E+02  0.00000000000E+00 0. -1.
          5    1    1    2  502    0  0.20800385907E+02 -0.17457233328E+02  0.36030079637E+03  0.36134685181E+03  0.41800000000E+01 0. -1.
         -5    1    1    2    0  502 -0.12795970079E+02  0.21872724375E+02  0.69946923700E+01  0.26618622113E+02  0.41800000000E+01 0. -1.
        -11    1    1    2    0    0 -0.42368940540E+02  0.19280422458E+02  0.10919270784E+03  0.11870092358E+03  0.00000000000E+00 0.  1.
         11    1    1    2    0    0  0.34364524711E+02 -0.23695913505E+02  0.55633967870E+02  0.69552535945E+02  0.00000000000E+00 0. -1.
</event>
<event>
 6    1  0.2412631E-010  0.1538995E+03  0.7561462E-02  0.1195762E+00
          1   -1    0    0  501    0  0.00000000000E+00  0.00000000000E+00  0.46840441879E+02  0.46840441879E+02  0.00000000000E+00 0. -1.
         -1   -1    0    0    0  501 -0.00000000000E+00 -0.00000000000E+00 -0.72947938695E+03  0.72947938695E+03  0.00000000000E+00 0.  1.
          5    1    1    2  502    0 -0.11190204771E+03 -0.65998872995E+01 -0.86000356840E+02  0.14134765853E+03  0.41800000000E+01 0. -1.
         -5    1    1    2    0  502 -0.18551472254E+01 -0.56152774277E+02 -0.11940115058E+03  0.13202531118E+03  0.41800000000E+01 0. -1.
        -11    1    1    2    0    0  0.26650779866E+02  0.41999101826E+02 -0.69337705356E+02  0.85334084666E+02  0.00000000000E+00 0. -1.
         11    1    1    2    0    0  0.87106415072E+02  0.20753559751E+02 -0.40789973229E+03  0.41761277446E+03  0.00000000000E+00 0.  1.
</event>
<event>
 7    1  0.2412631E-010  0.1605797E+03  0.7561462E-02  0.1188044E+00
         -2   -1    0    0    0  501 -0.00000000000E+00  0.00000000000E+00  0.13958713233E+03  0.13958713233E+03  0.00000000000E+00 0.  1.
          2   -1    0    0  501    0  0.00000000000E+00 -0.00000000000E+00 -0.22314350817E+03  0.22314350817E+03  0.00000000000E+00 0. -1.
         25    2    1    2    0    0  0.32605945596E+02  0.11965436089E+03 -0.11422444352E+03  0.20996157073E+03  0.12512523294E+03 0.  0.
          5    1    3    3  502    0  0.46119008029E+02 -0.45275766179E+01 -0.53823130169E+02  0.71146774999E+02  0.41800000000E+01 0. -1.
         -5    1    3    3    0  502 -0.13513062433E+02  0.12418193751E+03 -0.60401313350E+02  0.13881479573E+03  0.41800000000E+01 0. -1.
        -11    1    1    2    0    0 -0.15271496915E+01 -0.11853683854E+03  0.25128260594E+02  0.12118062452E+03  0.00000000000E+00 0. -1.
         11    1    1    2    0    0 -0.31078795905E+02 -0.11175223442E+01  0.55398070808E+01  0.31588445254E+02  0.00000000000E+00 0.  1.
</event>
<event>
 6    1  0.2412631E-010  0.1899506E+03  0.7561462E-02  0.1158506E+00
          2   -1    0    0  501    0  0.00000000000E+00  0.00000000000E+00  0.79410211805E+03  0.79410211805E+03  0.00000000000E+00 0.  1.
         -2   -1    0    0    0  501 -0.00000000000E+00 -0.00000000000E+00 -0.68254845304E+02  0.68254845304E+02  0.00000000000E+00 0. -1.
          5    1    1    2  502    0 -0.61539649604E+02 -0.13792579951E+02  0.93175764411E+01  0.63887818603E+02  0.41800000000E+01 0.  1.
         -5    1    1    2    0  502 -0.45113188168E+02 -0.12677024123E+03  0.17103402292E+03  0.21766029312E+03  0.41800000000E+01 0.  1.
        -11    1    1    2    0    0  0.11042533994E+03  0.12846890539E+03  0.54171908936E+03  0.56758927680E+03  0.00000000000E+00 0.  1.
         11    1    1    2    0    0 -0.37725021723E+01  0.12093915791E+02  0.37765840257E+01  0.13219574830E+02  0.00000000000E+00 0. -1.
</event>
<event>
 6    1  0.2412631E-010  0.1070253E+03  0.7561462E-02  0.1266180E+00
          3   -1    0    0  501    0  0.00000000000E+00  0.00000000000E+00  0.49217821661E+03  0.49217821661E+03  0.00000000000E+00 0. -1.
         -3   -1    0    0    0  501 -0.00000000000E+00 -0.00000000000E+00 -0.99322963324E+02  0.99322963324E+02  0.00000000000E+00 0.  1.
          5    1    1    2  502    0  0.20684938087E+02  0.60791170354E+02  0.74392804450E+02  0.98362568138E+02  0.41800000000E+01 0.  1.
         -5    1    1    2    0  502 -0.14368271269E+02  0.19009203779E+02  0.35938401525E+03  0.36019736238E+03  0.41800000000E+01 0.  1.
        -11    1    1    2    0    0 -0.41518100769E+02 -0.37267017730E+01 -0.59182042570E+01  0.42103041923E+02  0.00000000000E+00 0.  1.
         11    1    1    2    0    0  0.35201433951E+02 -0.76073672360E+02 -0.35003362156E+02  0.90838207495E+02  0.00000000000E+00 0. -1.
</event>
<event>
 6    1  0.2412631E-010  0.1155732E+03  0.7561462E-02  0.1250584E+00
          2   -1    0    0  501    0  0.00000000000E+00  0.00000000000E+00  0.12648992629E+04  0.12648992629E+04  0.00000000000E+00 0. -1.
         -2   -1    0    0    0  501 -0.00000000000E+00 -0.00000000000E+00 -0.11721390420E+02  0.11721390420E+02  0.00000000000E+00 0.  1.
          5    1    1    2  502    0  0.81050415839E+02 -0.20737113498E+02  0.43497604889E+03  0.44296820799E+03  0.41800000000E+01 0. -1.
         -5    1    1    2    0  502 -0.40498521517E+02 -0.50664553929E+02  0.42474475402E+03  0.42968896395E+03  0.41800000000E+01 0. -1.
        -11    1    1    2    0    0 -0.97430110605E+01  0.11897604624E+02  0.24175979796E+02  0.28652351726E+02  0.00000000000E+00 0.  1.
         11    1    1    2    0    0 -0.30808883262E+02  0.59504062802E+02  0.36928108976E+03  0.37531112964E+03  0.00000000000E+00 0. -1.
</event>
<event>
 7    1  0.2412631E-010  0.2305073E+03  0.7561462E-02  0.1126283E+00
          2   -1    0    0  501    0  0.00000000000E+00  0.00000000000E+00  0.88726433297E+03  0.88726433297E+03  0.00000000000E+00 0. -1.
         -2   -1    0    0    0  501 -0.00000000000E+00 -0.00000000000E+00 -0.65783228442E+02  0.65783228442E+02  0.00000000000E+00 0.  1.
         25    2    1    2    0    0 -0.93368931046E+02  0.19417854245E+03  0.44545053829E+03  0.51038269889E+03  0.12506499763E+03 0.  0.
          5    1    3    3  502    0 -0.11558751687E+03  0.18892731284E+03  0.36800230842E+03  0.42953134344E+03  0.41800000000E+01 0.  1.
         -5    1    3    3    0  502  0.22218585822E+02  0.52512296071E+01  0.77448229878E+02  0.80851355459E+02  0.41800000000E+01 0.  1.
        -11    1    1    2    0    0  0.69698629227E+02 -0.16181792435E+03  0.35736825309E+03  0.39844072065E+03  0.00000000000E+00 0. -1.
         11    1    1    2    0    0  0.23670301819E+02 -0.32360618096E+02  0.18662313145E+02  0.44224141865E+02  0.00000000000E+00 0.  1.
</event>
<event>
 7    1  0.2412631E-010  0.1145480E+03  0.7561462E-02  0.1252372E+00
         -2   -1    0    0    0  501 -0.00000000000E+00  0.00000000000E+00  0.20242563071E+02  0.20242563071E+02  0.00000000000E+00 0.  1.
          2   -1    0    0  501    0  0.00000000000E+00 -0.00000000000E+00 -0.83322383298E+03  0.83322383298E+03  0.00000000000E+00 0. -1.
         25    2    1    2    0    0  0.37966674454E+02  0.59184051094E+02 -0.44968129571E+03  0.47203141516E+03  0.12512461352E+03 0.  0.
          5    1    3    3  502    0  0.25690494780E+02 -0.21715687575E+02 -0.32777865737E+02  0.47153297776E+02  0.41800000000E+01 0. -1.
         -5    1    3    3    0  502  0.12276179674E+02  0.80899738669E+02 -0.41690342998E+03  0.42487811738E+03  0.41800000000E+01 0. -1.
        -11    1    1    2    0    0  0.71316187352E+01  0.20499887121E+02 -0.41115953025E+02  0.46493300065E+02  0.00000000000E+00 0.  1.
         11    1    1    2    0    0 -0.45098293189E+02 -0.79683938215E+02 -0.32218402117E+03  0.33494168082E+03  0.00000000000E+00 0. -1.
</event>
<event>
 7    1  0.2412631E-010  0.1046362E+03  0.7561462E-02  0.1270838E+00
         -2   -1    0    0    0  501 -0.00000000000E+00  0.00000000000E+00  0.20842376093E+02  0.20842376093E+02  0.00000000000E+00 0.  1.
          2   -1    0    0  501    0  0.00000000000E+00 -0.00000000000E+00 -0.10112584849E+04  0.10112584849E+04  0.00000000000E+00 0. -1.
         25    2    1    2    0    0 -0.15940365609E+02 -0.85618492385E+02 -0.69191376494E+03  0.70849851083E+03  0.12506342489E+03 0.  0.
          5    1    3    3  502    0  0.25791273467E+02 -0.56216948317E+02 -0.12756619770E+03  0.14183138673E+03  0.41800000000E+01 0.  1.
         -5    1    3    3    0  502 -0.41731639075E+02 -0.29401544068E+02 -0.56434756724E+03  0.56666712410E+03  0.41800000000E+01 0.  1.
        -11    1    1    2    0    0  0.24911169615E+02  0.26907780917E+02 -0.26630018667E+02  0.45318351026E+02  0.00000000000E+00 0.  1.
         11    1    1    2    0    0 -0.89708040060E+01  0.58710711467E+02 -0.27187232522E+03  0.27828399916E+03  0.00000000000E+00 0. -1.
</event>
<event>
 7    1  0.2412631E-010  0.1064504E+03  0.7561462E-02  0.1267288E+00
          2   -1    0    0  501    0  0.00000000000E+00  0.00000000000E+00  0.42006334053E+03  0.42006334053E+03  0.00000000000E+00 0.  1.
         -2   -1    0    0    0  501 -0.00000000000E+00 -0.00000000000E+00 -0.65379473777E+02  0.65379473777E+02  0.00000000000E+00 0. -1.
         25    2    1    2    0    0  0.10303977777E+02  0.46345868954E+02  0.19833138100E+02  0.13527929889E+03  0.12511204504E+03 0.  0.
          5    1    3    3  502    0 -0.40215112852E+02  0.47076284375E+02 -0.25670979239E+02  0.67155814546E+02  0.41800000000E+01 0.  1.
         -5    1    3    3    0  502  0.50519090629E+02 -0.73041542129E+00  0.45504117339E+02  0.68123484346E+02  0.41800000000E+01 0.  1.
        -11    1    1    2    0    0  0.20070242416E+01  0.26345441608E+02  0.12432170081E+03  0.12709837030E+03  0.00000000000E+00 0.  1.
         11    1    1    2    0    0 -0.12311002019E+02 -0.72691310562E+02  0.21052902784E+03  0.22306514512E+03  0.00000000000E+00 0. -1.
</event>
<event>
 7    1  0.2412631E-010  0.1481606E+03  0.7561462E-02  0.1202752E+00
          1   -1    0    0  501    0  0.00000000000E+00  0.00000000000E+00  0.41188576303E+03  0.41188576303E+03  0.00000000000E+00 0. -1.
         -1   -1    0    0    0  501 -0.00000000000E+00 -0.00000000000E+00 -0.97472235919E+02  0.97472235919E+02  0.00000000000E+00 0.  1.
         25    2    1    2    0    0  0.10592949512E+03 -0.87255415701E+02  0.38481042254E+02  0.18961651689E+03  0.12505625677E+03 0.  0.
          5    1    3    3  502    0  0.77080194741E+01 -0.31910007997E+02  0.65697437735E+02  0.73561456616E+02  0.41800000000E+01 0.  1.
         -5    1    3    3    0  502  0.98221475641E+02 -0.55345407704E+02 -0.27216395481E+02  0.11605506027E+03  0.41800000000E+01 0.  1.
        -11    1    1    2    0    0 -0.96001311007E+02  0.43242367155E+02  0.13169115347E+03  0.16860816686E+03  0.00000000000E+00 0.  1.
         11    1    1    2    0    0 -0.99281841084E+01  0.44013048546E+02  0.14424133139E+03  0.15113331520E+03  0.00000000000E+00 0. -1.
</event>
<event>
 7    1  0.2412631E-010  0.9081520E+02  0.7561462E-02  0.1300890E+00
         -2   -1    0    0    0  501 -0.00000000000E+00  0.00000000000E+00  0.12364262435E+02  0.12364262435E+02  0.00000000000E+00 0.  1.
          2   -1    0    0  501    0  0.00000000000E+00 -0.00000000000E+00 -0.10186145686E+04  0.10186145686E+04  0.00000000000E+00 0. -1.
         25    2    1    2    0    0  0.52037960718E+01  0.29626515642E+01 -0.73334750177E+03  0.74395898850E+03  0.12506223016E+03 0.  0.
          5    1    3    3  502    0 -0.32706652245E+02 -0.29265419399E+02 -0.59919900797E+03  0.60081870263E+03  0.41800000000E+01 0. -1.
         -5    1    3    3    0  502  0.37910448317E+02  0.32228070963E+02 -0.13414849380E+03  0.14314028587E+03  0.41800000000E+01 0. -1.
        -11    1    1    2    0    0  0.83250276425E+01  0.40884453398E+02 -0.10576037955E+03  0.11369301869E+03  0.00000000000E+00 0. -1.
         11    1    1    2    0    0 -0.13528823714E+02 -0.43847104963E+02 -0.16714242481E+03  0.17332682383E+03  0.00000000000E+00 0.  1.
</event>
<event>
 7    1  0.2412631E-010  0.8859512E+02  0.7561462E-02  0.1306290E+00
          3   -1    0    0  501    0  0.00000000000E+00  0.00000000000E+00  0.13616828998E+03  0.13616828998E+03  0.00000000000E+00 0. -1.
         -3   -1    0    0    0  501 -0.00000000000E+00 -0.00000000000E+00 -0.10656778762E+03  0.10656778762E+03  0.00000000000E+00 0.  1.
         25    2    1    2    0    0 -0.15974165612E+02  0.49801187390E+02  0.28873250265E+02  0.13860115597E+03  0.12506511753E+03 0.  0.
          5    1    3    3  502    0  0.45985764423E+02  0.37164820185E+02 -0.15464115601E+02  0.61257862028E+02  0.41800000000E+01 0.  1.
         -5    1    3    3    0  502 -0.61959930035E+02  0.12636367205E+02  0.44337365866E+02  0.77343293943E+02  0.41800000000E+01 0.  1.
        -11    1    1    2    0    0  0.63387010357E+00 -0.27316319953E+02  0.44717468513E+02  0.52404533366E+02  0.00000000000E+00 0. -1.
         11    1    1    2    0    0  0.15340295508E+02 -0.22484867437E+02 -0.43990216415E+02  0.51730388266E+02  0.00000000000E+00 0.  1.
</event>
<event>
 6    1  0.2412631E-010  0.9750241E+02  0.7561462E-02  0.1285637E+00
         -1   -1    0    0    0  501 -0.00000000000E+00  0.00000000000E+00  0.54412082622E+03  0.54412082622E+03  0.00000000000E+00 0.  1.
          1   -1    0    0  501    0  0.00000000000E+00 -0.00000000000E+00 -0.24507739925E+02  0.24507739925E+02  0.00000000000E+00 0. -1.
          5    1    1    2  502    0  0.31168873913E+02 -0.15889739023E+02  0.23569362308E+03  0.23831269137E+03  0.41800000000E+01 0. -1.
         -5    1    1    2    0  502 -0.30183783692E+02  0.51162745788E+02  0.59412500257E+02  0.84118992750E+02  0.41800000000E+01 0. -1.
        -11    1    1    2    0    0 -0.47274497241E+02 -0.21437582515E+02  0.13186875771E+03  0.14171738529E+03  0.00000000000E+00 0.  1.
         11    1    1    2    0    0  0.46289407020E+02 -0.13835424250E+02  0.92638205253E+02  0.10447949674E+03  0.00000000000E+00 0. -1.
</event>
<event>
 6    1  0.2412631E-010  0.1198048E+03  0.7561462E-02  0.1243419E+00
          2   -1    0    0  501    0  0.00000000000E+00  0.00000000000E+00  0.54199457357E+03  0.54199457357E+03  0.00000000000E+00 0. -1.
         -2   -1    0    0    0  501 -0.00000000000E+00 -0.00000000000E+00 -0.34731712545E+02  0.34731712545E+02  0.00000000000E+00 0.  1.
          5    1    1    2  502    0 -0.22187230694E+02  0.10903981594E+03  0.21484637427E+03  0.24198841212E+03  0.41800000000E+01 0.  1.
         -5    1    1    2    0  502 -0.74573081512E+01 -0.33464100584E+02  0.36040345644E+02  0.49918297115E+02  0.41800000000E+01 0.  1.
        -11    1    1    2    0    0  0.88811720586E+01 -0.72125232497E+02  0.25333634866E+03  0.26355308750E+03  0.00000000000E+00 0. -1.
         11    1    1    2    0    0  0.20763366786E+02 -0.34504828589E+01  0.30397924570E+01  0.21266489377E+02  0.00000000000E+00 0.  1.
</event>
<event>
 7    1  0.3168410E-010  0.1261388E+03  0.7561462E-02  0.1233300E+00
         -1   -1    0    0    0  501 -0.00000000000E+00  0.00000000000E+00  0.49227173137E+02  0.49227173137E+02  0.00000000000E+00 0.  1.
          1   -1    0    0  501    0  0.00000000000E+00 -0.00000000000E+00 -0.66580760105E+03  0.66580760105E+03  0.00000000000E+00 0. -1.
         25    2    1    2    0    0  0.11692397160E+03 -0.45275074859E+02 -0.47081139660E+03  0.50302839977E+03  0.12511255840E+03 0.  0.
          5    1    3    3  502    0  0.48509786198E+02 -0.14825210476E+02 -0.37361359870E+02  0.63137388558E+02  0.41800000000E+01 0. -1.
         -5    1    3    3    0  502  0.68414185403E+02 -0.30449864382E+02 -0.43345003673E+03  0.43989101121E+03  0.41800000000E+01 0. -1.
        -11    1    1    2    0    0 -0.70968542229E+02  0.19104278114E+02 -0.14087702356E+03  0.15889569911E+03  0.00000000000E+00 0. -1.
         11    1    1    2    0    0 -0.45955429372E+02  0.26170796745E+02 -0.48920077455E+01  0.53110675300E+02  0.00000000000E+00 0.  1.
</event>
<event>
 6    1  0.2412631E-010  0.7972530E+02  0.7561462E-02  0.1329833E+00
         -1   -1    0    0    0  501 -0.00000000000E+00  0.00000000000E+00  0.24529607701E+02  0.24529607701E+02  0.00000000000E+00 0.  1.
          1   -1    0    0  501    0  0.00000000000E+00 -0.00000000000E+00 -0.27192528057E+03  0.27192528057E+03  0.00000000000E+00 0. -1.
          5    1    1    2  502    0 -0.56103319124E+02  0.36597365147E+02 -0.12200831276E+03  0.13924959725E+03  0.41800000000E+01 0. -1.
         -5    1    1    2    0  502  0.51365403148E+02 -0.23814654707E+02 -0.61157604596E+02  0.83446194756E+02  0.41800000000E+01 0. -1.
        -11    1    1    2    0    0 -0.13915307927E+02 -0.21130376524E+01 -0.32724621539E+02  0.35623048405E+02  0.00000000000E+00 0.  1.
         11    1    1    2    0    0  0.18653223903E+02 -0.10669672787E+02 -0.31505133970E+02  0.38136047853E+02  0.00000000000E+00 0. -1.
</event>
<event>
 7    1  0.2412631E-010  0.1641165E+03  0.7561462E-02  0.1184126E+00
         -1   -1    0    0    0  501 -0.00000000000E+00  0.00000000000E+00  0.19760805138E+04  0.19760805138E+04  0.00000000000E+00 0.  1.
          1   -1    0    0  501    0  0.00000000000E+00 -0.00000000000E+00 -0.14966117651E+02  0.14966117651E+02  0.00000000000E+00 0. -1.
         25    2    1    2    0    0  0.10737949423E+03  0.77821463165E+02  0.11076392984E+04  0.11225450979E+04  0.12512451980E+03 0.  0.
          5    1    3    3  502    0  0.12301665182E+03  0.45257037857E+02  0.10076492684E+04  0.10161475369E+04  0.41800000000E+01 0.  1.
         -5    1    3    3    0  502 -0.15637157583E+02  0.32564425308E+02  0.99990029964E+02  0.10639756099E+03  0.41800000000E+01 0.  1.
        -11    1    1    2    0    0 -0.10998608569E+03 -0.31609436355E+02  0.62343823664E+03  0.63385434480E+03  0.00000000000E+00 0.  1.
         11    1    1    2    0    0  0.26065914597E+01 -0.46212026810E+02  0.23003686114E+03  0.23464718882E+03  0.00000000000E+00 0. -1.
</event>
<event>
 7    1  0.2412631E-010  0.9337330E+02  0.7561462E-02  0.1294882E+00
          1   -1    0    0  501    0  0.00000000000E+00  0.00000000000E+00  0.57268224035E+02  0.57268224035E+02  0.00000000000E+00 0. -1.
         -1   -1    0    0    0  501 -0.00000000000E+00 -0.00000000000E+00 -0.33504484427E+03  0.33504484427E+03  0.00000000000E+00 0.  1.
         25    2    1    2    0    0  0.24755761043E+02 -0.32782581431E+02 -0.25889024326E+03  0.29043629566E+03  0.12506613622E+03 0.  0.
          5    1    3    3  502    0  0.63328158757E+02  0.13012756541E+02 -0.18003495591E+03  0.19133699400E+03  0.41800000000E+01 0.  1.
         -5    1    3    3    0  502 -0.38572397714E+02 -0.45795337972E+02 -0.78855287348E+02  0.99099301653E+02  0.41800000000E+01 0.  1.
        -11    1    1    2    0    0  0.13732533305E+02  0.56532870303E+01  0.30324819879E+02  0.33765912189E+02  0.00000000000E+00 0. -1.
         11    1    1    2    0    0 -0.38488294349E+02  0.27129294401E+02 -0.49211196857E+02  0.68110860460E+02  0.00000000000E+00 0.  1.
</event>
<event>
 7    1  0.2412631E-010  0.2906245E+03  0.7561462E-02  0.1090024E+00
          1   -1    0    0  501    0  0.00000000000E+00  0.00000000000E+00  0.81436507364E+03  0.81436507364E+03  0.00000000000E+00 0. -1.
         -1   -1    0    0    0  501 -0.00000000000E+00 -0.00000000000E+00 -0.11049052517E+03  0.11049052517E+03  0.00000000000E+00 0.  1.
         25    2    1    2    0    0  0.26485021085E+03 -0.82961518361E+02  0.41626989711E+03  0.51571632461E+03  0.12511775459E+03 0.  0.
          5    1    3    3  502    0 -0.15697313369E+01  0.18139962780E+02  0.35399486801E+02  0.40026470889E+02  0.41800000000E+01 0. -1.
         -5    1    3    3    0  502  0.26641994219E+03 -0.10110148114E+03  0.38087041031E+03  0.47568985372E+03  0.41800000000E+01 0. -1.
        -11    1    1    2    0    0 -0.70758816288E+02  0.20004456403E+02  0.27400784119E+02  0.78471595681E+02  0.00000000000E+00 0.  1.
         11    1    1    2    0    0 -0.19409139456E+03  0.62957061958E+02  0.26020386724E+03  0.33066767852E+03  0.00000000000E+00 0. -1.
</event>
<event>
 7    1  0.2412631E-010  0.7938658E+02  0.7561462E-02  0.1330801E+00
         -2   -1    0    0    0  501 -0.00000000000E+00  0.00000000000E+00  0.63536471960E+02  0.63536471960E+02  0.00000000000E+00 0.  1.
          2   -1    0    0  501    0  0.00000000000E+00 -0.00000000000E+00 -0.55087260218E+03  0.55087260218E+03  0.00000000000E+00 0. -1.
         25    2    1    2    0    0 -0.52476580465E+02 -0.12828013446E+02 -0.48669115687E+03  0.50539729744E+03  0.12505917261E+03 0.  0.
          5    1    3    3  502    0  0.12377731303E+02  0.19620406203E+02 -0.34833700731E+03  0.34913365869E+03  0.41800000000E+01 0.  1.
         -5    1    3    3    0  502 -0.64854311768E+02 -0.32448419648E+02 -0.13835414957E+03  0.15626363875E+03  0.41800000000E+01 0.  1.
        -11    1    1    2    0    0  0.48022830725E+02 -0.10011575512E+01  0.42095892764E+02  0.63869075262E+02  0.00000000000E+00 0.  1.
         11    1    1    2    0    0  0.44537497404E+01  0.13829170997E+02 -0.42740866113E+02  0.45142701440E+02  0.00000000000E+00 0. -1.
</event>
<event>
 7    1  0.2412631E-010  0.1284424E+03  0.7561462E-02  0.1229785E+00
         -3   -1    0    0    0  501 -0.00000000000E+00  0.00000000000E+00  0.54618061269E+02  0.54618061269E+02  0.00000000000E+00 0.  1.
          3   -1    0    0  501    0  0.00000000000E+00 -0.00000000000E+00 -0.35608141072E+03  0.35608141072E+03  0.00000000000E+00 0. -1.
         25    2    1    2    0    0  0.38660866311E+02  0.75387747582E+02 -0.12878658634E+03  0.19855904545E+03  0.12514685229E+03 0.  0.
          5    1    3    3  502    0  0.26620027862E+02  0.10269164517E+03 -0.13067507885E+03  0.16836759933E+03  0.41800000000E+01 0.  1.
         -5    1    3    3    0  502  0.12040838449E+02 -0.27303897593E+02  0.18884925155E+01  0.30191446112E+02  0.41800000000E+01 0.  1.
        -11    1    1    2    0    0 -0.53488840367E+02 -0.11125685799E+02 -0.10035983576E+03  0.11426693993E+03  0.00000000000E+00 0. -1.
         11    1    1    2    0    0  0.14827974056E+02 -0.64262061783E+02 -0.72316927355E+02  0.97873486610E+02  0.00000000000E+00 0.  1.
</event>
<event>
 7    1  0.2412631E-010  0.1365331E+03  0.7561462E-02  0.1218072E+00
         -2   -1    0    0    0  501 -0.00000000000E+00  0.00000000000E+00  0.55590942137E+02  0.55590942137E+02  0.00000000000E+00 0. -1.
          2   -1    0    0  501    0  0.00000000000E+00 -0.00000000000E+00 -0.62010344128E+03  0.62010344128E+03  0.00000000000E+00 0.  1.
         25    2    1    2    0    0  0.38615950088E+02 -0.11453153779E+03 -0.13422148489E+03  0.21973368369E+03  0.12513520684E+03 0.  0.
          5    1    3    3  502    0  0.34152928208E+01 -0.31949707135E+02  0.22239188029E+02  0.39300151339E+02  0.41800000000E+01 0. -1.
         -5    1    3    3    0  502  0.35200657267E+02 -0.82581830655E+02 -0.15646067292E+03  0.18043353235E+03  0.41800000000E+01 0. -1.
        -11    1    1    2    0    0 -0.35703665978E+02  0.13012400043E+03 -0.38193861411E+03  0.40507297145E+03  0.00000000000E+00 0.  1.
         11    1    1    2    0    0 -0.29122841095E+01 -0.15592462636E+02 -0.48352400136E+02  0.50887728273E+02  0.00000000000E+00 0. -1.
</event>
<event>
 7    1  0.2412631E-010  0.1262843E+03  0.7561462E-02  0.1233076E+00
         -3   -1    0    0    0  501 -0.00000000000E+00  0.00000000000E+00  0.51003852604E+02  0.51003852604E+02  0.00000000000E+00 0.  1.
          3   -1    0    0  501    0  0.00000000000E+00 -0.00000000000E+00 -0.31626504434E+03  0.31626504434E+03  0.00000000000E+00 0. -1.
         25    2    1    2    0    0 -0.51222611974E+02 -0.43792710844E+02 -0.16698905913E+03  0.21924082443E+03  0.12505852920E+03 0.  0.
          5    1    3    3  502    0 -0.73324314796E+02 -0.74037576495E+02 -0.11930960147E+03  0.15846220773E+03  0.41800000000E+01 0.  1.
         -5    1    3    3    0  502  0.22101702823E+02  0.30244865651E+02 -0.47679457653E+02  0.60778616700E+02  0.41800000000E+01 0.  1.
        -11    1    1    2    0    0 -0.24204233940E+02  0.20299604867E+02 -0.31109533650E+02  0.44336463349E+02  0.00000000000E+00 0.  1.
         11    1    1    2    0    0  0.75426845914E+02  0.23493105977E+02 -0.67162598961E+02  0.10369160917E+03  0.00000000000E+00 0. -1.
</event>
<event>
 7    1  0.2412631E-010  0.1311876E+03  0.7561462E-02  0.1225704E+00
         -3   -1    0    0    0  501 -0.00000000000E+00  0.00000000000E+00  0.11421979392E+02  0.11421979392E+02  0.00000000000E+00 0.  1.
          3   -1    0    0  501    0  0.00000000000E+00 -0.00000000000E+00 -0.16035678771E+04  0.16035678771E+04  0.00000000000E+00 0. -1.
         25    2    1    2    0    0 -0.18355180516E+01 -0.75568355430E+02 -0.10468211671E+04  0.10569690130E+04  0.12503996617E+03 0.  0.
          5    1    3    3  502    0 -0.25817672635E+01 -0.10999133693E+03 -0.73023136304E+03  0.73848498677E+03  0.41800000000E+01 0. -1.
         -5    1    3    3    0  502  0.74624921191E+00  0.34422981502E+02 -0.31658980408E+03  0.31848402628E+03  0.41800000000E+01 0. -1.
        -11    1    1    2    0    0  0.83261217316E+01 -0.20071745826E+02 -0.12769718849E+03  0.12953289633E+03  0.00000000000E+00 0. -1.
         11    1    1    2    0    0 -0.64906036801E+01  0.95640101256E+02 -0.41762754208E+03  0.42848794710E+03  0.00000000000E+00 0.  1.
</event>
<event>
 6    1  0.2412631E-010  0.1377860E+03  0.7561462E-02  0.1216340E+00
         -3   -1    0    0    0  501 -0.00000000000E+00  0.00000000000E+00  0.25403707915E+02  0.25403707915E+02  0.00000000000E+00 0.  1.
          3   -1    0    0  501    0  0.00000000000E+00 -0.00000000000E+00 -0.92754736052E+03  0.92754736052E+03  0.00000000000E+00 0. -1.
          5    1    1    2  502    0  0.10866647990E+03  0.63592869209E+01 -0.36159845061E+03  0.37765030950E+03  0.41800000000E+01 0.  1.
         -5    1    1    2    0  502 -0.14749409216E+02 -0.49928333303E+02 -0.22591941311E+03  0.23187806528E+03  0.41800000000E+01 0.  1.
        -11    1    1    2    0    0 -0.91174889724E+02  0.23499723839E+02 -0.30806299754E+03  0.32213026556E+03  0.00000000000E+00 0. -1.
         11    1    1    2    0    0 -0.27421809562E+01  0.20069322543E+02 -0.65627913433E+01  0.21292428090E+02  0.00000000000E+00 0.  1.
</event>
<event>
 6    1  0.2412631E-010  0.1181218E+03  0.7561462E-02  0.1246228E+00
          2   -1    0    0  501    0  0.00000000000E+00  0.00000000000E+00  0.39564733724E+03  0.39564733724E+03  0.00000000000E+00 0. -1.
         -2   -1    0    0    0  501 -0.00000000000E+00 -0.00000000000E+00 -0.43126970178E+02  0.43126970178E+02  0.00000000000E+00 0.  1.
          5    1    1    2  502    0  0.71258309755E+02 -0.28067074121E+02  0.52463655610E+02  0.92926933226E+02  0.41800000000E+01 0.  1.
         -5    1    1    2    0  502 -0.19180086271E+01  0.43833186702E+02  0.14425674413E+03  0.15083934381E+03  0.41800000000E+01 0.  1.
        -11    1    1    2    0    0 -0.19670945499E+02  0.37680647857E+02  0.41501765042E+02  0.59406849953E+02  0.00000000000E+00 0. -1.
         11    1    1    2    0    0 -0.49669355628E+02 -0.53446760438E+02  0.11429820228E+03  0.13560118043E+03  0.00000000000E+00 0.  1.
</event>
<event>
 6    1  0.2412631E-010  0.1098124E+03  0.7561462E-02  0.1260918E+00
         -1   -1    0    0    0  501 -0.00000000000E+00  0.00000000000E+00  0.13773215109E+03  0.13773215109E+03  0.00000000000E+00 0.  1.
          1   -1    0    0  501    0  0.00000000000E+00 -0.00000000000E+00 -0.12754677937E+03  0.12754677937E+03  0.00000000000E+00 0. -1.
          5    1    1    2  502    0  0.64558025512E+02  0.54187148775E+02 -0.18933969270E+02  0.86486723506E+02  0.41800000000E+01 0.  1.
         -5    1    1    2    0  502 -0.30012356682E+02 -0.28489277257E+02 -0.42423133254E+02  0.59410227296E+02  0.41800000000E+01 0.  1.
        -11    1    1    2    0    0 -0.45483189350E+02  0.17762928832E+02  0.25330606305E+02  0.55008015506E+02  0.00000000000E+00 0.  1.
         11    1    1    2    0    0  0.10937520521E+02 -0.43460800351E+02  0.46211867942E+02  0.64373964155E+02  0.00000000000E+00 0. -1.
</event>
<event>
 6    1  0.2412631E-010  0.9675954E+02  0.7561462E-02  0.1287262E+00
         -1   -1    0    0    0  501 -0.00000000000E+00  0.00000000000E+00  0.21035928439E+03  0.21035928439E+03  0.00000000000E+00 0.  1.
          1   -1    0    0  501    0  0.00000000000E+00 -0.00000000000E+00 -0.65574032933E+02  0.65574032933E+02  0.00000000000E+00 0. -1.
          5    1    1    2  502    0  0.62994410026E+02 -0.13407808956E+02  0.36511754376E+02  0.74152853237E+02  0.41800000000E+01 0.  1.
         -5    1    1    2    0  502 -0.47866670650E+02 -0.20439356590E+02  0.10818251158E+03  0.12012457562E+03  0.41800000000E+01 0.  1.
        -11    1    1    2    0    0 -0.18773576625E+02 -0.17274037502E+02  0.13243328392E+02  0.28744135016E+02  0.00000000000E+00 0.  1.
         11    1    1    2    0    0  0.36458372488E+01  0.51121203048E+02 -0.13152342883E+02  0.52911753454E+02  0.00000000000E+00 0. -1.
</event>
<event>
 6    1  0.2412631E-010  0.2208859E+03  0.7561462E-02  0.1133224E+00
         -2   -1    0    0    0  501 -0.00000000000E+00  0.00000000000E+00  0.52570654087E+02  0.52570654087E+02  0.00000000000E+00 0. -1.
          2   -1    0    0  501    0  0.00000000000E+00 -0.00000000000E+00 -0.10856826518E+04  0.10856826518E+04  0.00000000000E+00 0.  1.
          5    1    1    2  502    0  0.28595804803E+02 -0.10656105677E+02 -0.19761868685E+03  0.20000472603E+03  0.41800000000E+01 0.  1.
         -5    1    1    2    0  502 -0.24161587769E+02 -0.19614948403E+03 -0.46014766197E+03  0.50081108776E+03  0.41800000000E+01 0.  1.
        -11    1    1    2    0    0  0.23588928228E+02  0.78699459833E+02 -0.81819990586E+02  0.11595065059E+03  0.00000000000E+00 0. -1.
         11    1    1    2    0    0 -0.28023145262E+02  0.12810612987E+03 -0.29352565835E+03  0.32148684155E+03  0.00000000000E+00 0.  1.
</event>
<event>
 7    1  0.2412631E-010  0.1830254E+03  0.7561462E-02  0.1164907E+00
          1   -1    0    0  501    0  0.00000000000E+00  0.00000000000E+00  0.13329308472E+04  0.13329308472E+04  0.00000000000E+00 0. -1.
         -1   -1    0    0    0  501 -0.00000000000E+00 -0.00000000000E+00 -0.31934323883E+02  0.31934323883E+02  0.00000000000E+00 0.  1.
         25    2    1    2    0    0 -0.14125877424E+03  0.10320133013E+03  0.68531632925E+03  0.71827721214E+03  0.12513643160E+03 0.  0.
          5    1    3    3  502    0 -0.86607569512E+02  0.89593856869E+02  0.61779847153E+03  0.63025419801E+03  0.41800000000E+01 0.  1.
         -5    1    3    3    0  502 -0.54651204726E+02  0.13607473261E+02  0.67517857721E+02  0.88023014137E+02  0.41800000000E+01 0.  1.
        -11    1    1    2    0    0  0.78474714997E+02 -0.20585743171E+02  0.16183997854E+03  0.18103654981E+03  0.00000000000E+00 0.  1.
         11    1    1    2    0    0  0.62784059241E+02 -0.82615586959E+02  0.45384021552E+03  0.46555140911E+03  0.00000000000E+00 0. -1.
</event>
<event>
 6    1  0.2412631E-010  0.1337764E+03  0.7561462E-02  0.1221957E+00
          3   -1    0    0  501    0  0.00000000000E+00  0.00000000000E+00  0.41517427116E+02  0.41517427116E+02  0.00000000000E+00 0. -1.
         -3   -1    0    0    0  501 -0.00000000000E+00 -0.00000000000E+00 -0.50619644418E+03  0.50619644418E+03  0.00000000000E+00 0.  1.
          5    1    1    2  502    0  0.10928600244E+02  0.47780044881E+02 -0.97441652067E+02  0.10915454617E+03  0.41800000000E+01 0.  1.
         -5    1    1    2    0  502 -0.93434393410E+02 -0.20959008858E+02 -0.81276678153E+02  0.12566875799E+03  0.41800000000E+01 0.  1.
        -11    1    1    2    0    0  0.38917821862E+02  0.31244554474E+02 -0.15884539061E+03  0.16650128276E+03  0.00000000000E+00 0. -1.
         11    1    1    2    0    0  0.43587971303E+02 -0.58065590497E+02 -0.12711529624E+03  0.14638928438E+03  0.00000000000E+00 0.  1.
</event>
<event>
 7    1  0.2412631E-010  0.1712584E+03  0.7561462E-02  0.1176542E+00
         -2   -1    0    0    0  501 -0.00000000000E+00  0.00000000000E+00  0.17664380468E+02  0.17664380468E+02  0.00000000000E+00 0. -1.
          2   -1    0    0  501    0  0.00000000000E+00 -0.00000000000E+00 -0.16888238804E+04  0.16888238804E+04  0.00000000000E+00 0.  1.
         25    2    1    2    0    0 -0.27524246911E+02 -0.13116165798E+03 -0.94285870818E+03  0.96052012907E+03  0.12512158116E+03 0.  0.
          5    1    3    3  502    0 -0.56540539843E+02 -0.14123759278E+03 -0.79767689278E+03  0.81206575345E+03  0.41800000000E+01 0. -1.
         -5    1    3    3    0  502  0.29016292932E+02  0.10075934797E+02 -0.14518181540E+03  0.14845437562E+03  0.41800000000E+01 0. -1.
        -11    1    1    2    0    0  0.58725978741E+02  0.77271784637E+02 -0.49968298500E+03  0.50902136966E+03  0.00000000000E+00 0.  1.
         11    1    1    2    0    0 -0.31201731830E+02  0.53889873345E+02 -0.22861780678E+03  0.23694676216E+03  0.00000000000E+00 0. -1.
</event>
<event>
 6    1  0.2412631E-010  0.9940353E+02  0.7561462E-02  0.1281555E+00
          1   -1    0    0  501    0  0.00000000000E+00  0.00000000000E+00  0.27585088801E+02  0.27585088801E+02  0.00000000000E+00 0. -1.
         -1   -1    0    0    0  501 -0.00000000000E+00 -0.00000000000E+00 -0.53724838231E+03  0.53724838231E+03  0.00000000000E+00 0.  1.
          5    1    1    2  502    0 -0.17597687097E+02  0.48114219000E+02 -0.36471006831E+02  0.63025894682E+02  0.41800000000E+01 0.  1.
         -5    1    1    2    0  502 -0.33841550924E+02 -0.51505815283E+02 -0.20069042193E+03  0.20998146925E+03  0.41800000000E+01 0.  1.
        -11    1    1    2    0    0  0.19772869004E+02 -0.32330771658E+02 -0.20885893551E+03  0.21226940450E+03  0.00000000000E+00 0.  1.
         11    1    1    2    0    0  0.31666369016E+02  0.35722367941E+02 -0.63642929238E+02  0.79556702672E+02  0.00000000000E+00 0. -1.
</event>
<event>
 6    1  0.2412631E-010  0.2675335E+03  0.7561462E-02  0.1102700E+00
         -1   -1    0    0    0  501 -0.00000000000E+00  0.00000000000E+00  0.14330528866E+03  0.14330528866E+03  0.00000000000E+00 0.  1.
          1   -1    0    0  501    0  0.00000000000E+00 -0.00000000000E+00 -0.98739698016E+03  0.98739698016E+03  0.00000000000E+00 0. -1.
          5    1    1    2  502    0  0.52630657826E+02  0.56066356115E+02 -0.10582145500E+03  0.13087809278E+03  0.41800000000E+01 0.  1.
         -5    1    1    2    0  502  0.59906276539E+02  0.17497736033E+03 -0.69990845049E+03  0.72394416225E+03  0.41800000000E+01 0.  1.
        -11    1    1    2    0    0 -0.68459453932E+02 -0.45140509108E+02 -0.15583973839E+02  0.83469890594E+02  0.00000000000E+00 0.  1.
         11    1    1    2    0    0 -0.44077480433E+02 -0.18590320734E+03 -0.22777812175E+02  0.19241012319E+03  0.00000000000E+00 0. -1.
</event>
<event>
 7    1  0.2412631E-010  0.1056390E+03  0.7561462E-02  0.1268866E+00
          2   -1    0    0  501    0  0.00000000000E+00  0.00000000000E+00  0.50558899401E+03  0.50558899401E+03  0.00000000000E+00 0. -1.
         -2   -1    0    0    0  501 -0.00000000000E+00 -0.00000000000E+00 -0.34397524097E+02  0.34397524097E+02  0.00000000000E+00 0.  1.
         25    2    1    2    0    0 -0.62467286486E+02  0.14444321221E+02  0.33937917784E+03  0.36733001110E+03  0.12506922246E+03 0.  0.
          5    1    3    3  502    0 -0.31541804548E+02  0.50470347004E+02  0.62602475989E+02  0.86479383444E+02  0.41800000000E+01 0.  1.
         -5    1    3    3    0  502 -0.30925481938E+02 -0.36026025782E+02  0.27677670185E+03  0.28085062765E+03  0.41800000000E+01 0.  1.
        -11    1    1    2    0    0  0.82681972555E+02 -0.12861049393E+02  0.12654297123E+03  0.15170642289E+03  0.00000000000E+00 0. -1.
         11    1    1    2    0    0 -0.20214686069E+02 -0.15832718280E+01  0.52693208408E+01  0.20950084121E+02  0.00000000000E+00 0.  1.
</event>
<event>
 7    1  0.2412631E-010  0.1785686E+03  0.7561462E-02  0.1169196E+00
          1   -1    0    0  501    0  0.00000000000E+00  0.00000000000E+00  0.68912991579E+03  0.68912991579E+03  0.00000000000E+00 0. -1.
         -1   -1    0    0    0  501 -0.00000000000E+00 -0.00000000000E+00 -0.53839413197E+02  0.53839413197E+02  0.00000000000E+00 0.  1.
         25    2    1    2    0    0  0.12799571048E+03 -0.80279816097E+02  0.42803208415E+03  0.47082504843E+03  0.12504803235E+03 0.  0.
          5    1    3    3  502    0 -0.14342299080E+02  0.17592705341E+02  0.43123631666E+02  0.48911397773E+02  0.41800000000E+01 0. -1.
         -5    1    3    3    0  502  0.14233800956E+03 -0.97872521438E+02  0.38490845248E+03  0.42191365065E+03  0.41800000000E+01 0. -1.
        -11    1    1    2    0    0 -0.93092950220E+01  0.31673071747E+02  0.60901661733E+01  0.33569875957E+02  0.00000000000E+00 0.  1.
         11    1    1    2    0    0 -0.11868641545E+03  0.48606744350E+02  0.20116825227E+03  0.23857440460E+03  0.00000000000E+00 0. -1.
</event>
<event>
 6    1  0.2412631E-010  0.7862157E+02  0.7561462E-02  0.1333009E+00
          2   -1    0    0  501    0  0.00000000000E+00  0.00000000000E+00  0.26522881412E+03  0.26522881412E+03  0.00000000000E+00 0. -1.
         -2   -1    0    0    0  501 -0.00000000000E+00 -0.00000000000E+00 -0.45805824750E+02  0.45805824750E+02  0.00000000000E+00 0.  1.
          5    1    1    2  502    0  0.28809584180E+02 -0.55736554311E+01  0.11147749398E+03  0.11535060399E+03  0.41800000000E+01 0. -1.
         -5    1    1    2    0  502 -0.37365046601E+02  0.37486784253E+01 -0.17168806528E+02  0.41502284455E+02  0.41800000000E+01 0. -1.
        -11    1    1    2    0    0 -0.30750008528E+02  0.28813043343E+02  0.64824785553E+02  0.77317574413E+02  0.00000000000E+00 0.  1.
         11    1    1    2    0    0  0.39305470948E+02 -0.26988066337E+02  0.60289516357E+02  0.76864176010E+02  0.00000000000E+00 0. -1.
</event>
<event>
 6    1  0.2412631E-010  0.9556418E+02  0.7561462E-02  0.1289910E+00
         -1   -1    0    0    0  501 -0.00000000000E+00  0.00000000000E+00  0.89490586249E+02  0.89490586249E+02  0.00000000000E+00 0.  1.
          1   -1    0    0  501    0  0.00000000000E+00 -0.00000000000E+00 -0.17303985741E+03  0.17303985741E+03  0.00000000000E+00 0. -1.
          5    1    1    2  502    0  0.51098085194E+02 -0.24518761233E+02  0.16029972483E+02  0.59047577264E+02  0.41800000000E+01 0.  1.
         -5    1    1    2    0  502 -0.71048655191E+01  0.65369792468E+02 -0.50804793801E+02  0.83200290591E+02  0.41800000000E+01 0.  1.
        -11    1    1    2    0    0 -0.45670645850E+02 -0.24220038428E+02 -0.73850468053E+02  0.90146046977E+02  0.00000000000E+00 0. -1.
         11    1    1    2    0    0  0.16774261750E+01 -0.16630992807E+02  0.25076018211E+02  0.30136528826E+02  0.00000000000E+00 0.  1.
</event>
<event>
 7    1  0.2412631E-010  0.1161308E+03  0.7561462E-02  0.1249620E+00
         -1   -1    0    0    0  501 -0.00000000000E+00  0.00000000000E+00  0.90754477401E+02  0.90754477401E+02  0.00000000000E+00 0.  1.
          1   -1    0    0  501    0  0.00000000000E+00 -0.00000000000E+00 -0.15677019774E+03  0.15677019774E+03  0.00000000000E+00 0. -1.
         25    2    1    2    0    0  0.45792638617E+02  0.26558176874E+02 -0.19819193144E+02  0.13729122831E+03  0.12511506082E+03 0.  0.
          5    1    3    3  502    0 -0.21012504941E+02 -0.35163008752E+02 -0.21027955231E+02  0.46234293004E+02  0.41800000000E+01 0. -1.
         -5    1    3    3    0  502  0.66805143558E+02  0.61721185626E+02  0.12087620869E+01  0.91056935302E+02  0.41800000000E+01 0. -1.
        -11    1    1    2    0    0  0.23056388161E+02 -0.20620890097E+02 -0.15893695117E+02  0.34776826881E+02  0.00000000000E+00 0. -1.
         11    1    1    2    0    0 -0.68849026778E+02 -0.59372867763E+01 -0.30302832074E+02  0.75456619950E+02  0.00000000000E+00 0.  1.
</event>
<event>
 7    1  0.2412631E-010  0.1440514E+03  0.7561462E-02  0.1207979E+00
          2   -1    0    0  501    0  0.00000000000E+00  0.00000000000E+00  0.12990390423E+03  0.12990390423E+03  0.00000000000E+00 0. -1.
         -2   -1    0    0    0  501 -0.00000000000E+00 -0.00000000000E+00 -0.18404312922E+03  0.18404312922E+03  0.00000000000E+00 0.  1.
         25    2    1    2    0    0 -0.67506777481E+02  0.54562081915E+02  0.59277841136E+01  0.15239117418E+03  0.12511492938E+03 0.  0.
          5    1    3    3  502    0 -0.51795673476E+02 -0.25234340193E+02  0.33055375422E+02  0.66555946091E+02  0.41800000000E+01 0.  1.
         -5    1    3    3    0  502 -0.15711104005E+02  0.79796422108E+02 -0.27127591308E+02  0.85835228085E+02  0.41800000000E+01 0.  1.
        -11    1    1    2    0    0 -0.17959616752E+02 -0.60614774672E+02 -0.16025497738E+02  0.65218979754E+02  0.00000000000E+00 0.  1.
         11    1    1    2    0    0  0.85466394233E+02  0.60526927572E+01 -0.44041511366E+02  0.96336879522E+02  0.00000000000E+00 0. -1.
</event>
<event>
 6    1  0.2412631E-010  0.9118678E+02  0.7561462E-02  0.1300003E+00
         -1   -1    0    0    0  501 -0.00000000000E+00  0.00000000000E+00  0.20147338692E+02  0.20147338692E+02  0.00000000000E+00 0.  1.
          1   -1    0    0  501    0  0.00000000000E+00 -0.00000000000E+00 -0.62487676827E+03  0.62487676827E+03  0.00000000000E+00 0. -1.
          5    1    1    2  502    0 -0.29639530678E+02  0.18059926324E+02 -0.23565358746E+03  0.23823255109E+03  0.41800000000E+01 0.  1.
         -5    1    1    2    0  502  0.59897968008E+02 -0.10772202788E+02 -0.67139595332E+02  0.90713861045E+02  0.41800000000E+01 0.  1.
        -11    1    1    2    0    0 -0.39190992522E+01  0.35744632519E+02 -0.18890807479E+03  0.19230002292E+03  0.00000000000E+00 0. -1.
         11    1    1    2    0    0 -0.26339338078E+02 -0.43032356056E+02 -0.11302817200E+03  0.12377767191E+03  0.00000000000E+00 0.  1.
</event>
<event>
 6    1  0.2412631E-010  0.1534084E+03  0.7561462E-02  0.1196346E+00
         -2   -1    0    0    0  501 -0.00000000000E+00  0.00000000000E+00  0.31581020766E+02  0.31581020766E+02  0.00000000000E+00 0.  1.
          2   -1    0    0  501    0  0.00000000000E+00 -0.00000000000E+00 -0.13042806295E+04  0.13042806295E+04  0.00000000000E+00 0. -1.
          5    1    1    2  502    0 -0.27575781149E+02 -0.80882530604E+02 -0.23373476801E+03  0.24890122868E+03  0.41800000000E+01 0.  1.
         -5    1    1    2    0  502 -0.44776144958E+02 -0.37841126736E+02 -0.76146923821E+03  0.76373406836E+03  0.41800000000E+01 0.  1.
        -11    1    1    2    0    0 -0.15713454672E+02  0.13814290048E+01 -0.50841337149E+02  0.53232157264E+02  0.00000000000E+00 0.  1.
         11    1    1    2    0    0  0.88065380780E+02  0.11734222834E+03 -0.22665426533E+03  0.26999419593E+03  0.00000000000E+00 0. -1.
</event>
<event>
 7    1  0.2412631E-010  0.1308482E+03  0.7561462E-02  0.1226202E+00
          1   -1    0    0  501    0  0.00000000000E+00  0.00000000000E+00  0.15581072717E+03  0.15581072717E+03  0.00000000000E+00 0. -1.
         -1   -1    0    0    0  501 -0.00000000000E+00 -0.00000000000E+00 -0.11428487127E+03  0.11428487127E+03  0.00000000000E+00 0.  1.
         25    2    1    2    0    0 -0.67266614274E+02  0.38570464178E+02  0.25412040628E+02  0.14937146050E+03  0.12511428096E+03 0.  0.
          5    1    3    3  502    0 -0.10324936040E+03  0.26686022695E+02  0.67842511193E+01  0.10693957496E+03  0.41800000000E+01 0.  1.
         -5    1    3    3    0  502  0.35982746124E+02  0.11884441483E+02  0.18627789509E+02  0.42431885534E+02  0.41800000000E+01 0.  1.
        -11    1    1    2    0    0 -0.43434762114E+01 -0.44760550847E+02 -0.63535488523E+01  0.45417400638E+02  0.00000000000E+00 0.  1.
         11    1    1    2    0    0  0.71610090485E+02  0.61900866687E+01  0.22467364132E+02  0.75306737303E+02  0.00000000000E+00 0. -1.
</event>
<event>
 7    1  0.2412631E-010  0.1301632E+03  0.7561462E-02  0.1227214E+00
          1   -1    0    0  501    0  0.00000000000E+00  0.00000000000E+00  0.20433464669E+03  0.20433464669E+03  0.00000000000E+00 0. -1.
         -1   -1    0    0    0  501 -0.00000000000E+00 -0.00000000000E+00 -0.12961856085E+03  0.12961856085E+03  0.00000000000E+00 0.  1.
         25    2    1    2    0    0  0.95703779271E+02 -0.54998281753E+01  0.11706067982E+03  0.19630290381E+03  0.12506864438E+03 0.  0.
          5    1    3    3  502    0  0.39306856169E+02 -0.47487464109E+02  0.10915125401E+03  0.12542550316E+03  0.41800000000E+01 0. -1.
         -5    1    3    3    0  502  0.56396923101E+02  0.41987635933E+02  0.79094258053E+01  0.70877400652E+02  0.41800000000E+01 0. -1.
        -11    1    1    2    0    0 -0.11180124103E+03  0.32239824849E+01 -0.46081752245E+02  0.12096875402E+03  0.00000000000E+00 0.  1.
         11    1    1    2    0    0  0.16097461762E+02  0.22758456904E+01  0.37371582755E+01  0.16681549711E+02  0.00000000000E+00 0. -1.
</event>
<event>
 7    1  0.2412631E-010  0.1365370E+03  0.7561462E-02  0.1218066E+00
          2   -1    0    0  501    0  0.00000000000E+00  0.00000000000E+00  0.35012725008E+03  0.35012725008E+03  0.00000000000E+00 0. -1.
         -2   -1    0    0    0  501 -0.00000000000E+00 -0.00000000000E+00 -0.62485302082E+02  0.62485302082E+02  0.00000000000E+00 0.  1.
         25    2    1    2    0    0 -0.99773326393E+02 -0.12164857804E+02  0.16535163287E+03  0.23040101800E+03  0.12506304881E+03 0.  0.
          5    1    3    3  502    0  0.23466547313E+02 -0.26051950674E+02  0.48170248542E+02  0.59726277477E+02  0.41800000000E+01 0. -1.
         -5    1    3    3    0  502 -0.12323987371E+03  0.13887092870E+02  0.11718138433E+03  0.17067474052E+03  0.41800000000E+01 0. -1.
        -11    1    1    2    0    0  0.60602274372E+02  0.33315937672E+02  0.11892108895E+03  0.13756748438E+03  0.00000000000E+00 0. -1.
         11    1    1    2    0    0  0.39171052021E+02 -0.21151079867E+02  0.33692261813E+01  0.44644049783E+02  0.00000000000E+00 0.  1.
</event>
<event>
 7    1  0.2412631E-010  0.1178143E+03  0.7561462E-02  0.1246747E+00
          1   -1    0    0  501    0  0.00000000000E+00  0.00000000000E+00  0.64251121929E+03  0.64251121929E+03  0.00000000000E+00 0. -1.
         -1   -1    0    0    0  501 -0.00000000000E+00 -0.00000000000E+00 -0.29331431977E+02  0.29331431977E+02  0.00000000000E+00 0.  1.
         25    2    1    2    0    0 -0.40469210352E+02  0.36157247365E+02  0.47028334416E+03  0.48964587988E+03  0.12506622389E+03 0.  0.
          5    1    3    3  502    0 -0.59617814701E+02 -0.20094938736E+02  0.13357291601E+03  0.14770675910E+03  0.41800000000E+01 0.  1.
         -5    1    3    3    0  502  0.19148604348E+02  0.56252186101E+02  0.33671042816E+03  0.34193912078E+03  0.41800000000E+01 0.  1.
        -11    1    1    2    0    0 -0.55698523167E+01 -0.60618423849E+02  0.75081382188E+02  0.96658318401E+02  0.00000000000E+00 0. -1.
         11    1    1    2    0    0  0.46039062669E+02  0.24461176484E+02  0.67815060957E+02  0.85538452985E+02  0.00000000000E+00 0.  1.
</event>
<event>
 7    1  0.2412631E-010  0.1273193E+03  0.7561462E-02  0.1231488E+00
         -2   -1    0    0    0  501 -0.00000000000E+00  0.00000000000E+00  0.15774367537E+03  0.15774367537E+03  0.00000000000E+00 0.  1.
          2   -1    0    0  501    0  0.00000000000E+00 -0.00000000000E+00 -0.23966365964E+03  0.23966365964E+03  0.00000000000E+00 0. -1.
         25    2    1    2    0    0 -0.42742674583E+02 -0.11283673324E+03 -0.15106809743E+03  0.23029805923E+03  0.12512618202E+03 0.  0.
          5    1    3    3  502    0  0.33838784945E+01 -0.54478925789E+02 -0.14564960204E+03  0.15559782442E+03  0.41800000000E+01 0. -1.
         -5    1    3    3    0  502 -0.46126553077E+02 -0.58357807453E+02 -0.54184953893E+01  0.74700234818E+02  0.41800000000E+01 0. -1.
        -11    1    1    2    0    0  0.44513518508E+02  0.72902152781E+02 -0.20665607450E+01  0.85442658452E+02  0.00000000000E+00 0. -1.
         11    1    1    2    0    0 -0.17708439254E+01  0.39934580461E+02  0.71214673911E+02  0.81666617323E+02  0.00000000000E+00 0.  1.
</event>
<event>
 7    1  0.2412631E-010  0.9854437E+02  0.7561462E-02  0.1283387E+00
          2   -1    0    0  501    0  0.00000000000E+00  0.00000000000E+00  0.44581277731E+02  0.44581277731E+02  0.00000000000E+00 0. -1.
         -2   -1    0    0    0  501 -0.00000000000E+00 -0.00000000000E+00 -0.27723788455E+03  0.27723788455E+03  0.00000000000E+00 0.  1.
         25    2    1    2    0    0  0.31765735065E+01 -0.74068316680E+00 -0.97315216568E+02  0.15849086004E+03  0.12505383684E+03 0.  0.
          5    1    3    3  502    0  0.22272340034E+02  0.58178132870E+02 -0.56442552626E+02  0.84166420987E+02  0.41800000000E+01 0. -1.
         -5    1    3    3    0  502 -0.19095766528E+02 -0.58918816037E+02 -0.40872663942E+02  0.74324439050E+02  0.41800000000E+01 0. -1.
        -11    1    1    2    0    0  0.34001715584E+02 -0.67126519838E+01 -0.11538831522E+03  0.12048086839E+03  0.00000000000E+00 0.  1.
         11    1    1    2    0    0 -0.37178289090E+02  0.74533351506E+01 -0.19953075034E+02  0.42847433854E+02  0.00000000000E+00 0. -1.
</event>
<event>
 7    1  0.2412631E-010  0.8893383E+02  0.7561462E-02  0.1305454E+00
          2   -1    0    0  501    0  0.00000000000E+00  0.00000000000E+00  0.61155523888E+03  0.61155523888E+03  0.00000000000E+00 0. -1.
         -2   -1    0    0    0  501 -0.00000000000E+00 -0.00000000000E+00 -0.25338842021E+02  0.25338842021E+02  0.00000000000E+00 0.  1.
         25    2    1    2    0    0 -0.62493806832E+02 -0.18363507206E+01  0.35627723920E+03  0.38274706488E+03  0.12511193557E+03 0.  0.
          5    1    3    3  502    0 -0.42837445765E+02 -0.26025532983E+02  0.38303154851E+02  0.63221667158E+02  0.41800000000E+01 0. -1.
         -5    1    3    3    0  502 -0.19656361067E+02  0.24189182262E+02  0.31797408435E+03  0.31952539772E+03  0.41800000000E+01 0. -1.
        -11    1    1    2    0    0  0.14746817135E+02 -0.33579119251E+02  0.15063388146E+03  0.15503416432E+03  0.00000000000E+00 0. -1.
         11    1    1    2    0    0  0.47746989697E+02  0.35415469972E+02  0.79305276202E+02  0.99112851699E+02  0.00000000000E+00 0.  1.
</event>
<event>
 6    1  0.2412631E-010  0.8402545E+02  0.7561462E-02  0.1318001E+00
         -4   -1    0    0    0  501 -0.00000000000E+00  0.00000000000E+00  0.21519885024E+03  0.21519885024E+03  0.00000000000E+00 0.  1.
          4   -1    0    0  501    0  0.00000000000E+00 -0.00000000000E+00 -0.10536284231E+03  0.10536284231E+03  0.00000000000E+00 0. -1.
          5    1    1    2  502    0 -0.97526252561E+00  0.67134307723E+02 -0.13675102627E+02  0.68647266823E+02  0.41800000000E+01 0. -1.
         -5    1    1    2    0  502  0.66347743894E+01 -0.54766471368E+02 -0.39010391034E+02  0.67695418057E+02  0.41800000000E+01 0. -1.
        -11    1    1    2    0    0 -0.82493422638E+01 -0.28215452254E+02  0.16532507572E+03  0.16791826599E+03  0.00000000000E+00 0.  1.
         11    1    1    2    0    0  0.25898304000E+01  0.15847615899E+02 -0.28035741285E+01  0.16300741673E+02  0.00000000000E+00 0. -1.
</event>
<event>
 7    1  0.2412631E-010  0.7737520E+02  0.7561462E-02  0.1336670E+00
         -2   -1    0    0    0  501 -0.00000000000E+00  0.00000000000E+00  0.90929478367E+02  0.90929478367E+02  0.00000000000E+00 0. -1.
          2   -1    0    0  501    0  0.00000000000E+00 -0.00000000000E+00 -0.14792493632E+03  0.14792493632E+03  0.00000000000E+00 0.  1.
         25    2    1    2    0    0 -0.75934330268E+01 -0.36577642449E+02 -0.15118973486E+02  0.13138148115E+03  0.12504769521E+03 0.  0.
          5    1    3    3  502    0  0.13086549486E+02 -0.31988657855E+02  0.51043257973E+02  0.61785261942E+02  0.41800000000E+01 0. -1.
         -5    1    3    3    0  502 -0.20679982513E+02 -0.45889845937E+01 -0.66162231458E+02  0.69596219207E+02  0.41800000000E+01 0. -1.
        -11    1    1    2    0    0  0.45851313462E+02  0.64079734722E+00 -0.13486666551E+02  0.47797947049E+02  0.00000000000E+00 0. -1.
         11    1    1    2    0    0 -0.38257880435E+02  0.35936845102E+02 -0.28389817916E+02  0.59674986490E+02  0.00000000000E+00 0.  1.
</event>
<event>
 7    1  0.2412631E-010  0.1020676E+03  0.7561462E-02  0.1276007E+00
         -1   -1    0    0    0  501 -0.00000000000E+00  0.00000000000E+00  0.29745874224E+02  0.29745874224E+02  0.00000000000E+00 0.  1.
          1   -1    0    0  501    0  0.00000000000E+00 -0.00000000000E+00 -0.46776344509E+03  0.46776344509E+03  0.00000000000E+00 0. -1.
         25    2    1    2    0    0  0.33919761176E+02  0.29139263574E+02 -0.27803261671E+03  0.30815040102E+03  0.12511949013E+03 0.  0.
          5    1    3    3  502    0  0.54987808561E+02 -0.12121903036E+02 -0.24417032227E+03  0.25061368339E+03  0.41800000000E+01 0. -1.
         -5    1    3    3    0  502 -0.21068047384E+02  0.41261166610E+02 -0.33862294439E+02  0.57536717627E+02  0.41800000000E+01 0. -1.
        -11    1    1    2    0    0  0.26170571454E+02  0.11528086066E+02 -0.40775107737E+02  0.49803664419E+02  0.00000000000E+00 0. -1.
         11    1    1    2    0    0 -0.60090332630E+02 -0.40667349640E+02 -0.11920984642E+03  0.13955525388E+03  0.00000000000E+00 0.  1.
</event>
<event>
 7    1  0.2412631E-010  0.8565759E+02  0.7561462E-02  0.1313722E+00
         -2   -1    0    0    0  501 -0.00000000000E+00  0.00000000000E+00  0.21213520858E+02  0.21213520858E+02  0.00000000000E+00 0.  1.
          2   -1    0    0  501    0  0.00000000000E+00 -0.00000000000E+00 -0.55246758863E+03  0.55246758863E+03  0.00000000000E+00 0. -1.
         25    2    1    2    0    0  0.57488947028E+01 -0.68638353175E+01 -0.33656269851E+03  0.35915514088E+03  0.12505120217E+03 0.  0.
          5    1    3    3  502    0  0.27270457961E+01  0.42404360912E+02 -0.40076654876E+02  0.58559177497E+02  0.41800000000E+01 0. -1.
         -5    1    3    3    0  502  0.30218489067E+01 -0.49268196229E+02 -0.29648604363E+03  0.30059596338E+03  0.41800000000E+01 0. -1.
        -11    1    1    2    0    0  0.31782923468E+02  0.21954753936E+02 -0.44239231267E+02  0.58730528924E+02  0.00000000000E+00 0.  1.
         11    1    1    2    0    0 -0.37531818171E+02 -0.15090918619E+02 -0.15045213799E+03  0.15579543969E+03  0.00000000000E+00 0. -1.
</event>
<event>
 7    1  0.2412631E-010  0.2851736E+03  0.7561462E-02  0.1092896E+00
         -2   -1    0    0    0  501 -0.00000000000E+00  0.00000000000E+00  0.33686588476E+03  0.33686588476E+03  0.00000000000E+00 0.  1.
          2   -1    0    0  501    0  0.00000000000E+00 -0.00000000000E+00 -0.24904394990E+03  0.24904394990E+03  0.00000000000E+00 0. -1.
         25    2    1    2    0    0  0.24052943175E+03 -0.12010561750E+03  0.52153225892E+02  0.30106133306E+03  0.12505279043E+03 0.  0.
          5    1    3    3  502    0  0.19129929080E+03 -0.30204362933E+02  0.39504091093E+02  0.19770120843E+03  0.41800000000E+01 0.  1.
         -5    1    3    3    0  502  0.49230140950E+02 -0.89901254571E+02  0.12649134799E+02  0.10336012463E+03  0.41800000000E+01 0.  1.
        -11    1    1    2    0    0 -0.96451919464E+02  0.19715007273E+02  0.46572782203E+02  0.10890674140E+03  0.00000000000E+00 0.  1.
         11    1    1    2    0    0 -0.14407751229E+03  0.10039061023E+03 -0.10904073233E+02  0.17594176020E+03  0.00000000000E+00 0. -1.
</event>
<event>
 6    1  0.2412631E-010  0.1943718E+03  0.7561462E-02  0.1154576E+00
         -2   -1    0    0    0  501 -0.00000000000E+00  0.00000000000E+00  0.51285592972E+02  0.51285592972E+02  0.00000000000E+00 0.  1.
          2   -1    0    0  501    0  0.00000000000E+00 -0.00000000000E+00 -0.96785431315E+03  0.96785431315E+03  0.00000000000E+00 0. -1.
          5    1    1    2  502    0 -0.65112706577E+01 -0.28012122552E+02 -0.17334769758E+02  0.33838473636E+02  0.41800000000E+01 0. -1.
         -5    1    1    2    0  502  0.88737624579E+02 -0.13286191920E+03 -0.62053107004E+03  0.64078306538E+03  0.41800000000E+01 0. -1.
        -11    1    1    2    0    0 -0.57654668949E+02  0.26851513954E+02 -0.11604640967E+03  0.13233228574E+03  0.00000000000E+00 0. -1.
         11    1    1    2    0    0 -0.24571684973E+02  0.13402252780E+03 -0.16265647072E+03  0.21218608137E+03  0.00000000000E+00 0.  1.
</event>
<event>
 7    1  0.2412631E-010  0.1279445E+03  0.7561462E-02  0.1230538E+00
          1   -1    0    0  501    0  0.00000000000E+00  0.00000000000E+00  0.27407824080E+03  0.27407824080E+03  0.00000000000E+00 0. -1.
         -1   -1    0    0    0  501 -0.00000000000E+00 -0.00000000000E+00 -0.76053301346E+02  0.76053301346E+02  0.00000000000E+00 0.  1.
         25    2    1    2    0    0  0.34995838011E+02  0.84824436625E+02  0.72292163751E+02  0.17113733869E+03  0.12506773376E+03 0.  0.
          5    1    3    3  502    0 -0.32348169989E+02  0.58851239324E+02 -0.22086675226E+01  0.67321787587E+02  0.41800000000E+01 0. -1.
         -5    1    3    3    0  502  0.67344007999E+02  0.25973197301E+02  0.74500831274E+02  0.10381555111E+03  0.41800000000E+01 0. -1.
        -11    1    1    2    0    0 -0.13204319417E+01 -0.82540024503E+02  0.51107112028E+02  0.97090350114E+02  0.00000000000E+00 0.  1.
         11    1    1    2    0    0 -0.33675406069E+02 -0.22844121228E+01  0.74625663673E+02  0.81903853337E+02  0.00000000000E+00 0. -1.
</event>
<event>
 6    1  0.2412631E-010  0.1305297E+03  0.7561462E-02  0.1226672E+00
          4   -1    0    0  501    0  0.00000000000E+00  0.00000000000E+00  0.35202378529E+02  0.35202378529E+02  0.00000000000E+00 0.  1.
         -4   -1    0    0    0  501 -0.00000000000E+00 -0.00000000000E+00 -0.52213921845E+03  0.52213921845E+03  0.00000000000E+00 0. -1.
          5    1    1    2  502    0 -0.17817580322E+02  0.93434063184E+02 -0.16756740495E+03  0.19272700364E+03  0.41800000000E+01 0. -1.
         -5    1    1    2    0  502 -0.35118590097E+02 -0.37376356562E+02 -0.66764226089E+02  0.84292595674E+02  0.41800000000E+01 0. -1.
        -11    1    1    2    0    0  0.55545163653E+01  0.22213793193E+02 -0.20123915037E+02  0.30484048558E+02  0.00000000000E+00 0.  1.
         11    1    1    2    0    0  0.47381654053E+02 -0.78271499814E+02 -0.23248129385E+03  0.24983794910E+03  0.00000000000E+00 0. -1.
</event>
<event>
 7    1  0.2412631E-010  0.1008270E+03  0.7561462E-02  0.1278567E+00
         -2   -1    0    0    0  501 -0.00000000000E+00  0.00000000000E+00  0.17283856130E+02  0.17283856130E+02  0.00000000000E+00 0.  1.
          2   -1    0    0  501    0  0.00000000000E+00 -0.00000000000E+00 -0.21875139988E+04  0.21875139988E+04  0.00000000000E+00 0. -1.
         25    2    1    2    0    0  0.59462467724E+02  0.49062171810E+02 -0.19392894588E+04  0.19448496832E+04  0.12511516072E+03 0.  0.
          5    1    3    3  502    0  0.28102256185E+02  0.45902187086E+01 -0.84673911320E+02  0.89431261697E+02  0.41800000000E+01 0.  1.
         -5    1    3    3    0  502  0.31360211539E+02  0.44471953102E+02 -0.18546155475E+04  0.18554184215E+04  0.41800000000E+01 0.  1.
        -11    1    1    2    0    0 -0.71461516580E+02 -0.66175552372E+02 -0.20194548382E+03  0.22420510815E+03  0.00000000000E+00 0. -1.
         11    1    1    2    0    0  0.11999048856E+02  0.17113380562E+02 -0.28995199974E+02  0.35743063512E+02  0.00000000000E+00 0.  1.
</event>
<event>
 6    1  0.2412631E-010  0.5564451E+02  0.7561462E-02  0.1417075E+00
         -1   -1    0    0    0  501 -0.00000000000E+00  0.00000000000E+00  0.10663246303E+03  0.10663246303E+03  0.00000000000E+00 0.  1.
          1   -1    0    0  501    0  0.00000000000E+00 -0.00000000000E+00 -0.13610157801E+03  0.13610157801E+03  0.00000000000E+00 0. -1.
          5    1    1    2  502    0  0.95188249974E+01 -0.18981182579E+02 -0.46238417178E+02  0.51052492051E+02  0.41800000000E+01 0.  1.
         -5    1    1    2    0  502  0.89175602794E-01  0.48244608943E+01  0.79090474399E+02  0.79347708952E+02  0.41800000000E+01 0.  1.
        -11    1    1    2    0    0 -0.13680151818E+02  0.47623608093E+02 -0.10720760639E+02  0.50696048270E+02  0.00000000000E+00 0.  1.
         11    1    1    2    0    0  0.40721512181E+01 -0.33466886408E+02 -0.51600411559E+02  0.61637791771E+02  0.00000000000E+00 0. -1.
</event>
<event>
 7    1  0.2412631E-010  0.8080312E+02  0.7561462E-02  0.1326788E+00
         -1   -1    0    0    0  501 -0.00000000000E+00  0.00000000000E+00  0.19225563186E+03  0.19225563186E+03  0.00000000000E+00 0.  1.
          1   -1    0    0  501    0  0.00000000000E+00 -0.00000000000E+00 -0.88478396578E+02  0.88478396578E+02  0.00000000000E+00 0. -1.
         25    2    1    2    0    0 -0.11449836905E+02 -0.43313029776E+02  0.11992502538E+03  0.17895670545E+03  0.12504548532E+03 0.  0.
          5    1    3    3  502    0 -0.14669068401E+02  0.12119116034E+02 -0.20266591109E+02  0.28111592918E+02  0.41800000000E+01 0. -1.
         -5    1    3    3    0  502  0.32192314969E+01 -0.55432145810E+02  0.14019161649E+03  0.15084511253E+03  0.41800000000E+01 0. -1.
        -11    1    1    2    0    0  0.41930850270E+02  0.35588403438E+02 -0.34928065397E+02  0.65151365420E+02  0.00000000000E+00 0. -1.
         11    1    1    2    0    0 -0.30481013366E+02  0.77246263370E+01  0.18780275303E+02  0.36625957575E+02  0.00000000000E+00 0.  1.
</event>
<event>
 7    1  0.2412631E-010  0.1095271E+03  0.7561462E-02  0.1261448E+00
         -1   -1    0    0    0  501 -0.00000000000E+00  0.00000000000E+00  0.11224506950E+03  0.11224506950E+03  0.00000000000E+00 0.  1.
          1   -1    0    0  501    0  0.00000000000E+00 -0.00000000000E+00 -0.13687702708E+03  0.13687702708E+03  0.00000000000E+00 0. -1.
         25    2    1    2    0    0 -0.43274134012E+02  0.12727550540E+02  0.26301104600E+02  0.13557088592E+03  0.12511225276E+03 0.  0.
          5    1    3    3  502    0 -0.31451240850E+01  0.62193095095E+02 -0.83015705297E+01  0.62962380485E+02  0.41800000000E+01 0.  1.
         -5    1    3    3    0  502 -0.40129009927E+02 -0.49465544555E+02  0.34602675130E+02  0.72608505438E+02  0.41800000000E+01 0.  1.
        -11    1    1    2    0    0 -0.29901384767E+01 -0.39328397880E+02  0.48444815420E+00  0.39444879236E+02  0.00000000000E+00 0.  1.
         11    1    1    2    0    0  0.46264272489E+02  0.26600847340E+02 -0.51417510329E+02  0.74106331420E+02  0.00000000000E+00 0. -1.
</event>
<event>
 7    1  0.2412631E-010  0.1577794E+03  0.7561462E-02  0.1191227E+00
          2   -1    0    0  501    0  0.00000000000E+00  0.00000000000E+00  0.15048367174E+04  0.15048367174E+04  0.00000000000E+00 0. -1.
         -2   -1    0    0    0  501 -0.00000000000E+00 -0.00000000000E+00 -0.22447818325E+02  0.22447818325E+02  0.00000000000E+00 0.  1.
         25    2    1    2    0    0 -0.58359938702E+02  0.12474150674E+03  0.55750812523E+03  0.58773938866E+03  0.12512375210E+03 0.  0.
          5    1    3    3  502    0 -0.47342943427E+02  0.32771383946E+02  0.40619312148E+03  0.41027508118E+03  0.41800000000E+01 0. -1.
         -5    1    3    3    0  502 -0.11016995274E+02  0.91970122792E+02  0.15131500374E+03  0.17746430748E+03  0.41800000000E+01 0. -1.
        -11    1    1    2    0    0 -0.92909681131E+01 -0.87285884645E+02  0.46619760184E+03  0.47438945151E+03  0.00000000000E+00 0.  1.
         11    1    1    2    0    0  0.67650906815E+02 -0.37455622093E+02  0.45868317202E+03  0.46515569557E+03  0.00000000000E+00 0. -1.
</event>
<event>
 7    1  0.2412631E-010  0.1179369E+03  0.7561462E-02  0.1246540E+00
         -1   -1    0    0    0  501 -0.00000000000E+00  0.00000000000E+00  0.39800266581E+02  0.39800266581E+02  0.00000000000E+00 0.  1.
          1   -1    0    0  501    0  0.00000000000E+00 -0.00000000000E+00 -0.40773385443E+03  0.40773385443E+03  0.00000000000E+00 0. -1.
         25    2    1    2    0    0  0.15725662431E+02 -0.63904493419E+02 -0.21580800147E+03  0.25795834864E+03  0.12505333021E+03 0.  0.
          5    1    3    3  502    0  0.29283899642E+02 -0.93063993607E+02 -0.19845474637E+03  0.22117914107E+03  0.41800000000E+01 0. -1.
         -5    1    3    3    0  502 -0.13558237211E+02  0.29159500188E+02 -0.17353255100E+02  0.36779207578E+02  0.41800000000E+01 0. -1.
        -11    1    1    2    0    0  0.17789474153E+02  0.69565254927E+02 -0.68208284255E+02  0.99036155644E+02  0.00000000000E+00 0.  1.
         11    1    1    2    0    0 -0.33515136584E+02 -0.56607615087E+01 -0.83917302120E+02  0.90539616722E+02  0.00000000000E+00 0. -1.
</event>
<event>
 6    1  0.2412631E-010  0.2695797E+03  0.7561462E-02  0.1101520E+00
         -2   -1    0    0    0  501 -0.00000000000E+00  0.00000000000E+00  0.13273634574E+04  0.13273634574E+04  0.00000000000E+00 0.  1.
          2   -1    0    0  501    0  0.00000000000E+00 -0.00000000000E+00 -0.61481824634E+02  0.61481824634E+02  0.00000000000E+00 0. -1.
          5    1    1    2  502    0  0.60121764246E+02 -0.52738045224E+02  0.22753432375E+03  0.24121622838E+03  0.41800000000E+01 0. -1.
         -5    1    1    2    0  502  0.18972524183E+03  0.60647031592E+02  0.62727617157E+03  0.65815393158E+03  0.41800000000E+01 0. -1.
        -11    1    1    2    0    0 -0.64693579406E+02  0.29258250556E+02  0.70545431743E+02  0.10008977161E+03  0.00000000000E+00 0. -1.
         11    1    1    2    0    0 -0.18515342667E+03 -0.37167236924E+02  0.34052570569E+03  0.38938535045E+03  0.00000000000E+00 0.  1.
</event>
<event>
 7    1  0.2412631E-010  0.1059350E+03  0.7561462E-02  0.1268288E+00
         -2   -1    0    0    0  501 -0.00000000000E+00  0.00000000000E+00  0.25240965012E+03  0.25240965012E+03  0.00000000000E+00 0.  1.
          2   -1    0    0  501    0  0.00000000000E+00 -0.00000000000E+00 -0.59864583122E+02  0.59864583122E+02  0.00000000000E+00 0. -1.
         25    2    1    2    0    0 -0.24076102023E+02  0.10017628412E+01  0.40617661526E+02  0.13366717567E+03  0.12504582043E+03 0.  0.
          5    1    3    3  502    0  0.46211603081E+02  0.84332821568E+01 -0.79250186507E+01  0.47821656473E+02  0.41800000000E+01 0.  1.
         -5    1    3    3    0  502 -0.70287705104E+02 -0.74315193156E+01  0.48542680176E+02  0.85845519200E+02  0.41800000000E+01 0.  1.
        -11    1    1    2    0    0  0.58717736641E+02 -0.54971674862E+01  0.95696222870E+02  0.11240888985E+03  0.00000000000E+00 0.  1.
         11    1    1    2    0    0 -0.34641634618E+02  0.44954046451E+01  0.56231182602E+02  0.66198167714E+02  0.00000000000E+00 0. -1.
</event>
<event>
 6    1  0.2412631E-010  0.1109036E+03  0.7561462E-02  0.1258906E+00
         -2   -1    0    0    0  501 -0.00000000000E+00  0.00000000000E+00  0.56449655908E+02  0.56449655908E+02  0.00000000000E+00 0.  1.
          2   -1    0    0  501    0  0.00000000000E+00 -0.00000000000E+00 -0.31486470864E+03  0.31486470864E+03  0.00000000000E+00 0. -1.
          5    1    1    2  502    0  0.41520806169E+02  0.25682527728E+02 -0.14605344258E+03  0.15405404917E+03  0.41800000000E+01 0.  1.
         -5    1    1    2    0  502 -0.24246318900E+02  0.50896808184E+02 -0.40401295565E+01  0.56675957075E+02  0.41800000000E+01 0.  1.
        -11    1    1    2    0    0 -0.51812580357E+02 -0.36560519522E+02 -0.74476580029E+02  0.97816031630E+02  0.00000000000E+00 0. -1.
         11    1    1    2    0    0  0.34538093088E+02 -0.40018816390E+02 -0.33844900569E+02  0.62768326678E+02  0.00000000000E+00 0.  1.
</event>
<event>
 6    1  0.2412631E-010  0.1121456E+03  0.7561462E-02  0.1256647E+00
          2   -1    0    0  501    0  0.00000000000E+00  0.00000000000E+00  0.28532400682E+03  0.28532400682E+03  0.00000000000E+00 0. -1.
         -2   -1    0    0    0  501 -0.00000000000E+00 -0.00000000000E+00 -0.94943777359E+02  0.94943777359E+02  0.00000000000E+00 0.  1.
          5    1    1    2  502    0 -0.66499988139E+02  0.43344415882E+02 -0.37669006922E+02  0.87962567568E+02  0.41800000000E+01 0.  1.
         -5    1    1    2    0  502 -0.29888798450E+02 -0.37636283987E+02  0.51422557110E+02  0.70509445643E+02  0.41800000000E+01 0.  1.
        -11    1    1    2    0    0  0.24502498713E+02 -0.11332482865E+01  0.13780027990E+03  0.13996633108E+03  0.00000000000E+00 0. -1.
         11    1    1    2    0    0  0.71886287876E+02 -0.45748836088E+01  0.38826399373E+02  0.81829439891E+02  0.00000000000E+00 0.  1.
</event>
<event>
 6    1  0.2412631E-010  0.1560474E+03  0.7561462E-02  0.1193233E+00
          2   -1    0    0  501    0  0.00000000000E+00  0.00000000000E+00  0.54769862287E+03  0.54769862287E+03  0.00000000000E+00 0. -1.
         -2   -1    0    0    0  501 -0.00000000000E+00 -0.00000000000E+00 -0.55257983887E+02  0.55257983887E+02  0.00000000000E+00 0.  1.
          5    1    1    2  502    0  0.72550975525E+02 -0.13185678851E+01  0.10429379562E+03  0.12712218877E+03  0.41800000000E+01 0. -1.
         -5    1    1    2    0  502  0.21082474780E+01 -0.10328798785E+03  0.23291209540E+03  0.25483008010E+03  0.41800000000E+01 0. -1.
        -11    1    1    2    0    0  0.34643290586E+01  0.22186514141E+02 -0.65046341113E+01  0.23378478361E+02  0.00000000000E+00 0.  1.
         11    1    1    2    0    0 -0.78123552062E+02  0.82420041590E+02  0.16173938207E+03  0.19762585953E+03  0.00000000000E+00 0. -1.
</event>
<event>
 7    1  0.2412631E-010  0.3779559E+03  0.7561462E-02  0.1051692E+00
         -2   -1    0    0    0  501 -0.00000000000E+00  0.00000000000E+00  0.17651252173E+03  0.17651252173E+03  0.00000000000E+00 0.  1.
          2   -1    0    0  501    0  0.00000000000E+00 -0.00000000000E+00 -0.98593769523E+03  0.98593769523E+03  0.00000000000E+00 0. -1.
         25    2    1    2    0    0 -0.34603153486E+03  0.12085008640E+03 -0.64174630023E+03  0.74954532041E+03  0.12504921827E+03 0.  0.
          5    1    3    3  502    0 -0.34891092880E+03  0.10779944547E+03 -0.63786206907E+03  0.73501363813E+03  0.41800000000E+01 0. -1.
         -5    1    3    3    0  502  0.28793939359E+01  0.13050640935E+02 -0.38842311608E+01  0.14531682283E+02  0.41800000000E+01 0. -1.
        -11    1    1    2    0    0  0.16409785435E+03 -0.10334090209E+03 -0.74445841266E+02  0.20772489290E+03  0.00000000000E+00 0. -1.
         11    1    1    2    0    0  0.18193368051E+03 -0.17509184316E+02 -0.93233032004E+02  0.20518000365E+03  0.00000000000E+00 0.  1.
</event>
<event>
 7    1  0.2412631E-010  0.1661360E+03  0.7561462E-02  0.1181938E+00
          1   -1    0    0  501    0  0.00000000000E+00  0.00000000000E+00  0.15623741567E+03  0.15623741567E+03  0.00000000000E+00 0. -1.
         -1   -1    0    0    0  501 -0.00000000000E+00 -0.00000000000E+00 -0.17434584453E+04  0.17434584453E+04  0.00000000000E+00 0.  1.
         25    2    1    2    0    0  0.13890046029E+03 -0.25233165002E+02 -0.16921460105E+04  0.17026280498E+04  0.12511636471E+03 0.  0.
          5    1    3    3  502    0  0.10928798943E+03 -0.73433444888E+02 -0.12162569176E+04  0.12233702209E+04  0.41800000000E+01 0.  1.
         -5    1    3    3    0  502  0.29612470860E+02  0.48200279886E+02 -0.47588909297E+03  0.47925782896E+03  0.41800000000E+01 0.  1.
        -11    1    1    2    0    0 -0.80344488853E+02  0.75657294443E+00  0.10670983510E+03  0.13357693738E+03  0.00000000000E+00 0. -1.
         11    1    1    2    0    0 -0.58555971435E+02  0.24476592058E+02 -0.17848542636E+01  0.63490873787E+02  0.00000000000E+00 0.  1.
</event>
<event>
 7    1  0.4112237E-010  0.1833306E+03  0.7561462E-02  0.1164618E+00
          2   -1    0    0  501    0  0.00000000000E+00  0.00000000000E+00  0.55606460112E+03  0.55606460112E+03  0.00000000000E+00 0. -1.
         -2   -1    0    0    0  501 -0.00000000000E+00 -0.00000000000E+00 -0.73681909058E+02  0.73681909058E+02  0.00000000000E+00 0.  1.
         25    2    1    2    0    0 -0.15188027968E+03 -0.77281268228E+02  0.23361149366E+03  0.31506883438E+03  0.12511605273E+03 0.  0.
          5    1    3    3  502    0 -0.73929611267E+02 -0.58078818336E+02  0.34312817548E+02  0.10016775134E+03  0.41800000000E+01 0.  1.
         -5    1    3    3    0  502 -0.77950668414E+02 -0.19202449893E+02  0.19929867611E+03  0.21490108303E+03  0.41800000000E+01 0.  1.
        -11    1    1    2    0    0  0.76285629048E+01  0.43295931666E+02  0.67193994660E+02  0.80297979982E+02  0.00000000000E+00 0. -1.
         11    1    1    2    0    0  0.14425171678E+03  0.33985336562E+02  0.18157720374E+03  0.23437969582E+03  0.00000000000E+00 0.  1.
</event>
<event>
 7    1  0.2412631E-010  0.1133502E+03  0.7561462E-02  0.1254489E+00
          3   -1    0    0  501    0  0.00000000000E+00  0.00000000000E+00  0.31700897428E+02  0.31700897428E+02  0.00000000000E+00 0. -1.
         -3   -1    0    0    0  501 -0.00000000000E+00 -0.00000000000E+00 -0.52596680058E+03  0.52596680058E+03  0.00000000000E+00 0.  1.
         25    2    1    2    0    0  0.49869035106E+02  0.33212856017E+02 -0.35284312006E+03  0.37911325125E+03  0.12505428992E+03 0.  0.
          5    1    3    3  502    0 -0.29905969431E+02 -0.18868063475E+02 -0.16081815211E+03  0.16471284489E+03  0.41800000000E+01 0. -1.
         -5    1    3    3    0  502  0.79775004537E+02  0.52080919492E+02 -0.19202496796E+03  0.21440040635E+03  0.41800000000E+01 0. -1.
        -11    1    1    2    0    0  0.14240794931E+02  0.10880876609E+02 -0.92044680528E+00  0.17945499112E+02  0.00000000000E+00 0. -1.
         11    1    1    2    0    0 -0.64109830037E+02 -0.44093732625E+02 -0.14050233628E+03  0.16060894765E+03  0.00000000000E+00 0.  1.
</event>
<event>
 6    1  0.2412631E-010  0.1841691E+03  0.7561462E-02  0.1163828E+00
         -1   -1    0    0    0  501 -0.00000000000E+00  0.00000000000E+00  0.51090257307E+02  0.51090257307E+02  0.00000000000E+00 0.  1.
          1   -1    0    0  501    0  0.00000000000E+00 -0.00000000000E+00 -0.10170669942E+04  0.10170669942E+04  0.00000000000E+00 0. -1.
          5    1    1    2  502    0  0.55837587871E+02  0.38192043150E+02 -0.16380571166E+03  0.17727451016E+03  0.41800000000E+01 0. -1.
         -5    1    1    2    0  502  0.60772279732E+01  0.11290864043E+03 -0.65527403971E+02  0.13075399365E+03  0.41800000000E+01 0. -1.
        -11    1    1    2    0    0  0.21815020211E+02 -0.59175003198E+02 -0.25835863009E+03  0.26594502788E+03  0.00000000000E+00 0. -1.
         11    1    1    2    0    0 -0.83729836055E+02 -0.91925680382E+02 -0.47828499117E+03  0.49418371982E+03  0.00000000000E+00 0.  1.
</event>
<event>
 7    1  0.2412631E-010  0.8667266E+02  0.7561462E-02  0.1311115E+00
          2   -1    0    0  501    0  0.00000000000E+00  0.00000000000E+00  0.60311313382E+03  0.60311313382E+03  0.00000000000E+00 0. -1.
         -2   -1    0    0    0  501 -0.00000000000E+00 -0.00000000000E+00 -0.26348814368E+02  0.26348814368E+02  0.00000000000E+00 0.  1.
         25    2    1    2    0    0  0.24681152220E+02 -0.32975479153E+02  0.44733046705E+03  0.46632009635E+03  0.12511332465E+03 0.  0.
          5    1    3    3  502    0 -0.29633030420E+02 -0.91385669338E+01  0.35578554509E+03  0.35715886716E+03  0.41800000000E+01 0. -1.
         -5    1    3    3    0  502  0.54314182640E+02 -0.23836912219E+02  0.91544921957E+02  0.10916122918E+03  0.41800000000E+01 0. -1.
        -11    1    1    2    0    0  0.23442356306E+02  0.24169126679E+02  0.11695318310E+02  0.35643670181E+02  0.00000000000E+00 0.  1.
         11    1    1    2    0    0 -0.48123508526E+02  0.88063524744E+01  0.11773853410E+03  0.12749818167E+03  0.00000000000E+00 0. -1.
</event>
<event>
 7    1  0.2412631E-010  0.3031478E+03  0.7561462E-02  0.1083678E+00
         -2   -1    0    0    0  501 -0.00000000000E+00  0.00000000000E+00  0.43053762763E+02  0.43053762763E+02  0.00000000000E+00 0.  1.
          2   -1    0    0  501    0  0.00000000000E+00 -0.00000000000E+00 -0.23793952231E+04  0.23793952231E+04  0.00000000000E+00 0. -1.
         25    2    1    2    0    0  0.22987947099E+03  0.17228822491E+03 -0.85346864906E+03  0.90916003163E+03  0.12504169130E+03 0.  0.
          5    1    3    3  502    0 -0.10477640643E+02  0.61552207566E+01 -0.93470115443E+01  0.15890460057E+02  0.41800000000E+01 0. -1.
         -5    1    3    3    0  502  0.24035711163E+03  0.16613300416E+03 -0.84412163752E+03  0.89326957158E+03  0.41800000000E+01 0. -1.
        -11    1    1    2    0    0 -0.83066454910E+02 -0.11883583800E+03 -0.76344320816E+03  0.77708913544E+03  0.00000000000E+00 0.  1.
         11    1    1    2    0    0 -0.14681301608E+03 -0.53452386910E+02 -0.71942960313E+03  0.73619981881E+03  0.00000000000E+00 0. -1.
</event>
<event>
 6    1  0.2412631E-010  0.9436792E+02  0.7561462E-02  0.1292606E+00
          1   -1    0    0  501    0  0.00000000000E+00  0.00000000000E+00  0.20935563040E+03  0.20935563040E+03  0.00000000000E+00 0. -1.
         -1   -1    0    0    0  501 -0.00000000000E+00 -0.00000000000E+00 -0.64713726895E+02  0.64713726895E+02  0.00000000000E+00 0.  1.
          5    1    1    2  502    0  0.51310169460E+02  0.23007704996E+02  0.32213005037E+02  0.64940265419E+02  0.41800000000E+01 0.  1.
         -5    1    1    2    0  502 -0.74112864676E+02 -0.22484398409E+01  0.55135095748E+02  0.92493909937E+02  0.41800000000E+01 0.  1.
        -11    1    1    2    0    0  0.27238595305E+02  0.84657111081E+01  0.76323750573E+02  0.81479594012E+02  0.00000000000E+00 0. -1.
         11    1    1    2    0    0 -0.44359000887E+01 -0.29224976263E+02 -0.19029947855E+02  0.35155587928E+02  0.00000000000E+00 0.  1.
</event>
<event>
 6    1  0.2412631E-010  0.8255187E+02  0.7561462E-02  0.1321962E+00
         -4   -1    0    0    0  501 -0.00000000000E+00  0.00000000000E+00  0.28921724309E+03  0.28921724309E+03  0.00000000000E+00 0.  1.
          4   -1    0    0  501    0  0.00000000000E+00 -0.00000000000E+00 -0.36811900572E+02  0.36811900572E+02  0.00000000000E+00 0. -1.
          5    1    1    2  502    0  0.54455036299E+02 -0.43201788066E+02  0.12112061492E+03  0.13971192229E+03  0.41800000000E+01 0. -1.
         -5    1    1    2    0  502 -0.20781882503E+02  0.55655872793E+02  0.76362852338E+02  0.96841212477E+02  0.41800000000E+01 0. -1.
        -11    1    1    2    0    0 -0.15092085722E+02 -0.51602729284E+01  0.65130922151E+02  0.67055473217E+02  0.00000000000E+00 0.  1.
         11    1    1    2    0    0 -0.18581068075E+02 -0.72938117991E+01 -0.10209046899E+02  0.22420535675E+02  0.00000000000E+00 0. -1.
</event>
<event>
 7    1  0.4010514E-010  0.1273191E+03  0.7561462E-02  0.1231489E+00
         -1   -1    0    0    0  501 -0.00000000000E+00  0.00000000000E+00  0.81707830235E+02  0.81707830235E+02  0.00000000000E+00 0.  1.
          1   -1    0    0  501    0  0.00000000000E+00 -0.00000000000E+00 -0.45236554179E+03  0.45236554179E+03  0.00000000000E+00 0. -1.
         25    2    1    2    0    0  0.33752065034E+02  0.10269355048E+03 -0.33708495882E+02  0.16874423498E+03  0.12511269695E+03 0.  0.
          5    1    3    3  502    0  0.31892162245E+02  0.28177176245E+02 -0.72832075092E+02  0.84457366973E+02  0.41800000000E+01 0.  1.
         -5    1    3    3    0  502  0.18599027897E+01  0.74516374240E+02  0.39123579211E+02  0.84286868007E+02  0.41800000000E+01 0.  1.
        -11    1    1    2    0    0  0.22152519513E+02 -0.67781763269E+02 -0.13183181728E+03  0.14988238589E+03  0.00000000000E+00 0.  1.
         11    1    1    2    0    0 -0.55904584548E+02 -0.34911787216E+02 -0.20511739839E+03  0.21544675115E+03  0.00000000000E+00 0. -1.
</event>
<event>
 7    1  0.2412631E-010  0.1378542E+03  0.7561462E-02  0.1216246E+00
          2   -1    0    0  501    0  0.00000000000E+00  0.00000000000E+00  0.27308084535E+03  0.27308084535E+03  0.00000000000E+00 0. -1.
         -2   -1    0    0    0  501 -0.00000000000E+00 -0.00000000000E+00 -0.75168014723E+02  0.75168014723E+02  0.00000000000E+00 0.  1.
         25    2    1    2    0    0 -0.16645562479E+02  0.89266106269E+02  0.87528311788E+02  0.17760337582E+03  0.12504495695E+03 0.  0.
          5    1    3    3  502    0  0.16554821130E+02  0.11008230759E+03  0.80818841447E+02  0.13762751934E+03  0.41800000000E+01 0.  1.
         -5    1    3    3    0  502 -0.33200383608E+02 -0.20816201316E+02  0.67094703413E+01  0.39975856479E+02  0.41800000000E+01 0.  1.
        -11    1    1    2    0    0 -0.24343334053E+01 -0.10195693853E+03  0.10640433916E+03  0.14738733556E+03  0.00000000000E+00 0.  1.
         11    1    1    2    0    0  0.19079895884E+02  0.12690832257E+02  0.39801796794E+01  0.23258148692E+02  0.00000000000E+00 0. -1.
</event>
<event>
 6    1  0.2412631E-010  0.9682768E+02  0.7561462E-02  0.1287112E+00
          2   -1    0    0  501    0  0.00000000000E+00  0.00000000000E+00  0.15369190229E+04  0.15369190229E+04  0.00000000000E+00 0. -1.
         -2   -1    0    0    0  501 -0.00000000000E+00 -0.00000000000E+00 -0.15237604314E+02  0.15237604314E+02  0.00000000000E+00 0.  1.
          5    1    1    2  502    0 -0.35687961443E+02 -0.54371679210E+01  0.80974268040E+02  0.88755269542E+02  0.41800000000E+01 0. -1.
         -5    1    1    2    0  502 -0.30423715039E+02  0.58161140515E+02  0.10763076854E+04  0.10783153651E+04  0.41800000000E+01 0. -1.
        -11    1    1    2    0    0  0.37685421514E+01 -0.21482611497E+02  0.10182857954E+02  0.24070627387E+02  0.00000000000E+00 0.  1.
         11    1    1    2    0    0  0.62343134330E+02 -0.31241361096E+02  0.35421660721E+03  0.36101536514E+03  0.00000000000E+00 0. -1.
</event>
<event>
 6    1  0.2412631E-010  0.1291788E+03  0.7561462E-02  0.1228679E+00
         -1   -1    0    0    0  501 -0.00000000000E+00  0.00000000000E+00  0.30687823744E+03  0.30687823744E+03  0.00000000000E+00 0.  1.
          1   -1    0    0  501    0  0.00000000000E+00 -0.00000000000E+00 -0.67910478626E+02  0.67910478626E+02  0.00000000000E+00 0. -1.
          5    1    1    2  502    0  0.71590264580E+02 -0.37766464085E+02  0.86580624195E+02  0.11859657954E+03  0.41800000000E+01 0. -1.
         -5    1    1    2    0  502 -0.40429693316E+02 -0.52804839323E+02  0.13569596535E+02  0.68003805097E+02  0.41800000000E+01 0. -1.
        -11    1    1    2    0    0 -0.46244382315E+02  0.79462953748E+02  0.66460157107E+02  0.11344538949E+03  0.00000000000E+00 0.  1.
         11    1    1    2    0    0  0.15083811052E+02  0.11108349660E+02  0.72357380976E+02  0.74742941939E+02  0.00000000000E+00 0. -1.
</event>
<event>
 6    1  0.2412631E-010  0.1013616E+03  0.7561462E-02  0.1277458E+00
         -2   -1    0    0    0  501 -0.00000000000E+00  0.00000000000E+00  0.31307186285E+02  0.31307186285E+02  0.00000000000E+00 0.  1.
          2   -1    0    0  501    0  0.00000000000E+00 -0.00000000000E+00 -0.50225085413E+03  0.50225085413E+03  0.00000000000E+00 0. -1.
          5    1    1    2  502    0  0.74221901647E+02 -0.31586122867E+02 -0.66119619952E+02  0.10438319014E+03  0.41800000000E+01 0.  1.
         -5    1    1    2    0  502 -0.38610719864E+02  0.61407203742E+01 -0.10418997665E+03  0.11136211102E+03  0.41800000000E+01 0.  1.
        -11    1    1    2    0    0  0.96949353850E+01 -0.17628640156E+02 -0.14172611364E+02  0.24609421748E+02  0.00000000000E+00 0.  1.
         11    1    1    2    0    0 -0.45306117168E+02  0.43074042649E+02 -0.28646145988E+03  0.29320331751E+03  0.00000000000E+00 0. -1.
</event>
<event>
 7    1  0.2412631E-010  0.1041743E+03  0.7561462E-02  0.1271755E+00
          2   -1    0    0  501    0  0.00000000000E+00  0.00000000000E+00  0.20684793012E+03  0.20684793012E+03  0.00000000000E+00 0. -1.
         -2   -1    0    0    0  501 -0.00000000000E+00 -0.00000000000E+00 -0.96783257152E+02  0.96783257152E+02  0.00000000000E+00 0.  1.
         25    2    1    2    0    0  0.20658148786E+02  0.82875511244E+02  0.97766001540E+02  0.18026139490E+03  0.12506346373E+03 0.  0.
          5    1    3    3  502    0  0.72154892960E+01  0.30322046030E+02  0.11807276356E+03  0.12218895063E+03  0.41800000000E+01 0.  1.
         -5    1    3    3    0  502  0.13442659490E+02  0.52553465214E+02 -0.20306762020E+02  0.58072444273E+02  0.41800000000E+01 0.  1.
        -11    1    1    2    0    0  0.13517357976E+02 -0.87024538240E+02  0.12444905657E+02  0.88943043007E+02  0.00000000000E+00 0.  1.
         11    1    1    2    0    0 -0.34175506762E+02  0.41490269960E+01 -0.14623422515E+00  0.34426749366E+02  0.00000000000E+00 0. -1.
</event>
<event>
 6    1  0.2412631E-010  0.1267114E+03  0.7561462E-02  0.1232419E+00
         -3   -1    0    0    0  501 -0.00000000000E+00  0.00000000000E+00  0.12862033945E+03  0.12862033945E+03  0.00000000000E+00 0.  1.
          3   -1    0    0  501    0  0.00000000000E+00 -0.00000000000E+00 -0.15843415807E+03  0.15843415807E+03  0.00000000000E+00 0. -1.
          5    1    1    2  502    0 -0.20164786033E+02 -0.31944806130E+02  0.64931010058E+01  0.38558034119E+02  0.41800000000E+01 0.  1.
         -5    1    1    2    0  502 -0.27232589774E+02  0.11058188723E+03 -0.33917323066E+02  0.11890258590E+03  0.41800000000E+01 0.  1.
        -11    1    1    2    0    0  0.32778226689E+02 -0.14802396818E+02  0.38264512447E+02  0.52513769711E+02  0.00000000000E+00 0.  1.
         11    1    1    2    0    0  0.14619149118E+02 -0.63834684284E+02 -0.40654109007E+02  0.77080107795E+02  0.00000000000E+00 0. -1.
</event>
<event>
 6    1  0.2412631E-010  0.9932982E+02  0.7561462E-02  0.1281712E+00
         -2   -1    0    0    0  501 -0.00000000000E+00  0.00000000000E+00  0.76590633517E+02  0.76590633517E+02  0.00000000000E+00 0.  1.
          2   -1    0    0  501    0  0.00000000000E+00 -0.00000000000E+00 -0.20414636839E+03  0.20414636839E+03  0.00000000000E+00 0. -1.
          5    1    1    2  502    0  0.53231336450E+01  0.36221194159E+02  0.26725503367E+02  0.45519617621E+02  0.41800000000E+01 0.  1.
         -5    1    1    2    0  502  0.50911423412E+02 -0.93848322186E+01 -0.99169238243E+02  0.11194667625E+03  0.41800000000E+01 0.  1.
        -11    1    1    2    0    0  0.22644198439E+02 -0.20828512436E+02 -0.10857311346E+02  0.32626183701E+02  0.00000000000E+00 0.  1.
         11    1    1    2    0    0 -0.78878755496E+02 -0.60078495048E+01 -0.44254688651E+02  0.90644524335E+02  0.00000000000E+00 0. -1.
</event>
<event>
 7    1  0.2412631E-010  0.1199829E+03  0.7561462E-02  0.1243125E+00
          2   -1    0    0  501    0  0.00000000000E+00  0.00000000000E+00  0.15641560591E+03  0.15641560591E+03  0.00000000000E+00 0. -1.
         -2   -1    0    0    0  501 -0.00000000000E+00 -0.00000000000E+00 -0.12822290973E+03  0.12822290973E+03  0.00000000000E+00 0.  1.
         25    2    1    2    0    0 -0.43999273372E+02  0.34288697662E+02 -0.57258279807E+02  0.14849880269E+03  0.12514684554E+03 0.  0.
          5    1    3    3  502    0  0.43599795825E+01 -0.44248107798E+02 -0.17181329675E+02  0.47849503185E+02  0.41800000000E+01 0.  1.
         -5    1    3    3    0  502 -0.48359252954E+02  0.78536805460E+02 -0.40076950133E+02  0.10064929950E+03  0.41800000000E+01 0.  1.
        -11    1    1    2    0    0 -0.26056149775E+02 -0.29062780286E+01  0.37061634322E+02  0.45397512396E+02  0.00000000000E+00 0. -1.
         11    1    1    2    0    0  0.70055423147E+02 -0.31382419633E+02  0.48389341666E+02  0.90742200553E+02  0.00000000000E+00 0.  1.
</event>
<event>
 6    1  0.2412631E-010  0.1536591E+03  0.7561462E-02  0.1196048E+00
          2   -1    0    0  501    0  0.00000000000E+00  0.00000000000E+00  0.22294275999E+03  0.22294275999E+03  0.00000000000E+00 0. -1.
         -2   -1    0    0    0  501 -0.00000000000E+00 -0.00000000000E+00 -0.11828033165E+03  0.11828033165E+03  0.00000000000E+00 0.  1.
          5    1    1    2  502    0  0.46067941099E+02 -0.96300076522E+02  0.78248400350E+02  0.13242448600E+03  0.41800000000E+01 0.  1.
         -5    1    1    2    0  502 -0.57467064772E+02 -0.15536627652E+02  0.22561400513E+02  0.63799212577E+02  0.41800000000E+01 0.  1.
        -11    1    1    2    0    0 -0.37076873253E+02  0.48654346668E+02 -0.15376713339E+02  0.63074426617E+02  0.00000000000E+00 0.  1.
         11    1    1    2    0    0  0.48475996927E+02  0.63182357506E+02  0.19229340818E+02  0.81924966441E+02  0.00000000000E+00 0. -1.
</event>
<event>
 7    1  0.2881487E-010  0.2630990E+03  0.7561462E-02  0.1105295E+00
         -1   -1    0    0    0  501 -0.00000000000E+00  0.00000000000E+00  0.65517438831E+03  0.65517438831E+03  0.00000000000E+00 0.  1.
          1   -1    0    0  501    0  0.00000000000E+00 -0.00000000000E+00 -0.10865076753E+03  0.10865076753E+03  0.00000000000E+00 0. -1.
         25    2    1    2    0    0 -0.23815356997E+03 -0.52078475865E+02  0.28140858579E+03  0.39276198747E+03  0.12506756616E+03 0.  0.
          5    1    3    3  502    0 -0.47131475938E+02 -0.59120183992E+02  0.42738880446E+02  0.86952035520E+02  0.41800000000E+01 0.  1.
         -5    1    3    3    0  502 -0.19102209403E+03  0.70417081270E+01  0.23866970534E+03  0.30580995195E+03  0.41800000000E+01 0.  1.
        -11    1    1    2    0    0  0.42629461303E+02  0.47326511791E+02  0.57109436801E+02  0.85548567849E+02  0.00000000000E+00 0.  1.
         11    1    1    2    0    0  0.19552410866E+03  0.47519640740E+01  0.20800559820E+03  0.28551460052E+03  0.00000000000E+00 0. -1.
</event>
<event>
 6    1  0.2412631E-010  0.1179743E+03  0.7561462E-02  0.1246477E+00
         -2   -1    0    0    0  501 -0.00000000000E+00  0.00000000000E+00  0.79060325860E+02  0.79060325860E+02  0.00000000000E+00 0.  1.
          2   -1    0    0  501    0  0.00000000000E+00 -0.00000000000E+00 -0.46040815393E+03  0.46040815393E+03  0.00000000000E+00 0. -1.
          5    1    1    2  502    0  0.21890260710E+02  0.12493886022E+02 -0.29071332341E+03  0.29183383887E+03  0.41800000000E+01 0.  1.
         -5    1    1    2    0  502 -0.32146055425E+01  0.76035470808E+02 -0.83666410702E+02  0.11317803316E+03  0.41800000000E+01 0.  1.
        -11    1    1    2    0    0  0.21792015464E+02  0.12658341161E+02 -0.32824953173E+01  0.25414568940E+02  0.00000000000E+00 0. -1.
         11    1    1    2    0    0 -0.40467670631E+02 -0.10118769799E+03 -0.36855986325E+01  0.10904203881E+03  0.00000000000E+00 0.  1.
</event>
<event>
 7    1  0.2412631E-010  0.1021847E+03  0.7561462E-02  0.1275768E+00
          4   -1    0    0  501    0  0.00000000000E+00  0.00000000000E+00  0.26028647499E+02  0.26028647499E+02  0.00000000000E+00 0.  1.
         -4   -1    0    0    0  501 -0.00000000000E+00 -0.00000000000E+00 -0.66734596871E+03  0.66734596871E+03  0.00000000000E+00 0. -1.
         25    2    1    2    0    0 -0.73707234845E+02  0.17484584510E+01 -0.33736912587E+03  0.36730245534E+03  0.12512934522E+03 0.  0.
          5    1    3    3  502    0 -0.77609894183E+02 -0.15479137062E+02 -0.92686144810E+02  0.12194709180E+03  0.41800000000E+01 0. -1.
         -5    1    3    3    0  502  0.39026593378E+01  0.17227595513E+02 -0.24468298106E+03  0.24535536354E+03  0.41800000000E+01 0. -1.
        -11    1    1    2    0    0  0.16874002163E+02  0.35300302830E+02 -0.18540516269E+03  0.18948856874E+03  0.00000000000E+00 0.  1.
         11    1    1    2    0    0  0.56833232682E+02 -0.37048761281E+02 -0.11854303264E+03  0.13658359212E+03  0.00000000000E+00 0. -1.
</event>
<event>
 7    1  0.2412631E-010  0.1055826E+03  0.7561462E-02  0.1268976E+00
         -1   -1    0    0    0  501 -0.00000000000E+00  0.00000000000E+00  0.69686377652E+02  0.69686377652E+02  0.00000000000E+00 0.  1.
          1   -1    0    0  501    0  0.00000000000E+00 -0.00000000000E+00 -0.20209530680E+03  0.20209530680E+03  0.00000000000E+00 0. -1.
         25    2    1    2    0    0 -0.27822458201E+02  0.36632205929E+01 -0.50240972345E+02  0.13772524272E+03  0.12512625150E+03 0.  0.
          5    1    3    3  502    0 -0.40112628052E+02  0.58181951745E+02 -0.38053998056E+02  0.80372517729E+02  0.41800000000E+01 0.  1.
         -5    1    3    3    0  502  0.12290169851E+02 -0.54518731152E+02 -0.12186974289E+02  0.57352724990E+02  0.41800000000E+01 0.  1.
        -11    1    1    2    0    0 -0.12841853853E+02  0.29294884681E+02 -0.74600947531E+02  0.81168989469E+02  0.00000000000E+00 0. -1.
         11    1    1    2    0    0  0.40664312055E+02 -0.32958105273E+02 -0.75670092753E+01  0.52887452269E+02  0.00000000000E+00 0.  1.
</event>
<event>
 7    1  0.3439243E-010  0.1010832E+03  0.7561462E-02  0.1278034E+00
         -2   -1    0    0    0  501 -0.00000000000E+00  0.00000000000E+00  0.44759510122E+02  0.44759510122E+02  0.00000000000E+00 0.  1.
          2   -1    0    0  501    0  0.00000000000E+00 -0.00000000000E+00 -0.34269966046E+03  0.34269966046E+03  0.00000000000E+00 0. -1.
         25    2    1    2    0    0  0.57394775790E+02  0.16658123776E+01 -0.19380422669E+03  0.23769498647E+03  0.12506755411E+03 0.  0.
          5    1    3    3  502    0 -0.19655298972E+02  0.18691172981E+02 -0.13862780043E+03  0.14131818771E+03  0.41800000000E+01 0.  1.
         -5    1    3    3    0  502  0.77050074762E+02 -0.17025360603E+02 -0.55176426254E+02  0.96376798758E+02  0.41800000000E+01 0.  1.
        -11    1    1    2    0    0  0.16123223477E+02 -0.13760739363E+02  0.63004981674E+00  0.21206443499E+02  0.00000000000E+00 0.  1.
         11    1    1    2    0    0 -0.73517999267E+02  0.12094926985E+02 -0.10476597347E+03  0.12855774061E+03  0.00000000000E+00 0. -1.
</event>
<event>
 7    1  0.2412631E-010  0.1151419E+03  0.7561462E-02  0.1251334E+00
          2   -1    0    0  501    0  0.00000000000E+00  0.00000000000E+00  0.86148922321E+02  0.86148922321E+02  0.00000000000E+00 0. -1.
         -2   -1    0    0    0  501 -0.00000000000E+00 -0.00000000000E+00 -0.16708388467E+03  0.16708388467E+03  0.00000000000E+00 0.  1.
         25    2    1    2    0    0  0.53534447612E+02 -0.22212102188E+02 -0.68107301079E+02  0.15378974290E+03  0.12511341253E+03 0.  0.
          5    1    3    3  502    0  0.13647294043E+02 -0.72263538434E+02 -0.39166871606E+02  0.83425319017E+02  0.41800000000E+01 0. -1.
         -5    1    3    3    0  502  0.39887153569E+02  0.50051436246E+02 -0.28940429473E+02  0.70364423882E+02  0.41800000000E+01 0. -1.
        -11    1    1    2    0    0 -0.31554118289E+02  0.48723465642E+02 -0.24603288246E+02  0.63047286045E+02  0.00000000000E+00 0.  1.
         11    1    1    2    0    0 -0.21980329323E+02 -0.26511363454E+02  0.11775626972E+02  0.36395778051E+02  0.00000000000E+00 0. -1.
</event>
<event>
 7    1  0.2412631E-010  0.8048941E+02  0.7561462E-02  0.1327668E+00
         -2   -1    0    0    0  501 -0.00000000000E+00  0.00000000000E+00  0.53820897352E+02  0.53820897352E+02  0.00000000000E+00 0.  1.
          2   -1    0    0  501    0  0.00000000000E+00 -0.00000000000E+00 -0.26248685935E+03  0.26248685935E+03  0.00000000000E+00 0. -1.
         25    2    1    2    0    0  0.74614157888E+01 -0.36185128990E+02 -0.79361457736E+02  0.15270641884E+03  0.12512383105E+03 0.  0.
          5    1    3    3  502    0  0.19117297990E+01 -0.48241445866E+02 -0.10937195677E+03  0.11962687465E+03  0.41800000000E+01 0.  1.
         -5    1    3    3    0  502  0.55496859898E+01  0.12056316876E+02  0.30010499039E+02  0.33079544189E+02  0.41800000000E+01 0.  1.
        -11    1    1    2    0    0 -0.29989050580E+02 -0.21352069586E+02 -0.63007708576E+02  0.72974141792E+02  0.00000000000E+00 0.  1.
         11    1    1    2    0    0  0.22527634791E+02  0.57537198575E+02 -0.66296795688E+02  0.90627196071E+02  0.00000000000E+00 0. -1.
</event>
<event>
 7    1  0.2412631E-010  0.9358007E+02  0.7561462E-02  0.1294407E+00
          1   -1    0    0  501    0  0.00000000000E+00  0.00000000000E+00  0.59923407274E+03  0.59923407274E+03  0.00000000000E+00 0. -1.
         -1   -1    0    0    0  501 -0.00000000000E+00 -0.00000000000E+00 -0.20894308976E+02  0.20894308976E+02  0.00000000000E+00 0.  1.
         25    2    1    2    0    0  0.13814047392E+02  0.18011209642E+02  0.32753092216E+03  0.35135817314E+03  0.12514323507E+03 0.  0.
          5    1    3    3  502    0  0.48598106612E+01 -0.35712238206E+02  0.25305608670E+02  0.44236048055E+02  0.41800000000E+01 0.  1.
         -5    1    3    3    0  502  0.89542367306E+01  0.53723447848E+02  0.30222531349E+03  0.30712212508E+03  0.41800000000E+01 0.  1.
        -11    1    1    2    0    0  0.19697818707E+02  0.31090258281E+02  0.10725516492E+03  0.11339435005E+03  0.00000000000E+00 0.  1.
         11    1    1    2    0    0 -0.33511866099E+02 -0.49101467923E+02  0.14355367669E+03  0.15537585852E+03  0.00000000000E+00 0. -1.
</event>
<event>
 7    1  0.2412631E-010  0.1215237E+03  0.7561462E-02  0.1240604E+00
          2   -1    0    0  501    0  0.00000000000E+00  0.00000000000E+00  0.10236183783E+04  0.10236183783E+04  0.00000000000E+00 0. -1.
         -2   -1    0    0    0  501 -0.00000000000E+00 -0.00000000000E+00 -0.28208568092E+02  0.28208568092E+02  0.00000000000E+00 0.  1.
         25    2    1    2    0    0  0.71028218804E+02 -0.26575611199E+02  0.85765729150E+03  0.87004644784E+03  0.12511403101E+03 0.  0.
          5    1    3    3  502    0  0.48635945394E+02  0.34316146525E+02  0.64292691183E+03  0.64568997162E+03  0.41800000000E+01 0.  1.
         -5    1    3    3    0  502  0.22392273410E+02 -0.60891757724E+02  0.21473037967E+03  0.22435647622E+03  0.41800000000E+01 0.  1.
        -11    1    1    2    0    0 -0.61292537376E+02 -0.24766538901E+02  0.82713495434E+02  0.10588521575E+03  0.00000000000E+00 0.  1.
         11    1    1    2    0    0 -0.97356814282E+01  0.51342150101E+02  0.55039023287E+02  0.75895282819E+02  0.00000000000E+00 0. -1.
</event>
<event>
 7    1  0.2412631E-010  0.8176881E+02  0.7561462E-02  0.1324105E+00
         -2   -1    0    0    0  501 -0.00000000000E+00  0.00000000000E+00  0.32114562089E+02  0.32114562089E+02  0.00000000000E+00 0.  1.
          2   -1    0    0  501    0  0.00000000000E+00 -0.00000000000E+00 -0.50273727874E+03  0.50273727874E+03  0.00000000000E+00 0. -1.
         25    2    1    2    0    0  0.45271082978E+02  0.52612408909E+02 -0.26036213458E+03  0.29705188769E+03  0.12503538031E+03 0.  0.
          5    1    3    3  502    0  0.12912241155E+02  0.44389847043E+02 -0.14115550410E+02  0.48517065611E+02  0.41800000000E+01 0. -1.
         -5    1    3    3    0  502  0.32358841824E+02  0.82225618658E+01 -0.24624658417E+03  0.24853482208E+03  0.41800000000E+01 0. -1.
        -11    1    1    2    0    0 -0.34657967821E+02 -0.53941978590E+01 -0.17772151292E+02  0.39320751082E+02  0.00000000000E+00 0.  1.
         11    1    1    2    0    0 -0.10613115157E+02 -0.47218211050E+02 -0.19248843078E+03  0.19847920206E+03  0.00000000000E+00 0. -1.
</event>
<event>
 7    1  0.2412631E-010  0.1037329E+03  0.7561462E-02  0.1272636E+00
          1   -1    0    0  501    0  0.00000000000E+00  0.00000000000E+00  0.71932868857E+02  0.71932868857E+02  0.00000000000E+00 0. -1.
         -1   -1    0    0    0  501 -0.00000000000E+00 -0.00000000000E+00 -0.27926490746E+03  0.27926490746E+03  0.00000000000E+00 0.  1.
         25    2    1    2    0    0  0.30914802904E+02 -0.46789970882E+02 -0.28760692383E+02  0.14003883690E+03  0.12505467605E+03 0.  0.
          5    1    3    3  502    0  0.71245865883E+02 -0.48651827045E+02  0.60232831776E+01  0.86583635986E+02  0.41800000000E+01 0.  1.
         -5    1    3    3    0  502 -0.40331062979E+02  0.18618561629E+01 -0.34783975560E+02  0.53455200918E+02  0.41800000000E+01 0.  1.
        -11    1    1    2    0    0  0.73171279512E+01  0.41222523108E+02 -0.17259550488E+02  0.45284973842E+02  0.00000000000E+00 0. -1.
         11    1    1    2    0    0 -0.38231930856E+02  0.55674477740E+01 -0.16131179573E+03  0.16587396557E+03  0.00000000000E+00 0.  1.
</event>
<event>
 7    1  0.2412631E-010  0.1098629E+03  0.7561462E-02  0.1260824E+00
          1   -1    0    0  501    0  0.00000000000E+00  0.00000000000E+00  0.11212960810E+04  0.11212960810E+04  0.00000000000E+00 0. -1.
         -1   -1    0    0    0  501 -0.00000000000E+00 -0.00000000000E+00 -0.12613582073E+02  0.12613582073E+02  0.00000000000E+00 0.  1.
         25    2    1    2    0    0  0.43961525628E+02  0.12968083562E+02  0.72298905606E+03  0.73515510776E+03  0.12505626879E+03 0.  0.
          5    1    3    3  502    0  0.52176447304E+02  0.63232929627E+02  0.44711140217E+03  0.45458427535E+03  0.41800000000E+01 0. -1.
         -5    1    3    3    0  502 -0.82149216761E+01 -0.50264846064E+02  0.27587765389E+03  0.28057083242E+03  0.41800000000E+01 0. -1.
        -11    1    1    2    0    0 -0.43709383221E+02 -0.40151118995E+02  0.34330869880E+03  0.34840132780E+03  0.00000000000E+00 0. -1.
         11    1    1    2    0    0 -0.25214240705E+00  0.27183035433E+02  0.42384744061E+02  0.50353227506E+02  0.00000000000E+00 0.  1.
</event>
<event>
 6    1  0.2412631E-010  0.1166205E+03  0.7561462E-02  0.1248779E+00
         -2   -1    0    0    0  501 -0.00000000000E+00  0.00000000000E+00  0.56925545844E+03  0.56925545844E+03  0.00000000000E+00 0.  1.
          2   -1    0    0  501    0  0.00000000000E+00 -0.00000000000E+00 -0.75617010702E+02  0.75617010702E+02  0.00000000000E+00 0. -1.
          5    1    1    2  502    0 -0.59987495779E+02 -0.16993753472E+02  0.73582851766E+02  0.96535981794E+02  0.41800000000E+01 0.  1.
         -5    1    1    2    0  502 -0.14157631868E+02 -0.55372319480E+02  0.40293589400E+03  0.40699058881E+03  0.41800000000E+01 0.  1.
        -11    1    1    2    0    0  0.21923107682E+02  0.53676596562E+02  0.50261218078E+02  0.76733237333E+02  0.00000000000E+00 0.  1.
         11    1    1    2    0    0  0.52222019965E+02  0.18689476391E+02 -0.33141516114E+02  0.64612661200E+02  0.00000000000E+00 0. -1.
</event>
<event>
 7    1  0.2412631E-010  0.1711216E+03  0.7561462E-02  0.1176683E+00
          2   -1    0    0  501    0  0.00000000000E+00  0.00000000000E+00  0.90412648454E+03  0.90412648454E+03  0.00000000000E+00 0. -1.
         -2   -1    0    0    0  501 -0.00000000000E+00 -0.00000000000E+00 -0.41353860315E+02  0.41353860315E+02  0.00000000000E+00 0.  1.
         25    2    1    2    0    0  0.15845062002E+03  0.12382373474E+02  0.44224818151E+03  0.48629786041E+03  0.12506891236E+03 0.  0.
          5    1    3    3  502    0  0.20389763810E+02 -0.25795900401E+02  0.16393369704E+02  0.36978181621E+02  0.41800000000E+01 0.  1.
         -5    1    3    3    0  502  0.13806085621E+03  0.38178273875E+02  0.42585481180E+03  0.44931967879E+03  0.41800000000E+01 0.  1.
        -11    1    1    2    0    0 -0.10621424825E+03 -0.30497074469E+02  0.17094685421E+03  0.20355432947E+03  0.00000000000E+00 0.  1.
         11    1    1    2    0    0 -0.52236371773E+02  0.18114700995E+02  0.24957758851E+03  0.25562815497E+03  0.00000000000E+00 0. -1.
</event>
<event>
 7    1  0.2412631E-010  0.7999662E+02  0.7561462E-02  0.1329061E+00
         -2   -1    0    0    0  501 -0.00000000000E+00  0.00000000000E+00  0.72852887956E+02  0.72852887956E+02  0.00000000000E+00 0. -1.
          2   -1    0    0  501    0  0.00000000000E+00 -0.00000000000E+00 -0.19091755726E+03  0.19091755726E+03  0.00000000000E+00 0.  1.
         25    2    1    2    0    0 -0.44621412509E+02 -0.56976577000E+01 -0.54082022700E+02  0.14353309722E+03  0.12511335284E+03 0.  0.
          5    1    3    3  502    0 -0.84572859448E+00 -0.20396361819E+02  0.36354801075E+02  0.41903111978E+02  0.41800000000E+01 0.  1.
         -5    1    3    3    0  502 -0.43775683915E+02  0.14698704119E+02 -0.90436823774E+02  0.10162998524E+03  0.41800000000E+01 0.  1.
        -11    1    1    2    0    0  0.67851513960E+02  0.11564528969E+02 -0.67040780965E+02  0.96083466785E+02  0.00000000000E+00 0.  1.
         11    1    1    2    0    0 -0.23230101451E+02 -0.58668712692E+01  0.30581343616E+01  0.24153881214E+02  0.00000000000E+00 0. -1.
</event>
<event>
 7    1  0.2412631E-010  0.1296409E+03  0.7561462E-02  0.1227990E+00
          2   -1    0    0  501    0  0.00000000000E+00  0.00000000000E+00  0.13016421360E+04  0.13016421360E+04  0.00000000000E+00 0. -1.
         -2   -1    0    0    0  501 -0.00000000000E+00 -0.00000000000E+00 -0.17480411502E+02  0.17480411502E+02  0.00000000000E+00 0.  1.
         25    2    1    2    0    0  0.77016431474E+02  0.24223560442E+02  0.98410508222E+03  0.99530021890E+03  0.12506558793E+03 0.  0.
          5    1    3    3  502    0  0.15223227554E+02 -0.45604903381E+02  0.49666964775E+03  0.49900878275E+03  0.41800000000E+01 0. -1.
         -5    1    3    3    0  502  0.61793203920E+02  0.69828463824E+02  0.48743543447E+03  0.49629143614E+03  0.41800000000E+01 0. -1.
        -11    1    1    2    0    0  0.90139509899E+01  0.19277743938E+02  0.93287459402E+02  0.95684025864E+02  0.00000000000E+00 0. -1.
         11    1    1    2    0    0 -0.86030382464E+02 -0.43501304380E+02  0.20676918283E+03  0.22813830270E+03  0.00000000000E+00 0.  1.
</event>
<event>
 7    1  0.2412631E-010  0.1125416E+03  0.7561462E-02  0.1255934E+00
         -1   -1    0    0    0  501 -0.00000000000E+00  0.00000000000E+00  0.76798190289E+02  0.76798190289E+02  0.00000000000E+00 0.  1.
          1   -1    0    0  501    0  0.00000000000E+00 -0.00000000000E+00 -0.18734467607E+03  0.18734467607E+03  0.00000000000E+00 0. -1.
         25    2    1    2    0    0 -0.48614609273E+02  0.38361576833E+01 -0.38767259986E+02  0.13972535706E+03  0.12506869559E+03 0.  0.
          5    1    3    3  502    0  0.30635920630E+02 -0.24311293195E+02  0.12342099603E+02  0.41223760530E+02  0.41800000000E+01 0. -1.
         -5    1    3    3    0  502 -0.79250529903E+02  0.28147450878E+02 -0.51109359589E+02  0.98501596527E+02  0.41800000000E+01 0. -1.
        -11    1    1    2    0    0  0.20772607990E+02  0.42604490208E+02 -0.31073411730E+02  0.56676280269E+02  0.00000000000E+00 0. -1.
         11    1    1    2    0    0  0.27842001283E+02 -0.46440647891E+02 -0.40705814060E+02  0.67741229029E+02  0.00000000000E+00 0.  1.
</event>
<event>
 7    1  0.2412631E-010  0.8626775E+02  0.7561462E-02  0.1312150E+00
         -2   -1    0    0    0  501 -0.00000000000E+00  0.00000000000E+00  0.57803169447E+02  0.57803169447E+02  0.00000000000E+00 0. -1.
          2   -1    0    0  501    0  0.00000000000E+00 -0.00000000000E+00 -0.30503716028E+03  0.30503716028E+03  0.00000000000E+00 0.  1.
         25    2    1    2    0    0  0.26605117161E+02 -0.52895456099E+01 -0.23390809000E+03  0.26662665424E+03  0.12506385023E+03 0.  0.
          5    1    3    3  502    0 -0.16188169199E+02 -0.50976026357E+02 -0.16468946901E+03  0.17320711789E+03  0.41800000000E+01 0. -1.
         -5    1    3    3    0  502  0.42793286360E+02  0.45686480747E+02 -0.69218620985E+02  0.93419536349E+02  0.41800000000E+01 0. -1.
        -11    1    1    2    0    0  0.10133379541E+00  0.23708100187E+02  0.32400268722E+02  0.40147997413E+02  0.00000000000E+00 0. -1.
         11    1    1    2    0    0 -0.26706450957E+02 -0.18418554577E+02 -0.45726169560E+02  0.56065678075E+02  0.00000000000E+00 0.  1.
</event>
<event>
 7    1  0.2412631E-010  0.1519056E+03  0.7561462E-02  0.1198151E+00
          3   -1    0    0  501    0  0.00000000000E+00  0.00000000000E+00  0.38510238967E+02  0.38510238967E+02  0.00000000000E+00 0. -1.
         -3   -1    0    0    0  501 -0.00000000000E+00 -0.00000000000E+00 -0.71583383249E+03  0.71583383249E+03  0.00000000000E+00 0.  1.
         25    2    1    2    0    0 -0.12117479441E+03  0.26752409150E+02 -0.39453398365E+03  0.43209951092E+03  0.12511555013E+03 0.  0.
          5    1    3    3  502    0 -0.19394903493E+02 -0.27580317906E+02 -0.18382015752E+02  0.38629096810E+02  0.41800000000E+01 0. -1.
         -5    1    3    3    0  502 -0.10177989091E+03  0.54332727056E+02 -0.37615196790E+03  0.39347041411E+03  0.41800000000E+01 0. -1.
        -11    1    1    2    0    0  0.10579310403E+02 -0.41486014250E+02 -0.72877907936E+02  0.84523373406E+02  0.00000000000E+00 0.  1.
         11    1    1    2    0    0  0.11059548401E+03  0.14733605100E+02 -0.20991170193E+03  0.23772118713E+03  0.00000000000E+00 0. -1.
</event>
<event>
 6    1  0.2412631E-010  0.1726210E+03  0.7561462E-02  0.1175142E+00
         -2   -1    0    0    0  501 -0.00000000000E+00  0.00000000000E+00  0.63719310585E+02  0.63719310585E+02  0.00000000000E+00 0. -1.
          2   -1    0    0  501    0  0.00000000000E+00 -0.00000000000E+00 -0.16896251742E+04  0.16896251742E+04  0.00000000000E+00 0.  1.
          5    1    1    2  502    0 -0.13838353864E+03 -0.18603586499E+02 -0.14223103044E+04  0.14291536557E+04  0.41800000000E+01 0.  1.
         -5    1    1    2    0  502 -0.27975019415E+01  0.35579220974E+02 -0.13751434560E+03  0.14213153988E+03  0.41800000000E+01 0.  1.
        -11    1    1    2    0    0  0.12824977557E+03 -0.47266371936E+02 -0.54487834471E+02  0.14714292017E+03  0.00000000000E+00 0.  1.
         11    1    1    2    0    0  0.12931265008E+02  0.30290737461E+02 -0.11593379219E+02  0.34916369117E+02  0.00000000000E+00 0. -1.
</event>
<event>
 6    1  0.2412631E-010  0.1667447E+03  0.7561462E-02  0.1181286E+00
          2   -1    0    0  501    0  0.00000000000E+00  0.00000000000E+00  0.50440922339E+03  0.50440922339E+03  0.00000000000E+00 0. -1.
         -2   -1    0    0    0  501 -0.00000000000E+00 -0.00000000000E+00 -0.10005149268E+03  0.10005149268E+03  0.00000000000E+00 0.  1.
          5    1    1    2  502    0 -0.46196963457E+02 -0.23172742367E+02 -0.12300889854E+02  0.53290897090E+02  0.41800000000E+01 0.  1.
         -5    1    1    2    0  502 -0.41247713727E+02  0.11813994493E+03  0.23832923454E+02  0.12745156380E+03  0.41800000000E+01 0.  1.
        -11    1    1    2    0    0  0.90328572639E+02 -0.35748476396E+02  0.27808436829E+03  0.29456428922E+03  0.00000000000E+00 0. -1.
         11    1    1    2    0    0 -0.28838954549E+01 -0.59218726165E+02  0.11474132882E+03  0.12915396595E+03  0.00000000000E+00 0.  1.
</event>
<event>
 7    1  0.2412631E-010  0.7535655E+02  0.7561462E-02  0.1342770E+00
          4   -1    0    0  501    0  0.00000000000E+00  0.00000000000E+00  0.15580521142E+03  0.15580521142E+03  0.00000000000E+00 0. -1.
         -4   -1    0    0    0  501 -0.00000000000E+00 -0.00000000000E+00 -0.83563309860E+02  0.83563309860E+02  0.00000000000E+00 0.  1.
         25    2    1    2    0    0  0.31094936712E+02  0.19118956849E+01  0.30267550463E+02  0.13243687312E+03  0.12511135167E+03 0.  0.
          5    1    3    3  502    0  0.59382195853E+02 -0.24440945760E+02  0.56413921460E+02  0.85578081005E+02  0.41800000000E+01 0. -1.
         -5    1    3    3    0  502 -0.28287259142E+02  0.26352841445E+02 -0.26146370996E+02  0.46858792112E+02  0.41800000000E+01 0. -1.
        -11    1    1    2    0    0 -0.26495037472E+02 -0.17148355267E+02 -0.23628763643E+02  0.39425519277E+02  0.00000000000E+00 0.  1.
         11    1    1    2    0    0 -0.45998992399E+01  0.15236459582E+02  0.65603114735E+02  0.67506128882E+02  0.00000000000E+00 0. -1.
</event>
<event>
 7    1  0.2412631E-010  0.1003907E+03  0.7561462E-02  0.1279476E+00
         -2   -1    0    0    0  501 -0.00000000000E+00  0.00000000000E+00  0.30527864336E+02  0.30527864336E+02  0.00000000000E+00 0.  1.
          2   -1    0    0  501    0  0.00000000000E+00 -0.00000000000E+00 -0.60163366561E+03  0.60163366561E+03  0.00000000000E+00 0. -1.
         25    2    1    2    0    0  0.35489592637E+02 -0.71250738265E+02 -0.34398795463E+03  0.37456975615E+03  0.12505442975E+03 0.  0.
          5    1    3    3  502    0  0.38445483700E+02 -0.59579416622E+02 -0.68145192763E+02  0.98432727274E+02  0.41800000000E+01 0.  1.
         -5    1    3    3    0  502 -0.29558910632E+01 -0.11671321644E+02 -0.27584276187E+03  0.27613702887E+03  0.41800000000E+01 0.  1.
        -11    1    1    2    0    0 -0.54574481471E+02  0.13549471671E+02 -0.74662780858E+02  0.93469209132E+02  0.00000000000E+00 0.  1.
         11    1    1    2    0    0  0.19084888834E+02  0.57701266594E+02 -0.15245506579E+03  0.16412256466E+03  0.00000000000E+00 0. -1.
</event>
<event>
 6    1  0.2412631E-010  0.1326128E+03  0.7561462E-02  0.1223630E+00
         -2   -1    0    0    0  501 -0.00000000000E+00  0.00000000000E+00  0.10255211400E+03  0.10255211400E+03  0.00000000000E+00 0.  1.
          2   -1    0    0  501    0  0.00000000000E+00 -0.00000000000E+00 -0.25778968898E+03  0.25778968898E+03  0.00000000000E+00 0. -1.
          5    1    1    2  502    0  0.14340543351E+02 -0.31602289282E+02  0.33098241668E+02  0.48138569494E+02  0.41800000000E+01 0. -1.
         -5    1    1    2    0  502 -0.86037667092E+02 -0.56472667354E+02 -0.70236176950E+02  0.12466850151E+03  0.41800000000E+01 0. -1.
        -11    1    1    2    0    0  0.51487609467E+02  0.18324719106E+02 -0.97961810708E+02  0.11217524511E+03  0.00000000000E+00 0. -1.
         11    1    1    2    0    0  0.20209514275E+02  0.69750237529E+02 -0.20137828992E+02  0.75359486855E+02  0.00000000000E+00 0.  1.
</event>
<event>
 7    1  0.2412631E-010  0.1856066E+03  0.7561462E-02  0.1162485E+00
         -1   -1    0    0    0  501 -0.00000000000E+00  0.00000000000E+00  0.51227429212E+03  0.51227429212E+03  0.00000000000E+00 0.  1.
          1   -1    0    0  501    0  0.00000000000E+00 -0.00000000000E+00 -0.12136914006E+03  0.12136914006E+03  0.00000000000E+00 0. -1.
         25    2    1    2    0    0 -0.10411377802E+02 -0.15864549707E+03  0.40041808603E+03  0.44860652351E+03  0.12504550690E+03 0.  0.
          5    1    3    3  502    0 -0.62216298316E+02 -0.11300113166E+03  0.21573123463E+03  0.25139125189E+03  0.41800000000E+01 0.  1.
         -5    1    3    3    0  502  0.51804920514E+02 -0.45644365409E+02  0.18468685140E+03  0.19721527163E+03  0.41800000000E+01 0.  1.
        -11    1    1    2    0    0  0.38705792195E+02  0.11111039335E+03 -0.36900480476E+02  0.12330978599E+03  0.00000000000E+00 0. -1.
         11    1    1    2    0    0 -0.28294414393E+02  0.47535103713E+02  0.27387546507E+02  0.61727122681E+02  0.00000000000E+00 0.  1.
</event>
<event>
 7    1  0.2412631E-010  0.9649613E+02  0.7561462E-02  0.1287842E+00
          3   -1    0    0  501    0  0.00000000000E+00  0.00000000000E+00  0.63261352006E+02  0.63261352006E+02  0.00000000000E+00 0. -1.
         -3   -1    0    0    0  501 -0.00000000000E+00 -0.00000000000E+00 -0.19614301185E+03  0.19614301185E+03  0.00000000000E+00 0.  1.
         25    2    1    2    0    0  0.15280765151E+02 -0.39931156741E+01 -0.36366474542E+02  0.13119286587E+03  0.12505838968E+03 0.  0.
          5    1    3    3  502    0 -0.20817579890E+02  0.52450745043E+02 -0.41645092890E+01  0.56738592031E+02  0.41800000000E+01 0. -1.
         -5    1    3    3    0  502  0.36098345042E+02 -0.56443860717E+02 -0.32201965253E+02  0.74454273844E+02  0.41800000000E+01 0. -1.
        -11    1    1    2    0    0 -0.16815136618E+01  0.35197398152E+02 -0.85431797761E+02  0.92413615845E+02  0.00000000000E+00 0.  1.
         11    1    1    2    0    0 -0.13599251490E+02 -0.31204282478E+02 -0.11083387541E+02  0.35797882136E+02  0.00000000000E+00 0. -1.
</event>
<event>
 7    1  0.2412631E-010  0.1041831E+03  0.7561462E-02  0.1271738E+00
          3   -1    0    0  501    0  0.00000000000E+00  0.00000000000E+00  0.53344372824E+02  0.53344372824E+02  0.00000000000E+00 0. -1.
         -3   -1    0    0    0  501 -0.00000000000E+00 -0.00000000000E+00 -0.29199439112E+03  0.29199439112E+03  0.00000000000E+00 0.  1.
         25    2    1    2    0    0 -0.38542674447E+02  0.13338296845E+02 -0.68320387694E+02  0.14821785169E+03  0.12504962323E+03 0.  0.
          5    1    3    3  502    0  0.21673649488E+02 -0.31831294324E+02  0.94832492840E+01  0.39879603777E+02  0.41800000000E+01 0.  1.
         -5    1    3    3    0  502 -0.60216323935E+02  0.45169591169E+02 -0.77803636978E+02  0.10833824792E+03  0.41800000000E+01 0.  1.
        -11    1    1    2    0    0 -0.50495648704E+01 -0.41848598065E+02 -0.10774130682E+03  0.11569352817E+03  0.00000000000E+00 0.  1.
         11    1    1    2    0    0  0.43592239317E+02  0.28510301220E+02 -0.62588323789E+02  0.81427384086E+02  0.00000000000E+00 0. -1.
</event>
<event>
 7    1  0.2412631E-010  0.1044999E+03  0.7561462E-02  0.1271108E+00
          1   -1    0    0  501    0  0.00000000000E+00  0.00000000000E+00  0.18675246735E+03  0.18675246735E+03  0.00000000000E+00 0. -1.
         -1   -1    0    0    0  501 -0.00000000000E+00 -0.00000000000E+00 -0.10553987695E+03  0.10553987695E+03  0.00000000000E+00 0.  1.
         25    2    1    2    0    0 -0.32839048423E+02  0.82311072574E+02  0.44978862335E+02  0.15974258451E+03  0.12506430138E+03 0.  0.
          5    1    3    3  502    0 -0.21981898975E+02  0.62411910582E+02  0.88448332443E+02  0.11053972307E+03  0.41800000000E+01 0. -1.
         -5    1    3    3    0  502 -0.10857149448E+02  0.19899161992E+02 -0.43469470109E+02  0.49202861438E+02  0.41800000000E+01 0. -1.
        -11    1    1    2    0    0  0.17389884771E+02 -0.96870448258E+02  0.10182319684E+02  0.98944284687E+02  0.00000000000E+00 0.  1.
         11    1    1    2    0    0  0.15449163652E+02  0.14559375684E+02  0.26051408389E+02  0.33605475103E+02  0.00000000000E+00 0. -1.
</event>
<event>
 7    1  0.2412631E-010  0.1065786E+03  0.7561462E-02  0.1267040E+00
          1   -1    0    0  501    0  0.00000000000E+00  0.00000000000E+00  0.21596456047E+03  0.21596456047E+03  0.00000000000E+00 0. -1.
         -1   -1    0    0    0  501 -0.00000000000E+00 -0.00000000000E+00 -0.98576718873E+02  0.98576718873E+02  0.00000000000E+00 0.  1.
         25    2    1    2    0    0  0.57928517451E+02 -0.32278279996E+02 -0.15152281872E+02  0.14241057045E+03  0.12511426153E+03 0.  0.
          5    1    3    3  502    0  0.89315968937E+02  0.43632600045E-01 -0.30744421467E+02  0.94551763930E+02  0.41800000000E+01 0.  1.
         -5    1    3    3    0  502 -0.31387451487E+02 -0.32321912596E+02  0.15592139595E+02  0.47858806523E+02  0.41800000000E+01 0.  1.
        -11    1    1    2    0    0 -0.24127154259E+02  0.37198787504E+02  0.10724488306E+02  0.45616707618E+02  0.00000000000E+00 0.  1.
         11    1    1    2    0    0 -0.33801363191E+02 -0.49205075085E+01  0.12181563516E+03  0.12651400127E+03  0.00000000000E+00 0. -1.
</event>
<event>
 7    1  0.2412631E-010  0.1817595E+03  0.7561462E-02  0.1166111E+00
         -1   -1    0    0    0  501 -0.00000000000E+00  0.00000000000E+00  0.38627488556E+03  0.38627488556E+03  0.00000000000E+00 0.  1.
          1   -1    0    0  501    0  0.00000000000E+00 -0.00000000000E+00 -0.10459156332E+03  0.10459156332E+03  0.00000000000E+00 0. -1.
         25    2    1    2    0    0 -0.16815134343E+03 -0.14920885591E+01  0.14006043734E+03  0.25208499010E+03  0.12511121253E+03 0.  0.
          5    1    3    3  502    0 -0.30359533765E+02 -0.16891348286E+02  0.10259991502E+03  0.10840310835E+03  0.41800000000E+01 0.  1.
         -5    1    3    3    0  502 -0.13779180966E+03  0.15399259727E+02  0.37460522316E+02  0.14368188175E+03  0.41800000000E+01 0.  1.
        -11    1    1    2    0    0  0.74083415642E+02 -0.43103220481E+02  0.82977645762E+02  0.11929597556E+03  0.00000000000E+00 0.  1.
         11    1    1    2    0    0  0.94067927788E+02  0.44595309041E+02  0.58645239133E+02  0.11948548322E+03  0.00000000000E+00 0. -1.
</event>
<event>
 7    1  0.2412631E-010  0.8856749E+02  0.7561462E-02  0.1306358E+00
         -2   -1    0    0    0  501 -0.00000000000E+00  0.00000000000E+00  0.13956298295E+03  0.13956298295E+03  0.00000000000E+00 0. -1.
          2   -1    0    0  501    0  0.00000000000E+00 -0.00000000000E+00 -0.83674352154E+02  0.83674352154E+02  0.00000000000E+00 0.  1.
         25    2    1    2    0    0  0.54660345948E+01 -0.47093383760E+01  0.48936461472E+02  0.13447424050E+03  0.12504594634E+03 0.  0.
          5    1    3    3  502    0 -0.45057566891E+02 -0.37878185666E+02  0.44155744599E+02  0.73703076358E+02  0.41800000000E+01 0.  1.
         -5    1    3    3    0  502  0.50523601486E+02  0.33168847290E+02  0.47807168727E+01  0.60771164144E+02  0.41800000000E+01 0.  1.
        -11    1    1    2    0    0  0.25937925693E+02  0.25173481999E+01 -0.30316928825E+02  0.39977858930E+02  0.00000000000E+00 0.  1.
         11    1    1    2    0    0 -0.31403960288E+02  0.21919901762E+01  0.37269098147E+02  0.48785235670E+02  0.00000000000E+00 0. -1.
</event>
<event>
 7    1  0.2412631E-010  0.1447585E+03  0.7561462E-02  0.1207066E+00
         -1   -1    0    0    0  501 -0.00000000000E+00  0.00000000000E+00  0.34457882618E+03  0.34457882618E+03  0.00000000000E+00 0.  1.
          1   -1    0    0  501    0  0.00000000000E+00 -0.00000000000E+00 -0.86416157436E+02  0.86416157436E+02  0.00000000000E+00 0. -1.
         25    2    1    2    0    0  0.65588327197E+02 -0.11256349384E+03  0.17122949592E+03  0.24885882360E+03  0.12505520781E+03 0.  0.
          5    1    3    3  502    0  0.35232562510E+02 -0.67231599168E+02  0.76881575702E+01  0.76406816153E+02  0.41800000000E+01 0.  1.
         -5    1    3    3    0  502  0.30355764687E+02 -0.45331894675E+02  0.16354133835E+03  0.17245200745E+03  0.41800000000E+01 0.  1.
        -11    1    1    2    0    0  0.22181574757E+02  0.36128877777E+02  0.13381077793E+02  0.44456397864E+02  0.00000000000E+00 0. -1.
         11    1    1    2    0    0 -0.87769901954E+02  0.76434616066E+02  0.73552095032E+02  0.13767976215E+03  0.00000000000E+00 0.  1.
</event>
<event>
 6    1  0.2412631E-010  0.1087527E+03  0.7561462E-02  0.1262897E+00
         -2   -1    0    0    0  501 -0.00000000000E+00  0.00000000000E+00  0.91192086552E+02  0.91192086552E+02  0.00000000000E+00 0.  1.
          2   -1    0    0  501    0  0.00000000000E+00 -0.00000000000E+00 -0.18082213246E+03  0.18082213246E+03  0.00000000000E+00 0. -1.
          5    1    1    2  502    0 -0.52474617348E+02  0.80066803821E+02 -0.73114176066E+02  0.12052980412E+03  0.41800000000E+01 0. -1.
         -5    1    1    2    0  502  0.49000718721E+01 -0.39732157670E+02 -0.73440738903E+01  0.40915313500E+02  0.41800000000E+01 0. -1.
        -11    1    1    2    0    0 -0.10838567951E+02 -0.13043910191E+02  0.30478227434E+02  0.34878940578E+02  0.00000000000E+00 0.  1.
         11    1    1    2    0    0  0.58413113427E+02 -0.27290735960E+02 -0.39650023391E+02  0.75690160816E+02  0.00000000000E+00 0. -1.
</event>
<event>
 7    1  0.2412631E-010  0.8221801E+02  0.7561462E-02  0.1322872E+00
          1   -1    0    0  501    0  0.00000000000E+00  0.00000000000E+00  0.23406783162E+03  0.23406783162E+03  0.00000000000E+00 0. -1.
         -1   -1    0    0    0  501 -0.00000000000E+00 -0.00000000000E+00 -0.93793398680E+02  0.93793398680E+02  0.00000000000E+00 0.  1.
         25    2    1    2    0    0 -0.69260956092E-01  0.64269590121E+02  0.16285621645E+03  0.21518946478E+03  0.12511504109E+03 0.  0.
          5    1    3    3  502    0  0.12582959415E+02  0.58507301374E+02  0.18173139101E+03  0.19137713045E+03  0.41800000000E+01 0. -1.
         -5    1    3    3    0  502 -0.12652220371E+02  0.57622887464E+01 -0.18875174556E+02  0.23812334334E+02  0.41800000000E+01 0. -1.
        -11    1    1    2    0    0  0.31168729502E+02 -0.25812692233E+02 -0.43104070205E+02  0.59124831055E+02  0.00000000000E+00 0.  1.
         11    1    1    2    0    0 -0.31099468546E+02 -0.38456897888E+02  0.20522286694E+02  0.53546934460E+02  0.00000000000E+00 0. -1.
</event>
<event>
 6    1  0.2412631E-010  0.1114961E+03  0.7561462E-02  0.1257824E+00
         -1   -1    0    0    0  501 -0.00000000000E+00  0.00000000000E+00  0.17848137780E+02  0.17848137780E+02  0.00000000000E+00 0.  1.
          1   -1    0    0  501    0  0.00000000000E+00 -0.00000000000E+00 -0.90460395345E+03  0.90460395345E+03  0.00000000000E+00 0. -1.
          5    1    1    2  502    0  0.51414873121E+02  0.46528941923E+02 -0.29557432560E+03  0.30362820352E+03  0.41800000000E+01 0.  1.
         -5    1    1    2    0  502 -0.13972781891E+02 -0.55630245303E+02 -0.40422727816E+03  0.40829784182E+03  0.41800000000E+01 0.  1.
        -11    1    1    2    0    0 -0.42743641659E+02  0.43630769679E+02 -0.13137967588E+03  0.14488368507E+03  0.00000000000E+00 0. -1.
         11    1    1    2    0    0  0.53015504291E+01 -0.34529466299E+02 -0.55574536019E+02  0.65642360817E+02  0.00000000000E+00 0.  1.
</event>
<event>
 7    1  0.2412631E-010  0.1857721E+03  0.7561462E-02  0.1162331E+00
         -2   -1    0    0    0  501 -0.00000000000E+00  0.00000000000E+00  0.59334312155E+02  0.59334312155E+02  0.00000000000E+00 0.  1.
          2   -1    0    0  501    0  0.00000000000E+00 -0.00000000000E+00 -0.89681183980E+03  0.89681183980E+03  0.00000000000E+00 0. -1.
         25    2    1    2    0    0  0.99688654976E+02  0.96401805601E+02 -0.67222868680E+03  0.69768237490E+03  0.12505260026E+03 0.  0.
          5    1    3    3  502    0  0.10196899493E+03  0.11904015626E+03 -0.63308818793E+03  0.65221649843E+03  0.41800000000E+01 0.  1.
         -5    1    3    3    0  502 -0.22803399572E+01 -0.22638350661E+02 -0.39140498874E+02  0.45465876469E+02  0.41800000000E+01 0.  1.
        -11    1    1    2    0    0 -0.72444963630E+02  0.17474202148E+02 -0.99058560361E+02  0.12396055371E+03  0.00000000000E+00 0. -1.
         11    1    1    2    0    0 -0.27243691346E+02 -0.11387600775E+03 -0.66190280479E+02  0.13450322334E+03  0.00000000000E+00 0.  1.
</event>
<event>
 6    1  0.2412631E-010  0.9941374E+02  0.7561462E-02  0.1281534E+00
         -2   -1    0    0    0  501 -0.00000000000E+00  0.00000000000E+00  0.36612431554E+02  0.36612431554E+02  0.00000000000E+00 0.  1.
          2   -1    0    0  501    0  0.00000000000E+00 -0.00000000000E+00 -0.51392341318E+03  0.51392341318E+03  0.00000000000E+00 0. -1.
          5    1    1    2  502    0 -0.23600142600E+02 -0.77453780820E+02 -0.18809338201E+03  0.20482345483E+03  0.41800000000E+01 0.  1.
         -5    1    1    2    0  502 -0.28682705165E+01  0.11762655668E+02  0.15334409378E+02  0.19980078956E+02  0.41800000000E+01 0.  1.
        -11    1    1    2    0    0 -0.18082421469E+02  0.56672167717E+02 -0.10143612104E+03  0.11759249641E+03  0.00000000000E+00 0. -1.
         11    1    1    2    0    0  0.44550834585E+02  0.90189574340E+01 -0.20311588795E+03  0.20813981453E+03  0.00000000000E+00 0.  1.
</event>
<event>
 7    1  0.2412631E-010  0.1996579E+03  0.7561462E-02  0.1150028E+00
          1   -1    0    0  501    0  0.00000000000E+00  0.00000000000E+00  0.11527366067E+03  0.11527366067E+03  0.00000000000E+00 0. -1.
         -1   -1    0    0    0  501 -0.00000000000E+00 -0.00000000000E+00 -0.50432570171E+03  0.50432570171E+03  0.00000000000E+00 0.  1.
         25    2    1    2    0    0 -0.16092797474E+03 -0.10381118444E+03 -0.32544674969E+03  0.39780154411E+03  0.12512356512E+03 0.  0.
          5    1    3    3  502    0 -0.16037941530E+03 -0.10335585608E+03 -0.33600671847E+03  0.38642201943E+03  0.41800000000E+01 0.  1.
         -5    1    3    3    0  502 -0.54855943897E+00 -0.45532836068E+00  0.10559968786E+02  0.11379524688E+02  0.41800000000E+01 0.  1.
        -11    1    1    2    0    0  0.86585498257E+02  0.96313284086E+02 -0.69253431526E+02  0.14686502299E+03  0.00000000000E+00 0.  1.
         11    1    1    2    0    0  0.74342476483E+02  0.74979003550E+01  0.56481401754E+01  0.74932795269E+02  0.00000000000E+00 0. -1.
</event>
<event>
 7    1  0.2412631E-010  0.1665139E+03  0.7561462E-02  0.1181533E+00
          1   -1    0    0  501    0  0.00000000000E+00  0.00000000000E+00  0.51574949269E+02  0.51574949269E+02  0.00000000000E+00 0. -1.
         -1   -1    0    0    0  501 -0.00000000000E+00 -0.00000000000E+00 -0.10233369397E+04  0.10233369397E+04  0.00000000000E+00 0.  1.
         25    2    1    2    0    0  0.14986713809E+03  0.52324338877E+02 -0.82067030286E+03  0.84519699971E+03  0.12514082789E+03 0.  0.
          5    1    3    3  502    0  0.74081540771E+02  0.37954587609E+02 -0.16364271917E+03  0.18364377839E+03  0.41800000000E+01 0.  1.
         -5    1    3    3    0  502  0.75785597319E+02  0.14369751268E+02 -0.65702758369E+03  0.66155322132E+03  0.41800000000E+01 0.  1.
        -11    1    1    2    0    0 -0.42057198446E+02 -0.49000282178E+02 -0.47482106079E+02  0.80152267543E+02  0.00000000000E+00 0.  1.
         11    1    1    2    0    0 -0.10780993964E+03 -0.33240566997E+01 -0.10360958151E+03  0.14956262173E+03  0.00000000000E+00 0. -1.
</event>
<event>
 7    1  0.2412631E-010  0.1253398E+03  0.7561462E-02  0.1234539E+00
         -2   -1    0    0    0  501 -0.00000000000E+00  0.00000000000E+00  0.10983933696E+03  0.10983933696E+03  0.00000000000E+00 0.  1.
          2   -1    0    0  501    0  0.00000000000E+00 -0.00000000000E+00 -0.14937409846E+03  0.14937409846E+03  0.00000000000E+00 0. -1.
         25    2    1    2    0    0 -0.42046145254E+01 -0.67547321111E+02 -0.27164481132E+02  0.14477704760E+03  0.12506864156E+03 0.  0.
          5    1    3    3  502    0 -0.54028625367E+01  0.36801454768E+02 -0.28083371539E+01  0.37535278795E+02  0.41800000000E+01 0.  1.
         -5    1    3    3    0  502  0.11982480113E+01 -0.10434877588E+03 -0.24356143978E+02  0.10724176880E+03  0.41800000000E+01 0.  1.
        -11    1    1    2    0    0 -0.38200346406E+02  0.49988525524E+02 -0.23585843837E+02  0.67189368051E+02  0.00000000000E+00 0.  1.
         11    1    1    2    0    0  0.42404960931E+02  0.17558795587E+02  0.11215563470E+02  0.47247019779E+02  0.00000000000E+00 0. -1.
</event>
<event>
 7    1  0.2412631E-010  0.1120687E+03  0.7561462E-02  0.1256786E+00
         -2   -1    0    0    0  501 -0.00000000000E+00  0.00000000000E+00  0.60673961349E+02  0.60673961349E+02  0.00000000000E+00 0. -1.
          2   -1    0    0  501    0  0.00000000000E+00 -0.00000000000E+00 -0.26366664712E+03  0.26366664712E+03  0.00000000000E+00 0.  1.
         25    2    1    2    0    0 -0.13940139520E+02  0.61231184272E+02 -0.91891636615E+02  0.16745929530E+03  0.12511977176E+03 0.  0.
          5    1    3    3  502    0 -0.28248440515E+02  0.95443998178E+02 -0.81517930866E+02  0.12872519813E+03  0.41800000000E+01 0. -1.
         -5    1    3    3    0  502  0.14308300995E+02 -0.34212813906E+02 -0.10373705749E+02  0.38734097172E+02  0.41800000000E+01 0. -1.
        -11    1    1    2    0    0 -0.22356025042E+02 -0.38035521856E+02 -0.75924257355E+01  0.44767596620E+02  0.00000000000E+00 0. -1.
         11    1    1    2    0    0  0.36296164562E+02 -0.23195662415E+02 -0.10350862342E+03  0.11211371656E+03  0.00000000000E+00 0.  1.
</event>
<event>
 7    1  0.2412631E-010  0.1313294E+03  0.7561462E-02  0.1225496E+00
         -1   -1    0    0    0  501 -0.00000000000E+00  0.00000000000E+00  0.28322097793E+02  0.28322097793E+02  0.00000000000E+00 0.  1.
          1   -1    0    0  501    0  0.00000000000E+00 -0.00000000000E+00 -0.73885825100E+03  0.73885825100E+03  0.00000000000E+00 0. -1.
         25    2    1    2    0    0 -0.34876570942E+02 -0.85158044013E+02 -0.44509725723E+03  0.47141672673E+03  0.12511552334E+03 0.  0.
          5    1    3    3  502    0  0.26847014540E+02 -0.69003760715E+02 -0.12794985273E+03  0.14788819559E+03  0.41800000000E+01 0.  1.
         -5    1    3    3    0  502 -0.61723585482E+02 -0.16154283298E+02 -0.31714740450E+03  0.32352853113E+03  0.41800000000E+01 0.  1.
        -11    1    1    2    0    0 -0.49911245988E+01  0.84539413511E+02 -0.21752930125E+03  0.23343268979E+03  0.00000000000E+00 0. -1.
         11    1    1    2    0    0  0.39867695541E+02  0.61863050144E+00 -0.47909594725E+02  0.62330932274E+02  0.00000000000E+00 0.  1.
</event>
<event>
 7    1  0.2412631E-010  0.1746299E+03  0.7561462E-02  0.1173104E+00
         -2   -1    0    0    0  501 -0.00000000000E+00  0.00000000000E+00  0.50666823910E+03  0.50666823910E+03  0.00000000000E+00 0.  1.
          2   -1    0    0  501    0  0.00000000000E+00 -0.00000000000E+00 -0.88749745778E+02  0.88749745778E+02  0.00000000000E+00 0. -1.
         25    2    1    2    0    0 -0.76811424188E+02  0.13656264183E+03  0.87519129695E+02  0.21878998130E+03  0.12514035251E+03 0.  0.
          5    1    3    3  502    0 -0.60191232571E+02  0.28991825992E+02  0.87112755661E+02  0.10986179978E+03  0.41800000000E+01 0. -1.
         -5    1    3    3    0  502 -0.16620191617E+02  0.10757081584E+03  0.40637403432E+00  0.10892818152E+03  0.41800000000E+01 0. -1.
        -11    1    1    2    0    0  0.72561849232E+01 -0.88615910126E+02  0.22238530161E+03  0.23950084367E+03  0.00000000000E+00 0.  1.
         11    1    1    2    0    0  0.69555239265E+02 -0.47946731703E+02  0.10801406202E+03  0.13712715991E+03  0.00000000000E+00 0. -1.
</event>
<event>
 6    1  0.2412631E-010  0.8300586E+02  0.7561462E-02  0.1320731E+00
         -2   -1    0    0    0  501 -0.00000000000E+00  0.00000000000E+00  0.35684495005E+02  0.35684495005E+02  0.00000000000E+00 0.  1.
          2   -1    0    0  501    0  0.00000000000E+00 -0.00000000000E+00 -0.47398954825E+03  0.47398954825E+03  0.00000000000E+00 0. -1.
          5    1    1    2  502    0 -0.32239571451E+02 -0.27638621642E+02 -0.10202004288E+02  0.43872960524E+02  0.41800000000E+01 0.  1.
         -5    1    1    2    0  502  0.19354430737E+02 -0.44872896216E+02 -0.23312079483E+03  0.23822457510E+03  0.41800000000E+01 0.  1.
        -11    1    1    2    0    0  0.74702007043E+00  0.31867139348E+02 -0.42187537802E+01  0.32153856575E+02  0.00000000000E+00 0.  1.
         11    1    1    2    0    0  0.12138120644E+02  0.40644378510E+02 -0.19076350035E+03  0.19542265105E+03  0.00000000000E+00 0. -1.
</event>
<event>
 7    1  0.2412631E-010  0.2867118E+03  0.7561462E-02  0.1092079E+00
         -2   -1    0    0    0  501 -0.00000000000E+00  0.00000000000E+00  0.25408741418E+03  0.25408741418E+03  0.00000000000E+00 0.  1.
          2   -1    0    0  501    0  0.00000000000E+00 -0.00000000000E+00 -0.43500480346E+03  0.43500480346E+03  0.00000000000E+00 0. -1.
         25    2    1    2    0    0  0.27054197509E+03 -0.48728948922E+02  0.65593156785E+02  0.30907220495E+03  0.12512271939E+03 0.  0.
          5    1    3    3  502    0  0.16762993209E+03  0.27783489405E+02  0.13197078241E+02  0.17047976916E+03  0.41800000000E+01 0. -1.
         -5    1    3    3    0  502  0.10291204300E+03 -0.76512438327E+02  0.52396078545E+02  0.13859243580E+03  0.41800000000E+01 0. -1.
        -11    1    1    2    0    0 -0.36758962926E+02  0.25378704034E+01 -0.83583853730E+02  0.91345075105E+02  0.00000000000E+00 0. -1.
         11    1    1    2    0    0 -0.23378301217E+03  0.46191078519E+02 -0.16292669234E+03  0.28867493758E+03  0.00000000000E+00 0.  1.
</event>
<event>
 6    1  0.2412631E-010  0.1080584E+03  0.7561462E-02  0.1264208E+00
         -2   -1    0    0    0  501 -0.00000000000E+00  0.00000000000E+00  0.41937584621E+02  0.41937584621E+02  0.00000000000E+00 0.  1.
          2   -1    0    0  501    0  0.00000000000E+00 -0.00000000000E+00 -0.32992760332E+03  0.32992760332E+03  0.00000000000E+00 0. -1.
          5    1    1    2  502    0 -0.57729269013E+02 -0.52803130679E+01 -0.98678045975E+02  0.11452239678E+03  0.41800000000E+01 0.  1.
         -5    1    1    2    0  502  0.64743400392E+02  0.17473240330E+02 -0.13497789244E+03  0.15077641019E+03  0.41800000000E+01 0.  1.
        -11    1    1    2    0    0 -0.46974360001E+02  0.51280513579E+01 -0.35563616544E+02  0.59141002950E+02  0.00000000000E+00 0.  1.
         11    1    1    2    0    0  0.39960228623E+02 -0.17320978620E+02 -0.18770463747E+02  0.47425378029E+02  0.00000000000E+00 0. -1.
</event>
<event>
 7    1  0.2412631E-010  0.8322095E+02  0.7561462E-02  0.1320152E+00
         -2   -1    0    0    0  501 -0.00000000000E+00  0.00000000000E+00  0.88284857657E+02  0.88284857657E+02  0.00000000000E+00 0.  1.
          2   -1    0    0  501    0  0.00000000000E+00 -0.00000000000E+00 -0.17467040539E+03  0.17467040539E+03  0.00000000000E+00 0. -1.
         25    2    1    2    0    0  0.59272661458E+02 -0.88788705888E+01 -0.33218125781E+02  0.14260212749E+03  0.12505934649E+03 0.  0.
          5    1    3    3  502    0  0.16507714428E+02 -0.11167191688E+02  0.47194530553E+02  0.51400456418E+02  0.41800000000E+01 0.  1.
         -5    1    3    3    0  502  0.42764947030E+02  0.22883210988E+01 -0.80412656334E+02  0.91201671074E+02  0.41800000000E+01 0.  1.
        -11    1    1    2    0    0  0.16544557452E+02 -0.16235427918E+02 -0.28553454304E+02  0.36777863636E+02  0.00000000000E+00 0. -1.
         11    1    1    2    0    0 -0.75817218909E+02  0.25114298507E+02 -0.24613967646E+02  0.83575271917E+02  0.00000000000E+00 0.  1.
</event>
<event>
 6    1  0.2412631E-010  0.9343504E+02  0.7561462E-02  0.1294740E+00
         -2   -1    0    0    0  501 -0.00000000000E+00  0.00000000000E+00  0.16894835577E+03  0.16894835577E+03  0.00000000000E+00 0.  1.
          2   -1    0    0  501    0  0.00000000000E+00 -0.00000000000E+00 -0.12161791148E+03  0.12161791148E+03  0.00000000000E+00 0. -1.
          5    1    1    2  502    0 -0.45719620052E+01  0.52549816237E+02 -0.42313665302E+02  0.67751787389E+02  0.41800000000E+01 0. -1.
         -5    1    1    2    0  502  0.44897196639E+01 -0.70507566737E+02 -0.22043846031E+02  0.74127444969E+02  0.41800000000E+01 0. -1.
        -11    1    1    2    0    0  0.24352880395E+02 -0.98528158764E+01 -0.46099098364E+01  0.26671933431E+02  0.00000000000E+00 0. -1.
         11    1    1    2    0    0 -0.24270638054E+02  0.27810566376E+02  0.11629786546E+03  0.12201510146E+03  0.00000000000E+00 0.  1.
</event>
<event>
 6    1  0.2412631E-010  0.1618578E+03  0.7561462E-02  0.1186615E+00
          2   -1    0    0  501    0  0.00000000000E+00  0.00000000000E+00  0.99525004643E+03  0.99525004643E+03  0.00000000000E+00 0. -1.
         -2   -1    0    0    0  501 -0.00000000000E+00 -0.00000000000E+00 -0.29493870710E+02  0.29493870710E+02  0.00000000000E+00 0.  1.
          5    1    1    2  502    0  0.27355610457E+02 -0.19911233907E+02  0.20523906868E+03  0.20805127822E+03  0.41800000000E+01 0. -1.
         -5    1    1    2    0  502 -0.11702819604E+03 -0.74066603720E+02  0.38379441443E+03  0.40804054382E+03  0.41800000000E+01 0. -1.
        -11    1    1    2    0    0  0.43394594929E+02 -0.31145382949E+01  0.17173518676E+03  0.17716028220E+03  0.00000000000E+00 0. -1.
         11    1    1    2    0    0  0.46277990655E+02  0.97092375922E+02  0.20498750585E+03  0.23149181290E+03  0.00000000000E+00 0.  1.
</event>
<event>
 6    1  0.2412631E-010  0.1678271E+03  0.7561462E-02  0.1180133E+00
          3   -1    0    0  501    0  0.00000000000E+00  0.00000000000E+00  0.14752194858E+04  0.14752194858E+04  0.00000000000E+00 0. -1.
         -3   -1    0    0    0  501 -0.00000000000E+00 -0.00000000000E+00 -0.34459606191E+02  0.34459606191E+02  0.00000000000E+00 0.  1.
          5    1    1    2  502    0 -0.14973607089E+02  0.70171052899E+01  0.13068311142E+02  0.21487248125E+02  0.41800000000E+01 0.  1.
         -5    1    1    2    0  502 -0.14007239206E+03 -0.62833061106E+02  0.10988116753E+04  0.11094921536E+04  0.41800000000E+01 0.  1.
        -11    1    1    2    0    0  0.83610407659E+02  0.25434154705E+02  0.26214761154E+03  0.27633126267E+03  0.00000000000E+00 0.  1.
         11    1    1    2    0    0  0.71435591487E+02  0.30381801111E+02  0.66732281631E+02  0.10236842766E+03  0.00000000000E+00 0. -1.
</event>
<event>
 7    1  0.2412631E-010  0.8179935E+02  0.7561462E-02  0.1324021E+00
          2   -1    0    0  501    0  0.00000000000E+00  0.00000000000E+00  0.19099214756E+03  0.19099214756E+03  0.00000000000E+00 0. -1.
         -2   -1    0    0    0  501 -0.00000000000E+00 -0.00000000000E+00 -0.84962809646E+02  0.84962809646E+02  0.00000000000E+00 0.  1.
         25    2    1    2    0    0 -0.21092179936E+02 -0.88374436706E+01 -0.93481673169E+01  0.12748426616E+03  0.12506745948E+03 0.  0.
          5    1    3    3  502    0 -0.45798502619E+02 -0.31401698027E+02 -0.49879995748E+02  0.74759988343E+02  0.41800000000E+01 0.  1.
         -5    1    3    3    0  502  0.24706322683E+02  0.22564254356E+02  0.40531828432E+02  0.52724277816E+02  0.41800000000E+01 0.  1.
        -11    1    1    2    0    0  0.51250733078E+01  0.39388227560E+02  0.15201980795E+02  0.42529978448E+02  0.00000000000E+00 0.  1.
         11    1    1    2    0    0  0.15967106628E+02 -0.30550783889E+02  0.10017552444E+03  0.10594071260E+03  0.00000000000E+00 0. -1.
</event>
<event>
 7    1  0.2412631E-010  0.1314383E+03  0.7561462E-02  0.1225337E+00
         -1   -1    0    0    0  501 -0.00000000000E+00  0.00000000000E+00  0.19264595167E+03  0.19264595167E+03  0.00000000000E+00 0.  1.
          1   -1    0    0  501    0  0.00000000000E+00 -0.00000000000E+00 -0.10308958224E+03  0.10308958224E+03  0.00000000000E+00 0. -1.
         25    2    1    2    0    0  0.37490623889E+02  0.69607693867E+02  0.93515437634E+02  0.17508674324E+03  0.12513773474E+03 0.  0.
          5    1    3    3  502    0 -0.45061069726E+02  0.21112802888E+02  0.46938694896E+02  0.68534399605E+02  0.41800000000E+01 0.  1.
         -5    1    3    3    0  502  0.82551693615E+02  0.48494890979E+02  0.46576742739E+02  0.10655234363E+03  0.41800000000E+01 0.  1.
        -11    1    1    2    0    0  0.21223772316E+02  0.53526451143E+01  0.10607504449E+02  0.24323208499E+02  0.00000000000E+00 0.  1.
         11    1    1    2    0    0 -0.58714396205E+02 -0.74960338981E+02 -0.14566572648E+02  0.96325582171E+02  0.00000000000E+00 0. -1.
</event>
<event>
 7    1  0.2412631E-010  0.1129243E+03  0.7561462E-02  0.1255248E+00
         -1   -1    0    0    0  501 -0.00000000000E+00  0.00000000000E+00  0.19964924222E+03  0.19964924222E+03  0.00000000000E+00 0.  1.
          1   -1    0    0  501    0  0.00000000000E+00 -0.00000000000E+00 -0.12174792374E+03  0.12174792374E+03  0.00000000000E+00 0. -1.
         25    2    1    2    0    0  0.45389932148E+02 -0.28894444391E+02 -0.59651395828E+02  0.14864292359E+03  0.12506516242E+03 0.  0.
          5    1    3    3  502    0 -0.37248645647E+02 -0.22740971363E+02 -0.47744984166E+02  0.64820284588E+02  0.41800000000E+01 0. -1.
         -5    1    3    3    0  502  0.82638577795E+02 -0.61534730279E+01 -0.11906411662E+02  0.83822639000E+02  0.41800000000E+01 0. -1.
        -11    1    1    2    0    0  0.23721375344E+02  0.16307422082E+02  0.68260717654E+02  0.74082124955E+02  0.00000000000E+00 0.  1.
         11    1    1    2    0    0 -0.69111307492E+02  0.12587022309E+02  0.69291996653E+02  0.98672117409E+02  0.00000000000E+00 0. -1.
</event>
<event>
 7    1  0.2412631E-010  0.1247585E+03  0.7561462E-02  0.1235447E+00
          2   -1    0    0  501    0  0.00000000000E+00  0.00000000000E+00  0.15882435098E+03  0.15882435098E+03  0.00000000000E+00 0. -1.
         -2   -1    0    0    0  501 -0.00000000000E+00 -0.00000000000E+00 -0.17082730228E+03  0.17082730228E+03  0.00000000000E+00 0.  1.
         25    2    1    2    0    0  0.63170448534E+02  0.71366867211E+02 -0.83754573225E+02  0.17821106916E+03  0.12514240421E+03 0.  0.
          5    1    3    3  502    0  0.15182492068E+02 -0.34455289781E+02 -0.60434751029E+01  0.38362365029E+02  0.41800000000E+01 0. -1.
         -5    1    3    3    0  502  0.47987956466E+02  0.10582215699E+03 -0.77711098123E+02  0.13984870413E+03  0.41800000000E+01 0. -1.
        -11    1    1    2    0    0 -0.38459742924E+02 -0.41040239695E+02  0.91664625500E+02  0.10754467289E+03  0.00000000000E+00 0. -1.
         11    1    1    2    0    0 -0.24710705610E+02 -0.30326627516E+02 -0.19913003576E+02  0.43895911196E+02  0.00000000000E+00 0.  1.
</event>
<event>
 6    1  0.2412631E-010  0.1499900E+03  0.7561462E-02  0.1200485E+00
          1   -1    0    0  501    0  0.00000000000E+00  0.00000000000E+00  0.16435816963E+03  0.16435816963E+03  0.00000000000E+00 0. -1.
         -1   -1    0    0    0  501 -0.00000000000E+00 -0.00000000000E+00 -0.45254013525E+03  0.45254013525E+03  0.00000000000E+00 0.  1.
          5    1    1    2  502    0 -0.65023751683E+02  0.63517815176E+02 -0.34756012013E+03  0.35927442246E+03  0.41800000000E+01 0. -1.
         -5    1    1    2    0  502 -0.24713459040E+02  0.54232301107E+02 -0.34060790831E+02  0.68771414215E+02  0.41800000000E+01 0. -1.
        -11    1    1    2    0    0  0.31107278592E+02 -0.56205729628E+02  0.80312585507E+02  0.10284385356E+03  0.00000000000E+00 0. -1.
         11    1    1    2    0    0  0.58629932131E+02 -0.61544386655E+02  0.13126359833E+02  0.86008614644E+02  0.00000000000E+00 0.  1.
</event>
<event>
 7    1  0.2412631E-010  0.1126524E+03  0.7561462E-02  0.1255735E+00
          4   -1    0    0  501    0  0.00000000000E+00  0.00000000000E+00  0.29102771648E+03  0.29102771648E+03  0.00000000000E+00 0. -1.
         -4   -1    0    0    0  501 -0.00000000000E+00 -0.00000000000E+00 -0.21317134014E+03  0.21317134014E+03  0.00000000000E+00 0.  1.
         25    2    1    2    0    0  0.21918182487E+02  0.12605500523E+02  0.26410822047E+03  0.29330532522E+03  0.12504221811E+03 0.  0.
          5    1    3    3  502    0 -0.37178351234E+02  0.45479243812E+02  0.10532224017E+03  0.12066829779E+03  0.41800000000E+01 0. -1.
         -5    1    3    3    0  502  0.59096533721E+02 -0.32873743289E+02  0.15878598030E+03  0.17263702742E+03  0.41800000000E+01 0. -1.
        -11    1    1    2    0    0 -0.26500722669E+01 -0.53441629307E+02 -0.10865999512E+03  0.12111987932E+03  0.00000000000E+00 0.  1.
         11    1    1    2    0    0 -0.19268110220E+02  0.40836128784E+02 -0.77591849007E+02  0.89773852083E+02  0.00000000000E+00 0. -1.
</event>
<event>
 7    1  0.2412631E-010  0.7463338E+02  0.7561462E-02  0.1345010E+00
         -1   -1    0    0    0  501 -0.00000000000E+00  0.00000000000E+00  0.13673934886E+03  0.13673934886E+03  0.00000000000E+00 0.  1.
          1   -1    0    0  501    0  0.00000000000E+00 -0.00000000000E+00 -0.11315063997E+03  0.11315063997E+03  0.00000000000E+00 0. -1.
         25    2    1    2    0    0 -0.22504373133E+02 -0.42396654383E+02  0.49517855235E+02  0.14280683938E+03  0.12505139853E+03 0.  0.
          5    1    3    3  502    0 -0.52919590761E+02 -0.45620797438E+02  0.75139227333E+02  0.10268941586E+03  0.41800000000E+01 0. -1.
         -5    1    3    3    0  502  0.30415217628E+02  0.32241430543E+01 -0.25621372099E+02  0.40117423522E+02  0.41800000000E+01 0. -1.
        -11    1    1    2    0    0  0.67783696944E+01  0.19339340804E+02  0.34722096567E+02  0.40318486931E+02  0.00000000000E+00 0.  1.
         11    1    1    2    0    0  0.15726003438E+02  0.23057313579E+02 -0.60651242912E+02  0.66764662513E+02  0.00000000000E+00 0. -1.
</event>
<event>
 6    1  0.2412631E-010  0.9287317E+02  0.7561462E-02  0.1296039E+00
         -2   -1    0    0    0  501 -0.00000000000E+00  0.00000000000E+00  0.39971939293E+02  0.39971939293E+02  0.00000000000E+00 0.  1.
          2   -1    0    0  501    0  0.00000000000E+00 -0.00000000000E+00 -0.40659416348E+03  0.40659416348E+03  0.00000000000E+00 0. -1.
          5    1    1    2  502    0 -0.15513247868E+02  0.64670982708E+02 -0.81372295672E+02  0.10517566148E+03  0.41800000000E+01 0. -1.
         -5    1    1    2    0  502  0.33673655667E+02 -0.26574944282E+02 -0.21541795453E+03  0.21968730114E+03  0.41800000000E+01 0. -1.
        -11    1    1    2    0    0  0.23637312461E+02 -0.17515538369E+02 -0.69106098053E+02  0.75107718730E+02  0.00000000000E+00 0. -1.
         11    1    1    2    0    0 -0.41797720260E+02 -0.20580500057E+02 -0.72587592922E+00  0.46595421421E+02  0.00000000000E+00 0.  1.
</event>
<event>
 7    1  0.2412631E-010  0.1106425E+03  0.7561462E-02  0.1259385E+00
          1   -1    0    0  501    0  0.00000000000E+00  0.00000000000E+00  0.14782908534E+03  0.14782908534E+03  0.00000000000E+00 0. -1.
         -1   -1    0    0    0  501 -0.00000000000E+00 -0.00000000000E+00 -0.12521058595E+03  0.12521058595E+03  0.00000000000E+00 0.  1.
         25    2    1    2    0    0  0.68389660657E+02  0.14066199874E+02  0.55908058621E+02  0.15380130732E+03  0.12511645556E+03 0.  0.
          5    1    3    3  502    0 -0.32960338400E+02 -0.16610871260E+02  0.11343457881E+02  0.38838787162E+02  0.41800000000E+01 0. -1.
         -5    1    3    3    0  502  0.10134999906E+03  0.30677071135E+02  0.44564600739E+02  0.11496252016E+03  0.41800000000E+01 0. -1.
        -11    1    1    2    0    0 -0.37125161411E+02 -0.25320425622E+02 -0.61142630219E+02  0.75880318881E+02  0.00000000000E+00 0.  1.
         11    1    1    2    0    0 -0.31264499246E+02  0.11254225748E+02  0.27853070993E+02  0.43358045090E+02  0.00000000000E+00 0. -1.
</event>
<event>
 6    1  0.2412631E-010  0.9228334E+02  0.7561462E-02  0.1297415E+00
         -2   -1    0    0    0  501 -0.00000000000E+00  0.00000000000E+00  0.18238783115E+03  0.18238783115E+03  0.00000000000E+00 0.  1.
          2   -1    0    0  501    0  0.00000000000E+00 -0.00000000000E+00 -0.71859786792E+02  0.71859786792E+02  0.00000000000E+00 0. -1.
          5    1    1    2  502    0 -0.11267385124E+02  0.38918200979E+02  0.75355792398E+02  0.85659489742E+02  0.41800000000E+01 0. -1.
         -5    1    1    2    0  502 -0.21260154373E+02 -0.47726589934E+02 -0.18314032951E+02  0.55522047455E+02  0.41800000000E+01 0. -1.
        -11    1    1    2    0    0  0.32845366945E+02  0.44731938824E+02  0.95485275367E+01  0.56311090016E+02  0.00000000000E+00 0.  1.
         11    1    1    2    0    0 -0.31782744827E+00 -0.35923549869E+02  0.43937757373E+02  0.56754990727E+02  0.00000000000E+00 0. -1.
</event>
<event>
 6    1  0.2412631E-010  0.1022004E+03  0.7561462E-02  0.1275736E+00
          2   -1    0    0  501    0  0.00000000000E+00  0.00000000000E+00  0.10822438917E+03  0.10822438917E+03  0.00000000000E+00 0. -1.
         -2   -1    0    0    0  501 -0.00000000000E+00 -0.00000000000E+00 -0.12376179485E+03  0.12376179485E+03  0.00000000000E+00 0.  1.
          5    1    1    2  502    0  0.17259296755E+02  0.29096978959E+02  0.37748167263E+02  0.50861714881E+02  0.41800000000E+01 0. -1.
         -5    1    1    2    0  502 -0.54804401399E+02 -0.46515571482E+02 -0.37311808462E+02  0.81097868367E+02  0.41800000000E+01 0. -1.
        -11    1    1    2    0    0 -0.11092050107E+02 -0.29016184960E+02 -0.94357895909E+01  0.32465469201E+02  0.00000000000E+00 0.  1.
         11    1    1    2    0    0  0.48637154752E+02  0.46434777484E+02 -0.65379748900E+01  0.67561131562E+02  0.00000000000E+00 0. -1.
</event>
<event>
 7    1  0.2412631E-010  0.2731028E+03  0.7561462E-02  0.1099517E+00
          2   -1    0    0  501    0  0.00000000000E+00  0.00000000000E+00  0.12850190792E+04  0.12850190792E+04  0.00000000000E+00 0. -1.
         -2   -1    0    0    0  501 -0.00000000000E+00 -0.00000000000E+00 -0.61891747684E+02  0.61891747684E+02  0.00000000000E+00 0.  1.
         25    2    1    2    0    0 -0.10809954397E+03 -0.23476635272E+03  0.69331562741E+03  0.75042847561E+03  0.12512228425E+03 0.  0.
          5    1    3    3  502    0 -0.21569491405E+02  0.11728026606E+02  0.79792147132E+02  0.83588568067E+02  0.41800000000E+01 0. -1.
         -5    1    3    3    0  502 -0.86530052562E+02 -0.24649437933E+03  0.61352348028E+03  0.66683990754E+03  0.41800000000E+01 0. -1.
        -11    1    1    2    0    0  0.43923606247E+02  0.12942853238E+03  0.18313440549E+03  0.22851529195E+03  0.00000000000E+00 0.  1.
         11    1    1    2    0    0  0.64175937720E+02  0.10533782034E+03  0.34667729863E+03  0.36796705934E+03  0.00000000000E+00 0. -1.
</event>
<event>
 7    1  0.2412631E-010  0.8833669E+02  0.7561462E-02  0.1306930E+00
          1   -1    0    0  501    0  0.00000000000E+00  0.00000000000E+00  0.41671523237E+02  0.41671523237E+02  0.00000000000E+00 0. -1.
         -1   -1    0    0    0  501 -0.00000000000E+00 -0.00000000000E+00 -0.35070717763E+03  0.35070717763E+03  0.00000000000E+00 0.  1.
         25    2    1    2    0    0 -0.33926463752E+02  0.20380639457E+02 -0.17264578027E+03  0.21682410280E+03  0.12505898890E+03 0.  0.
          5    1    3    3  502    0 -0.32192854801E+02  0.53230784431E+02 -0.17275685641E+03  0.18366355150E+03  0.41800000000E+01 0.  1.
         -5    1    3    3    0  502 -0.17336089513E+01 -0.32850144974E+02  0.11107614566E+00  0.33160551303E+02  0.41800000000E+01 0.  1.
        -11    1    1    2    0    0 -0.21573319779E+02  0.12231785590E+01  0.49603355612E+01  0.22170007238E+02  0.00000000000E+00 0. -1.
         11    1    1    2    0    0  0.55499783531E+02 -0.21603818016E+02 -0.14135020969E+03  0.15338459083E+03  0.00000000000E+00 0.  1.
</event>
<event>
 7    1  0.2412631E-010  0.1205374E+03  0.7561462E-02  0.1242213E+00
         -1   -1    0    0    0  501 -0.00000000000E+00  0.00000000000E+00  0.33047866274E+03  0.33047866274E+03  0.00000000000E+00 0.  1.
          1   -1    0    0  501    0  0.00000000000E+00 -0.00000000000E+00 -0.85173778975E+02  0.85173778975E+02  0.00000000000E+00 0. -1.
         25    2    1    2    0    0  0.43587011331E+02  0.53405176541E+02 -0.20959165092E+01  0.14288726899E+03  0.12514167306E+03 0.  0.
          5    1    3    3  502    0 -0.89051725332E+01  0.70284210532E+02 -0.34377052672E+02  0.78857000313E+02  0.41800000000E+01 0.  1.
         -5    1    3    3    0  502  0.52492183865E+02 -0.16879033991E+02  0.32281136163E+02  0.64030268680E+02  0.41800000000E+01 0.  1.
        -11    1    1    2    0    0 -0.64248269078E+02 -0.77735129869E+01  0.14365395995E+03  0.15755864875E+03  0.00000000000E+00 0. -1.
         11    1    1    2    0    0  0.20661257747E+02 -0.45631663554E+02  0.10374684032E+03  0.11520652398E+03  0.00000000000E+00 0.  1.
</event>
<event>
 7    1  0.2412631E-010  0.1781826E+03  0.7561462E-02  0.1169574E+00
         -1   -1    0    0    0  501 -0.00000000000E+00  0.00000000000E+00  0.36452512836E+02  0.36452512836E+02  0.00000000000E+00 0.  1.
          1   -1    0    0  501    0  0.00000000000E+00 -0.00000000000E+00 -0.11013169947E+04  0.11013169947E+04  0.00000000000E+00 0. -1.
         25    2    1    2    0    0 -0.60296455646E+02  0.13203082508E+03 -0.34104251326E+03  0.39117421039E+03  0.12505784936E+03 0.  0.
          5    1    3    3  502    0 -0.71389399156E+02  0.15221480785E+03 -0.29823485900E+03  0.34238472157E+03  0.41800000000E+01 0.  1.
         -5    1    3    3    0  502  0.11092943510E+02 -0.20183982769E+02 -0.42807654256E+02  0.48789488817E+02  0.41800000000E+01 0.  1.
        -11    1    1    2    0    0 -0.18280542823E+02 -0.14173942442E+02 -0.27145831130E+02  0.35664759049E+02  0.00000000000E+00 0.  1.
         11    1    1    2    0    0  0.78576998470E+02 -0.11785688264E+03 -0.69667613747E+03  0.71093053809E+03  0.00000000000E+00 0. -1.
</event>
<event>
 7    1  0.2412631E-010  0.2652476E+03  0.7561462E-02  0.1104031E+00
          2   -1    0    0  501    0  0.00000000000E+00  0.00000000000E+00  0.18765570822E+03  0.18765570822E+03  0.00000000000E+00 0. -1.
         -2   -1    0    0    0  501 -0.00000000000E+00 -0.00000000000E+00 -0.44027066656E+03  0.44027066656E+03  0.00000000000E+00 0.  1.
         25    2    1    2    0    0  0.10592108461E+03 -0.22925851992E+03 -0.37553239640E+02  0.28430350494E+03  0.12505795454E+03 0.  0.
          5    1    3    3  502    0 -0.13755891724E+02 -0.99326209423E+02 -0.38799986598E+02  0.10760033362E+03  0.41800000000E+01 0. -1.
         -5    1    3    3    0  502  0.11967697634E+03 -0.12993231050E+03  0.12467469584E+01  0.17670317132E+03  0.41800000000E+01 0. -1.
        -11    1    1    2    0    0 -0.71628293395E+02  0.17684048786E+03 -0.10708623531E+03  0.21879358390E+03  0.00000000000E+00 0. -1.
         11    1    1    2    0    0 -0.34292791219E+02  0.52418032062E+02 -0.10797548339E+03  0.12482928594E+03  0.00000000000E+00 0.  1.
</event>
<event>
 6    1  0.2412631E-010  0.1160809E+03  0.7561462E-02  0.1249706E+00
          1   -1    0    0  501    0  0.00000000000E+00  0.00000000000E+00  0.56717379688E+03  0.56717379688E+03  0.00000000000E+00 0. -1.
         -1   -1    0    0    0  501 -0.00000000000E+00 -0.00000000000E+00 -0.37033171969E+02  0.37033171969E+02  0.00000000000E+00 0.  1.
          5    1    1    2  502    0 -0.70589595372E+02 -0.75745818507E+02  0.86064413260E+02  0.13470291617E+03  0.41800000000E+01 0. -1.
         -5    1    1    2    0  502  0.24322381780E+02  0.19196959766E+02  0.78370810561E+02  0.84377472513E+02  0.41800000000E+01 0. -1.
        -11    1    1    2    0    0  0.62485955894E+02  0.40548933874E+02  0.34903804703E+03  0.35689812131E+03  0.00000000000E+00 0. -1.
         11    1    1    2    0    0 -0.16218742302E+02  0.15999924867E+02  0.16667354060E+02  0.28228458849E+02  0.00000000000E+00 0.  1.
</event>
<event>
 7    1  0.2412631E-010  0.9133397E+02  0.7561462E-02  0.1299653E+00
          1   -1    0    0  501    0  0.00000000000E+00  0.00000000000E+00  0.34983949769E+03  0.34983949769E+03  0.00000000000E+00 0. -1.
         -1   -1    0    0    0  501 -0.00000000000E+00 -0.00000000000E+00 -0.36153254034E+02  0.36153254034E+02  0.00000000000E+00 0.  1.
         25    2    1    2    0    0 -0.16475092936E+02  0.20381028928E+02  0.14988027812E+03  0.19693933540E+03  0.12503675072E+03 0.  0.
          5    1    3    3  502    0  0.26354615375E+02  0.49132753407E+02  0.12997231643E+03  0.14148805125E+03  0.41800000000E+01 0.  1.
         -5    1    3    3    0  502 -0.42829708311E+02 -0.28751724479E+02  0.19907961684E+02  0.55451284142E+02  0.41800000000E+01 0.  1.
        -11    1    1    2    0    0  0.44305569513E+02 -0.13789736566E+02  0.15053446004E+03  0.15752385211E+03  0.00000000000E+00 0. -1.
         11    1    1    2    0    0 -0.27830476577E+02 -0.65912923613E+01  0.13271505500E+02  0.31529564218E+02  0.00000000000E+00 0.  1.
</event>
<event>
 7    1  0.2412631E-010  0.9037084E+02  0.7561462E-02  0.1301956E+00
          2   -1    0    0  501    0  0.00000000000E+00  0.00000000000E+00  0.49879541116E+03  0.49879541116E+03  0.00000000000E+00 0. -1.
         -2   -1    0    0    0  501 -0.00000000000E+00 -0.00000000000E+00 -0.28734382455E+02  0.28734382455E+02  0.00000000000E+00 0.  1.
         25    2    1    2    0    0 -0.84405933313E+01  0.20439521275E+02  0.29414910050E+03  0.32041892932E+03  0.12512225740E+03 0.  0.
          5    1    3    3  502    0 -0.41792625598E+02  0.36478639482E+02  0.54448846897E+02  0.77842559191E+02  0.41800000000E+01 0. -1.
         -5    1    3    3    0  502  0.33352032267E+02 -0.16039118207E+02  0.23970025360E+03  0.24257637013E+03  0.41800000000E+01 0. -1.
        -11    1    1    2    0    0  0.15266033562E+02  0.31752053001E+02  0.15879689862E+02  0.38644652936E+02  0.00000000000E+00 0.  1.
         11    1    1    2    0    0 -0.68254402303E+01 -0.52191574276E+02  0.16003223834E+03  0.16846621135E+03  0.00000000000E+00 0. -1.
</event>
<event>
 7    1  0.2412631E-010  0.4151598E+03  0.7561462E-02  0.1038653E+00
          2   -1    0    0  501    0  0.00000000000E+00  0.00000000000E+00  0.16951747068E+04  0.16951747068E+04  0.00000000000E+00 0. -1.
         -2   -1    0    0    0  501 -0.00000000000E+00 -0.00000000000E+00 -0.10715577750E+03  0.10715577750E+03  0.00000000000E+00 0.  1.
         25    2    1    2    0    0 -0.40290523160E+03  0.40116967084E+02  0.96149680470E+03  0.10507407725E+04  0.12505226430E+03 0.  0.
          5    1    3    3  502    0 -0.18100988069E+03 -0.27575766309E+02  0.53098473699E+03  0.56168252876E+03  0.41800000000E+01 0.  1.
         -5    1    3    3    0  502 -0.22189535091E+03  0.67692733392E+02  0.43051206770E+03  0.48905824372E+03  0.41800000000E+01 0.  1.
        -11    1    1    2    0    0  0.33702900273E+02 -0.31058518160E+02  0.67227914418E+02  0.81364055418E+02  0.00000000000E+00 0.  1.
         11    1    1    2    0    0  0.36920233133E+03 -0.90584489241E+01  0.55929421020E+03  0.67022565642E+03  0.00000000000E+00 0. -1.
</event>
<event>
 7    1  0.2412631E-010  0.8542762E+02  0.7561462E-02  0.1314318E+00
         -1   -1    0    0    0  501 -0.00000000000E+00  0.00000000000E+00  0.14523046308E+03  0.14523046308E+03  0.00000000000E+00 0.  1.
          1   -1    0    0  501    0  0.00000000000E+00 -0.00000000000E+00 -0.10301423791E+03  0.10301423791E+03  0.00000000000E+00 0. -1.
         25    2    1    2    0    0 -0.41236979455E+02 -0.27103605214E+02  0.44209721390E+02  0.14150885649E+03  0.12504064583E+03 0.  0.
          5    1    3    3  502    0 -0.50581403126E+02 -0.64341814751E+02 -0.11208090143E+01  0.81957770105E+02  0.41800000000E+01 0. -1.
         -5    1    3    3    0  502  0.93444236703E+01  0.37238209538E+02  0.45330530404E+02  0.59551086388E+02  0.41800000000E+01 0. -1.
        -11    1    1    2    0    0  0.13593114980E+02  0.14591010257E+02 -0.47798636792E+02  0.51791698508E+02  0.00000000000E+00 0. -1.
         11    1    1    2    0    0  0.27643864475E+02  0.12512594957E+02  0.45805140568E+02  0.54944145986E+02  0.00000000000E+00 0.  1.
</event>
<event>
 7    1  0.2412631E-010  0.8994418E+02  0.7561462E-02  0.1302987E+00
         -1   -1    0    0    0  501 -0.00000000000E+00  0.00000000000E+00  0.36293176929E+03  0.36293176929E+03  0.00000000000E+00 0.  1.
          1   -1    0    0  501    0  0.00000000000E+00 -0.00000000000E+00 -0.44708807677E+02  0.44708807677E+02  0.00000000000E+00 0. -1.
         25    2    1    2    0    0  0.28804289239E+02 -0.28414806678E+02  0.25814344656E+03  0.28971102140E+03  0.12512932750E+03 0.  0.
          5    1    3    3  502    0  0.40604286326E+02  0.90031558088E+01  0.24437057452E+03  0.24791977528E+03  0.41800000000E+01 0.  1.
         -5    1    3    3    0  502 -0.11799997087E+02 -0.37417962486E+02  0.13772872040E+02  0.41791246118E+02  0.41800000000E+01 0.  1.
        -11    1    1    2    0    0  0.31823597748E+02  0.35518975054E+00  0.69576097606E+01  0.32577229271E+02  0.00000000000E+00 0. -1.
         11    1    1    2    0    0 -0.60627886987E+02  0.28059616927E+02  0.53121905288E+02  0.85352326296E+02  0.00000000000E+00 0.  1.
</event>
<event>
 7    1  0.2412631E-010  0.8359819E+02  0.7561462E-02  0.1319140E+00
          2   -1    0    0  501    0  0.00000000000E+00  0.00000000000E+00  0.22061307585E+03  0.22061307585E+03  0.00000000000E+00 0. -1.
         -2   -1    0    0    0  501 -0.00000000000E+00 -0.00000000000E+00 -0.56726801794E+02  0.56726801794E+02  0.00000000000E+00 0.  1.
         25    2    1    2    0    0  0.15700171089E+02 -0.16314581249E+02  0.73958420337E+02  0.14709073482E+03  0.12511265083E+03 0.  0.
          5    1    3    3  502    0  0.46289173249E+01 -0.70917358702E+02  0.38788318078E+02  0.81072218794E+02  0.41800000000E+01 0.  1.
         -5    1    3    3    0  502  0.11071253764E+02  0.54602777453E+02  0.35170102259E+02  0.66018516027E+02  0.41800000000E+01 0.  1.
        -11    1    1    2    0    0 -0.10890995797E+02  0.26620411067E+02  0.10640751435E+03  0.11022621823E+03  0.00000000000E+00 0. -1.
         11    1    1    2    0    0 -0.48091752913E+01 -0.10305829817E+02 -0.16479660626E+02  0.20022924600E+02  0.00000000000E+00 0.  1.
</event>
<event>
 6    1  0.2412631E-010  0.7282143E+02  0.7561462E-02  0.1350753E+00
          2   -1    0    0  501    0  0.00000000000E+00  0.00000000000E+00  0.10712140849E+03  0.10712140849E+03  0.00000000000E+00 0. -1.
         -2   -1    0    0    0  501 -0.00000000000E+00 -0.00000000000E+00 -0.10986885122E+03  0.10986885122E+03  0.00000000000E+00 0.  1.
          5    1    1    2  502    0 -0.34394354195E+02 -0.40955025572E+02  0.29796110479E+02  0.61364210414E+02  0.41800000000E+01 0.  1.
         -5    1    1    2    0  502  0.13706120772E+02  0.28611209112E+02 -0.51218772699E+02  0.60392831614E+02  0.41800000000E+01 0.  1.
        -11    1    1    2    0    0  0.36305515783E+02 -0.50136764412E+01  0.46308085404E+02  0.59056466213E+02  0.00000000000E+00 0. -1.
         11    1    1    2    0    0 -0.15617282360E+02  0.17357492901E+02 -0.27632865919E+02  0.36176751471E+02  0.00000000000E+00 0.  1.
</event>
<event>
 7    1  0.2412631E-010  0.1540890E+03  0.7561462E-02  0.1195537E+00
         -2   -1    0    0    0  501 -0.00000000000E+00  0.00000000000E+00  0.20062612701E+02  0.20062612701E+02  0.00000000000E+00 0.  1.
          2   -1    0    0  501    0  0.00000000000E+00 -0.00000000000E+00 -0.13693110444E+04  0.13693110444E+04  0.00000000000E+00 0. -1.
         25    2    1    2    0    0 -0.12288736582E+03 -0.70528425588E+00 -0.82464564227E+03  0.84307800546E+03  0.12505313216E+03 0.  0.
          5    1    3    3  502    0 -0.42824297322E+02 -0.48567720522E+02 -0.53087257297E+03  0.53482324655E+03  0.41800000000E+01 0. -1.
         -5    1    3    3    0  502 -0.80063068494E+02  0.47862436266E+02 -0.29377306930E+03  0.30825475891E+03  0.41800000000E+01 0. -1.
        -11    1    1    2    0    0 -0.80441984434E+01  0.16187147991E+02 -0.36951074825E+02  0.41135323256E+02  0.00000000000E+00 0.  1.
         11    1    1    2    0    0  0.13093156426E+03 -0.15481863735E+02 -0.48765171462E+03  0.50516032841E+03  0.00000000000E+00 0. -1.
</event>
<event>
 6    1  0.2412631E-010  0.1759149E+03  0.7561462E-02  0.1171816E+00
          2   -1    0    0  501    0  0.00000000000E+00  0.00000000000E+00  0.18460882406E+03  0.18460882406E+03  0.00000000000E+00 0. -1.
         -2   -1    0    0    0  501 -0.00000000000E+00 -0.00000000000E+00 -0.19543582280E+03  0.19543582280E+03  0.00000000000E+00 0.  1.
          5    1    1    2  502    0  0.40942844900E+02  0.91721469816E+02  0.45971907755E+02  0.11054425935E+03  0.41800000000E+01 0. -1.
         -5    1    1    2    0  502  0.81342242883E+02  0.30575889635E+01 -0.35158889685E+02  0.88766712519E+02  0.41800000000E+01 0. -1.
        -11    1    1    2    0    0 -0.12998813026E+03 -0.78683854452E+02  0.94489944488E+00  0.15195050442E+03  0.00000000000E+00 0. -1.
         11    1    1    2    0    0  0.77030424733E+01 -0.16095204327E+02 -0.22584916250E+02  0.28783170564E+02  0.00000000000E+00 0.  1.
</event>
<event>
 6    1  0.2412631E-010  0.1758140E+03  0.7561462E-02  0.1171917E+00
          2   -1    0    0  501    0  0.00000000000E+00  0.00000000000E+00  0.26040703764E+03  0.26040703764E+03  0.00000000000E+00 0. -1.
         -2   -1    0    0    0  501 -0.00000000000E+00 -0.00000000000E+00 -0.14328991163E+03  0.14328991163E+03  0.00000000000E+00 0.  1.
          5    1    1    2  502    0 -0.24798021801E+02  0.27929685480E+02 -0.18876674736E+02  0.42057228455E+02  0.41800000000E+01 0. -1.
         -5    1    1    2    0  502 -0.11413989911E+03 -0.10163646117E+03  0.52013419038E+02  0.16149537135E+03  0.41800000000E+01 0. -1.
        -11    1    1    2    0    0  0.30788528957E+02  0.93725122298E+00 -0.17065426960E+02  0.35214212365E+02  0.00000000000E+00 0.  1.
         11    1    1    2    0    0  0.10814939195E+03  0.72769524468E+02  0.10104580868E+03  0.16493013710E+03  0.00000000000E+00 0. -1.
</event>
<event>
 6    1  0.2412631E-010  0.9871445E+02  0.7561462E-02  0.1283023E+00
         -2   -1    0    0    0  501 -0.00000000000E+00  0.00000000000E+00  0.64278122420E+02  0.64278122420E+02  0.00000000000E+00 0.  1.
          2   -1    0    0  501    0  0.00000000000E+00 -0.00000000000E+00 -0.23342283463E+03  0.23342283463E+03  0.00000000000E+00 0. -1.
          5    1    1    2  502    0  0.25437076770E+01 -0.75542166264E+02 -0.94030147835E+02  0.12071549376E+03  0.41800000000E+01 0. -1.
         -5    1    1    2    0  502 -0.25790554263E+02  0.47832831282E+02 -0.59797118963E+02  0.80909210069E+02  0.41800000000E+01 0. -1.
        -11    1    1    2    0    0  0.39362860324E+02  0.54413343104E+01 -0.41963870650E+02  0.57792813843E+02  0.00000000000E+00 0.  1.
         11    1    1    2    0    0 -0.16116013738E+02  0.22268000672E+02  0.26646425235E+02  0.38283439377E+02  0.00000000000E+00 0. -1.
</event>
<event>
 6    1  0.2412631E-010  0.1060117E+03  0.7561462E-02  0.1268139E+00
          4   -1    0    0  501    0  0.00000000000E+00  0.00000000000E+00  0.19871832124E+03  0.19871832124E+03  0.00000000000E+00 0. -1.
         -4   -1    0    0    0  501 -0.00000000000E+00 -0.00000000000E+00 -0.89115787028E+02  0.89115787028E+02  0.00000000000E+00 0.  1.
          5    1    1    2  502    0 -0.30868004087E+02  0.74234957046E+02  0.12689271654E+03  0.15027606741E+03  0.41800000000E+01 0.  1.
         -5    1    1    2    0  502  0.49261358973E+01 -0.28140614786E+02 -0.83656654152E+01  0.30060235748E+02  0.41800000000E+01 0.  1.
        -11    1    1    2    0    0 -0.27163867062E+02 -0.41153566187E+02 -0.19674281149E+02  0.53090197046E+02  0.00000000000E+00 0.  1.
         11    1    1    2    0    0  0.53105735252E+02 -0.49407760735E+01  0.10749764239E+02  0.54407608071E+02  0.00000000000E+00 0. -1.
</event>
<event>
 6    1  0.2412631E-010  0.5034657E+03  0.7561462E-02  0.1012878E+00
         -2   -1    0    0    0  501 -0.00000000000E+00  0.00000000000E+00  0.49559033760E+03  0.49559033760E+03  0.00000000000E+00 0.  1.
          2   -1    0    0  501    0  0.00000000000E+00 -0.00000000000E+00 -0.62737299760E+03  0.62737299760E+03  0.00000000000E+00 0. -1.
          5    1    1    2  502    0  0.72761428165E+02 -0.13153222988E+02 -0.99619389494E+02  0.12413189706E+03  0.41800000000E+01 0.  1.
         -5    1    1    2    0  502  0.42519407751E+03 -0.36460578737E+02 -0.18873991568E+03  0.46664719599E+03  0.41800000000E+01 0.  1.
        -11    1    1    2    0    0 -0.43403555017E+03  0.17072823629E+02  0.15242167664E+03  0.46033760180E+03  0.00000000000E+00 0.  1.
         11    1    1    2    0    0 -0.63919955508E+02  0.32540978096E+02  0.41549685393E+01  0.71846640360E+02  0.00000000000E+00 0. -1.
</event>
<event>
 7    1  0.2412631E-010  0.3073983E+03  0.7561462E-02  0.1081600E+00
          1   -1    0    0  501    0  0.00000000000E+00  0.00000000000E+00  0.16870623754E+04  0.16870623754E+04  0.00000000000E+00 0. -1.
         -1   -1    0    0    0  501 -0.00000000000E+00 -0.00000000000E+00 -0.60975921885E+02  0.60975921885E+02  0.00000000000E+00 0.  1.
         25    2    1    2    0    0  0.28512441154E+03  0.61572665812E+02  0.10373319768E+04  0.10848036522E+04  0.12511678697E+03 0.  0.
          5    1    3    3  502    0  0.14226482482E+02  0.34946097899E+02  0.67012885297E+02  0.77018320924E+02  0.41800000000E+01 0.  1.
         -5    1    3    3    0  502  0.27089792906E+03  0.26626567913E+02  0.97031909154E+03  0.10077853313E+04  0.41800000000E+01 0.  1.
        -11    1    1    2    0    0 -0.10959673290E+03  0.19390798658E+02  0.19290418019E+03  0.22270938389E+03  0.00000000000E+00 0.  1.
         11    1    1    2    0    0 -0.17552767864E+03 -0.80963464470E+02  0.39585029651E+03  0.44052526125E+03  0.00000000000E+00 0. -1.
</event>
<event>
 6    1  0.2412631E-010  0.7144886E+02  0.7561462E-02  0.1355234E+00
          3   -1    0    0  501    0  0.00000000000E+00  0.00000000000E+00  0.77546890609E+02  0.77546890609E+02  0.00000000000E+00 0. -1.
         -3   -1    0    0    0  501 -0.00000000000E+00 -0.00000000000E+00 -0.17661375799E+03  0.17661375799E+03  0.00000000000E+00 0.  1.
          5    1    1    2  502    0 -0.31854325322E+02 -0.15259946631E+02  0.32833903025E+02  0.48405594726E+02  0.41800000000E+01 0.  1.
         -5    1    1    2    0  502  0.82559113819E+01  0.49330836360E+02 -0.74286710851E+02  0.89653105343E+02  0.41800000000E+01 0.  1.
        -11    1    1    2    0    0  0.17768903299E+02  0.43376485883E+01 -0.72294395327E+02  0.74572305284E+02  0.00000000000E+00 0.  1.
         11    1    1    2    0    0  0.58295106406E+01 -0.38408538317E+02  0.14680335769E+02  0.41529643248E+02  0.00000000000E+00 0. -1.
</event>
<event>
 7    1  0.2412631E-010  0.1304067E+03  0.7561462E-02  0.1226853E+00
         -1   -1    0    0    0  501 -0.00000000000E+00  0.00000000000E+00  0.22381921647E+03  0.22381921647E+03  0.00000000000E+00 0.  1.
          1   -1    0    0  501    0  0.00000000000E+00 -0.00000000000E+00 -0.93623066713E+02  0.93623066713E+02  0.00000000000E+00 0. -1.
         25    2    1    2    0    0 -0.28658955587E+02  0.67038885226E+02  0.11817994172E+03  0.18687247220E+03  0.12505708446E+03 0.  0.
          5    1    3    3  502    0  0.10273556683E+02 -0.27670023265E+02 -0.82420112189E+00  0.29821600592E+02  0.41800000000E+01 0. -1.
         -5    1    3    3    0  502 -0.38932512271E+02  0.94708908491E+02  0.11900414284E+03  0.15705087161E+03  0.41800000000E+01 0. -1.
        -11    1    1    2    0    0 -0.14968249748E+02  0.23588903740E+02  0.10881305826E+02  0.29981455879E+02  0.00000000000E+00 0. -1.
         11    1    1    2    0    0  0.43627205335E+02 -0.90627788966E+02  0.11349022041E+01  0.10058835510E+03  0.00000000000E+00 0.  1.
</event>
<event>
 6    1  0.2412631E-010  0.9355091E+02  0.7561462E-02  0.1294474E+00
          2   -1    0    0  501    0  0.00000000000E+00  0.00000000000E+00  0.38349110390E+03  0.38349110390E+03  0.00000000000E+00 0.  1.
         -2   -1    0    0    0  501 -0.00000000000E+00 -0.00000000000E+00 -0.40380226189E+02  0.40380226189E+02  0.00000000000E+00 0. -1.
          5    1    1    2  502    0 -0.74201973068E+00  0.62157619954E+02  0.85412989777E+02  0.10572119718E+03  0.41800000000E+01 0. -1.
         -5    1    1    2    0  502  0.17342678038E+01 -0.49211735590E+02  0.59346564753E+01  0.49774442760E+02  0.41800000000E+01 0. -1.
        -11    1    1    2    0    0  0.88382539412E+00 -0.44130328594E+02  0.21780691235E+03  0.22223437654E+03  0.00000000000E+00 0.  1.
         11    1    1    2    0    0 -0.18760734673E+01  0.31184444230E+02  0.33956319111E+02  0.46141313605E+02  0.00000000000E+00 0. -1.
</event>
<event>
 6    1  0.2412631E-010  0.1568259E+03  0.7561462E-02  0.1192328E+00
         -2   -1    0    0    0  501 -0.00000000000E+00  0.00000000000E+00  0.16104308356E+02  0.16104308356E+02  0.00000000000E+00 0.  1.
          2   -1    0    0  501    0  0.00000000000E+00 -0.00000000000E+00 -0.15744486545E+04  0.15744486545E+04  0.00000000000E+00 0. -1.
          5    1    1    2  502    0 -0.22225898213E+02 -0.61159233612E+02 -0.28093514053E+03  0.28840330787E+03  0.41800000000E+01 0.  1.
         -5    1    1    2    0  502  0.98292474899E+02 -0.23914411319E+02 -0.64003989669E+03  0.64799834216E+03  0.41800000000E+01 0.  1.
        -11    1    1    2    0    0 -0.97708170059E+02  0.62837542016E+02 -0.49823972198E+03  0.51160361975E+03  0.00000000000E+00 0. -1.
         11    1    1    2    0    0  0.21641593373E+02  0.22236102915E+02 -0.13912958695E+03  0.14254769308E+03  0.00000000000E+00 0.  1.
</event>
<event>
 7    1  0.2412631E-010  0.8960486E+02  0.7561462E-02  0.1303811E+00
          2   -1    0    0  501    0  0.00000000000E+00  0.00000000000E+00  0.23236937316E+02  0.23236937316E+02  0.00000000000E+00 0.  1.
         -2   -1    0    0    0  501 -0.00000000000E+00 -0.00000000000E+00 -0.47848441275E+03  0.47848441275E+03  0.00000000000E+00 0. -1.
         25    2    1    2    0    0  0.67055990432E+01 -0.21451227208E+02 -0.24205061451E+03  0.27337882120E+03  0.12506941948E+03 0.  0.
          5    1    3    3  502    0 -0.25938784183E+02 -0.53693930868E+02 -0.20708512326E+03  0.21554020371E+03  0.41800000000E+01 0.  1.
         -5    1    3    3    0  502  0.32644383226E+02  0.32242703660E+02 -0.34965491245E+02  0.57838617494E+02  0.41800000000E+01 0.  1.
        -11    1    1    2    0    0  0.24573669247E+02  0.32002189513E+02 -0.64931603163E+02  0.76446834095E+02  0.00000000000E+00 0. -1.
         11    1    1    2    0    0 -0.31279268290E+02 -0.10550962305E+02 -0.14826525776E+03  0.15189569477E+03  0.00000000000E+00 0.  1.
</event>
<event>
 7    1  0.2412631E-010  0.1535319E+03  0.7561462E-02  0.1196199E+00
         -2   -1    0    0    0  501 -0.00000000000E+00  0.00000000000E+00  0.30590580784E+03  0.30590580784E+03  0.00000000000E+00 0.  1.
          2   -1    0    0  501    0  0.00000000000E+00 -0.00000000000E+00 -0.14049808610E+03  0.14049808610E+03  0.00000000000E+00 0. -1.
         25    2    1    2    0    0  0.11030544893E+03 -0.18737082461E+02 -0.60582050056E+02  0.17841195108E+03  0.12506905763E+03 0.  0.
          5    1    3    3  502    0  0.71710198185E+02  0.47617759804E+02 -0.52971213626E+02  0.10115940611E+03  0.41800000000E+01 0.  1.
         -5    1    3    3    0  502  0.38595250741E+02 -0.66354842265E+02 -0.76108364300E+01  0.77252544961E+02  0.41800000000E+01 0.  1.
        -11    1    1    2    0    0  0.16001499476E+02 -0.15624588171E+01  0.23354011696E+02  0.28353114914E+02  0.00000000000E+00 0.  1.
         11    1    1    2    0    0 -0.12630694840E+03  0.20299541278E+02  0.20263576010E+03  0.23963882795E+03  0.00000000000E+00 0. -1.
</event>
<event>
 6    1  0.2412631E-010  0.1804890E+03  0.7561462E-02  0.1167331E+00
          2   -1    0    0  501    0  0.00000000000E+00  0.00000000000E+00  0.41078305093E+03  0.41078305093E+03  0.00000000000E+00 0. -1.
         -2   -1    0    0    0  501 -0.00000000000E+00 -0.00000000000E+00 -0.11925119188E+03  0.11925119188E+03  0.00000000000E+00 0.  1.
          5    1    1    2  502    0 -0.23088933652E+02 -0.71821931574E+00  0.75062094297E+01  0.24646100628E+02  0.41800000000E+01 0. -1.
         -5    1    1    2    0  502  0.15558566447E+03 -0.79291077793E+02  0.61763539041E+01  0.17478442080E+03  0.41800000000E+01 0. -1.
        -11    1    1    2    0    0  0.17893293111E+01  0.12314034638E+02 -0.22895157478E+01  0.12652234222E+02  0.00000000000E+00 0.  1.
         11    1    1    2    0    0 -0.13428606013E+03  0.67695262471E+02  0.28013881146E+03  0.31795148717E+03  0.00000000000E+00 0. -1.
</event>
<event>
 7    1  0.2412631E-010  0.9183196E+02  0.7561462E-02  0.1298475E+00
         -3   -1    0    0    0  501 -0.00000000000E+00  0.00000000000E+00  0.10539636608E+03  0.10539636608E+03  0.00000000000E+00 0.  1.
          3   -1    0    0  501    0  0.00000000000E+00 -0.00000000000E+00 -0.17245440346E+03  0.17245440346E+03  0.00000000000E+00 0. -1.
         25    2    1    2    0    0  0.12680357894E+01 -0.69416529100E+02  0.39285629454E+01  0.14314053555E+03  0.12511401554E+03 0.  0.
          5    1    3    3  502    0 -0.32511940322E+02 -0.95799043868E+01 -0.46580446663E+02  0.57758213640E+02  0.41800000000E+01 0. -1.
         -5    1    3    3    0  502  0.33779976111E+02 -0.59836624713E+02  0.50509009609E+02  0.85382321910E+02  0.41800000000E+01 0. -1.
        -11    1    1    2    0    0 -0.16606610190E+02  0.60910435648E+02 -0.16134932643E+01  0.63154287530E+02  0.00000000000E+00 0.  1.
         11    1    1    2    0    0  0.15338574401E+02  0.85060934516E+01 -0.69373107064E+02  0.71555946463E+02  0.00000000000E+00 0. -1.
</event>
<event>
 7    1  0.2412631E-010  0.5161317E+02  0.7561462E-02  0.1436830E+00
         -2   -1    0    0    0  501 -0.00000000000E+00  0.00000000000E+00  0.40724184516E+02  0.40724184516E+02  0.00000000000E+00 0.  1.
          2   -1    0    0  501    0  0.00000000000E+00 -0.00000000000E+00 -0.33723996084E+03  0.33723996084E+03  0.00000000000E+00 0. -1.
         25    2    1    2    0    0 -0.92845414621E+01 -0.11426251918E+02 -0.21801766509E+03  0.25176212825E+03  0.12504281262E+03 0.  0.
          5    1    3    3  502    0 -0.15413783698E+02 -0.85268743368E+01 -0.23357958377E+03  0.23428014570E+03  0.41800000000E+01 0.  1.
         -5    1    3    3    0  502  0.61292422357E+01 -0.28993775809E+01  0.15561918686E+02  0.17481982552E+02  0.41800000000E+01 0.  1.
        -11    1    1    2    0    0 -0.13890222754E+02  0.38846368418E+02 -0.15425467751E+01  0.41283871887E+02  0.00000000000E+00 0.  1.
         11    1    1    2    0    0  0.23174764216E+02 -0.27420116501E+02 -0.76955564460E+02  0.84918145215E+02  0.00000000000E+00 0. -1.
</event>
<event>
 6    1  0.2412631E-010  0.8344003E+02  0.7561462E-02  0.1319563E+00
          1   -1    0    0  501    0  0.00000000000E+00  0.00000000000E+00  0.92932040721E+03  0.92932040721E+03  0.00000000000E+00 0. -1.
         -1   -1    0    0    0  501 -0.00000000000E+00 -0.00000000000E+00 -0.15263866782E+02  0.15263866782E+02  0.00000000000E+00 0.  1.
          5    1    1    2  502    0 -0.31120220911E+02 -0.24582242327E+02  0.48494372809E+03  0.48658056538E+03  0.41800000000E+01 0. -1.
         -5    1    1    2    0  502  0.16829706592E+02 -0.23316818432E+02  0.18162511172E+02  0.34267510237E+02  0.41800000000E+01 0. -1.
        -11    1    1    2    0    0 -0.34594882897E+02  0.30297841335E+02  0.26147533978E+03  0.26548845253E+03  0.00000000000E+00 0.  1.
         11    1    1    2    0    0  0.48885397215E+02  0.17601219423E+02  0.14947496138E+03  0.15824774585E+03  0.00000000000E+00 0. -1.
</event>
<event>
 6    1  0.2412631E-010  0.1166780E+03  0.7561462E-02  0.1248680E+00
          2   -1    0    0  501    0  0.00000000000E+00  0.00000000000E+00  0.81008437324E+03  0.81008437324E+03  0.00000000000E+00 0.  1.
         -2   -1    0    0    0  501 -0.00000000000E+00 -0.00000000000E+00 -0.17745505490E+02  0.17745505490E+02  0.00000000000E+00 0. -1.
          5    1    1    2  502    0 -0.22167503706E+02  0.61156380691E+02  0.26498532315E+03  0.27288494829E+03  0.41800000000E+01 0.  1.
         -5    1    1    2    0  502 -0.25321806851E+02 -0.63345028902E+02  0.25022158331E+03  0.25938793292E+03  0.41800000000E+01 0.  1.
        -11    1    1    2    0    0  0.10217695637E+02 -0.41302923408E+02  0.15374407370E+03  0.15952295441E+03  0.00000000000E+00 0.  1.
         11    1    1    2    0    0  0.37271614920E+02  0.43491571620E+02  0.12338788759E+03  0.13603404311E+03  0.00000000000E+00 0. -1.
</event>
<event>
 7    1  0.2412631E-010  0.4091078E+03  0.7561462E-02  0.1040671E+00
          3   -1    0    0  501    0  0.00000000000E+00  0.00000000000E+00  0.25307381750E+03  0.25307381750E+03  0.00000000000E+00 0. -1.
         -3   -1    0    0    0  501 -0.00000000000E+00 -0.00000000000E+00 -0.92742121141E+03  0.92742121141E+03  0.00000000000E+00 0.  1.
         25    2    1    2    0    0  0.32221786436E+03 -0.25047225395E+03 -0.62919033283E+03  0.76031595073E+03  0.12505665874E+03 0.  0.
          5    1    3    3  502    0  0.22682039742E+03 -0.17467848671E+03 -0.32799479850E+03  0.43538273582E+03  0.41800000000E+01 0. -1.
         -5    1    3    3    0  502  0.95397466940E+02 -0.75793767231E+02 -0.30119553433E+03  0.32493321491E+03  0.41800000000E+01 0. -1.
        -11    1    1    2    0    0 -0.36980818456E+02  0.46044392507E+02  0.21740371371E+02  0.62931000011E+02  0.00000000000E+00 0.  1.
         11    1    1    2    0    0 -0.28523704591E+03  0.20442786144E+03 -0.66897432447E+02  0.35724807817E+03  0.00000000000E+00 0. -1.
</event>
<event>
 7    1  0.2412631E-010  0.6723833E+02  0.7561462E-02  0.1369744E+00
         -1   -1    0    0    0  501 -0.00000000000E+00  0.00000000000E+00  0.17448639544E+02  0.17448639544E+02  0.00000000000E+00 0.  1.
          1   -1    0    0  501    0  0.00000000000E+00 -0.00000000000E+00 -0.74310075226E+03  0.74310075226E+03  0.00000000000E+00 0. -1.
         25    2    1    2    0    0  0.76448589975E+01 -0.13634011464E+02 -0.53641319535E+03  0.55101958188E+03  0.12505652052E+03 0.  0.
          5    1    3    3  502    0  0.24010606786E+02  0.56263570988E+01 -0.51998609290E+03  0.52058733594E+03  0.41800000000E+01 0. -1.
         -5    1    3    3    0  502 -0.16365747789E+02 -0.19260368563E+02 -0.16427102458E+02  0.30432245941E+02  0.41800000000E+01 0. -1.
        -11    1    1    2    0    0  0.35568351299E+02 -0.65252820432E+01 -0.45694071617E+02  0.58272078227E+02  0.00000000000E+00 0. -1.
         11    1    1    2    0    0 -0.43213210296E+02  0.20159293507E+02 -0.14354484575E+03  0.15125773170E+03  0.00000000000E+00 0.  1.
</event>
<event>
 6    1  0.2412631E-010  0.1032119E+03  0.7561462E-02  0.1273683E+00
         -3   -1    0    0    0  501 -0.00000000000E+00  0.00000000000E+00  0.54744509139E+02  0.54744509139E+02  0.00000000000E+00 0.  1.
          3   -1    0    0  501    0  0.00000000000E+00 -0.00000000000E+00 -0.38804545456E+03  0.38804545456E+03  0.00000000000E+00 0. -1.
          5    1    1    2  502    0 -0.40715091770E+02  0.10470828352E+02 -0.25479096304E+03  0.25826975082E+03  0.41800000000E+01 0. -1.
         -5    1    1    2    0  502 -0.33874084874E+02  0.24161154352E+02 -0.58812862374E+01  0.42228863749E+02  0.41800000000E+01 0. -1.
        -11    1    1    2    0    0  0.20315730979E+01  0.27050217741E+02 -0.15941761474E+02  0.31463968726E+02  0.00000000000E+00 0. -1.
         11    1    1    2    0    0  0.72557603547E+02 -0.61682200446E+02 -0.56686934674E+02  0.11082738040E+03  0.00000000000E+00 0.  1.
</event>
<event>
 7    1  0.2412631E-010  0.1061489E+03  0.7561462E-02  0.1267872E+00
         -1   -1    0    0    0  501 -0.00000000000E+00  0.00000000000E+00  0.12178650643E+03  0.12178650643E+03  0.00000000000E+00 0.  1.
          1   -1    0    0  501    0  0.00000000000E+00 -0.00000000000E+00 -0.17253567793E+03  0.17253567793E+03  0.00000000000E+00 0. -1.
         25    2    1    2    0    0 -0.39363682622E+02  0.60367103535E+02  0.36889900307E+02  0.14898614559E+03  0.12506926135E+03 0.  0.
          5    1    3    3  502    0  0.58880039137E+01  0.67082679281E+02  0.66176468249E+02  0.94506887577E+02  0.41800000000E+01 0.  1.
         -5    1    3    3    0  502 -0.45251686536E+02 -0.67155757461E+01 -0.29286567942E+02  0.54479258014E+02  0.41800000000E+01 0.  1.
        -11    1    1    2    0    0  0.53721400516E+02 -0.22229550976E+02 -0.11920979151E+02  0.59348559831E+02  0.00000000000E+00 0.  1.
         11    1    1    2    0    0 -0.14357717894E+02 -0.38137552559E+02 -0.75718092653E+02  0.85987478933E+02  0.00000000000E+00 0. -1.
</event>
<event>
 7    1  0.2412631E-010  0.1163386E+03  0.7561462E-02  0.1249262E+00
          1   -1    0    0  501    0  0.00000000000E+00  0.00000000000E+00  0.13780719366E+04  0.13780719366E+04  0.00000000000E+00 0. -1.
         -1   -1    0    0    0  501 -0.00000000000E+00 -0.00000000000E+00 -0.10188563790E+02  0.10188563790E+02  0.00000000000E+00 0.  1.
         25    2    1    2    0    0  0.40545332312E+02 -0.26184680856E+02  0.79861826394E+03  0.80979122983E+03  0.12506455505E+03 0.  0.
          5    1    3    3  502    0  0.57656359248E+02 -0.65205262176E+02  0.62111850151E+03  0.62720144076E+03  0.41800000000E+01 0.  1.
         -5    1    3    3    0  502 -0.17111026936E+02  0.39020581320E+02  0.17749976243E+03  0.18258978907E+03  0.41800000000E+01 0.  1.
        -11    1    1    2    0    0 -0.38162285777E+02  0.58758677367E+02  0.39705593333E+03  0.40319022361E+03  0.00000000000E+00 0.  1.
         11    1    1    2    0    0 -0.23830465354E+01 -0.32573996511E+02  0.17220917556E+03  0.17527904697E+03  0.00000000000E+00 0. -1.
</event>
<event>
 7    1  0.2412631E-010  0.3620400E+03  0.7561462E-02  0.1057779E+00
          2   -1    0    0  501    0  0.00000000000E+00  0.00000000000E+00  0.10428343631E+04  0.10428343631E+04  0.00000000000E+00 0. -1.
         -2   -1    0    0    0  501 -0.00000000000E+00 -0.00000000000E+00 -0.13756171020E+03  0.13756171020E+03  0.00000000000E+00 0.  1.
         25    2    1    2    0    0  0.34708012377E+03  0.41056823730E+02  0.61350687727E+03  0.71706429838E+03  0.12506096300E+03 0.  0.
          5    1    3    3  502    0 -0.45495245544E+00  0.15185904924E+02  0.63513603437E+01  0.16989139717E+02  0.41800000000E+01 0.  1.
         -5    1    3    3    0  502  0.34753507623E+03  0.25870918806E+02  0.60715551692E+03  0.70007515867E+03  0.41800000000E+01 0.  1.
        -11    1    1    2    0    0 -0.22990804990E+03 -0.67639393638E+02  0.20013357768E+03  0.31222787815E+03  0.00000000000E+00 0.  1.
         11    1    1    2    0    0 -0.11717207387E+03  0.26582569909E+02  0.91632197969E+02  0.15110389678E+03  0.00000000000E+00 0. -1.
</event>
<event>
 6    1  0.2412631E-010  0.1100289E+03  0.7561462E-02  0.1260516E+00
         -2   -1    0    0    0  501 -0.00000000000E+00  0.00000000000E+00  0.26075626923E+03  0.26075626923E+03  0.00000000000E+00 0.  1.
          2   -1    0    0  501    0  0.00000000000E+00 -0.00000000000E+00 -0.72040019215E+02  0.72040019215E+02  0.00000000000E+00 0. -1.
          5    1    1    2  502    0  0.87886015493E+02  0.21932403445E+02  0.56509169321E+02  0.10684446948E+03  0.41800000000E+01 0. -1.
         -5    1    1    2    0  502 -0.34246314735E+02  0.31612170821E+02  0.82770938788E+02  0.95082280814E+02  0.41800000000E+01 0. -1.
        -11    1    1    2    0    0 -0.31261432259E+02 -0.86693721912E+01 -0.25112198030E+02  0.41025085631E+02  0.00000000000E+00 0. -1.
         11    1    1    2    0    0 -0.22378268499E+02 -0.44875202075E+02  0.74548339936E+02  0.89844452525E+02  0.00000000000E+00 0.  1.
</event>
<event>
 7    1  0.2412631E-010  0.1055571E+03  0.7561462E-02  0.1269026E+00
         -1   -1    0    0    0  501 -0.00000000000E+00  0.00000000000E+00  0.26131616230E+02  0.26131616230E+02  0.00000000000E+00 0.  1.
          1   -1    0    0  501    0  0.00000000000E+00 -0.00000000000E+00 -0.63595888114E+03  0.63595888114E+03  0.00000000000E+00 0. -1.
         25    2    1    2    0    0  0.14517703491E+01 -0.28329724518E+02 -0.45499579298E+03  0.47273558539E+03  0.12511227411E+03 0.  0.
          5    1    3    3  502    0 -0.46647971949E+02  0.12002226731E+02 -0.88185296462E+02  0.10056940711E+03  0.41800000000E+01 0.  1.
         -5    1    3    3    0  502  0.48099742298E+02 -0.40331951249E+02 -0.36681049652E+03  0.37216617828E+03  0.41800000000E+01 0.  1.
        -11    1    1    2    0    0  0.20868565736E+02 -0.30487346815E+02 -0.97403751375E+02  0.10417517043E+03  0.00000000000E+00 0. -1.
         11    1    1    2    0    0 -0.22320336085E+02  0.58817071333E+02 -0.57427720553E+02  0.85179741553E+02  0.00000000000E+00 0.  1.
</event>
<event>
 6    1  0.2412631E-010  0.9574287E+02  0.7561462E-02  0.1289512E+00
          2   -1    0    0  501    0  0.00000000000E+00  0.00000000000E+00  0.46071255697E+02  0.46071255697E+02  0.00000000000E+00 0. -1.
         -2   -1    0    0    0  501 -0.00000000000E+00 -0.00000000000E+00 -0.39860084565E+03  0.39860084565E+03  0.00000000000E+00 0.  1.
          5    1    1    2  502    0 -0.29206776470E+02 -0.29321311139E+02 -0.16184514177E+03  0.16710504898E+03  0.41800000000E+01 0.  1.
         -5    1    1    2    0  502 -0.36607268937E+02 -0.97603504020E+01  0.14435992505E+02  0.40758150824E+02  0.41800000000E+01 0.  1.
        -11    1    1    2    0    0  0.84646111710E+02  0.38346855287E+02 -0.13287449959E+03  0.16214523792E+03  0.00000000000E+00 0. -1.
         11    1    1    2    0    0 -0.18832066303E+02  0.73480625380E+00 -0.72245941093E+02  0.74663663625E+02  0.00000000000E+00 0.  1.
</event>
<event>
 7    1  0.2412631E-010  0.1414788E+03  0.7561462E-02  0.1211353E+00
          2   -1    0    0  501    0  0.00000000000E+00  0.00000000000E+00  0.12020633456E+03  0.12020633456E+03  0.00000000000E+00 0. -1.
         -2   -1    0    0    0  501 -0.00000000000E+00 -0.00000000000E+00 -0.19948151270E+03  0.19948151270E+03  0.00000000000E+00 0.  1.
         25    2    1    2    0    0  0.80285390470E+02  0.62164545729E+02 -0.86772344611E+02  0.18297794153E+03  0.12506523350E+03 0.  0.
          5    1    3    3  502    0  0.89262941061E+02 -0.74374346122E+01 -0.59266521118E+02  0.10748572466E+03  0.41800000000E+01 0.  1.
         -5    1    3    3    0  502 -0.89775505908E+01  0.69601980342E+02 -0.27505823493E+02  0.75492216871E+02  0.41800000000E+01 0.  1.
        -11    1    1    2    0    0 -0.89163936871E+02 -0.37423804356E+02 -0.19918026719E+02  0.98729309525E+02  0.00000000000E+00 0.  1.
         11    1    1    2    0    0  0.88785464012E+01 -0.24740741374E+02  0.27415193193E+02  0.37980596200E+02  0.00000000000E+00 0. -1.
</event>
<event>
 7    1  0.2412631E-010  0.1323967E+03  0.7561462E-02  0.1223942E+00
         -3   -1    0    0    0  501 -0.00000000000E+00  0.00000000000E+00  0.30255271927E+02  0.30255271927E+02  0.00000000000E+00 0.  1.
          3   -1    0    0  501    0  0.00000000000E+00 -0.00000000000E+00 -0.15032993895E+04  0.15032993895E+04  0.00000000000E+00 0. -1.
         25    2    1    2    0    0 -0.91851739576E+02  0.74514971588E+02 -0.12632559403E+04  0.12749348893E+04  0.12511665893E+03 0.  0.
          5    1    3    3  502    0 -0.51209006927E+01  0.14747632622E+02 -0.14424027488E+02  0.21661977307E+02  0.41800000000E+01 0.  1.
         -5    1    3    3    0  502 -0.86730838883E+02  0.59767338966E+02 -0.12488319128E+04  0.12532729120E+04  0.41800000000E+01 0.  1.
        -11    1    1    2    0    0  0.95291477333E+02 -0.31934502119E+02 -0.18124013550E+03  0.20723963133E+03  0.00000000000E+00 0. -1.
         11    1    1    2    0    0 -0.34397377576E+01 -0.42580469469E+02 -0.28548041832E+02  0.51380140798E+02  0.00000000000E+00 0.  1.
</event>
<event>
 7    1  0.2412631E-010  0.1987986E+03  0.7561462E-02  0.1150757E+00
         -3   -1    0    0    0  501 -0.00000000000E+00  0.00000000000E+00  0.91912479003E+02  0.91912479003E+02  0.00000000000E+00 0. -1.
          3   -1    0    0  501    0  0.00000000000E+00 -0.00000000000E+00 -0.51814749628E+03  0.51814749628E+03  0.00000000000E+00 0.  1.
         25    2    1    2    0    0 -0.85073858032E+02  0.16389022883E+03 -0.27868608247E+03  0.35693192469E+03  0.12504758244E+03 0.  0.
          5    1    3    3  502    0 -0.81587028708E+02  0.80823807538E+02 -0.23796592528E+03  0.26426158463E+03  0.41800000000E+01 0. -1.
         -5    1    3    3    0  502 -0.34868293234E+01  0.83066421295E+02 -0.40720157196E+02  0.92670340064E+02  0.41800000000E+01 0. -1.
        -11    1    1    2    0    0  0.18883078624E+02 -0.11651550484E+03 -0.11697048160E+03  0.16617619292E+03  0.00000000000E+00 0. -1.
         11    1    1    2    0    0  0.66190779408E+02 -0.47374723988E+02 -0.30578453201E+02  0.86951857667E+02  0.00000000000E+00 0.  1.
</event>
<event>
 7    1  0.2412631E-010  0.1686439E+03  0.7561462E-02  0.1179269E+00
         -1   -1    0    0    0  501 -0.00000000000E+00  0.00000000000E+00  0.63971239863E+03  0.63971239863E+03  0.00000000000E+00 0.  1.
          1   -1    0    0  501    0  0.00000000000E+00 -0.00000000000E+00 -0.55703199434E+02  0.55703199434E+02  0.00000000000E+00 0. -1.
         25    2    1    2    0    0  0.12454839949E+03 -0.79928353413E+02  0.37973947587E+03  0.42632857067E+03  0.12511248994E+03 0.  0.
          5    1    3    3  502    0  0.54928511454E+02 -0.74045595545E+02  0.92430714672E+02  0.13061700121E+03  0.41800000000E+01 0. -1.
         -5    1    3    3    0  502  0.69619888039E+02 -0.58827578679E+01  0.28730876120E+03  0.29571156946E+03  0.41800000000E+01 0. -1.
        -11    1    1    2    0    0 -0.32386073658E+02 -0.20789325190E+02  0.49736155394E+02  0.62886715308E+02  0.00000000000E+00 0.  1.
         11    1    1    2    0    0 -0.92162325836E+02  0.10071767860E+03  0.15453356793E+03  0.20620031208E+03  0.00000000000E+00 0. -1.
</event>
<event>
 7    1  0.2412631E-010  0.1285811E+03  0.7561462E-02  0.1229576E+00
          3   -1    0    0  501    0  0.00000000000E+00  0.00000000000E+00  0.12789170235E+03  0.12789170235E+03  0.00000000000E+00 0. -1.
         -3   -1    0    0    0  501 -0.00000000000E+00 -0.00000000000E+00 -0.15219232832E+03  0.15219232832E+03  0.00000000000E+00 0.  1.
         25    2    1    2    0    0 -0.39669948895E+02 -0.75083225056E+02 -0.37613929829E+02  0.15576014789E+03  0.12504087501E+03 0.  0.
          5    1    3    3  502    0  0.45402151113E+02 -0.29860635695E+02 -0.96296899544E+01  0.55346329765E+02  0.41800000000E+01 0.  1.
         -5    1    3    3    0  502 -0.85072100009E+02 -0.45222589361E+02 -0.27984239875E+02  0.10041381812E+03  0.41800000000E+01 0.  1.
        -11    1    1    2    0    0  0.94581378841E+01 -0.11285167937E+02  0.28016361520E+02  0.31650085315E+02  0.00000000000E+00 0. -1.
         11    1    1    2    0    0  0.30211811011E+02  0.86368392994E+02 -0.14703057652E+02  0.92673797468E+02  0.00000000000E+00 0.  1.
</event>
<event>
 7    1  0.2412631E-010  0.1275478E+03  0.7561462E-02  0.1231140E+00
         -1   -1    0    0    0  501 -0.00000000000E+00  0.00000000000E+00  0.17830204471E+02  0.17830204471E+02  0.00000000000E+00 0.  1.
          1   -1    0    0  501    0  0.00000000000E+00 -0.00000000000E+00 -0.13296052093E+04  0.13296052093E+04  0.00000000000E+00 0. -1.
         25    2    1    2    0    0  0.83913073011E+01  0.67262655764E+02 -0.10771208799E+04  0.10864812853E+04  0.12512999030E+03 0.  0.
          5    1    3    3  502    0  0.39333815191E+02 -0.22774643639E+02 -0.28200050998E+03  0.28567042801E+03  0.41800000000E+01 0.  1.
         -5    1    3    3    0  502 -0.30942507890E+02  0.90037299403E+02 -0.79512036990E+03  0.80081085727E+03  0.41800000000E+01 0.  1.
        -11    1    1    2    0    0 -0.12159547543E+02  0.21826979529E+02 -0.49685397673E+02  0.55613940462E+02  0.00000000000E+00 0.  1.
         11    1    1    2    0    0  0.37682402417E+01 -0.89089635293E+02 -0.18496872723E+03  0.20534018799E+03  0.00000000000E+00 0. -1.
</event>
<event>
 7    1  0.2962770E-010  0.1355879E+03  0.7561462E-02  0.1219392E+00
         -2   -1    0    0    0  501 -0.00000000000E+00  0.00000000000E+00  0.79483959215E+02  0.79483959215E+02  0.00000000000E+00 0.  1.
          2   -1    0    0  501    0  0.00000000000E+00 -0.00000000000E+00 -0.24890133296E+03  0.24890133296E+03  0.00000000000E+00 0. -1.
         25    2    1    2    0    0 -0.81089563993E+02 -0.37241155795E+02 -0.92895199824E+02  0.17957057348E+03  0.12511455406E+03 0.  0.
          5    1    3    3  502    0  0.26029313742E+02  0.74764560616E+01  0.47692539496E+01  0.27814398292E+02  0.41800000000E+01 0.  1.
         -5    1    3    3    0  502 -0.10711887774E+03 -0.44717611857E+02 -0.97664453774E+02  0.15175617519E+03  0.41800000000E+01 0.  1.
        -11    1    1    2    0    0  0.30472838207E+02 -0.30461982223E+02 -0.24837187423E+02  0.49733410385E+02  0.00000000000E+00 0.  1.
         11    1    1    2    0    0  0.50616725786E+02  0.67703138019E+02 -0.51684986500E+02  0.99081308310E+02  0.00000000000E+00 0. -1.
</event>
<event>
 6    1  0.2412631E-010  0.9007139E+02  0.7561462E-02  0.1302679E+00
         -2   -1    0    0    0  501 -0.00000000000E+00  0.00000000000E+00  0.67750733717E+02  0.67750733717E+02  0.00000000000E+00 0. -1.
          2   -1    0    0  501    0  0.00000000000E+00 -0.00000000000E+00 -0.19621787446E+03  0.19621787446E+03  0.00000000000E+00 0.  1.
          5    1    1    2  502    0 -0.25296983906E+02  0.15746367389E+02 -0.66631765050E+02  0.73110532718E+02  0.41800000000E+01 0.  1.
         -5    1    1    2    0  502  0.42737062006E+02 -0.46513216914E+02  0.17911047243E+02  0.65789161949E+02  0.41800000000E+01 0.  1.
        -11    1    1    2    0    0  0.14853187982E+02  0.47929956322E+02 -0.18008371709E+02  0.53312281492E+02  0.00000000000E+00 0. -1.
         11    1    1    2    0    0 -0.32293266082E+02 -0.17163106796E+02 -0.61738051225E+02  0.71756632016E+02  0.00000000000E+00 0.  1.
</event>
<event>
 7    1  0.2412631E-010  0.1233231E+03  0.7561462E-02  0.1237713E+00
         -2   -1    0    0    0  501 -0.00000000000E+00  0.00000000000E+00  0.28661234345E+02  0.28661234345E+02  0.00000000000E+00 0.  1.
          2   -1    0    0  501    0  0.00000000000E+00 -0.00000000000E+00 -0.75730547069E+03  0.75730547069E+03  0.00000000000E+00 0. -1.
         25    2    1    2    0    0  0.73984635872E+02 -0.60255673673E+02 -0.46990005819E+03  0.49553134038E+03  0.12506307231E+03 0.  0.
          5    1    3    3  502    0  0.10044243249E+03 -0.21250474640E+02 -0.24440775453E+03  0.26512805924E+03  0.41800000000E+01 0. -1.
         -5    1    3    3    0  502 -0.26457796621E+02 -0.39005199033E+02 -0.22549230365E+03  0.23040328114E+03  0.41800000000E+01 0. -1.
        -11    1    1    2    0    0 -0.26886247649E+02  0.13015518659E+02 -0.79353403790E+01  0.30907016445E+02  0.00000000000E+00 0.  1.
         11    1    1    2    0    0 -0.47098388223E+02  0.47240155014E+02 -0.25080883778E+03  0.25952834821E+03  0.00000000000E+00 0. -1.
</event>
<event>
 7    1  0.2412631E-010  0.1736268E+03  0.7561462E-02  0.1174118E+00
         -4   -1    0    0    0  501 -0.00000000000E+00  0.00000000000E+00  0.37280859832E+03  0.37280859832E+03  0.00000000000E+00 0.  1.
          4   -1    0    0  501    0  0.00000000000E+00 -0.00000000000E+00 -0.12160124426E+03  0.12160124426E+03  0.00000000000E+00 0. -1.
         25    2    1    2    0    0  0.51216031317E+01 -0.14938510637E+03  0.85313727694E+01  0.19507055041E+03  0.12505036782E+03 0.  0.
          5    1    3    3  502    0  0.38273325011E+01 -0.16492175824E+03 -0.15905751518E+02  0.16578389592E+03  0.41800000000E+01 0.  1.
         -5    1    3    3    0  502  0.12942706306E+01  0.15536651871E+02  0.24437124287E+02  0.29286654491E+02  0.41800000000E+01 0.  1.
        -11    1    1    2    0    0  0.26433843723E+02  0.20639544946E+02  0.95755006743E+02  0.10145816983E+03  0.00000000000E+00 0.  1.
         11    1    1    2    0    0 -0.31555446854E+02  0.12874556143E+03  0.14692097454E+03  0.19788112233E+03  0.00000000000E+00 0. -1.
</event>
<event>
 7    1  0.2412631E-010  0.9734608E+02  0.7561462E-02  0.1285978E+00
         -1   -1    0    0    0  501 -0.00000000000E+00  0.00000000000E+00  0.66522506243E+03  0.66522506243E+03  0.00000000000E+00 0.  1.
          1   -1    0    0  501    0  0.00000000000E+00 -0.00000000000E+00 -0.43700511467E+02  0.43700511467E+02  0.00000000000E+00 0. -1.
         25    2    1    2    0    0  0.26656190530E+02  0.84092178694E+02  0.53367513666E+03  0.55519821528E+03  0.12511538576E+03 0.  0.
          5    1    3    3  502    0  0.31068336716E+02  0.39400909093E+02  0.48944290395E+03  0.49202591580E+03  0.41800000000E+01 0.  1.
         -5    1    3    3    0  502 -0.44121461856E+01  0.44691269601E+02  0.44232232706E+02  0.63172299488E+02  0.41800000000E+01 0.  1.
        -11    1    1    2    0    0 -0.39663104019E+02 -0.64665943740E+02  0.10145300372E+03  0.12667895667E+03  0.00000000000E+00 0.  1.
         11    1    1    2    0    0  0.13006913489E+02 -0.19426234954E+02 -0.13603589409E+02  0.27048401945E+02  0.00000000000E+00 0. -1.
</event>
<event>
 7    1  0.2412631E-010  0.2557923E+03  0.7561462E-02  0.1109698E+00
         -2   -1    0    0    0  501 -0.00000000000E+00  0.00000000000E+00  0.22153965713E+03  0.22153965713E+03  0.00000000000E+00 0.  1.
          2   -1    0    0  501    0  0.00000000000E+00 -0.00000000000E+00 -0.36779378570E+03  0.36779378570E+03  0.00000000000E+00 0. -1.
         25    2    1    2    0    0  0.21649453088E+03 -0.84167799991E+02 -0.20406208328E+03  0.33354067155E+03  0.12511572760E+03 0.  0.
          5    1    3    3  502    0  0.73809723080E+02  0.30435363936E+02 -0.74427647977E+02  0.10922972939E+03  0.41800000000E+01 0.  1.
         -5    1    3    3    0  502  0.14268480780E+03 -0.11460316393E+03 -0.12963443530E+03  0.22431094216E+03  0.41800000000E+01 0.  1.
        -11    1    1    2    0    0 -0.81601354991E+02  0.79013883856E+02  0.35238982826E+02  0.11892754470E+03  0.00000000000E+00 0.  1.
         11    1    1    2    0    0 -0.13489317589E+03  0.51539161353E+01  0.22568971886E+02  0.13686522657E+03  0.00000000000E+00 0. -1.
</event>
<event>
 6    1  0.2412631E-010  0.9685288E+02  0.7561462E-02  0.1287057E+00
          1   -1    0    0  501    0  0.00000000000E+00  0.00000000000E+00  0.23618989152E+03  0.23618989152E+03  0.00000000000E+00 0. -1.
         -1   -1    0    0    0  501 -0.00000000000E+00 -0.00000000000E+00 -0.76133757417E+02  0.76133757417E+02  0.00000000000E+00 0.  1.
          5    1    1    2  502    0 -0.45710502579E+02 -0.10755981371E+02 -0.20401609045E+02  0.51369633373E+02  0.41800000000E+01 0. -1.
         -5    1    1    2    0  502 -0.18295065424E+02  0.55309639343E+02  0.10147483599E+03  0.11708321982E+03  0.41800000000E+01 0. -1.
        -11    1    1    2    0    0  0.34132370414E+02 -0.47106388498E+02 -0.12845017150E+01  0.58186600623E+02  0.00000000000E+00 0.  1.
         11    1    1    2    0    0  0.29873197588E+02  0.25527305255E+01  0.80267408870E+02  0.85684195123E+02  0.00000000000E+00 0. -1.
</event>
<event>
 7    1  0.2412631E-010  0.8893956E+02  0.7561462E-02  0.1305440E+00
          3   -1    0    0  501    0  0.00000000000E+00  0.00000000000E+00  0.31870715360E+03  0.31870715360E+03  0.00000000000E+00 0. -1.
         -3   -1    0    0    0  501 -0.00000000000E+00 -0.00000000000E+00 -0.39934837734E+02  0.39934837734E+02  0.00000000000E+00 0.  1.
         25    2    1    2    0    0  0.94935480533E+01 -0.23752506671E+02  0.18769458045E+03  0.22701712947E+03  0.12511279917E+03 0.  0.
          5    1    3    3  502    0  0.11933154592E+02  0.33910781942E+02  0.64530957270E+01  0.36762156559E+02  0.41800000000E+01 0. -1.
         -5    1    3    3    0  502 -0.24396065392E+01 -0.57663288613E+02  0.18124148472E+03  0.19025497291E+03  0.41800000000E+01 0. -1.
        -11    1    1    2    0    0 -0.24426942885E+02 -0.23724316811E+02  0.83187582230E+01  0.35053109494E+02  0.00000000000E+00 0.  1.
         11    1    1    2    0    0  0.14933394832E+02  0.47476823482E+02  0.82758977195E+02  0.96571752368E+02  0.00000000000E+00 0. -1.
</event>
<event>
 7    1  0.2412631E-010  0.1258012E+03  0.7561462E-02  0.1233822E+00
          1   -1    0    0  501    0  0.00000000000E+00  0.00000000000E+00  0.13610490076E+03  0.13610490076E+03  0.00000000000E+00 0. -1.
         -1   -1    0    0    0  501 -0.00000000000E+00 -0.00000000000E+00 -0.17729240007E+03  0.17729240007E+03  0.00000000000E+00 0.  1.
         25    2    1    2    0    0  0.69723262729E+02  0.70845972150E+02  0.30201284898E+02  0.16262376079E+03  0.12511548597E+03 0.  0.
          5    1    3    3  502    0  0.33075789063E+02  0.88136876911E+02  0.60388449937E+02  0.11192119629E+03  0.41800000000E+01 0.  1.
         -5    1    3    3    0  502  0.36647473666E+02 -0.17290904762E+02 -0.30187165039E+02  0.50702564498E+02  0.41800000000E+01 0.  1.
        -11    1    1    2    0    0  0.11087189845E+02 -0.40931025102E+01 -0.39476553485E+02  0.41207736432E+02  0.00000000000E+00 0.  1.
         11    1    1    2    0    0 -0.80810452575E+02 -0.66752869640E+02 -0.31912230728E+02  0.10956580361E+03  0.00000000000E+00 0. -1.
</event>
<event>
 7    1  0.2412631E-010  0.9137087E+02  0.7561462E-02  0.1299565E+00
         -2   -1    0    0    0  501 -0.00000000000E+00  0.00000000000E+00  0.17617733232E+02  0.17617733232E+02  0.00000000000E+00 0.  1.
          2   -1    0    0  501    0  0.00000000000E+00 -0.00000000000E+00 -0.80080407290E+03  0.80080407290E+03  0.00000000000E+00 0. -1.
         25    2    1    2    0    0  0.33663868003E+02  0.40309691939E+02 -0.45361460184E+03  0.47346161845E+03  0.12506626191E+03 0.  0.
          5    1    3    3  502    0  0.43176416404E+02  0.55356761656E+02 -0.11813671164E+03  0.13748574119E+03  0.41800000000E+01 0.  1.
         -5    1    3    3    0  502 -0.95125484011E+01 -0.15047069717E+02 -0.33547789020E+03  0.33597587726E+03  0.41800000000E+01 0.  1.
        -11    1    1    2    0    0 -0.91384502911E+01  0.23796148704E+02 -0.40520161719E+02  0.47871196690E+02  0.00000000000E+00 0.  1.
         11    1    1    2    0    0 -0.24525417711E+02 -0.64105840642E+02 -0.28905157610E+03  0.29708899099E+03  0.00000000000E+00 0. -1.
</event>
<event>
 7    1  0.2412631E-010  0.2566209E+03  0.7561462E-02  0.1109191E+00
          2   -1    0    0  501    0  0.00000000000E+00  0.00000000000E+00  0.33893718662E+03  0.33893718662E+03  0.00000000000E+00 0.  1.
         -2   -1    0    0    0  501 -0.00000000000E+00 -0.00000000000E+00 -0.21477436196E+03  0.21477436196E+03  0.00000000000E+00 0. -1.
         25    2    1    2    0    0  0.15438875634E+03 -0.19099266708E+03  0.82040722418E+02  0.28755276444E+03  0.12506728284E+03 0.  0.
          5    1    3    3  502    0  0.96382553767E+02 -0.39219450306E+02  0.68082513379E+02  0.12442050868E+03  0.41800000000E+01 0. -1.
         -5    1    3    3    0  502  0.58006202574E+02 -0.15177321678E+03  0.13958209039E+02  0.16313225575E+03  0.41800000000E+01 0. -1.
        -11    1    1    2    0    0 -0.23089072523E+02  0.17399091464E+02  0.38914644245E+02  0.48478688003E+02  0.00000000000E+00 0.  1.
         11    1    1    2    0    0 -0.13129968382E+03  0.17359357562E+03  0.32074579995E+01  0.21768009614E+03  0.00000000000E+00 0. -1.
</event>
<event>
 6    1  0.2412631E-010  0.1083946E+03  0.7561462E-02  0.1263572E+00
         -2   -1    0    0    0  501 -0.00000000000E+00  0.00000000000E+00  0.71657630637E+02  0.71657630637E+02  0.00000000000E+00 0.  1.
          2   -1    0    0  501    0  0.00000000000E+00 -0.00000000000E+00 -0.16934773024E+03  0.16934773024E+03  0.00000000000E+00 0. -1.
          5    1    1    2  502    0 -0.19153763092E+02 -0.52711418500E+02 -0.43138500773E+02  0.70878508236E+02  0.41800000000E+01 0.  1.
         -5    1    1    2    0  502 -0.11321685858E+01  0.67931312455E+02 -0.16352966082E+02  0.70005977725E+02  0.41800000000E+01 0.  1.
        -11    1    1    2    0    0  0.55751555121E+02 -0.89540621890E+01 -0.25169928189E+02  0.61821811791E+02  0.00000000000E+00 0. -1.
         11    1    1    2    0    0 -0.35465623443E+02 -0.62658317660E+01 -0.13028704562E+02  0.38299063129E+02  0.00000000000E+00 0.  1.
</event>
<event>
 7    1  0.2412631E-010  0.9382501E+02  0.7561462E-02  0.1293845E+00
          1   -1    0    0  501    0  0.00000000000E+00  0.00000000000E+00  0.52916115858E+03  0.52916115858E+03  0.00000000000E+00 0. -1.
         -1   -1    0    0    0  501 -0.00000000000E+00 -0.00000000000E+00 -0.25269751379E+02  0.25269751379E+02  0.00000000000E+00 0.  1.
         25    2    1    2    0    0  0.37894968478E+01 -0.89637809400E+01  0.39676573042E+03  0.41614507098E+03  0.12513578867E+03 0.  0.
          5    1    3    3  502    0  0.52411436110E+02  0.29058867011E+02  0.14633107267E+03  0.15818227340E+03  0.41800000000E+01 0. -1.
         -5    1    3    3    0  502 -0.48621939262E+02 -0.38022647951E+02  0.25043465775E+03  0.25796279758E+03  0.41800000000E+01 0. -1.
        -11    1    1    2    0    0 -0.47685756822E+01  0.37176735789E+02  0.10318576521E+03  0.10978228973E+03  0.00000000000E+00 0. -1.
         11    1    1    2    0    0  0.97907883447E+00 -0.28212954849E+02  0.39399115772E+01  0.28503549251E+02  0.00000000000E+00 0.  1.
</event>
<event>
 7    1  0.2412631E-010  0.8479414E+02  0.7561462E-02  0.1315972E+00
         -2   -1    0    0    0  501 -0.00000000000E+00  0.00000000000E+00  0.14097510894E+02  0.14097510894E+02  0.00000000000E+00 0.  1.
          2   -1    0    0  501    0  0.00000000000E+00 -0.00000000000E+00 -0.10522111739E+04  0.10522111739E+04  0.00000000000E+00 0. -1.
         25    2    1    2    0    0 -0.52421876170E+02  0.80080492121E+01 -0.69177368657E+03  0.70498375929E+03  0.12505632923E+03 0.  0.
          5    1    3    3  502    0 -0.11538279135E+02  0.20361239130E+02 -0.62598555342E+03  0.62643682637E+03  0.41800000000E+01 0. -1.
         -5    1    3    3    0  502 -0.40883597035E+02 -0.12353189918E+02 -0.65788133154E+02  0.78546932923E+02  0.41800000000E+01 0. -1.
        -11    1    1    2    0    0  0.77463271492E+02 -0.78455608435E+01 -0.25597469074E+03  0.26755401988E+03  0.00000000000E+00 0.  1.
         11    1    1    2    0    0 -0.25041395322E+02 -0.16248836862E+00 -0.90365285670E+02  0.93770905597E+02  0.00000000000E+00 0. -1.
</event>
<event>
 6    1  0.2412631E-010  0.1072080E+03  0.7561462E-02  0.1265829E+00
         -2   -1    0    0    0  501 -0.00000000000E+00  0.00000000000E+00  0.52358647370E+02  0.52358647370E+02  0.00000000000E+00 0. -1.
          2   -1    0    0  501    0  0.00000000000E+00 -0.00000000000E+00 -0.41296775551E+03  0.41296775551E+03  0.00000000000E+00 0.  1.
          5    1    1    2  502    0  0.84000985789E+02 -0.24632244162E+01 -0.13711831409E+03  0.16087615593E+03  0.41800000000E+01 0. -1.
         -5    1    1    2    0  502 -0.33417398715E+02 -0.85196804817E+01 -0.19048965570E+03  0.19363132190E+03  0.41800000000E+01 0. -1.
        -11    1    1    2    0    0  0.29637244650E+01 -0.28722045570E+02 -0.33406613766E+02  0.44155876254E+02  0.00000000000E+00 0. -1.
         11    1    1    2    0    0 -0.53547311539E+02  0.39704950468E+02  0.40547541452E+00  0.66663048798E+02  0.00000000000E+00 0.  1.
</event>
<event>
 7    1  0.2412631E-010  0.8653654E+02  0.7561462E-02  0.1311463E+00
          1   -1    0    0  501    0  0.00000000000E+00  0.00000000000E+00  0.40861444462E+02  0.40861444462E+02  0.00000000000E+00 0. -1.
         -1   -1    0    0    0  501 -0.00000000000E+00 -0.00000000000E+00 -0.34400958227E+03  0.34400958227E+03  0.00000000000E+00 0.  1.
         25    2    1    2    0    0 -0.24967211453E+02 -0.39003881864E+02 -0.16237980312E+03  0.21016365968E+03  0.12512753071E+03 0.  0.
          5    1    3    3  502    0 -0.18837408730E+02  0.34328495405E+02 -0.11737115271E+03  0.12380126596E+03  0.41800000000E+01 0.  1.
         -5    1    3    3    0  502 -0.61298027227E+01 -0.73332377269E+02 -0.45008650407E+02  0.86362393718E+02  0.41800000000E+01 0.  1.
        -11    1    1    2    0    0  0.31695127692E+02  0.15014468433E+02 -0.14522244639E+03  0.14939737051E+03  0.00000000000E+00 0.  1.
         11    1    1    2    0    0 -0.67279162394E+01  0.23989413431E+02  0.44541117005E+01  0.25309996538E+02  0.00000000000E+00 0. -1.
</event>
<event>
 7    1  0.2412631E-010  0.7757431E+02  0.7561462E-02  0.1336080E+00
          2   -1    0    0  501    0  0.00000000000E+00  0.00000000000E+00  0.45776188302E+03  0.45776188302E+03  0.00000000000E+00 0. -1.
         -2   -1    0    0    0  501 -0.00000000000E+00 -0.00000000000E+00 -0.29721072832E+02  0.29721072832E+02  0.00000000000E+00 0.  1.
         25    2    1    2    0    0 -0.42885410390E+02  0.27738283074E+01  0.25058806385E+03  0.28336392943E+03  0.12511549149E+03 0.  0.
          5    1    3    3  502    0 -0.26634852162E+02 -0.30115980447E+02  0.12326981431E+02  0.42258898462E+02  0.41800000000E+01 0. -1.
         -5    1    3    3    0  502 -0.16250558228E+02  0.32889808755E+02  0.23826108242E+03  0.24110503097E+03  0.41800000000E+01 0. -1.
        -11    1    1    2    0    0  0.36175446948E+01 -0.29874698584E+02  0.12816256025E+02  0.32708418849E+02  0.00000000000E+00 0.  1.
         11    1    1    2    0    0  0.39267865695E+02  0.27100870277E+02  0.16463649031E+03  0.17141060757E+03  0.00000000000E+00 0. -1.
</event>
<event>
 7    1  0.2412631E-010  0.2032758E+03  0.7561462E-02  0.1147004E+00
          1   -1    0    0  501    0  0.00000000000E+00  0.00000000000E+00  0.17949953602E+03  0.17949953602E+03  0.00000000000E+00 0. -1.
         -1   -1    0    0    0  501 -0.00000000000E+00 -0.00000000000E+00 -0.29926347374E+03  0.29926347374E+03  0.00000000000E+00 0.  1.
         25    2    1    2    0    0  0.13400730846E+03  0.10880654149E+03  0.49188541626E+02  0.21876597095E+03  0.12506884196E+03 0.  0.
          5    1    3    3  502    0  0.22122466340E+02  0.93536519346E+02  0.17798211274E+01  0.96224342718E+02  0.41800000000E+01 0. -1.
         -5    1    3    3    0  502  0.11188484212E+03  0.15270022141E+02  0.47408720498E+02  0.12254162824E+03  0.41800000000E+01 0. -1.
        -11    1    1    2    0    0 -0.84235659417E+02 -0.76201811545E+01 -0.79233122983E+02  0.11589478528E+03  0.00000000000E+00 0.  1.
         11    1    1    2    0    0 -0.49771649039E+02 -0.10118636033E+03 -0.89719356356E+02  0.14410225352E+03  0.00000000000E+00 0. -1.
</event>
<event>
 6    1  0.2412631E-010  0.1190529E+03  0.7561462E-02  0.1244668E+00
         -2   -1    0    0    0  501 -0.00000000000E+00  0.00000000000E+00  0.11579576675E+02  0.11579576675E+02  0.00000000000E+00 0.  1.
          2   -1    0    0  501    0  0.00000000000E+00 -0.00000000000E+00 -0.12894677107E+04  0.12894677107E+04  0.00000000000E+00 0. -1.
          5    1    1    2  502    0  0.47184601668E+02 -0.83057530285E+02 -0.53267361797E+03  0.54118720944E+03  0.41800000000E+01 0. -1.
         -5    1    1    2    0  502 -0.26783754324E+02  0.30947191761E+02 -0.24343244650E+03  0.24688443973E+03  0.41800000000E+01 0. -1.
        -11    1    1    2    0    0  0.31603741825E+02  0.66946368260E+01 -0.94161622536E+02  0.99549112593E+02  0.00000000000E+00 0.  1.
         11    1    1    2    0    0 -0.52004589169E+02  0.45415701698E+02 -0.40762044707E+03  0.41342652567E+03  0.00000000000E+00 0. -1.
</event>
<event>
 7    1  0.2412631E-010  0.1090628E+03  0.7561462E-02  0.1262315E+00
         -1   -1    0    0    0  501 -0.00000000000E+00  0.00000000000E+00  0.73445263839E+02  0.73445263839E+02  0.00000000000E+00 0.  1.
          1   -1    0    0  501    0  0.00000000000E+00 -0.00000000000E+00 -0.21922881077E+03  0.21922881077E+03  0.00000000000E+00 0. -1.
         25    2    1    2    0    0  0.45869366489E+02 -0.80454254259E+01 -0.13201491887E+03  0.18774851586E+03  0.12511130544E+03 0.  0.
          5    1    3    3  502    0  0.61349315721E+02  0.40293258962E+02 -0.42930626268E+02  0.85133990444E+02  0.41800000000E+01 0.  1.
         -5    1    3    3    0  502 -0.15479949232E+02 -0.48338684388E+02 -0.89084292606E+02  0.10261452541E+03  0.41800000000E+01 0.  1.
        -11    1    1    2    0    0 -0.33006684296E+02 -0.35382185460E+02  0.15722951460E+02  0.50877809099E+02  0.00000000000E+00 0. -1.
         11    1    1    2    0    0 -0.12862682193E+02  0.43427610886E+02 -0.29491579521E+02  0.54047749658E+02  0.00000000000E+00 0.  1.
</event>
<event>
 7    1  0.2412631E-010  0.7581846E+02  0.7561462E-02  0.1341355E+00
          1   -1    0    0  501    0  0.00000000000E+00  0.00000000000E+00  0.16791143517E+03  0.16791143517E+03  0.00000000000E+00 0. -1.
         -1   -1    0    0    0  501 -0.00000000000E+00 -0.00000000000E+00 -0.84976925586E+02  0.84976925586E+02  0.00000000000E+00 0.  1.
         25    2    1    2    0    0  0.44204738671E+01 -0.79140095132E+01  0.99140757236E+02  0.15985433133E+03  0.12506936221E+03 0.  0.
          5    1    3    3  502    0  0.54887147481E+01 -0.65336820106E+02  0.38145077267E+02  0.75970687576E+02  0.41800000000E+01 0.  1.
         -5    1    3    3    0  502 -0.10682408810E+01  0.57422810592E+02  0.60995679969E+02  0.83883643756E+02  0.41800000000E+01 0.  1.
        -11    1    1    2    0    0  0.10751242809E+02  0.76197489454E+01 -0.52271217316E+02  0.53906678210E+02  0.00000000000E+00 0.  1.
         11    1    1    2    0    0 -0.15171716676E+02  0.29426056784E+00  0.36064969666E+02  0.39127351216E+02  0.00000000000E+00 0. -1.
</event>
<event>
 7    1  0.2412631E-010  0.1207369E+03  0.7561462E-02  0.1241886E+00
         -1   -1    0    0    0  501 -0.00000000000E+00  0.00000000000E+00  0.11164370254E+03  0.11164370254E+03  0.00000000000E+00 0.  1.
          1   -1    0    0  501    0  0.00000000000E+00 -0.00000000000E+00 -0.20252889538E+03  0.20252889538E+03  0.00000000000E+00 0. -1.
         25    2    1    2    0    0 -0.82184850134E+02 -0.22369032164E+02 -0.79200126033E+02  0.17083344227E+03  0.12512666319E+03 0.  0.
          5    1    3    3  502    0 -0.37010485160E+02 -0.41874699732E+02  0.20418840277E+02  0.59646189549E+02  0.41800000000E+01 0. -1.
         -5    1    3    3    0  502 -0.45174364974E+02  0.19505667569E+02 -0.99618966310E+02  0.11118725272E+03  0.41800000000E+01 0. -1.
        -11    1    1    2    0    0  0.38318986833E+02 -0.42828178137E+02  0.16608721628E+02  0.59820123943E+02  0.00000000000E+00 0.  1.
         11    1    1    2    0    0  0.43865863301E+02  0.65197210300E+02 -0.28293788439E+02  0.83519031713E+02  0.00000000000E+00 0. -1.
</event>
<event>
 7    1  0.2412631E-010  0.1018587E+03  0.7561462E-02  0.1276435E+00
         -2   -1    0    0    0  501 -0.00000000000E+00  0.00000000000E+00  0.11758103326E+02  0.11758103326E+02  0.00000000000E+00 0.  1.
          2   -1    0    0  501    0  0.00000000000E+00 -0.00000000000E+00 -0.22396453321E+04  0.22396453321E+04  0.00000000000E+00 0. -1.
         25    2    1    2    0    0  0.54307344041E+02  0.32808578170E+02 -0.19045351574E+04  0.19096957216E+04  0.12513150218E+03 0.  0.
          5    1    3    3  502    0  0.73844134020E+02  0.41901979620E+02 -0.72654913778E+03  0.73150519754E+03  0.41800000000E+01 0. -1.
         -5    1    3    3    0  502 -0.19536789980E+02 -0.90934014497E+01 -0.11779860196E+04  0.11781905241E+04  0.41800000000E+01 0. -1.
        -11    1    1    2    0    0 -0.69465547517E+01 -0.46848872492E+02 -0.24153575111E+03  0.24613530942E+03  0.00000000000E+00 0. -1.
         11    1    1    2    0    0 -0.47360789289E+02  0.14040294322E+02 -0.81816320266E+02  0.95572404430E+02  0.00000000000E+00 0.  1.
</event>
<event>
 7    1  0.2412631E-010  0.1033709E+03  0.7561462E-02  0.1273363E+00
          2   -1    0    0  501    0  0.00000000000E+00  0.00000000000E+00  0.56008138934E+02  0.56008138934E+02  0.00000000000E+00 0.  1.
         -2   -1    0    0    0  501 -0.00000000000E+00 -0.00000000000E+00 -0.24235030948E+03  0.24235030948E+03  0.00000000000E+00 0. -1.
         25    2    1    2    0    0 -0.74888642220E+01  0.82655348519E+01 -0.15739294760E+03  0.20137551465E+03  0.12512056502E+03 0.  0.
          5    1    3    3  502    0 -0.28408979687E+02  0.55424210768E+02 -0.42944213082E+02  0.75766688613E+02  0.41800000000E+01 0. -1.
         -5    1    3    3    0  502  0.20920115465E+02 -0.47158675916E+02 -0.11444873452E+03  0.12560882604E+03  0.41800000000E+01 0. -1.
        -11    1    1    2    0    0  0.48402253093E+02  0.69731058894E+01 -0.15434125966E+02  0.51279767497E+02  0.00000000000E+00 0.  1.
         11    1    1    2    0    0 -0.40913388871E+02 -0.15238640741E+02 -0.13515096979E+02  0.45703166268E+02  0.00000000000E+00 0. -1.
</event>
<event>
 7    1  0.2412631E-010  0.9054067E+02  0.7561462E-02  0.1301548E+00
         -2   -1    0    0    0  501 -0.00000000000E+00  0.00000000000E+00  0.36229661086E+02  0.36229661086E+02  0.00000000000E+00 0.  1.
          2   -1    0    0  501    0  0.00000000000E+00 -0.00000000000E+00 -0.36792412360E+03  0.36792412360E+03  0.00000000000E+00 0. -1.
         25    2    1    2    0    0 -0.36913272597E+02  0.77702358205E+01 -0.16218848105E+03  0.20829400951E+03  0.12513322802E+03 0.  0.
          5    1    3    3  502    0 -0.29681147062E+02 -0.43766269636E+02 -0.14324972877E+03  0.15275606057E+03  0.41800000000E+01 0.  1.
         -5    1    3    3    0  502 -0.72321255357E+01  0.51536505457E+02 -0.18938752283E+02  0.55537948940E+02  0.41800000000E+01 0.  1.
        -11    1    1    2    0    0 -0.49233818686E+01 -0.28648786214E+02 -0.11806922224E+02  0.31375086501E+02  0.00000000000E+00 0.  1.
         11    1    1    2    0    0  0.41836654466E+02  0.20878550394E+02 -0.15769905924E+03  0.16448468868E+03  0.00000000000E+00 0. -1.
</event>
<event>
 7    1  0.2412631E-010  0.2810289E+03  0.7561462E-02  0.1095128E+00
         -1   -1    0    0    0  501 -0.00000000000E+00  0.00000000000E+00  0.78978653021E+02  0.78978653021E+02  0.00000000000E+00 0.  1.
          1   -1    0    0  501    0  0.00000000000E+00 -0.00000000000E+00 -0.10157870335E+04  0.10157870335E+04  0.00000000000E+00 0. -1.
         25    2    1    2    0    0  0.19207262923E+02  0.25885832555E+03 -0.41910930752E+03  0.50859715989E+03  0.12506761272E+03 0.  0.
          5    1    3    3  502    0 -0.46410800270E+02  0.17444346011E+03 -0.24750709994E+03  0.30636860165E+03  0.41800000000E+01 0.  1.
         -5    1    3    3    0  502  0.65618063194E+02  0.84414865440E+02 -0.17160220758E+03  0.20222855824E+03  0.41800000000E+01 0.  1.
        -11    1    1    2    0    0  0.35061085857E+02 -0.74874001136E+02 -0.14132784041E+03  0.16373440159E+03  0.00000000000E+00 0.  1.
         11    1    1    2    0    0 -0.54268348780E+02 -0.18398432441E+03 -0.37637123256E+03  0.42243412505E+03  0.00000000000E+00 0. -1.
</event>
<event>
 7    1  0.2412631E-010  0.1121006E+03  0.7561462E-02  0.1256729E+00
          1   -1    0    0  501    0  0.00000000000E+00  0.00000000000E+00  0.64632758317E+02  0.64632758317E+02  0.00000000000E+00 0. -1.
         -1   -1    0    0    0  501 -0.00000000000E+00 -0.00000000000E+00 -0.23474530464E+03  0.23474530464E+03  0.00000000000E+00 0.  1.
         25    2    1    2    0    0 -0.43411114693E+02 -0.11903746534E+02 -0.86965110505E+02  0.15888907263E+03  0.12512626781E+03 0.  0.
          5    1    3    3  502    0 -0.86854974590E+02 -0.18170039162E+02 -0.60180430282E+02  0.10729908445E+03  0.41800000000E+01 0.  1.
         -5    1    3    3    0  502  0.43443859897E+02  0.62662926286E+01 -0.26784680223E+02  0.51589988183E+02  0.41800000000E+01 0.  1.
        -11    1    1    2    0    0  0.92166360676E+01  0.43652278453E+02  0.60146516786E+00  0.44618713057E+02  0.00000000000E+00 0. -1.
         11    1    1    2    0    0  0.34194478625E+02 -0.31748531920E+02 -0.83748900987E+02  0.95870277271E+02  0.00000000000E+00 0.  1.
</event>
<event>
 6    1  0.2412631E-010  0.1111633E+03  0.7561462E-02  0.1258431E+00
         -1   -1    0    0    0  501 -0.00000000000E+00  0.00000000000E+00  0.12047797559E+03  0.12047797559E+03  0.00000000000E+00 0.  1.
          1   -1    0    0  501    0  0.00000000000E+00 -0.00000000000E+00 -0.14674915970E+03  0.14674915970E+03  0.00000000000E+00 0. -1.
          5    1    1    2  502    0  0.19891976691E+02  0.63727718232E+02 -0.54643532120E+02  0.86373032888E+02  0.41800000000E+01 0. -1.
         -5    1    1    2    0  502 -0.43622996967E+02  0.14495358744E+02  0.43450144892E+02  0.63391393585E+02  0.41800000000E+01 0. -1.
        -11    1    1    2    0    0 -0.25806018931E+02 -0.35331039289E+02  0.13770048026E+02  0.45867713840E+02  0.00000000000E+00 0.  1.
         11    1    1    2    0    0  0.49537039207E+02 -0.42892037687E+02 -0.28847844913E+02  0.71594994982E+02  0.00000000000E+00 0. -1.
</event>
<event>
 7    1  0.3435698E-010  0.1929832E+03  0.7561462E-02  0.1155798E+00
         -2   -1    0    0    0  501 -0.00000000000E+00  0.00000000000E+00  0.26666535908E+03  0.26666535908E+03  0.00000000000E+00 0.  1.
          2   -1    0    0  501    0  0.00000000000E+00 -0.00000000000E+00 -0.16242650995E+03  0.16242650995E+03  0.00000000000E+00 0. -1.
         25    2    1    2    0    0  0.15279713875E+03  0.83082575733E+02  0.19473867295E+02  0.21510624777E+03  0.12506712726E+03 0.  0.
          5    1    3    3  502    0  0.11239767013E+03  0.19643560611E+02  0.60622094806E+02  0.12927341762E+03  0.41800000000E+01 0. -1.
         -5    1    3    3    0  502  0.40399468614E+02  0.63439015122E+02 -0.41148227511E+02  0.85832830148E+02  0.41800000000E+01 0. -1.
        -11    1    1    2    0    0 -0.33476294209E+02 -0.68514006902E+02  0.31455364225E+02  0.82488007336E+02  0.00000000000E+00 0. -1.
         11    1    1    2    0    0 -0.11932084454E+03 -0.14568568831E+02  0.53309617603E+02  0.13149761393E+03  0.00000000000E+00 0.  1.
</event>
<event>
 6    1  0.2412631E-010  0.9529423E+02  0.7561462E-02  0.1290515E+00
         -1   -1    0    0    0  501 -0.00000000000E+00  0.00000000000E+00  0.16321494902E+03  0.16321494902E+03  0.00000000000E+00 0.  1.
          1   -1    0    0  501    0  0.00000000000E+00 -0.00000000000E+00 -0.91981884796E+02  0.91981884796E+02  0.00000000000E+00 0. -1.
          5    1    1    2  502    0  0.58352566200E+02  0.16327535470E+02 -0.10416491765E+02  0.61624557583E+02  0.41800000000E+01 0.  1.
         -5    1    1    2    0  502 -0.46188874889E+02 -0.50573105010E+02  0.38681395986E+01  0.68727621942E+02  0.41800000000E+01 0.  1.
        -11    1    1    2    0    0 -0.35678651039E+01  0.46294131533E+02  0.78439631845E+00  0.46438039940E+02  0.00000000000E+00 0. -1.
         11    1    1    2    0    0 -0.85958262068E+01 -0.12048561994E+02  0.76997020070E+02  0.78406614351E+02  0.00000000000E+00 0.  1.
</event>
<event>
 7    1  0.2412631E-010  0.1192016E+03  0.7561462E-02  0.1244420E+00
          4   -1    0    0  501    0  0.00000000000E+00  0.00000000000E+00  0.11975873377E+03  0.11975873377E+03  0.00000000000E+00 0. -1.
         -4   -1    0    0    0  501 -0.00000000000E+00 -0.00000000000E+00 -0.23910962328E+03  0.23910962328E+03  0.00000000000E+00 0.  1.
         25    2    1    2    0    0  0.94357611693E+02 -0.14972390299E+02 -0.15537238476E+03  0.22118239310E+03  0.12511411477E+03 0.  0.
          5    1    3    3  502    0  0.10059886929E+03  0.20748420220E+02 -0.15335635170E+03  0.18462467996E+03  0.41800000000E+01 0. -1.
         -5    1    3    3    0  502 -0.62412575969E+01 -0.35720810519E+02 -0.20160330617E+01  0.36557713137E+02  0.41800000000E+01 0. -1.
        -11    1    1    2    0    0 -0.25144046632E+02  0.16136269983E+02  0.57844276812E+02  0.65104244485E+02  0.00000000000E+00 0. -1.
         11    1    1    2    0    0 -0.69213565061E+02 -0.11638796837E+01 -0.21822781561E+02  0.72581719457E+02  0.00000000000E+00 0.  1.
</event>
<event>
 7    1  0.2412631E-010  0.1651568E+03  0.7561462E-02  0.1182995E+00
          2   -1    0    0  501    0  0.00000000000E+00  0.00000000000E+00  0.18094566759E+03  0.18094566759E+03  0.00000000000E+00 0. -1.
         -2   -1    0    0    0  501 -0.00000000000E+00 -0.00000000000E+00 -0.20371824436E+03  0.20371824436E+03  0.00000000000E+00 0.  1.
         25    2    1    2    0    0  0.10243340493E+03 -0.99398098258E+02 -0.80751979286E+02  0.20623489328E+03  0.12505744545E+03 0.  0.
          5    1    3    3  502    0  0.11096978271E+03 -0.56452957425E+02 -0.12718801340E+02  0.12522168097E+03  0.41800000000E+01 0. -1.
         -5    1    3    3    0  502 -0.85363777835E+01 -0.42945140833E+02 -0.68033177946E+02  0.81013212307E+02  0.41800000000E+01 0. -1.
        -11    1    1    2    0    0 -0.73711284340E+02  0.18625719801E+02  0.52763704974E+02  0.92543392199E+02  0.00000000000E+00 0. -1.
         11    1    1    2    0    0 -0.28722120590E+02  0.80772378457E+02  0.52156975448E+01  0.85885626467E+02  0.00000000000E+00 0.  1.
</event>
<event>
 6    1  0.2412631E-010  0.1366710E+03  0.7561462E-02  0.1217880E+00
          2   -1    0    0  501    0  0.00000000000E+00  0.00000000000E+00  0.75177646622E+03  0.75177646622E+03  0.00000000000E+00 0.  1.
         -2   -1    0    0    0  501 -0.00000000000E+00 -0.00000000000E+00 -0.32298785856E+02  0.32298785856E+02  0.00000000000E+00 0. -1.
          5    1    1    2  502    0  0.53122780356E+01 -0.83286185980E+02  0.15966593208E+03  0.18020957616E+03  0.41800000000E+01 0. -1.
         -5    1    1    2    0  502 -0.72944171769E+02  0.11065115545E+02  0.97399902616E+02  0.12225997876E+03  0.41800000000E+01 0. -1.
        -11    1    1    2    0    0  0.27249238890E+02  0.70368004445E+02  0.40130150221E+03  0.40833451085E+03  0.00000000000E+00 0.  1.
         11    1    1    2    0    0  0.40382654842E+02  0.18530659909E+01  0.61110343452E+02  0.73271186305E+02  0.00000000000E+00 0. -1.
</event>
<event>
 7    1  0.2412631E-010  0.1002903E+03  0.7561462E-02  0.1279687E+00
         -1   -1    0    0    0  501 -0.00000000000E+00  0.00000000000E+00  0.38818125938E+02  0.38818125938E+02  0.00000000000E+00 0.  1.
          1   -1    0    0  501    0  0.00000000000E+00 -0.00000000000E+00 -0.53802622885E+03  0.53802622885E+03  0.00000000000E+00 0. -1.
         25    2    1    2    0    0 -0.43105455701E+02 -0.76917628232E+02 -0.20800953794E+03  0.25826429906E+03  0.12513224384E+03 0.  0.
          5    1    3    3  502    0 -0.13220343340E+02 -0.54561032709E+02 -0.21305911736E+03  0.22037092290E+03  0.41800000000E+01 0. -1.
         -5    1    3    3    0  502 -0.29885112361E+02 -0.22356595523E+02  0.50495794215E+01  0.37893376156E+02  0.41800000000E+01 0. -1.
        -11    1    1    2    0    0 -0.11726798934E+02  0.37253580480E+02 -0.31402820935E+02  0.50114710760E+02  0.00000000000E+00 0.  1.
         11    1    1    2    0    0  0.54832254635E+02  0.39664047751E+02 -0.25979574404E+03  0.26846534498E+03  0.00000000000E+00 0. -1.
</event>
<event>
 7    1  0.2412631E-010  0.7481835E+02  0.7561462E-02  0.1344434E+00
          1   -1    0    0  501    0  0.00000000000E+00  0.00000000000E+00  0.18024246612E+03  0.18024246612E+03  0.00000000000E+00 0. -1.
         -1   -1    0    0    0  501 -0.00000000000E+00 -0.00000000000E+00 -0.81351705468E+02  0.81351705468E+02  0.00000000000E+00 0.  1.
         25    2    1    2    0    0 -0.21944232533E+02 -0.17689054422E+02  0.49456226349E+01  0.12834190979E+03  0.12511088937E+03 0.  0.
          5    1    3    3  502    0  0.12215518217E+02  0.33747004996E+02 -0.38444585938E+02  0.52759243924E+02  0.41800000000E+01 0.  1.
         -5    1    3    3    0  502 -0.34159750749E+02 -0.51436059418E+02  0.43390208573E+02  0.75582665868E+02  0.41800000000E+01 0.  1.
        -11    1    1    2    0    0 -0.10856583711E+02 -0.47759653461E+01 -0.13923534762E+02  0.18290436712E+02  0.00000000000E+00 0.  1.
         11    1    1    2    0    0  0.32800816244E+02  0.22465019768E+02  0.10786867278E+03  0.11496182508E+03  0.00000000000E+00 0. -1.
</event>
<event>
 6    1  0.2412631E-010  0.1821156E+03  0.7561462E-02  0.1165771E+00
          2   -1    0    0  501    0  0.00000000000E+00  0.00000000000E+00  0.16158100206E+03  0.16158100206E+03  0.00000000000E+00 0. -1.
         -2   -1    0    0    0  501 -0.00000000000E+00 -0.00000000000E+00 -0.27587801239E+03  0.27587801239E+03  0.00000000000E+00 0.  1.
          5    1    1    2  502    0  0.26945069118E+02  0.49662147474E+02 -0.24704356135E+02  0.61807307445E+02  0.41800000000E+01 0.  1.
         -5    1    1    2    0  502  0.13611576465E+03 -0.23652130961E+02  0.44238013258E+02  0.14512545918E+03  0.41800000000E+01 0.  1.
        -11    1    1    2    0    0 -0.84313635848E+02 -0.32460099057E+02 -0.12016877848E+03  0.15034288324E+03  0.00000000000E+00 0.  1.
         11    1    1    2    0    0 -0.78747197919E+02  0.64500825439E+01 -0.13661888969E+02  0.80183364578E+02  0.00000000000E+00 0. -1.
</event>
<event>
 7    1  0.2412631E-010  0.9955261E+02  0.7561462E-02  0.1281240E+00
          1   -1    0    0  501    0  0.00000000000E+00  0.00000000000E+00  0.46770427819E+03  0.46770427819E+03  0.00000000000E+00 0. -1.
         -1   -1    0    0    0  501 -0.00000000000E+00 -0.00000000000E+00 -0.34638615061E+02  0.34638615061E+02  0.00000000000E+00 0.  1.
         25    2    1    2    0    0  0.43184432830E+02  0.46446834048E+02  0.20877723737E+03  0.25152753692E+03  0.12512379212E+03 0.  0.
          5    1    3    3  502    0  0.60836824785E+02  0.77025859124E+02  0.18268574339E+03  0.20742626512E+03  0.41800000000E+01 0.  1.
         -5    1    3    3    0  502 -0.17652391954E+02 -0.30579025075E+02  0.26091493978E+02  0.44101271799E+02  0.41800000000E+01 0.  1.
        -11    1    1    2    0    0 -0.41237600294E+02 -0.36183635400E+02  0.23163581527E+03  0.23804400027E+03  0.00000000000E+00 0. -1.
         11    1    1    2    0    0 -0.19468325369E+01 -0.10263198648E+02 -0.73473894997E+01  0.12771356071E+02  0.00000000000E+00 0.  1.
</event>
<event>
 7    1  0.2412631E-010  0.1111684E+03  0.7561462E-02  0.1258421E+00
          1   -1    0    0  501    0  0.00000000000E+00  0.00000000000E+00  0.10723718684E+03  0.10723718684E+03  0.00000000000E+00 0. -1.
         -1   -1    0    0    0  501 -0.00000000000E+00 -0.00000000000E+00 -0.20745878239E+03  0.20745878239E+03  0.00000000000E+00 0.  1.
         25    2    1    2    0    0 -0.29294308860E+02  0.72952881392E+02  0.15121080930E+02  0.14849608028E+03  0.12506861850E+03 0.  0.
          5    1    3    3  502    0 -0.40486189904E+02  0.96979415172E+02 -0.17110657415E+02  0.10655695912E+03  0.41800000000E+01 0. -1.
         -5    1    3    3    0  502  0.11191881045E+02 -0.24026533780E+02  0.32231738344E+02  0.41939121158E+02  0.41800000000E+01 0. -1.
        -11    1    1    2    0    0  0.37706291719E+02 -0.34969276151E+02 -0.11642930919E+03  0.12728078704E+03  0.00000000000E+00 0.  1.
         11    1    1    2    0    0 -0.84119828591E+01 -0.37983605241E+02  0.10866327134E+01  0.38919101909E+02  0.00000000000E+00 0. -1.
</event>
<event>
 7    1  0.2412631E-010  0.2865506E+03  0.7561462E-02  0.1092164E+00
          2   -1    0    0  501    0  0.00000000000E+00  0.00000000000E+00  0.30657117246E+04  0.30657117246E+04  0.00000000000E+00 0. -1.
         -2   -1    0    0    0  501 -0.00000000000E+00 -0.00000000000E+00 -0.32044118635E+02  0.32044118635E+02  0.00000000000E+00 0.  1.
         25    2    1    2    0    0 -0.23348374075E+03 -0.13306113274E+03  0.21108546311E+04  0.21315689097E+04  0.12513521079E+03 0.  0.
          5    1    3    3  502    0 -0.15448655548E+03 -0.28944691043E+02  0.13986672993E+04  0.14074770256E+04  0.41800000000E+01 0.  1.
         -5    1    3    3    0  502 -0.78997185265E+02 -0.10411644170E+03  0.71218733180E+03  0.72409188414E+03  0.41800000000E+01 0.  1.
        -11    1    1    2    0    0  0.16140825442E+03  0.13869940885E+03  0.64966925968E+03  0.68363754840E+03  0.00000000000E+00 0. -1.
         11    1    1    2    0    0  0.72075486325E+02 -0.56382761140E+01  0.27314371515E+03  0.28254938509E+03  0.00000000000E+00 0.  1.
</event>
<event>
 7    1  0.2412631E-010  0.1042915E+03  0.7561462E-02  0.1271522E+00
         -2   -1    0    0    0  501 -0.00000000000E+00  0.00000000000E+00  0.27313257993E+02  0.27313257993E+02  0.00000000000E+00 0.  1.
          2   -1    0    0  501    0  0.00000000000E+00 -0.00000000000E+00 -0.75169628331E+03  0.75169628331E+03  0.00000000000E+00 0. -1.
         25    2    1    2    0    0  0.59106582487E+02 -0.31697543634E+02 -0.58269785854E+03  0.59972897551E+03  0.12505889556E+03 0.  0.
          5    1    3    3  502    0 -0.11825607806E+02 -0.39845252619E+02 -0.41915115653E+03  0.42122755558E+03  0.41800000000E+01 0. -1.
         -5    1    3    3    0  502  0.70932190293E+02  0.81477089848E+01 -0.16354670200E+03  0.17850141993E+03  0.41800000000E+01 0. -1.
        -11    1    1    2    0    0 -0.42458415364E+01 -0.19676692305E+02 -0.14596023090E+01  0.20182413863E+02  0.00000000000E+00 0.  1.
         11    1    1    2    0    0 -0.54860740951E+02  0.51374235939E+02 -0.14022556448E+03  0.15909815193E+03  0.00000000000E+00 0. -1.
</event>
<event>
 6    1  0.2412631E-010  0.6441551E+02  0.7561462E-02  0.1380184E+00
          1   -1    0    0  501    0  0.00000000000E+00  0.00000000000E+00  0.13343764489E+04  0.13343764489E+04  0.00000000000E+00 0. -1.
         -1   -1    0    0    0  501 -0.00000000000E+00 -0.00000000000E+00 -0.12063692317E+02  0.12063692317E+02  0.00000000000E+00 0.  1.
          5    1    1    2  502    0 -0.24036737300E+02 -0.54714135548E+01  0.10635153141E+04  0.10638091920E+04  0.41800000000E+01 0.  1.
         -5    1    1    2    0  502  0.23391466940E+01  0.12507157332E+02  0.88341100654E+01  0.16044141997E+02  0.41800000000E+01 0.  1.
        -11    1    1    2    0    0  0.11011630255E+01 -0.46184897423E+02  0.15662821195E+03  0.16329927768E+03  0.00000000000E+00 0.  1.
         11    1    1    2    0    0  0.20596427581E+02  0.39149153646E+02  0.93335120382E+02  0.10328752953E+03  0.00000000000E+00 0. -1.
</event>
<event>
 6    1  0.2412631E-010  0.7921208E+02  0.7561462E-02  0.1331302E+00
          1   -1    0    0  501    0  0.00000000000E+00  0.00000000000E+00  0.29642885749E+03  0.29642885749E+03  0.00000000000E+00 0. -1.
         -1   -1    0    0    0  501 -0.00000000000E+00 -0.00000000000E+00 -0.54465932174E+02  0.54465932174E+02  0.00000000000E+00 0.  1.
          5    1    1    2  502    0  0.27486269698E+02  0.28319157962E+02 -0.59011395289E+01  0.40121884020E+02  0.41800000000E+01 0.  1.
         -5    1    1    2    0  502  0.10170553179E+02  0.17150993023E+02  0.18477615798E+03  0.18589593237E+03  0.41800000000E+01 0.  1.
        -11    1    1    2    0    0  0.85763970889E+01 -0.51078251433E+02  0.74604017579E+01  0.52327812403E+02  0.00000000000E+00 0. -1.
         11    1    1    2    0    0 -0.46233219966E+02  0.56081004473E+01  0.55627505112E+02  0.72549160877E+02  0.00000000000E+00 0.  1.
</event>
<event>
 7    1  0.2412631E-010  0.1363068E+03  0.7561462E-02  0.1218387E+00
          1   -1    0    0  501    0  0.00000000000E+00  0.00000000000E+00  0.19160064301E+03  0.19160064301E+03  0.00000000000E+00 0. -1.
         -1   -1    0    0    0  501 -0.00000000000E+00 -0.00000000000E+00 -0.12525317129E+03  0.12525317129E+03  0.00000000000E+00 0.  1.
         25    2    1    2    0    0 -0.28998325249E+02  0.10377580656E+03  0.59212767805E+02  0.17541387621E+03  0.12511416866E+03 0.  0.
          5    1    3    3  502    0 -0.62156177021E+02  0.10045569801E+03  0.73198716033E+02  0.13903331268E+03  0.41800000000E+01 0.  1.
         -5    1    3    3    0  502  0.33157851772E+02  0.33201085452E+01 -0.13985948227E+02  0.36380563529E+02  0.41800000000E+01 0.  1.
        -11    1    1    2    0    0 -0.22418338761E+01 -0.83612819002E+02 -0.30028707594E+02  0.88869863285E+02  0.00000000000E+00 0. -1.
         11    1    1    2    0    0  0.31240159125E+02 -0.20162987557E+02  0.37163411510E+02  0.52570074800E+02  0.00000000000E+00 0.  1.
</event>
<event>
 6    1  0.2412631E-010  0.1165070E+03  0.7561462E-02  0.1248973E+00
         -2   -1    0    0    0  501 -0.00000000000E+00  0.00000000000E+00  0.19713723232E+02  0.19713723232E+02  0.00000000000E+00 0. -1.
          2   -1    0    0  501    0  0.00000000000E+00 -0.00000000000E+00 -0.10287698817E+04  0.10287698817E+04  0.00000000000E+00 0.  1.
          5    1    1    2  502    0  0.48852742633E+01  0.70541861335E+02 -0.32675945557E+03  0.33434897085E+03  0.41800000000E+01 0. -1.
         -5    1    1    2    0  502 -0.55730638572E+02 -0.34629442710E+02 -0.46558665553E+03  0.47020581513E+03  0.41800000000E+01 0. -1.
        -11    1    1    2    0    0  0.41688526852E+02  0.15301051984E+02 -0.16384941778E+03  0.16976067616E+03  0.00000000000E+00 0.  1.
         11    1    1    2    0    0  0.91568374565E+01 -0.51213470609E+02 -0.52860629585E+02  0.74168142785E+02  0.00000000000E+00 0. -1.
</event>
<event>
 7    1  0.2993939E-010  0.1115680E+03  0.7561462E-02  0.1257693E+00
          2   -1    0    0  501    0  0.00000000000E+00  0.00000000000E+00  0.72641344242E+03  0.72641344242E+03  0.00000000000E+00 0. -1.
         -2   -1    0    0    0  501 -0.00000000000E+00 -0.00000000000E+00 -0.23882509157E+02  0.23882509157E+02  0.00000000000E+00 0.  1.
         25    2    1    2    0    0 -0.55786674369E+02 -0.39375051468E+02  0.47154566373E+03  0.49261645238E+03  0.12511238332E+03 0.  0.
          5    1    3    3  502    0 -0.77006777735E+02 -0.14779873124E+02  0.44064973671E+03  0.44759150051E+03  0.41800000000E+01 0.  1.
         -5    1    3    3    0  502  0.21220103367E+02 -0.24595178344E+02  0.30895927019E+02  0.45024951871E+02  0.41800000000E+01 0.  1.
        -11    1    1    2    0    0 -0.15331134703E+02 -0.15674772966E+02  0.69037154565E+02  0.72435287735E+02  0.00000000000E+00 0. -1.
         11    1    1    2    0    0  0.71117809072E+02  0.55049824435E+02  0.16194811497E+03  0.18524421146E+03  0.00000000000E+00 0.  1.
</event>
<event>
 6    1  0.2412631E-010  0.2188784E+03  0.7561462E-02  0.1134722E+00
          1   -1    0    0  501    0  0.00000000000E+00  0.00000000000E+00  0.21756383974E+03  0.21756383974E+03  0.00000000000E+00 0. -1.
         -1   -1    0    0    0  501 -0.00000000000E+00 -0.00000000000E+00 -0.37351165364E+03  0.37351165364E+03  0.00000000000E+00 0.  1.
          5    1    1    2  502    0  0.76544309106E+00  0.16855512888E+02 -0.42548554153E+02  0.45962442041E+02  0.41800000000E+01 0. -1.
         -5    1    1    2    0  502  0.12701310239E+03 -0.17517618703E+03 -0.20897876276E+03  0.30084650631E+03  0.41800000000E+01 0. -1.
        -11    1    1    2    0    0 -0.19300282946E+02  0.16410621932E+02 -0.19337572982E+02  0.31870851304E+02  0.00000000000E+00 0.  1.
         11    1    1    2    0    0 -0.10847826253E+03  0.14191005221E+03  0.11491707599E+03  0.21239569372E+03  0.00000000000E+00 0. -1.
</event>
<event>
 7    1  0.2412631E-010  0.1075525E+03  0.7561462E-02  0.1265171E+00
         -4   -1    0    0    0  501 -0.00000000000E+00  0.00000000000E+00  0.20560400120E+03  0.20560400120E+03  0.00000000000E+00 0.  1.
          4   -1    0    0  501    0  0.00000000000E+00 -0.00000000000E+00 -0.58549177393E+02  0.58549177393E+02  0.00000000000E+00 0. -1.
         25    2    1    2    0    0  0.37419216578E+01  0.74707350534E+01  0.66672559305E+02  0.14196282021E+03  0.12505358171E+03 0.  0.
          5    1    3    3  502    0  0.56599377256E+02  0.33515212681E+02  0.29872108758E+02  0.72364178075E+02  0.41800000000E+01 0.  1.
         -5    1    3    3    0  502 -0.52857455598E+02 -0.26044477627E+02  0.36800450547E+02  0.69598642140E+02  0.41800000000E+01 0.  1.
        -11    1    1    2    0    0  0.30191602218E+02 -0.35145369262E+02  0.53649556645E+02  0.70887267920E+02  0.00000000000E+00 0.  1.
         11    1    1    2    0    0 -0.33933523876E+02  0.27674634209E+02  0.26732707858E+02  0.51303090459E+02  0.00000000000E+00 0. -1.
</event>
<event>
 7    1  0.2412631E-010  0.1108324E+03  0.7561462E-02  0.1259036E+00
         -2   -1    0    0    0  501 -0.00000000000E+00  0.00000000000E+00  0.59720717695E+02  0.59720717695E+02  0.00000000000E+00 0. -1.
          2   -1    0    0  501    0  0.00000000000E+00 -0.00000000000E+00 -0.31266249509E+03  0.31266249509E+03  0.00000000000E+00 0.  1.
         25    2    1    2    0    0  0.59909901348E+02 -0.56868761124E+02 -0.13889659743E+03  0.20439469438E+03  0.12514661019E+03 0.  0.
          5    1    3    3  502    0  0.66672003696E+02 -0.26921684272E+02 -0.11073540407E+02  0.72869944820E+02  0.41800000000E+01 0. -1.
         -5    1    3    3    0  502 -0.67621023480E+01 -0.29947076852E+02 -0.12782305702E+03  0.13152474956E+03  0.41800000000E+01 0. -1.
        -11    1    1    2    0    0 -0.38820112736E+02 -0.16600540263E+02 -0.19770344417E+02  0.46620227458E+02  0.00000000000E+00 0. -1.
         11    1    1    2    0    0 -0.21089788611E+02  0.73469301387E+02 -0.94274835553E+02  0.12136829095E+03  0.00000000000E+00 0.  1.
</event>
<event>
 7    1  0.2412631E-010  0.1593497E+03  0.7561462E-02  0.1189433E+00
          1   -1    0    0  501    0  0.00000000000E+00  0.00000000000E+00  0.19517382156E+04  0.19517382156E+04  0.00000000000E+00 0. -1.
         -1   -1    0    0    0  501 -0.00000000000E+00 -0.00000000000E+00 -0.19528053212E+02  0.19528053212E+02  0.00000000000E+00 0.  1.
         25    2    1    2    0    0 -0.13940024013E+03 -0.49134667698E+02  0.13698931738E+04  0.13835129082E+04  0.12511601528E+03 0.  0.
          5    1    3    3  502    0 -0.30181937873E+02  0.31470599934E+01  0.81369583257E+03  0.81427221106E+03  0.41800000000E+01 0. -1.
         -5    1    3    3    0  502 -0.10921830226E+03 -0.52281727691E+02  0.55619734118E+03  0.56924069718E+03  0.41800000000E+01 0. -1.
        -11    1    1    2    0    0  0.45681031348E+02  0.56783570629E+02  0.31091201724E+03  0.31933902515E+03  0.00000000000E+00 0. -1.
         11    1    1    2    0    0  0.93719208787E+02 -0.76489029320E+01  0.25140497135E+03  0.26841433537E+03  0.00000000000E+00 0.  1.
</event>
<event>
 7    1  0.2412631E-010  0.1143663E+03  0.7561462E-02  0.1252691E+00
          2   -1    0    0  501    0  0.00000000000E+00  0.00000000000E+00  0.61064193829E+03  0.61064193829E+03  0.00000000000E+00 0. -1.
         -2   -1    0    0    0  501 -0.00000000000E+00 -0.00000000000E+00 -0.28220130625E+02  0.28220130625E+02  0.00000000000E+00 0.  1.
         25    2    1    2    0    0  0.57693217791E+02  0.15870640544E+02  0.26638458730E+03  0.30032440468E+03  0.12511440798E+03 0.  0.
          5    1    3    3  502    0  0.10117247438E+02 -0.37595400111E+02  0.19594518054E+03  0.19981931584E+03  0.41800000000E+01 0.  1.
         -5    1    3    3    0  502  0.47575970354E+02  0.53466040655E+02  0.70439406760E+02  0.10050508884E+03  0.41800000000E+01 0.  1.
        -11    1    1    2    0    0 -0.84381183084E+02  0.42102721095E+01  0.18615475176E+03  0.20442969953E+03  0.00000000000E+00 0. -1.
         11    1    1    2    0    0  0.26687965293E+02 -0.20080912653E+02  0.12988246861E+03  0.13410796470E+03  0.00000000000E+00 0.  1.
</event>
<event>
 7    1  0.2412631E-010  0.1093228E+03  0.7561462E-02  0.1261829E+00
          1   -1    0    0  501    0  0.00000000000E+00  0.00000000000E+00  0.53164918598E+03  0.53164918598E+03  0.00000000000E+00 0. -1.
         -1   -1    0    0    0  501 -0.00000000000E+00 -0.00000000000E+00 -0.28625724619E+02  0.28625724619E+02  0.00000000000E+00 0.  1.
         25    2    1    2    0    0 -0.48284986590E+02  0.94693055103E+01  0.20892872941E+03  0.24846018867E+03  0.12514049588E+03 0.  0.
          5    1    3    3  502    0  0.13544511299E+02 -0.42477482381E+02  0.35635323036E+02  0.57228829655E+02  0.41800000000E+01 0.  1.
         -5    1    3    3    0  502 -0.61829497889E+02  0.51946787892E+02  0.17329340637E+03  0.19123135902E+03  0.41800000000E+01 0.  1.
        -11    1    1    2    0    0  0.64737851043E+02 -0.25921948800E+02  0.26767603079E+03  0.27661054616E+03  0.00000000000E+00 0. -1.
         11    1    1    2    0    0 -0.16452864453E+02  0.16452643289E+02  0.26418701162E+02  0.35204175761E+02  0.00000000000E+00 0.  1.
</event>
<event>
 7    1  0.2412631E-010  0.1365401E+03  0.7561462E-02  0.1218062E+00
          1   -1    0    0  501    0  0.00000000000E+00  0.00000000000E+00  0.34498292744E+03  0.34498292744E+03  0.00000000000E+00 0. -1.
         -1   -1    0    0    0  501 -0.00000000000E+00 -0.00000000000E+00 -0.91648429978E+02  0.91648429978E+02  0.00000000000E+00 0.  1.
         25    2    1    2    0    0  0.21758527759E+01  0.90334085629E+02  0.17690646519E+01  0.15434545660E+03  0.12511758078E+03 0.  0.
          5    1    3    3  502    0  0.57258729285E+02  0.56659864194E+02 -0.24826672431E+02  0.84396317182E+02  0.41800000000E+01 0. -1.
         -5    1    3    3    0  502 -0.55082876509E+02  0.33674221435E+02  0.26595737082E+02  0.69949139414E+02  0.41800000000E+01 0. -1.
        -11    1    1    2    0    0 -0.41097392558E+02 -0.16555507658E+02  0.97271592447E+02  0.10688705818E+03  0.00000000000E+00 0.  1.
         11    1    1    2    0    0  0.38921539782E+02 -0.73778577972E+02  0.15429384036E+03  0.17539884264E+03  0.00000000000E+00 0. -1.
</event>
<event>
 6    1  0.2412631E-010  0.1414875E+03  0.7561462E-02  0.1211341E+00
          2   -1    0    0  501    0  0.00000000000E+00  0.00000000000E+00  0.90628292586E+03  0.90628292586E+03  0.00000000000E+00 0. -1.
         -2   -1    0    0    0  501 -0.00000000000E+00 -0.00000000000E+00 -0.23971491703E+02  0.23971491703E+02  0.00000000000E+00 0.  1.
          5    1    1    2  502    0 -0.43512981153E+02 -0.12652567757E+02  0.12965213281E+03  0.13740674999E+03  0.41800000000E+01 0.  1.
         -5    1    1    2    0  502  0.80911240857E+02 -0.80034001289E+02  0.39804470006E+03  0.41401585224E+03  0.41800000000E+01 0.  1.
        -11    1    1    2    0    0 -0.60121563087E+01  0.91993462029E+02  0.18920807994E+03  0.21047242241E+03  0.00000000000E+00 0.  1.
         11    1    1    2    0    0 -0.31386103395E+02  0.69310701626E+00  0.16540652135E+03  0.16835939293E+03  0.00000000000E+00 0. -1.
</event>
<event>
 7    1  0.2412631E-010  0.7277528E+02  0.7561462E-02  0.1350902E+00
          1   -1    0    0  501    0  0.00000000000E+00  0.00000000000E+00  0.76060022841E+02  0.76060022841E+02  0.00000000000E+00 0. -1.
         -1   -1    0    0    0  501 -0.00000000000E+00 -0.00000000000E+00 -0.14905939115E+03  0.14905939115E+03  0.00000000000E+00 0.  1.
         25    2    1    2    0    0  0.20710453021E+02 -0.31490847543E+02 -0.28127223291E+02  0.13368833891E+03  0.12514325762E+03 0.  0.
          5    1    3    3  502    0  0.53902061035E+01  0.32072070419E+02 -0.54059378573E+02  0.63226266967E+02  0.41800000000E+01 0.  1.
         -5    1    3    3    0  502  0.15320246918E+02 -0.63562917962E+02  0.25932155283E+02  0.70462071947E+02  0.41800000000E+01 0.  1.
        -11    1    1    2    0    0 -0.22480345747E+02  0.82652592804E+01 -0.59353144141E+02  0.64003720011E+02  0.00000000000E+00 0.  1.
         11    1    1    2    0    0  0.17698927255E+01  0.23225588263E+02  0.14480999122E+02  0.27427355067E+02  0.00000000000E+00 0. -1.
</event>
<event>
 7    1  0.2412631E-010  0.1249731E+03  0.7561462E-02  0.1235111E+00
          2   -1    0    0  501    0  0.00000000000E+00  0.00000000000E+00  0.61087065856E+03  0.61087065856E+03  0.00000000000E+00 0. -1.
         -2   -1    0    0    0  501 -0.00000000000E+00 -0.00000000000E+00 -0.47752456300E+02  0.47752456300E+02  0.00000000000E+00 0.  1.
         25    2    1    2    0    0  0.82504328637E+02  0.39471098649E+02  0.48084247613E+03  0.50518675740E+03  0.12505695155E+03 0.  0.
          5    1    3    3  502    0  0.25811947620E+02  0.61866133273E+02  0.38979204139E+03  0.39553632326E+03  0.41800000000E+01 0.  1.
         -5    1    3    3    0  502  0.56692381017E+02 -0.22395034624E+02  0.91050434737E+02  0.10965043414E+03  0.41800000000E+01 0.  1.
        -11    1    1    2    0    0 -0.23724317180E+02 -0.55835927970E+02  0.14763780799E+02  0.62437675337E+02  0.00000000000E+00 0.  1.
         11    1    1    2    0    0 -0.58780011457E+02  0.16364829321E+02  0.67511945330E+02  0.90998682121E+02  0.00000000000E+00 0. -1.
</event>
<event>
 6    1  0.2412631E-010  0.2499629E+03  0.7561462E-02  0.1113328E+00
         -1   -1    0    0    0  501 -0.00000000000E+00  0.00000000000E+00  0.14963518974E+03  0.14963518974E+03  0.00000000000E+00 0.  1.
          1   -1    0    0  501    0  0.00000000000E+00 -0.00000000000E+00 -0.43735128264E+03  0.43735128264E+03  0.00000000000E+00 0. -1.
          5    1    1    2  502    0 -0.52339122429E+01 -0.16031812857E+02 -0.26275998360E+02  0.31501005550E+02  0.41800000000E+01 0.  1.
         -5    1    1    2    0  502  0.22359628777E+03  0.92443998179E+02 -0.13482978030E+03  0.27701576626E+03  0.41800000000E+01 0.  1.
        -11    1    1    2    0    0 -0.34610418196E+02  0.12019528164E+02  0.31316508531E+01  0.36771692129E+02  0.00000000000E+00 0.  1.
         11    1    1    2    0    0 -0.18375195733E+03 -0.88431713486E+02 -0.12974196510E+03  0.24169800843E+03  0.00000000000E+00 0. -1.
</event>
<event>
 7    1  0.2412631E-010  0.1825099E+03  0.7561462E-02  0.1165396E+00
          2   -1    0    0  501    0  0.00000000000E+00  0.00000000000E+00  0.85065004651E+03  0.85065004651E+03  0.00000000000E+00 0. -1.
         -2   -1    0    0    0  501 -0.00000000000E+00 -0.00000000000E+00 -0.50093554533E+02  0.50093554533E+02  0.00000000000E+00 0.  1.
         25    2    1    2    0    0 -0.16109272302E+03 -0.89619311300E+01  0.26679148320E+03  0.33593111443E+03  0.12506333001E+03 0.  0.
          5    1    3    3  502    0 -0.34592808510E+02  0.52450632767E+02  0.72022220287E+02  0.95668196875E+02  0.41800000000E+01 0. -1.
         -5    1    3    3    0  502 -0.12649991451E+03 -0.61412563897E+02  0.19476926291E+03  0.24026291755E+03  0.41800000000E+01 0. -1.
        -11    1    1    2    0    0  0.13590937688E+03  0.64890954963E+01  0.51664268043E+03  0.53425941857E+03  0.00000000000E+00 0.  1.
         11    1    1    2    0    0  0.25183346142E+02  0.24728356337E+01  0.17122328343E+02  0.30553068043E+02  0.00000000000E+00 0. -1.
</event>
<event>
 6    1  0.2412631E-010  0.1268847E+03  0.7561462E-02  0.1232153E+00
          2   -1    0    0  501    0  0.00000000000E+00  0.00000000000E+00  0.11405200353E+03  0.11405200353E+03  0.00000000000E+00 0. -1.
         -2   -1    0    0    0  501 -0.00000000000E+00 -0.00000000000E+00 -0.17491869723E+03  0.17491869723E+03  0.00000000000E+00 0.  1.
          5    1    1    2  502    0 -0.69257191850E+02 -0.18117069472E+02 -0.48009933318E+02  0.86297235914E+02  0.41800000000E+01 0. -1.
         -5    1    1    2    0  502 -0.15637658312E+02  0.52425300570E+02  0.35164636750E+02  0.65168800626E+02  0.41800000000E+01 0. -1.
        -11    1    1    2    0    0 -0.33983027627E+01 -0.38643969565E+02 -0.47505621021E+01  0.39082895053E+02  0.00000000000E+00 0. -1.
         11    1    1    2    0    0  0.88293152925E+02  0.43357384683E+01 -0.43270835025E+02  0.98421769164E+02  0.00000000000E+00 0.  1.
</event>
<event>
 7    1  0.2412631E-010  0.1369499E+03  0.7561462E-02  0.1217493E+00
         -2   -1    0    0    0  501 -0.00000000000E+00  0.00000000000E+00  0.46574817841E+02  0.46574817841E+02  0.00000000000E+00 0. -1.
          2   -1    0    0  501    0  0.00000000000E+00 -0.00000000000E+00 -0.59120441293E+03  0.59120441293E+03  0.00000000000E+00 0.  1.
         25    2    1    2    0    0  0.11090677824E+03 -0.24915229041E+02 -0.39570400200E+03  0.43028375988E+03  0.12506548174E+03 0.  0.
          5    1    3    3  502    0  0.12080198793E+03 -0.22470779575E+02 -0.20343970260E+03  0.23770410434E+03  0.41800000000E+01 0. -1.
         -5    1    3    3    0  502 -0.98952096910E+01 -0.24444494661E+01 -0.19226429939E+03  0.19257965554E+03  0.41800000000E+01 0. -1.
        -11    1    1    2    0    0 -0.10018001441E+03 -0.12554188165E+02 -0.12872665285E+03  0.16359765916E+03  0.00000000000E+00 0.  1.
         11    1    1    2    0    0 -0.10726763830E+02  0.37469417206E+02 -0.20198940238E+02  0.43897811731E+02  0.00000000000E+00 0. -1.
</event>
<event>
 7    1  0.2412631E-010  0.7716717E+02  0.7561462E-02  0.1337288E+00
         -2   -1    0    0    0  501 -0.00000000000E+00  0.00000000000E+00  0.17919224672E+03  0.17919224672E+03  0.00000000000E+00 0.  1.
          2   -1    0    0  501    0  0.00000000000E+00 -0.00000000000E+00 -0.73368986370E+02  0.73368986370E+02  0.00000000000E+00 0. -1.
         25    2    1    2    0    0  0.24419809094E+02  0.23283376173E+02  0.78892863495E+02  0.15170952744E+03  0.12511296545E+03 0.  0.
          5    1    3    3  502    0 -0.92735171424E+01 -0.13290151716E+02  0.97142761570E+02  0.98573905159E+02  0.41800000000E+01 0.  1.
         -5    1    3    3    0  502  0.33693326236E+02  0.36573527889E+02 -0.18249898076E+02  0.53135622278E+02  0.41800000000E+01 0.  1.
        -11    1    1    2    0    0  0.14882684277E+02  0.22737692369E+02 -0.11122006917E+02  0.29363173933E+02  0.00000000000E+00 0.  1.
         11    1    1    2    0    0 -0.39302493371E+02 -0.46021068542E+02  0.38052403777E+02  0.71488531724E+02  0.00000000000E+00 0. -1.
</event>
<event>
 6    1  0.2412631E-010  0.1437935E+03  0.7561462E-02  0.1208314E+00
          1   -1    0    0  501    0  0.00000000000E+00  0.00000000000E+00  0.61392518429E+03  0.61392518429E+03  0.00000000000E+00 0. -1.
         -1   -1    0    0    0  501 -0.00000000000E+00 -0.00000000000E+00 -0.42834940244E+02  0.42834940244E+02  0.00000000000E+00 0.  1.
          5    1    1    2  502    0 -0.86354504934E+01 -0.81772328676E+02  0.32361637117E+03  0.33392560973E+03  0.41800000000E+01 0. -1.
         -5    1    1    2    0  502  0.64533041663E+02 -0.10478169042E+02  0.88714935648E+02  0.11028199173E+03  0.41800000000E+01 0. -1.
        -11    1    1    2    0    0 -0.55199792123E+01  0.89094855552E+02  0.85644491220E+02  0.12370667861E+03  0.00000000000E+00 0. -1.
         11    1    1    2    0    0 -0.50377611957E+02  0.31556421659E+01  0.73114446007E+02  0.88845844466E+02  0.00000000000E+00 0.  1.
</event>
<event>
 7    1  0.2412631E-010  0.1409380E+03  0.7561462E-02  0.1212072E+00
         -1   -1    0    0    0  501 -0.00000000000E+00  0.00000000000E+00  0.36372655660E+02  0.36372655660E+02  0.00000000000E+00 0.  1.
          1   -1    0    0  501    0  0.00000000000E+00 -0.00000000000E+00 -0.95419232742E+03  0.95419232742E+03  0.00000000000E+00 0. -1.
         25    2    1    2    0    0 -0.34759229636E+02 -0.95593062833E+02 -0.77169605570E+03  0.78836203463E+03  0.12511457773E+03 0.  0.
          5    1    3    3  502    0  0.38304735580E+02 -0.74335536265E+02 -0.45374685666E+03  0.46140731144E+03  0.41800000000E+01 0.  1.
         -5    1    3    3    0  502 -0.73063965215E+02 -0.21257526567E+02 -0.31794919903E+03  0.32695472319E+03  0.41800000000E+01 0.  1.
        -11    1    1    2    0    0 -0.17094968188E+02  0.50173579082E+02 -0.11488159204E+03  0.12652037846E+03  0.00000000000E+00 0. -1.
         11    1    1    2    0    0  0.51854197824E+02  0.45419483751E+02 -0.31242024026E+02  0.75682569997E+02  0.00000000000E+00 0.  1.
</event>
<event>
 7    1  0.2412631E-010  0.1062639E+03  0.7561462E-02  0.1267649E+00
         -1   -1    0    0    0  501 -0.00000000000E+00  0.00000000000E+00  0.27025086002E+03  0.27025086002E+03  0.00000000000E+00 0.  1.
          1   -1    0    0  501    0  0.00000000000E+00 -0.00000000000E+00 -0.45940236657E+02  0.45940236657E+02  0.00000000000E+00 0. -1.
         25    2    1    2    0    0 -0.27068846170E+02  0.12502095494E-01  0.12786680588E+03  0.18093130115E+03  0.12511392049E+03 0.  0.
          5    1    3    3  502    0  0.40001888720E+02  0.23736336897E+02  0.87097624709E+02  0.98828302730E+02  0.41800000000E+01 0. -1.
         -5    1    3    3    0  502 -0.67070734890E+02 -0.23723834802E+02  0.40769181169E+02  0.82102998420E+02  0.41800000000E+01 0. -1.
        -11    1    1    2    0    0 -0.16199992173E+02 -0.35226799123E+02  0.44658139068E+02  0.59141495652E+02  0.00000000000E+00 0.  1.
         11    1    1    2    0    0  0.43268838343E+02  0.35214297028E+02  0.51785678416E+02  0.76118299874E+02  0.00000000000E+00 0. -1.
</event>
<event>
 7    1  0.2412631E-010  0.1205018E+03  0.7561462E-02  0.1242272E+00
          2   -1    0    0  501    0  0.00000000000E+00  0.00000000000E+00  0.24269302083E+03  0.24269302083E+03  0.00000000000E+00 0. -1.
         -2   -1    0    0    0  501 -0.00000000000E+00 -0.00000000000E+00 -0.68811434577E+02  0.68811434577E+02  0.00000000000E+00 0.  1.
         25    2    1    2    0    0  0.25492563896E+02  0.64851443594E+02  0.10017086287E+03  0.17471448747E+03  0.12504147238E+03 0.  0.
          5    1    3    3  502    0  0.45744959061E+02  0.94995200811E+02  0.64679063750E+02  0.12376406241E+03  0.41800000000E+01 0. -1.
         -5    1    3    3    0  502 -0.20252395165E+02 -0.30143757217E+02  0.35491799121E+02  0.50950425061E+02  0.41800000000E+01 0. -1.
        -11    1    1    2    0    0 -0.47981092254E+02 -0.27422803584E+02  0.74932447622E+02  0.93107825004E+02  0.00000000000E+00 0. -1.
         11    1    1    2    0    0  0.22488528359E+02 -0.37428640011E+02 -0.12217242429E+01  0.43682142930E+02  0.00000000000E+00 0.  1.
</event>
<event>
 6    1  0.2412631E-010  0.2028810E+03  0.7561462E-02  0.1147331E+00
         -2   -1    0    0    0  501 -0.00000000000E+00  0.00000000000E+00  0.40471363027E+02  0.40471363027E+02  0.00000000000E+00 0.  1.
          2   -1    0    0  501    0  0.00000000000E+00 -0.00000000000E+00 -0.12377423597E+04  0.12377423597E+04  0.00000000000E+00 0. -1.
          5    1    1    2  502    0 -0.87357192637E+02  0.32286465480E+02 -0.53577692711E+03  0.54382725473E+03  0.41800000000E+01 0. -1.
         -5    1    1    2    0  502 -0.82198648437E+02  0.59151746686E+02 -0.16488050416E+03  0.19354224344E+03  0.41800000000E+01 0. -1.
        -11    1    1    2    0    0  0.20090654647E+02  0.17164694442E+02 -0.97923565753E+02  0.10142625828E+03  0.00000000000E+00 0. -1.
         11    1    1    2    0    0  0.14946518643E+03 -0.10860290661E+03 -0.39868999968E+03  0.43941796632E+03  0.00000000000E+00 0.  1.
</event>
<event>
 6    1  0.2412631E-010  0.5714185E+02  0.7561462E-02  0.1410233E+00
         -1   -1    0    0    0  501 -0.00000000000E+00  0.00000000000E+00  0.21614596228E+03  0.21614596228E+03  0.00000000000E+00 0.  1.
          1   -1    0    0  501    0  0.00000000000E+00 -0.00000000000E+00 -0.72868120408E+02  0.72868120408E+02  0.00000000000E+00 0. -1.
          5    1    1    2  502    0  0.32396177171E+02 -0.22972510871E+02  0.14214962670E+03  0.14765242064E+03  0.41800000000E+01 0. -1.
         -5    1    1    2    0  502  0.16065808486E+02 -0.34554186802E+01 -0.26445997034E+02  0.31415175945E+02  0.41800000000E+01 0. -1.
        -11    1    1    2    0    0 -0.24446139246E+02  0.44682122903E+01  0.59424486779E+02  0.64411553886E+02  0.00000000000E+00 0.  1.
         11    1    1    2    0    0 -0.24015846410E+02  0.21959717261E+02 -0.31850274575E+02  0.45534932211E+02  0.00000000000E+00 0. -1.
</event>
<event>
 7    1  0.2412631E-010  0.1065195E+03  0.7561462E-02  0.1267154E+00
         -1   -1    0    0    0  501 -0.00000000000E+00  0.00000000000E+00  0.20694815998E+03  0.20694815998E+03  0.00000000000E+00 0.  1.
          1   -1    0    0  501    0  0.00000000000E+00 -0.00000000000E+00 -0.71131976420E+02  0.71131976420E+02  0.00000000000E+00 0. -1.
         25    2    1    2    0    0  0.57125590416E+01 -0.36421876602E+02  0.30148166278E+02  0.13382542231E+03  0.12506456453E+03 0.  0.
          5    1    3    3  502    0 -0.31646972626E+02 -0.67067608793E+02 -0.41965205242E+01  0.74395417937E+02  0.41800000000E+01 0. -1.
         -5    1    3    3    0  502  0.37359531668E+02  0.30645732191E+02  0.34344686802E+02  0.59430004371E+02  0.41800000000E+01 0. -1.
        -11    1    1    2    0    0  0.38435856822E+02  0.16660722234E+02  0.21277792640E+02  0.46985521330E+02  0.00000000000E+00 0. -1.
         11    1    1    2    0    0 -0.44148415864E+02  0.19761154368E+02  0.84390224641E+02  0.97269192760E+02  0.00000000000E+00 0.  1.
</event>
<event>
 7    1  0.3938593E-010  0.1912299E+03  0.7561462E-02  0.1157357E+00
         -2   -1    0    0    0  501 -0.00000000000E+00  0.00000000000E+00  0.11362753177E+03  0.11362753177E+03  0.00000000000E+00 0.  1.
          2   -1    0    0  501    0  0.00000000000E+00 -0.00000000000E+00 -0.34747619844E+03  0.34747619844E+03  0.00000000000E+00 0. -1.
         25    2    1    2    0    0  0.60239990130E+02 -0.15495059287E+03 -0.12819567244E+03  0.24436534672E+03  0.12506698046E+03 0.  0.
          5    1    3    3  502    0  0.58069980062E+02 -0.17468748936E+03 -0.12767533136E+03  0.22406763301E+03  0.41800000000E+01 0. -1.
         -5    1    3    3    0  502  0.21700100686E+01  0.19736896492E+02 -0.52034107798E+00  0.20297713706E+02  0.41800000000E+01 0. -1.
        -11    1    1    2    0    0 -0.53981691453E+02  0.52195510399E+02 -0.91699382690E+01  0.75647089076E+02  0.00000000000E+00 0.  1.
         11    1    1    2    0    0 -0.62582986777E+01  0.10275508247E+03 -0.96483055959E+02  0.14109129443E+03  0.00000000000E+00 0. -1.
</event>
<event>
 7    1  0.2412631E-010  0.1508421E+03  0.7561462E-02  0.1199442E+00
         -3   -1    0    0    0  501 -0.00000000000E+00  0.00000000000E+00  0.34137506281E+03  0.34137506281E+03  0.00000000000E+00 0.  1.
          3   -1    0    0  501    0  0.00000000000E+00 -0.00000000000E+00 -0.10009327498E+03  0.10009327498E+03  0.00000000000E+00 0. -1.
         25    2    1    2    0    0  0.13218036882E+03 -0.88467162023E+01  0.51144426103E+02  0.18926137354E+03  0.12511674910E+03 0.  0.
          5    1    3    3  502    0  0.63222811654E+02 -0.21585880734E+02 -0.37051731965E+02  0.76507368286E+02  0.41800000000E+01 0.  1.
         -5    1    3    3    0  502  0.68957557163E+02  0.12739164532E+02  0.88196158068E+02  0.11275400525E+03  0.41800000000E+01 0.  1.
        -11    1    1    2    0    0 -0.13621704707E+03  0.32879468997E+02  0.15016243473E+03  0.20538963021E+03  0.00000000000E+00 0. -1.
         11    1    1    2    0    0  0.40366782558E+01 -0.24032752794E+02  0.39974926991E+02  0.46817334035E+02  0.00000000000E+00 0.  1.
</event>
<event>
 6    1  0.2412631E-010  0.1976460E+03  0.7561462E-02  0.1151740E+00
         -1   -1    0    0    0  501 -0.00000000000E+00  0.00000000000E+00  0.27167280660E+02  0.27167280660E+02  0.00000000000E+00 0.  1.
          1   -1    0    0  501    0  0.00000000000E+00 -0.00000000000E+00 -0.18946813246E+04  0.18946813246E+04  0.00000000000E+00 0. -1.
          5    1    1    2  502    0 -0.92803102372E+01  0.27151486369E+02 -0.55746896265E+03  0.55822257576E+03  0.41800000000E+01 0. -1.
         -5    1    1    2    0  502 -0.14467870625E+03  0.79660697243E+02 -0.69566740128E+03  0.71501633571E+03  0.41800000000E+01 0. -1.
        -11    1    1    2    0    0  0.13167400890E+03 -0.51388131730E+02 -0.49969947324E+03  0.51930564051E+03  0.00000000000E+00 0. -1.
         11    1    1    2    0    0  0.22285007581E+02 -0.55424051882E+02 -0.11467820681E+03  0.12930405333E+03  0.00000000000E+00 0.  1.
</event>
<event>
 7    1  0.2412631E-010  0.8994280E+02  0.7561462E-02  0.1302990E+00
          2   -1    0    0  501    0  0.00000000000E+00  0.00000000000E+00  0.61731546152E+02  0.61731546152E+02  0.00000000000E+00 0. -1.
         -2   -1    0    0    0  501 -0.00000000000E+00 -0.00000000000E+00 -0.21091410396E+03  0.21091410396E+03  0.00000000000E+00 0.  1.
         25    2    1    2    0    0 -0.16933934773E+02 -0.23776706536E+02 -0.12129238223E+03  0.17664996467E+03  0.12506509549E+03 0.  0.
          5    1    3    3  502    0 -0.52724263839E+02 -0.42836086542E+02 -0.11739860174E+03  0.13570070891E+03  0.41800000000E+01 0.  1.
         -5    1    3    3    0  502  0.35790329066E+02  0.19059380006E+02 -0.38937804914E+01  0.40949255761E+02  0.41800000000E+01 0.  1.
        -11    1    1    2    0    0  0.41812724035E+02  0.11776206752E+02  0.14156313031E+02  0.45687899222E+02  0.00000000000E+00 0. -1.
         11    1    1    2    0    0 -0.24878789262E+02  0.12000499784E+02 -0.42046488607E+02  0.50307786220E+02  0.00000000000E+00 0.  1.
</event>
<event>
 6    1  0.2412631E-010  0.1049357E+03  0.7561462E-02  0.1270246E+00
         -1   -1    0    0    0  501 -0.00000000000E+00  0.00000000000E+00  0.14761242057E+03  0.14761242057E+03  0.00000000000E+00 0.  1.
          1   -1    0    0  501    0  0.00000000000E+00 -0.00000000000E+00 -0.11167899217E+03  0.11167899217E+03  0.00000000000E+00 0. -1.
          5    1    1    2  502    0  0.57940264937E+02 -0.13569666897E+01 -0.18270466770E+02  0.60911394793E+02  0.41800000000E+01 0.  1.
         -5    1    1    2    0  502 -0.66162744578E+02  0.10913222055E+02 -0.30985111731E+02  0.73987544457E+02  0.41800000000E+01 0.  1.
        -11    1    1    2    0    0  0.43722608492E+02  0.88203396638E+01  0.22283011342E+02  0.49859778174E+02  0.00000000000E+00 0. -1.
         11    1    1    2    0    0 -0.35500128851E+02 -0.18376595029E+02  0.62905995556E+02  0.74532695310E+02  0.00000000000E+00 0.  1.
</event>
<event>
 7    1  0.2412631E-010  0.1363568E+03  0.7561462E-02  0.1218317E+00
         -3   -1    0    0    0  501 -0.00000000000E+00  0.00000000000E+00  0.20016001953E+03  0.20016001953E+03  0.00000000000E+00 0.  1.
          3   -1    0    0  501    0  0.00000000000E+00 -0.00000000000E+00 -0.11895044932E+03  0.11895044932E+03  0.00000000000E+00 0. -1.
         25    2    1    2    0    0 -0.10866661723E+03 -0.77836021578E+01  0.31076675613E+02  0.16880185465E+03  0.12513707765E+03 0.  0.
          5    1    3    3  502    0 -0.18884411360E+01  0.43755973574E+02  0.23602468376E+02  0.49926950105E+02  0.41800000000E+01 0.  1.
         -5    1    3    3    0  502 -0.10677817609E+03 -0.51539575732E+02  0.74742072369E+01  0.11887490454E+03  0.41800000000E+01 0.  1.
        -11    1    1    2    0    0  0.72749959088E+02  0.12622696934E+02 -0.15396626302E+02  0.75425096133E+02  0.00000000000E+00 0. -1.
         11    1    1    2    0    0  0.35916658140E+02 -0.48390947766E+01  0.65529520891E+02  0.74883518069E+02  0.00000000000E+00 0.  1.
</event>
<event>
 6    1  0.2412631E-010  0.1571194E+03  0.7561462E-02  0.1191988E+00
         -4   -1    0    0    0  501 -0.00000000000E+00  0.00000000000E+00  0.48177507075E+03  0.48177507075E+03  0.00000000000E+00 0. -1.
          4   -1    0    0  501    0  0.00000000000E+00 -0.00000000000E+00 -0.91245885823E+02  0.91245885823E+02  0.00000000000E+00 0.  1.
          5    1    1    2  502    0 -0.26716738344E+02  0.85651041080E+01  0.72568447819E+02  0.77915320284E+02  0.41800000000E+01 0. -1.
         -5    1    1    2    0  502 -0.67928344366E+02  0.10067174313E+03 -0.13317782530E+02  0.12224522716E+03  0.41800000000E+01 0. -1.
        -11    1    1    2    0    0  0.67122021303E+02 -0.18628602431E+02  0.91045776456E+02  0.11463735858E+03  0.00000000000E+00 0.  1.
         11    1    1    2    0    0  0.27523061407E+02 -0.90608244804E+02  0.24023274319E+03  0.25822305055E+03  0.00000000000E+00 0. -1.
</event>
<event>
 6    1  0.2412631E-010  0.9730028E+02  0.7561462E-02  0.1286078E+00
          2   -1    0    0  501    0  0.00000000000E+00  0.00000000000E+00  0.26536092485E+03  0.26536092485E+03  0.00000000000E+00 0. -1.
         -2   -1    0    0    0  501 -0.00000000000E+00 -0.00000000000E+00 -0.67005812450E+02  0.67005812450E+02  0.00000000000E+00 0.  1.
          5    1    1    2  502    0  0.13677456752E+02 -0.15190287968E+02  0.10168101036E+03  0.10379941203E+03  0.41800000000E+01 0.  1.
         -5    1    1    2    0  502 -0.65537249882E+02 -0.41703385080E+02  0.53159818509E+01  0.77974582476E+02  0.41800000000E+01 0.  1.
        -11    1    1    2    0    0 -0.20219350966E+01  0.39169681289E+02 -0.42225662927E+01  0.39448475508E+02  0.00000000000E+00 0.  1.
         11    1    1    2    0    0  0.53881728227E+02  0.17723991759E+02  0.95580686485E+02  0.11114426728E+03  0.00000000000E+00 0. -1.
</event>
<event>
 7    1  0.2412631E-010  0.1441381E+03  0.7561462E-02  0.1207867E+00
          2   -1    0    0  501    0  0.00000000000E+00  0.00000000000E+00  0.99633761223E+03  0.99633761223E+03  0.00000000000E+00 0.  1.
         -2   -1    0    0    0  501 -0.00000000000E+00 -0.00000000000E+00 -0.32649195707E+02  0.32649195707E+02  0.00000000000E+00 0. -1.
         25    2    1    2    0    0  0.59879744826E+02 -0.12832881354E+03  0.55358578199E+03  0.58493727070E+03  0.12506208220E+03 0.  0.
          5    1    3    3  502    0  0.26659387980E+02 -0.82294760691E+02  0.12200608942E+03  0.14961988123E+03  0.41800000000E+01 0.  1.
         -5    1    3    3    0  502  0.33220356846E+02 -0.46034052850E+02  0.43157969257E+03  0.43531738947E+03  0.41800000000E+01 0.  1.
        -11    1    1    2    0    0 -0.10042161121E+02  0.56109735918E+02  0.28860032699E+03  0.29417562136E+03  0.00000000000E+00 0.  1.
         11    1    1    2    0    0 -0.49837583705E+02  0.72219077623E+02  0.12150230754E+03  0.14987391588E+03  0.00000000000E+00 0. -1.
</event>
<event>
 7    1  0.2412631E-010  0.1309702E+03  0.7561462E-02  0.1226023E+00
         -3   -1    0    0    0  501 -0.00000000000E+00  0.00000000000E+00  0.51978105653E+02  0.51978105653E+02  0.00000000000E+00 0.  1.
          3   -1    0    0  501    0  0.00000000000E+00 -0.00000000000E+00 -0.36739451235E+03  0.36739451235E+03  0.00000000000E+00 0. -1.
         25    2    1    2    0    0  0.40056285021E+01  0.84165002673E+02 -0.16617664335E+03  0.22442821761E+03  0.12511416919E+03 0.  0.
          5    1    3    3  502    0 -0.59162834643E+02  0.36301461327E+02 -0.95647756271E+02  0.11825397574E+03  0.41800000000E+01 0. -1.
         -5    1    3    3    0  502  0.63168463145E+02  0.47863541346E+02 -0.70528887074E+02  0.10617424188E+03  0.41800000000E+01 0. -1.
        -11    1    1    2    0    0  0.13056782383E+02  0.10557788419E+02  0.66143118803E+00  0.16804283791E+02  0.00000000000E+00 0.  1.
         11    1    1    2    0    0 -0.17062410885E+02 -0.94722791093E+02 -0.14990119454E+03  0.17814011660E+03  0.00000000000E+00 0. -1.
</event>
<event>
 7    1  0.2412631E-010  0.1892331E+03  0.7561462E-02  0.1159155E+00
          3   -1    0    0  501    0  0.00000000000E+00  0.00000000000E+00  0.52840779490E+02  0.52840779490E+02  0.00000000000E+00 0. -1.
         -3   -1    0    0    0  501 -0.00000000000E+00 -0.00000000000E+00 -0.83240175194E+03  0.83240175194E+03  0.00000000000E+00 0.  1.
         25    2    1    2    0    0  0.13140715452E+03  0.86814741204E+02 -0.22554098626E+03  0.30220235391E+03  0.12511149700E+03 0.  0.
          5    1    3    3  502    0  0.10675841929E+03  0.11899555095E+03 -0.18773154949E+03  0.24661287134E+03  0.41800000000E+01 0. -1.
         -5    1    3    3    0  502  0.24648735227E+02 -0.32180809749E+02 -0.37809436762E+02  0.55589482572E+02  0.41800000000E+01 0. -1.
        -11    1    1    2    0    0 -0.17982804272E+02 -0.58060848687E+02 -0.13625291328E+03  0.14919550856E+03  0.00000000000E+00 0.  1.
         11    1    1    2    0    0 -0.11342435024E+03 -0.28753892517E+02 -0.41776707292E+03  0.43384466895E+03  0.00000000000E+00 0. -1.
</event>
<event>
 7    1  0.2412631E-010  0.8434841E+02  0.7561462E-02  0.1317145E+00
         -1   -1    0    0    0  501 -0.00000000000E+00  0.00000000000E+00  0.62789830271E+02  0.62789830271E+02  0.00000000000E+00 0.  1.
          1   -1    0    0  501    0  0.00000000000E+00 -0.00000000000E+00 -0.25941447734E+03  0.25941447734E+03  0.00000000000E+00 0. -1.
         25    2    1    2    0    0 -0.57502941301E+02  0.17965077904E+02 -0.74825581486E+02  0.15776346518E+03  0.12514436072E+03 0.  0.
          5    1    3    3  502    0 -0.72522209849E+02  0.33557418143E+02 -0.97502603341E+02  0.12613406079E+03  0.41800000000E+01 0.  1.
         -5    1    3    3    0  502  0.15019268547E+02 -0.15592340238E+02  0.22677021855E+02  0.31629404390E+02  0.41800000000E+01 0.  1.
        -11    1    1    2    0    0  0.36519658829E+01 -0.11887301533E+02  0.13702457136E+02  0.18504111006E+02  0.00000000000E+00 0.  1.
         11    1    1    2    0    0  0.53850975418E+02 -0.60777763716E+01 -0.13550152272E+03  0.14593673142E+03  0.00000000000E+00 0. -1.
</event>
<event>
 7    1  0.2412631E-010  0.1080395E+03  0.7561462E-02  0.1264244E+00
          2   -1    0    0  501    0  0.00000000000E+00  0.00000000000E+00  0.38335101066E+03  0.38335101066E+03  0.00000000000E+00 0. -1.
         -2   -1    0    0    0  501 -0.00000000000E+00 -0.00000000000E+00 -0.49659800079E+02  0.49659800079E+02  0.00000000000E+00 0.  1.
         25    2    1    2    0    0 -0.54236609240E+02 -0.65234950449E+02  0.17056998558E+03  0.22788275794E+03  0.12505687844E+03 0.  0.
          5    1    3    3  502    0 -0.27510467231E+02 -0.89984186953E+02  0.16610007209E+03  0.19094681474E+03  0.41800000000E+01 0. -1.
         -5    1    3    3    0  502 -0.26726142009E+02  0.24749236504E+02  0.44699134899E+01  0.36935943210E+02  0.41800000000E+01 0. -1.
        -11    1    1    2    0    0  0.23153420553E+02  0.34213855256E+02  0.57082920530E+01  0.41704356762E+02  0.00000000000E+00 0. -1.
         11    1    1    2    0    0  0.31083188687E+02  0.31021095193E+02  0.15741293295E+03  0.16342369603E+03  0.00000000000E+00 0.  1.
</event>
<event>
 6    1  0.2412631E-010  0.1395805E+03  0.7561462E-02  0.1213895E+00
          2   -1    0    0  501    0  0.00000000000E+00  0.00000000000E+00  0.13208385144E+04  0.13208385144E+04  0.00000000000E+00 0. -1.
         -2   -1    0    0    0  501 -0.00000000000E+00 -0.00000000000E+00 -0.21695320854E+02  0.21695320854E+02  0.00000000000E+00 0.  1.
          5    1    1    2  502    0  0.61090564137E+02 -0.96913277077E+02  0.82126105296E+03  0.82922338957E+03  0.41800000000E+01 0.  1.
         -5    1    1    2    0  502  0.28682623632E+02  0.30961467305E+02  0.13175764102E+03  0.13841551113E+03  0.41800000000E+01 0.  1.
        -11    1    1    2    0    0 -0.82523264730E+02  0.33840903351E+02  0.32188626618E+03  0.33401506600E+03  0.00000000000E+00 0. -1.
         11    1    1    2    0    0 -0.72499230392E+01  0.32110906422E+02  0.24238233407E+02  0.40879868566E+02  0.00000000000E+00 0.  1.
</event>
<event>
 7    1  0.2412631E-010  0.1390613E+03  0.7561462E-02  0.1214598E+00
          3   -1    0    0  501    0  0.00000000000E+00  0.00000000000E+00  0.50935151819E+03  0.50935151819E+03  0.00000000000E+00 0.  1.
         -3   -1    0    0    0  501 -0.00000000000E+00 -0.00000000000E+00 -0.92131813767E+02  0.92131813767E+02  0.00000000000E+00 0. -1.
         25    2    1    2    0    0  0.67012508637E+02  0.77610610809E+02  0.42959784378E+03  0.45904770911E+03  0.12512557147E+03 0.  0.
          5    1    3    3  502    0  0.83651050127E+02  0.10614460219E+02  0.16226223624E+03  0.18291164715E+03  0.41800000000E+01 0. -1.
         -5    1    3    3    0  502 -0.16638541490E+02  0.66996150590E+02  0.26733560753E+03  0.27613606196E+03  0.41800000000E+01 0. -1.
        -11    1    1    2    0    0 -0.62226131780E+02 -0.91044800780E+02  0.15265910426E+02  0.11132966921E+03  0.00000000000E+00 0.  1.
         11    1    1    2    0    0 -0.47863768564E+01  0.13434189971E+02 -0.27644049780E+02  0.31105953640E+02  0.00000000000E+00 0. -1.
</event>
<event>
 6    1  0.2412631E-010  0.1203637E+03  0.7561462E-02  0.1242498E+00
         -2   -1    0    0    0  501 -0.00000000000E+00  0.00000000000E+00  0.23244890260E+02  0.23244890260E+02  0.00000000000E+00 0. -1.
          2   -1    0    0  501    0  0.00000000000E+00 -0.00000000000E+00 -0.11974354765E+04  0.11974354765E+04  0.00000000000E+00 0.  1.
          5    1    1    2  502    0  0.58368223643E+02 -0.83459461708E+02 -0.76155026944E+03  0.76834147133E+03  0.41800000000E+01 0. -1.
         -5    1    1    2    0  502 -0.11993161267E+02  0.36866472589E+02 -0.25228038712E+03  0.25527600522E+03  0.41800000000E+01 0. -1.
        -11    1    1    2    0    0 -0.24572661030E+02 -0.18756869402E+02 -0.11407798038E+02  0.32951080042E+02  0.00000000000E+00 0. -1.
         11    1    1    2    0    0 -0.21802401346E+02  0.65349858521E+02 -0.14895213160E+03  0.16411181012E+03  0.00000000000E+00 0.  1.
</event>
<event>
 7    1  0.2412631E-010  0.1358345E+03  0.7561462E-02  0.1219046E+00
          1   -1    0    0  501    0  0.00000000000E+00  0.00000000000E+00  0.12607960743E+03  0.12607960743E+03  0.00000000000E+00 0. -1.
         -1   -1    0    0    0  501 -0.00000000000E+00 -0.00000000000E+00 -0.17464367223E+03  0.17464367223E+03  0.00000000000E+00 0.  1.
         25    2    1    2    0    0 -0.44100466529E+02 -0.80219695712E+02 -0.65628339888E+02  0.16834526019E+03  0.12511193750E+03 0.  0.
          5    1    3    3  502    0 -0.18952805665E+02  0.28918430245E+02  0.59926593412E+01  0.35339338086E+02  0.41800000000E+01 0.  1.
         -5    1    3    3    0  502 -0.25147660864E+02 -0.10913812596E+03 -0.71620999229E+02  0.13300592210E+03  0.41800000000E+01 0.  1.
        -11    1    1    2    0    0  0.41417389635E+02 -0.29783584060E+01 -0.13559717884E+02  0.43682224441E+02  0.00000000000E+00 0.  1.
         11    1    1    2    0    0  0.26830768935E+01  0.83198054118E+02  0.30623992964E+02  0.88695795029E+02  0.00000000000E+00 0. -1.
</event>
<event>
 7    1  0.2412631E-010  0.1015381E+03  0.7561462E-02  0.1277094E+00
          1   -1    0    0  501    0  0.00000000000E+00  0.00000000000E+00  0.83609913862E+02  0.83609913862E+02  0.00000000000E+00 0. -1.
         -1   -1    0    0    0  501 -0.00000000000E+00 -0.00000000000E+00 -0.24408524532E+03  0.24408524532E+03  0.00000000000E+00 0.  1.
         25    2    1    2    0    0  0.49571708844E+02  0.20295268625E+02 -0.17292634222E+03  0.22002933604E+03  0.12506053189E+03 0.  0.
          5    1    3    3  502    0 -0.79414101005E+01  0.63301818593E+02 -0.75762910662E+02  0.99134642096E+02  0.41800000000E+01 0.  1.
         -5    1    3    3    0  502  0.57513118945E+02 -0.43006549968E+02 -0.97163431559E+02  0.12089469394E+03  0.41800000000E+01 0.  1.
        -11    1    1    2    0    0 -0.21296413217E+02  0.11868366388E+02 -0.35696968993E+02  0.43228103496E+02  0.00000000000E+00 0.  1.
         11    1    1    2    0    0 -0.28275295627E+02 -0.32163635013E+02  0.48147979750E+02  0.64437719653E+02  0.00000000000E+00 0. -1.
</event>
<event>
 7    1  0.2412631E-010  0.1090818E+03  0.7561462E-02  0.1262280E+00
         -2   -1    0    0    0  501 -0.00000000000E+00  0.00000000000E+00  0.49284837484E+02  0.49284837484E+02  0.00000000000E+00 0.  1.
          2   -1    0    0  501    0  0.00000000000E+00 -0.00000000000E+00 -0.61812297204E+03  0.61812297204E+03  0.00000000000E+00 0. -1.
         25    2    1    2    0    0 -0.25232941886E+02 -0.62854043922E+02 -0.76034885589E+02  0.16132388620E+03  0.12512697646E+03 0.  0.
          5    1    3    3  502    0 -0.58028588291E+02 -0.39306035002E+02  0.53117897297E+01  0.70412846533E+02  0.41800000000E+01 0. -1.
         -5    1    3    3    0  502  0.32795646406E+02 -0.23548008920E+02 -0.81346675319E+02  0.90911039663E+02  0.41800000000E+01 0. -1.
        -11    1    1    2    0    0  0.41013703963E+02 -0.15591928516E+01 -0.10660617688E+03  0.11423411025E+03  0.00000000000E+00 0.  1.
         11    1    1    2    0    0 -0.15780762077E+02  0.64413236774E+02 -0.38619707208E+03  0.39184981308E+03  0.00000000000E+00 0. -1.
</event>
<event>
 7    1  0.2412631E-010  0.6787932E+02  0.7561462E-02  0.1367457E+00
          1   -1    0    0  501    0  0.00000000000E+00  0.00000000000E+00  0.55118923808E+02  0.55118923808E+02  0.00000000000E+00 0. -1.
         -1   -1    0    0    0  501 -0.00000000000E+00 -0.00000000000E+00 -0.23573438205E+03  0.23573438205E+03  0.00000000000E+00 0.  1.
         25    2    1    2    0    0 -0.27109679119E+02 -0.20439356117E+02 -0.10667835205E+03  0.16789483468E+03  0.12512275067E+03 0.  0.
          5    1    3    3  502    0  0.34405341404E+02  0.98124230511E+00  0.83266741484E+01  0.35658046160E+02  0.41800000000E+01 0. -1.
         -5    1    3    3    0  502 -0.61515020523E+02 -0.21420598422E+02 -0.11500502620E+03  0.13223678852E+03  0.41800000000E+01 0. -1.
        -11    1    1    2    0    0  0.16298526150E+02  0.18797493255E+02 -0.95550399815E+02  0.98736348992E+02  0.00000000000E+00 0.  1.
         11    1    1    2    0    0  0.10811152969E+02  0.16418628614E+01  0.21613293622E+02  0.24222122189E+02  0.00000000000E+00 0. -1.
</event>
<event>
 7    1  0.2412631E-010  0.1249399E+03  0.7561462E-02  0.1235163E+00
         -1   -1    0    0    0  501 -0.00000000000E+00  0.00000000000E+00  0.47272960938E+03  0.47272960938E+03  0.00000000000E+00 0.  1.
          1   -1    0    0  501    0  0.00000000000E+00 -0.00000000000E+00 -0.48548791648E+02  0.48548791648E+02  0.00000000000E+00 0. -1.
         25    2    1    2    0    0  0.76650125011E+02  0.38923037367E+02  0.33492481983E+03  0.36772093119E+03  0.12511516215E+03 0.  0.
          5    1    3    3  502    0  0.99104935858E+01  0.63030546338E+02  0.24438260185E+03  0.25260917667E+03  0.41800000000E+01 0. -1.
         -5    1    3    3    0  502  0.66739631425E+02 -0.24107508971E+02  0.90542217980E+02  0.11511175452E+03  0.41800000000E+01 0. -1.
        -11    1    1    2    0    0 -0.65662502228E+02  0.84684168036E+01  0.20454492606E+02  0.69294044115E+02  0.00000000000E+00 0.  1.
         11    1    1    2    0    0 -0.10987622783E+02 -0.47391454171E+02  0.68801505302E+02  0.84263425724E+02  0.00000000000E+00 0. -1.
</event>
<event>
 7    1  0.2412631E-010  0.9539887E+02  0.7561462E-02  0.1290280E+00
          2   -1    0    0  501    0  0.00000000000E+00  0.00000000000E+00  0.42663169094E+02  0.42663169094E+02  0.00000000000E+00 0. -1.
         -2   -1    0    0    0  501 -0.00000000000E+00 -0.00000000000E+00 -0.39566437098E+03  0.39566437098E+03  0.00000000000E+00 0.  1.
         25    2    1    2    0    0  0.50531801393E+02 -0.40834105173E+02 -0.14562181521E+03  0.20269162570E+03  0.12512911318E+03 0.  0.
          5    1    3    3  502    0  0.14951331482E+01 -0.35417302287E+02 -0.14885464804E+03  0.15307448960E+03  0.41800000000E+01 0. -1.
         -5    1    3    3    0  502  0.49036668245E+02 -0.54168028866E+01  0.32328328312E+01  0.49617136095E+02  0.41800000000E+01 0. -1.
        -11    1    1    2    0    0 -0.53857932650E+02 -0.98900803088E+01 -0.68191915957E+02  0.87456434868E+02  0.00000000000E+00 0. -1.
         11    1    1    2    0    0  0.33261312570E+01  0.50724185482E+02 -0.13918747072E+03  0.14817947951E+03  0.00000000000E+00 0.  1.
</event>
<event>
 7    1  0.2412631E-010  0.1457907E+03  0.7561462E-02  0.1205743E+00
         -2   -1    0    0    0  501 -0.00000000000E+00  0.00000000000E+00  0.20046682688E+03  0.20046682688E+03  0.00000000000E+00 0.  1.
          2   -1    0    0  501    0  0.00000000000E+00 -0.00000000000E+00 -0.12281425661E+03  0.12281425661E+03  0.00000000000E+00 0. -1.
         25    2    1    2    0    0  0.10004719545E+03  0.51412954502E+02  0.63732874142E+02  0.17991122708E+03  0.12511369698E+03 0.  0.
          5    1    3    3  502    0  0.12715137628E+03  0.41095693860E+02  0.33535754293E+02  0.13783485684E+03  0.41800000000E+01 0.  1.
         -5    1    3    3    0  502 -0.27104180824E+02  0.10317260642E+02  0.30197119849E+02  0.42076370239E+02  0.41800000000E+01 0.  1.
        -11    1    1    2    0    0 -0.77864131724E+02 -0.60594562831E+01  0.38661994407E+02  0.87145222653E+02  0.00000000000E+00 0.  1.
         11    1    1    2    0    0 -0.22183063730E+02 -0.45353498219E+02 -0.24742298285E+02  0.56224633761E+02  0.00000000000E+00 0. -1.
</event>
<event>
 7    1  0.2412631E-010  0.2239227E+03  0.7561462E-02  0.1130992E+00
          2   -1    0    0  501    0  0.00000000000E+00  0.00000000000E+00  0.76799123997E+03  0.76799123997E+03  0.00000000000E+00 0. -1.
         -2   -1    0    0    0  501 -0.00000000000E+00 -0.00000000000E+00 -0.69618710115E+02  0.69618710115E+02  0.00000000000E+00 0.  1.
         25    2    1    2    0    0 -0.15485961003E+03 -0.13926680448E+03  0.32049884872E+03  0.40215748942E+03  0.12503756482E+03 0.  0.
          5    1    3    3  502    0 -0.17233823280E+03 -0.11129949168E+03  0.24443095513E+03  0.31914261320E+03  0.41800000000E+01 0. -1.
         -5    1    3    3    0  502  0.17478622768E+02 -0.27967312797E+02  0.76067893596E+02  0.83014876227E+02  0.41800000000E+01 0. -1.
        -11    1    1    2    0    0  0.49961118555E+02  0.59054903950E+02  0.89588290423E+02  0.11836239618E+03  0.00000000000E+00 0.  1.
         11    1    1    2    0    0  0.10489849147E+03  0.80211900533E+02  0.28828539071E+03  0.31709006449E+03  0.00000000000E+00 0. -1.
</event>
<event>
 6    1  0.2412631E-010  0.1785525E+03  0.7561462E-02  0.1169211E+00
         -3   -1    0    0    0  501 -0.00000000000E+00  0.00000000000E+00  0.26538733886E+03  0.26538733886E+03  0.00000000000E+00 0.  1.
          3   -1    0    0  501    0  0.00000000000E+00 -0.00000000000E+00 -0.14220020365E+03  0.14220020365E+03  0.00000000000E+00 0. -1.
          5    1    1    2  502    0 -0.25052364184E+02  0.36835386229E+02  0.24222732509E+02  0.50879070353E+02  0.41800000000E+01 0.  1.
         -5    1    1    2    0  502 -0.12017281521E+03 -0.82196964365E+02 -0.14533869519E+02  0.14637811390E+03  0.41800000000E+01 0.  1.
        -11    1    1    2    0    0  0.29129185122E+02 -0.18202772764E+02  0.56715488292E+02  0.66306085500E+02  0.00000000000E+00 0.  1.
         11    1    1    2    0    0  0.11609599427E+03  0.63564350901E+02  0.56782783921E+02  0.14402427275E+03  0.00000000000E+00 0. -1.
</event>
<event>
 7    1  0.2412631E-010  0.6105875E+02  0.7561462E-02  0.1393442E+00
         -2   -1    0    0    0  501 -0.00000000000E+00  0.00000000000E+00  0.13760116671E+03  0.13760116671E+03  0.00000000000E+00 0.  1.
          2   -1    0    0  501    0  0.00000000000E+00 -0.00000000000E+00 -0.15228169386E+03  0.15228169386E+03  0.00000000000E+00 0. -1.
         25    2    1    2    0    0  0.52259806651E+01  0.15275840391E+02  0.85566905515E+02  0.15243418339E+03  0.12511523797E+03 0.  0.
          5    1    3    3  502    0 -0.43696930719E+01  0.27092590872E+02  0.11539483010E+03  0.11868673857E+03  0.41800000000E+01 0. -1.
         -5    1    3    3    0  502  0.95956737370E+01 -0.11816750481E+02 -0.29827924588E+02  0.33747444816E+02  0.41800000000E+01 0. -1.
        -11    1    1    2    0    0  0.33060897908E+02 -0.21983557833E+02 -0.88249353118E+02  0.96769045212E+02  0.00000000000E+00 0. -1.
         11    1    1    2    0    0 -0.38286878573E+02  0.67077174421E+01 -0.11998079548E+02  0.40679631967E+02  0.00000000000E+00 0.  1.
</event>
<event>
 7    1  0.2412631E-010  0.1829679E+03  0.7561462E-02  0.1164961E+00
         -3   -1    0    0    0  501 -0.00000000000E+00  0.00000000000E+00  0.29847386523E+03  0.29847386523E+03  0.00000000000E+00 0.  1.
          3   -1    0    0  501    0  0.00000000000E+00 -0.00000000000E+00 -0.12769280533E+03  0.12769280533E+03  0.00000000000E+00 0. -1.
         25    2    1    2    0    0  0.10203023610E+02 -0.16111915588E+03  0.10010221434E+03  0.22746349386E+03  0.12512275428E+03 0.  0.
          5    1    3    3  502    0 -0.21119657282E+02  0.11615476424E+02  0.29188208090E+02  0.38083895648E+02  0.41800000000E+01 0. -1.
         -5    1    3    3    0  502  0.31322680891E+02 -0.17273463231E+03  0.70914006250E+02  0.18937959821E+03  0.41800000000E+01 0. -1.
        -11    1    1    2    0    0 -0.18353475063E+02  0.35276638527E+02 -0.18890842123E+02  0.44024483969E+02  0.00000000000E+00 0.  1.
         11    1    1    2    0    0  0.81504514533E+01  0.12584251736E+03  0.89569687682E+02  0.15467869273E+03  0.00000000000E+00 0. -1.
</event>
<event>
 7    1  0.2412631E-010  0.1052173E+03  0.7561462E-02  0.1269692E+00
          2   -1    0    0  501    0  0.00000000000E+00  0.00000000000E+00  0.76044189621E+03  0.76044189621E+03  0.00000000000E+00 0. -1.
         -2   -1    0    0    0  501 -0.00000000000E+00 -0.00000000000E+00 -0.28776457570E+02  0.28776457570E+02  0.00000000000E+00 0.  1.
         25    2    1    2    0    0 -0.63242859213E+01  0.53557789243E+02  0.61556043388E+03  0.63044512116E+03  0.12505186785E+03 0.  0.
          5    1    3    3  502    0 -0.24888399680E+02 -0.23695756739E+02  0.38479496319E+03  0.38634900987E+03  0.41800000000E+01 0.  1.
         -5    1    3    3    0  502  0.18564113758E+02  0.77253545982E+02  0.23076547069E+03  0.24409611130E+03  0.41800000000E+01 0.  1.
        -11    1    1    2    0    0  0.23674740081E+02  0.13318499570E+02  0.71625054271E+02  0.76603029626E+02  0.00000000000E+00 0. -1.
         11    1    1    2    0    0 -0.17350454159E+02 -0.66876288813E+02  0.44479950489E+02  0.82170202996E+02  0.00000000000E+00 0.  1.
</event>
<event>
 6    1  0.2412631E-010  0.1250874E+03  0.7561462E-02  0.1234933E+00
         -2   -1    0    0    0  501 -0.00000000000E+00  0.00000000000E+00  0.16588230428E+03  0.16588230428E+03  0.00000000000E+00 0.  1.
          2   -1    0    0  501    0  0.00000000000E+00 -0.00000000000E+00 -0.10797721385E+03  0.10797721385E+03  0.00000000000E+00 0. -1.
          5    1    1    2  502    0  0.95921964899E+01 -0.38953044359E+02  0.20511757807E+02  0.45249911676E+02  0.41800000000E+01 0. -1.
         -5    1    1    2    0  502 -0.87898342327E+02  0.57086787124E+02  0.20836053859E+02  0.10694219648E+03  0.41800000000E+01 0. -1.
        -11    1    1    2    0    0  0.84878928813E+02  0.82437423770E+00  0.37381188191E+02  0.92749476440E+02  0.00000000000E+00 0.  1.
         11    1    1    2    0    0 -0.65727829761E+01 -0.18958117003E+02 -0.20823909423E+02  0.28917933536E+02  0.00000000000E+00 0. -1.
</event>
<event>
 6    1  0.2412631E-010  0.2198926E+03  0.7561462E-02  0.1133963E+00
          2   -1    0    0  501    0  0.00000000000E+00  0.00000000000E+00  0.86616998398E+03  0.86616998398E+03  0.00000000000E+00 0. -1.
         -2   -1    0    0    0  501 -0.00000000000E+00 -0.00000000000E+00 -0.67158712024E+02  0.67158712024E+02  0.00000000000E+00 0.  1.
          5    1    1    2  502    0 -0.55302285286E+02  0.14483629073E+03  0.14306682075E+03  0.21100114092E+03  0.41800000000E+01 0.  1.
         -5    1    1    2    0  502 -0.63934600639E+02  0.29828076967E+02  0.19157230046E+03  0.20419296276E+03  0.41800000000E+01 0.  1.
        -11    1    1    2    0    0  0.11632870828E+03 -0.15320730153E+03  0.45600744564E+03  0.49492184847E+03  0.00000000000E+00 0. -1.
         11    1    1    2    0    0  0.29081776470E+01 -0.21457066171E+02  0.83647050968E+01  0.23212743855E+02  0.00000000000E+00 0.  1.
</event>
<event>
 7    1  0.2412631E-010  0.1001780E+03  0.7561462E-02  0.1279922E+00
          2   -1    0    0  501    0  0.00000000000E+00  0.00000000000E+00  0.58401331040E+03  0.58401331040E+03  0.00000000000E+00 0. -1.
         -2   -1    0    0    0  501 -0.00000000000E+00 -0.00000000000E+00 -0.26241485139E+02  0.26241485139E+02  0.00000000000E+00 0.  1.
         25    2    1    2    0    0 -0.41993502891E+02 -0.38387874745E+02  0.26972496148E+03  0.30272338038E+03  0.12511117843E+03 0.  0.
          5    1    3    3  502    0 -0.59235728177E+02 -0.33227378388E+01  0.25320132911E+03  0.26009286330E+03  0.41800000000E+01 0. -1.
         -5    1    3    3    0  502  0.17242225286E+02 -0.35065136907E+02  0.16523632375E+02  0.42630517073E+02  0.41800000000E+01 0. -1.
        -11    1    1    2    0    0 -0.13810788985E+02  0.43408410401E+02  0.79876635257E+02  0.91952731585E+02  0.00000000000E+00 0.  1.
         11    1    1    2    0    0  0.55804291876E+02 -0.50205356558E+01  0.20817022852E+03  0.21557868358E+03  0.00000000000E+00 0. -1.
</event>
<event>
 7    1  0.2412631E-010  0.1051931E+03  0.7561462E-02  0.1269740E+00
         -1   -1    0    0    0  501 -0.00000000000E+00  0.00000000000E+00  0.22252851714E+03  0.22252851714E+03  0.00000000000E+00 0.  1.
          1   -1    0    0  501    0  0.00000000000E+00 -0.00000000000E+00 -0.13163716755E+03  0.13163716755E+03  0.00000000000E+00 0. -1.
         25    2    1    2    0    0  0.72285394184E+02  0.34582443766E+02  0.15627904841E+03  0.21560010713E+03  0.12505655358E+03 0.  0.
          5    1    3    3  502    0  0.52757135116E+02  0.45417560329E+02  0.17356477559E+03  0.18705152718E+03  0.41800000000E+01 0. -1.
         -5    1    3    3    0  502  0.19528259067E+02 -0.10835116563E+02 -0.17285727184E+02  0.28548579954E+02  0.41800000000E+01 0. -1.
        -11    1    1    2    0    0  0.20089344100E+02 -0.94061736086E+01  0.75689872503E+00  0.22195286526E+02  0.00000000000E+00 0.  1.
         11    1    1    2    0    0 -0.92374738283E+02 -0.25176270157E+02 -0.66144597543E+02  0.11637029104E+03  0.00000000000E+00 0. -1.
</event>
<event>
 6    1  0.2412631E-010  0.1696367E+03  0.7561462E-02  0.1178227E+00
         -1   -1    0    0    0  501 -0.00000000000E+00  0.00000000000E+00  0.23376990606E+02  0.23376990606E+02  0.00000000000E+00 0.  1.
          1   -1    0    0  501    0  0.00000000000E+00 -0.00000000000E+00 -0.14585295996E+04  0.14585295996E+04  0.00000000000E+00 0. -1.
          5    1    1    2  502    0  0.38912189711E+02 -0.59202599325E+02 -0.55403927578E+03  0.55856610870E+03  0.41800000000E+01 0.  1.
         -5    1    1    2    0  502  0.97035323507E+02 -0.10648575487E+01 -0.24042076802E+03  0.25930022372E+03  0.41800000000E+01 0.  1.
        -11    1    1    2    0    0 -0.12462897995E+03  0.16202275268E+02 -0.40707724570E+03  0.42603612562E+03  0.00000000000E+00 0.  1.
         11    1    1    2    0    0 -0.11318533272E+02  0.44065181606E+02 -0.23361531948E+03  0.23800413215E+03  0.00000000000E+00 0. -1.
</event>
<event>
 7    1  0.2412631E-010  0.1376848E+03  0.7561462E-02  0.1216479E+00
         -2   -1    0    0    0  501 -0.00000000000E+00  0.00000000000E+00  0.24811322074E+02  0.24811322074E+02  0.00000000000E+00 0.  1.
          2   -1    0    0  501    0  0.00000000000E+00 -0.00000000000E+00 -0.83194933239E+03  0.83194933239E+03  0.00000000000E+00 0. -1.
         25    2    1    2    0    0 -0.33075385620E+02 -0.86632115688E+02 -0.40500332094E+03  0.43391717442E+03  0.12512921193E+03 0.  0.
          5    1    3    3  502    0 -0.75160415119E+02 -0.26112877319E+02 -0.24659300051E+03  0.25914580966E+03  0.41800000000E+01 0. -1.
         -5    1    3    3    0  502  0.42085029499E+02 -0.60519238369E+02 -0.15841032043E+03  0.17477136476E+03  0.41800000000E+01 0. -1.
        -11    1    1    2    0    0  0.28382691703E+02  0.10195653007E+03 -0.38542057426E+03  0.39968704041E+03  0.00000000000E+00 0. -1.
         11    1    1    2    0    0  0.46926939166E+01 -0.15324414384E+02 -0.16714115123E+02  0.23156439639E+02  0.00000000000E+00 0.  1.
</event>
<event>
 6    1  0.2412631E-010  0.1046634E+03  0.7561462E-02  0.1270784E+00
         -2   -1    0    0    0  501 -0.00000000000E+00  0.00000000000E+00  0.55964588238E+02  0.55964588238E+02  0.00000000000E+00 0.  1.
          2   -1    0    0  501    0  0.00000000000E+00 -0.00000000000E+00 -0.29255611354E+03  0.29255611354E+03  0.00000000000E+00 0. -1.
          5    1    1    2  502    0  0.77887617796E+02  0.33793043816E+01 -0.15976037329E+03  0.17781661896E+03  0.41800000000E+01 0.  1.
         -5    1    1    2    0  502 -0.20651200846E+02  0.33795088836E+02 -0.52484166075E+01  0.40169620395E+02  0.41800000000E+01 0.  1.
        -11    1    1    2    0    0 -0.52808849214E+01 -0.39082994088E+02 -0.67762651511E+02  0.78403731495E+02  0.00000000000E+00 0.  1.
         11    1    1    2    0    0 -0.51955532028E+02  0.19086008705E+01 -0.38200838854E+01  0.52130730923E+02  0.00000000000E+00 0. -1.
</event>
<event>
 7    1  0.2412631E-010  0.1516777E+03  0.7561462E-02  0.1198427E+00
         -4   -1    0    0    0  501 -0.00000000000E+00  0.00000000000E+00  0.55502811941E+03  0.55502811941E+03  0.00000000000E+00 0.  1.
          4   -1    0    0  501    0  0.00000000000E+00 -0.00000000000E+00 -0.72081553014E+02  0.72081553014E+02  0.00000000000E+00 0. -1.
         25    2    1    2    0    0 -0.60056641012E+02 -0.13183808951E+03  0.38361413484E+03  0.42872122617E+03  0.12511595959E+03 0.  0.
          5    1    3    3  502    0  0.12411884977E+02 -0.25502337840E+02  0.53728970476E+01  0.29167868395E+02  0.41800000000E+01 0.  1.
         -5    1    3    3    0  502 -0.72468525989E+02 -0.10633575167E+03  0.37824123779E+03  0.39955335778E+03  0.41800000000E+01 0.  1.
        -11    1    1    2    0    0  0.54143252500E+02  0.10160061103E+03  0.11593775122E+03  0.16338830469E+03  0.00000000000E+00 0.  1.
         11    1    1    2    0    0  0.59133885121E+01  0.30237478483E+02 -0.16605319660E+02  0.35000141567E+02  0.00000000000E+00 0. -1.
</event>
<event>
 6    1  0.2412631E-010  0.1011399E+03  0.7561462E-02  0.1277917E+00
         -4   -1    0    0    0  501 -0.00000000000E+00  0.00000000000E+00  0.14666316260E+03  0.14666316260E+03  0.00000000000E+00 0.  1.
          4   -1    0    0  501    0  0.00000000000E+00 -0.00000000000E+00 -0.83441453797E+02  0.83441453797E+02  0.00000000000E+00 0. -1.
          5    1    1    2  502    0 -0.11180499382E+02  0.57190367067E+02  0.48439425710E+01  0.58623185101E+02  0.41800000000E+01 0. -1.
         -5    1    1    2    0  502 -0.83763598069E+01 -0.66939161976E+02  0.23947777469E+02  0.71707623412E+02  0.41800000000E+01 0. -1.
        -11    1    1    2    0    0  0.19404055016E+02  0.40818820341E+02  0.47946650056E+02  0.65890626774E+02  0.00000000000E+00 0.  1.
         11    1    1    2    0    0  0.15280417231E+00 -0.31070025432E+02 -0.13516661295E+02  0.33883181109E+02  0.00000000000E+00 0. -1.
</event>
<event>
 6    1  0.2412631E-010  0.1654387E+03  0.7561462E-02  0.1182690E+00
         -3   -1    0    0    0  501 -0.00000000000E+00  0.00000000000E+00  0.97660059690E+03  0.97660059690E+03  0.00000000000E+00 0.  1.
          3   -1    0    0  501    0  0.00000000000E+00 -0.00000000000E+00 -0.37707263521E+02  0.37707263521E+02  0.00000000000E+00 0. -1.
          5    1    1    2  502    0 -0.13726966860E+03 -0.18957595009E+02  0.34101325774E+03  0.36811664820E+03  0.41800000000E+01 0. -1.
         -5    1    1    2    0  502 -0.10282237370E+02  0.25171567666E+02  0.30513715962E+03  0.30637475550E+03  0.41800000000E+01 0. -1.
        -11    1    1    2    0    0  0.18337765415E+02 -0.28222421450E+02  0.10924622635E+03  0.11431323932E+03  0.00000000000E+00 0.  1.
         11    1    1    2    0    0  0.12921414056E+03  0.22008448793E+02  0.18349668966E+03  0.22550321739E+03  0.00000000000E+00 0. -1.
</event>
<event>
 7    1  0.2729841E-010  0.1285355E+03  0.7561462E-02  0.1229645E+00
         -1   -1    0    0    0  501 -0.00000000000E+00  0.00000000000E+00  0.53861088242E+03  0.53861088242E+03  0.00000000000E+00 0.  1.
          1   -1    0    0  501    0  0.00000000000E+00 -0.00000000000E+00 -0.52806950372E+02  0.52806950372E+02  0.00000000000E+00 0. -1.
         25    2    1    2    0    0 -0.33112967535E+02  0.92575828150E+02  0.40428270644E+03  0.43446973695E+03  0.12511072305E+03 0.  0.
          5    1    3    3  502    0  0.27396273823E+02  0.71731699528E+02  0.11624735955E+03  0.13938046326E+03  0.41800000000E+01 0. -1.
         -5    1    3    3    0  502 -0.60509241358E+02  0.20844128621E+02  0.28803534688E+03  0.29508927368E+03  0.41800000000E+01 0. -1.
        -11    1    1    2    0    0  0.38890880347E+02 -0.20943248117E+02 -0.50225988560E+01  0.44456121233E+02  0.00000000000E+00 0. -1.
         11    1    1    2    0    0 -0.57779128118E+01 -0.71632580033E+02  0.86543824461E+02  0.11249197461E+03  0.00000000000E+00 0.  1.
</event>
<event>
 7    1  0.2412631E-010  0.1621737E+03  0.7561462E-02  0.1186264E+00
          2   -1    0    0  501    0  0.00000000000E+00  0.00000000000E+00  0.48604449016E+03  0.48604449016E+03  0.00000000000E+00 0. -1.
         -2   -1    0    0    0  501 -0.00000000000E+00 -0.00000000000E+00 -0.64333968767E+02  0.64333968767E+02  0.00000000000E+00 0.  1.
         25    2    1    2    0    0  0.12428345591E+03  0.39804655551E+02  0.29754465347E+03  0.34816888898E+03  0.12513179624E+03 0.  0.
          5    1    3    3  502    0  0.10921775792E+02  0.51372427320E+02  0.16560265998E+03  0.17378183124E+03  0.41800000000E+01 0. -1.
         -5    1    3    3    0  502  0.11336168012E+03 -0.11567771770E+02  0.13194199349E+03  0.17438705774E+03  0.41800000000E+01 0. -1.
        -11    1    1    2    0    0 -0.12527354748E+03 -0.76959135457E+01  0.85138208592E+02  0.15166147614E+03  0.00000000000E+00 0.  1.
         11    1    1    2    0    0  0.99009156531E+00 -0.32108742005E+02  0.39027659330E+02  0.50548093804E+02  0.00000000000E+00 0. -1.
</event>
<event>
 7    1  0.2412631E-010  0.1044670E+03  0.7561462E-02  0.1271173E+00
          2   -1    0    0  501    0  0.00000000000E+00  0.00000000000E+00  0.18853963775E+03  0.18853963775E+03  0.00000000000E+00 0. -1.
         -2   -1    0    0    0  501 -0.00000000000E+00 -0.00000000000E+00 -0.11058866984E+03  0.11058866984E+03  0.00000000000E+00 0.  1.
         25    2    1    2    0    0 -0.45876360432E+02  0.51094351897E+02  0.11189576449E+03  0.18136133224E+03  0.12512392848E+03 0.  0.
          5    1    3    3  502    0 -0.16798694060E+02  0.87116721319E+02  0.99249476278E+02  0.13318952735E+03  0.41800000000E+01 0.  1.
         -5    1    3    3    0  502 -0.29077666372E+02 -0.36022369422E+02  0.12646288216E+02  0.48171804887E+02  0.41800000000E+01 0.  1.
        -11    1    1    2    0    0  0.46987352425E+00 -0.16605678842E+02  0.28635821418E+02  0.33105582901E+02  0.00000000000E+00 0. -1.
         11    1    1    2    0    0  0.45406486908E+02 -0.34488673054E+02 -0.62580617999E+02  0.84661392450E+02  0.00000000000E+00 0.  1.
</event>
<event>
 7    1  0.2412631E-010  0.1130917E+03  0.7561462E-02  0.1254949E+00
          1   -1    0    0  501    0  0.00000000000E+00  0.00000000000E+00  0.15999339841E+03  0.15999339841E+03  0.00000000000E+00 0. -1.
         -1   -1    0    0    0  501 -0.00000000000E+00 -0.00000000000E+00 -0.86181958836E+02  0.86181958836E+02  0.00000000000E+00 0.  1.
         25    2    1    2    0    0  0.27527744809E+02  0.31675114986E+02  0.55840219541E+02  0.14324326079E+03  0.12505763471E+03 0.  0.
          5    1    3    3  502    0  0.68963454300E+02  0.44454004931E+02  0.56443204700E+02  0.99676598759E+02  0.41800000000E+01 0.  1.
         -5    1    3    3    0  502 -0.41435709492E+02 -0.12778889944E+02 -0.60298515956E+00  0.43566662029E+02  0.41800000000E+01 0.  1.
        -11    1    1    2    0    0  0.26749314147E+02 -0.37297010500E+02  0.14989303305E+02  0.48283247748E+02  0.00000000000E+00 0.  1.
         11    1    1    2    0    0 -0.54277058955E+02  0.56218955133E+01  0.29819167301E+01  0.54648848710E+02  0.00000000000E+00 0. -1.
</event>
<event>
 6    1  0.2412631E-010  0.1172413E+03  0.7561462E-02  0.1247719E+00
         -1   -1    0    0    0  501 -0.00000000000E+00  0.00000000000E+00  0.44963377501E+03  0.44963377501E+03  0.00000000000E+00 0.  1.
          1   -1    0    0  501    0  0.00000000000E+00 -0.00000000000E+00 -0.65258371997E+02  0.65258371997E+02  0.00000000000E+00 0. -1.
          5    1    1    2  502    0 -0.88081878057E+02 -0.32945628928E+02  0.15865555669E+03  0.18448005251E+03  0.41800000000E+01 0. -1.
         -5    1    1    2    0  502  0.24408895162E+02 -0.18297258378E+01  0.21132291909E+03  0.21277685633E+03  0.41800000000E+01 0. -1.
        -11    1    1    2    0    0  0.61442060892E+02  0.62534268065E+02  0.35215215016E+01  0.87738604062E+02  0.00000000000E+00 0. -1.
         11    1    1    2    0    0  0.22309220031E+01 -0.27758913300E+02  0.10875405740E+02  0.29896634101E+02  0.00000000000E+00 0.  1.
</event>
<event>
 7    1  0.2412631E-010  0.2320428E+03  0.7561462E-02  0.1125210E+00
         -2   -1    0    0    0  501 -0.00000000000E+00  0.00000000000E+00  0.10198185792E+03  0.10198185792E+03  0.00000000000E+00 0.  1.
          2   -1    0    0  501    0  0.00000000000E+00 -0.00000000000E+00 -0.55779605170E+03  0.55779605170E+03  0.00000000000E+00 0. -1.
         25    2    1    2    0    0 -0.41594210755E+02  0.20312300787E+03 -0.17413236115E+03  0.29827133985E+03  0.12511865682E+03 0.  0.
          5    1    3    3  502    0  0.39091996261E+02  0.38334199058E+02 -0.19457754170E+02  0.58256086261E+02  0.41800000000E+01 0.  1.
         -5    1    3    3    0  502 -0.80686207017E+02  0.16478880881E+03 -0.15467460698E+03  0.24001525359E+03  0.41800000000E+01 0.  1.
        -11    1    1    2    0    0 -0.13605842708E+02 -0.14444373664E+03 -0.19656941212E+03  0.24431259851E+03  0.00000000000E+00 0.  1.
         11    1    1    2    0    0  0.55200053463E+02 -0.58679271235E+02 -0.85112420503E+02  0.11719397126E+03  0.00000000000E+00 0. -1.
</event>
<event>
 7    1  0.2412631E-010  0.1007108E+03  0.7561462E-02  0.1278808E+00
          4   -1    0    0  501    0  0.00000000000E+00  0.00000000000E+00  0.38390797084E+03  0.38390797084E+03  0.00000000000E+00 0. -1.
         -4   -1    0    0    0  501 -0.00000000000E+00 -0.00000000000E+00 -0.31966980451E+02  0.31966980451E+02  0.00000000000E+00 0.  1.
         25    2    1    2    0    0  0.15104980230E+02  0.11234930695E+02  0.17056410635E+03  0.21233382844E+03  0.12505661210E+03 0.  0.
          5    1    3    3  502    0 -0.25775294362E+02 -0.41106705415E+02  0.11759736931E+03  0.12728213032E+03  0.41800000000E+01 0.  1.
         -5    1    3    3    0  502  0.40880274592E+02  0.52341636110E+02  0.52966737040E+02  0.85051698125E+02  0.41800000000E+01 0.  1.
        -11    1    1    2    0    0  0.19240995656E+02  0.28037342701E+02  0.10995569860E+03  0.11509371901E+03  0.00000000000E+00 0. -1.
         11    1    1    2    0    0 -0.34345975886E+02 -0.39272273396E+02  0.71421185439E+02  0.88447403844E+02  0.00000000000E+00 0.  1.
</event>
<event>
 6    1  0.2412631E-010  0.1168934E+03  0.7561462E-02  0.1248312E+00
          2   -1    0    0  501    0  0.00000000000E+00  0.00000000000E+00  0.36436679730E+03  0.36436679730E+03  0.00000000000E+00 0. -1.
         -2   -1    0    0    0  501 -0.00000000000E+00 -0.00000000000E+00 -0.50707125033E+02  0.50707125033E+02  0.00000000000E+00 0.  1.
          5    1    1    2  502    0  0.40604253676E+02  0.96068389483E+01  0.24723588299E+02  0.48679821174E+02  0.41800000000E+01 0.  1.
         -5    1    1    2    0  502 -0.79127113984E+02 -0.54282627071E+02  0.61180641169E+02  0.11387821136E+03  0.41800000000E+01 0.  1.
        -11    1    1    2    0    0  0.60865599902E+02  0.24203959663E+02  0.89090359201E+02  0.11057823030E+03  0.00000000000E+00 0.  1.
         11    1    1    2    0    0 -0.22342739594E+02  0.20471828459E+02  0.13866508360E+03  0.14193765949E+03  0.00000000000E+00 0. -1.
</event>
<event>
 7    1  0.2412631E-010  0.1059670E+03  0.7561462E-02  0.1268226E+00
          2   -1    0    0  501    0  0.00000000000E+00  0.00000000000E+00  0.87118501648E+03  0.87118501648E+03  0.00000000000E+00 0. -1.
         -2   -1    0    0    0  501 -0.00000000000E+00 -0.00000000000E+00 -0.19035447317E+02  0.19035447317E+02  0.00000000000E+00 0.  1.
         25    2    1    2    0    0  0.67083077025E+01 -0.66467742181E+01  0.69058439500E+03  0.70189097835E+03  0.12511977411E+03 0.  0.
          5    1    3    3  502    0 -0.35912874106E+02  0.42877798658E+02  0.23352020998E+03  0.24016119797E+03  0.41800000000E+01 0. -1.
         -5    1    3    3    0  502  0.42621181809E+02 -0.49524572876E+02  0.45706418502E+03  0.46172978037E+03  0.41800000000E+01 0. -1.
        -11    1    1    2    0    0 -0.43289899323E+02 -0.17335859018E+02  0.49382103311E+02  0.67920096575E+02  0.00000000000E+00 0.  1.
         11    1    1    2    0    0  0.36581591621E+02  0.23982633236E+02  0.11218307086E+03  0.12040938888E+03  0.00000000000E+00 0. -1.
</event>
<event>
 7    1  0.2412631E-010  0.1646227E+03  0.7561462E-02  0.1183574E+00
          2   -1    0    0  501    0  0.00000000000E+00  0.00000000000E+00  0.50398985127E+03  0.50398985127E+03  0.00000000000E+00 0.  1.
         -2   -1    0    0    0  501 -0.00000000000E+00 -0.00000000000E+00 -0.76853282327E+02  0.76853282327E+02  0.00000000000E+00 0. -1.
         25    2    1    2    0    0 -0.68623824226E+02 -0.13630401563E+03  0.13490442515E+03  0.23904161703E+03  0.12511465468E+03 0.  0.
          5    1    3    3  502    0 -0.14122695262E+02 -0.24158086591E+02  0.10769669050E+03  0.11135130540E+03  0.41800000000E+01 0. -1.
         -5    1    3    3    0  502 -0.54501128963E+02 -0.11214592904E+03  0.27207734651E+02  0.12769031163E+03  0.41800000000E+01 0. -1.
        -11    1    1    2    0    0  0.60576813167E+02  0.26540846573E+02  0.91825809616E+02  0.11316336042E+03  0.00000000000E+00 0. -1.
         11    1    1    2    0    0  0.80470110584E+01  0.10976316906E+03  0.20040633418E+03  0.22863815615E+03  0.00000000000E+00 0.  1.
</event>
<event>
 7    1  0.2412631E-010  0.1256402E+03  0.7561462E-02  0.1234072E+00
          2   -1    0    0  501    0  0.00000000000E+00  0.00000000000E+00  0.60144944193E+03  0.60144944193E+03  0.00000000000E+00 0.  1.
         -2   -1    0    0    0  501 -0.00000000000E+00 -0.00000000000E+00 -0.27716981197E+02  0.27716981197E+02  0.00000000000E+00 0. -1.
         25    2    1    2    0    0  0.18620005701E+02  0.66494377944E+02  0.30379909493E+03  0.33570444304E+03  0.12504149744E+03 0.  0.
          5    1    3    3  502    0  0.55915072208E+02 -0.60559869192E+01  0.16820795331E+03  0.17741070496E+03  0.41800000000E+01 0.  1.
         -5    1    3    3    0  502 -0.37295066507E+02  0.72550364863E+02  0.13559114162E+03  0.15829373807E+03  0.41800000000E+01 0.  1.
        -11    1    1    2    0    0  0.33381155722E+02 -0.47038555507E+02  0.11068286644E+03  0.12481035288E+03  0.00000000000E+00 0. -1.
         11    1    1    2    0    0 -0.52001161423E+02 -0.19455822436E+02  0.15925049935E+03  0.16865162721E+03  0.00000000000E+00 0.  1.
</event>
<event>
 7    1  0.2412631E-010  0.2298774E+03  0.7561462E-02  0.1126726E+00
          1   -1    0    0  501    0  0.00000000000E+00  0.00000000000E+00  0.18020149854E+03  0.18020149854E+03  0.00000000000E+00 0. -1.
         -1   -1    0    0    0  501 -0.00000000000E+00 -0.00000000000E+00 -0.30911860804E+03  0.30911860804E+03  0.00000000000E+00 0.  1.
         25    2    1    2    0    0  0.12138720947E+03 -0.17050323706E+03 -0.67041689031E+02  0.25289041348E+03  0.12511100947E+03 0.  0.
          5    1    3    3  502    0 -0.16147035796E+02 -0.73673866533E+02 -0.18391021895E+02  0.77744887043E+02  0.41800000000E+01 0.  1.
         -5    1    3    3    0  502  0.13753424527E+03 -0.96829370528E+02 -0.48650667136E+02  0.17514552643E+03  0.41800000000E+01 0.  1.
        -11    1    1    2    0    0 -0.11558603576E+02  0.56471787465E+02  0.16239841111E+02  0.59886530501E+02  0.00000000000E+00 0. -1.
         11    1    1    2    0    0 -0.10982860589E+03  0.11403144960E+03 -0.78115261579E+02  0.17654316260E+03  0.00000000000E+00 0.  1.
</event>
<event>
 7    1  0.2412631E-010  0.2368254E+03  0.7561462E-02  0.1121926E+00
          2   -1    0    0  501    0  0.00000000000E+00  0.00000000000E+00  0.42682648241E+03  0.42682648241E+03  0.00000000000E+00 0. -1.
         -2   -1    0    0    0  501 -0.00000000000E+00 -0.00000000000E+00 -0.15467416149E+03  0.15467416149E+03  0.00000000000E+00 0.  1.
         25    2    1    2    0    0  0.17963503365E+03 -0.14062705256E+03  0.89055018081E+02  0.27500811975E+03  0.12511577222E+03 0.  0.
          5    1    3    3  502    0  0.54306152127E+02 -0.39951964611E+02 -0.31003325035E+02  0.74323591129E+02  0.41800000000E+01 0.  1.
         -5    1    3    3    0  502  0.12532888152E+03 -0.10067508794E+03  0.12005834312E+03  0.20068452862E+03  0.41800000000E+01 0.  1.
        -11    1    1    2    0    0 -0.96180150404E+02  0.12918252016E+03  0.11082626599E+03  0.19550244520E+03  0.00000000000E+00 0. -1.
         11    1    1    2    0    0 -0.83454883245E+02  0.11444532395E+02  0.72271036843E+02  0.11099007895E+03  0.00000000000E+00 0.  1.
</event>
<event>
 7    1  0.2412631E-010  0.1493177E+03  0.7561462E-02  0.1201314E+00
         -1   -1    0    0    0  501 -0.00000000000E+00  0.00000000000E+00  0.80410389443E+02  0.80410389443E+02  0.00000000000E+00 0.  1.
          1   -1    0    0  501    0  0.00000000000E+00 -0.00000000000E+00 -0.45508063652E+03  0.45508063652E+03  0.00000000000E+00 0. -1.
         25    2    1    2    0    0  0.16002782750E+02 -0.94822916544E+02 -0.43528343844E+02  0.16370589998E+03  0.12512965442E+03 0.  0.
          5    1    3    3  502    0 -0.32933012672E+02  0.45036571418E+01 -0.40899523708E+02  0.52868796950E+02  0.41800000000E+01 0.  1.
         -5    1    3    3    0  502  0.48935795422E+02 -0.99326573686E+02 -0.26288201356E+01  0.11083710303E+03  0.41800000000E+01 0.  1.
        -11    1    1    2    0    0  0.26653280716E+02 -0.19028148407E+02 -0.21620489774E+02  0.39241730120E+02  0.00000000000E+00 0.  1.
         11    1    1    2    0    0 -0.42656063466E+02  0.11385106495E+03 -0.30952141346E+03  0.33254339586E+03  0.00000000000E+00 0. -1.
</event>
<event>
 6    1  0.2412631E-010  0.1860183E+03  0.7561462E-02  0.1162102E+00
         -2   -1    0    0    0  501 -0.00000000000E+00  0.00000000000E+00  0.51123970196E+02  0.51123970196E+02  0.00000000000E+00 0.  1.
          2   -1    0    0  501    0  0.00000000000E+00 -0.00000000000E+00 -0.83805223066E+03  0.83805223066E+03  0.00000000000E+00 0. -1.
          5    1    1    2  502    0  0.33484202535E+02  0.63107010781E+02 -0.84589312952E+02  0.11079941739E+03  0.41800000000E+01 0.  1.
         -5    1    1    2    0  502  0.12183408287E+03 -0.41924579927E+02 -0.14903525401E+03  0.19705378324E+03  0.41800000000E+01 0.  1.
        -11    1    1    2    0    0 -0.12993726174E+03 -0.44248169310E+02 -0.49500745363E+03  0.51368664731E+03  0.00000000000E+00 0.  1.
         11    1    1    2    0    0 -0.25381023661E+02  0.23065738456E+02 -0.58296239876E+02  0.67636352920E+02  0.00000000000E+00 0. -1.
</event>
<event>
 7    1  0.2412631E-010  0.1043726E+03  0.7561462E-02  0.1271361E+00
          1   -1    0    0  501    0  0.00000000000E+00  0.00000000000E+00  0.61228396094E+03  0.61228396094E+03  0.00000000000E+00 0. -1.
         -1   -1    0    0    0  501 -0.00000000000E+00 -0.00000000000E+00 -0.20233779715E+02  0.20233779715E+02  0.00000000000E+00 0.  1.
         25    2    1    2    0    0  0.16062081076E+02  0.12990214404E+02  0.33579974868E+03  0.35892541419E+03  0.12505696949E+03 0.  0.
          5    1    3    3  502    0  0.12088858195E+02 -0.52907248977E+02  0.98056954803E+02  0.11215148805E+03  0.41800000000E+01 0. -1.
         -5    1    3    3    0  502  0.39732228806E+01  0.65897463381E+02  0.23774279388E+03  0.24677392614E+03  0.41800000000E+01 0. -1.
        -11    1    1    2    0    0  0.32216415980E+02 -0.22054630667E+02  0.62339144343E+02  0.73555918252E+02  0.00000000000E+00 0.  1.
         11    1    1    2    0    0 -0.48278497056E+02  0.90644162624E+01  0.19391128820E+03  0.20003640822E+03  0.00000000000E+00 0. -1.
</event>
<event>
 7    1  0.2412631E-010  0.9444055E+02  0.7561462E-02  0.1292441E+00
          1   -1    0    0  501    0  0.00000000000E+00  0.00000000000E+00  0.42950326912E+03  0.42950326912E+03  0.00000000000E+00 0. -1.
         -1   -1    0    0    0  501 -0.00000000000E+00 -0.00000000000E+00 -0.36944977494E+02  0.36944977494E+02  0.00000000000E+00 0.  1.
         25    2    1    2    0    0 -0.50210222772E+02 -0.12657889761E+02  0.29320930918E+03  0.32293681975E+03  0.12504080100E+03 0.  0.
          5    1    3    3  502    0  0.19867001494E+02 -0.24283824046E+02  0.21453005269E+03  0.21685252538E+03  0.41800000000E+01 0.  1.
         -5    1    3    3    0  502 -0.70077224266E+02  0.11625934286E+02  0.78679256497E+02  0.10608429437E+03  0.41800000000E+01 0.  1.
        -11    1    1    2    0    0  0.50014060395E+02  0.36695733364E+02  0.27697035683E+02  0.67934592587E+02  0.00000000000E+00 0.  1.
         11    1    1    2    0    0  0.19616237684E+00 -0.24037843603E+02  0.71651946760E+02  0.75576834276E+02  0.00000000000E+00 0. -1.
</event>
<event>
 6    1  0.2412631E-010  0.1068583E+03  0.7561462E-02  0.1266501E+00
          2   -1    0    0  501    0  0.00000000000E+00  0.00000000000E+00  0.54670177214E+03  0.54670177214E+03  0.00000000000E+00 0. -1.
         -2   -1    0    0    0  501 -0.00000000000E+00 -0.00000000000E+00 -0.27801276286E+02  0.27801276286E+02  0.00000000000E+00 0.  1.
          5    1    1    2  502    0  0.49223233292E+02  0.58358599782E+02  0.11526862348E+03  0.13832201858E+03  0.41800000000E+01 0.  1.
         -5    1    1    2    0  502  0.76131956757E+01 -0.52140359496E+02  0.17924814395E+03  0.18687949954E+03  0.41800000000E+01 0.  1.
        -11    1    1    2    0    0 -0.62210346065E+02  0.13756240459E+02  0.21878382271E+03  0.22787216238E+03  0.00000000000E+00 0.  1.
         11    1    1    2    0    0  0.53739170979E+01 -0.19974480746E+02  0.55999057180E+01  0.21429367935E+02  0.00000000000E+00 0. -1.
</event>
<event>
 7    1  0.2412631E-010  0.9612391E+02  0.7561462E-02  0.1288665E+00
          1   -1    0    0  501    0  0.00000000000E+00  0.00000000000E+00  0.13115858553E+03  0.13115858553E+03  0.00000000000E+00 0. -1.
         -1   -1    0    0    0  501 -0.00000000000E+00 -0.00000000000E+00 -0.11990668321E+03  0.11990668321E+03  0.00000000000E+00 0.  1.
         25    2    1    2    0    0  0.53949383174E+02 -0.30572682891E+02  0.17164841468E+02  0.14069138999E+03  0.12511678765E+03 0.  0.
          5    1    3    3  502    0  0.53129469240E+02  0.39176794937E+01  0.63358713150E+02  0.82884785373E+02  0.41800000000E+01 0.  1.
         -5    1    3    3    0  502  0.81991393387E+00 -0.34490362385E+02 -0.46193871682E+02  0.57806604616E+02  0.41800000000E+01 0.  1.
        -11    1    1    2    0    0  0.14152150115E+02  0.33006901492E+02 -0.19532727477E+02  0.40881124516E+02  0.00000000000E+00 0.  1.
         11    1    1    2    0    0 -0.68101533289E+02 -0.24342186015E+01  0.13619788332E+02  0.69492754232E+02  0.00000000000E+00 0. -1.
</event>
<event>
 6    1  0.2412631E-010  0.3351817E+03  0.7561462E-02  0.1068867E+00
          2   -1    0    0  501    0  0.00000000000E+00  0.00000000000E+00  0.55421016309E+03  0.55421016309E+03  0.00000000000E+00 0. -1.
         -2   -1    0    0    0  501 -0.00000000000E+00 -0.00000000000E+00 -0.20976636070E+03  0.20976636070E+03  0.00000000000E+00 0.  1.
          5    1    1    2  502    0 -0.14861360777E+02  0.20368066044E+02  0.12954319329E+02  0.28653183903E+02  0.41800000000E+01 0.  1.
         -5    1    1    2    0  502  0.24901976190E+03  0.20105837089E+03  0.15153784667E+03  0.35414192310E+03  0.41800000000E+01 0.  1.
        -11    1    1    2    0    0 -0.16688528052E+02 -0.39076068791E+01 -0.98323555166E+01  0.19759847546E+02  0.00000000000E+00 0. -1.
         11    1    1    2    0    0 -0.21746987308E+03 -0.21751883006E+03  0.18978399191E+03  0.36142156924E+03  0.00000000000E+00 0.  1.
</event>
<event>
 7    1  0.2412631E-010  0.1101077E+03  0.7561462E-02  0.1260371E+00
         -2   -1    0    0    0  501 -0.00000000000E+00  0.00000000000E+00  0.12311345514E+03  0.12311345514E+03  0.00000000000E+00 0.  1.
          2   -1    0    0  501    0  0.00000000000E+00 -0.00000000000E+00 -0.23478247591E+03  0.23478247591E+03  0.00000000000E+00 0. -1.
         25    2    1    2    0    0  0.15289137910E+02 -0.12791693289E+02  0.75519173139E+02  0.14750160793E+03  0.12512471248E+03 0.  0.
          5    1    3    3  502    0 -0.43830296006E+02  0.30278556489E+02  0.32358409639E+02  0.62469391748E+02  0.41800000000E+01 0.  1.
         -5    1    3    3    0  502  0.59119433916E+02 -0.43070249778E+02  0.43160763500E+02  0.85032216180E+02  0.41800000000E+01 0.  1.
        -11    1    1    2    0    0 -0.38765454568E+02  0.41261344762E+02 -0.13580819832E+03  0.14713641891E+03  0.00000000000E+00 0. -1.
         11    1    1    2    0    0  0.23476316657E+02 -0.28469651472E+02 -0.51379995587E+02  0.63257904212E+02  0.00000000000E+00 0.  1.
</event>
<event>
 6    1  0.2412631E-010  0.1080115E+03  0.7561462E-02  0.1264297E+00
          1   -1    0    0  501    0  0.00000000000E+00  0.00000000000E+00  0.57210362737E+02  0.57210362737E+02  0.00000000000E+00 0. -1.
         -1   -1    0    0    0  501 -0.00000000000E+00 -0.00000000000E+00 -0.29944129317E+03  0.29944129317E+03  0.00000000000E+00 0.  1.
          5    1    1    2  502    0  0.11872521826E+02 -0.10239403797E+03 -0.11355548246E+03  0.15342038907E+03  0.41800000000E+01 0. -1.
         -5    1    1    2    0  502  0.12542916986E+02  0.37449719228E+02 -0.52542222042E+02  0.65863219887E+02  0.41800000000E+01 0. -1.
        -11    1    1    2    0    0 -0.29029005881E+02  0.55590856286E+02 -0.96151379696E+02  0.11479596815E+03  0.00000000000E+00 0.  1.
         11    1    1    2    0    0  0.46135670699E+01  0.93534624591E+01  0.20018153765E+02  0.22572078798E+02  0.00000000000E+00 0. -1.
</event>
<event>
 7    1  0.2412631E-010  0.1010557E+03  0.7561462E-02  0.1278092E+00
          2   -1    0    0  501    0  0.00000000000E+00  0.00000000000E+00  0.89634382724E+03  0.89634382724E+03  0.00000000000E+00 0. -1.
         -2   -1    0    0    0  501 -0.00000000000E+00 -0.00000000000E+00 -0.12055010530E+02  0.12055010530E+02  0.00000000000E+00 0.  1.
         25    2    1    2    0    0  0.14093121236E+02 -0.96696106314E+01  0.60591036715E+03  0.61891505400E+03  0.12504540620E+03 0.  0.
          5    1    3    3  502    0  0.44312305070E+02  0.43575822665E+02  0.36705895488E+03  0.37230656919E+03  0.41800000000E+01 0. -1.
         -5    1    3    3    0  502 -0.30219183834E+02 -0.53245433297E+02  0.23885141227E+03  0.24660848481E+03  0.41800000000E+01 0. -1.
        -11    1    1    2    0    0  0.29879271219E+02 -0.82126256772E+01  0.88750795045E+02  0.94004902479E+02  0.00000000000E+00 0.  1.
         11    1    1    2    0    0 -0.43972392455E+02  0.17882236309E+02  0.18962765452E+03  0.19547888129E+03  0.00000000000E+00 0. -1.
</event>
<event>
 6    1  0.2412631E-010  0.1415936E+03  0.7561462E-02  0.1211201E+00
         -2   -1    0    0    0  501 -0.00000000000E+00  0.00000000000E+00  0.28668974819E+03  0.28668974819E+03  0.00000000000E+00 0.  1.
          2   -1    0    0  501    0  0.00000000000E+00 -0.00000000000E+00 -0.85905201547E+02  0.85905201547E+02  0.00000000000E+00 0. -1.
          5    1    1    2  502    0 -0.83494736623E+02 -0.75073741406E+02  0.22601849683E+02  0.11461131577E+03  0.41800000000E+01 0. -1.
         -5    1    1    2    0  502  0.30253453137E+02 -0.24781732422E+02  0.62956929158E+02  0.74232425647E+02  0.41800000000E+01 0. -1.
        -11    1    1    2    0    0  0.56974960050E+02  0.35707453496E+02  0.94997270802E+02  0.11638577992E+03  0.00000000000E+00 0. -1.
         11    1    1    2    0    0 -0.37336765637E+01  0.64148020332E+02  0.20228497001E+02  0.67365428404E+02  0.00000000000E+00 0.  1.
</event>
<event>
 7    1  0.2412631E-010  0.1200919E+03  0.7561462E-02  0.1242945E+00
         -2   -1    0    0    0  501 -0.00000000000E+00  0.00000000000E+00  0.89124853645E+02  0.89124853645E+02  0.00000000000E+00 0.  1.
          2   -1    0    0  501    0  0.00000000000E+00 -0.00000000000E+00 -0.19419577216E+03  0.19419577216E+03  0.00000000000E+00 0. -1.
         25    2    1    2    0    0 -0.55630758573E+02  0.48708714609E+02 -0.59600789883E+02  0.15703089671E+03  0.12505649998E+03 0.  0.
          5    1    3    3  502    0  0.20267289556E+02 -0.26312630533E+02 -0.32917212564E+02  0.46948193090E+02  0.41800000000E+01 0. -1.
         -5    1    3    3    0  502 -0.75898048128E+02  0.75021345142E+02 -0.26683577319E+02  0.11008270361E+03  0.41800000000E+01 0. -1.
        -11    1    1    2    0    0  0.64575710076E+02 -0.16736994365E+02  0.38681721727E+01  0.66821494058E+02  0.00000000000E+00 0.  1.
         11    1    1    2    0    0 -0.89449515028E+01 -0.31971720244E+02 -0.49338300805E+02  0.59468235042E+02  0.00000000000E+00 0. -1.
</event>
<event>
 7    1  0.2412631E-010  0.1096959E+03  0.7561462E-02  0.1261134E+00
         -2   -1    0    0    0  501 -0.00000000000E+00  0.00000000000E+00  0.29459757013E+02  0.29459757013E+02  0.00000000000E+00 0.  1.
          2   -1    0    0  501    0  0.00000000000E+00 -0.00000000000E+00 -0.55536645606E+03  0.55536645606E+03  0.00000000000E+00 0. -1.
         25    2    1    2    0    0  0.21317532315E+02  0.53631405881E+02 -0.35501377929E+03  0.38079285139E+03  0.12505057898E+03 0.  0.
          5    1    3    3  502    0  0.61094949227E+02  0.24753702178E+02 -0.29875024466E+03  0.30596489942E+03  0.41800000000E+01 0. -1.
         -5    1    3    3    0  502 -0.39777416912E+02  0.28877703703E+02 -0.56263534633E+02  0.74827951975E+02  0.41800000000E+01 0. -1.
        -11    1    1    2    0    0 -0.67414060110E+01  0.24047012961E+02 -0.14690188867E+02  0.28974247813E+02  0.00000000000E+00 0.  1.
         11    1    1    2    0    0 -0.14576126304E+02 -0.77678418842E+02 -0.15620273089E+03  0.17505911387E+03  0.00000000000E+00 0. -1.
</event>
<event>
 7    1  0.2412631E-010  0.1228202E+03  0.7561462E-02  0.1238516E+00
          2   -1    0    0  501    0  0.00000000000E+00  0.00000000000E+00  0.10963076718E+03  0.10963076718E+03  0.00000000000E+00 0. -1.
         -2   -1    0    0    0  501 -0.00000000000E+00 -0.00000000000E+00 -0.18077647199E+03  0.18077647199E+03  0.00000000000E+00 0.  1.
         25    2    1    2    0    0 -0.31188548726E+02 -0.53236909420E+02  0.27991086547E+02  0.14223766391E+03  0.12506461535E+03 0.  0.
          5    1    3    3  502    0 -0.45001157654E+02  0.29786270028E+02  0.19541186031E+02  0.57546993179E+02  0.41800000000E+01 0.  1.
         -5    1    3    3    0  502  0.13812608929E+02 -0.83023179447E+02  0.84499005158E+01  0.84690670736E+02  0.41800000000E+01 0.  1.
        -11    1    1    2    0    0  0.32378685111E+02  0.76958979624E+02 -0.61632876856E+02  0.10377704613E+03  0.00000000000E+00 0. -1.
         11    1    1    2    0    0 -0.11901363850E+01 -0.23722070204E+02 -0.37503914495E+02  0.44392529122E+02  0.00000000000E+00 0.  1.
</event>
<event>
 6    1  0.2412631E-010  0.9874215E+02  0.7561462E-02  0.1282963E+00
         -1   -1    0    0    0  501 -0.00000000000E+00  0.00000000000E+00  0.70089953424E+02  0.70089953424E+02  0.00000000000E+00 0.  1.
          1   -1    0    0  501    0  0.00000000000E+00 -0.00000000000E+00 -0.19964740642E+03  0.19964740642E+03  0.00000000000E+00 0. -1.
          5    1    1    2  502    0  0.53583405742E+02  0.44397103762E+02 -0.10788583626E+03  0.12844886243E+03  0.41800000000E+01 0. -1.
         -5    1    1    2    0  502 -0.16742571682E+02 -0.29489148038E+02  0.97002699298E+01  0.35517477321E+02  0.41800000000E+01 0. -1.
        -11    1    1    2    0    0 -0.40798164443E+02  0.28659484296E+02  0.32754273469E+01  0.49965835191E+02  0.00000000000E+00 0.  1.
         11    1    1    2    0    0  0.39573303828E+01 -0.43567440020E+02 -0.34647314004E+02  0.55805184897E+02  0.00000000000E+00 0. -1.
</event>
<event>
 6    1  0.2412631E-010  0.8019192E+02  0.7561462E-02  0.1328508E+00
         -2   -1    0    0    0  501 -0.00000000000E+00  0.00000000000E+00  0.32875745745E+03  0.32875745745E+03  0.00000000000E+00 0.  1.
          2   -1    0    0  501    0  0.00000000000E+00 -0.00000000000E+00 -0.38832391014E+02  0.38832391014E+02  0.00000000000E+00 0. -1.
          5    1    1    2  502    0  0.38771184923E+02  0.26927461134E+01  0.96322227520E+01  0.40258015067E+02  0.41800000000E+01 0.  1.
         -5    1    1    2    0  502 -0.42070489951E+02 -0.23595717761E+02  0.19292449273E+03  0.19890705447E+03  0.41800000000E+01 0.  1.
        -11    1    1    2    0    0  0.92298905327E+01  0.46088825963E+02  0.90877047536E+02  0.10231328617E+03  0.00000000000E+00 0.  1.
         11    1    1    2    0    0 -0.59305855052E+01 -0.25185854316E+02 -0.35086965902E+01  0.26111492753E+02  0.00000000000E+00 0. -1.
</event>
<event>
 7    1  0.2412631E-010  0.1515943E+03  0.7561462E-02  0.1198528E+00
         -1   -1    0    0    0  501 -0.00000000000E+00  0.00000000000E+00  0.53452867684E+02  0.53452867684E+02  0.00000000000E+00 0.  1.
          1   -1    0    0  501    0  0.00000000000E+00 -0.00000000000E+00 -0.53567881355E+03  0.53567881355E+03  0.00000000000E+00 0. -1.
         25    2    1    2    0    0 -0.11744525244E+03  0.53620494025E+02 -0.29098883045E+03  0.34204631092E+03  0.12511048983E+03 0.  0.
          5    1    3    3  502    0  0.11927717657E+02  0.36358686318E+02 -0.25480991563E+02  0.46162515641E+02  0.41800000000E+01 0.  1.
         -5    1    3    3    0  502 -0.12937297010E+03  0.17261807707E+02 -0.26550783889E+03  0.29588379528E+03  0.41800000000E+01 0.  1.
        -11    1    1    2    0    0  0.28284395772E+02  0.30722694377E+01  0.17118839474E+00  0.28451277461E+02  0.00000000000E+00 0.  1.
         11    1    1    2    0    0  0.89160856668E+02 -0.56692763462E+02 -0.19140830381E+03  0.21863409285E+03  0.00000000000E+00 0. -1.
</event>
<event>
 7    1  0.2412631E-010  0.2403366E+03  0.7561462E-02  0.1119569E+00
          2   -1    0    0  501    0  0.00000000000E+00  0.00000000000E+00  0.19736617741E+04  0.19736617741E+04  0.00000000000E+00 0. -1.
         -2   -1    0    0    0  501 -0.00000000000E+00 -0.00000000000E+00 -0.33017896308E+02  0.33017896308E+02  0.00000000000E+00 0.  1.
         25    2    1    2    0    0  0.22680689950E+03  0.34660412142E+02  0.11020991660E+04  0.11326522380E+04  0.12504321986E+03 0.  0.
          5    1    3    3  502    0  0.11424346988E+03  0.47361933008E+02  0.33306964318E+03  0.35531335848E+03  0.41800000000E+01 0. -1.
         -5    1    3    3    0  502  0.11256342963E+03 -0.12701520866E+02  0.76902952281E+03  0.77733887956E+03  0.41800000000E+01 0. -1.
        -11    1    1    2    0    0 -0.43274938198E+02 -0.41442902691E+02  0.15318265630E+03  0.16448453013E+03  0.00000000000E+00 0.  1.
         11    1    1    2    0    0 -0.18353196131E+03  0.67824905491E+01  0.68536205554E+03  0.70954290228E+03  0.00000000000E+00 0. -1.
</event>
<event>
 6    1  0.2412631E-010  0.6012383E+02  0.7561462E-02  0.1397313E+00
          2   -1    0    0  501    0  0.00000000000E+00  0.00000000000E+00  0.79363641346E+02  0.79363641346E+02  0.00000000000E+00 0. -1.
         -2   -1    0    0    0  501 -0.00000000000E+00 -0.00000000000E+00 -0.13313058556E+03  0.13313058556E+03  0.00000000000E+00 0.  1.
          5    1    1    2  502    0  0.21856039396E+02 -0.33007252234E+02 -0.69321544325E+02  0.79938189032E+02  0.41800000000E+01 0.  1.
         -5    1    1    2    0  502 -0.46102392452E+01  0.19452249163E+02  0.44815401985E+02  0.49249740694E+02  0.41800000000E+01 0.  1.
        -11    1    1    2    0    0  0.20276372213E+02  0.91212497674E+01 -0.38455671326E+02  0.44420345840E+02  0.00000000000E+00 0.  1.
         11    1    1    2    0    0 -0.37522172363E+02  0.44337533030E+01  0.91948694539E+01  0.38885951338E+02  0.00000000000E+00 0. -1.
</event>
<event>
 6    1  0.2412631E-010  0.1569224E+03  0.7561462E-02  0.1192216E+00
          1   -1    0    0  501    0  0.00000000000E+00  0.00000000000E+00  0.33262849745E+03  0.33262849745E+03  0.00000000000E+00 0. -1.
         -1   -1    0    0    0  501 -0.00000000000E+00 -0.00000000000E+00 -0.11322822151E+03  0.11322822151E+03  0.00000000000E+00 0.  1.
          5    1    1    2  502    0  0.19737239315E+02  0.13454999029E+03  0.41028217352E+02  0.14210575471E+03  0.41800000000E+01 0. -1.
         -5    1    1    2    0  502  0.29071346206E+02 -0.99146291155E+01 -0.27815247685E+02  0.41648570738E+02  0.41800000000E+01 0. -1.
        -11    1    1    2    0    0 -0.62983374937E+02 -0.95617642965E+02  0.10310208165E+03  0.15407685876E+03  0.00000000000E+00 0.  1.
         11    1    1    2    0    0  0.14174789415E+02 -0.29017718210E+02  0.10308522462E+03  0.10802553476E+03  0.00000000000E+00 0. -1.
</event>
<event>
 7    1  0.2412631E-010  0.9763494E+02  0.7561462E-02  0.1285349E+00
          1   -1    0    0  501    0  0.00000000000E+00  0.00000000000E+00  0.14398730854E+02  0.14398730854E+02  0.00000000000E+00 0. -1.
         -1   -1    0    0    0  501 -0.00000000000E+00 -0.00000000000E+00 -0.12178074284E+04  0.12178074284E+04  0.00000000000E+00 0.  1.
         25    2    1    2    0    0  0.10149948688E+02 -0.58452282426E+01 -0.98276180377E+03  0.99075672870E+03  0.12506376114E+03 0.  0.
          5    1    3    3  502    0 -0.51147097660E+02 -0.20052875841E+02 -0.62984373696E+03  0.63224896110E+03  0.41800000000E+01 0.  1.
         -5    1    3    3    0  502  0.61297046348E+02  0.14207647599E+02 -0.35291806682E+03  0.35850776760E+03  0.41800000000E+01 0.  1.
        -11    1    1    2    0    0 -0.15314297861E+02 -0.33813146898E+02 -0.18230578690E+03  0.18604638282E+03  0.00000000000E+00 0.  1.
         11    1    1    2    0    0  0.51643491735E+01  0.39658375141E+02 -0.38341106827E+02  0.55403047695E+02  0.00000000000E+00 0. -1.
</event>
<event>
 6    1  0.2412631E-010  0.1235603E+03  0.7561462E-02  0.1237337E+00
          1   -1    0    0  501    0  0.00000000000E+00  0.00000000000E+00  0.95624083840E+02  0.95624083840E+02  0.00000000000E+00 0. -1.
         -1   -1    0    0    0  501 -0.00000000000E+00 -0.00000000000E+00 -0.19485450036E+03  0.19485450036E+03  0.00000000000E+00 0.  1.
          5    1    1    2  502    0 -0.20512799391E+02  0.50365484220E+02 -0.67486912483E+02  0.86772188494E+02  0.41800000000E+01 0.  1.
         -5    1    1    2    0  502  0.72095088274E+02  0.13101568825E+02  0.84232936771E+01  0.73876769930E+02  0.41800000000E+01 0.  1.
        -11    1    1    2    0    0 -0.51634053545E+02  0.39319799485E+01 -0.34434205144E+02  0.62187220839E+02  0.00000000000E+00 0.  1.
         11    1    1    2    0    0  0.51764661720E-01 -0.67399032993E+02 -0.57325925686E+01  0.67642404936E+02  0.00000000000E+00 0. -1.
</event>
<event>
 7    1  0.2412631E-010  0.2196732E+03  0.7561462E-02  0.1134127E+00
         -2   -1    0    0    0  501 -0.00000000000E+00  0.00000000000E+00  0.20574219748E+02  0.20574219748E+02  0.00000000000E+00 0. -1.
          2   -1    0    0  501    0  0.00000000000E+00 -0.00000000000E+00 -0.25996749668E+04  0.25996749668E+04  0.00000000000E+00 0.  1.
         25    2    1    2    0    0 -0.60424642881E+02 -0.19044527175E+03 -0.15664945622E+04  0.15841335456E+04  0.12511330015E+03 0.  0.
          5    1    3    3  502    0 -0.41017989770E+02 -0.20185167473E+03 -0.14932222021E+04  0.15073674374E+04  0.41800000000E+01 0.  1.
         -5    1    3    3    0  502 -0.19406653111E+02  0.11406402973E+02 -0.73272360159E+02  0.76766108258E+02  0.41800000000E+01 0.  1.
        -11    1    1    2    0    0  0.45868916522E+02  0.44990559375E+02 -0.18860874138E+03  0.19925201445E+03  0.00000000000E+00 0.  1.
         11    1    1    2    0    0  0.14555726358E+02  0.14545471238E+03 -0.82399744346E+03  0.83686362650E+03  0.00000000000E+00 0. -1.
</event>
<event>
 7    1  0.2412631E-010  0.1802914E+03  0.7561462E-02  0.1167521E+00
         -1   -1    0    0    0  501 -0.00000000000E+00  0.00000000000E+00  0.32889306775E+03  0.32889306775E+03  0.00000000000E+00 0.  1.
          1   -1    0    0  501    0  0.00000000000E+00 -0.00000000000E+00 -0.13676134410E+03  0.13676134410E+03  0.00000000000E+00 0. -1.
         25    2    1    2    0    0  0.11050989254E+03  0.13078674705E+03  0.10423450479E+03  0.23630027631E+03  0.12512145716E+03 0.  0.
          5    1    3    3  502    0  0.69200009132E+02  0.50309237088E+02  0.11683481013E+03  0.14487065216E+03  0.41800000000E+01 0.  1.
         -5    1    3    3    0  502  0.41309883405E+02  0.80477509962E+02 -0.12600305338E+02  0.91429624145E+02  0.41800000000E+01 0.  1.
        -11    1    1    2    0    0 -0.95084235906E+02 -0.61164686259E+02  0.10685802700E+03  0.15556596253E+03  0.00000000000E+00 0.  1.
         11    1    1    2    0    0 -0.15425656631E+02 -0.69622060791E+02 -0.18960808141E+02  0.73788173013E+02  0.00000000000E+00 0. -1.
</event>
<event>
 6    1  0.2412631E-010  0.1153120E+03  0.7561462E-02  0.1251038E+00
          2   -1    0    0  501    0  0.00000000000E+00  0.00000000000E+00  0.62840450962E+03  0.62840450962E+03  0.00000000000E+00 0.  1.
         -2   -1    0    0    0  501 -0.00000000000E+00 -0.00000000000E+00 -0.24870000367E+02  0.24870000367E+02  0.00000000000E+00 0. -1.
          5    1    1    2  502    0  0.83201691643E+02 -0.14073512029E+02  0.26665720680E+03  0.27972151074E+03  0.41800000000E+01 0. -1.
         -5    1    1    2    0  502 -0.25895549768E+02  0.28248760505E+02  0.33901157011E+02  0.51335492737E+02  0.41800000000E+01 0. -1.
        -11    1    1    2    0    0  0.18763159051E+02  0.17055988445E+02  0.47656616942E+02  0.53982552901E+02  0.00000000000E+00 0. -1.
         11    1    1    2    0    0 -0.76069300926E+02 -0.31231236921E+02  0.25531952851E+03  0.26823495361E+03  0.00000000000E+00 0.  1.
</event>
<event>
 6    1  0.2412631E-010  0.9876532E+02  0.7561462E-02  0.1282914E+00
         -1   -1    0    0    0  501 -0.00000000000E+00  0.00000000000E+00  0.49572963741E+02  0.49572963741E+02  0.00000000000E+00 0.  1.
          1   -1    0    0  501    0  0.00000000000E+00 -0.00000000000E+00 -0.26124444613E+03  0.26124444613E+03  0.00000000000E+00 0. -1.
          5    1    1    2  502    0 -0.32015778193E+02  0.58487245742E+02 -0.51348962031E+02  0.84261238238E+02  0.41800000000E+01 0. -1.
         -5    1    1    2    0  502  0.28504018204E+02 -0.41048147149E+02 -0.10773190505E+03  0.11883208828E+03  0.41800000000E+01 0. -1.
        -11    1    1    2    0    0  0.39858557711E+02  0.88797654241E+00  0.16564941518E+01  0.39902845738E+02  0.00000000000E+00 0.  1.
         11    1    1    2    0    0 -0.36346797722E+02 -0.18327075135E+02 -0.54247109459E+02  0.67821237620E+02  0.00000000000E+00 0. -1.
</event>
<event>
 7    1  0.2412631E-010  0.8760931E+02  0.7561462E-02  0.1308747E+00
          1   -1    0    0  501    0  0.00000000000E+00  0.00000000000E+00  0.40736632301E+03  0.40736632301E+03  0.00000000000E+00 0. -1.
         -1   -1    0    0    0  501 -0.00000000000E+00 -0.00000000000E+00 -0.38653019027E+02  0.38653019027E+02  0.00000000000E+00 0.  1.
         25    2    1    2    0    0 -0.23027229177E+02  0.58913425534E+02  0.21697514122E+03  0.25830133522E+03  0.12506127648E+03 0.  0.
          5    1    3    3  502    0 -0.29206930803E+00  0.11402125483E+02 -0.15615961978E+02  0.19784449411E+02  0.41800000000E+01 0.  1.
         -5    1    3    3    0  502 -0.22735159869E+02  0.47511300052E+02  0.23259110320E+03  0.23851688581E+03  0.41800000000E+01 0.  1.
        -11    1    1    2    0    0  0.48046294257E+02 -0.20265671211E+01  0.72872550038E+02  0.87309575164E+02  0.00000000000E+00 0.  1.
         11    1    1    2    0    0 -0.25019065081E+02 -0.56886858413E+02  0.78865612725E+02  0.10040843166E+03  0.00000000000E+00 0. -1.
</event>
<event>
 6    1  0.2412631E-010  0.1413598E+03  0.7561462E-02  0.1211511E+00
          3   -1    0    0  501    0  0.00000000000E+00  0.00000000000E+00  0.12867314205E+03  0.12867314205E+03  0.00000000000E+00 0. -1.
         -3   -1    0    0    0  501 -0.00000000000E+00 -0.00000000000E+00 -0.16014334359E+03  0.16014334359E+03  0.00000000000E+00 0.  1.
          5    1    1    2  502    0 -0.15205830319E+02  0.25480182190E+02 -0.15779156208E+02  0.33866076400E+02  0.41800000000E+01 0.  1.
         -5    1    1    2    0  502  0.80717736249E+02 -0.91777454255E+02  0.64427577558E+01  0.12246401750E+03  0.41800000000E+01 0.  1.
        -11    1    1    2    0    0 -0.86490125485E+02  0.36171212367E+02 -0.18885288579E+02  0.95632382253E+02  0.00000000000E+00 0. -1.
         11    1    1    2    0    0  0.20978219555E+02  0.30126059698E+02 -0.32485145108E+01  0.36854009485E+02  0.00000000000E+00 0.  1.
</event>
<event>
 7    1  0.2412631E-010  0.1118912E+03  0.7561462E-02  0.1257107E+00
         -2   -1    0    0    0  501 -0.00000000000E+00  0.00000000000E+00  0.46024354728E+02  0.46024354728E+02  0.00000000000E+00 0.  1.
          2   -1    0    0  501    0  0.00000000000E+00 -0.00000000000E+00 -0.38902397318E+03  0.38902397318E+03  0.00000000000E+00 0. -1.
         25    2    1    2    0    0  0.58324384709E+02  0.27102096155E+02 -0.17004811612E+03  0.22069333004E+03  0.12511165678E+03 0.  0.
          5    1    3    3  502    0  0.76189855452E+02 -0.23015362741E+02 -0.13523245019E+03  0.15697098133E+03  0.41800000000E+01 0.  1.
         -5    1    3    3    0  502 -0.17865470743E+02  0.50117458896E+02 -0.34815665926E+02  0.63722348709E+02  0.41800000000E+01 0.  1.
        -11    1    1    2    0    0 -0.40186554666E+02 -0.48287882152E+02 -0.17544583129E+03  0.18635428210E+03  0.00000000000E+00 0. -1.
         11    1    1    2    0    0 -0.18137830043E+02  0.21185785997E+02  0.24943289507E+01  0.28000715775E+02  0.00000000000E+00 0.  1.
</event>
<event>
 7    1  0.2412631E-010  0.1191790E+03  0.7561462E-02  0.1244458E+00
         -2   -1    0    0    0  501 -0.00000000000E+00  0.00000000000E+00  0.80940013564E+02  0.80940013564E+02  0.00000000000E+00 0.  1.
          2   -1    0    0  501    0  0.00000000000E+00 -0.00000000000E+00 -0.22861757750E+03  0.22861757750E+03  0.00000000000E+00 0. -1.
         25    2    1    2    0    0  0.81718666971E+02  0.24340028898E+02 -0.95913672220E+02  0.17919489642E+03  0.12506398700E+03 0.  0.
          5    1    3    3  502    0 -0.12174230354E+02 -0.20411301364E+02  0.13929085314E+02  0.27862608022E+02  0.41800000000E+01 0. -1.
         -5    1    3    3    0  502  0.93892897326E+02  0.44751330262E+02 -0.10984275753E+03  0.15133228840E+03  0.41800000000E+01 0. -1.
        -11    1    1    2    0    0 -0.88189730402E+02 -0.37215530080E+02 -0.60758673529E+02  0.11337566157E+03  0.00000000000E+00 0. -1.
         11    1    1    2    0    0  0.64710634305E+01  0.12875501182E+02  0.89947818175E+01  0.16987033071E+02  0.00000000000E+00 0.  1.
</event>
<event>
 7    1  0.2412631E-010  0.1103432E+03  0.7561462E-02  0.1259936E+00
         -1   -1    0    0    0  501 -0.00000000000E+00  0.00000000000E+00  0.24159980745E+02  0.24159980745E+02  0.00000000000E+00 0.  1.
          1   -1    0    0  501    0  0.00000000000E+00 -0.00000000000E+00 -0.64236786429E+03  0.64236786429E+03  0.00000000000E+00 0. -1.
         25    2    1    2    0    0 -0.96992372007E+01  0.28685051271E+02 -0.20307400021E+03  0.24041005668E+03  0.12506413724E+03 0.  0.
          5    1    3    3  502    0 -0.58650759537E+02  0.45104050937E+02 -0.14319332011E+03  0.16123301873E+03  0.41800000000E+01 0.  1.
         -5    1    3    3    0  502  0.48951522336E+02 -0.16418999665E+02 -0.59880680103E+02  0.79177037951E+02  0.41800000000E+01 0.  1.
        -11    1    1    2    0    0 -0.13416719136E+02 -0.56810558717E+02 -0.21973698042E+03  0.22735828223E+03  0.00000000000E+00 0. -1.
         11    1    1    2    0    0  0.23115956337E+02  0.28125507446E+02 -0.19539690292E+03  0.19875950613E+03  0.00000000000E+00 0.  1.
</event>
<event>
 7    1  0.2412631E-010  0.7910284E+02  0.7561462E-02  0.1331617E+00
         -1   -1    0    0    0  501 -0.00000000000E+00  0.00000000000E+00  0.53652824477E+02  0.53652824477E+02  0.00000000000E+00 0.  1.
          1   -1    0    0  501    0  0.00000000000E+00 -0.00000000000E+00 -0.24277455143E+03  0.24277455143E+03  0.00000000000E+00 0. -1.
         25    2    1    2    0    0 -0.11583353080E+02 -0.17516171718E+02 -0.71127312467E+02  0.14546118687E+03  0.12513541452E+03 0.  0.
          5    1    3    3  502    0 -0.50780044378E+02  0.13751150884E+02  0.62714717995E+01  0.53146127010E+02  0.41800000000E+01 0.  1.
         -5    1    3    3    0  502  0.39196691298E+02 -0.31267322602E+02 -0.77398784266E+02  0.92315059862E+02  0.41800000000E+01 0.  1.
        -11    1    1    2    0    0  0.31816025770E+01  0.35302729259E+02 -0.12512030386E+03  0.13004420681E+03  0.00000000000E+00 0. -1.
         11    1    1    2    0    0  0.84017505029E+01 -0.17786557541E+02  0.71258893737E+01  0.20921982220E+02  0.00000000000E+00 0.  1.
</event>
<event>
 7    1  0.2412631E-010  0.2484985E+03  0.7561462E-02  0.1114257E+00
         -1   -1    0    0    0  501 -0.00000000000E+00  0.00000000000E+00  0.43702283329E+02  0.43702283329E+02  0.00000000000E+00 0. -1.
          1   -1    0    0  501    0  0.00000000000E+00 -0.00000000000E+00 -0.17154797829E+04  0.17154797829E+04  0.00000000000E+00 0.  1.
         25    2    1    2    0    0  0.23492396513E+03  0.65327380205E+02 -0.67073546527E+03  0.72456667803E+03  0.12511542888E+03 0.  0.
          5    1    3    3  502    0  0.18716634180E+03  0.71844785483E+02 -0.37834130073E+03  0.42819682968E+03  0.41800000000E+01 0. -1.
         -5    1    3    3    0  502  0.47757623326E+02 -0.65174052779E+01 -0.29239416454E+03  0.29636984836E+03  0.41800000000E+01 0. -1.
        -11    1    1    2    0    0 -0.16099843266E+03 -0.66409185952E+02 -0.83326967826E+03  0.85127494501E+03  0.00000000000E+00 0.  1.
         11    1    1    2    0    0 -0.73925532475E+02  0.10818057471E+01 -0.16777235599E+03  0.18334044314E+03  0.00000000000E+00 0. -1.
</event>
<event>
 6    1  0.2412631E-010  0.1011210E+03  0.7561462E-02  0.1277956E+00
         -1   -1    0    0    0  501 -0.00000000000E+00  0.00000000000E+00  0.77207877700E+02  0.77207877700E+02  0.00000000000E+00 0.  1.
          1   -1    0    0  501    0  0.00000000000E+00 -0.00000000000E+00 -0.22665404671E+03  0.22665404671E+03  0.00000000000E+00 0. -1.
          5    1    1    2  502    0  0.62471632947E+02 -0.15290010865E+02 -0.19135785385E+02  0.67231986714E+02  0.41800000000E+01 0.  1.
         -5    1    1    2    0  502 -0.58639055045E+02 -0.37652047797E+02 -0.79994816220E-02  0.69811803757E+02  0.41800000000E+01 0.  1.
        -11    1    1    2    0    0  0.14605925822E+02  0.46022730476E+02 -0.16052498316E+02  0.50883273202E+02  0.00000000000E+00 0.  1.
         11    1    1    2    0    0 -0.18438503724E+02  0.69193281858E+01 -0.11424988582E+03  0.11593486073E+03  0.00000000000E+00 0. -1.
</event>
<event>
 7    1  0.2412631E-010  0.8626537E+02  0.7561462E-02  0.1312156E+00
          2   -1    0    0  501    0  0.00000000000E+00  0.00000000000E+00  0.10750065410E+03  0.10750065410E+03  0.00000000000E+00 0. -1.
         -2   -1    0    0    0  501 -0.00000000000E+00 -0.00000000000E+00 -0.11682488745E+03  0.11682488745E+03  0.00000000000E+00 0.  1.
         25    2    1    2    0    0 -0.31248813883E+01  0.17550166042E+02  0.10342457868E+02  0.12680899491E+03  0.12512306560E+03 0.  0.
          5    1    3    3  502    0  0.50638265498E+02  0.43178960830E+02  0.51562630763E+01  0.66878367503E+02  0.41800000000E+01 0.  1.
         -5    1    3    3    0  502 -0.53763146886E+02 -0.25628794788E+02  0.51861947915E+01  0.59930627410E+02  0.41800000000E+01 0.  1.
        -11    1    1    2    0    0 -0.19727910980E+02 -0.65811834678E+01  0.33034661531E+02  0.39035769622E+02  0.00000000000E+00 0. -1.
         11    1    1    2    0    0  0.22852792368E+02 -0.10968982574E+02 -0.52701352758E+02  0.58480777015E+02  0.00000000000E+00 0.  1.
</event>
<event>
 6    1  0.2412631E-010  0.1181142E+03  0.7561462E-02  0.1246241E+00
         -1   -1    0    0    0  501 -0.00000000000E+00  0.00000000000E+00  0.14335588098E+03  0.14335588098E+03  0.00000000000E+00 0.  1.
          1   -1    0    0  501    0  0.00000000000E+00 -0.00000000000E+00 -0.13206511549E+03  0.13206511549E+03  0.00000000000E+00 0. -1.
          5    1    1    2  502    0  0.57066754276E+02  0.62057052368E+02  0.23020293233E+02  0.87493419711E+02  0.41800000000E+01 0. -1.
         -5    1    1    2    0  502 -0.51534644422E+02 -0.29728185973E+01  0.36777427715E+02  0.63519357801E+02  0.41800000000E+01 0. -1.
        -11    1    1    2    0    0  0.34979486503E+02 -0.99911508601E+01 -0.48663665347E+02  0.60758043883E+02  0.00000000000E+00 0. -1.
         11    1    1    2    0    0 -0.40511596357E+02 -0.49093082911E+02  0.15670989237E+00  0.63650175075E+02  0.00000000000E+00 0.  1.
</event>
<event>
 7    1  0.2412631E-010  0.1227006E+03  0.7561462E-02  0.1238707E+00
          2   -1    0    0  501    0  0.00000000000E+00  0.00000000000E+00  0.37282292504E+03  0.37282292504E+03  0.00000000000E+00 0. -1.
         -2   -1    0    0    0  501 -0.00000000000E+00 -0.00000000000E+00 -0.63381301575E+02  0.63381301575E+02  0.00000000000E+00 0.  1.
         25    2    1    2    0    0 -0.78966310578E+02  0.60545718426E+02  0.26013616650E+03  0.30531075111E+03  0.12506945028E+03 0.  0.
          5    1    3    3  502    0 -0.72331783279E+02  0.10165024223E+02  0.48879033170E+02  0.87987765476E+02  0.41800000000E+01 0.  1.
         -5    1    3    3    0  502 -0.66345272993E+01  0.50380694203E+02  0.21125713333E+03  0.21732298564E+03  0.41800000000E+01 0.  1.
        -11    1    1    2    0    0  0.56674914717E+02 -0.75502952533E+02  0.38515697537E+02  0.10196176125E+03  0.00000000000E+00 0. -1.
         11    1    1    2    0    0  0.22291395861E+02  0.14957234107E+02  0.10789759426E+02  0.28931714260E+02  0.00000000000E+00 0.  1.
</event>
<event>
 6    1  0.2412631E-010  0.2549653E+03  0.7561462E-02  0.1110206E+00
          2   -1    0    0  501    0  0.00000000000E+00  0.00000000000E+00  0.62730946416E+03  0.62730946416E+03  0.00000000000E+00 0. -1.
         -2   -1    0    0    0  501 -0.00000000000E+00 -0.00000000000E+00 -0.14609045599E+03  0.14609045599E+03  0.00000000000E+00 0.  1.
          5    1    1    2  502    0  0.21542257982E+02 -0.14642348475E+02 -0.27440779528E+02  0.38064892341E+02  0.41800000000E+01 0.  1.
         -5    1    1    2    0  502  0.34752429761E+02 -0.22247489071E+03  0.93458840114E+02  0.24383362272E+03  0.41800000000E+01 0.  1.
        -11    1    1    2    0    0 -0.74113871541E+02  0.12910020521E+03  0.28379294157E+03  0.32046554046E+03  0.00000000000E+00 0. -1.
         11    1    1    2    0    0  0.17819183798E+02  0.10801703398E+03  0.13140800602E+03  0.17103586463E+03  0.00000000000E+00 0.  1.
</event>
<event>
 7    1  0.2412631E-010  0.7002335E+02  0.7561462E-02  0.1360014E+00
          1   -1    0    0  501    0  0.00000000000E+00  0.00000000000E+00  0.71446404497E+02  0.71446404497E+02  0.00000000000E+00 0. -1.
         -1   -1    0    0    0  501 -0.00000000000E+00 -0.00000000000E+00 -0.23669683505E+03  0.23669683505E+03  0.00000000000E+00 0.  1.
         25    2    1    2    0    0 -0.19596592084E+01  0.67452002211E+02 -0.90943959436E+02  0.16876379642E+03  0.12512714476E+03 0.  0.
          5    1    3    3  502    0  0.27467321662E+01  0.59112551564E+02  0.15894083011E+02  0.61416061130E+02  0.41800000000E+01 0.  1.
         -5    1    3    3    0  502 -0.47063913746E+01  0.83394506473E+01 -0.10683804245E+03  0.10734773529E+03  0.41800000000E+01 0.  1.
        -11    1    1    2    0    0  0.10535586505E+02 -0.28381358635E+02 -0.91098471000E+02  0.95997039118E+02  0.00000000000E+00 0.  1.
         11    1    1    2    0    0 -0.85759272963E+01 -0.39070643576E+02  0.16791999879E+02  0.43382404018E+02  0.00000000000E+00 0. -1.
</event>
<event>
 7    1  0.2412631E-010  0.1724860E+03  0.7561462E-02  0.1175280E+00
         -1   -1    0    0    0  501 -0.00000000000E+00  0.00000000000E+00  0.29844373379E+02  0.29844373379E+02  0.00000000000E+00 0.  1.
          1   -1    0    0  501    0  0.00000000000E+00 -0.00000000000E+00 -0.12329298311E+04  0.12329298311E+04  0.00000000000E+00 0. -1.
         25    2    1    2    0    0 -0.90125878588E+02  0.11768550959E+03 -0.81963945498E+03  0.84227168972E+03  0.12506082515E+03 0.  0.
          5    1    3    3  502    0  0.24517399888E+02  0.99329244127E+01 -0.50167206000E+02  0.56868153148E+02  0.41800000000E+01 0.  1.
         -5    1    3    3    0  502 -0.11464327848E+03  0.10775258518E+03 -0.76947224898E+03  0.78540353657E+03  0.41800000000E+01 0.  1.
        -11    1    1    2    0    0  0.99584700811E+02 -0.11151694590E+03 -0.38051848721E+03  0.40883671676E+03  0.00000000000E+00 0. -1.
         11    1    1    2    0    0 -0.94588222229E+01 -0.61685636927E+01 -0.29275155342E+01  0.11665798004E+02  0.00000000000E+00 0.  1.
</event>
<event>
 7    1  0.2412631E-010  0.1686091E+03  0.7561462E-02  0.1179306E+00
          2   -1    0    0  501    0  0.00000000000E+00  0.00000000000E+00  0.10461169627E+04  0.10461169627E+04  0.00000000000E+00 0.  1.
         -2   -1    0    0    0  501 -0.00000000000E+00 -0.00000000000E+00 -0.28801538285E+02  0.28801538285E+02  0.00000000000E+00 0. -1.
         25    2    1    2    0    0  0.42549539868E+00  0.13404653398E+03  0.59460066754E+03  0.62222205533E+03  0.12506669412E+03 0.  0.
          5    1    3    3  502    0 -0.48667293498E+02  0.12216000662E+03  0.39737627607E+03  0.41858923762E+03  0.41800000000E+01 0. -1.
         -5    1    3    3    0  502  0.49092788896E+02  0.11886527364E+02  0.19722439148E+03  0.20363281771E+03  0.41800000000E+01 0. -1.
        -11    1    1    2    0    0 -0.37157837520E+02 -0.43219440337E+02  0.22405961177E+03  0.23119544662E+03  0.00000000000E+00 0.  1.
         11    1    1    2    0    0  0.36732342121E+02 -0.90827093647E+02  0.19865514514E+03  0.22150099907E+03  0.00000000000E+00 0. -1.
</event>
<event>
 6    1  0.2412631E-010  0.1299528E+03  0.7561462E-02  0.1227526E+00
          1   -1    0    0  501    0  0.00000000000E+00  0.00000000000E+00  0.62902824558E+03  0.62902824558E+03  0.00000000000E+00 0. -1.
         -1   -1    0    0    0  501 -0.00000000000E+00 -0.00000000000E+00 -0.29853170831E+02  0.29853170831E+02  0.00000000000E+00 0.  1.
          5    1    1    2  502    0 -0.10566593014E+02  0.45281397457E+02  0.18545336302E+03  0.19123932676E+03  0.41800000000E+01 0.  1.
         -5    1    1    2    0  502 -0.70343239891E+02 -0.64646418727E+02  0.17917295222E+03  0.20309542107E+03  0.41800000000E+01 0.  1.
        -11    1    1    2    0    0 -0.17334522689E+02  0.64791957628E+01  0.15536801680E+02  0.24163150892E+02  0.00000000000E+00 0.  1.
         11    1    1    2    0    0  0.98244355595E+02  0.12885825508E+02  0.21901195783E+03  0.24038351769E+03  0.00000000000E+00 0. -1.
</event>
<event>
 7    1  0.2412631E-010  0.1209887E+03  0.7561462E-02  0.1241475E+00
         -1   -1    0    0    0  501 -0.00000000000E+00  0.00000000000E+00  0.90144469369E+02  0.90144469369E+02  0.00000000000E+00 0.  1.
          1   -1    0    0  501    0  0.00000000000E+00 -0.00000000000E+00 -0.24523583287E+03  0.24523583287E+03  0.00000000000E+00 0. -1.
         25    2    1    2    0    0 -0.83097641443E+02 -0.52181419208E+02 -0.55909478702E+02  0.16851116369E+03  0.12506807728E+03 0.  0.
          5    1    3    3  502    0 -0.34966463841E+02 -0.50412231105E+02 -0.90251653550E+02  0.10921025596E+03  0.41800000000E+01 0.  1.
         -5    1    3    3    0  502 -0.48131177602E+02 -0.17691881028E+01  0.34342174848E+02  0.59300907726E+02  0.41800000000E+01 0.  1.
        -11    1    1    2    0    0  0.81474309693E+02  0.15579498839E+01 -0.74973205853E+02  0.11073153094E+03  0.00000000000E+00 0. -1.
         11    1    1    2    0    0  0.16233317492E+01  0.50623469324E+02 -0.24208678944E+02  0.56137607613E+02  0.00000000000E+00 0.  1.
</event>
<event>
 7    1  0.2412631E-010  0.1018593E+03  0.7561462E-02  0.1276434E+00
         -1   -1    0    0    0  501 -0.00000000000E+00  0.00000000000E+00  0.19187978258E+03  0.19187978258E+03  0.00000000000E+00 0.  1.
          1   -1    0    0  501    0  0.00000000000E+00 -0.00000000000E+00 -0.73636302674E+02  0.73636302674E+02  0.00000000000E+00 0. -1.
         25    2    1    2    0    0 -0.35923388826E+02  0.10406338177E+02  0.10621581884E+03  0.16833776518E+03  0.12512801954E+03 0.  0.
          5    1    3    3  502    0  0.35590328617E+02 -0.19067525156E+02  0.50254306159E+01  0.40901948114E+02  0.41800000000E+01 0.  1.
         -5    1    3    3    0  502 -0.71513717443E+02  0.29473863333E+02  0.10119038822E+03  0.12743581706E+03  0.41800000000E+01 0.  1.
        -11    1    1    2    0    0  0.18996994215E+02  0.33553748318E+02 -0.16682581709E+02  0.42012478478E+02  0.00000000000E+00 0. -1.
         11    1    1    2    0    0  0.16926394611E+02 -0.43960086495E+02  0.28710242783E+02  0.55165841604E+02  0.00000000000E+00 0.  1.
</event>
<event>
 6    1  0.2412631E-010  0.6385696E+02  0.7561462E-02  0.1382323E+00
          1   -1    0    0  501    0  0.00000000000E+00  0.00000000000E+00  0.10006715675E+03  0.10006715675E+03  0.00000000000E+00 0. -1.
         -1   -1    0    0    0  501 -0.00000000000E+00 -0.00000000000E+00 -0.14245883737E+03  0.14245883737E+03  0.00000000000E+00 0.  1.
          5    1    1    2  502    0  0.24099907722E+02 -0.14779640796E+02 -0.97714451298E+02  0.10180780779E+03  0.41800000000E+01 0.  1.
         -5    1    1    2    0  502  0.44405192698E+01 -0.13926417900E+02  0.39100731621E+02  0.41952388969E+02  0.41800000000E+01 0.  1.
        -11    1    1    2    0    0 -0.52916437523E+02  0.27230873659E+02 -0.12762486390E+02  0.60865021969E+02  0.00000000000E+00 0.  1.
         11    1    1    2    0    0  0.24376010531E+02  0.14751850374E+01  0.28984525445E+02  0.37900775396E+02  0.00000000000E+00 0. -1.
</event>
<event>
 6    1  0.2412631E-010  0.6554098E+02  0.7561462E-02  0.1375948E+00
          2   -1    0    0  501    0  0.00000000000E+00  0.00000000000E+00  0.25598705444E+03  0.25598705444E+03  0.00000000000E+00 0. -1.
         -2   -1    0    0    0  501 -0.00000000000E+00 -0.00000000000E+00 -0.93446493562E+02  0.93446493562E+02  0.00000000000E+00 0.  1.
          5    1    1    2  502    0  0.37141805370E+02  0.32450325082E+02  0.31765425475E+02  0.58813705543E+02  0.41800000000E+01 0. -1.
         -5    1    1    2    0  502 -0.38901378059E+02 -0.30528290258E+02  0.18393707127E+03  0.19051407378E+03  0.41800000000E+01 0. -1.
        -11    1    1    2    0    0 -0.14991714816E+02 -0.24905992942E+01 -0.72752963877E+02  0.74323269243E+02  0.00000000000E+00 0.  1.
         11    1    1    2    0    0  0.16751287504E+02  0.56856447096E+00  0.19591028006E+02  0.25782499431E+02  0.00000000000E+00 0. -1.
</event>
<event>
 6    1  0.2412631E-010  0.9936965E+02  0.7561462E-02  0.1281627E+00
          1   -1    0    0  501    0  0.00000000000E+00  0.00000000000E+00  0.31860836784E+03  0.31860836784E+03  0.00000000000E+00 0. -1.
         -1   -1    0    0    0  501 -0.00000000000E+00 -0.00000000000E+00 -0.46655921248E+02  0.46655921248E+02  0.00000000000E+00 0.  1.
          5    1    1    2  502    0 -0.57858500587E+02 -0.43690671738E+02  0.26081658461E+02  0.77163503000E+02  0.41800000000E+01 0. -1.
         -5    1    1    2    0  502  0.29580670411E+02 -0.35861166893E+01  0.11695131954E+03  0.12075992646E+03  0.41800000000E+01 0. -1.
        -11    1    1    2    0    0  0.55781784542E+02  0.35422731242E+02  0.11841173830E+03  0.13560131689E+03  0.00000000000E+00 0. -1.
         11    1    1    2    0    0 -0.27503954367E+02  0.11854057185E+02  0.10507730286E+02  0.31739542740E+02  0.00000000000E+00 0.  1.
</event>
<event>
 7    1  0.2412631E-010  0.1885870E+03  0.7561462E-02  0.1159742E+00
         -1   -1    0    0    0  501 -0.00000000000E+00  0.00000000000E+00  0.12918104263E+03  0.12918104263E+03  0.00000000000E+00 0.  1.
          1   -1    0    0  501    0  0.00000000000E+00 -0.00000000000E+00 -0.29903731251E+03  0.29903731251E+03  0.00000000000E+00 0. -1.
         25    2    1    2    0    0 -0.14776106053E+03 -0.55497228813E+02 -0.43230833030E+02  0.20596579251E+03  0.12505890350E+03 0.  0.
          5    1    3    3  502    0 -0.73853680991E+02 -0.88966777829E+02 -0.46411274650E+02  0.12466327674E+03  0.41800000000E+01 0. -1.
         -5    1    3    3    0  502 -0.73907379537E+02  0.33469549017E+02  0.31804416208E+01  0.81302515769E+02  0.41800000000E+01 0. -1.
        -11    1    1    2    0    0  0.90309721321E+02 -0.12547358135E+02 -0.46005226053E+02  0.10212621008E+03  0.00000000000E+00 0. -1.
         11    1    1    2    0    0  0.57451339208E+02  0.68044586947E+02 -0.80620210795E+02  0.12012635256E+03  0.00000000000E+00 0.  1.
</event>
<event>
 7    1  0.2412631E-010  0.1023569E+03  0.7561462E-02  0.1275416E+00
         -2   -1    0    0    0  501 -0.00000000000E+00  0.00000000000E+00  0.11199903534E+03  0.11199903534E+03  0.00000000000E+00 0.  1.
          2   -1    0    0  501    0  0.00000000000E+00 -0.00000000000E+00 -0.12122650257E+03  0.12122650257E+03  0.00000000000E+00 0. -1.
         25    2    1    2    0    0 -0.26237839427E+01  0.20218502171E+02  0.33266275614E+02  0.13100591239E+03  0.12506091282E+03 0.  0.
          5    1    3    3  502    0  0.44811492895E+02  0.50296828785E+02  0.41963465328E+01  0.67623388007E+02  0.41800000000E+01 0. -1.
         -5    1    3    3    0  502 -0.47435276838E+02 -0.30078326614E+02  0.29069929081E+02  0.63382524385E+02  0.41800000000E+01 0. -1.
        -11    1    1    2    0    0  0.12950686873E+02  0.28389935306E+02 -0.42252140103E+02  0.52525727605E+02  0.00000000000E+00 0. -1.
         11    1    1    2    0    0 -0.10326902930E+02 -0.48608437478E+02 -0.24160274396E+00  0.49693897916E+02  0.00000000000E+00 0.  1.
</event>
<event>
 6    1  0.2412631E-010  0.1817441E+03  0.7561462E-02  0.1166126E+00
          1   -1    0    0  501    0  0.00000000000E+00  0.00000000000E+00  0.99646918782E+03  0.99646918782E+03  0.00000000000E+00 0. -1.
         -1   -1    0    0    0  501 -0.00000000000E+00 -0.00000000000E+00 -0.41083475503E+02  0.41083475503E+02  0.00000000000E+00 0.  1.
          5    1    1    2  502    0  0.15258617325E+02  0.10582665591E+03  0.39031258795E+03  0.40471409070E+03  0.41800000000E+01 0.  1.
         -5    1    1    2    0  502  0.84973073683E+02  0.56941064089E-01  0.33536440954E+03  0.34598726288E+03  0.41800000000E+01 0.  1.
        -11    1    1    2    0    0  0.18606906936E+01 -0.59064352765E+02  0.70090472865E+02  0.91677338115E+02  0.00000000000E+00 0.  1.
         11    1    1    2    0    0 -0.10209238170E+03 -0.46819244211E+02  0.15961824197E+03  0.19517397162E+03  0.00000000000E+00 0. -1.
</event>
<event>
 7    1  0.2412631E-010  0.1042528E+03  0.7561462E-02  0.1271599E+00
         -1   -1    0    0    0  501 -0.00000000000E+00  0.00000000000E+00  0.59687998012E+02  0.59687998012E+02  0.00000000000E+00 0.  1.
          1   -1    0    0  501    0  0.00000000000E+00 -0.00000000000E+00 -0.21048426271E+03  0.21048426271E+03  0.00000000000E+00 0. -1.
         25    2    1    2    0    0 -0.53536434426E+01 -0.27061991760E+02 -0.71077278969E+02  0.14647641086E+03  0.12506936658E+03 0.  0.
          5    1    3    3  502    0  0.34429968661E+02  0.29164839966E+02  0.27785250189E+01  0.45400476138E+02  0.41800000000E+01 0. -1.
         -5    1    3    3    0  502 -0.39783612104E+02 -0.56226831726E+02 -0.73855803988E+02  0.10107593473E+03  0.41800000000E+01 0. -1.
        -11    1    1    2    0    0  0.84133933044E+01  0.60261087558E+02 -0.56808960664E+02  0.83243269231E+02  0.00000000000E+00 0.  1.
         11    1    1    2    0    0 -0.30597498619E+01 -0.33199095798E+02 -0.22910025069E+02  0.40452580631E+02  0.00000000000E+00 0. -1.
</event>
<event>
 6    1  0.2412631E-010  0.1684592E+03  0.7561462E-02  0.1179464E+00
          2   -1    0    0  501    0  0.00000000000E+00  0.00000000000E+00  0.43175506455E+03  0.43175506455E+03  0.00000000000E+00 0.  1.
         -2   -1    0    0    0  501 -0.00000000000E+00 -0.00000000000E+00 -0.77600012329E+02  0.77600012329E+02  0.00000000000E+00 0. -1.
          5    1    1    2  502    0 -0.33372274069E+02 -0.92032935940E+02  0.52996222467E+02  0.11139947024E+03  0.41800000000E+01 0. -1.
         -5    1    1    2    0  502 -0.87380113296E+02  0.17970274413E+02  0.78076574866E+02  0.11862393900E+03  0.41800000000E+01 0. -1.
        -11    1    1    2    0    0  0.11912244898E+03  0.56244113760E+02  0.22561745865E+03  0.26126001575E+03  0.00000000000E+00 0.  1.
         11    1    1    2    0    0  0.16299383886E+01  0.17818547767E+02 -0.25352037606E+01  0.18071651883E+02  0.00000000000E+00 0. -1.
</event>
<event>
 6    1  0.2412631E-010  0.1207745E+03  0.7561462E-02  0.1241825E+00
         -1   -1    0    0    0  501 -0.00000000000E+00  0.00000000000E+00  0.33690690159E+02  0.33690690159E+02  0.00000000000E+00 0. -1.
          1   -1    0    0  501    0  0.00000000000E+00 -0.00000000000E+00 -0.48360312332E+03  0.48360312332E+03  0.00000000000E+00 0.  1.
          5    1    1    2  502    0 -0.31846884181E+02 -0.28044341975E+02 -0.36206268603E+02  0.55938139360E+02  0.41800000000E+01 0.  1.
         -5    1    1    2    0  502  0.17386053504E+02  0.90467142920E+02 -0.17236405997E+03  0.19548253215E+03  0.41800000000E+01 0.  1.
        -11    1    1    2    0    0  0.32822233502E+02 -0.76703047401E+02 -0.21559379979E+03  0.23117383719E+03  0.00000000000E+00 0. -1.
         11    1    1    2    0    0 -0.18361402825E+02  0.14280246457E+02 -0.25748304797E+02  0.34699304784E+02  0.00000000000E+00 0.  1.
</event>
<event>
 7    1  0.2412631E-010  0.1748666E+03  0.7561462E-02  0.1172866E+00
         -2   -1    0    0    0  501 -0.00000000000E+00  0.00000000000E+00  0.41250637056E+02  0.41250637056E+02  0.00000000000E+00 0.  1.
          2   -1    0    0  501    0  0.00000000000E+00 -0.00000000000E+00 -0.75687739612E+03  0.75687739612E+03  0.00000000000E+00 0. -1.
         25    2    1    2    0    0 -0.18195824207E+02  0.13586744253E+03 -0.43106248706E+03  0.46932753389E+03  0.12514957594E+03 0.  0.
          5    1    3    3  502    0 -0.48355267283E+02  0.29159960485E+01 -0.97333471062E+02  0.10880262817E+03  0.41800000000E+01 0.  1.
         -5    1    3    3    0  502  0.30159443075E+02  0.13295144648E+03 -0.33372901600E+03  0.36052490572E+03  0.41800000000E+01 0.  1.
        -11    1    1    2    0    0  0.74273398450E+01 -0.14817620161E+03 -0.25560330759E+03  0.29554086511E+03  0.00000000000E+00 0. -1.
         11    1    1    2    0    0  0.10768484362E+02  0.12308759080E+02 -0.28960964411E+02  0.33259634170E+02  0.00000000000E+00 0.  1.
</event>
<event>
 6    1  0.2412631E-010  0.1009069E+03  0.7561462E-02  0.1278400E+00
         -2   -1    0    0    0  501 -0.00000000000E+00  0.00000000000E+00  0.66192762075E+02  0.66192762075E+02  0.00000000000E+00 0.  1.
          2   -1    0    0  501    0  0.00000000000E+00 -0.00000000000E+00 -0.21509558088E+03  0.21509558088E+03  0.00000000000E+00 0. -1.
          5    1    1    2  502    0 -0.15107221728E+02  0.73138557596E+02 -0.93069173115E+02  0.11940192687E+03  0.41800000000E+01 0.  1.
         -5    1    1    2    0  502 -0.79617151307E+01 -0.30760827390E+02  0.15314654271E+02  0.35519409412E+02  0.41800000000E+01 0.  1.
        -11    1    1    2    0    0  0.50996528903E+02 -0.95793124452E+01 -0.64497652854E+02  0.82778961161E+02  0.00000000000E+00 0. -1.
         11    1    1    2    0    0 -0.27927592045E+02 -0.32798417761E+02 -0.66506471097E+01  0.43588045517E+02  0.00000000000E+00 0.  1.
</event>
<event>
 7    1  0.2412631E-010  0.2102893E+03  0.7561462E-02  0.1141337E+00
          3   -1    0    0  501    0  0.00000000000E+00  0.00000000000E+00  0.21712702073E+03  0.21712702073E+03  0.00000000000E+00 0. -1.
         -3   -1    0    0    0  501 -0.00000000000E+00 -0.00000000000E+00 -0.24929733603E+03  0.24929733603E+03  0.00000000000E+00 0.  1.
         25    2    1    2    0    0 -0.18340167194E+03  0.55195190530E+02  0.57955686946E+02  0.23600269705E+03  0.12512285578E+03 0.  0.
          5    1    3    3  502    0 -0.88756942442E+02  0.91056895664E+02  0.37758259845E+02  0.13271138484E+03  0.41800000000E+01 0. -1.
         -5    1    3    3    0  502 -0.94644729498E+02 -0.35861705133E+02  0.20197427101E+02  0.10329131221E+03  0.41800000000E+01 0. -1.
        -11    1    1    2    0    0  0.10111645413E+03 -0.23028580282E+02 -0.96744521871E+02  0.14182508705E+03  0.00000000000E+00 0.  1.
         11    1    1    2    0    0  0.82285217811E+02 -0.32166610248E+02  0.66185196283E+01  0.88596572660E+02  0.00000000000E+00 0. -1.
</event>
<event>
 6    1  0.2412631E-010  0.9330527E+02  0.7561462E-02  0.1295039E+00
         -3   -1    0    0    0  501 -0.00000000000E+00  0.00000000000E+00  0.26054323164E+02  0.26054323164E+02  0.00000000000E+00 0.  1.
          3   -1    0    0  501    0  0.00000000000E+00 -0.00000000000E+00 -0.80410139211E+03  0.80410139211E+03  0.00000000000E+00 0. -1.
          5    1    1    2  502    0  0.65707563785E+01  0.32048309655E+02 -0.56681454526E+03  0.56777325590E+03  0.41800000000E+01 0.  1.
         -5    1    1    2    0  502 -0.41714573154E+02 -0.20395289741E+02 -0.84553969746E+02  0.96555267370E+02  0.41800000000E+01 0.  1.
        -11    1    1    2    0    0  0.59916821386E+02 -0.37915316088E+02 -0.84414414661E+02  0.11024241508E+03  0.00000000000E+00 0. -1.
         11    1    1    2    0    0 -0.24773004611E+02  0.26262296174E+02 -0.42264139281E+02  0.55584776936E+02  0.00000000000E+00 0.  1.
</event>
<event>
 6    1  0.2412631E-010  0.1020426E+03  0.7561462E-02  0.1276058E+00
         -2   -1    0    0    0  501 -0.00000000000E+00  0.00000000000E+00  0.23193722488E+02  0.23193722488E+02  0.00000000000E+00 0. -1.
          2   -1    0    0  501    0  0.00000000000E+00 -0.00000000000E+00 -0.54621417930E+03  0.54621417930E+03  0.00000000000E+00 0.  1.
          5    1    1    2  502    0 -0.31730289491E+02  0.44832238587E+02 -0.84859182526E+02  0.10116963056E+03  0.41800000000E+01 0.  1.
         -5    1    1    2    0  502  0.47791632199E+02 -0.51004159639E+02 -0.15164972560E+03  0.16703465533E+03  0.41800000000E+01 0.  1.
        -11    1    1    2    0    0 -0.24029096847E+02  0.38665801295E+02 -0.23774203344E+03  0.24206138922E+03  0.00000000000E+00 0.  1.
         11    1    1    2    0    0  0.79677541392E+01 -0.32493880243E+02 -0.48769515250E+02  0.59142226683E+02  0.00000000000E+00 0. -1.
</event>
<event>
 7    1  0.2412631E-010  0.1067365E+03  0.7561462E-02  0.1266735E+00
          1   -1    0    0  501    0  0.00000000000E+00  0.00000000000E+00  0.24820020973E+03  0.24820020973E+03  0.00000000000E+00 0. -1.
         -1   -1    0    0    0  501 -0.00000000000E+00 -0.00000000000E+00 -0.71739670534E+02  0.71739670534E+02  0.00000000000E+00 0.  1.
         25    2    1    2    0    0  0.10548496248E+02  0.66292822530E+02  0.11841444420E+03  0.18490297835E+03  0.12514440345E+03 0.  0.
          5    1    3    3  502    0  0.34453109108E+02 -0.21719647065E+02  0.71170910080E+02  0.82106824549E+02  0.41800000000E+01 0. -1.
         -5    1    3    3    0  502 -0.23904612861E+02  0.88012469595E+02  0.47243534117E+02  0.10279615380E+03  0.41800000000E+01 0. -1.
        -11    1    1    2    0    0  0.16830950923E+02 -0.39455928589E+02 -0.20568354776E+02  0.47572139199E+02  0.00000000000E+00 0.  1.
         11    1    1    2    0    0 -0.27379447171E+02 -0.26836893941E+02  0.78614449779E+02  0.87464762721E+02  0.00000000000E+00 0. -1.
</event>
<event>
 6    1  0.2412631E-010  0.1135765E+03  0.7561462E-02  0.1254087E+00
          2   -1    0    0  501    0  0.00000000000E+00  0.00000000000E+00  0.12791742561E+03  0.12791742561E+03  0.00000000000E+00 0. -1.
         -2   -1    0    0    0  501 -0.00000000000E+00 -0.00000000000E+00 -0.12469138177E+03  0.12469138177E+03  0.00000000000E+00 0.  1.
          5    1    1    2  502    0 -0.35541132241E+02 -0.71276968963E+02 -0.48285230764E+01  0.79902224128E+02  0.41800000000E+01 0.  1.
         -5    1    1    2    0  502 -0.11378074568E+02  0.49847932381E+02 -0.32176240888E+02  0.60556253361E+02  0.41800000000E+01 0.  1.
        -11    1    1    2    0    0  0.47644393063E+02 -0.22128630825E+02 -0.46614180462E+00  0.52534577002E+02  0.00000000000E+00 0.  1.
         11    1    1    2    0    0 -0.72518625465E+00  0.43557667407E+02  0.40696949603E+02  0.59615752885E+02  0.00000000000E+00 0. -1.
</event>
<event>
 6    1  0.2412631E-010  0.9280435E+02  0.7561462E-02  0.1296199E+00
         -1   -1    0    0    0  501 -0.00000000000E+00  0.00000000000E+00  0.64809895729E+02  0.64809895729E+02  0.00000000000E+00 0.  1.
          1   -1    0    0  501    0  0.00000000000E+00 -0.00000000000E+00 -0.28290624147E+03  0.28290624147E+03  0.00000000000E+00 0. -1.
          5    1    1    2  502    0  0.80325765070E+02 -0.15770544604E+02 -0.30449885475E+02  0.87439159058E+02  0.41800000000E+01 0.  1.
         -5    1    1    2    0  502 -0.44758228812E+02  0.82308193336E+01  0.30386475803E+01  0.45801214094E+02  0.41800000000E+01 0.  1.
        -11    1    1    2    0    0 -0.26052968374E+02 -0.17346466757E+02 -0.18448444798E+03  0.18712073273E+03  0.00000000000E+00 0. -1.
         11    1    1    2    0    0 -0.95145678838E+01  0.24886192027E+02 -0.62006598623E+01  0.27355031317E+02  0.00000000000E+00 0.  1.
</event>
<event>
 7    1  0.2412631E-010  0.1433205E+03  0.7561462E-02  0.1208930E+00
          1   -1    0    0  501    0  0.00000000000E+00  0.00000000000E+00  0.13927300042E+03  0.13927300042E+03  0.00000000000E+00 0. -1.
         -1   -1    0    0    0  501 -0.00000000000E+00 -0.00000000000E+00 -0.17472952409E+03  0.17472952409E+03  0.00000000000E+00 0.  1.
         25    2    1    2    0    0  0.99761582057E+02 -0.33367993933E+02  0.18631277738E+02  0.16447592441E+03  0.12505762243E+03 0.  0.
          5    1    3    3  502    0  0.53951324515E+01 -0.58659262072E+02 -0.15239855055E+02  0.60989688170E+02  0.41800000000E+01 0. -1.
         -5    1    3    3    0  502  0.94366449605E+02  0.25291268139E+02  0.33871132792E+02  0.10348623624E+03  0.41800000000E+01 0. -1.
        -11    1    1    2    0    0 -0.30315628465E+01  0.32929498565E+02 -0.39801155697E+02  0.51746248597E+02  0.00000000000E+00 0.  1.
         11    1    1    2    0    0 -0.96730019210E+02  0.43849536839E+00 -0.14286645709E+02  0.97780351504E+02  0.00000000000E+00 0. -1.
</event>
<event>
 7    1  0.2412631E-010  0.1083116E+03  0.7561462E-02  0.1263729E+00
         -1   -1    0    0    0  501 -0.00000000000E+00  0.00000000000E+00  0.69348658591E+02  0.69348658591E+02  0.00000000000E+00 0.  1.
          1   -1    0    0  501    0  0.00000000000E+00 -0.00000000000E+00 -0.24269162120E+03  0.24269162120E+03  0.00000000000E+00 0. -1.
         25    2    1    2    0    0 -0.24265832162E+02 -0.32395506642E+02 -0.16489190331E+03  0.21092635204E+03  0.12514905810E+03 0.  0.
          5    1    3    3  502    0 -0.69051250642E+02  0.18159835452E+01 -0.12092243457E+03  0.13932365411E+03  0.41800000000E+01 0. -1.
         -5    1    3    3    0  502  0.44785418480E+02 -0.34211490187E+02 -0.43969468746E+02  0.71602697932E+02  0.41800000000E+01 0. -1.
        -11    1    1    2    0    0  0.25256166502E+02  0.59056335288E+02  0.14585328774E+02  0.65865442376E+02  0.00000000000E+00 0.  1.
         11    1    1    2    0    0 -0.99033434008E+00 -0.26660828646E+02 -0.23036388068E+02  0.35248485377E+02  0.00000000000E+00 0. -1.
</event>
<event>
 7    1  0.2412631E-010  0.2092578E+03  0.7561462E-02  0.1142155E+00
         -2   -1    0    0    0  501 -0.00000000000E+00  0.00000000000E+00  0.58369335165E+03  0.58369335165E+03  0.00000000000E+00 0.  1.
          2   -1    0    0  501    0  0.00000000000E+00 -0.00000000000E+00 -0.10754170488E+03  0.10754170488E+03  0.00000000000E+00 0. -1.
         25    2    1    2    0    0 -0.14133862920E+03  0.12148173681E+03  0.42031361362E+03  0.47648582980E+03  0.12506315096E+03 0.  0.
          5    1    3    3  502    0 -0.15370097779E+03  0.12605051505E+03  0.41743063067E+03  0.46236190018E+03  0.41800000000E+01 0.  1.
         -5    1    3    3    0  502  0.12362348590E+02 -0.45687782400E+01  0.28829829496E+01  0.14123929622E+02  0.41800000000E+01 0.  1.
        -11    1    1    2    0    0  0.99825451692E+02 -0.12957839101E+03  0.54572101923E+02  0.17243489940E+03  0.00000000000E+00 0.  1.
         11    1    1    2    0    0  0.41513177506E+02  0.80966541967E+01  0.12659312320E+01  0.42314327334E+02  0.00000000000E+00 0. -1.
</event>
<event>
 6    1  0.2412631E-010  0.1175047E+03  0.7561462E-02  0.1247271E+00
         -1   -1    0    0    0  501 -0.00000000000E+00  0.00000000000E+00  0.59992937670E+02  0.59992937670E+02  0.00000000000E+00 0.  1.
          1   -1    0    0  501    0  0.00000000000E+00 -0.00000000000E+00 -0.24938233438E+03  0.24938233438E+03  0.00000000000E+00 0. -1.
          5    1    1    2  502    0  0.15445416918E+02 -0.38265532103E+02 -0.42044026936E+02  0.59059160609E+02  0.41800000000E+01 0.  1.
         -5    1    1    2    0  502 -0.58166113388E+02  0.71478399084E+02 -0.47274565834E+02  0.10365720070E+03  0.41800000000E+01 0.  1.
        -11    1    1    2    0    0  0.19669340833E+01 -0.55024927819E+02 -0.29964664135E+02  0.62685665091E+02  0.00000000000E+00 0.  1.
         11    1    1    2    0    0  0.40753762386E+02  0.21812060838E+02 -0.70106139801E+02  0.83973245646E+02  0.00000000000E+00 0. -1.
</event>
<event>
 7    1  0.2477787E-010  0.1171760E+03  0.7561462E-02  0.1247830E+00
         -1   -1    0    0    0  501 -0.00000000000E+00  0.00000000000E+00  0.28629314560E+03  0.28629314560E+03  0.00000000000E+00 0.  1.
          1   -1    0    0  501    0  0.00000000000E+00 -0.00000000000E+00 -0.77722949090E+02  0.77722949090E+02  0.00000000000E+00 0. -1.
         25    2    1    2    0    0  0.31472096408E+02  0.89633308341E+02  0.67049608169E+02  0.17076914598E+03  0.12506729568E+03 0.  0.
          5    1    3    3  502    0  0.56392213491E+02  0.62310949979E+02  0.92987211946E+02  0.12540665937E+03  0.41800000000E+01 0. -1.
         -5    1    3    3    0  502 -0.24920117083E+02  0.27322358362E+02 -0.25937603777E+02  0.45362486611E+02  0.41800000000E+01 0. -1.
        -11    1    1    2    0    0 -0.97827599313E+01 -0.90748656536E+02  0.60836291409E+02  0.10969081733E+03  0.00000000000E+00 0. -1.
         11    1    1    2    0    0 -0.21689336477E+02  0.11153481947E+01  0.80684296929E+02  0.83556131369E+02  0.00000000000E+00 0.  1.
</event>
<event>
 7    1  0.2412631E-010  0.2537095E+03  0.7561462E-02  0.1110983E+00
          2   -1    0    0  501    0  0.00000000000E+00  0.00000000000E+00  0.23930270989E+03  0.23930270989E+03  0.00000000000E+00 0. -1.
         -2   -1    0    0    0  501 -0.00000000000E+00 -0.00000000000E+00 -0.64214362429E+03  0.64214362429E+03  0.00000000000E+00 0.  1.
         25    2    1    2    0    0 -0.13501265042E+03  0.21314301665E+03  0.11023872917E+03  0.30239960767E+03  0.12503833007E+03 0.  0.
          5    1    3    3  502    0 -0.62089809662E+02  0.12695211848E+03  0.12467493571E+03  0.18850277676E+03  0.41800000000E+01 0.  1.
         -5    1    3    3    0  502 -0.72922840763E+02  0.86190898177E+02 -0.14436206542E+02  0.11389683092E+03  0.41800000000E+01 0.  1.
        -11    1    1    2    0    0  0.78841226354E+02 -0.10628624127E+03 -0.36343346735E+03  0.38677718295E+03  0.00000000000E+00 0.  1.
         11    1    1    2    0    0  0.56171424070E+02 -0.10685677538E+03 -0.14964617622E+03  0.19226954357E+03  0.00000000000E+00 0. -1.
</event>
<event>
 7    1  0.2412631E-010  0.1293991E+03  0.7561462E-02  0.1228350E+00
         -2   -1    0    0    0  501 -0.00000000000E+00  0.00000000000E+00  0.15529594451E+02  0.15529594451E+02  0.00000000000E+00 0.  1.
          2   -1    0    0  501    0  0.00000000000E+00 -0.00000000000E+00 -0.21490111342E+04  0.21490111342E+04  0.00000000000E+00 0. -1.
         25    2    1    2    0    0 -0.72120404763E+02  0.59572285829E+02 -0.17951565553E+04  0.18019364878E+04  0.12505134198E+03 0.  0.
          5    1    3    3  502    0 -0.10117837992E+03  0.20514348317E+02 -0.13921351030E+04  0.13959640111E+04  0.41800000000E+01 0.  1.
         -5    1    3    3    0  502  0.29057975160E+02  0.39057937512E+02 -0.40302145231E+03  0.40597247668E+03  0.41800000000E+01 0.  1.
        -11    1    1    2    0    0  0.56355106257E+02 -0.13540185085E+02 -0.28323012554E+03  0.28909953066E+03  0.00000000000E+00 0. -1.
         11    1    1    2    0    0  0.15765298506E+02 -0.46032100744E+02 -0.55094858877E+02  0.73504710125E+02  0.00000000000E+00 0.  1.
</event>
<event>
 6    1  0.2412631E-010  0.6289077E+02  0.7561462E-02  0.1386086E+00
          3   -1    0    0  501    0  0.00000000000E+00  0.00000000000E+00  0.30265650085E+03  0.30265650085E+03  0.00000000000E+00 0. -1.
         -3   -1    0    0    0  501 -0.00000000000E+00 -0.00000000000E+00 -0.84620867509E+02  0.84620867509E+02  0.00000000000E+00 0.  1.
          5    1    1    2  502    0 -0.33887285238E+02 -0.48883715596E+01 -0.67115195423E+02  0.75459698740E+02  0.41800000000E+01 0. -1.
         -5    1    1    2    0  502  0.94503715013E+01  0.24111115333E+02  0.48210687069E+02  0.54885318180E+02  0.41800000000E+01 0. -1.
        -11    1    1    2    0    0  0.60572469135E+01 -0.38177205859E+02  0.22439696888E+03  0.22770197392E+03  0.00000000000E+00 0. -1.
         11    1    1    2    0    0  0.18379666823E+02  0.18954462087E+02  0.12543172823E+02  0.29230377521E+02  0.00000000000E+00 0.  1.
</event>
<event>
 7    1  0.2412631E-010  0.1025223E+03  0.7561462E-02  0.1275080E+00
          1   -1    0    0  501    0  0.00000000000E+00  0.00000000000E+00  0.29432022621E+02  0.29432022621E+02  0.00000000000E+00 0. -1.
         -1   -1    0    0    0  501 -0.00000000000E+00 -0.00000000000E+00 -0.60612616705E+03  0.60612616705E+03  0.00000000000E+00 0.  1.
         25    2    1    2    0    0  0.92101281149E+01 -0.31633835805E+02 -0.48949220101E+03  0.50628989762E+03  0.12506526117E+03 0.  0.
          5    1    3    3  502    0 -0.54536887783E+02 -0.34846763729E+02 -0.22388405598E+03  0.23308820647E+03  0.41800000000E+01 0.  1.
         -5    1    3    3    0  502  0.63747015898E+02  0.32129279240E+01 -0.26560814503E+03  0.27320169115E+03  0.41800000000E+01 0.  1.
        -11    1    1    2    0    0 -0.38049198054E+02  0.78637722234E+01 -0.83020761015E+02  0.91662572218E+02  0.00000000000E+00 0.  1.
         11    1    1    2    0    0  0.28839069940E+02  0.23770063582E+02 -0.41811823980E+01  0.37605719830E+02  0.00000000000E+00 0. -1.
</event>
<event>
 6    1  0.2412631E-010  0.1164698E+03  0.7561462E-02  0.1249037E+00
         -2   -1    0    0    0  501 -0.00000000000E+00  0.00000000000E+00  0.45001594491E+02  0.45001594491E+02  0.00000000000E+00 0.  1.
          2   -1    0    0  501    0  0.00000000000E+00 -0.00000000000E+00 -0.58290253721E+03  0.58290253721E+03  0.00000000000E+00 0. -1.
          5    1    1    2  502    0  0.10629032160E+03 -0.15207889295E+02 -0.16280533063E+03  0.19506911709E+03  0.41800000000E+01 0. -1.
         -5    1    1    2    0  502 -0.39614281705E+01 -0.12749805019E+02 -0.23389288352E+03  0.23431091268E+03  0.41800000000E+01 0. -1.
        -11    1    1    2    0    0 -0.88957937569E+02  0.10603436398E+02 -0.15016138763E+03  0.17485533980E+03  0.00000000000E+00 0. -1.
         11    1    1    2    0    0 -0.13370955861E+02  0.17354257916E+02  0.89586590613E+01  0.23668762127E+02  0.00000000000E+00 0.  1.
</event>
<event>
 7    1  0.2412631E-010  0.1126664E+03  0.7561462E-02  0.1255710E+00
         -1   -1    0    0    0  501 -0.00000000000E+00  0.00000000000E+00  0.15398369229E+03  0.15398369229E+03  0.00000000000E+00 0.  1.
          1   -1    0    0  501    0  0.00000000000E+00 -0.00000000000E+00 -0.96987107625E+02  0.96987107625E+02  0.00000000000E+00 0. -1.
         25    2    1    2    0    0  0.31642870707E+02  0.42400740523E+02  0.30391228624E+02  0.13920081881E+03  0.12511653415E+03 0.  0.
          5    1    3    3  502    0  0.36192674122E+02  0.76175171092E+02 -0.11298728856E+02  0.85192135933E+02  0.41800000000E+01 0. -1.
         -5    1    3    3    0  502 -0.45498034155E+01 -0.33774430569E+02  0.41689957480E+02  0.54008682877E+02  0.41800000000E+01 0. -1.
        -11    1    1    2    0    0 -0.54172035255E+02 -0.57839731272E+02  0.10175521044E+02  0.79897341294E+02  0.00000000000E+00 0.  1.
         11    1    1    2    0    0  0.22529164549E+02  0.15438990749E+02  0.16429835001E+02  0.31872639815E+02  0.00000000000E+00 0. -1.
</event>
<event>
 7    1  0.2412631E-010  0.1084610E+03  0.7561462E-02  0.1263447E+00
          4   -1    0    0  501    0  0.00000000000E+00  0.00000000000E+00  0.82729755185E+02  0.82729755185E+02  0.00000000000E+00 0. -1.
         -4   -1    0    0    0  501 -0.00000000000E+00 -0.00000000000E+00 -0.19157171353E+03  0.19157171353E+03  0.00000000000E+00 0.  1.
         25    2    1    2    0    0  0.20186890076E+02  0.19563635864E+02 -0.12410826415E+03  0.17841219902E+03  0.12505121010E+03 0.  0.
          5    1    3    3  502    0  0.60648201550E+01 -0.52238521429E+02 -0.68220883875E+02  0.86239240264E+02  0.41800000000E+01 0.  1.
         -5    1    3    3    0  502  0.14122069921E+02  0.71802157294E+02 -0.55887380277E+02  0.92172958752E+02  0.41800000000E+01 0.  1.
        -11    1    1    2    0    0  0.24152856307E+02  0.20066303349E+02  0.18297831195E+02  0.36343192270E+02  0.00000000000E+00 0. -1.
         11    1    1    2    0    0 -0.44339746383E+02 -0.39629939214E+02 -0.30315253914E+01  0.59546077433E+02  0.00000000000E+00 0.  1.
</event>
<event>
 7    1  0.2615170E-010  0.1046167E+03  0.7561462E-02  0.1270877E+00
          1   -1    0    0  501    0  0.00000000000E+00  0.00000000000E+00  0.75064858122E+02  0.75064858122E+02  0.00000000000E+00 0. -1.
         -1   -1    0    0    0  501 -0.00000000000E+00 -0.00000000000E+00 -0.20508318194E+03  0.20508318194E+03  0.00000000000E+00 0.  1.
         25    2    1    2    0    0  0.38000507408E+01  0.57014216736E+02 -0.52647421637E+02  0.14727384426E+03  0.12511104228E+03 0.  0.
          5    1    3    3  502    0  0.33943914356E+02 -0.68378486005E+01  0.24489043725E+02  0.42616090363E+02  0.41800000000E+01 0. -1.
         -5    1    3    3    0  502 -0.30143863616E+02  0.63852065337E+02 -0.77136465362E+02  0.10465775389E+03  0.41800000000E+01 0. -1.
        -11    1    1    2    0    0  0.40186935329E+02 -0.15297723814E+02 -0.51151745321E+02  0.66824480353E+02  0.00000000000E+00 0.  1.
         11    1    1    2    0    0 -0.43986986070E+02 -0.41716492922E+02 -0.26219156863E+02  0.66049715457E+02  0.00000000000E+00 0. -1.
</event>
<event>
 7    1  0.2412631E-010  0.1151902E+03  0.7561462E-02  0.1251249E+00
         -1   -1    0    0    0  501 -0.00000000000E+00  0.00000000000E+00  0.35742598319E+02  0.35742598319E+02  0.00000000000E+00 0.  1.
          1   -1    0    0  501    0  0.00000000000E+00 -0.00000000000E+00 -0.48038376325E+03  0.48038376325E+03  0.00000000000E+00 0. -1.
         25    2    1    2    0    0  0.60095536930E+02  0.25642815206E+02 -0.31059145649E+03  0.34114207368E+03  0.12506731811E+03 0.  0.
          5    1    3    3  502    0  0.42158137341E+02  0.75649973183E+02 -0.17103367882E+03  0.19175562229E+03  0.41800000000E+01 0.  1.
         -5    1    3    3    0  502  0.17937399589E+02 -0.50007157977E+02 -0.13955777766E+03  0.14938645139E+03  0.41800000000E+01 0.  1.
        -11    1    1    2    0    0 -0.48183078604E+02 -0.46117555195E+02 -0.13573507717E+03  0.15123640148E+03  0.00000000000E+00 0. -1.
         11    1    1    2    0    0 -0.11912458326E+02  0.20474739988E+02  0.16853687221E+01  0.23747886405E+02  0.00000000000E+00 0.  1.
</event>
<event>
 7    1  0.2412631E-010  0.7420346E+02  0.7561462E-02  0.1346356E+00
          2   -1    0    0  501    0  0.00000000000E+00  0.00000000000E+00  0.33091000625E+03  0.33091000625E+03  0.00000000000E+00 0.  1.
         -2   -1    0    0    0  501 -0.00000000000E+00 -0.00000000000E+00 -0.61470734276E+02  0.61470734276E+02  0.00000000000E+00 0. -1.
         25    2    1    2    0    0  0.70587888681E+02 -0.15441323688E+02  0.67250155607E+02  0.15929921993E+03  0.12503029047E+03 0.  0.
          5    1    3    3  502    0  0.40604504980E+02 -0.18869588246E+02 -0.32185551652E+02  0.55300717178E+02  0.41800000000E+01 0. -1.
         -5    1    3    3    0  502  0.29983383701E+02  0.34282645581E+01  0.99435707259E+02  0.10399850275E+03  0.41800000000E+01 0. -1.
        -11    1    1    2    0    0 -0.37069967637E+02  0.13302299736E+02  0.19473553610E+03  0.19867828945E+03  0.00000000000E+00 0.  1.
         11    1    1    2    0    0 -0.33517921044E+02  0.21390239518E+01  0.74535802659E+01  0.34403231147E+02  0.00000000000E+00 0. -1.
</event>
<event>
 7    1  0.2412631E-010  0.1674217E+03  0.7561462E-02  0.1180564E+00
         -3   -1    0    0    0  501 -0.00000000000E+00  0.00000000000E+00  0.68711035305E+02  0.68711035305E+02  0.00000000000E+00 0.  1.
          3   -1    0    0  501    0  0.00000000000E+00 -0.00000000000E+00 -0.45273950425E+03  0.45273950425E+03  0.00000000000E+00 0. -1.
         25    2    1    2    0    0 -0.12579614343E+03 -0.23322390691E+02 -0.12341845891E+03  0.21738128340E+03  0.12511555764E+03 0.  0.
          5    1    3    3  502    0 -0.97301346927E+02 -0.72800329573E+02 -0.80398919718E+02  0.14577002021E+03  0.41800000000E+01 0.  1.
         -5    1    3    3    0  502 -0.28494796506E+02  0.49477938882E+02 -0.43019539191E+02  0.71611263193E+02  0.41800000000E+01 0.  1.
        -11    1    1    2    0    0  0.86058083048E+02  0.57571957926E+02 -0.15950277407E+03  0.19016219113E+03  0.00000000000E+00 0. -1.
         11    1    1    2    0    0  0.39738060385E+02 -0.34249567235E+02 -0.10110723596E+03  0.11390706503E+03  0.00000000000E+00 0.  1.
</event>
<event>
 7    1  0.2412631E-010  0.1071103E+03  0.7561462E-02  0.1266017E+00
         -2   -1    0    0    0  501 -0.00000000000E+00  0.00000000000E+00  0.50000516915E+02  0.50000516915E+02  0.00000000000E+00 0.  1.
          2   -1    0    0  501    0  0.00000000000E+00 -0.00000000000E+00 -0.26949491749E+03  0.26949491749E+03  0.00000000000E+00 0. -1.
         25    2    1    2    0    0  0.13750287117E+02 -0.75872833703E+01 -0.72157230774E+02  0.14523135356E+03  0.12505535910E+03 0.  0.
          5    1    3    3  502    0  0.58393539071E+02 -0.37047706140E+02 -0.24544222960E+02  0.73499858613E+02  0.41800000000E+01 0. -1.
         -5    1    3    3    0  502 -0.44643251954E+02  0.29460422769E+02 -0.47613007813E+02  0.71731494950E+02  0.41800000000E+01 0. -1.
        -11    1    1    2    0    0 -0.52268154264E+02  0.72590149729E+01 -0.68028372126E+02  0.86095950326E+02  0.00000000000E+00 0.  1.
         11    1    1    2    0    0  0.38517867147E+02  0.32826839737E+00 -0.79308797677E+02  0.88168130516E+02  0.00000000000E+00 0. -1.
</event>
<event>
 6    1  0.2412631E-010  0.1049214E+03  0.7561462E-02  0.1270275E+00
         -3   -1    0    0    0  501 -0.00000000000E+00  0.00000000000E+00  0.77366391944E+02  0.77366391944E+02  0.00000000000E+00 0.  1.
          3   -1    0    0  501    0  0.00000000000E+00 -0.00000000000E+00 -0.22309120768E+03  0.22309120768E+03  0.00000000000E+00 0. -1.
          5    1    1    2  502    0 -0.10533237315E+02 -0.40908994796E+02 -0.67551761539E+02  0.79782252604E+02  0.41800000000E+01 0.  1.
         -5    1    1    2    0  502 -0.61068329121E+02  0.48034008319E+02  0.54672071054E+01  0.77999804681E+02  0.41800000000E+01 0.  1.
        -11    1    1    2    0    0  0.61107419449E+02 -0.27234883763E+02 -0.95869863885E+02  0.11690545927E+03  0.00000000000E+00 0. -1.
         11    1    1    2    0    0  0.10494146987E+02  0.20109870240E+02  0.12229602583E+02  0.25770083070E+02  0.00000000000E+00 0.  1.
</event>
<event>
 6    1  0.2412631E-010  0.9517219E+02  0.7561462E-02  0.1290789E+00
          2   -1    0    0  501    0  0.00000000000E+00  0.00000000000E+00  0.14428259488E+03  0.14428259488E+03  0.00000000000E+00 0. -1.
         -2   -1    0    0    0  501 -0.00000000000E+00 -0.00000000000E+00 -0.87715242916E+02  0.87715242916E+02  0.00000000000E+00 0.  1.
          5    1    1    2  502    0  0.55006006200E+02  0.26787299759E+02  0.24094992659E+02  0.65888247948E+02  0.41800000000E+01 0. -1.
         -5    1    1    2    0  502 -0.46514317302E+02 -0.27104456854E+02 -0.24471056316E+02  0.59283541499E+02  0.41800000000E+01 0. -1.
        -11    1    1    2    0    0 -0.26790573341E+02 -0.29618364324E+02  0.59485710309E+02  0.71648671001E+02  0.00000000000E+00 0. -1.
         11    1    1    2    0    0  0.18298884442E+02  0.29935521419E+02 -0.25422946925E+01  0.35177377344E+02  0.00000000000E+00 0.  1.
</event>
<event>
 7    1  0.2412631E-010  0.1227173E+03  0.7561462E-02  0.1238680E+00
          1   -1    0    0  501    0  0.00000000000E+00  0.00000000000E+00  0.59747456639E+03  0.59747456639E+03  0.00000000000E+00 0. -1.
         -1   -1    0    0    0  501 -0.00000000000E+00 -0.00000000000E+00 -0.39380999351E+02  0.39380999351E+02  0.00000000000E+00 0.  1.
         25    2    1    2    0    0  0.24335215246E+01 -0.86953192394E+02  0.43558730760E+03  0.46147756739E+03  0.12513378029E+03 0.  0.
          5    1    3    3  502    0 -0.45922590435E+02  0.38038367888E+01  0.18226166230E+03  0.18804291912E+03  0.41800000000E+01 0. -1.
         -5    1    3    3    0  502  0.48356111960E+02 -0.90757029183E+02  0.25332564530E+03  0.27343464827E+03  0.41800000000E+01 0. -1.
        -11    1    1    2    0    0 -0.20226385414E+02  0.27181114270E+02  0.10539796675E+03  0.11070976034E+03  0.00000000000E+00 0. -1.
         11    1    1    2    0    0  0.17792863890E+02  0.59772078124E+02  0.17108292695E+02  0.64668238012E+02  0.00000000000E+00 0.  1.
</event>
<event>
 7    1  0.2412631E-010  0.5970492E+02  0.7561462E-02  0.1399074E+00
          1   -1    0    0  501    0  0.00000000000E+00  0.00000000000E+00  0.90935070721E+02  0.90935070721E+02  0.00000000000E+00 0. -1.
         -1   -1    0    0    0  501 -0.00000000000E+00 -0.00000000000E+00 -0.13343619112E+03  0.13343619112E+03  0.00000000000E+00 0.  1.
         25    2    1    2    0    0 -0.74885771315E+01 -0.13712181912E+02 -0.33286837715E+02  0.13035661051E+03  0.12506290264E+03 0.  0.
          5    1    3    3  502    0 -0.94426900507E+01 -0.18166640696E+02  0.46150414006E+02  0.50660875857E+02  0.41800000000E+01 0. -1.
         -5    1    3    3    0  502  0.19541129191E+01  0.44544587848E+01 -0.79437251722E+02  0.79695734650E+02  0.41800000000E+01 0. -1.
        -11    1    1    2    0    0 -0.23868657447E+02 -0.29979176336E+02 -0.12022150679E+02  0.40162120575E+02  0.00000000000E+00 0. -1.
         11    1    1    2    0    0  0.31357234579E+02  0.43691358248E+02  0.28078680007E+01  0.53852530755E+02  0.00000000000E+00 0.  1.
</event>
<event>
 6    1  0.2412631E-010  0.7474907E+02  0.7561462E-02  0.1344650E+00
          1   -1    0    0  501    0  0.00000000000E+00  0.00000000000E+00  0.72469038382E+02  0.72469038382E+02  0.00000000000E+00 0. -1.
         -1   -1    0    0    0  501 -0.00000000000E+00 -0.00000000000E+00 -0.32958991465E+03  0.32958991465E+03  0.00000000000E+00 0.  1.
          5    1    1    2  502    0  0.65604681972E+02  0.90427298144E+01 -0.42197076187E+02  0.78637210644E+02  0.41800000000E+01 0.  1.
         -5    1    1    2    0  502 -0.37086855238E+01  0.13869024099E+02 -0.20933516893E+03  0.20986850533E+03  0.41800000000E+01 0.  1.
        -11    1    1    2    0    0 -0.42568745184E+02 -0.23931910327E+02 -0.47040336431E+02  0.67805808380E+02  0.00000000000E+00 0.  1.
         11    1    1    2    0    0 -0.19327251264E+02  0.10201564135E+01  0.41451705278E+02  0.45747428682E+02  0.00000000000E+00 0. -1.
</event>
<event>
 6    1  0.2412631E-010  0.8709183E+02  0.7561462E-02  0.1310051E+00
          3   -1    0    0  501    0  0.00000000000E+00  0.00000000000E+00  0.23430843364E+03  0.23430843364E+03  0.00000000000E+00 0. -1.
         -3   -1    0    0    0  501 -0.00000000000E+00 -0.00000000000E+00 -0.60136851524E+02  0.60136851524E+02  0.00000000000E+00 0.  1.
          5    1    1    2  502    0 -0.83338459852E+01 -0.22416080809E+02 -0.21230203117E+02  0.32251009164E+02  0.41800000000E+01 0. -1.
         -5    1    1    2    0  502 -0.31197097535E+02  0.34014899218E+02  0.13237272100E+03  0.14025078227E+03  0.41800000000E+01 0. -1.
        -11    1    1    2    0    0  0.10186344981E+02 -0.52357359347E+02  0.40113728835E+02  0.66739538078E+02  0.00000000000E+00 0.  1.
         11    1    1    2    0    0  0.29344598539E+02  0.40758540938E+02  0.22915335397E+02  0.55203955648E+02  0.00000000000E+00 0. -1.
</event>
<event>
 7    1  0.2412631E-010  0.1154681E+03  0.7561462E-02  0.1250766E+00
         -1   -1    0    0    0  501 -0.00000000000E+00  0.00000000000E+00  0.54315918084E+02  0.54315918084E+02  0.00000000000E+00 0.  1.
          1   -1    0    0  501    0  0.00000000000E+00 -0.00000000000E+00 -0.31891184548E+03  0.31891184548E+03  0.00000000000E+00 0. -1.
         25    2    1    2    0    0  0.71247123433E+02 -0.19356937756E+02 -0.15812624759E+03  0.21472669857E+03  0.12511115563E+03 0.  0.
          5    1    3    3  502    0  0.66943450193E+02  0.27595643450E+02 -0.30637227250E+02  0.78734091439E+02  0.41800000000E+01 0.  1.
         -5    1    3    3    0  502  0.43036732395E+01 -0.46952581206E+02 -0.12748902034E+03  0.13599260713E+03  0.41800000000E+01 0.  1.
        -11    1    1    2    0    0 -0.67892666146E+02  0.47418021422E+02 -0.53875763586E+02  0.98795145498E+02  0.00000000000E+00 0.  1.
         11    1    1    2    0    0 -0.33544572868E+01 -0.28061083666E+02 -0.52593916216E+02  0.59705919499E+02  0.00000000000E+00 0. -1.
</event>
<event>
 6    1  0.2412631E-010  0.1145315E+03  0.7561462E-02  0.1252401E+00
          1   -1    0    0  501    0  0.00000000000E+00  0.00000000000E+00  0.45626439555E+03  0.45626439555E+03  0.00000000000E+00 0. -1.
         -1   -1    0    0    0  501 -0.00000000000E+00 -0.00000000000E+00 -0.48034326898E+02  0.48034326898E+02  0.00000000000E+00 0.  1.
          5    1    1    2  502    0 -0.74028496719E+02 -0.25623249148E+02  0.27712986213E+03  0.28801944745E+03  0.41800000000E+01 0.  1.
         -5    1    1    2    0  502  0.91627492708E+01 -0.36916173639E+02  0.12892212906E+02  0.40378724645E+02  0.41800000000E+01 0.  1.
        -11    1    1    2    0    0 -0.67343939516E+01  0.34988868838E+02  0.85262062735E+02  0.92407750466E+02  0.00000000000E+00 0. -1.
         11    1    1    2    0    0  0.71600141399E+02  0.27550553950E+02  0.32945930877E+02  0.83492799886E+02  0.00000000000E+00 0.  1.
</event>
<event>
 7    1  0.2412631E-010  0.1028153E+03  0.7561462E-02  0.1274485E+00
         -2   -1    0    0    0  501 -0.00000000000E+00  0.00000000000E+00  0.12858706887E+03  0.12858706887E+03  0.00000000000E+00 0.  1.
          2   -1    0    0  501    0  0.00000000000E+00 -0.00000000000E+00 -0.10401062518E+03  0.10401062518E+03  0.00000000000E+00 0. -1.
         25    2    1    2    0    0 -0.22073448231E+01  0.37004100937E+01  0.54246588813E+02  0.13636197391E+03  0.12503331606E+03 0.  0.
          5    1    3    3  502    0  0.45143707278E+02  0.40923309559E+02  0.10904963071E+02  0.62040810694E+02  0.41800000000E+01 0.  1.
         -5    1    3    3    0  502 -0.47351052101E+02 -0.37222899465E+02  0.43341625742E+02  0.74321163215E+02  0.41800000000E+01 0.  1.
        -11    1    1    2    0    0 -0.35681328463E+02 -0.22192932224E+02 -0.33725598270E+02  0.53880417780E+02  0.00000000000E+00 0.  1.
         11    1    1    2    0    0  0.37888673286E+02  0.18492522130E+02  0.40554531458E+01  0.42355302363E+02  0.00000000000E+00 0. -1.
</event>
<event>
 7    1  0.2412631E-010  0.1081394E+03  0.7561462E-02  0.1264055E+00
          3   -1    0    0  501    0  0.00000000000E+00  0.00000000000E+00  0.66991716280E+02  0.66991716280E+02  0.00000000000E+00 0. -1.
         -3   -1    0    0    0  501 -0.00000000000E+00 -0.00000000000E+00 -0.20090186989E+03  0.20090186989E+03  0.00000000000E+00 0.  1.
         25    2    1    2    0    0  0.23235933138E+02  0.23466799103E+02 -0.10614558740E+03  0.16730874812E+03  0.12503892283E+03 0.  0.
          5    1    3    3  502    0  0.23345805017E+02 -0.45824384317E+02 -0.17006596263E+02  0.54328606888E+02  0.41800000000E+01 0. -1.
         -5    1    3    3    0  502 -0.10987187941E+00  0.69291183420E+02 -0.89138991134E+02  0.11298014123E+03  0.41800000000E+01 0. -1.
        -11    1    1    2    0    0 -0.41397418615E+02 -0.48862832875E+02 -0.26586306187E+02  0.69340856508E+02  0.00000000000E+00 0.  1.
         11    1    1    2    0    0  0.18161485477E+02  0.25396033772E+02 -0.11782600240E+01  0.31243981545E+02  0.00000000000E+00 0. -1.
</event>
<event>
 6    1  0.2412631E-010  0.6895241E+02  0.7561462E-02  0.1363692E+00
          2   -1    0    0  501    0  0.00000000000E+00  0.00000000000E+00  0.50938522689E+02  0.50938522689E+02  0.00000000000E+00 0. -1.
         -2   -1    0    0    0  501 -0.00000000000E+00 -0.00000000000E+00 -0.23004681841E+03  0.23004681841E+03  0.00000000000E+00 0.  1.
          5    1    1    2  502    0 -0.15309048044E+02 -0.17456862942E+02 -0.12517649394E+03  0.12738028125E+03  0.41800000000E+01 0. -1.
         -5    1    1    2    0  502  0.27472905422E+01  0.27985419116E+02  0.21921714725E+02  0.35899376943E+02  0.41800000000E+01 0. -1.
        -11    1    1    2    0    0 -0.20097854426E+02 -0.38143476796E+02 -0.55669557963E+02  0.70412699553E+02  0.00000000000E+00 0.  1.
         11    1    1    2    0    0  0.32659611927E+02  0.27614920622E+02 -0.20183958545E+02  0.47292983357E+02  0.00000000000E+00 0. -1.
</event>
<event>
 7    1  0.2412631E-010  0.1193489E+03  0.7561462E-02  0.1244175E+00
          2   -1    0    0  501    0  0.00000000000E+00  0.00000000000E+00  0.63105115323E+03  0.63105115323E+03  0.00000000000E+00 0. -1.
         -2   -1    0    0    0  501 -0.00000000000E+00 -0.00000000000E+00 -0.24509013197E+02  0.24509013197E+02  0.00000000000E+00 0.  1.
         25    2    1    2    0    0  0.42454085646E+02  0.25588158525E+02  0.42782186411E+03  0.44849195800E+03  0.12512547996E+03 0.  0.
          5    1    3    3  502    0  0.13611780541E+02  0.75226616829E+02  0.26239527741E+03  0.27333693211E+03  0.41800000000E+01 0. -1.
         -5    1    3    3    0  502  0.28842305105E+02 -0.49638458304E+02  0.16542658671E+03  0.17515502590E+03  0.41800000000E+01 0. -1.
        -11    1    1    2    0    0  0.29149285659E+02 -0.12807519326E+02  0.55122527205E+02  0.63656943150E+02  0.00000000000E+00 0.  1.
         11    1    1    2    0    0 -0.71603371306E+02 -0.12780639199E+02  0.12359774872E+03  0.14341126528E+03  0.00000000000E+00 0. -1.
</event>
<event>
 7    1  0.2412631E-010  0.1025726E+03  0.7561462E-02  0.1274977E+00
          1   -1    0    0  501    0  0.00000000000E+00  0.00000000000E+00  0.62272718761E+03  0.62272718761E+03  0.00000000000E+00 0. -1.
         -1   -1    0    0    0  501 -0.00000000000E+00 -0.00000000000E+00 -0.39254126692E+02  0.39254126692E+02  0.00000000000E+00 0.  1.
         25    2    1    2    0    0  0.58287613397E+02  0.14658103061E+02  0.51144360606E+03  0.52994308467E+03  0.12511117035E+03 0.  0.
          5    1    3    3  502    0 -0.15950074375E+02  0.47247010824E+02  0.11734593273E+03  0.12757047163E+03  0.41800000000E+01 0. -1.
         -5    1    3    3    0  502  0.74237687772E+02 -0.32588907763E+02  0.39409767333E+03  0.40237261304E+03  0.41800000000E+01 0. -1.
        -11    1    1    2    0    0 -0.10096230439E+02 -0.22902153846E+02 -0.17146642975E+02  0.30338917007E+02  0.00000000000E+00 0.  1.
         11    1    1    2    0    0 -0.48191382957E+02  0.82440507851E+01  0.89176097835E+02  0.10169931263E+03  0.00000000000E+00 0. -1.
</event>
<event>
 7    1  0.2412631E-010  0.1124820E+03  0.7561462E-02  0.1256041E+00
         -4   -1    0    0    0  501 -0.00000000000E+00  0.00000000000E+00  0.13840421058E+03  0.13840421058E+03  0.00000000000E+00 0.  1.
          4   -1    0    0  501    0  0.00000000000E+00 -0.00000000000E+00 -0.94517400355E+02  0.94517400355E+02  0.00000000000E+00 0. -1.
         25    2    1    2    0    0 -0.32103698777E+02 -0.13029335452E+02  0.43907653637E+02  0.13698521753E+03  0.12504661818E+03 0.  0.
          5    1    3    3  502    0 -0.46803715719E+02 -0.62292602921E+02  0.29646476395E+02  0.83470606482E+02  0.41800000000E+01 0. -1.
         -5    1    3    3    0  502  0.14700016942E+02  0.49263267468E+02  0.14261177242E+02  0.53514611052E+02  0.41800000000E+01 0. -1.
        -11    1    1    2    0    0 -0.31027762503E+02  0.78943217364E+01  0.49716222781E+01  0.32399990581E+02  0.00000000000E+00 0.  1.
         11    1    1    2    0    0  0.63131461280E+02  0.51350137161E+01 -0.49924656934E+01  0.63536402817E+02  0.00000000000E+00 0. -1.
</event>
<event>
 6    1  0.2412631E-010  0.1244854E+03  0.7561462E-02  0.1235876E+00
         -3   -1    0    0    0  501 -0.00000000000E+00  0.00000000000E+00  0.34076059566E+03  0.34076059566E+03  0.00000000000E+00 0.  1.
          3   -1    0    0  501    0  0.00000000000E+00 -0.00000000000E+00 -0.67599562499E+02  0.67599562499E+02  0.00000000000E+00 0. -1.
          5    1    1    2  502    0  0.10632673009E+02 -0.10293080702E+03  0.20894265781E+03  0.23320015314E+03  0.41800000000E+01 0. -1.
         -5    1    1    2    0  502 -0.10690180799E+02  0.34836148390E+02  0.48087560704E+02  0.60479112879E+02  0.41800000000E+01 0. -1.
        -11    1    1    2    0    0 -0.21746014961E+02 -0.12605738101E+02  0.18246660840E+02  0.31060174364E+02  0.00000000000E+00 0.  1.
         11    1    1    2    0    0  0.21803522751E+02  0.80700396731E+02 -0.21158461959E+01  0.83620717780E+02  0.00000000000E+00 0. -1.
</event>
<event>
 7    1  0.2412631E-010  0.2756516E+03  0.7561462E-02  0.1098088E+00
          1   -1    0    0  501    0  0.00000000000E+00  0.00000000000E+00  0.91132341633E+03  0.91132341633E+03  0.00000000000E+00 0. -1.
         -1   -1    0    0    0  501 -0.00000000000E+00 -0.00000000000E+00 -0.88284775172E+02  0.88284775172E+02  0.00000000000E+00 0.  1.
         25    2    1    2    0    0  0.20383625264E+03  0.16532265952E+03  0.35215163306E+03  0.45664762621E+03  0.12504192183E+03 0.  0.
          5    1    3    3  502    0  0.12929641802E+03  0.34590020495E+02  0.11916427835E+03  0.17925298007E+03  0.41800000000E+01 0. -1.
         -5    1    3    3    0  502  0.74539834626E+02  0.13073263902E+03  0.23298735471E+03  0.27739464614E+03  0.41800000000E+01 0. -1.
        -11    1    1    2    0    0 -0.64782706743E+02 -0.82865578822E+02  0.14447319837E+03  0.17870648644E+03  0.00000000000E+00 0. -1.
         11    1    1    2    0    0 -0.13905354590E+03 -0.82457080694E+02  0.32641380972E+03  0.36425407885E+03  0.00000000000E+00 0.  1.
</event>
<event>
 7    1  0.2412631E-010  0.5407651E+02  0.7561462E-02  0.1424517E+00
         -1   -1    0    0    0  501 -0.00000000000E+00  0.00000000000E+00  0.13295904309E+03  0.13295904309E+03  0.00000000000E+00 0.  1.
          1   -1    0    0  501    0  0.00000000000E+00 -0.00000000000E+00 -0.90959243904E+02  0.90959243904E+02  0.00000000000E+00 0. -1.
         25    2    1    2    0    0 -0.10270678325E+02 -0.54530335245E+01  0.41207016996E+02  0.13218911260E+03  0.12506286752E+03 0.  0.
          5    1    3    3  502    0  0.36250371131E+02 -0.35639597050E+01 -0.29751312163E+02  0.47216566916E+02  0.41800000000E+01 0. -1.
         -5    1    3    3    0  502 -0.46521049456E+02 -0.18890738195E+01  0.70958329159E+02  0.84972545681E+02  0.41800000000E+01 0. -1.
        -11    1    1    2    0    0 -0.33636477266E+01  0.98562948629E+01  0.44516143654E+02  0.45718133386E+02  0.00000000000E+00 0.  1.
         11    1    1    2    0    0  0.13634326051E+02 -0.44032613384E+01 -0.43723361464E+02  0.46011041012E+02  0.00000000000E+00 0. -1.
</event>
<event>
 6    1  0.2412631E-010  0.1650669E+03  0.7561462E-02  0.1183092E+00
          2   -1    0    0  501    0  0.00000000000E+00  0.00000000000E+00  0.92593117079E+02  0.92593117079E+02  0.00000000000E+00 0. -1.
         -2   -1    0    0    0  501 -0.00000000000E+00 -0.00000000000E+00 -0.50664402234E+03  0.50664402234E+03  0.00000000000E+00 0.  1.
          5    1    1    2  502    0 -0.14269109962E+02  0.36408507034E+02 -0.13969433518E+02  0.41734929691E+02  0.41800000000E+01 0. -1.
         -5    1    1    2    0  502  0.14625713714E+03 -0.11674398630E+01 -0.26258564487E+02  0.14865899801E+03  0.41800000000E+01 0. -1.
        -11    1    1    2    0    0 -0.84161196451E+02 -0.45348839090E+02 -0.32868996587E+03  0.34231084976E+03  0.00000000000E+00 0.  1.
         11    1    1    2    0    0 -0.47826830727E+02  0.10107771919E+02 -0.45132941386E+02  0.66532361966E+02  0.00000000000E+00 0. -1.
</event>
<event>
 7    1  0.2412631E-010  0.1017628E+03  0.7561462E-02  0.1276632E+00
          1   -1    0    0  501    0  0.00000000000E+00  0.00000000000E+00  0.10757747189E+04  0.10757747189E+04  0.00000000000E+00 0. -1.
         -1   -1    0    0    0  501 -0.00000000000E+00 -0.00000000000E+00 -0.13246256647E+02  0.13246256647E+02  0.00000000000E+00 0.  1.
         25    2    1    2    0    0 -0.14053030256E+02  0.24510648161E+02  0.79046543931E+03  0.80079689451E+03  0.12506716590E+03 0.  0.
          5    1    3    3  502    0 -0.46765405761E+02  0.62035845282E+02  0.44763236350E+03  0.45434310221E+03  0.41800000000E+01 0.  1.
         -5    1    3    3    0  502  0.32712375504E+02 -0.37525197121E+02  0.34283307581E+03  0.34645379230E+03  0.41800000000E+01 0.  1.
        -11    1    1    2    0    0 -0.73580762238E+00  0.24532478512E+02  0.21974137590E+02  0.32943081787E+02  0.00000000000E+00 0.  1.
         11    1    1    2    0    0  0.14788837878E+02 -0.49043126673E+02  0.25008888538E+03  0.25528099927E+03  0.00000000000E+00 0. -1.
</event>
<event>
 7    1  0.2412631E-010  0.1067177E+03  0.7561462E-02  0.1266772E+00
         -1   -1    0    0    0  501 -0.00000000000E+00  0.00000000000E+00  0.21353717577E+03  0.21353717577E+03  0.00000000000E+00 0.  1.
          1   -1    0    0  501    0  0.00000000000E+00 -0.00000000000E+00 -0.30230874376E+03  0.30230874376E+03  0.00000000000E+00 0. -1.
         25    2    1    2    0    0  0.98933049954E+00 -0.81941229824E+02 -0.26345203962E+03  0.30294818411E+03  0.12512106598E+03 0.  0.
          5    1    3    3  502    0 -0.37787126657E+02 -0.11344865602E+02 -0.16165244953E+02  0.42841107139E+02  0.41800000000E+01 0.  1.
         -5    1    3    3    0  502  0.38776457157E+02 -0.70596364222E+02 -0.24728679467E+03  0.26010707697E+03  0.41800000000E+01 0.  1.
        -11    1    1    2    0    0  0.21609665305E+02  0.39457921847E+02  0.17090523201E+02  0.48124746383E+02  0.00000000000E+00 0. -1.
         11    1    1    2    0    0 -0.22598995805E+02  0.42483307977E+02  0.15758994844E+03  0.16477298904E+03  0.00000000000E+00 0.  1.
</event>
<event>
 7    1  0.2412631E-010  0.1350326E+03  0.7561462E-02  0.1220174E+00
          2   -1    0    0  501    0  0.00000000000E+00  0.00000000000E+00  0.10548177927E+04  0.10548177927E+04  0.00000000000E+00 0. -1.
         -2   -1    0    0    0  501 -0.00000000000E+00 -0.00000000000E+00 -0.19512266855E+02  0.19512266855E+02  0.00000000000E+00 0.  1.
         25    2    1    2    0    0 -0.77792587252E+02 -0.26109876616E+02  0.72710674805E+03  0.74233275483E+03  0.12506111927E+03 0.  0.
          5    1    3    3  502    0  0.88787416652E+01  0.39360624118E+02  0.17695032551E+03  0.18154057641E+03  0.41800000000E+01 0. -1.
         -5    1    3    3    0  502 -0.86671328917E+02 -0.65470500734E+02  0.55015642254E+03  0.56079217842E+03  0.41800000000E+01 0. -1.
        -11    1    1    2    0    0  0.60528558228E+02  0.58447599761E+02  0.18063182169E+03  0.19926786817E+03  0.00000000000E+00 0.  1.
         11    1    1    2    0    0  0.17264029023E+02 -0.32337723145E+02  0.12756695613E+03  0.13272943657E+03  0.00000000000E+00 0. -1.
</event>
<event>
 7    1  0.2412631E-010  0.7702640E+02  0.7561462E-02  0.1337708E+00
         -2   -1    0    0    0  501 -0.00000000000E+00  0.00000000000E+00  0.34516219626E+03  0.34516219626E+03  0.00000000000E+00 0.  1.
          2   -1    0    0  501    0  0.00000000000E+00 -0.00000000000E+00 -0.43422713115E+02  0.43422713115E+02  0.00000000000E+00 0. -1.
         25    2    1    2    0    0 -0.49670672199E+02 -0.14041839736E+02  0.20919053546E+03  0.24911613558E+03  0.12503527479E+03 0.  0.
          5    1    3    3  502    0 -0.19906713435E+02  0.11121333421E+02  0.20862919244E+03  0.20991325264E+03  0.41800000000E+01 0.  1.
         -5    1    3    3    0  502 -0.29763958764E+02 -0.25163173157E+02  0.56134301781E+00  0.39202882937E+02  0.41800000000E+01 0.  1.
        -11    1    1    2    0    0 -0.99894700451E+01 -0.20449106622E+02 -0.15763606891E+01  0.22813162570E+02  0.00000000000E+00 0. -1.
         11    1    1    2    0    0  0.59660142244E+02  0.34490946358E+02  0.94125308374E+02  0.11665561122E+03  0.00000000000E+00 0.  1.
</event>
<event>
 7    1  0.2412631E-010  0.1445356E+03  0.7561462E-02  0.1207353E+00
          2   -1    0    0  501    0  0.00000000000E+00  0.00000000000E+00  0.12665140240E+03  0.12665140240E+03  0.00000000000E+00 0. -1.
         -2   -1    0    0    0  501 -0.00000000000E+00 -0.00000000000E+00 -0.23915744506E+03  0.23915744506E+03  0.00000000000E+00 0.  1.
         25    2    1    2    0    0  0.12849955445E+03  0.42177299867E+02 -0.47876900540E+02  0.19036333193E+03  0.12511970436E+03 0.  0.
          5    1    3    3  502    0  0.63036080733E+02  0.21899559721E+01  0.39090983123E+02  0.74323083513E+02  0.41800000000E+01 0.  1.
         -5    1    3    3    0  502  0.65463473721E+02  0.39987343895E+02 -0.86967883663E+02  0.11604024842E+03  0.41800000000E+01 0.  1.
        -11    1    1    2    0    0 -0.13287515000E+03 -0.30173023979E+02 -0.77957045228E+02  0.15698253968E+03  0.00000000000E+00 0.  1.
         11    1    1    2    0    0  0.43755955491E+01 -0.12004275889E+02  0.13327903111E+02  0.18462975853E+02  0.00000000000E+00 0. -1.
</event>
<event>
 7    1  0.2412631E-010  0.1346521E+03  0.7561462E-02  0.1220712E+00
         -2   -1    0    0    0  501 -0.00000000000E+00  0.00000000000E+00  0.51259073644E+02  0.51259073644E+02  0.00000000000E+00 0. -1.
          2   -1    0    0  501    0  0.00000000000E+00 -0.00000000000E+00 -0.57358288634E+03  0.57358288634E+03  0.00000000000E+00 0.  1.
         25    2    1    2    0    0  0.80795822614E+02  0.62375354476E+02 -0.43171250235E+03  0.46090121262E+03  0.12504236606E+03 0.  0.
          5    1    3    3  502    0  0.69125616612E+02  0.91484443342E+02 -0.39989664640E+03  0.41603191518E+03  0.41800000000E+01 0.  1.
         -5    1    3    3    0  502  0.11670206002E+02 -0.29109088866E+02 -0.31815855949E+02  0.44869297437E+02  0.41800000000E+01 0.  1.
        -11    1    1    2    0    0  0.64615648089E+01 -0.28662941242E+02 -0.57746898437E+02  0.64792131463E+02  0.00000000000E+00 0.  1.
         11    1    1    2    0    0 -0.87257387423E+02 -0.33712413234E+02 -0.32864411914E+02  0.99148615908E+02  0.00000000000E+00 0. -1.
</event>
<event>
 7    1  0.2412631E-010  0.1018260E+03  0.7561462E-02  0.1276502E+00
          2   -1    0    0  501    0  0.00000000000E+00  0.00000000000E+00  0.78913633602E+03  0.78913633602E+03  0.00000000000E+00 0. -1.
         -2   -1    0    0    0  501 -0.00000000000E+00 -0.00000000000E+00 -0.17288588561E+02  0.17288588561E+02  0.00000000000E+00 0.  1.
         25    2    1    2    0    0  0.35588032500E+02  0.29051667588E+02  0.42546174976E+03  0.44585151508E+03  0.12512140324E+03 0.  0.
          5    1    3    3  502    0  0.72799408579E+02  0.50739308664E+02  0.31263042082E+03  0.32500689802E+03  0.41800000000E+01 0. -1.
         -5    1    3    3    0  502 -0.37211376079E+02 -0.21687641076E+02  0.11283132893E+03  0.12084461706E+03  0.41800000000E+01 0. -1.
        -11    1    1    2    0    0 -0.35048281757E+02 -0.44187043026E+02  0.33911587014E+03  0.34377383584E+03  0.00000000000E+00 0. -1.
         11    1    1    2    0    0 -0.53975074287E+00  0.15135375437E+02  0.72701275650E+01  0.16799573664E+02  0.00000000000E+00 0.  1.
</event>
<event>
 6    1  0.2412631E-010  0.1269123E+03  0.7561462E-02  0.1232111E+00
          2   -1    0    0  501    0  0.00000000000E+00  0.00000000000E+00  0.96769288856E+03  0.96769288856E+03  0.00000000000E+00 0. -1.
         -2   -1    0    0    0  501 -0.00000000000E+00 -0.00000000000E+00 -0.23045387797E+02  0.23045387797E+02  0.00000000000E+00 0.  1.
          5    1    1    2  502    0  0.49701007054E+02 -0.80736639078E+02  0.56078761426E+03  0.56876077194E+03  0.41800000000E+01 0. -1.
         -5    1    1    2    0  502  0.26704212292E+02  0.39916500901E+02  0.13007726618E+03  0.13872277958E+03  0.41800000000E+01 0. -1.
        -11    1    1    2    0    0 -0.12645791409E+02  0.45075763329E+02  0.45093067373E+02  0.65000963109E+02  0.00000000000E+00 0.  1.
         11    1    1    2    0    0 -0.63759427937E+02 -0.42556251513E+01  0.20868955295E+03  0.21825376173E+03  0.00000000000E+00 0. -1.
</event>
<event>
 6    1  0.2412631E-010  0.4262835E+03  0.7561462E-02  0.1035040E+00
         -2   -1    0    0    0  501 -0.00000000000E+00  0.00000000000E+00  0.10286115216E+03  0.10286115216E+03  0.00000000000E+00 0. -1.
          2   -1    0    0  501    0  0.00000000000E+00 -0.00000000000E+00 -0.18164707415E+04  0.18164707415E+04  0.00000000000E+00 0.  1.
          5    1    1    2  502    0  0.11273475397E+03 -0.26121179950E+03 -0.68950858113E+03  0.74590903252E+03  0.41800000000E+01 0. -1.
         -5    1    1    2    0  502 -0.26848875618E+02 -0.14432426611E+03 -0.28932532830E+03  0.32446413347E+03  0.41800000000E+01 0. -1.
        -11    1    1    2    0    0 -0.54819944149E+02  0.36972698760E+03 -0.60907498015E+03  0.71461570308E+03  0.00000000000E+00 0.  1.
         11    1    1    2    0    0 -0.31065934207E+02  0.35809078010E+02 -0.12570069976E+03  0.13434302460E+03  0.00000000000E+00 0. -1.
</event>
<event>
 7    1  0.2412631E-010  0.1197872E+03  0.7561462E-02  0.1243448E+00
         -2   -1    0    0    0  501 -0.00000000000E+00  0.00000000000E+00  0.39822068164E+02  0.39822068164E+02  0.00000000000E+00 0.  1.
          2   -1    0    0  501    0  0.00000000000E+00 -0.00000000000E+00 -0.54172756640E+03  0.54172756640E+03  0.00000000000E+00 0. -1.
         25    2    1    2    0    0  0.36477369576E+02  0.61410286030E+02 -0.13705580939E+03  0.19881442449E+03  0.12506421860E+03 0.  0.
          5    1    3    3  502    0  0.71825288196E+02  0.45103048205E+02 -0.39416272666E+02  0.93617690276E+02  0.41800000000E+01 0.  1.
         -5    1    3    3    0  502 -0.35347918620E+02  0.16307237825E+02 -0.97639536728E+02  0.10519673421E+03  0.41800000000E+01 0.  1.
        -11    1    1    2    0    0 -0.69139362788E+01 -0.80187188262E+02 -0.26227133805E+03  0.27434292854E+03  0.00000000000E+00 0.  1.
         11    1    1    2    0    0 -0.29563433297E+02  0.18776902232E+02 -0.10257835080E+03  0.10839228154E+03  0.00000000000E+00 0. -1.
</event>
<event>
 7    1  0.2412631E-010  0.1463827E+03  0.7561462E-02  0.1204990E+00
         -3   -1    0    0    0  501 -0.00000000000E+00  0.00000000000E+00  0.13317510228E+03  0.13317510228E+03  0.00000000000E+00 0.  1.
          3   -1    0    0  501    0  0.00000000000E+00 -0.00000000000E+00 -0.16871372219E+03  0.16871372219E+03  0.00000000000E+00 0. -1.
         25    2    1    2    0    0  0.10244927361E+03  0.10161800611E+02 -0.12618244639E+02  0.16252470930E+03  0.12512371950E+03 0.  0.
          5    1    3    3  502    0  0.11892817872E+03 -0.25946476513E+02 -0.50424524079E+01  0.12190172297E+03  0.41800000000E+01 0. -1.
         -5    1    3    3    0  502 -0.16478905113E+02  0.36108277124E+02 -0.75757922314E+01  0.40622986332E+02  0.41800000000E+01 0. -1.
        -11    1    1    2    0    0  0.14085713638E+02 -0.21346424865E+01 -0.17309437758E+02  0.22418310881E+02  0.00000000000E+00 0. -1.
         11    1    1    2    0    0 -0.11653498724E+03 -0.80271581242E+01 -0.56109375111E+01  0.11694580428E+03  0.00000000000E+00 0.  1.
</event>
<event>
 7    1  0.2412631E-010  0.1822927E+03  0.7561462E-02  0.1165602E+00
         -2   -1    0    0    0  501 -0.00000000000E+00  0.00000000000E+00  0.17776626401E+03  0.17776626401E+03  0.00000000000E+00 0.  1.
          2   -1    0    0  501    0  0.00000000000E+00 -0.00000000000E+00 -0.19586289066E+03  0.19586289066E+03  0.00000000000E+00 0. -1.
         25    2    1    2    0    0  0.23367414998E+02  0.14638174559E+03  0.22159913849E+02  0.19520801090E+03  0.12506579954E+03 0.  0.
          5    1    3    3  502    0 -0.42418922588E+02  0.10474479172E+03  0.29574379334E+02  0.11688863374E+03  0.41800000000E+01 0.  1.
         -5    1    3    3    0  502  0.65786337585E+02  0.41636953870E+02 -0.74144654846E+01  0.78319377161E+02  0.41800000000E+01 0.  1.
        -11    1    1    2    0    0 -0.50618406743E+02 -0.13467452899E+03 -0.37201752340E+02  0.14860491996E+03  0.00000000000E+00 0. -1.
         11    1    1    2    0    0  0.27250991745E+02 -0.11707216602E+02 -0.30547881632E+01  0.29816223812E+02  0.00000000000E+00 0.  1.
</event>
<event>
 6    1  0.2412631E-010  0.1497483E+03  0.7561462E-02  0.1200783E+00
          1   -1    0    0  501    0  0.00000000000E+00  0.00000000000E+00  0.50208291045E+03  0.50208291045E+03  0.00000000000E+00 0. -1.
         -1   -1    0    0    0  501 -0.00000000000E+00 -0.00000000000E+00 -0.53022252168E+02  0.53022252168E+02  0.00000000000E+00 0.  1.
          5    1    1    2  502    0 -0.94578606571E+02 -0.49386021769E+02  0.87939367561E+02  0.13832894395E+03  0.41800000000E+01 0.  1.
         -5    1    1    2    0  502  0.21139316105E+02 -0.46477021910E+02  0.13524168350E+03  0.14461939568E+03  0.41800000000E+01 0.  1.
        -11    1    1    2    0    0  0.62172242047E+02  0.20761583000E+02  0.56520446879E+02  0.86550516609E+02  0.00000000000E+00 0.  1.
         11    1    1    2    0    0  0.11267048420E+02  0.75101460679E+02  0.16935916034E+03  0.18560630638E+03  0.00000000000E+00 0. -1.
</event>
<event>
 7    1  0.2412631E-010  0.8643220E+02  0.7561462E-02  0.1311729E+00
          3   -1    0    0  501    0  0.00000000000E+00  0.00000000000E+00  0.21510917059E+03  0.21510917059E+03  0.00000000000E+00 0. -1.
         -3   -1    0    0    0  501 -0.00000000000E+00 -0.00000000000E+00 -0.87043514711E+02  0.87043514711E+02  0.00000000000E+00 0.  1.
         25    2    1    2    0    0  0.17646599552E+02  0.59326947869E+02  0.97005770040E+01  0.13992382311E+03  0.12511389155E+03 0.  0.
          5    1    3    3  502    0  0.34241243760E+02  0.33902772167E+02  0.62406649697E+02  0.78955196543E+02  0.41800000000E+01 0. -1.
         -5    1    3    3    0  502 -0.16594644207E+02  0.25424175701E+02 -0.52706072693E+02  0.60968626564E+02  0.41800000000E+01 0. -1.
        -11    1    1    2    0    0  0.27535412735E+02 -0.22050541961E+02  0.63780938036E+01  0.35848367269E+02  0.00000000000E+00 0.  1.
         11    1    1    2    0    0 -0.45182012287E+02 -0.37276405907E+02  0.11198698507E+03  0.12638049492E+03  0.00000000000E+00 0. -1.
</event>
<event>
 7    1  0.2412631E-010  0.1167808E+03  0.7561462E-02  0.1248504E+00
         -4   -1    0    0    0  501 -0.00000000000E+00  0.00000000000E+00  0.30135301829E+02  0.30135301829E+02  0.00000000000E+00 0.  1.
          4   -1    0    0  501    0  0.00000000000E+00 -0.00000000000E+00 -0.60495096108E+03  0.60495096108E+03  0.00000000000E+00 0. -1.
         25    2    1    2    0    0 -0.23180958800E+02  0.74966501589E+02 -0.35440296042E+03  0.38395020968E+03  0.12513581400E+03 0.  0.
          5    1    3    3  502    0 -0.54918163533E+02  0.57473684461E+02 -0.33139477487E+03  0.34082135834E+03  0.41800000000E+01 0.  1.
         -5    1    3    3    0  502  0.31737204732E+02  0.17492817128E+02 -0.23008185554E+02  0.43128851339E+02  0.41800000000E+01 0.  1.
        -11    1    1    2    0    0 -0.32727823960E+02 -0.39384439419E+02 -0.12385841326E+03  0.13402668042E+03  0.00000000000E+00 0. -1.
         11    1    1    2    0    0  0.55908782760E+02 -0.35582062170E+02 -0.96554285578E+02  0.11710937282E+03  0.00000000000E+00 0.  1.
</event>
<event>
 7    1  0.2412631E-010  0.1101342E+03  0.7561462E-02  0.1260322E+00
         -1   -1    0    0    0  501 -0.00000000000E+00  0.00000000000E+00  0.23241900824E+03  0.23241900824E+03  0.00000000000E+00 0.  1.
          1   -1    0    0  501    0  0.00000000000E+00 -0.00000000000E+00 -0.63462817704E+02  0.63462817704E+02  0.00000000000E+00 0. -1.
         25    2    1    2    0    0 -0.34733154960E+02 -0.39398444371E+02  0.11926460484E+03  0.18067647455E+03  0.12514516777E+03 0.  0.
          5    1    3    3  502    0  0.11198666585E+02 -0.70880237864E+02  0.96602228349E+02  0.12041130003E+03  0.41800000000E+01 0. -1.
         -5    1    3    3    0  502 -0.45931821545E+02  0.31481793492E+02  0.22662376495E+02  0.60265174523E+02  0.41800000000E+01 0. -1.
        -11    1    1    2    0    0 -0.49902053721E+01 -0.20263666504E+02  0.36905598954E+02  0.42397424025E+02  0.00000000000E+00 0.  1.
         11    1    1    2    0    0  0.39723360332E+02  0.59662110875E+02  0.12785986735E+02  0.72807927363E+02  0.00000000000E+00 0. -1.
</event>
<event>
 7    1  0.2412631E-010  0.1121825E+03  0.7561462E-02  0.1256581E+00
          2   -1    0    0  501    0  0.00000000000E+00  0.00000000000E+00  0.35141357582E+03  0.35141357582E+03  0.00000000000E+00 0. -1.
         -2   -1    0    0    0  501 -0.00000000000E+00 -0.00000000000E+00 -0.38375847015E+02  0.38375847015E+02  0.00000000000E+00 0.  1.
         25    2    1    2    0    0 -0.13271655625E+02 -0.29052782910E+02  0.22679711696E+03  0.26098014847E+03  0.12511396643E+03 0.  0.
          5    1    3    3  502    0  0.46211720255E+02  0.21176277908E+02  0.96029477100E+02  0.10873403656E+03  0.41800000000E+01 0. -1.
         -5    1    3    3    0  502 -0.59483375880E+02 -0.50229060818E+02  0.13076763986E+03  0.15224611191E+03  0.41800000000E+01 0. -1.
        -11    1    1    2    0    0  0.41526000523E+02 -0.14065811764E+02  0.34715598164E+02  0.55923416704E+02  0.00000000000E+00 0.  1.
         11    1    1    2    0    0 -0.28254344897E+02  0.43118594674E+02  0.51525013686E+02  0.72885857665E+02  0.00000000000E+00 0. -1.
</event>
<event>
 7    1  0.2412631E-010  0.1095678E+03  0.7561462E-02  0.1261372E+00
         -1   -1    0    0    0  501 -0.00000000000E+00  0.00000000000E+00  0.18244261163E+02  0.18244261163E+02  0.00000000000E+00 0.  1.
          1   -1    0    0  501    0  0.00000000000E+00 -0.00000000000E+00 -0.68798960943E+03  0.68798960943E+03  0.00000000000E+00 0. -1.
         25    2    1    2    0    0 -0.11429197414E+02  0.26617982221E+02 -0.35136372519E+03  0.37409697048E+03  0.12511167976E+03 0.  0.
          5    1    3    3  502    0 -0.65358032553E+02  0.27076077520E+02 -0.24077554699E+03  0.25098829220E+03  0.41800000000E+01 0. -1.
         -5    1    3    3    0  502  0.53928835139E+02 -0.45809529935E+00 -0.11058817820E+03  0.12310867828E+03  0.41800000000E+01 0. -1.
        -11    1    1    2    0    0  0.50859286406E+02 -0.13503409863E+02 -0.19323891059E+03  0.20027552436E+03  0.00000000000E+00 0. -1.
         11    1    1    2    0    0 -0.39430088992E+02 -0.13114572358E+02 -0.12514271249E+03  0.13186137575E+03  0.00000000000E+00 0.  1.
</event>
<event>
 6    1  0.2412631E-010  0.1354456E+03  0.7561462E-02  0.1219592E+00
         -1   -1    0    0    0  501 -0.00000000000E+00  0.00000000000E+00  0.36888429835E+02  0.36888429835E+02  0.00000000000E+00 0.  1.
          1   -1    0    0  501    0  0.00000000000E+00 -0.00000000000E+00 -0.66979273753E+03  0.66979273753E+03  0.00000000000E+00 0. -1.
          5    1    1    2  502    0 -0.60888306555E+01  0.30106239587E+02 -0.17519005761E+03  0.17791146170E+03  0.41800000000E+01 0.  1.
         -5    1    1    2    0  502 -0.10135536479E+03 -0.64758120564E+02 -0.20111379528E+03  0.23437311109E+03  0.41800000000E+01 0.  1.
        -11    1    1    2    0    0  0.34548478160E+02 -0.74776084141E+01 -0.14736353694E+02  0.38297155129E+02  0.00000000000E+00 0.  1.
         11    1    1    2    0    0  0.72895717284E+02  0.42129489390E+02 -0.24186410111E+03  0.25609943944E+03  0.00000000000E+00 0. -1.
</event>
<event>
 6    1  0.2412631E-010  0.1042022E+03  0.7561462E-02  0.1271700E+00
         -1   -1    0    0    0  501 -0.00000000000E+00  0.00000000000E+00  0.81477068533E+02  0.81477068533E+02  0.00000000000E+00 0.  1.
          1   -1    0    0  501    0  0.00000000000E+00 -0.00000000000E+00 -0.29910104191E+03  0.29910104191E+03  0.00000000000E+00 0. -1.
          5    1    1    2  502    0  0.62823726095E+02  0.12725327113E+02 -0.80821862562E+02  0.10323952915E+03  0.41800000000E+01 0.  1.
         -5    1    1    2    0  502 -0.49787277205E+02 -0.94912787857E+01 -0.16829426980E+03  0.17581038363E+03  0.41800000000E+01 0.  1.
        -11    1    1    2    0    0  0.38432190309E+02 -0.13680658913E+02  0.26779795367E+02  0.48799089337E+02  0.00000000000E+00 0.  1.
         11    1    1    2    0    0 -0.51468639200E+02  0.10446610586E+02  0.47123636218E+01  0.52729108325E+02  0.00000000000E+00 0. -1.
</event>
<event>
 7    1  0.2412631E-010  0.1120503E+03  0.7561462E-02  0.1256819E+00
         -2   -1    0    0    0  501 -0.00000000000E+00  0.00000000000E+00  0.74240424289E+02  0.74240424289E+02  0.00000000000E+00 0. -1.
          2   -1    0    0  501    0  0.00000000000E+00 -0.00000000000E+00 -0.17410175096E+03  0.17410175096E+03  0.00000000000E+00 0.  1.
         25    2    1    2    0    0  0.25169539970E+02  0.25275829409E+02 -0.46795042672E+02  0.13825615169E+03  0.12511040791E+03 0.  0.
          5    1    3    3  502    0 -0.41932755080E+02  0.43022748864E+02 -0.16759450413E+02  0.62511314548E+02  0.41800000000E+01 0. -1.
         -5    1    3    3    0  502  0.67102295050E+02 -0.17746919455E+02 -0.30035592260E+02  0.75744837141E+02  0.41800000000E+01 0. -1.
        -11    1    1    2    0    0  0.57999383210E+01 -0.52674570702E+02 -0.41029694582E+02  0.67020038202E+02  0.00000000000E+00 0.  1.
         11    1    1    2    0    0 -0.30969478291E+02  0.27398741293E+02 -0.12036589417E+02  0.43065985358E+02  0.00000000000E+00 0. -1.
</event>
<event>
 6    1  0.2412631E-010  0.1395371E+03  0.7561462E-02  0.1213953E+00
         -1   -1    0    0    0  501 -0.00000000000E+00  0.00000000000E+00  0.13476525099E+03  0.13476525099E+03  0.00000000000E+00 0.  1.
          1   -1    0    0  501    0  0.00000000000E+00 -0.00000000000E+00 -0.22458867069E+03  0.22458867069E+03  0.00000000000E+00 0. -1.
          5    1    1    2  502    0 -0.10135775878E+03  0.52952439663E+01 -0.11096985757E+03  0.15044339986E+03  0.41800000000E+01 0.  1.
         -5    1    1    2    0  502  0.27744351277E+02  0.41997906305E+02 -0.43281294869E+02  0.66515532376E+02  0.41800000000E+01 0.  1.
        -11    1    1    2    0    0  0.65492169474E+02  0.12472642180E+02  0.33478165774E+02  0.74602805905E+02  0.00000000000E+00 0. -1.
         11    1    1    2    0    0  0.81212380274E+01 -0.59765792452E+02  0.30949566958E+02  0.67792183542E+02  0.00000000000E+00 0.  1.
</event>
<event>
 7    1  0.2412631E-010  0.1093931E+03  0.7561462E-02  0.1261698E+00
          1   -1    0    0  501    0  0.00000000000E+00  0.00000000000E+00  0.42903660109E+03  0.42903660109E+03  0.00000000000E+00 0. -1.
         -1   -1    0    0    0  501 -0.00000000000E+00 -0.00000000000E+00 -0.39898696743E+02  0.39898696743E+02  0.00000000000E+00 0.  1.
         25    2    1    2    0    0 -0.43870163577E+02  0.33172377649E+02  0.14457511805E+03  0.19890787864E+03  0.12504951634E+03 0.  0.
          5    1    3    3  502    0 -0.35203102880E+02 -0.30706902821E+02  0.76651284026E+01  0.47522614897E+02  0.41800000000E+01 0. -1.
         -5    1    3    3    0  502 -0.86670606965E+01  0.63879280469E+02  0.13690998964E+03  0.15138526374E+03  0.41800000000E+01 0. -1.
        -11    1    1    2    0    0 -0.13534221338E+02 -0.46436774377E+02  0.64837982965E+02  0.80891984749E+02  0.00000000000E+00 0.  1.
         11    1    1    2    0    0  0.57404384914E+02  0.13264396728E+02  0.17972480333E+03  0.18913543444E+03  0.00000000000E+00 0. -1.
</event>
<event>
 6    1  0.2412631E-010  0.2260189E+03  0.7561462E-02  0.1129474E+00
          1   -1    0    0  501    0  0.00000000000E+00  0.00000000000E+00  0.57798719233E+02  0.57798719233E+02  0.00000000000E+00 0. -1.
         -1   -1    0    0    0  501 -0.00000000000E+00 -0.00000000000E+00 -0.95119549396E+03  0.95119549396E+03  0.00000000000E+00 0.  1.
          5    1    1    2  502    0  0.46218929158E+02 -0.21914642766E+03 -0.41501068939E+03  0.47160650004E+03  0.41800000000E+01 0.  1.
         -5    1    1    2    0  502 -0.50784892005E+01  0.16004700577E+02 -0.46293177129E+02  0.49421373330E+02  0.41800000000E+01 0.  1.
        -11    1    1    2    0    0  0.28944867295E+01  0.78195803076E+02 -0.80596867450E+02  0.11233350664E+03  0.00000000000E+00 0. -1.
         11    1    1    2    0    0 -0.44034926687E+02  0.12494592401E+03 -0.35149604075E+03  0.37563283317E+03  0.00000000000E+00 0.  1.
</event>
<event>
 7    1  0.2412631E-010  0.1088612E+03  0.7561462E-02  0.1262693E+00
         -2   -1    0    0    0  501 -0.00000000000E+00  0.00000000000E+00  0.17683103383E+03  0.17683103383E+03  0.00000000000E+00 0.  1.
          2   -1    0    0  501    0  0.00000000000E+00 -0.00000000000E+00 -0.11936683358E+03  0.11936683358E+03  0.00000000000E+00 0. -1.
         25    2    1    2    0    0 -0.75270454525E+02  0.18354917578E+02  0.93595619314E+02  0.17440113842E+03  0.12511224083E+03 0.  0.
          5    1    3    3  502    0 -0.24064055850E+02 -0.31838226771E+02  0.94395967985E+02  0.10257106141E+03  0.41800000000E+01 0. -1.
         -5    1    3    3    0  502 -0.51206398675E+02  0.50193144350E+02 -0.80034867059E+00  0.71830077008E+02  0.41800000000E+01 0. -1.
        -11    1    1    2    0    0  0.52686534561E+02  0.23902951095E+02 -0.44713775444E+02  0.73120063659E+02  0.00000000000E+00 0.  1.
         11    1    1    2    0    0  0.22583919964E+02 -0.42257868674E+02  0.85823563818E+01  0.48676665322E+02  0.00000000000E+00 0. -1.
</event>
<event>
 7    1  0.2412631E-010  0.1131207E+03  0.7561462E-02  0.1254898E+00
          2   -1    0    0  501    0  0.00000000000E+00  0.00000000000E+00  0.32834947484E+03  0.32834947484E+03  0.00000000000E+00 0. -1.
         -2   -1    0    0    0  501 -0.00000000000E+00 -0.00000000000E+00 -0.46513518952E+02  0.46513518952E+02  0.00000000000E+00 0.  1.
         25    2    1    2    0    0  0.22145538088E+02 -0.44048054592E+02  0.10827111767E+03  0.17261111850E+03  0.12506521234E+03 0.  0.
          5    1    3    3  502    0 -0.15607257010E+02 -0.72953817096E+02  0.98924342115E+02  0.12397315743E+03  0.41800000000E+01 0. -1.
         -5    1    3    3    0  502  0.37752795098E+02  0.28905762504E+02  0.93467755547E+01  0.48637961069E+02  0.41800000000E+01 0. -1.
        -11    1    1    2    0    0 -0.26076909996E+02 -0.24111407489E+02  0.56639103609E+02  0.66853221790E+02  0.00000000000E+00 0.  1.
         11    1    1    2    0    0  0.39313719076E+01  0.68159462081E+02  0.11692573460E+03  0.13539865350E+03  0.00000000000E+00 0. -1.
</event>
<event>
 7    1  0.2412631E-010  0.1212595E+03  0.7561462E-02  0.1241034E+00
          2   -1    0    0  501    0  0.00000000000E+00  0.00000000000E+00  0.11083676956E+04  0.11083676956E+04  0.00000000000E+00 0. -1.
         -2   -1    0    0    0  501 -0.00000000000E+00 -0.00000000000E+00 -0.17462354580E+02  0.17462354580E+02  0.00000000000E+00 0.  1.
         25    2    1    2    0    0  0.19611827306E+02 -0.63354948929E+02  0.82382342617E+03  0.83589591086E+03  0.12505384020E+03 0.  0.
          5    1    3    3  502    0  0.40586468762E+02 -0.88882205282E+02  0.72603429317E+03  0.73259168377E+03  0.41800000000E+01 0. -1.
         -5    1    3    3    0  502 -0.20974641457E+02  0.25527256353E+02  0.97789133004E+02  0.10330422709E+03  0.41800000000E+01 0. -1.
        -11    1    1    2    0    0  0.42493378270E+01  0.81393630756E+02  0.21413772059E+03  0.22912429679E+03  0.00000000000E+00 0. -1.
         11    1    1    2    0    0 -0.23861165133E+02 -0.18038681827E+02  0.52944194240E+02  0.60809842519E+02  0.00000000000E+00 0.  1.
</event>
<event>
 6    1  0.2412631E-010  0.4502066E+02  0.7561462E-02  0.1474213E+00
          1   -1    0    0  501    0  0.00000000000E+00  0.00000000000E+00  0.42206463182E+02  0.42206463182E+02  0.00000000000E+00 0. -1.
         -1   -1    0    0    0  501 -0.00000000000E+00 -0.00000000000E+00 -0.34115846924E+03  0.34115846924E+03  0.00000000000E+00 0.  1.
          5    1    1    2  502    0 -0.42721765296E+01 -0.29808294067E+01  0.12092562400E+02  0.13814459876E+02  0.41800000000E+01 0.  1.
         -5    1    1    2    0  502  0.23276922067E+01 -0.16289152505E+02 -0.30199001894E+03  0.30246685534E+03  0.41800000000E+01 0.  1.
        -11    1    1    2    0    0  0.31354006520E+02  0.23867555682E+00 -0.25872116362E+01  0.31461474138E+02  0.00000000000E+00 0. -1.
         11    1    1    2    0    0 -0.29409522197E+02  0.19031306355E+02 -0.64673378824E+01  0.35622143068E+02  0.00000000000E+00 0.  1.
</event>
<event>
 7    1  0.2412631E-010  0.1323697E+03  0.7561462E-02  0.1223981E+00
          2   -1    0    0  501    0  0.00000000000E+00  0.00000000000E+00  0.69750413275E+03  0.69750413275E+03  0.00000000000E+00 0. -1.
         -2   -1    0    0    0  501 -0.00000000000E+00 -0.00000000000E+00 -0.35498208111E+02  0.35498208111E+02  0.00000000000E+00 0.  1.
         25    2    1    2    0    0  0.82026931291E+02 -0.71740575370E+02  0.39664221921E+03  0.42994535239E+03  0.12511126394E+03 0.  0.
          5    1    3    3  502    0 -0.43265078889E+00 -0.21434300179E+02  0.26866918191E+03  0.26955559375E+03  0.41800000000E+01 0.  1.
         -5    1    3    3    0  502  0.82459582080E+02 -0.50306275191E+02  0.12797303730E+03  0.16038975864E+03  0.41800000000E+01 0.  1.
        -11    1    1    2    0    0  0.19427253157E+02  0.31625824033E+02  0.61303563703E+02  0.71664062358E+02  0.00000000000E+00 0. -1.
         11    1    1    2    0    0 -0.10145418445E+03  0.40114751336E+02  0.20406014172E+03  0.23139292611E+03  0.00000000000E+00 0.  1.
</event>
<event>
 6    1  0.2412631E-010  0.6692794E+02  0.7561462E-02  0.1370863E+00
         -2   -1    0    0    0  501 -0.00000000000E+00  0.00000000000E+00  0.85546226394E+02  0.85546226394E+02  0.00000000000E+00 0.  1.
          2   -1    0    0  501    0  0.00000000000E+00 -0.00000000000E+00 -0.18598120082E+03  0.18598120082E+03  0.00000000000E+00 0. -1.
          5    1    1    2  502    0  0.16605871664E+02  0.47058806326E+02  0.38292291038E+02  0.63040131500E+02  0.41800000000E+01 0.  1.
         -5    1    1    2    0  502  0.25516429511E+02 -0.14925064320E+02 -0.70657043194E+02  0.76705513966E+02  0.41800000000E+01 0.  1.
        -11    1    1    2    0    0 -0.21187453854E+02 -0.22411176868E+02 -0.92896852601E+02  0.97882553464E+02  0.00000000000E+00 0. -1.
         11    1    1    2    0    0 -0.20934847321E+02 -0.97225651370E+01  0.24826630326E+02  0.33899228288E+02  0.00000000000E+00 0.  1.
</event>
<event>
 7    1  0.2412631E-010  0.8334921E+02  0.7561462E-02  0.1319807E+00
          1   -1    0    0  501    0  0.00000000000E+00  0.00000000000E+00  0.35298439597E+03  0.35298439597E+03  0.00000000000E+00 0. -1.
         -1   -1    0    0    0  501 -0.00000000000E+00 -0.00000000000E+00 -0.44886596059E+02  0.44886596059E+02  0.00000000000E+00 0.  1.
         25    2    1    2    0    0  0.18200656211E+02 -0.24961891168E+02  0.25932797163E+03  0.28958688871E+03  0.12512077902E+03 0.  0.
          5    1    3    3  502    0  0.30917206066E+02  0.10697511137E+02  0.61378672123E+01  0.33547819443E+02  0.41800000000E+01 0. -1.
         -5    1    3    3    0  502 -0.12716549855E+02 -0.35659402304E+02  0.25319010442E+03  0.25603906926E+03  0.41800000000E+01 0. -1.
        -11    1    1    2    0    0  0.32944235457E+02  0.29579459338E+02  0.14675814096E+02  0.46643826858E+02  0.00000000000E+00 0.  1.
         11    1    1    2    0    0 -0.51144891668E+02 -0.46175681699E+01  0.34094014183E+02  0.61640276465E+02  0.00000000000E+00 0. -1.
</event>
<event>
 7    1  0.2412631E-010  0.2357844E+03  0.7561462E-02  0.1122633E+00
         -1   -1    0    0    0  501 -0.00000000000E+00  0.00000000000E+00  0.68116765350E+02  0.68116765350E+02  0.00000000000E+00 0.  1.
          1   -1    0    0  501    0  0.00000000000E+00 -0.00000000000E+00 -0.85541646557E+03  0.85541646557E+03  0.00000000000E+00 0. -1.
         25    2    1    2    0    0  0.10496533776E+03 -0.18747381832E+03 -0.42726257790E+03  0.49433814438E+03  0.12511089412E+03 0.  0.
          5    1    3    3  502    0  0.69995475671E+02 -0.25099642574E+02 -0.19522300366E+03  0.20894700818E+03  0.41800000000E+01 0. -1.
         -5    1    3    3    0  502  0.34969862094E+02 -0.16237417575E+03 -0.23203957424E+03  0.28539113620E+03  0.41800000000E+01 0. -1.
        -11    1    1    2    0    0 -0.15889421218E+02  0.11504130759E+03 -0.14858496719E+03  0.18858544120E+03  0.00000000000E+00 0.  1.
         11    1    1    2    0    0 -0.89075916547E+02  0.72432510735E+02 -0.21145215513E+03  0.24060964534E+03  0.00000000000E+00 0. -1.
</event>
<event>
 7    1  0.2412631E-010  0.6373754E+02  0.7561462E-02  0.1382784E+00
          2   -1    0    0  501    0  0.00000000000E+00  0.00000000000E+00  0.86171687739E+02  0.86171687739E+02  0.00000000000E+00 0. -1.
         -2   -1    0    0    0  501 -0.00000000000E+00 -0.00000000000E+00 -0.15528727781E+03  0.15528727781E+03  0.00000000000E+00 0.  1.
         25    2    1    2    0    0  0.50966280491E+01  0.12514585373E+01 -0.66570535286E+02  0.14182234028E+03  0.12511753782E+03 0.  0.
          5    1    3    3  502    0 -0.53293645783E+01 -0.45487851085E+02 -0.79677451469E+02  0.91997366243E+02  0.41800000000E+01 0.  1.
         -5    1    3    3    0  502  0.10425992627E+02  0.46739309622E+02  0.13106916183E+02  0.49824974040E+02  0.41800000000E+01 0.  1.
        -11    1    1    2    0    0 -0.18189333841E+02 -0.64918507101E+01 -0.48161732657E+02  0.51889772439E+02  0.00000000000E+00 0.  1.
         11    1    1    2    0    0  0.13092705792E+02  0.52403921728E+01  0.45616677871E+02  0.47746852829E+02  0.00000000000E+00 0. -1.
</event>
<event>
 6    1  0.2412631E-010  0.1161980E+03  0.7561462E-02  0.1249504E+00
         -1   -1    0    0    0  501 -0.00000000000E+00  0.00000000000E+00  0.20009079129E+02  0.20009079129E+02  0.00000000000E+00 0.  1.
          1   -1    0    0  501    0  0.00000000000E+00 -0.00000000000E+00 -0.75663113482E+03  0.75663113482E+03  0.00000000000E+00 0. -1.
          5    1    1    2  502    0 -0.39692768519E+02 -0.11723497448E+01 -0.21237426921E+03  0.21609533290E+03  0.41800000000E+01 0. -1.
         -5    1    1    2    0  502  0.75533352600E+02  0.49855903424E+02 -0.21821274997E+03  0.23627351758E+03  0.41800000000E+01 0. -1.
        -11    1    1    2    0    0  0.15375608805E+02 -0.48258186958E+02 -0.10168674957E+03  0.11360218745E+03  0.00000000000E+00 0.  1.
         11    1    1    2    0    0 -0.51216192886E+02 -0.42536672110E+00 -0.20434828694E+03  0.21066917602E+03  0.00000000000E+00 0. -1.
</event>
<event>
 6    1  0.2412631E-010  0.1177709E+03  0.7561462E-02  0.1246820E+00
          2   -1    0    0  501    0  0.00000000000E+00  0.00000000000E+00  0.21095023518E+02  0.21095023518E+02  0.00000000000E+00 0. -1.
         -2   -1    0    0    0  501 -0.00000000000E+00 -0.00000000000E+00 -0.92633448677E+03  0.92633448677E+03  0.00000000000E+00 0.  1.
          5    1    1    2  502    0 -0.58024828175E+02  0.58001676364E+02 -0.58439728487E+03  0.59014297769E+03  0.41800000000E+01 0. -1.
         -5    1    1    2    0  502 -0.20015785651E+01 -0.44252216412E+02 -0.12497702580E+03  0.13266120138E+03  0.41800000000E+01 0. -1.
        -11    1    1    2    0    0  0.38305947676E+02  0.37271292520E+02 -0.11180507952E+03  0.12392284164E+03  0.00000000000E+00 0.  1.
         11    1    1    2    0    0  0.21720459064E+02 -0.51020752473E+02 -0.84060073058E+02  0.10070248958E+03  0.00000000000E+00 0. -1.
</event>
<event>
 7    1  0.2980183E-010  0.2222176E+03  0.7561462E-02  0.1132240E+00
          2   -1    0    0  501    0  0.00000000000E+00  0.00000000000E+00  0.11405623937E+04  0.11405623937E+04  0.00000000000E+00 0. -1.
         -2   -1    0    0    0  501 -0.00000000000E+00 -0.00000000000E+00 -0.52980166127E+02  0.52980166127E+02  0.00000000000E+00 0.  1.
         25    2    1    2    0    0  0.77836053210E+02  0.18456787152E+03  0.78365986243E+03  0.81847701759E+03  0.12513232179E+03 0.  0.
          5    1    3    3  502    0 -0.21727165932E+02  0.66886215902E+02  0.14158610751E+03  0.15814529350E+03  0.41800000000E+01 0. -1.
         -5    1    3    3    0  502  0.99563219142E+02  0.11768165562E+03  0.64207375493E+03  0.66033172409E+03  0.41800000000E+01 0. -1.
        -11    1    1    2    0    0 -0.96406748257E+02 -0.17256008830E+03  0.27414559355E+03  0.33797492755E+03  0.00000000000E+00 0. -1.
         11    1    1    2    0    0  0.18570695046E+02 -0.12007783217E+02  0.29776771598E+02  0.37090614704E+02  0.00000000000E+00 0.  1.
</event>
<event>
 7    1  0.2412631E-010  0.3033760E+03  0.7561462E-02  0.1083565E+00
          2   -1    0    0  501    0  0.00000000000E+00  0.00000000000E+00  0.24730848898E+04  0.24730848898E+04  0.00000000000E+00 0. -1.
         -2   -1    0    0    0  501 -0.00000000000E+00 -0.00000000000E+00 -0.39306868249E+02  0.39306868249E+02  0.00000000000E+00 0.  1.
         25    2    1    2    0    0 -0.28927722174E+03  0.21591566349E+02  0.10968648656E+04  0.11414457671E+04  0.12505358455E+03 0.  0.
          5    1    3    3  502    0 -0.56743910149E+02  0.45917413327E+02  0.39331084233E+03  0.40004896110E+03  0.41800000000E+01 0. -1.
         -5    1    3    3    0  502 -0.23253331160E+03 -0.24325846978E+02  0.70355402327E+03  0.74139680596E+03  0.41800000000E+01 0. -1.
        -11    1    1    2    0    0  0.15149995985E+03  0.26635601997E+02  0.57780242859E+03  0.59792753709E+03  0.00000000000E+00 0. -1.
         11    1    1    2    0    0  0.13777726190E+03 -0.48227168345E+02  0.75911072739E+03  0.77301845392E+03  0.00000000000E+00 0.  1.
</event>
<event>
 7    1  0.2412631E-010  0.1041958E+03  0.7561462E-02  0.1271712E+00
          2   -1    0    0  501    0  0.00000000000E+00  0.00000000000E+00  0.31684127383E+03  0.31684127383E+03  0.00000000000E+00 0. -1.
         -2   -1    0    0    0  501 -0.00000000000E+00 -0.00000000000E+00 -0.49251453839E+02  0.49251453839E+02  0.00000000000E+00 0.  1.
         25    2    1    2    0    0 -0.35526004172E+02  0.50355498725E+02  0.13482889700E+03  0.19399863675E+03  0.12513539216E+03 0.  0.
          5    1    3    3  502    0  0.14973406171E+02 -0.11337625188E+02  0.10811277790E+03  0.10981161042E+03  0.41800000000E+01 0.  1.
         -5    1    3    3    0  502 -0.50499410343E+02  0.61693123913E+02  0.26716119102E+02  0.84187026335E+02  0.41800000000E+01 0.  1.
        -11    1    1    2    0    0  0.62375792297E+02 -0.13673988396E+02  0.72548142906E+02  0.96648592656E+02  0.00000000000E+00 0.  1.
         11    1    1    2    0    0 -0.26849788125E+02 -0.36681510329E+02  0.60212780079E+02  0.75445498257E+02  0.00000000000E+00 0. -1.
</event>
<event>
 7    1  0.2412631E-010  0.1973751E+03  0.7561462E-02  0.1151973E+00
         -1   -1    0    0    0  501 -0.00000000000E+00  0.00000000000E+00  0.12503478176E+03  0.12503478176E+03  0.00000000000E+00 0.  1.
          1   -1    0    0  501    0  0.00000000000E+00 -0.00000000000E+00 -0.36237252344E+03  0.36237252344E+03  0.00000000000E+00 0. -1.
         25    2    1    2    0    0 -0.16403461646E+03  0.53059359247E+02 -0.19138815787E+03  0.28634226858E+03  0.12505925317E+03 0.  0.
          5    1    3    3  502    0 -0.13612934740E+03  0.88698694379E+02 -0.17281721598E+03  0.23723810855E+03  0.41800000000E+01 0.  1.
         -5    1    3    3    0  502 -0.27905269059E+02 -0.35639335132E+02 -0.18570941891E+02  0.49104160034E+02  0.41800000000E+01 0.  1.
        -11    1    1    2    0    0  0.13860217167E+03 -0.70912847134E+02 -0.13715533161E+02  0.15629238538E+03  0.00000000000E+00 0.  1.
         11    1    1    2    0    0  0.25432444793E+02  0.17853487886E+02 -0.32234050645E+02  0.44772651237E+02  0.00000000000E+00 0. -1.
</event>
<event>
 6    1  0.2412631E-010  0.8938622E+02  0.7561462E-02  0.1304345E+00
         -2   -1    0    0    0  501 -0.00000000000E+00  0.00000000000E+00  0.68549287692E+02  0.68549287692E+02  0.00000000000E+00 0.  1.
          2   -1    0    0  501    0  0.00000000000E+00 -0.00000000000E+00 -0.23637136754E+03  0.23637136754E+03  0.00000000000E+00 0. -1.
          5    1    1    2  502    0  0.31976921236E+02 -0.55706064068E+02 -0.10510965168E+02  0.65219949819E+02  0.41800000000E+01 0.  1.
         -5    1    1    2    0  502 -0.58420692331E+00  0.13011581664E+02 -0.12765080779E+03  0.12838163297E+03  0.41800000000E+01 0.  1.
        -11    1    1    2    0    0  0.25933695723E+02  0.33972742668E+02  0.61296339103E+01  0.43177265200E+02  0.00000000000E+00 0. -1.
         11    1    1    2    0    0 -0.57326410035E+02  0.87217397362E+01 -0.35789940801E+02  0.68141807242E+02  0.00000000000E+00 0.  1.
</event>
<event>
 7    1  0.2412631E-010  0.1580904E+03  0.7561462E-02  0.1190870E+00
          1   -1    0    0  501    0  0.00000000000E+00  0.00000000000E+00  0.14274695323E+03  0.14274695323E+03  0.00000000000E+00 0. -1.
         -1   -1    0    0    0  501 -0.00000000000E+00 -0.00000000000E+00 -0.20942571554E+03  0.20942571554E+03  0.00000000000E+00 0.  1.
         25    2    1    2    0    0  0.12960687652E+03  0.17821952993E+02 -0.89225781949E+02  0.20182488749E+03  0.12512585902E+03 0.  0.
          5    1    3    3  502    0  0.56481590484E+02  0.70756493649E+02 -0.42899167420E+02  0.10027194235E+03  0.41800000000E+01 0.  1.
         -5    1    3    3    0  502  0.73125286039E+02 -0.52934540655E+02 -0.46326614530E+02  0.10155294514E+03  0.41800000000E+01 0.  1.
        -11    1    1    2    0    0 -0.59256635318E+02 -0.25300281726E+02 -0.20402175209E+02  0.67584775193E+02  0.00000000000E+00 0.  1.
         11    1    1    2    0    0 -0.70350241205E+02  0.74783287323E+01  0.42949194858E+02  0.82763006090E+02  0.00000000000E+00 0. -1.
</event>
<event>
 6    1  0.2412631E-010  0.1222360E+03  0.7561462E-02  0.1239453E+00
         -4   -1    0    0    0  501 -0.00000000000E+00  0.00000000000E+00  0.33232515007E+03  0.33232515007E+03  0.00000000000E+00 0.  1.
          4   -1    0    0  501    0  0.00000000000E+00 -0.00000000000E+00 -0.49935564406E+02  0.49935564406E+02  0.00000000000E+00 0. -1.
          5    1    1    2  502    0  0.54432964621E+02  0.53898522382E+02  0.66939721880E+02  0.10181550529E+03  0.41800000000E+01 0. -1.
         -5    1    1    2    0  502  0.12487276942E+02 -0.63954954946E+02  0.68206722276E+02  0.94423501901E+02  0.41800000000E+01 0. -1.
        -11    1    1    2    0    0 -0.15468033830E+01  0.33104934029E+02  0.14304470736E+02  0.36096359107E+02  0.00000000000E+00 0. -1.
         11    1    1    2    0    0 -0.65373438180E+02 -0.23048501465E+02  0.13293867077E+03  0.14992534818E+03  0.00000000000E+00 0.  1.
</event>
<event>
 6    1  0.2412631E-010  0.1622462E+03  0.7561462E-02  0.1186184E+00
          3   -1    0    0  501    0  0.00000000000E+00  0.00000000000E+00  0.33623481865E+03  0.33623481865E+03  0.00000000000E+00 0. -1.
         -3   -1    0    0    0  501 -0.00000000000E+00 -0.00000000000E+00 -0.94424887524E+02  0.94424887524E+02  0.00000000000E+00 0.  1.
          5    1    1    2  502    0 -0.47086966109E+02  0.19849043145E+02  0.10014483737E+03  0.11250612313E+03  0.41800000000E+01 0.  1.
         -5    1    1    2    0  502 -0.83587391357E+02 -0.61212384223E+02  0.12327168038E+02  0.10441857808E+03  0.41800000000E+01 0.  1.
        -11    1    1    2    0    0  0.10296872433E+03  0.73941933108E+02  0.88511360149E+02  0.15460992380E+03  0.00000000000E+00 0. -1.
         11    1    1    2    0    0  0.27705633140E+02 -0.32578592030E+02  0.40826565572E+02  0.59125081165E+02  0.00000000000E+00 0.  1.
</event>
<event>
 7    1  0.2412631E-010  0.1438237E+03  0.7561462E-02  0.1208275E+00
         -2   -1    0    0    0  501 -0.00000000000E+00  0.00000000000E+00  0.42076489501E+03  0.42076489501E+03  0.00000000000E+00 0. -1.
          2   -1    0    0  501    0  0.00000000000E+00 -0.00000000000E+00 -0.68033826362E+02  0.68033826362E+02  0.00000000000E+00 0.  1.
         25    2    1    2    0    0 -0.82930508489E+02  0.53080037997E+02  0.27336395883E+03  0.31635433019E+03  0.12512892781E+03 0.  0.
          5    1    3    3  502    0  0.18828294200E+02 -0.86378685673E+01  0.35498070482E+01  0.21428741586E+02  0.41800000000E+01 0. -1.
         -5    1    3    3    0  502 -0.10175880269E+03  0.61717906564E+02  0.26981415178E+03  0.29492558861E+03  0.41800000000E+01 0. -1.
        -11    1    1    2    0    0 -0.14756557364E+02 -0.47325197465E+02  0.49684245623E+02  0.70185144891E+02  0.00000000000E+00 0.  1.
         11    1    1    2    0    0  0.97687065853E+02 -0.57548405322E+01  0.29682864199E+02  0.10225924629E+03  0.00000000000E+00 0. -1.
</event>
<event>
 6    1  0.2412631E-010  0.1799338E+03  0.7561462E-02  0.1167867E+00
          2   -1    0    0  501    0  0.00000000000E+00  0.00000000000E+00  0.22563983438E+04  0.22563983438E+04  0.00000000000E+00 0.  1.
         -2   -1    0    0    0  501 -0.00000000000E+00 -0.00000000000E+00 -0.16264182672E+02  0.16264182672E+02  0.00000000000E+00 0. -1.
          5    1    1    2  502    0  0.10469968656E+03 -0.11876818166E+03  0.13029765865E+04  0.13125674698E+04  0.41800000000E+01 0. -1.
         -5    1    1    2    0  502  0.12832349714E+02  0.19773972213E+02  0.57301598439E+02  0.62101729122E+02  0.41800000000E+01 0. -1.
        -11    1    1    2    0    0 -0.52645831512E+02  0.99596361867E+02  0.62047384030E+03  0.63061779659E+03  0.00000000000E+00 0.  1.
         11    1    1    2    0    0 -0.64886204757E+02 -0.60215241904E+00  0.25938213589E+03  0.26737553100E+03  0.00000000000E+00 0. -1.
</event>
<event>
 7    1  0.2412631E-010  0.1133363E+03  0.7561462E-02  0.1254513E+00
         -2   -1    0    0    0  501 -0.00000000000E+00  0.00000000000E+00  0.21334367920E+03  0.21334367920E+03  0.00000000000E+00 0.  1.
          2   -1    0    0  501    0  0.00000000000E+00 -0.00000000000E+00 -0.75824737930E+02  0.75824737930E+02  0.00000000000E+00 0. -1.
         25    2    1    2    0    0  0.85075922993E+00 -0.38881436902E+02  0.13690572093E+03  0.18946221110E+03  0.12506103743E+03 0.  0.
          5    1    3    3  502    0  0.45148327688E+02 -0.62677825802E+02  0.10239162389E+03  0.12832925771E+03  0.41800000000E+01 0. -1.
         -5    1    3    3    0  502 -0.44297568458E+02  0.23796388900E+02  0.34514097040E+02  0.61132953392E+02  0.41800000000E+01 0. -1.
        -11    1    1    2    0    0  0.44913381381E+02  0.15892622830E+02  0.67810467233E+01  0.48122446759E+02  0.00000000000E+00 0. -1.
         11    1    1    2    0    0 -0.45764140611E+02  0.22988814072E+02 -0.61678263841E+01  0.51583759271E+02  0.00000000000E+00 0.  1.
</event>
<event>
 7    1  0.2412631E-010  0.1552451E+03  0.7561462E-02  0.1194172E+00
         -2   -1    0    0    0  501 -0.00000000000E+00  0.00000000000E+00  0.49884546968E+02  0.49884546968E+02  0.00000000000E+00 0.  1.
          2   -1    0    0  501    0  0.00000000000E+00 -0.00000000000E+00 -0.56851983760E+03  0.56851983760E+03  0.00000000000E+00 0. -1.
         25    2    1    2    0    0 -0.12712100525E+03  0.11206161603E+02 -0.25297849875E+03  0.30974182106E+03  0.12512612377E+03 0.  0.
          5    1    3    3  502    0 -0.13719832149E+03 -0.24849827920E+02 -0.21470058843E+03  0.25603653732E+03  0.41800000000E+01 0.  1.
         -5    1    3    3    0  502  0.10077316248E+02  0.36055989523E+02 -0.38277910323E+02  0.53705283743E+02  0.41800000000E+01 0.  1.
        -11    1    1    2    0    0  0.44167815864E+02 -0.22567093145E+02 -0.28599996765E+02  0.57254078162E+02  0.00000000000E+00 0. -1.
         11    1    1    2    0    0  0.82953189383E+02  0.11360931542E+02 -0.23705679512E+03  0.25140848535E+03  0.00000000000E+00 0.  1.
</event>
<event>
 6    1  0.2412631E-010  0.9501626E+02  0.7561462E-02  0.1291139E+00
         -2   -1    0    0    0  501 -0.00000000000E+00  0.00000000000E+00  0.22196933744E+03  0.22196933744E+03  0.00000000000E+00 0.  1.
          2   -1    0    0  501    0  0.00000000000E+00 -0.00000000000E+00 -0.79046165827E+02  0.79046165827E+02  0.00000000000E+00 0. -1.
          5    1    1    2  502    0 -0.34439695045E+02  0.43807217853E+02  0.15351752819E+02  0.57950958969E+02  0.41800000000E+01 0.  1.
         -5    1    1    2    0  502 -0.71417582372E+01 -0.43552430974E+02  0.13316040002E+03  0.14034594219E+03  0.41800000000E+01 0.  1.
        -11    1    1    2    0    0  0.60462874183E+02 -0.18836487977E+02  0.19468511796E+02  0.66254021655E+02  0.00000000000E+00 0.  1.
         11    1    1    2    0    0 -0.18881420902E+02  0.18581701098E+02 -0.25057493026E+02  0.36464580454E+02  0.00000000000E+00 0. -1.
</event>
<event>
 7    1  0.2412631E-010  0.1021611E+03  0.7561462E-02  0.1275816E+00
          1   -1    0    0  501    0  0.00000000000E+00  0.00000000000E+00  0.56564233394E+03  0.56564233394E+03  0.00000000000E+00 0. -1.
         -1   -1    0    0    0  501 -0.00000000000E+00 -0.00000000000E+00 -0.22037244009E+02  0.22037244009E+02  0.00000000000E+00 0.  1.
         25    2    1    2    0    0  0.15697567075E+02  0.18897922015E+02  0.28506865224E+03  0.31225213352E+03  0.12503484845E+03 0.  0.
          5    1    3    3  502    0  0.61960650234E+02 -0.92978372392E+01  0.89891296013E+02  0.10965167328E+03  0.41800000000E+01 0. -1.
         -5    1    3    3    0  502 -0.46263083159E+02  0.28195759254E+02  0.19517735623E+03  0.20260046024E+03  0.41800000000E+01 0. -1.
        -11    1    1    2    0    0 -0.42351158215E+02  0.14223091099E+02  0.77394641460E+02  0.89363568915E+02  0.00000000000E+00 0.  1.
         11    1    1    2    0    0  0.26653591140E+02 -0.33121013114E+02  0.18114179623E+03  0.18606387552E+03  0.00000000000E+00 0. -1.
</event>
<event>
 7    1  0.2412631E-010  0.1190924E+03  0.7561462E-02  0.1244602E+00
         -1   -1    0    0    0  501 -0.00000000000E+00  0.00000000000E+00  0.12730849112E+02  0.12730849112E+02  0.00000000000E+00 0. -1.
          1   -1    0    0  501    0  0.00000000000E+00 -0.00000000000E+00 -0.12637673415E+04  0.12637673415E+04  0.00000000000E+00 0.  1.
         25    2    1    2    0    0  0.33444034077E+02  0.52583412818E+02 -0.80411913301E+03  0.81616945106E+03  0.12506587887E+03 0.  0.
          5    1    3    3  502    0  0.78733383097E+02  0.33404877316E+02 -0.60468329646E+03  0.61071613116E+03  0.41800000000E+01 0.  1.
         -5    1    3    3    0  502 -0.45289349020E+02  0.19178535502E+02 -0.19943583655E+03  0.20545331990E+03  0.41800000000E+01 0.  1.
        -11    1    1    2    0    0 -0.11074828983E+02  0.22377792456E+02 -0.51326966307E+02  0.57077796930E+02  0.00000000000E+00 0. -1.
         11    1    1    2    0    0 -0.22369205095E+02 -0.74961205274E+02 -0.39559039312E+03  0.40325094267E+03  0.00000000000E+00 0.  1.
</event>
<event>
 7    1  0.2412631E-010  0.1443173E+03  0.7561462E-02  0.1207635E+00
         -1   -1    0    0    0  501 -0.00000000000E+00  0.00000000000E+00  0.69678134919E+02  0.69678134919E+02  0.00000000000E+00 0.  1.
          1   -1    0    0  501    0  0.00000000000E+00 -0.00000000000E+00 -0.38918674073E+03  0.38918674073E+03  0.00000000000E+00 0. -1.
         25    2    1    2    0    0 -0.29658036949E+02  0.96228681319E+02 -0.67779353490E+02  0.17428273879E+03  0.12506347994E+03 0.  0.
          5    1    3    3  502    0 -0.77223491029E+02  0.58325319114E+02 -0.25730771905E+02  0.10022402626E+03  0.41800000000E+01 0.  1.
         -5    1    3    3    0  502  0.47565454080E+02  0.37903362205E+02 -0.42048581585E+02  0.74058712530E+02  0.41800000000E+01 0.  1.
        -11    1    1    2    0    0 -0.21585359233E+02  0.22319479171E+00 -0.25810193913E+02  0.33647342524E+02  0.00000000000E+00 0.  1.
         11    1    1    2    0    0  0.51243396182E+02 -0.96451876110E+02 -0.22591905841E+03  0.25093479434E+03  0.00000000000E+00 0. -1.
</event>
<event>
 7    1  0.2412631E-010  0.1715872E+03  0.7561462E-02  0.1176203E+00
          1   -1    0    0  501    0  0.00000000000E+00  0.00000000000E+00  0.76137425753E+03  0.76137425753E+03  0.00000000000E+00 0. -1.
         -1   -1    0    0    0  501 -0.00000000000E+00 -0.00000000000E+00 -0.54876193820E+02  0.54876193820E+02  0.00000000000E+00 0.  1.
         25    2    1    2    0    0 -0.28614150151E+01 -0.15854143846E+03  0.21480507058E+03  0.29483319339E+03  0.12506725459E+03 0.  0.
          5    1    3    3  502    0  0.29692275771E+02 -0.12631678922E+03  0.21219831964E+03  0.24876326445E+03  0.41800000000E+01 0.  1.
         -5    1    3    3    0  502 -0.32553690786E+02 -0.32224649239E+02  0.26067509413E+01  0.46069928943E+02  0.41800000000E+01 0.  1.
        -11    1    1    2    0    0  0.27954134851E+02  0.95243237408E+02  0.35628033968E+03  0.36984914272E+03  0.00000000000E+00 0.  1.
         11    1    1    2    0    0 -0.25092719836E+02  0.63298201049E+02  0.13541265345E+03  0.15156811524E+03  0.00000000000E+00 0. -1.
</event>
<event>
 6    1  0.2412631E-010  0.1555584E+03  0.7561462E-02  0.1193805E+00
         -1   -1    0    0    0  501 -0.00000000000E+00  0.00000000000E+00  0.33017054811E+02  0.33017054811E+02  0.00000000000E+00 0.  1.
          1   -1    0    0  501    0  0.00000000000E+00 -0.00000000000E+00 -0.83476016087E+03  0.83476016087E+03  0.00000000000E+00 0. -1.
          5    1    1    2  502    0 -0.94708864554E+02  0.45947266720E+02 -0.23669142131E+03  0.25907763637E+03  0.41800000000E+01 0.  1.
         -5    1    1    2    0  502  0.33505730689E+02  0.61651091924E+02 -0.13956089353E+03  0.15626326032E+03  0.41800000000E+01 0.  1.
        -11    1    1    2    0    0  0.16529371260E+02 -0.82693103558E+02 -0.35775213556E+03  0.36755674391E+03  0.00000000000E+00 0. -1.
         11    1    1    2    0    0  0.44673762605E+02 -0.24905255087E+02 -0.67738655654E+02  0.84879575082E+02  0.00000000000E+00 0.  1.
</event>
<event>
 7    1  0.2412631E-010  0.1516730E+03  0.7561462E-02  0.1198432E+00
          2   -1    0    0  501    0  0.00000000000E+00  0.00000000000E+00  0.19770648450E+04  0.19770648450E+04  0.00000000000E+00 0. -1.
         -2   -1    0    0    0  501 -0.00000000000E+00 -0.00000000000E+00 -0.14244180702E+02  0.14244180702E+02  0.00000000000E+00 0.  1.
         25    2    1    2    0    0  0.65924892558E+02 -0.84557017597E+02  0.14177596160E+04  0.14272965809E+04  0.12504887294E+03 0.  0.
          5    1    3    3  502    0  0.60682825784E+02  0.14576788039E+02  0.68115782037E+03  0.68402363757E+03  0.41800000000E+01 0. -1.
         -5    1    3    3    0  502  0.52420667743E+01 -0.99133805636E+02  0.73660179559E+03  0.74327294337E+03  0.41800000000E+01 0. -1.
        -11    1    1    2    0    0 -0.78237949491E+02  0.27289525636E+02  0.25599772447E+03  0.26907383724E+03  0.00000000000E+00 0.  1.
         11    1    1    2    0    0  0.12313056933E+02  0.57267491962E+02  0.28906332383E+03  0.29493860750E+03  0.00000000000E+00 0. -1.
</event>
<event>
 6    1  0.2412631E-010  0.1089868E+03  0.7561462E-02  0.1262458E+00
         -2   -1    0    0    0  501 -0.00000000000E+00  0.00000000000E+00  0.16129630200E+03  0.16129630200E+03  0.00000000000E+00 0.  1.
          2   -1    0    0  501    0  0.00000000000E+00 -0.00000000000E+00 -0.77113856062E+02  0.77113856062E+02  0.00000000000E+00 0. -1.
          5    1    1    2  502    0  0.25155115806E+02 -0.71984136835E+02  0.32936788444E+02  0.83167302710E+02  0.41800000000E+01 0. -1.
         -5    1    1    2    0  502 -0.76346485208E+01  0.46637936875E+02 -0.10491834277E+00  0.47443317990E+02  0.41800000000E+01 0. -1.
        -11    1    1    2    0    0 -0.50397460582E+02 -0.33712915828E+01  0.21381586366E+02  0.54849265042E+02  0.00000000000E+00 0.  1.
         11    1    1    2    0    0  0.32876993297E+02  0.28717491542E+02  0.29968989468E+02  0.52950272317E+02  0.00000000000E+00 0. -1.
</event>
<event>
 6    1  0.2412631E-010  0.2023848E+03  0.7561462E-02  0.1147742E+00
         -3   -1    0    0    0  501 -0.00000000000E+00  0.00000000000E+00  0.18303154508E+03  0.18303154508E+03  0.00000000000E+00 0.  1.
          3   -1    0    0  501    0  0.00000000000E+00 -0.00000000000E+00 -0.32048078046E+03  0.32048078046E+03  0.00000000000E+00 0. -1.
          5    1    1    2  502    0 -0.18707848703E+03  0.20082154774E+02  0.56221659182E+02  0.19641792334E+03  0.41800000000E+01 0.  1.
         -5    1    1    2    0  502 -0.67826074735E+01  0.15468961839E+02 -0.33081522715E+02  0.37378497691E+02  0.41800000000E+01 0.  1.
        -11    1    1    2    0    0  0.14027616562E+03 -0.38625029145E+02 -0.15969345626E+03  0.21603540332E+03  0.00000000000E+00 0. -1.
         11    1    1    2    0    0  0.53584928883E+02  0.30739125317E+01 -0.89591558611E+00  0.53680501175E+02  0.00000000000E+00 0.  1.
</event>
<event>
 7    1  0.2412631E-010  0.1181258E+03  0.7561462E-02  0.1246221E+00
         -1   -1    0    0    0  501 -0.00000000000E+00  0.00000000000E+00  0.78295349827E+02  0.78295349827E+02  0.00000000000E+00 0.  1.
          1   -1    0    0  501    0  0.00000000000E+00 -0.00000000000E+00 -0.23468676363E+03  0.23468676363E+03  0.00000000000E+00 0. -1.
         25    2    1    2    0    0  0.26374660330E+02  0.70780412260E+02 -0.11713373702E+03  0.18725809801E+03  0.12505915982E+03 0.  0.
          5    1    3    3  502    0 -0.38217479010E+02  0.49869923817E+02 -0.15308178550E+02  0.64802760234E+02  0.41800000000E+01 0.  1.
         -5    1    3    3    0  502  0.64592139339E+02  0.20910488443E+02 -0.10182555847E+03  0.12245533778E+03  0.41800000000E+01 0.  1.
        -11    1    1    2    0    0 -0.46776007795E+02 -0.20635453902E+02 -0.48887954615E+02  0.70737889207E+02  0.00000000000E+00 0. -1.
         11    1    1    2    0    0  0.20401347465E+02 -0.50144958358E+02  0.96302778404E+01  0.54986126236E+02  0.00000000000E+00 0.  1.
</event>
<event>
 6    1  0.2412631E-010  0.8175920E+02  0.7561462E-02  0.1324132E+00
         -2   -1    0    0    0  501 -0.00000000000E+00  0.00000000000E+00  0.28672803333E+02  0.28672803333E+02  0.00000000000E+00 0.  1.
          2   -1    0    0  501    0  0.00000000000E+00 -0.00000000000E+00 -0.44906013420E+03  0.44906013420E+03  0.00000000000E+00 0. -1.
          5    1    1    2  502    0  0.48910576042E+02  0.34787730075E+02 -0.10744574589E+03  0.12314418915E+03  0.41800000000E+01 0. -1.
         -5    1    1    2    0  502 -0.36148055951E+02 -0.52454018597E+02 -0.18233465047E+03  0.19318774076E+03  0.41800000000E+01 0. -1.
        -11    1    1    2    0    0 -0.91810818241E+00  0.25367797570E+02 -0.14137581575E+03  0.14363665742E+03  0.00000000000E+00 0. -1.
         11    1    1    2    0    0 -0.11844411909E+02 -0.77015090487E+01  0.10768881239E+02  0.17764350206E+02  0.00000000000E+00 0.  1.
</event>
<event>
 7    1  0.2412631E-010  0.1627062E+03  0.7561462E-02  0.1185675E+00
         -2   -1    0    0    0  501 -0.00000000000E+00  0.00000000000E+00  0.23806888644E+03  0.23806888644E+03  0.00000000000E+00 0.  1.
          2   -1    0    0  501    0  0.00000000000E+00 -0.00000000000E+00 -0.14300289808E+03  0.14300289808E+03  0.00000000000E+00 0. -1.
         25    2    1    2    0    0 -0.13530143901E+03 -0.28591127453E+02 -0.51471519550E+01  0.18652813470E+03  0.12506926040E+03 0.  0.
          5    1    3    3  502    0  0.61048754648E+01  0.31780635758E+02 -0.18037006160E+01  0.32680331234E+02  0.41800000000E+01 0.  1.
         -5    1    3    3    0  502 -0.14140631447E+03 -0.60371763211E+02 -0.33434513389E+01  0.15384780347E+03  0.41800000000E+01 0.  1.
        -11    1    1    2    0    0  0.80054896777E+02  0.23793190426E+02  0.11012377543E+03  0.13821052176E+03  0.00000000000E+00 0. -1.
         11    1    1    2    0    0  0.55246542230E+02  0.47979370275E+01 -0.99106351230E+01  0.56333128056E+02  0.00000000000E+00 0.  1.
</event>
<event>
 6    1  0.2412631E-010  0.9630164E+02  0.7561462E-02  0.1288271E+00
         -1   -1    0    0    0  501 -0.00000000000E+00  0.00000000000E+00  0.71805174253E+02  0.71805174253E+02  0.00000000000E+00 0.  1.
          1   -1    0    0  501    0  0.00000000000E+00 -0.00000000000E+00 -0.24379668636E+03  0.24379668636E+03  0.00000000000E+00 0. -1.
          5    1    1    2  502    0  0.51282742271E+02  0.12945869113E+02  0.11506607681E+02  0.54289866479E+02  0.41800000000E+01 0.  1.
         -5    1    1    2    0  502  0.21416750221E+01 -0.62239438159E+02 -0.91793612703E+02  0.11100393762E+03  0.41800000000E+01 0.  1.
        -11    1    1    2    0    0 -0.43210716448E+02  0.23060390355E+02 -0.10742560017E+03  0.11806441966E+03  0.00000000000E+00 0. -1.
         11    1    1    2    0    0 -0.10213700845E+02  0.26233178691E+02  0.15721093087E+02  0.32243636846E+02  0.00000000000E+00 0.  1.
</event>
<event>
 6    1  0.2412631E-010  0.2039381E+03  0.7561462E-02  0.1146458E+00
         -2   -1    0    0    0  501 -0.00000000000E+00  0.00000000000E+00  0.48618032986E+02  0.48618032986E+02  0.00000000000E+00 0.  1.
          2   -1    0    0  501    0  0.00000000000E+00 -0.00000000000E+00 -0.12392738110E+04  0.12392738110E+04  0.00000000000E+00 0. -1.
          5    1    1    2  502    0  0.12870513462E+03 -0.60323090564E+02 -0.31475934500E+03  0.34539079981E+03  0.41800000000E+01 0. -1.
         -5    1    1    2    0  502  0.31326683720E+02 -0.48130454662E+02 -0.20038548625E+02  0.60966528603E+02  0.41800000000E+01 0. -1.
        -11    1    1    2    0    0 -0.11999203310E+03  0.11651288022E+03 -0.74069968932E+03  0.75934798941E+03  0.00000000000E+00 0.  1.
         11    1    1    2    0    0 -0.40039785231E+02 -0.80593349970E+01 -0.11515819504E+03  0.12218652612E+03  0.00000000000E+00 0. -1.
</event>
<event>
 6    1  0.2412631E-010  0.1767305E+03  0.7561462E-02  0.1171005E+00
          2   -1    0    0  501    0  0.00000000000E+00  0.00000000000E+00  0.20191849117E+03  0.20191849117E+03  0.00000000000E+00 0. -1.
         -2   -1    0    0    0  501 -0.00000000000E+00 -0.00000000000E+00 -0.21207151239E+03  0.21207151239E+03  0.00000000000E+00 0.  1.
          5    1    1    2  502    0  0.11148051339E+03  0.51612348973E+02  0.57618453333E+02  0.13575381393E+03  0.41800000000E+01 0. -1.
         -5    1    1    2    0  502  0.38884590285E+02  0.38624160884E+02 -0.57700617613E+02  0.79691096356E+02  0.41800000000E+01 0. -1.
        -11    1    1    2    0    0 -0.19773951794E+02 -0.15377850405E+02 -0.37938114323E+02  0.45461939807E+02  0.00000000000E+00 0.  1.
         11    1    1    2    0    0 -0.13059115188E+03 -0.74858659452E+02  0.27867257381E+02  0.15308315347E+03  0.00000000000E+00 0. -1.
</event>
<event>
 6    1  0.2412631E-010  0.1192976E+03  0.7561462E-02  0.1244260E+00
         -1   -1    0    0    0  501 -0.00000000000E+00  0.00000000000E+00  0.23690639622E+02  0.23690639622E+02  0.00000000000E+00 0.  1.
          1   -1    0    0  501    0  0.00000000000E+00 -0.00000000000E+00 -0.75786989810E+03  0.75786989810E+03  0.00000000000E+00 0. -1.
          5    1    1    2  502    0 -0.44361550071E+01 -0.73207815734E+02 -0.36840229003E+03  0.37565513900E+03  0.41800000000E+01 0.  1.
         -5    1    1    2    0  502  0.45340812810E+02  0.39405689727E+02 -0.20555444208E+03  0.21419313422E+03  0.41800000000E+01 0.  1.
        -11    1    1    2    0    0 -0.35654005970E+02 -0.26476954747E+02 -0.60124662653E+02  0.74747657713E+02  0.00000000000E+00 0.  1.
         11    1    1    2    0    0 -0.52506518335E+01  0.60279080755E+02 -0.10009786372E+03  0.11696460679E+03  0.00000000000E+00 0. -1.
</event>
<event>
 7    1  0.2412631E-010  0.1152396E+03  0.7561462E-02  0.1251163E+00
          1   -1    0    0  501    0  0.00000000000E+00  0.00000000000E+00  0.74122961858E+02  0.74122961858E+02  0.00000000000E+00 0. -1.
         -1   -1    0    0    0  501 -0.00000000000E+00 -0.00000000000E+00 -0.22492761316E+03  0.22492761316E+03  0.00000000000E+00 0.  1.
         25    2    1    2    0    0 -0.17926208402E+02  0.13186594144E+02 -0.14362954353E+03  0.19172381208E+03  0.12503335208E+03 0.  0.
          5    1    3    3  502    0  0.49869223165E+02  0.25532377889E+02 -0.80559257962E+02  0.98214602699E+02  0.41800000000E+01 0.  1.
         -5    1    3    3    0  502 -0.67795431567E+02 -0.12345783746E+02 -0.63070285565E+02  0.93509209380E+02  0.41800000000E+01 0.  1.
        -11    1    1    2    0    0 -0.42353234632E+02  0.41019512411E+01  0.67664014183E+01  0.43086038062E+02  0.00000000000E+00 0.  1.
         11    1    1    2    0    0  0.60279443033E+02 -0.17288545385E+02 -0.13941509191E+02  0.64240724875E+02  0.00000000000E+00 0. -1.
</event>
<event>
 7    1  0.2412631E-010  0.9679076E+02  0.7561462E-02  0.1287193E+00
         -2   -1    0    0    0  501 -0.00000000000E+00  0.00000000000E+00  0.42397159344E+02  0.42397159344E+02  0.00000000000E+00 0. -1.
          2   -1    0    0  501    0  0.00000000000E+00 -0.00000000000E+00 -0.33354431853E+03  0.33354431853E+03  0.00000000000E+00 0.  1.
         25    2    1    2    0    0  0.29343637777E+02 -0.51895424378E+01 -0.22656671794E+03  0.26050214321E+03  0.12506361786E+03 0.  0.
          5    1    3    3  502    0  0.63117558518E+02 -0.79642454091E+01 -0.21530841344E+03  0.22454941704E+03  0.41800000000E+01 0. -1.
         -5    1    3    3    0  502 -0.33773920741E+02  0.27747029712E+01 -0.11258304506E+02  0.35952726171E+02  0.41800000000E+01 0. -1.
        -11    1    1    2    0    0 -0.41955398495E+02  0.40422226039E+02 -0.38863442514E+02  0.70032699397E+02  0.00000000000E+00 0. -1.
         11    1    1    2    0    0  0.12611760718E+02 -0.35232683601E+02 -0.25716998729E+02  0.45406635262E+02  0.00000000000E+00 0.  1.
</event>
<event>
 7    1  0.2412631E-010  0.1172227E+03  0.7561462E-02  0.1247750E+00
          3   -1    0    0  501    0  0.00000000000E+00  0.00000000000E+00  0.64143053430E+02  0.64143053430E+02  0.00000000000E+00 0. -1.
         -3   -1    0    0    0  501 -0.00000000000E+00 -0.00000000000E+00 -0.34077638201E+03  0.34077638201E+03  0.00000000000E+00 0.  1.
         25    2    1    2    0    0 -0.18440598131E+02 -0.67214150460E+02 -0.24633803554E+03  0.28494634221E+03  0.12511671554E+03 0.  0.
          5    1    3    3  502    0  0.34100087366E+02  0.10779047690E+02 -0.23379797608E+02  0.42931237621E+02  0.41800000000E+01 0.  1.
         -5    1    3    3    0  502 -0.52540685497E+02 -0.77993198150E+02 -0.22295823793E+03  0.24201510459E+03  0.41800000000E+01 0.  1.
        -11    1    1    2    0    0 -0.76668799236E+01  0.76283877400E+02 -0.44761133802E+02  0.88778207338E+02  0.00000000000E+00 0.  1.
         11    1    1    2    0    0  0.26107478055E+02 -0.90697269405E+01  0.14465840754E+02  0.31194885893E+02  0.00000000000E+00 0. -1.
</event>
<event>
 7    1  0.2412631E-010  0.1190175E+03  0.7561462E-02  0.1244727E+00
         -1   -1    0    0    0  501 -0.00000000000E+00  0.00000000000E+00  0.24834094449E+02  0.24834094449E+02  0.00000000000E+00 0.  1.
          1   -1    0    0  501    0  0.00000000000E+00 -0.00000000000E+00 -0.61058434847E+03  0.61058434847E+03  0.00000000000E+00 0. -1.
         25    2    1    2    0    0 -0.57534081305E+02 -0.16085960104E+02 -0.33170899450E+03  0.35949763371E+03  0.12505503983E+03 0.  0.
          5    1    3    3  502    0 -0.32809041894E+02  0.53916753525E+02 -0.17393342549E+03  0.18507770920E+03  0.41800000000E+01 0.  1.
         -5    1    3    3    0  502 -0.24725039411E+02 -0.70002713629E+02 -0.15777556902E+03  0.17441992451E+03  0.41800000000E+01 0.  1.
        -11    1    1    2    0    0 -0.11874800665E+01 -0.27354770029E+02 -0.31694268152E+02  0.41883411823E+02  0.00000000000E+00 0.  1.
         11    1    1    2    0    0  0.58721561372E+02  0.43440730133E+02 -0.22234699136E+03  0.23403739738E+03  0.00000000000E+00 0. -1.
</event>
<event>
 7    1  0.2412631E-010  0.1305883E+03  0.7561462E-02  0.1226585E+00
          1   -1    0    0  501    0  0.00000000000E+00  0.00000000000E+00  0.21602515328E+03  0.21602515328E+03  0.00000000000E+00 0. -1.
         -1   -1    0    0    0  501 -0.00000000000E+00 -0.00000000000E+00 -0.11017549650E+03  0.11017549650E+03  0.00000000000E+00 0.  1.
         25    2    1    2    0    0 -0.64422652990E+02 -0.84705177015E+02  0.30217396060E+02  0.16695297571E+03  0.12503983302E+03 0.  0.
          5    1    3    3  502    0 -0.55988093765E+02  0.12085609586E+02  0.38829636844E+02  0.69324899566E+02  0.41800000000E+01 0.  1.
         -5    1    3    3    0  502 -0.84345592253E+01 -0.96790786601E+02 -0.86122407840E+01  0.97628076144E+02  0.41800000000E+01 0.  1.
        -11    1    1    2    0    0  0.42396510678E+02  0.52478434516E+02  0.94324706817E+02  0.11596810132E+03  0.00000000000E+00 0. -1.
         11    1    1    2    0    0  0.22026142311E+02  0.32226742499E+02 -0.18692446095E+02  0.43279572759E+02  0.00000000000E+00 0.  1.
</event>
<event>
 7    1  0.2412631E-010  0.7595933E+02  0.7561462E-02  0.1340926E+00
         -1   -1    0    0    0  501 -0.00000000000E+00  0.00000000000E+00  0.86023718496E+02  0.86023718496E+02  0.00000000000E+00 0.  1.
          1   -1    0    0  501    0  0.00000000000E+00 -0.00000000000E+00 -0.14660172127E+03  0.14660172127E+03  0.00000000000E+00 0. -1.
         25    2    1    2    0    0 -0.85045355669E+01 -0.28029088604E+02 -0.35753172413E+02  0.13333481360E+03  0.12506768667E+03 0.  0.
          5    1    3    3  502    0 -0.46332426718E+02  0.90295387594E+01 -0.58724552229E+02  0.75460398689E+02  0.41800000000E+01 0.  1.
         -5    1    3    3    0  502  0.37827891151E+02 -0.37058627364E+02  0.22971379816E+02  0.57874414915E+02  0.41800000000E+01 0.  1.
        -11    1    1    2    0    0 -0.14634799179E+02  0.23721542740E+02 -0.54619813284E+02  0.61320575178E+02  0.00000000000E+00 0. -1.
         11    1    1    2    0    0  0.23139334746E+02  0.43075458643E+01  0.29794982927E+02  0.37970050981E+02  0.00000000000E+00 0.  1.
</event>
<event>
 6    1  0.2412631E-010  0.8856055E+02  0.7561462E-02  0.1306375E+00
         -1   -1    0    0    0  501 -0.00000000000E+00  0.00000000000E+00  0.76530909385E+02  0.76530909385E+02  0.00000000000E+00 0.  1.
          1   -1    0    0  501    0  0.00000000000E+00 -0.00000000000E+00 -0.21868393250E+03  0.21868393250E+03  0.00000000000E+00 0. -1.
          5    1    1    2  502    0  0.42181583114E+02 -0.43183993002E+02 -0.10823132635E+03  0.12399853067E+03  0.41800000000E+01 0.  1.
         -5    1    1    2    0  502  0.66868135544E+01  0.62015998077E+02 -0.29079436205E+02  0.68947686713E+02  0.41800000000E+01 0.  1.
        -11    1    1    2    0    0 -0.28724287782E+02 -0.18071139502E+02  0.40386147222E+02  0.52751224430E+02  0.00000000000E+00 0.  1.
         11    1    1    2    0    0 -0.20144108886E+02 -0.76086557399E+00 -0.45228407780E+02  0.49517400068E+02  0.00000000000E+00 0. -1.
</event>
<event>
 7    1  0.2412631E-010  0.1465080E+03  0.7561462E-02  0.1204831E+00
         -1   -1    0    0    0  501 -0.00000000000E+00  0.00000000000E+00  0.19451423829E+02  0.19451423829E+02  0.00000000000E+00 0.  1.
          1   -1    0    0  501    0  0.00000000000E+00 -0.00000000000E+00 -0.15361803892E+04  0.15361803892E+04  0.00000000000E+00 0. -1.
         25    2    1    2    0    0 -0.99299542953E+02  0.51407619007E+02 -0.11274266525E+04  0.11398371889E+04  0.12503926522E+03 0.  0.
          5    1    3    3  502    0 -0.68401515173E+02  0.80813010434E+02 -0.99551256372E+03  0.10011354788E+04  0.41800000000E+01 0.  1.
         -5    1    3    3    0  502 -0.30898027779E+02 -0.29405391427E+02 -0.13191408877E+03  0.13870171009E+03  0.41800000000E+01 0.  1.
        -11    1    1    2    0    0 -0.40564630431E+00  0.20982999282E+02 -0.36602848812E+02  0.42192645674E+02  0.00000000000E+00 0.  1.
         11    1    1    2    0    0  0.99705189257E+02 -0.72390618289E+02 -0.35269946410E+03  0.37360197852E+03  0.00000000000E+00 0. -1.
</event>
<event>
 7    1  0.2412631E-010  0.1532651E+03  0.7561462E-02  0.1196517E+00
         -2   -1    0    0    0  501 -0.00000000000E+00  0.00000000000E+00  0.70694152782E+02  0.70694152782E+02  0.00000000000E+00 0.  1.
          2   -1    0    0  501    0  0.00000000000E+00 -0.00000000000E+00 -0.39692085862E+03  0.39692085862E+03  0.00000000000E+00 0. -1.
         25    2    1    2    0    0 -0.27658296358E+02 -0.12277719237E+03 -0.19981016567E+03  0.26724565360E+03  0.12512760184E+03 0.  0.
          5    1    3    3  502    0  0.29832777382E+02 -0.47827848440E+02 -0.13194597429E+02  0.58043668854E+02  0.41800000000E+01 0. -1.
         -5    1    3    3    0  502 -0.57491073740E+02 -0.74949343929E+02 -0.18661556824E+03  0.20920198475E+03  0.41800000000E+01 0. -1.
        -11    1    1    2    0    0  0.58816824204E+02  0.53569448160E+02 -0.65261738550E+02  0.10289897523E+03  0.00000000000E+00 0. -1.
         11    1    1    2    0    0 -0.31158527845E+02  0.69207744208E+02 -0.61154801624E+02  0.97470382566E+02  0.00000000000E+00 0.  1.
</event>
<event>
 6    1  0.2412631E-010  0.9115398E+02  0.7561462E-02  0.1300081E+00
         -3   -1    0    0    0  501 -0.00000000000E+00  0.00000000000E+00  0.64045231547E+03  0.64045231547E+03  0.00000000000E+00 0.  1.
          3   -1    0    0  501    0  0.00000000000E+00 -0.00000000000E+00 -0.21268586686E+02  0.21268586686E+02  0.00000000000E+00 0. -1.
          5    1    1    2  502    0  0.28038963778E+02 -0.49288812026E+00  0.14948331646E+02  0.32052323589E+02  0.41800000000E+01 0. -1.
         -5    1    1    2    0  502 -0.40539351203E+02  0.36489446192E+02  0.38523735183E+03  0.38910179687E+03  0.41800000000E+01 0. -1.
        -11    1    1    2    0    0 -0.18445975967E+02 -0.58272366061E+02  0.14390835356E+03  0.15635068564E+03  0.00000000000E+00 0. -1.
         11    1    1    2    0    0  0.30946363392E+02  0.22275807989E+02  0.75089691743E+02  0.84216096055E+02  0.00000000000E+00 0.  1.
</event>
<event>
 6    1  0.2412631E-010  0.1777859E+03  0.7561462E-02  0.1169963E+00
          2   -1    0    0  501    0  0.00000000000E+00  0.00000000000E+00  0.24305322649E+03  0.24305322649E+03  0.00000000000E+00 0. -1.
         -2   -1    0    0    0  501 -0.00000000000E+00 -0.00000000000E+00 -0.20399235023E+03  0.20399235023E+03  0.00000000000E+00 0.  1.
          5    1    1    2  502    0 -0.77791044953E+02  0.72513245875E+02 -0.54040739812E+02  0.11936285629E+03  0.41800000000E+01 0.  1.
         -5    1    1    2    0  502 -0.71839669115E+02 -0.53148291811E+02 -0.47984835971E+02  0.10151697328E+03  0.41800000000E+01 0.  1.
        -11    1    1    2    0    0  0.79013452724E+02 -0.36468758342E+02  0.12405951628E+03  0.15153831076E+03  0.00000000000E+00 0. -1.
         11    1    1    2    0    0  0.70617261343E+02  0.17103804278E+02  0.17026935761E+02  0.74627436388E+02  0.00000000000E+00 0.  1.
</event>
<event>
 7    1  0.2412631E-010  0.1111222E+03  0.7561462E-02  0.1258506E+00
          1   -1    0    0  501    0  0.00000000000E+00  0.00000000000E+00  0.12908348368E+03  0.12908348368E+03  0.00000000000E+00 0. -1.
         -1   -1    0    0    0  501 -0.00000000000E+00 -0.00000000000E+00 -0.18224237790E+03  0.18224237790E+03  0.00000000000E+00 0.  1.
         25    2    1    2    0    0  0.45034366552E+02  0.89528646123E+02  0.15128933810E+02  0.16102156983E+03  0.12512229483E+03 0.  0.
          5    1    3    3  502    0  0.28867624478E+02  0.51832492405E+02  0.70340214073E+02  0.92114956049E+02  0.41800000000E+01 0.  1.
         -5    1    3    3    0  502  0.16166742074E+02  0.37696153718E+02 -0.55211280264E+02  0.68906613781E+02  0.41800000000E+01 0.  1.
        -11    1    1    2    0    0 -0.62640262504E+02 -0.79718220397E+02 -0.78013818447E+02  0.12792557609E+03  0.00000000000E+00 0.  1.
         11    1    1    2    0    0  0.17605895953E+02 -0.98104257265E+01  0.97259904168E+01  0.22378715665E+02  0.00000000000E+00 0. -1.
</event>
<event>
 7    1  0.2412631E-010  0.1171623E+03  0.7561462E-02  0.1247853E+00
          2   -1    0    0  501    0  0.00000000000E+00  0.00000000000E+00  0.20143304817E+03  0.20143304817E+03  0.00000000000E+00 0. -1.
         -2   -1    0    0    0  501 -0.00000000000E+00 -0.00000000000E+00 -0.81198979718E+02  0.81198979718E+02  0.00000000000E+00 0.  1.
         25    2    1    2    0    0  0.38937864897E+02 -0.24704615577E+02  0.12006699836E+02  0.13388421355E+03  0.12511733071E+03 0.  0.
          5    1    3    3  502    0  0.49816697613E+02  0.42206471527E+02  0.60331909448E+01  0.65703587366E+02  0.41800000000E+01 0.  1.
         -5    1    3    3    0  502 -0.10878832716E+02 -0.66911087104E+02  0.59735088912E+01  0.68180626186E+02  0.41800000000E+01 0.  1.
        -11    1    1    2    0    0 -0.33573188042E+02 -0.30593977364E+02  0.38141299063E+02  0.59311964227E+02  0.00000000000E+00 0.  1.
         11    1    1    2    0    0 -0.53646768540E+01  0.55298592941E+02  0.70086069549E+02  0.89435850104E+02  0.00000000000E+00 0. -1.
</event>
<event>
 7    1  0.2412631E-010  0.9551208E+02  0.7561462E-02  0.1290027E+00
         -1   -1    0    0    0  501 -0.00000000000E+00  0.00000000000E+00  0.37486113319E+03  0.37486113319E+03  0.00000000000E+00 0.  1.
          1   -1    0    0  501    0  0.00000000000E+00 -0.00000000000E+00 -0.31309060578E+02  0.31309060578E+02  0.00000000000E+00 0. -1.
         25    2    1    2    0    0 -0.42458494994E+01 -0.83058639607E+01  0.17422961413E+03  0.21466979861E+03  0.12506058285E+03 0.  0.
          5    1    3    3  502    0  0.19384247874E+02  0.48719090269E+02  0.12496206304E+03  0.13558129820E+03  0.41800000000E+01 0.  1.
         -5    1    3    3    0  502 -0.23630097374E+02 -0.57024954229E+02  0.49267551084E+02  0.79088500406E+02  0.41800000000E+01 0.  1.
        -11    1    1    2    0    0 -0.33708175056E+02  0.16800031932E+02  0.13319322961E+03  0.13841574532E+03  0.00000000000E+00 0.  1.
         11    1    1    2    0    0  0.37954024555E+02 -0.84941679714E+01  0.36129228879E+02  0.53084649842E+02  0.00000000000E+00 0. -1.
</event>
<event>
 6    1  0.2412631E-010  0.8287253E+02  0.7561462E-02  0.1321092E+00
         -1   -1    0    0    0  501 -0.00000000000E+00  0.00000000000E+00  0.76231951683E+02  0.76231951683E+02  0.00000000000E+00 0.  1.
          1   -1    0    0  501    0  0.00000000000E+00 -0.00000000000E+00 -0.17287895460E+03  0.17287895460E+03  0.00000000000E+00 0. -1.
          5    1    1    2  502    0  0.97440729307E+00  0.58137136331E+02  0.27859425137E+02  0.64610340189E+02  0.41800000000E+01 0. -1.
         -5    1    1    2    0  502  0.13438274589E+02 -0.25026062402E+02 -0.64270026429E+02  0.70391758896E+02  0.41800000000E+01 0. -1.
        -11    1    1    2    0    0 -0.28135783656E+01 -0.54411479534E+02 -0.69355794031E+02  0.88197230648E+02  0.00000000000E+00 0. -1.
         11    1    1    2    0    0 -0.11599103516E+02  0.21300405605E+02  0.91193924085E+01  0.25911576548E+02  0.00000000000E+00 0.  1.
</event>
<event>
 6    1  0.2412631E-010  0.5160860E+02  0.7561462E-02  0.1436853E+00
         -4   -1    0    0    0  501 -0.00000000000E+00  0.00000000000E+00  0.37721523360E+02  0.37721523360E+02  0.00000000000E+00 0.  1.
          4   -1    0    0  501    0  0.00000000000E+00 -0.00000000000E+00 -0.32891447319E+03  0.32891447319E+03  0.00000000000E+00 0. -1.
          5    1    1    2  502    0 -0.24503891136E+02 -0.13974370938E+02  0.10135135547E+02  0.30264122265E+02  0.41800000000E+01 0.  1.
         -5    1    1    2    0  502  0.22161312510E+01 -0.10209408058E+02 -0.19444777748E+03  0.19477308289E+03  0.41800000000E+01 0.  1.
        -11    1    1    2    0    0  0.51280041804E+01  0.39870504550E+02 -0.11093931134E+03  0.11799781507E+03  0.00000000000E+00 0. -1.
         11    1    1    2    0    0  0.17159755704E+02 -0.15686725555E+02  0.40590034510E+01  0.23600976324E+02  0.00000000000E+00 0.  1.
</event>
<event>
 7    1  0.2412631E-010  0.1003628E+03  0.7561462E-02  0.1279535E+00
         -2   -1    0    0    0  501 -0.00000000000E+00  0.00000000000E+00  0.38058477896E+02  0.38058477896E+02  0.00000000000E+00 0.  1.
          2   -1    0    0  501    0  0.00000000000E+00 -0.00000000000E+00 -0.49174586639E+03  0.49174586639E+03  0.00000000000E+00 0. -1.
         25    2    1    2    0    0 -0.14081244923E+02 -0.23240731161E+02 -0.96569957384E+02  0.16037675612E+03  0.12512607319E+03 0.  0.
          5    1    3    3  502    0  0.42456230818E+02  0.14203209858E+02 -0.34360737520E+01  0.45094807998E+02  0.41800000000E+01 0. -1.
         -5    1    3    3    0  502 -0.56537475741E+02 -0.37443941019E+02 -0.93133883632E+02  0.11528194812E+03  0.41800000000E+01 0. -1.
        -11    1    1    2    0    0 -0.75000630659E+01 -0.29709329151E+02 -0.66244877282E+02  0.72988211039E+02  0.00000000000E+00 0.  1.
         11    1    1    2    0    0  0.21581307989E+02  0.52950060312E+02 -0.29087255382E+03  0.29643937712E+03  0.00000000000E+00 0. -1.
</event>
<event>
 6    1  0.2412631E-010  0.1109616E+03  0.7561462E-02  0.1258799E+00
          1   -1    0    0  501    0  0.00000000000E+00  0.00000000000E+00  0.68525365665E+02  0.68525365665E+02  0.00000000000E+00 0. -1.
         -1   -1    0    0    0  501 -0.00000000000E+00 -0.00000000000E+00 -0.19634042136E+03  0.19634042136E+03  0.00000000000E+00 0.  1.
          5    1    1    2  502    0  0.43484914614E+02  0.74618300938E+02 -0.40304259267E+02  0.95397769099E+02  0.41800000000E+01 0.  1.
         -5    1    1    2    0  502 -0.13981779556E+02 -0.43334135586E+02 -0.26715100243E+02  0.52957591028E+02  0.41800000000E+01 0.  1.
        -11    1    1    2    0    0 -0.12956736362E+02 -0.57384431721E+02 -0.62150369882E+02  0.85577558376E+02  0.00000000000E+00 0.  1.
         11    1    1    2    0    0 -0.16546398696E+02  0.26100266368E+02  0.13546736952E+01  0.30932868524E+02  0.00000000000E+00 0. -1.
</event>
<event>
 7    1  0.2412631E-010  0.1148623E+03  0.7561462E-02  0.1251822E+00
          1   -1    0    0  501    0  0.00000000000E+00  0.00000000000E+00  0.74627207820E+02  0.74627207820E+02  0.00000000000E+00 0. -1.
         -1   -1    0    0    0  501 -0.00000000000E+00 -0.00000000000E+00 -0.28791560533E+03  0.28791560533E+03  0.00000000000E+00 0.  1.
         25    2    1    2    0    0 -0.23463209449E+02 -0.67211257093E+02 -0.19938041821E+03  0.24588572529E+03  0.12505744064E+03 0.  0.
          5    1    3    3  502    0  0.24284921374E+02  0.26764954407E+02 -0.34456304734E+02  0.50108178240E+02  0.41800000000E+01 0.  1.
         -5    1    3    3    0  502 -0.47748130823E+02 -0.93976211500E+02 -0.16492411348E+03  0.19577754706E+03  0.41800000000E+01 0.  1.
        -11    1    1    2    0    0  0.33378180055E+02  0.18545536138E+02 -0.44257167704E+02  0.58452858849E+02  0.00000000000E+00 0.  1.
         11    1    1    2    0    0 -0.99149706054E+01  0.48665720955E+02  0.30349188400E+02  0.58204229011E+02  0.00000000000E+00 0. -1.
</event>
<event>
 6    1  0.2412631E-010  0.7379754E+02  0.7561462E-02  0.1347636E+00
          1   -1    0    0  501    0  0.00000000000E+00  0.00000000000E+00  0.31631281976E+03  0.31631281976E+03  0.00000000000E+00 0. -1.
         -1   -1    0    0    0  501 -0.00000000000E+00 -0.00000000000E+00 -0.49383846523E+02  0.49383846523E+02  0.00000000000E+00 0.  1.
          5    1    1    2  502    0 -0.32709254298E+02  0.24567415531E+02 -0.14238433687E+02  0.43516187982E+02  0.41800000000E+01 0.  1.
         -5    1    1    2    0  502  0.23421832651E+02  0.29860689645E+02  0.13135115916E+03  0.13678758147E+03  0.41800000000E+01 0.  1.
        -11    1    1    2    0    0  0.24616886867E+02 -0.24844913098E+02  0.32938662193E+01  0.35129907209E+02  0.00000000000E+00 0.  1.
         11    1    1    2    0    0 -0.15329465221E+02 -0.29583192078E+02  0.14652238154E+03  0.15026298962E+03  0.00000000000E+00 0. -1.
</event>
<event>
 7    1  0.2412631E-010  0.1282646E+03  0.7561462E-02  0.1230054E+00
         -1   -1    0    0    0  501 -0.00000000000E+00  0.00000000000E+00  0.26591762393E+02  0.26591762393E+02  0.00000000000E+00 0.  1.
          1   -1    0    0  501    0  0.00000000000E+00 -0.00000000000E+00 -0.10069020769E+04  0.10069020769E+04  0.00000000000E+00 0. -1.
         25    2    1    2    0    0 -0.52515019634E+02  0.48598425434E+02 -0.80289467374E+03  0.81571613750E+03  0.12503329803E+03 0.  0.
          5    1    3    3  502    0 -0.16759224637E+02 -0.40559473620E+02 -0.17317147753E+03  0.17869464329E+03  0.41800000000E+01 0.  1.
         -5    1    3    3    0  502 -0.35755794998E+02  0.89157899053E+02 -0.62972319621E+03  0.63702149421E+03  0.41800000000E+01 0.  1.
        -11    1    1    2    0    0 -0.21865163007E+02  0.75154875533E+01 -0.80627234073E+01  0.24486229094E+02  0.00000000000E+00 0.  1.
         11    1    1    2    0    0  0.74380182642E+02 -0.56113912987E+02 -0.16935291737E+03  0.19329147271E+03  0.00000000000E+00 0. -1.
</event>
<event>
 7    1  0.2412631E-010  0.2668277E+03  0.7561462E-02  0.1103109E+00
         -1   -1    0    0    0  501 -0.00000000000E+00  0.00000000000E+00  0.47274632870E+03  0.47274632870E+03  0.00000000000E+00 0.  1.
          1   -1    0    0  501    0  0.00000000000E+00 -0.00000000000E+00 -0.24087917394E+03  0.24087917394E+03  0.00000000000E+00 0. -1.
         25    2    1    2    0    0  0.70023241917E+02 -0.25634830393E+03 -0.69151837848E+02  0.30171753854E+03  0.12503515124E+03 0.  0.
          5    1    3    3  502    0  0.51859378231E+02 -0.22885241797E+03 -0.10118069152E+03  0.25557352965E+03  0.41800000000E+01 0. -1.
         -5    1    3    3    0  502  0.18163863686E+02 -0.27495885966E+02  0.32028853671E+02  0.46144008891E+02  0.41800000000E+01 0. -1.
        -11    1    1    2    0    0 -0.30661260510E+02  0.10895828665E+03  0.63982077809E+02  0.13002202662E+03  0.00000000000E+00 0. -1.
         11    1    1    2    0    0 -0.39361981407E+02  0.14739001728E+03  0.23703691479E+03  0.28188593748E+03  0.00000000000E+00 0.  1.
</event>
<event>
 7    1  0.2412631E-010  0.9352537E+02  0.7561462E-02  0.1294532E+00
          2   -1    0    0  501    0  0.00000000000E+00  0.00000000000E+00  0.44060716407E+03  0.44060716407E+03  0.00000000000E+00 0. -1.
         -2   -1    0    0    0  501 -0.00000000000E+00 -0.00000000000E+00 -0.48291578888E+02  0.48291578888E+02  0.00000000000E+00 0.  1.
         25    2    1    2    0    0  0.26021880249E+02  0.43401656560E+02  0.35066825405E+03  0.37571689033E+03  0.12503645562E+03 0.  0.
          5    1    3    3  502    0 -0.45509420778E+02 -0.46229029574E+01  0.15962718563E+03  0.16610475431E+03  0.41800000000E+01 0.  1.
         -5    1    3    3    0  502  0.71531301027E+02  0.48024559518E+02  0.19104106842E+03  0.20961213602E+03  0.41800000000E+01 0.  1.
        -11    1    1    2    0    0 -0.50845243634E+01 -0.29007892364E+02 -0.27018328104E+02  0.39966239014E+02  0.00000000000E+00 0.  1.
         11    1    1    2    0    0 -0.20937355885E+02 -0.14393764197E+02  0.68665659231E+02  0.73215613614E+02  0.00000000000E+00 0. -1.
</event>
<event>
 7    1  0.2412631E-010  0.1386104E+03  0.7561462E-02  0.1215211E+00
         -1   -1    0    0    0  501 -0.00000000000E+00  0.00000000000E+00  0.72609881958E+02  0.72609881958E+02  0.00000000000E+00 0.  1.
          1   -1    0    0  501    0  0.00000000000E+00 -0.00000000000E+00 -0.34519947576E+03  0.34519947576E+03  0.00000000000E+00 0. -1.
         25    2    1    2    0    0 -0.79766369888E+02 -0.82310697279E+02 -0.13574356364E+03  0.21726308605E+03  0.12505682244E+03 0.  0.
          5    1    3    3  502    0 -0.90217838342E+02 -0.22031302803E+02 -0.12375332825E+03  0.15478047458E+03  0.41800000000E+01 0. -1.
         -5    1    3    3    0  502  0.10451468454E+02 -0.60279394476E+02 -0.11990235389E+02  0.62482611469E+02  0.41800000000E+01 0. -1.
        -11    1    1    2    0    0  0.79449571018E+02  0.57379625700E+02 -0.49663718233E+02  0.10986874300E+03  0.00000000000E+00 0.  1.
         11    1    1    2    0    0  0.31679886984E+00  0.24931071579E+02 -0.87182311932E+02  0.90677528668E+02  0.00000000000E+00 0. -1.
</event>
<event>
 7    1  0.2412631E-010  0.1838127E+03  0.7561462E-02  0.1164163E+00
         -1   -1    0    0    0  501 -0.00000000000E+00  0.00000000000E+00  0.22769297524E+03  0.22769297524E+03  0.00000000000E+00 0.  1.
          1   -1    0    0  501    0  0.00000000000E+00 -0.00000000000E+00 -0.27262270200E+03  0.27262270200E+03  0.00000000000E+00 0. -1.
         25    2    1    2    0    0  0.17932183922E+03  0.99017123784E+01  0.11130162018E+03  0.24555363331E+03  0.12511662658E+03 0.  0.
          5    1    3    3  502    0  0.14706482182E+03  0.13145792607E+02  0.13890989013E+03  0.20276662363E+03  0.41800000000E+01 0. -1.
         -5    1    3    3    0  502  0.32257017395E+02 -0.32440802282E+01 -0.27608269951E+02  0.42787009681E+02  0.41800000000E+01 0. -1.
        -11    1    1    2    0    0 -0.57310462133E+02 -0.28163336608E+02 -0.12016332435E+02  0.64977341004E+02  0.00000000000E+00 0.  1.
         11    1    1    2    0    0 -0.12201137709E+03  0.18261624230E+02 -0.14421501451E+03  0.18978470293E+03  0.00000000000E+00 0. -1.
</event>
<event>
 7    1  0.2412631E-010  0.1136024E+03  0.7561462E-02  0.1254041E+00
          1   -1    0    0  501    0  0.00000000000E+00  0.00000000000E+00  0.90666177870E+03  0.90666177870E+03  0.00000000000E+00 0. -1.
         -1   -1    0    0    0  501 -0.00000000000E+00 -0.00000000000E+00 -0.19325049167E+02  0.19325049167E+02  0.00000000000E+00 0.  1.
         25    2    1    2    0    0  0.93188384392E+01  0.42577787520E+02  0.70796196887E+03  0.72024357112E+03  0.12506375829E+03 0.  0.
          5    1    3    3  502    0  0.25022187627E+02  0.81343461417E+02  0.37038508302E+03  0.38005979886E+03  0.41800000000E+01 0. -1.
         -5    1    3    3    0  502 -0.15703349187E+02 -0.38765673897E+02  0.33757688585E+03  0.34018377226E+03  0.41800000000E+01 0. -1.
        -11    1    1    2    0    0  0.14643860390E+02 -0.65311193336E+02  0.13186597972E+03  0.14788046263E+03  0.00000000000E+00 0. -1.
         11    1    1    2    0    0 -0.23962698829E+02  0.22733405816E+02  0.47508780945E+02  0.57862794109E+02  0.00000000000E+00 0.  1.
</event>
<event>
 7    1  0.2412631E-010  0.1934914E+03  0.7561462E-02  0.1155349E+00
          2   -1    0    0  501    0  0.00000000000E+00  0.00000000000E+00  0.27425094170E+03  0.27425094170E+03  0.00000000000E+00 0. -1.
         -2   -1    0    0    0  501 -0.00000000000E+00 -0.00000000000E+00 -0.15098596144E+03  0.15098596144E+03  0.00000000000E+00 0.  1.
         25    2    1    2    0    0  0.15334354473E+03 -0.74708223275E+02  0.47338636945E+02  0.21674587355E+03  0.12506904420E+03 0.  0.
          5    1    3    3  502    0  0.17372795433E+03 -0.66956916695E+02  0.30130072383E+02  0.18865292065E+03  0.41800000000E+01 0.  1.
         -5    1    3    3    0  502 -0.20384409595E+02 -0.77513065793E+01  0.17208564561E+02  0.28092952897E+02  0.41800000000E+01 0.  1.
        -11    1    1    2    0    0 -0.43818129273E+02 -0.35096804193E+01 -0.14567131775E+02  0.46309260821E+02  0.00000000000E+00 0.  1.
         11    1    1    2    0    0 -0.10952541546E+03  0.78217903694E+02  0.90493475083E+02  0.16218176877E+03  0.00000000000E+00 0. -1.
</event>
<event>
 7    1  0.2412631E-010  0.1121147E+03  0.7561462E-02  0.1256703E+00
          2   -1    0    0  501    0  0.00000000000E+00  0.00000000000E+00  0.42045449737E+02  0.42045449737E+02  0.00000000000E+00 0. -1.
         -2   -1    0    0    0  501 -0.00000000000E+00 -0.00000000000E+00 -0.39213371683E+03  0.39213371683E+03  0.00000000000E+00 0.  1.
         25    2    1    2    0    0  0.16119156175E+02  0.64244048237E+02 -0.16213144374E+03  0.21521023602E+03  0.12506684497E+03 0.  0.
          5    1    3    3  502    0 -0.42802121511E+02  0.61901670184E+02 -0.12319395577E+03  0.14442320283E+03  0.41800000000E+01 0. -1.
         -5    1    3    3    0  502  0.58921277685E+02  0.23423780530E+01 -0.38937487975E+02  0.70787033197E+02  0.41800000000E+01 0. -1.
        -11    1    1    2    0    0 -0.35530152416E+02 -0.60212771012E+02 -0.68501461452E+02  0.97879618638E+02  0.00000000000E+00 0. -1.
         11    1    1    2    0    0  0.19410996242E+02 -0.40312772244E+01 -0.11945536190E+03  0.12108931190E+03  0.00000000000E+00 0.  1.
</event>
<event>
 7    1  0.2412631E-010  0.2433665E+03  0.7561462E-02  0.1117570E+00
          1   -1    0    0  501    0  0.00000000000E+00  0.00000000000E+00  0.70593829587E+03  0.70593829587E+03  0.00000000000E+00 0. -1.
         -1   -1    0    0    0  501 -0.00000000000E+00 -0.00000000000E+00 -0.88626696687E+02  0.88626696687E+02  0.00000000000E+00 0.  1.
         25    2    1    2    0    0  0.16195414123E+03  0.15189403107E+03  0.25845808107E+03  0.36295910526E+03  0.12505115707E+03 0.  0.
          5    1    3    3  502    0  0.81039278746E+01 -0.21274537917E+02  0.22740429270E+02  0.32448099081E+02  0.41800000000E+01 0. -1.
         -5    1    3    3    0  502  0.15385021336E+03  0.17316856899E+03  0.23571765180E+03  0.33051100618E+03  0.41800000000E+01 0. -1.
        -11    1    1    2    0    0 -0.90398278753E+02 -0.12752836813E+03  0.28956451542E+03  0.32906373557E+03  0.00000000000E+00 0. -1.
         11    1    1    2    0    0 -0.71555862479E+02 -0.24365662935E+02  0.69289002693E+02  0.10254215172E+03  0.00000000000E+00 0.  1.
</event>
<event>
 6    1  0.2412631E-010  0.1400162E+03  0.7561462E-02  0.1213307E+00
          1   -1    0    0  501    0  0.00000000000E+00  0.00000000000E+00  0.27187748993E+03  0.27187748993E+03  0.00000000000E+00 0. -1.
         -1   -1    0    0    0  501 -0.00000000000E+00 -0.00000000000E+00 -0.10871222696E+03  0.10871222696E+03  0.00000000000E+00 0.  1.
          5    1    1    2  502    0 -0.11984916766E+03  0.90214244794E+01  0.64326063961E+02  0.13638373801E+03  0.41800000000E+01 0. -1.
         -5    1    1    2    0  502  0.45083903179E+01 -0.12832650036E+02  0.96844532163E+02  0.97884310796E+02  0.41800000000E+01 0. -1.
        -11    1    1    2    0    0  0.44795278567E+02  0.45294172314E+02 -0.65444199792E+01  0.64039116642E+02  0.00000000000E+00 0. -1.
         11    1    1    2    0    0  0.70545498774E+02 -0.41482946757E+02  0.85390868214E+01  0.82282551447E+02  0.00000000000E+00 0.  1.
</event>
<event>
 7    1  0.2614345E-010  0.1586039E+03  0.7561462E-02  0.1190282E+00
         -2   -1    0    0    0  501 -0.00000000000E+00  0.00000000000E+00  0.23116396123E+02  0.23116396123E+02  0.00000000000E+00 0.  1.
          2   -1    0    0  501    0  0.00000000000E+00 -0.00000000000E+00 -0.14541618198E+04  0.14541618198E+04  0.00000000000E+00 0. -1.
         25    2    1    2    0    0 -0.11131470823E+03  0.56142750771E+02 -0.10723350519E+04  0.10867835871E+04  0.12511246535E+03 0.  0.
          5    1    3    3  502    0  0.18497781890E+02  0.39480465626E+02 -0.34323919017E+03  0.34602238247E+03  0.41800000000E+01 0.  1.
         -5    1    3    3    0  502 -0.12981249012E+03  0.16662285145E+02 -0.72909586171E+03  0.74076120464E+03  0.41800000000E+01 0.  1.
        -11    1    1    2    0    0  0.12599180112E+02 -0.40628692703E+02 -0.48123991044E+02  0.64228876094E+02  0.00000000000E+00 0.  1.
         11    1    1    2    0    0  0.98715528116E+02 -0.15514058068E+02 -0.31058638075E+03  0.32626575272E+03  0.00000000000E+00 0. -1.
</event>
<event>
 7    1  0.2412631E-010  0.1232198E+03  0.7561462E-02  0.1237878E+00
         -2   -1    0    0    0  501 -0.00000000000E+00  0.00000000000E+00  0.12294022546E+03  0.12294022546E+03  0.00000000000E+00 0.  1.
          2   -1    0    0  501    0  0.00000000000E+00 -0.00000000000E+00 -0.33707787354E+03  0.33707787354E+03  0.00000000000E+00 0. -1.
         25    2    1    2    0    0  0.44079199393E+02  0.76198041951E+02  0.53981327543E+02  0.16222372228E+03  0.12511368803E+03 0.  0.
          5    1    3    3  502    0  0.17041481558E+02  0.86986117579E+02 -0.12418150821E+02  0.89602899590E+02  0.41800000000E+01 0. -1.
         -5    1    3    3    0  502  0.27037717835E+02 -0.10788075628E+02  0.66399478364E+02  0.72620822692E+02  0.41800000000E+01 0. -1.
        -11    1    1    2    0    0 -0.71560486168E+02 -0.37391451299E+02 -0.18837117230E+03  0.20494565710E+03  0.00000000000E+00 0. -1.
         11    1    1    2    0    0  0.27481286775E+02 -0.38806590652E+02 -0.79747803322E+02  0.92848719622E+02  0.00000000000E+00 0.  1.
</event>
<event>
 6    1  0.2412631E-010  0.1522972E+03  0.7561462E-02  0.1197678E+00
         -2   -1    0    0    0  501 -0.00000000000E+00  0.00000000000E+00  0.22332143078E+02  0.22332143078E+02  0.00000000000E+00 0.  1.
          2   -1    0    0  501    0  0.00000000000E+00 -0.00000000000E+00 -0.12586892807E+04  0.12586892807E+04  0.00000000000E+00 0. -1.
          5    1    1    2  502    0 -0.94709153236E+02 -0.79596298724E+02 -0.52326820963E+03  0.53771041099E+03  0.41800000000E+01 0. -1.
         -5    1    1    2    0  502 -0.18547870906E+02  0.41374528046E+02 -0.30581315744E+03  0.30918446719E+03  0.41800000000E+01 0. -1.
        -11    1    1    2    0    0  0.88363957424E+02 -0.15239715539E+01 -0.34516125114E+03  0.35629594546E+03  0.00000000000E+00 0. -1.
         11    1    1    2    0    0  0.24893066718E+02  0.39745742231E+02 -0.62114519387E+02  0.77830600119E+02  0.00000000000E+00 0.  1.
</event>
<event>
 7    1  0.2412631E-010  0.6150945E+02  0.7561462E-02  0.1391604E+00
          1   -1    0    0  501    0  0.00000000000E+00  0.00000000000E+00  0.30647619213E+03  0.30647619213E+03  0.00000000000E+00 0. -1.
         -1   -1    0    0    0  501 -0.00000000000E+00 -0.00000000000E+00 -0.51522860689E+02  0.51522860689E+02  0.00000000000E+00 0.  1.
         25    2    1    2    0    0  0.29742477461E+02 -0.47271372688E+02  0.12743172845E+03  0.18708205721E+03  0.12506659456E+03 0.  0.
          5    1    3    3  502    0  0.34860526599E+01 -0.15763419669E+01 -0.25056608971E+02  0.25689364925E+02  0.41800000000E+01 0. -1.
         -5    1    3    3    0  502  0.26256424801E+02 -0.45695030721E+02  0.15248833742E+03  0.16139269229E+03  0.41800000000E+01 0. -1.
        -11    1    1    2    0    0 -0.31603611886E+02  0.20545599830E+02 -0.28676976474E+01  0.37803884013E+02  0.00000000000E+00 0.  1.
         11    1    1    2    0    0  0.18611344256E+01  0.26725772858E+02  0.13038930064E+03  0.13311311159E+03  0.00000000000E+00 0. -1.
</event>
<event>
 7    1  0.2412631E-010  0.1461798E+03  0.7561462E-02  0.1205247E+00
         -1   -1    0    0    0  501 -0.00000000000E+00  0.00000000000E+00  0.18380968334E+03  0.18380968334E+03  0.00000000000E+00 0.  1.
          1   -1    0    0  501    0  0.00000000000E+00 -0.00000000000E+00 -0.14105227651E+03  0.14105227651E+03  0.00000000000E+00 0. -1.
         25    2    1    2    0    0  0.11121449086E+03  0.26388166988E+02 -0.12397014567E+02  0.16988242643E+03  0.12506540092E+03 0.  0.
          5    1    3    3  502    0 -0.55051880272E+01  0.48964364338E+02  0.48294269899E+01  0.49685126903E+02  0.41800000000E+01 0.  1.
         -5    1    3    3    0  502  0.11671967888E+03 -0.22576197351E+02 -0.17226441557E+02  0.12019729953E+03  0.41800000000E+01 0.  1.
        -11    1    1    2    0    0 -0.73496515445E+02 -0.40216803060E+02  0.72904865781E+02  0.11105966183E+03  0.00000000000E+00 0.  1.
         11    1    1    2    0    0 -0.37717975412E+02  0.13828636072E+02 -0.17750444383E+02  0.43919871592E+02  0.00000000000E+00 0. -1.
</event>
<event>
 6    1  0.2412631E-010  0.1434345E+03  0.7561462E-02  0.1208781E+00
         -2   -1    0    0    0  501 -0.00000000000E+00  0.00000000000E+00  0.78157874055E+02  0.78157874055E+02  0.00000000000E+00 0. -1.
          2   -1    0    0  501    0  0.00000000000E+00 -0.00000000000E+00 -0.28442577981E+03  0.28442577981E+03  0.00000000000E+00 0.  1.
          5    1    1    2  502    0 -0.88900400975E+02 -0.53043234168E+02 -0.87651886199E+02  0.13570995372E+03  0.41800000000E+01 0.  1.
         -5    1    1    2    0  502 -0.11471820740E+02  0.51018181422E+02 -0.14244079454E+02  0.54358290133E+02  0.41800000000E+01 0.  1.
        -11    1    1    2    0    0 -0.10710306089E+02  0.15570140002E+02 -0.37916328014E+02  0.42364936519E+02  0.00000000000E+00 0.  1.
         11    1    1    2    0    0  0.11108252780E+03 -0.13545087255E+02 -0.66455612087E+02  0.13015047349E+03  0.00000000000E+00 0. -1.
</event>
<event>
 6    1  0.2412631E-010  0.2526653E+03  0.7561462E-02  0.1111632E+00
          3   -1    0    0  501    0  0.00000000000E+00  0.00000000000E+00  0.38610926467E+03  0.38610926467E+03  0.00000000000E+00 0. -1.
         -3   -1    0    0    0  501 -0.00000000000E+00 -0.00000000000E+00 -0.21752895488E+03  0.21752895488E+03  0.00000000000E+00 0.  1.
          5    1    1    2  502    0  0.13018140610E+03  0.22801151697E+02  0.83196312353E+02  0.15622480533E+03  0.41800000000E+01 0. -1.
         -5    1    1    2    0  502  0.59633322937E+02  0.11716167246E+03  0.13620100610E+03  0.18934407084E+03  0.41800000000E+01 0. -1.
        -11    1    1    2    0    0 -0.11642206307E+03 -0.11604318687E+03  0.22541202821E+01  0.16439342763E+03  0.00000000000E+00 0.  1.
         11    1    1    2    0    0 -0.73392665960E+02 -0.23919637288E+02 -0.53071128942E+02  0.93675915751E+02  0.00000000000E+00 0. -1.
</event>
<event>
 6    1  0.2412631E-010  0.9666766E+02  0.7561462E-02  0.1287464E+00
          1   -1    0    0  501    0  0.00000000000E+00  0.00000000000E+00  0.54453369365E+03  0.54453369365E+03  0.00000000000E+00 0. -1.
         -1   -1    0    0    0  501 -0.00000000000E+00 -0.00000000000E+00 -0.23768147625E+02  0.23768147625E+02  0.00000000000E+00 0.  1.
          5    1    1    2  502    0  0.68012967750E+02  0.34675630339E+02  0.11146003041E+03  0.13516276818E+03  0.41800000000E+01 0. -1.
         -5    1    1    2    0  502 -0.24792209866E+02 -0.85758427448E+01  0.23769332230E+03  0.23917313104E+03  0.41800000000E+01 0. -1.
        -11    1    1    2    0    0 -0.40632494799E+02 -0.51040725300E+02  0.12012120600E+03  0.13669403572E+03  0.00000000000E+00 0.  1.
         11    1    1    2    0    0 -0.25882630857E+01  0.24940937706E+02  0.51490987319E+02  0.57271906329E+02  0.00000000000E+00 0. -1.
</event>
<event>
 6    1  0.2412631E-010  0.1335497E+03  0.7561462E-02  0.1222282E+00
         -2   -1    0    0    0  501 -0.00000000000E+00  0.00000000000E+00  0.37584160330E+02  0.37584160330E+02  0.00000000000E+00 0.  1.
          2   -1    0    0  501    0  0.00000000000E+00 -0.00000000000E+00 -0.47810704294E+03  0.47810704294E+03  0.00000000000E+00 0. -1.
          5    1    1    2  502    0  0.63428040183E+02  0.16728866371E+02 -0.11861016677E+03  0.13560536609E+03  0.41800000000E+01 0. -1.
         -5    1    1    2    0  502 -0.53223620692E+02  0.62728123919E+02 -0.12065005544E+03  0.14608723287E+03  0.41800000000E+01 0. -1.
        -11    1    1    2    0    0  0.35044550397E+02 -0.60545023404E+02 -0.10914663036E+03  0.12964107100E+03  0.00000000000E+00 0.  1.
         11    1    1    2    0    0 -0.45248969888E+02 -0.18911966885E+02 -0.92116030037E+02  0.10435753330E+03  0.00000000000E+00 0. -1.
</event>
<event>
 6    1  0.2412631E-010  0.3058363E+03  0.7561462E-02  0.1082359E+00
          2   -1    0    0  501    0  0.00000000000E+00  0.00000000000E+00  0.12028879896E+04  0.12028879896E+04  0.00000000000E+00 0. -1.
         -2   -1    0    0    0  501 -0.00000000000E+00 -0.00000000000E+00 -0.96436306099E+02  0.96436306099E+02  0.00000000000E+00 0.  1.
          5    1    1    2  502    0  0.15753328139E+03 -0.24507270319E+03  0.29686400065E+03  0.41596042105E+03  0.41800000000E+01 0. -1.
         -5    1    1    2    0  502 -0.20858961760E+02 -0.15165384463E+02  0.13142978549E+02  0.29245434802E+02  0.41800000000E+01 0. -1.
        -11    1    1    2    0    0 -0.14172325102E+02  0.35466953038E+02  0.39002783186E+02  0.54589162412E+02  0.00000000000E+00 0.  1.
         11    1    1    2    0    0 -0.12250199452E+03  0.22477113462E+03  0.75744192116E+03  0.79952927748E+03  0.00000000000E+00 0. -1.
</event>
<event>
 7    1  0.2412631E-010  0.1157695E+03  0.7561462E-02  0.1250244E+00
          3   -1    0    0  501    0  0.00000000000E+00  0.00000000000E+00  0.18284140327E+02  0.18284140327E+02  0.00000000000E+00 0. -1.
         -3   -1    0    0    0  501 -0.00000000000E+00 -0.00000000000E+00 -0.81378348518E+03  0.81378348518E+03  0.00000000000E+00 0.  1.
         25    2    1    2    0    0  0.42750999759E+02 -0.32599052042E+02 -0.49895794642E+03  0.51718821959E+03  0.12503709853E+03 0.  0.
          5    1    3    3  502    0 -0.37410866869E+02 -0.24865518875E+02 -0.28478223601E+03  0.28833359383E+03  0.41800000000E+01 0.  1.
         -5    1    3    3    0  502  0.80161866628E+02 -0.77335331666E+01 -0.21417571042E+03  0.22885462575E+03  0.41800000000E+01 0.  1.
        -11    1    1    2    0    0 -0.58291490837E+02 -0.11155590242E+02 -0.17333084103E+03  0.18321005854E+03  0.00000000000E+00 0.  1.
         11    1    1    2    0    0  0.15540491078E+02  0.43754642284E+02 -0.12321055740E+03  0.13166934738E+03  0.00000000000E+00 0. -1.
</event>
<event>
 6    1  0.2412631E-010  0.8547788E+02  0.7561462E-02  0.1314188E+00
         -4   -1    0    0    0  501 -0.00000000000E+00  0.00000000000E+00  0.29818436150E+03  0.29818436150E+03  0.00000000000E+00 0. -1.
          4   -1    0    0  501    0  0.00000000000E+00 -0.00000000000E+00 -0.10823783181E+03  0.10823783181E+03  0.00000000000E+00 0.  1.
          5    1    1    2  502    0  0.22578614761E+02  0.18677790636E+02  0.26518961305E+02  0.39741431985E+02  0.41800000000E+01 0. -1.
         -5    1    1    2    0  502 -0.48977205425E+02 -0.18849970247E+02 -0.86548844829E+02  0.10130282805E+03  0.41800000000E+01 0. -1.
        -11    1    1    2    0    0  0.47178910487E+00 -0.40486409370E+02  0.10198311158E+03  0.10972660104E+03  0.00000000000E+00 0. -1.
         11    1    1    2    0    0  0.25926801560E+02  0.40658588981E+02  0.14799330163E+03  0.15565133223E+03  0.00000000000E+00 0.  1.
</event>
<event>
 6    1  0.2412631E-010  0.1192734E+03  0.7561462E-02  0.1244301E+00
          4   -1    0    0  501    0  0.00000000000E+00  0.00000000000E+00  0.19828947795E+02  0.19828947795E+02  0.00000000000E+00 0.  1.
         -4   -1    0    0    0  501 -0.00000000000E+00 -0.00000000000E+00 -0.75895262429E+03  0.75895262429E+03  0.00000000000E+00 0. -1.
          5    1    1    2  502    0 -0.51286211851E+02 -0.19235708723E+02 -0.25558703643E+03  0.26142397290E+03  0.41800000000E+01 0. -1.
         -5    1    1    2    0  502  0.67747207662E+02 -0.36996801323E+02 -0.19438221417E+03  0.20918978235E+03  0.41800000000E+01 0. -1.
        -11    1    1    2    0    0  0.36666423287E+02  0.28075917921E+02 -0.13639400808E+03  0.14400003196E+03  0.00000000000E+00 0. -1.
         11    1    1    2    0    0 -0.53127419098E+02  0.28156592125E+02 -0.15276041781E+03  0.16416778487E+03  0.00000000000E+00 0.  1.
</event>
<event>
 7    1  0.2412631E-010  0.1075018E+03  0.7561462E-02  0.1265267E+00
          1   -1    0    0  501    0  0.00000000000E+00  0.00000000000E+00  0.18928095226E+03  0.18928095226E+03  0.00000000000E+00 0. -1.
         -1   -1    0    0    0  501 -0.00000000000E+00 -0.00000000000E+00 -0.11302998787E+03  0.11302998787E+03  0.00000000000E+00 0.  1.
         25    2    1    2    0    0  0.48945606180E+02 -0.79000073728E+02  0.11763252826E+02  0.15629416910E+03  0.12511118721E+03 0.  0.
          5    1    3    3  502    0  0.38998533625E+02  0.28540217738E+00  0.53270594039E+02  0.66152820564E+02  0.41800000000E+01 0. -1.
         -5    1    3    3    0  502  0.99470725554E+01 -0.79285475906E+02 -0.41507341213E+02  0.90141348540E+02  0.41800000000E+01 0. -1.
        -11    1    1    2    0    0 -0.30491121710E+02  0.27510121426E+02 -0.19757365810E+02  0.45572675890E+02  0.00000000000E+00 0.  1.
         11    1    1    2    0    0 -0.18454484470E+02  0.51489952303E+02  0.84245077381E+02  0.10044409514E+03  0.00000000000E+00 0. -1.
</event>
<event>
 7    1  0.2412631E-010  0.9652965E+02  0.7561462E-02  0.1287768E+00
          2   -1    0    0  501    0  0.00000000000E+00  0.00000000000E+00  0.34771194707E+03  0.34771194707E+03  0.00000000000E+00 0.  1.
         -2   -1    0    0    0  501 -0.00000000000E+00 -0.00000000000E+00 -0.43541844772E+02  0.43541844772E+02  0.00000000000E+00 0. -1.
         25    2    1    2    0    0  0.13054133116E+02 -0.20587143451E+02  0.25519773617E+03  0.28526140811E+03  0.12511572862E+03 0.  0.
          5    1    3    3  502    0  0.48915622515E+02  0.14242987889E+02  0.21495218060E+03  0.22094685600E+03  0.41800000000E+01 0. -1.
         -5    1    3    3    0  502 -0.35861489399E+02 -0.34830131341E+02  0.40245555566E+02  0.64314552116E+02  0.41800000000E+01 0. -1.
        -11    1    1    2    0    0 -0.11762862276E+02 -0.34614229560E+02  0.85049210508E+01  0.37534564059E+02  0.00000000000E+00 0.  1.
         11    1    1    2    0    0 -0.12912708395E+01  0.55201373012E+02  0.40467445085E+02  0.68457819674E+02  0.00000000000E+00 0. -1.
</event>
<event>
 7    1  0.2412631E-010  0.7633891E+02  0.7561462E-02  0.1339774E+00
         -1   -1    0    0    0  501 -0.00000000000E+00  0.00000000000E+00  0.58101316114E+02  0.58101316114E+02  0.00000000000E+00 0.  1.
          1   -1    0    0  501    0  0.00000000000E+00 -0.00000000000E+00 -0.21332159639E+03  0.21332159639E+03  0.00000000000E+00 0. -1.
         25    2    1    2    0    0  0.21637159883E+02  0.13665303434E+01 -0.79159098767E+02  0.14958325015E+03  0.12505579441E+03 0.  0.
          5    1    3    3  502    0  0.91394375600E+01 -0.26074484067E+02  0.27174151686E+02  0.38978390912E+02  0.41800000000E+01 0. -1.
         -5    1    3    3    0  502  0.12497722323E+02  0.27441014411E+02 -0.10633325045E+03  0.11060485924E+03  0.41800000000E+01 0. -1.
        -11    1    1    2    0    0 -0.57317132739E+02  0.67130801994E+01 -0.54495187608E+02  0.79372820434E+02  0.00000000000E+00 0. -1.
         11    1    1    2    0    0  0.35679972856E+02 -0.80796105428E+01 -0.21565993896E+02  0.42466841916E+02  0.00000000000E+00 0.  1.
</event>
<event>
 7    1  0.2412631E-010  0.1091323E+03  0.7561462E-02  0.1262185E+00
         -1   -1    0    0    0  501 -0.00000000000E+00  0.00000000000E+00  0.36875532747E+02  0.36875532747E+02  0.00000000000E+00 0.  1.
          1   -1    0    0  501    0  0.00000000000E+00 -0.00000000000E+00 -0.51201385305E+03  0.51201385305E+03  0.00000000000E+00 0. -1.
         25    2    1    2    0    0 -0.20083147303E+02  0.77834404256E+02 -0.26898626667E+03  0.30733382707E+03  0.12505575681E+03 0.  0.
          5    1    3    3  502    0 -0.47682014732E+02  0.19657241737E+02 -0.22084830687E+03  0.22682907382E+03  0.41800000000E+01 0.  1.
         -5    1    3    3    0  502  0.27598867429E+02  0.58177162520E+02 -0.48137959801E+02  0.80504753251E+02  0.41800000000E+01 0.  1.
        -11    1    1    2    0    0 -0.22900865354E+02 -0.28464904851E+02 -0.14977373659E+02  0.39484454712E+02  0.00000000000E+00 0.  1.
         11    1    1    2    0    0  0.42984012657E+02 -0.49369499405E+02 -0.19117467998E+03  0.20207110402E+03  0.00000000000E+00 0. -1.
</event>
<event>
 6    1  0.2412631E-010  0.1442751E+03  0.7561462E-02  0.1207690E+00
         -3   -1    0    0    0  501 -0.00000000000E+00  0.00000000000E+00  0.36701014234E+03  0.36701014234E+03  0.00000000000E+00 0.  1.
          3   -1    0    0  501    0  0.00000000000E+00 -0.00000000000E+00 -0.79403338684E+02  0.79403338684E+02  0.00000000000E+00 0. -1.
          5    1    1    2  502    0 -0.74261853603E+02 -0.38196363902E+02  0.15157959925E+02  0.84976592453E+02  0.41800000000E+01 0. -1.
         -5    1    1    2    0  502 -0.19935682116E+02 -0.53203251825E+02  0.14828576253E+03  0.15885262729E+03  0.41800000000E+01 0. -1.
        -11    1    1    2    0    0  0.38838406637E+02  0.83443536008E+02  0.11267528324E+03  0.14548871085E+03  0.00000000000E+00 0.  1.
         11    1    1    2    0    0  0.55359129082E+02  0.79560797189E+01  0.11487797958E+02  0.57095550432E+02  0.00000000000E+00 0. -1.
</event>
<event>
 6    1  0.2412631E-010  0.2742335E+03  0.7561462E-02  0.1098881E+00
         -1   -1    0    0    0  501 -0.00000000000E+00  0.00000000000E+00  0.14757056357E+03  0.14757056357E+03  0.00000000000E+00 0.  1.
          1   -1    0    0  501    0  0.00000000000E+00 -0.00000000000E+00 -0.90122566693E+03  0.90122566693E+03  0.00000000000E+00 0. -1.
          5    1    1    2  502    0 -0.35608650132E+00  0.35661649597E+02 -0.13464867544E+03  0.13935429038E+03  0.41800000000E+01 0. -1.
         -5    1    1    2    0  502 -0.24112824775E+03  0.39484300853E+02 -0.58902502433E+03  0.63770666733E+03  0.41800000000E+01 0. -1.
        -11    1    1    2    0    0  0.15453676639E+03 -0.19820438640E+01 -0.33115018013E+02  0.15805741071E+03  0.00000000000E+00 0.  1.
         11    1    1    2    0    0  0.86947567866E+02 -0.73163906586E+02  0.31336144220E+01  0.11367786207E+03  0.00000000000E+00 0. -1.
</event>
<event>
 7    1  0.2412631E-010  0.2542629E+03  0.7561462E-02  0.1110640E+00
          2   -1    0    0  501    0  0.00000000000E+00  0.00000000000E+00  0.63081017505E+03  0.63081017505E+03  0.00000000000E+00 0. -1.
         -2   -1    0    0    0  501 -0.00000000000E+00 -0.00000000000E+00 -0.11800865433E+03  0.11800865433E+03  0.00000000000E+00 0.  1.
         25    2    1    2    0    0  0.15802726833E+03  0.19046236561E+03  0.31456564985E+03  0.41933327469E+03  0.12506125278E+03 0.  0.
          5    1    3    3  502    0  0.16430999813E+03  0.16637841336E+03  0.21868913448E+03  0.32019050869E+03  0.41800000000E+01 0.  1.
         -5    1    3    3    0  502 -0.62827297980E+01  0.24083952246E+02  0.95876515371E+02  0.99142765995E+02  0.41800000000E+01 0.  1.
        -11    1    1    2    0    0 -0.22866051763E+02 -0.12876470895E+02  0.63713530677E+02  0.68906268345E+02  0.00000000000E+00 0. -1.
         11    1    1    2    0    0 -0.13516121657E+03 -0.17758589471E+03  0.13452234019E+03  0.26057928635E+03  0.00000000000E+00 0.  1.
</event>
<event>
 7    1  0.2412631E-010  0.1040868E+03  0.7561462E-02  0.1271929E+00
         -2   -1    0    0    0  501 -0.00000000000E+00  0.00000000000E+00  0.12825430246E+02  0.12825430246E+02  0.00000000000E+00 0.  1.
          2   -1    0    0  501    0  0.00000000000E+00 -0.00000000000E+00 -0.11810898998E+04  0.11810898998E+04  0.00000000000E+00 0. -1.
         25    2    1    2    0    0  0.31570830778E+02 -0.99806999048E+01 -0.89174303175E+03  0.90107792911E+03  0.12505785831E+03 0.  0.
          5    1    3    3  502    0  0.12365829623E+02  0.48876148257E+02 -0.19077008932E+03  0.19736385431E+03  0.41800000000E+01 0.  1.
         -5    1    3    3    0  502  0.19205001155E+02 -0.58856848162E+02 -0.70097294243E+03  0.70371407479E+03  0.41800000000E+01 0.  1.
        -11    1    1    2    0    0 -0.50384772322E+02 -0.24672602741E+02 -0.14285000082E+03  0.15347144797E+03  0.00000000000E+00 0.  1.
         11    1    1    2    0    0  0.18813941544E+02  0.34653302646E+02 -0.13367143695E+03  0.13936595293E+03  0.00000000000E+00 0. -1.
</event>
<event>
 7    1  0.2412631E-010  0.1088286E+03  0.7561462E-02  0.1262755E+00
          2   -1    0    0  501    0  0.00000000000E+00  0.00000000000E+00  0.16787549749E+03  0.16787549749E+03  0.00000000000E+00 0. -1.
         -2   -1    0    0    0  501 -0.00000000000E+00 -0.00000000000E+00 -0.71342811542E+02  0.71342811542E+02  0.00000000000E+00 0.  1.
         25    2    1    2    0    0 -0.41784070158E+01  0.20039244898E+02  0.56536377686E+02  0.13874755313E+03  0.12504195726E+03 0.  0.
          5    1    3    3  502    0  0.38117846829E+02  0.57931819007E+02  0.35741776872E+02  0.78128182587E+02  0.41800000000E+01 0. -1.
         -5    1    3    3    0  502 -0.42296253845E+02 -0.37892574109E+02  0.20794600814E+02  0.60619370542E+02  0.41800000000E+01 0. -1.
        -11    1    1    2    0    0  0.46586139672E+02 -0.94987930812E+01  0.13735739347E+02  0.49489049444E+02  0.00000000000E+00 0.  1.
         11    1    1    2    0    0 -0.42407732656E+02 -0.10540451816E+02  0.26260568910E+02  0.50981706454E+02  0.00000000000E+00 0. -1.
</event>
<event>
 6    1  0.2412631E-010  0.1873891E+03  0.7561462E-02  0.1160837E+00
         -2   -1    0    0    0  501 -0.00000000000E+00  0.00000000000E+00  0.80158819251E+03  0.80158819251E+03  0.00000000000E+00 0.  1.
          2   -1    0    0  501    0  0.00000000000E+00 -0.00000000000E+00 -0.50934540371E+02  0.50934540371E+02  0.00000000000E+00 0. -1.
          5    1    1    2  502    0  0.15433632349E+02  0.19421772048E+01  0.19151075881E+01  0.16220637991E+02  0.41800000000E+01 0.  1.
         -5    1    1    2    0  502 -0.16912725546E+03 -0.63953602412E+02  0.29635636093E+03  0.34718677519E+03  0.41800000000E+01 0.  1.
        -11    1    1    2    0    0  0.11574198909E+03  0.74742622268E+02  0.40081771606E+03  0.42383665383E+03  0.00000000000E+00 0.  1.
         11    1    1    2    0    0  0.37951634020E+02 -0.12731197062E+02  0.51564467553E+02  0.65278665868E+02  0.00000000000E+00 0. -1.
</event>
<event>
 7    1  0.2412631E-010  0.1362397E+03  0.7561462E-02  0.1218480E+00
          1   -1    0    0  501    0  0.00000000000E+00  0.00000000000E+00  0.64975770877E+03  0.64975770877E+03  0.00000000000E+00 0. -1.
         -1   -1    0    0    0  501 -0.00000000000E+00 -0.00000000000E+00 -0.43575680443E+02  0.43575680443E+02  0.00000000000E+00 0.  1.
         25    2    1    2    0    0  0.77487364942E+00  0.12550203894E+03  0.21501307921E+03  0.27863101893E+03  0.12511298202E+03 0.  0.
          5    1    3    3  502    0  0.31338119715E+02  0.23555879507E+02  0.84017495694E+00  0.39435206359E+02  0.41800000000E+01 0.  1.
         -5    1    3    3    0  502 -0.30563246066E+02  0.10194615943E+03  0.21417290426E+03  0.23919581257E+03  0.41800000000E+01 0.  1.
        -11    1    1    2    0    0  0.76283729314E+01 -0.50938346467E+02  0.24548208357E+03  0.25082735211E+03  0.00000000000E+00 0. -1.
         11    1    1    2    0    0 -0.84032465808E+01 -0.74563692473E+02  0.14568686554E+03  0.16387501817E+03  0.00000000000E+00 0.  1.
</event>
<event>
 7    1  0.2412631E-010  0.1491701E+03  0.7561462E-02  0.1201496E+00
         -1   -1    0    0    0  501 -0.00000000000E+00  0.00000000000E+00  0.13437167119E+03  0.13437167119E+03  0.00000000000E+00 0.  1.
          1   -1    0    0  501    0  0.00000000000E+00 -0.00000000000E+00 -0.22760767144E+03  0.22760767144E+03  0.00000000000E+00 0. -1.
         25    2    1    2    0    0  0.41634128448E+02  0.13253639701E+03 -0.10962282231E+02  0.18724717331E+03  0.12506812182E+03 0.  0.
          5    1    3    3  502    0  0.24980669496E+01 -0.66423639209E+01  0.34628991529E+02  0.35594954576E+02  0.41800000000E+01 0.  1.
         -5    1    3    3    0  502  0.39136061498E+02  0.13917876093E+03 -0.45591273760E+02  0.15165221873E+03  0.41800000000E+01 0.  1.
        -11    1    1    2    0    0 -0.23335829314E+02 -0.17981354779E+02 -0.43263675069E+02  0.52341528731E+02  0.00000000000E+00 0. -1.
         11    1    1    2    0    0 -0.18298299134E+02 -0.11455504223E+03 -0.39010042952E+02  0.12239064059E+03  0.00000000000E+00 0.  1.
</event>
<event>
 7    1  0.2412631E-010  0.1852532E+03  0.7561462E-02  0.1162814E+00
         -1   -1    0    0    0  501 -0.00000000000E+00  0.00000000000E+00  0.30834330571E+02  0.30834330571E+02  0.00000000000E+00 0.  1.
          1   -1    0    0  501    0  0.00000000000E+00 -0.00000000000E+00 -0.18669421895E+04  0.18669421895E+04  0.00000000000E+00 0. -1.
         25    2    1    2    0    0  0.67290352993E+02 -0.15495628181E+03 -0.14633127375E+04  0.14783312253E+04  0.12505839907E+03 0.  0.
          5    1    3    3  502    0  0.16580971076E+02 -0.10517484399E+01 -0.58096153990E+03  0.58121408966E+03  0.41800000000E+01 0. -1.
         -5    1    3    3    0  502  0.50709381917E+02 -0.15390453337E+03 -0.88235119759E+03  0.89711713566E+03  0.41800000000E+01 0. -1.
        -11    1    1    2    0    0 -0.45211434646E+02  0.12206948739E+02 -0.11033473393E+03  0.11986174090E+03  0.00000000000E+00 0.  1.
         11    1    1    2    0    0 -0.22078918347E+02  0.14274933307E+03 -0.26246038752E+03  0.29958355386E+03  0.00000000000E+00 0. -1.
</event>
<event>
 7    1  0.2412631E-010  0.9094611E+02  0.7561462E-02  0.1300577E+00
          2   -1    0    0  501    0  0.00000000000E+00  0.00000000000E+00  0.43328603474E+03  0.43328603474E+03  0.00000000000E+00 0. -1.
         -2   -1    0    0    0  501 -0.00000000000E+00 -0.00000000000E+00 -0.27849478054E+02  0.27849478054E+02  0.00000000000E+00 0.  1.
         25    2    1    2    0    0  0.37170329018E+02  0.63168224099E+01  0.24809283650E+03  0.28041714566E+03  0.12514864943E+03 0.  0.
          5    1    3    3  502    0  0.33181790331E+02 -0.49069220377E+02  0.19360580705E+03  0.20250802582E+03  0.41800000000E+01 0. -1.
         -5    1    3    3    0  502  0.39885386869E+01  0.55386042787E+02  0.54487029456E+02  0.77909119847E+02  0.41800000000E+01 0. -1.
        -11    1    1    2    0    0  0.11445374883E+02 -0.13478822576E+02  0.20093073764E+01  0.17796420437E+02  0.00000000000E+00 0.  1.
         11    1    1    2    0    0 -0.48615703900E+02  0.71620001656E+01  0.15533441281E+03  0.16292194669E+03  0.00000000000E+00 0. -1.
</event>
<event>
 6    1  0.2412631E-010  0.1236280E+03  0.7561462E-02  0.1237229E+00
          2   -1    0    0  501    0  0.00000000000E+00  0.00000000000E+00  0.26548124820E+03  0.26548124820E+03  0.00000000000E+00 0. -1.
         -2   -1    0    0    0  501 -0.00000000000E+00 -0.00000000000E+00 -0.84050809990E+02  0.84050809990E+02  0.00000000000E+00 0.  1.
          5    1    1    2  502    0  0.92347114206E+01 -0.26012370140E+02  0.62385965951E+00  0.27924628846E+02  0.41800000000E+01 0.  1.
         -5    1    1    2    0  502 -0.84927914113E+02  0.63122186181E+02  0.16459128582E+03  0.19571643966E+03  0.41800000000E+01 0.  1.
        -11    1    1    2    0    0 -0.11720485947E+02 -0.21720800700E+02  0.26882560992E+02  0.36494315439E+02  0.00000000000E+00 0. -1.
         11    1    1    2    0    0  0.87413688639E+02 -0.15389015341E+02 -0.10667268260E+02  0.89396674249E+02  0.00000000000E+00 0.  1.
</event>
<event>
 6    1  0.2412631E-010  0.9783560E+02  0.7561462E-02  0.1284914E+00
         -1   -1    0    0    0  501 -0.00000000000E+00  0.00000000000E+00  0.21380722798E+02  0.21380722798E+02  0.00000000000E+00 0.  1.
          1   -1    0    0  501    0  0.00000000000E+00 -0.00000000000E+00 -0.66798081700E+03  0.66798081700E+03  0.00000000000E+00 0. -1.
          5    1    1    2  502    0 -0.60325849325E+02  0.17227786118E+01 -0.33282568752E+03  0.33827885943E+03  0.41800000000E+01 0. -1.
         -5    1    1    2    0  502  0.16306385558E+02 -0.27279724371E+02 -0.16031130835E+02  0.35840635145E+02  0.41800000000E+01 0. -1.
        -11    1    1    2    0    0 -0.16636766503E+02  0.37747887383E+02 -0.10501056584E+03  0.11282244431E+03  0.00000000000E+00 0.  1.
         11    1    1    2    0    0  0.60656230270E+02 -0.12190941624E+02 -0.19273271000E+03  0.20241960091E+03  0.00000000000E+00 0. -1.
</event>
<event>
 7    1  0.2412631E-010  0.9425266E+02  0.7561462E-02  0.1292868E+00
          1   -1    0    0  501    0  0.00000000000E+00  0.00000000000E+00  0.19119447074E+03  0.19119447074E+03  0.00000000000E+00 0. -1.
         -1   -1    0    0    0  501 -0.00000000000E+00 -0.00000000000E+00 -0.12823082031E+03  0.12823082031E+03  0.00000000000E+00 0.  1.
         25    2    1    2    0    0  0.46259349505E+02 -0.12311478505E+02  0.13943792431E+03  0.19336126671E+03  0.12511652492E+03 0.  0.
          5    1    3    3  502    0  0.66434056515E+02 -0.55078716736E+02  0.93391589552E+02  0.12722661004E+03  0.41800000000E+01 0. -1.
         -5    1    3    3    0  502 -0.20174707010E+02  0.42767238231E+02  0.46046334754E+02  0.66134656672E+02  0.41800000000E+01 0. -1.
        -11    1    1    2    0    0 -0.38682707823E+02 -0.16860162341E+01  0.84753489764E+01  0.39636171302E+02  0.00000000000E+00 0. -1.
         11    1    1    2    0    0 -0.75766416826E+01  0.13997494739E+02 -0.84949622848E+02  0.86427853034E+02  0.00000000000E+00 0.  1.
</event>
<event>
 6    1  0.2412631E-010  0.1038175E+03  0.7561462E-02  0.1272467E+00
          2   -1    0    0  501    0  0.00000000000E+00  0.00000000000E+00  0.23145621035E+03  0.23145621035E+03  0.00000000000E+00 0.  1.
         -2   -1    0    0    0  501 -0.00000000000E+00 -0.00000000000E+00 -0.58225988427E+02  0.58225988427E+02  0.00000000000E+00 0. -1.
          5    1    1    2  502    0 -0.75771440985E+02  0.10580620944E+02  0.19158156110E+02  0.78979542630E+02  0.41800000000E+01 0. -1.
         -5    1    1    2    0  502  0.46718110539E+02 -0.78856518762E+01  0.41609968992E+02  0.63195152324E+02  0.41800000000E+01 0. -1.
        -11    1    1    2    0    0  0.49727624923E+02  0.19229730168E+02  0.10289912032E+03  0.11589153621E+03  0.00000000000E+00 0.  1.
         11    1    1    2    0    0 -0.20674294477E+02 -0.21924699235E+02  0.95629765083E+01  0.31615967617E+02  0.00000000000E+00 0. -1.
</event>
<event>
 7    1  0.2412631E-010  0.1554770E+03  0.7561462E-02  0.1193900E+00
          1   -1    0    0  501    0  0.00000000000E+00  0.00000000000E+00  0.10161646383E+03  0.10161646383E+03  0.00000000000E+00 0. -1.
         -1   -1    0    0    0  501 -0.00000000000E+00 -0.00000000000E+00 -0.27187109518E+03  0.27187109518E+03  0.00000000000E+00 0.  1.
         25    2    1    2    0    0  0.11738887896E+03  0.28422200235E+02 -0.12973923459E+03  0.21696798570E+03  0.12511941279E+03 0.  0.
          5    1    3    3  502    0 -0.12751415286E+02  0.33030113960E+02 -0.58411856123E+02  0.68432480269E+02  0.41800000000E+01 0. -1.
         -5    1    3    3    0  502  0.13014029425E+03 -0.46079137259E+01 -0.71327378465E+02  0.14853550543E+03  0.41800000000E+01 0. -1.
        -11    1    1    2    0    0 -0.37391333170E+02 -0.49737323521E+02 -0.39541212221E+02  0.73725305093E+02  0.00000000000E+00 0. -1.
         11    1    1    2    0    0 -0.79997545791E+02  0.21315123286E+02 -0.97418454238E+00  0.82794268212E+02  0.00000000000E+00 0.  1.
</event>
<event>
 7    1  0.2412631E-010  0.1189022E+03  0.7561462E-02  0.1244919E+00
         -1   -1    0    0    0  501 -0.00000000000E+00  0.00000000000E+00  0.26194895309E+02  0.26194895309E+02  0.00000000000E+00 0.  1.
          1   -1    0    0  501    0  0.00000000000E+00 -0.00000000000E+00 -0.75399624056E+03  0.75399624056E+03  0.00000000000E+00 0. -1.
         25    2    1    2    0    0  0.55513584758E+02 -0.65405471191E+02 -0.46792849839E+03  0.49189267567E+03  0.12506674626E+03 0.  0.
          5    1    3    3  502    0  0.58281696335E+02 -0.44997190769E+01 -0.79938332478E+02  0.99119185826E+02  0.41800000000E+01 0.  1.
         -5    1    3    3    0  502 -0.27681115772E+01 -0.60905752114E+02 -0.38799016591E+03  0.39277348985E+03  0.41800000000E+01 0.  1.
        -11    1    1    2    0    0 -0.73983313906E+02  0.66648320876E+02 -0.17423059700E+03  0.20067842520E+03  0.00000000000E+00 0.  1.
         11    1    1    2    0    0  0.18469729148E+02 -0.12428496848E+01 -0.85642249867E+02  0.87620034994E+02  0.00000000000E+00 0. -1.
</event>
<event>
 7    1  0.2412631E-010  0.1185450E+03  0.7561462E-02  0.1245517E+00
         -2   -1    0    0    0  501 -0.00000000000E+00  0.00000000000E+00  0.19859185314E+02  0.19859185314E+02  0.00000000000E+00 0.  1.
          2   -1    0    0  501    0  0.00000000000E+00 -0.00000000000E+00 -0.88899449622E+03  0.88899449622E+03  0.00000000000E+00 0. -1.
         25    2    1    2    0    0  0.73613168602E+02  0.15128325109E+02 -0.43401205343E+03  0.45790011233E+03  0.12513307132E+03 0.  0.
          5    1    3    3  502    0  0.55089981376E+02 -0.34880694072E+02 -0.98823535571E+02  0.11846996434E+03  0.41800000000E+01 0.  1.
         -5    1    3    3    0  502  0.18523187226E+02  0.50009019181E+02 -0.33518851786E+03  0.33943014800E+03  0.41800000000E+01 0.  1.
        -11    1    1    2    0    0  0.20078505973E+02  0.82298973963E+01 -0.89769514841E+02  0.92354985832E+02  0.00000000000E+00 0. -1.
         11    1    1    2    0    0 -0.93691674575E+02 -0.23358222506E+02 -0.34535374263E+03  0.35859858337E+03  0.00000000000E+00 0.  1.
</event>
<event>
 6    1  0.2412631E-010  0.1247273E+03  0.7561462E-02  0.1235496E+00
         -3   -1    0    0    0  501 -0.00000000000E+00  0.00000000000E+00  0.18116314847E+03  0.18116314847E+03  0.00000000000E+00 0.  1.
          3   -1    0    0  501    0  0.00000000000E+00 -0.00000000000E+00 -0.10379524008E+03  0.10379524008E+03  0.00000000000E+00 0. -1.
          5    1    1    2  502    0  0.46802388633E+02  0.92597650781E+02  0.75626450877E+02  0.12845863530E+03  0.41800000000E+01 0. -1.
         -5    1    1    2    0  502 -0.33655217532E+02 -0.16676647447E+02  0.18821247332E+01  0.37839120374E+02  0.41800000000E+01 0. -1.
        -11    1    1    2    0    0  0.29348550664E+02 -0.13483820854E+02 -0.23114719082E+02  0.39717012591E+02  0.00000000000E+00 0.  1.
         11    1    1    2    0    0 -0.42495721765E+02 -0.62437182480E+02  0.22974051860E+02  0.78943620283E+02  0.00000000000E+00 0. -1.
</event>
<event>
 6    1  0.2412631E-010  0.8941362E+02  0.7561462E-02  0.1304278E+00
         -2   -1    0    0    0  501 -0.00000000000E+00  0.00000000000E+00  0.44377898559E+03  0.44377898559E+03  0.00000000000E+00 0.  1.
          2   -1    0    0  501    0  0.00000000000E+00 -0.00000000000E+00 -0.30860755185E+02  0.30860755185E+02  0.00000000000E+00 0. -1.
          5    1    1    2  502    0  0.53488718830E+02 -0.17033910630E+02  0.14905206794E+03  0.15932729995E+03  0.41800000000E+01 0. -1.
         -5    1    1    2    0  502 -0.56872354247E+02  0.43327502536E+02  0.17328001926E+03  0.18749713232E+03  0.41800000000E+01 0. -1.
        -11    1    1    2    0    0 -0.15428685635E+02 -0.28060766617E+02  0.10119832859E+03  0.10614401855E+03  0.00000000000E+00 0.  1.
         11    1    1    2    0    0  0.18812321052E+02  0.17671747110E+01 -0.10612185383E+02  0.21671289958E+02  0.00000000000E+00 0. -1.
</event>
<event>
 7    1  0.2412631E-010  0.2542684E+03  0.7561462E-02  0.1110637E+00
          2   -1    0    0  501    0  0.00000000000E+00  0.00000000000E+00  0.27459259581E+03  0.27459259581E+03  0.00000000000E+00 0. -1.
         -2   -1    0    0    0  501 -0.00000000000E+00 -0.00000000000E+00 -0.26716975418E+03  0.26716975418E+03  0.00000000000E+00 0.  1.
         25    2    1    2    0    0 -0.13757168184E+03  0.19211999929E+03  0.79213689094E+02  0.27883795346E+03  0.12505892203E+03 0.  0.
          5    1    3    3  502    0 -0.63411191438E+02  0.18049668340E+03  0.66535336697E+02  0.20259431222E+03  0.41800000000E+01 0. -1.
         -5    1    3    3    0  502 -0.74160490406E+02  0.11623315890E+02  0.12678352398E+02  0.76243641237E+02  0.41800000000E+01 0. -1.
        -11    1    1    2    0    0  0.11692011761E+03 -0.18728950464E+03 -0.39504579859E+02  0.22429508305E+03  0.00000000000E+00 0. -1.
         11    1    1    2    0    0  0.20651564238E+02 -0.48304946436E+01 -0.32286267601E+02  0.38629313475E+02  0.00000000000E+00 0.  1.
</event>
<event>
 6    1  0.2412631E-010  0.3822191E+03  0.7561462E-02  0.1050117E+00
         -2   -1    0    0    0  501 -0.00000000000E+00  0.00000000000E+00  0.33291932451E+03  0.33291932451E+03  0.00000000000E+00 0. -1.
          2   -1    0    0  501    0  0.00000000000E+00 -0.00000000000E+00 -0.64956198991E+03  0.64956198991E+03  0.00000000000E+00 0.  1.
          5    1    1    2  502    0  0.51096089427E+01  0.77576176301E+01 -0.27708307457E+02  0.29521372545E+02  0.41800000000E+01 0. -1.
         -5    1    1    2    0  502  0.60254169072E+02 -0.37367884214E+03 -0.40231866535E+03  0.55239860865E+03  0.41800000000E+01 0. -1.
        -11    1    1    2    0    0 -0.62303128752E+02  0.19366602873E+03  0.10283957304E+03  0.22795654920E+03  0.00000000000E+00 0. -1.
         11    1    1    2    0    0 -0.30606492629E+01  0.17225519577E+03  0.10544734369E+02  0.17260478402E+03  0.00000000000E+00 0.  1.
</event>
<event>
 7    1  0.2412631E-010  0.1235033E+03  0.7561462E-02  0.1237427E+00
          3   -1    0    0  501    0  0.00000000000E+00  0.00000000000E+00  0.39086620681E+02  0.39086620681E+02  0.00000000000E+00 0. -1.
         -3   -1    0    0    0  501 -0.00000000000E+00 -0.00000000000E+00 -0.42740115910E+03  0.42740115910E+03  0.00000000000E+00 0.  1.
         25    2    1    2    0    0 -0.46019087041E+02  0.54710651893E+02 -0.19000291910E+03  0.23843107173E+03  0.12504900999E+03 0.  0.
          5    1    3    3  502    0 -0.84073489672E+02  0.10105946901E+02 -0.12165675230E+03  0.14828458992E+03  0.41800000000E+01 0. -1.
         -5    1    3    3    0  502  0.38054402631E+02  0.44604704992E+02 -0.68346166798E+02  0.90146481812E+02  0.41800000000E+01 0. -1.
        -11    1    1    2    0    0 -0.16893625400E+02 -0.32674999529E+02 -0.11845227122E+03  0.12403221650E+03  0.00000000000E+00 0.  1.
         11    1    1    2    0    0  0.62912712440E+02 -0.22035652364E+02 -0.79859348102E+02  0.10402449154E+03  0.00000000000E+00 0. -1.
</event>
<event>
 6    1  0.2412631E-010  0.2561786E+03  0.7561462E-02  0.1109461E+00
         -2   -1    0    0    0  501 -0.00000000000E+00  0.00000000000E+00  0.60005286061E+03  0.60005286061E+03  0.00000000000E+00 0. -1.
          2   -1    0    0  501    0  0.00000000000E+00 -0.00000000000E+00 -0.13078412564E+03  0.13078412564E+03  0.00000000000E+00 0.  1.
          5    1    1    2  502    0  0.10404574804E+03 -0.14013247103E+03  0.36245585112E+02  0.17830827789E+03  0.41800000000E+01 0. -1.
         -5    1    1    2    0  502  0.67742185260E+02 -0.39318737194E+02  0.11224484939E+03  0.13693555190E+03  0.41800000000E+01 0. -1.
        -11    1    1    2    0    0 -0.13244283095E+03  0.17539165867E+03  0.23863374254E+03  0.32442163997E+03  0.00000000000E+00 0.  1.
         11    1    1    2    0    0 -0.39345102354E+02  0.40595495517E+01  0.82144557933E+02  0.91171516494E+02  0.00000000000E+00 0. -1.
</event>
<event>
 6    1  0.2412631E-010  0.1001751E+03  0.7561462E-02  0.1279928E+00
         -2   -1    0    0    0  501 -0.00000000000E+00  0.00000000000E+00  0.27390275880E+02  0.27390275880E+02  0.00000000000E+00 0.  1.
          2   -1    0    0  501    0  0.00000000000E+00 -0.00000000000E+00 -0.46467956834E+03  0.46467956834E+03  0.00000000000E+00 0. -1.
          5    1    1    2  502    0  0.49922450033E+02 -0.53525632673E+02 -0.22310075647E+03  0.23483752747E+03  0.41800000000E+01 0.  1.
         -5    1    1    2    0  502 -0.25835764821E+02  0.38836735802E+02 -0.61889320086E+02  0.77611462635E+02  0.41800000000E+01 0.  1.
        -11    1    1    2    0    0 -0.33128349148E+01  0.44085419203E+02 -0.12991838185E+03  0.13723441626E+03  0.00000000000E+00 0. -1.
         11    1    1    2    0    0 -0.20773850297E+02 -0.29396522332E+02 -0.22380834043E+02  0.42386437853E+02  0.00000000000E+00 0.  1.
</event>
<event>
 7    1  0.2412631E-010  0.1118340E+03  0.7561462E-02  0.1257211E+00
         -2   -1    0    0    0  501 -0.00000000000E+00  0.00000000000E+00  0.80244845062E+01  0.80244845062E+01  0.00000000000E+00 0.  1.
          2   -1    0    0  501    0  0.00000000000E+00 -0.00000000000E+00 -0.23337895241E+04  0.23337895241E+04  0.00000000000E+00 0. -1.
         25    2    1    2    0    0  0.50631365776E+02  0.24018970270E+02 -0.17881143848E+04  0.17933616991E+04  0.12511068914E+03 0.  0.
          5    1    3    3  502    0  0.49546313929E+02 -0.32126807320E+02 -0.13927161957E+04  0.13939737598E+04  0.41800000000E+01 0. -1.
         -5    1    3    3    0  502  0.10850518463E+01  0.56145777590E+02 -0.39539818912E+03  0.39938793927E+03  0.41800000000E+01 0. -1.
        -11    1    1    2    0    0 -0.63763892185E+02  0.16249897891E+02 -0.31261866808E+03  0.31946881657E+03  0.00000000000E+00 0.  1.
         11    1    1    2    0    0  0.13132526409E+02 -0.40268868161E+02 -0.22503198667E+03  0.22898349290E+03  0.00000000000E+00 0. -1.
</event>
<event>
 7    1  0.2412631E-010  0.1080219E+03  0.7561462E-02  0.1264277E+00
         -1   -1    0    0    0  501 -0.00000000000E+00  0.00000000000E+00  0.11407569558E+03  0.11407569558E+03  0.00000000000E+00 0.  1.
          1   -1    0    0  501    0  0.00000000000E+00 -0.00000000000E+00 -0.21670727576E+03  0.21670727576E+03  0.00000000000E+00 0. -1.
         25    2    1    2    0    0  0.77421689623E+02 -0.71592215988E+02 -0.99293504964E+02  0.19135412071E+03  0.12505053367E+03 0.  0.
          5    1    3    3  502    0  0.82242040643E+01 -0.22187508268E+02 -0.10337347645E+03  0.10612950150E+03  0.41800000000E+01 0. -1.
         -5    1    3    3    0  502  0.69197485559E+02 -0.49404707721E+02  0.40799714811E+01  0.85224619213E+02  0.41800000000E+01 0. -1.
        -11    1    1    2    0    0 -0.47825691065E+02  0.32362159809E+02 -0.46408748365E+02  0.74083588183E+02  0.00000000000E+00 0. -1.
         11    1    1    2    0    0 -0.29595998559E+02  0.39230056179E+02  0.43070673148E+02  0.65345262445E+02  0.00000000000E+00 0.  1.
</event>
<event>
 6    1  0.2412631E-010  0.1036645E+03  0.7561462E-02  0.1272773E+00
         -2   -1    0    0    0  501 -0.00000000000E+00  0.00000000000E+00  0.12695904211E+03  0.12695904211E+03  0.00000000000E+00 0.  1.
          2   -1    0    0  501    0  0.00000000000E+00 -0.00000000000E+00 -0.17894763515E+03  0.17894763515E+03  0.00000000000E+00 0. -1.
          5    1    1    2  502    0  0.93493877330E+01 -0.75079031780E+02 -0.12438506883E+03  0.14564817133E+03  0.41800000000E+01 0.  1.
         -5    1    1    2    0  502 -0.13797258625E+02 -0.32755658119E+01  0.27284600356E+02  0.31032490934E+02  0.41800000000E+01 0.  1.
        -11    1    1    2    0    0  0.41075615564E+02  0.15266797465E+02  0.33936348857E+02  0.55425238588E+02  0.00000000000E+00 0. -1.
         11    1    1    2    0    0 -0.36627744671E+02  0.63087800127E+02  0.11175526574E+02  0.73800776410E+02  0.00000000000E+00 0.  1.
</event>
<event>
 7    1  0.2412631E-010  0.1145737E+03  0.7561462E-02  0.1252327E+00
          1   -1    0    0  501    0  0.00000000000E+00  0.00000000000E+00  0.10275160319E+04  0.10275160319E+04  0.00000000000E+00 0. -1.
         -1   -1    0    0    0  501 -0.00000000000E+00 -0.00000000000E+00 -0.24309062616E+02  0.24309062616E+02  0.00000000000E+00 0.  1.
         25    2    1    2    0    0 -0.71523508705E+01 -0.94652126043E+02  0.74716683246E+03  0.76349276511E+03  0.12511093382E+03 0.  0.
          5    1    3    3  502    0  0.16553247414E+01 -0.11113266873E+03  0.72783028778E+03  0.73627957351E+03  0.41800000000E+01 0.  1.
         -5    1    3    3    0  502 -0.88076756119E+01  0.16480542685E+02  0.19336544674E+02  0.27213191595E+02  0.41800000000E+01 0.  1.
        -11    1    1    2    0    0 -0.10241622479E+02  0.25751073330E+02  0.59533616773E+01  0.28345213421E+02  0.00000000000E+00 0.  1.
         11    1    1    2    0    0  0.17393973350E+02  0.68901052713E+02  0.25008677514E+03  0.25998711598E+03  0.00000000000E+00 0. -1.
</event>
<event>
 7    1  0.2412631E-010  0.9581803E+02  0.7561462E-02  0.1289344E+00
          1   -1    0    0  501    0  0.00000000000E+00  0.00000000000E+00  0.82324427532E+02  0.82324427532E+02  0.00000000000E+00 0. -1.
         -1   -1    0    0    0  501 -0.00000000000E+00 -0.00000000000E+00 -0.17594938775E+03  0.17594938775E+03  0.00000000000E+00 0.  1.
         25    2    1    2    0    0 -0.42578021723E+02 -0.10515952426E+02 -0.82607024826E+02  0.15614729955E+03  0.12503833579E+03 0.  0.
          5    1    3    3  502    0  0.18263966693E+02  0.38420984533E+02 -0.47776717136E+00  0.42748627970E+02  0.41800000000E+01 0. -1.
         -5    1    3    3    0  502 -0.60841988415E+02 -0.48936936959E+02 -0.82129257655E+02  0.11339867158E+03  0.41800000000E+01 0. -1.
        -11    1    1    2    0    0 -0.13580115632E+02  0.40349952327E+01  0.29398470156E+02  0.32633889971E+02  0.00000000000E+00 0. -1.
         11    1    1    2    0    0  0.56158137355E+02  0.64809571931E+01 -0.40416405545E+02  0.69492625756E+02  0.00000000000E+00 0.  1.
</event>
<event>
 7    1  0.2412631E-010  0.1113595E+03  0.7561462E-02  0.1258073E+00
         -1   -1    0    0    0  501 -0.00000000000E+00  0.00000000000E+00  0.37350444591E+02  0.37350444591E+02  0.00000000000E+00 0.  1.
          1   -1    0    0  501    0  0.00000000000E+00 -0.00000000000E+00 -0.44285840499E+03  0.44285840499E+03  0.00000000000E+00 0. -1.
         25    2    1    2    0    0 -0.26457154085E+02  0.37850944970E+02 -0.32257892679E+03  0.34904325297E+03  0.12506539648E+03 0.  0.
          5    1    3    3  502    0  0.50094707136E+02  0.73484424081E+01 -0.12143063997E+03  0.13162960158E+03  0.41800000000E+01 0. -1.
         -5    1    3    3    0  502 -0.76551861220E+02  0.30502502562E+02 -0.20114828682E+03  0.21741365139E+03  0.41800000000E+01 0. -1.
        -11    1    1    2    0    0  0.39132457395E+02  0.95978329439E+01 -0.72381932037E+01  0.40937257601E+02  0.00000000000E+00 0.  1.
         11    1    1    2    0    0 -0.12675303311E+02 -0.47448777914E+02 -0.75690840399E+02  0.90228339006E+02  0.00000000000E+00 0. -1.
</event>
<event>
 7    1  0.2412631E-010  0.1551716E+03  0.7561462E-02  0.1194258E+00
         -2   -1    0    0    0  501 -0.00000000000E+00  0.00000000000E+00  0.23032281149E+02  0.23032281149E+02  0.00000000000E+00 0.  1.
          2   -1    0    0  501    0  0.00000000000E+00 -0.00000000000E+00 -0.11310153021E+04  0.11310153021E+04  0.00000000000E+00 0. -1.
         25    2    1    2    0    0 -0.11332580454E+03 -0.34467900603E+02 -0.65447762557E+03  0.67677798700E+03  0.12512676440E+03 0.  0.
          5    1    3    3  502    0 -0.37263123998E+02  0.43627133923E+02 -0.15031925339E+03  0.16095097876E+03  0.41800000000E+01 0.  1.
         -5    1    3    3    0  502 -0.76062680541E+02 -0.78095034526E+02 -0.50415837219E+03  0.51582700824E+03  0.41800000000E+01 0.  1.
        -11    1    1    2    0    0  0.33177894542E+02  0.51995175759E+02 -0.25755440046E+03  0.26483681803E+03  0.00000000000E+00 0. -1.
         11    1    1    2    0    0  0.80147909997E+02 -0.17527275157E+02 -0.19595099493E+03  0.21243277823E+03  0.00000000000E+00 0.  1.
</event>
<event>
 6    1  0.2412631E-010  0.1468261E+03  0.7561462E-02  0.1204428E+00
          2   -1    0    0  501    0  0.00000000000E+00  0.00000000000E+00  0.26109736936E+03  0.26109736936E+03  0.00000000000E+00 0. -1.
         -2   -1    0    0    0  501 -0.00000000000E+00 -0.00000000000E+00 -0.12946098526E+03  0.12946098526E+03  0.00000000000E+00 0.  1.
          5    1    1    2  502    0  0.47402300888E+02 -0.38935205491E+02  0.90199632477E+01  0.62143064723E+02  0.41800000000E+01 0.  1.
         -5    1    1    2    0  502 -0.33140170319E+02 -0.80551571226E+02  0.15201618046E+03  0.17525187029E+03  0.41800000000E+01 0.  1.
        -11    1    1    2    0    0  0.12796593508E+02  0.11710412028E+03 -0.39403290722E+02  0.12421653316E+03  0.00000000000E+00 0.  1.
         11    1    1    2    0    0 -0.27058724077E+02  0.23826564416E+01  0.10003531117E+02  0.28946886451E+02  0.00000000000E+00 0. -1.
</event>
<event>
 7    1  0.2412631E-010  0.9113022E+02  0.7561462E-02  0.1300138E+00
         -2   -1    0    0    0  501 -0.00000000000E+00  0.00000000000E+00  0.11009282731E+03  0.11009282731E+03  0.00000000000E+00 0.  1.
          2   -1    0    0  501    0  0.00000000000E+00 -0.00000000000E+00 -0.13312137731E+03  0.13312137731E+03  0.00000000000E+00 0. -1.
         25    2    1    2    0    0 -0.45707862745E+02 -0.22120818668E+02 -0.48346654238E+01  0.13505366287E+03  0.12505030400E+03 0.  0.
          5    1    3    3  502    0 -0.57008970954E+02 -0.48920674486E+02  0.37069207884E+02  0.83874034924E+02  0.41800000000E+01 0.  1.
         -5    1    3    3    0  502  0.11301108208E+02  0.26799855818E+02 -0.41903873308E+02  0.51179627947E+02  0.41800000000E+01 0.  1.
        -11    1    1    2    0    0  0.70992989186E+01  0.35937702360E+02  0.28209176193E+02  0.46235009652E+02  0.00000000000E+00 0.  1.
         11    1    1    2    0    0  0.38608563827E+02 -0.13816883692E+02 -0.46403060771E+02  0.61925532090E+02  0.00000000000E+00 0. -1.
</event>
<event>
 7    1  0.2412631E-010  0.1618717E+03  0.7561462E-02  0.1186600E+00
          2   -1    0    0  501    0  0.00000000000E+00  0.00000000000E+00  0.14298603494E+04  0.14298603494E+04  0.00000000000E+00 0. -1.
         -2   -1    0    0    0  501 -0.00000000000E+00 -0.00000000000E+00 -0.28701886533E+02  0.28701886533E+02  0.00000000000E+00 0.  1.
         25    2    1    2    0    0  0.81413419263E+02 -0.91230024579E+02  0.11635567770E+04  0.11766370685E+04  0.12513734618E+03 0.  0.
          5    1    3    3  502    0 -0.25178912430E+02  0.77650925028E+01  0.11655077987E+03  0.11956517462E+03  0.41800000000E+01 0. -1.
         -5    1    3    3    0  502  0.10659233169E+03 -0.98995117082E+02  0.10470059971E+04  0.10570718939E+04  0.41800000000E+01 0. -1.
        -11    1    1    2    0    0  0.15941922928E+02  0.36544716057E+02  0.69269610330E+02  0.79924590043E+02  0.00000000000E+00 0.  1.
         11    1    1    2    0    0 -0.97355342191E+02  0.54685308522E+02  0.16833207560E+03  0.20200057747E+03  0.00000000000E+00 0. -1.
</event>
<event>
 7    1  0.2412631E-010  0.1292434E+03  0.7561462E-02  0.1228583E+00
         -1   -1    0    0    0  501 -0.00000000000E+00  0.00000000000E+00  0.41294929742E+02  0.41294929742E+02  0.00000000000E+00 0.  1.
          1   -1    0    0  501    0  0.00000000000E+00 -0.00000000000E+00 -0.58141198649E+03  0.58141198649E+03  0.00000000000E+00 0. -1.
         25    2    1    2    0    0  0.36851423796E+02  0.92683787735E+02 -0.38141818095E+03  0.41362281517E+03  0.12512270987E+03 0.  0.
          5    1    3    3  502    0  0.28511446537E+02  0.10406285674E+03 -0.38381489544E+03  0.39871459354E+03  0.41800000000E+01 0. -1.
         -5    1    3    3    0  502  0.83399772584E+01 -0.11379069003E+02  0.23967144877E+01  0.14908221637E+02  0.41800000000E+01 0. -1.
        -11    1    1    2    0    0 -0.74247164640E+01 -0.10400094791E+03 -0.11545394565E+03  0.15556650393E+03  0.00000000000E+00 0.  1.
         11    1    1    2    0    0 -0.29426707332E+02  0.11317160172E+02 -0.43244930144E+02  0.53517597124E+02  0.00000000000E+00 0. -1.
</event>
<event>
 6    1  0.2412631E-010  0.1584939E+03  0.7561462E-02  0.1190408E+00
          2   -1    0    0  501    0  0.00000000000E+00  0.00000000000E+00  0.12500531259E+03  0.12500531259E+03  0.00000000000E+00 0. -1.
         -2   -1    0    0    0  501 -0.00000000000E+00 -0.00000000000E+00 -0.28318759339E+03  0.28318759339E+03  0.00000000000E+00 0.  1.
          5    1    1    2  502    0  0.13129117061E+03 -0.11774544195E+02 -0.42246080009E+02  0.13848543262E+03  0.41800000000E+01 0. -1.
         -5    1    1    2    0  502  0.53283507372E+01  0.40244757815E+02  0.28066589681E+02  0.49530169690E+02  0.41800000000E+01 0. -1.
        -11    1    1    2    0    0 -0.28736060783E+02 -0.22045472939E+02  0.45156022022E+01  0.36498694904E+02  0.00000000000E+00 0. -1.
         11    1    1    2    0    0 -0.10788346057E+03 -0.64247406814E+01 -0.14851839268E+03  0.18367860877E+03  0.00000000000E+00 0.  1.
</event>
<event>
 7    1  0.2412631E-010  0.1238717E+03  0.7561462E-02  0.1236843E+00
         -1   -1    0    0    0  501 -0.00000000000E+00  0.00000000000E+00  0.18789476506E+02  0.18789476506E+02  0.00000000000E+00 0.  1.
          1   -1    0    0  501    0  0.00000000000E+00 -0.00000000000E+00 -0.10020401435E+04  0.10020401435E+04  0.00000000000E+00 0. -1.
         25    2    1    2    0    0  0.37511985323E+02 -0.74891612481E+02 -0.57737149951E+03  0.59668037642E+03  0.12511482923E+03 0.  0.
          5    1    3    3  502    0  0.16632114001E+02 -0.10687316872E+03 -0.35929755708E+03  0.37524752941E+03  0.41800000000E+01 0. -1.
         -5    1    3    3    0  502  0.20879871322E+02  0.31981556236E+02 -0.21807394243E+03  0.22143284701E+03  0.41800000000E+01 0. -1.
        -11    1    1    2    0    0 -0.17847322266E+02 -0.52167706953E+01 -0.12959827905E+02  0.22664923293E+02  0.00000000000E+00 0.  1.
         11    1    1    2    0    0 -0.19664663058E+02  0.80108383176E+02 -0.39291933962E+03  0.40148432034E+03  0.00000000000E+00 0. -1.
</event>
<event>
 7    1  0.2412631E-010  0.8107388E+02  0.7561462E-02  0.1326031E+00
         -1   -1    0    0    0  501 -0.00000000000E+00  0.00000000000E+00  0.17062478443E+03  0.17062478443E+03  0.00000000000E+00 0.  1.
          1   -1    0    0  501    0  0.00000000000E+00 -0.00000000000E+00 -0.10773720258E+03  0.10773720258E+03  0.00000000000E+00 0. -1.
         25    2    1    2    0    0 -0.37676631000E+02  0.49814959527E+02  0.97273845152E+02  0.17030203423E+03  0.12505807929E+03 0.  0.
          5    1    3    3  502    0 -0.60915134686E+02  0.28158049077E+02  0.11534914367E+03  0.13351564218E+03  0.41800000000E+01 0. -1.
         -5    1    3    3    0  502  0.23238503686E+02  0.21656910450E+02 -0.18075298514E+02  0.36786392051E+02  0.41800000000E+01 0. -1.
        -11    1    1    2    0    0  0.25955257949E+02 -0.39453012572E+02  0.20135020025E+02  0.51338432462E+02  0.00000000000E+00 0.  1.
         11    1    1    2    0    0  0.11721373051E+02 -0.10361946955E+02 -0.54521283326E+02  0.56721520311E+02  0.00000000000E+00 0. -1.
</event>
<event>
 6    1  0.2412631E-010  0.1067056E+03  0.7561462E-02  0.1266795E+00
         -1   -1    0    0    0  501 -0.00000000000E+00  0.00000000000E+00  0.46088853112E+03  0.46088853112E+03  0.00000000000E+00 0.  1.
          1   -1    0    0  501    0  0.00000000000E+00 -0.00000000000E+00 -0.34613231859E+02  0.34613231859E+02  0.00000000000E+00 0. -1.
          5    1    1    2  502    0  0.41987106205E+02  0.54151026766E+02  0.12964217858E+03  0.14669634506E+03  0.41800000000E+01 0. -1.
         -5    1    1    2    0  502 -0.64110875770E+02 -0.87828167236E+01  0.17026950802E+03  0.18219912190E+03  0.41800000000E+01 0. -1.
        -11    1    1    2    0    0 -0.19953426114E+02 -0.29513827161E+01  0.98746390778E+02  0.10078541345E+03  0.00000000000E+00 0.  1.
         11    1    1    2    0    0  0.42077195680E+02 -0.42416827326E+02  0.27617221889E+02  0.65820882564E+02  0.00000000000E+00 0. -1.
</event>
<event>
 7    1  0.2412631E-010  0.1230856E+03  0.7561462E-02  0.1238092E+00
          2   -1    0    0  501    0  0.00000000000E+00  0.00000000000E+00  0.73005475700E+03  0.73005475700E+03  0.00000000000E+00 0. -1.
         -2   -1    0    0    0  501 -0.00000000000E+00 -0.00000000000E+00 -0.22118828295E+02  0.22118828295E+02  0.00000000000E+00 0.  1.
         25    2    1    2    0    0  0.20940717485E+02  0.54879325630E+02  0.31419874113E+03  0.34325587460E+03  0.12511391803E+03 0.  0.
          5    1    3    3  502    0  0.36744484909E+01  0.93366386205E+02  0.18532913980E+03  0.20759370439E+03  0.41800000000E+01 0. -1.
         -5    1    3    3    0  502  0.17266268994E+02 -0.38487060574E+02  0.12886960133E+03  0.13566217020E+03  0.41800000000E+01 0. -1.
        -11    1    1    2    0    0  0.26419133683E+02  0.11412292113E+02  0.11188041281E+03  0.11552245585E+03  0.00000000000E+00 0.  1.
         11    1    1    2    0    0 -0.47359851168E+02 -0.66291617744E+02  0.28185677477E+03  0.29339525485E+03  0.00000000000E+00 0. -1.
</event>
<event>
 7    1  0.2412631E-010  0.1182350E+03  0.7561462E-02  0.1246038E+00
         -2   -1    0    0    0  501 -0.00000000000E+00  0.00000000000E+00  0.47473842095E+02  0.47473842095E+02  0.00000000000E+00 0.  1.
          2   -1    0    0  501    0  0.00000000000E+00 -0.00000000000E+00 -0.38395071061E+03  0.38395071061E+03  0.00000000000E+00 0. -1.
         25    2    1    2    0    0 -0.62847205005E+02  0.14577293681E+02 -0.10934390125E+03  0.17825944485E+03  0.12513221916E+03 0.  0.
          5    1    3    3  502    0 -0.77220783820E+01 -0.47908226820E+02 -0.71821669895E+02  0.86779337161E+02  0.41800000000E+01 0.  1.
         -5    1    3    3    0  502 -0.55125126623E+02  0.62485520501E+02 -0.37522231351E+02  0.91480107691E+02  0.41800000000E+01 0.  1.
        -11    1    1    2    0    0  0.23597974645E+02  0.34308530498E+02 -0.13833584715E+03  0.14446711141E+03  0.00000000000E+00 0. -1.
         11    1    1    2    0    0  0.39249230360E+02 -0.48885824180E+02 -0.88797120116E+02  0.10869799644E+03  0.00000000000E+00 0.  1.
</event>
<event>
 7    1  0.2412631E-010  0.5117581E+02  0.7561462E-02  0.1439101E+00
         -1   -1    0    0    0  501 -0.00000000000E+00  0.00000000000E+00  0.10635562740E+03  0.10635562740E+03  0.00000000000E+00 0.  1.
          1   -1    0    0  501    0  0.00000000000E+00 -0.00000000000E+00 -0.15402003934E+03  0.15402003934E+03  0.00000000000E+00 0. -1.
         25    2    1    2    0    0  0.48941006391E+02  0.13364024493E+02  0.20934004004E+02  0.13657494242E+03  0.12506263677E+03 0.  0.
          5    1    3    3  502    0  0.23963231704E+02  0.47439693249E+01 -0.52697436249E+02  0.58234301798E+02  0.41800000000E+01 0. -1.
         -5    1    3    3    0  502  0.24977774687E+02  0.86200551683E+01  0.73631440253E+02  0.78340640623E+02  0.41800000000E+01 0. -1.
        -11    1    1    2    0    0 -0.15292332712E+02 -0.27853059798E+01 -0.83917780982E+02  0.85345224437E+02  0.00000000000E+00 0. -1.
         11    1    1    2    0    0 -0.33648673679E+02 -0.10578718513E+02  0.15319365045E+02  0.38455499881E+02  0.00000000000E+00 0.  1.
</event>
<event>
 7    1  0.2412631E-010  0.1050082E+03  0.7561462E-02  0.1270103E+00
         -1   -1    0    0    0  501 -0.00000000000E+00  0.00000000000E+00  0.20218798200E+02  0.20218798200E+02  0.00000000000E+00 0.  1.
          1   -1    0    0  501    0  0.00000000000E+00 -0.00000000000E+00 -0.66443921251E+03  0.66443921251E+03  0.00000000000E+00 0. -1.
         25    2    1    2    0    0  0.20437734677E+02 -0.36881340888E+02 -0.37543125977E+03  0.39797564388E+03  0.12513212218E+03 0.  0.
          5    1    3    3  502    0  0.14037003704E+02  0.35506865593E+02 -0.25016145297E+03  0.25309286819E+03  0.41800000000E+01 0. -1.
         -5    1    3    3    0  502  0.64007309728E+01 -0.72388206480E+02 -0.12526980681E+03  0.14488277569E+03  0.41800000000E+01 0. -1.
        -11    1    1    2    0    0 -0.44449321479E+02  0.53544333472E+02 -0.17096281234E+03  0.18458337149E+03  0.00000000000E+00 0.  1.
         11    1    1    2    0    0  0.24011586802E+02 -0.16662992584E+02 -0.97826342201E+02  0.10209899535E+03  0.00000000000E+00 0. -1.
</event>
<event>
 7    1  0.2412631E-010  0.2965746E+03  0.7561462E-02  0.1086966E+00
         -2   -1    0    0    0  501 -0.00000000000E+00  0.00000000000E+00  0.25370979804E+03  0.25370979804E+03  0.00000000000E+00 0.  1.
          2   -1    0    0  501    0  0.00000000000E+00 -0.00000000000E+00 -0.38891279231E+03  0.38891279231E+03  0.00000000000E+00 0. -1.
         25    2    1    2    0    0  0.24581069704E+03  0.14003981825E+03 -0.15249365665E+03  0.34486323910E+03  0.12506913645E+03 0.  0.
          5    1    3    3  502    0  0.17550276058E+03  0.15700782373E+03 -0.12993257985E+03  0.26898442964E+03  0.41800000000E+01 0.  1.
         -5    1    3    3    0  502  0.70307936458E+02 -0.16968005480E+02 -0.22561076799E+02  0.75878809462E+02  0.41800000000E+01 0.  1.
        -11    1    1    2    0    0 -0.13374528414E+03 -0.55496277848E+02  0.50767710176E+02  0.15344379518E+03  0.00000000000E+00 0.  1.
         11    1    1    2    0    0 -0.11206541290E+03 -0.84543540400E+02 -0.33477047802E+02  0.14431555606E+03  0.00000000000E+00 0. -1.
</event>
<event>
 6    1  0.2412631E-010  0.1164622E+03  0.7561462E-02  0.1249050E+00
          3   -1    0    0  501    0  0.00000000000E+00  0.00000000000E+00  0.32882038445E+03  0.32882038445E+03  0.00000000000E+00 0. -1.
         -3   -1    0    0    0  501 -0.00000000000E+00 -0.00000000000E+00 -0.59528270257E+02  0.59528270257E+02  0.00000000000E+00 0.  1.
          5    1    1    2  502    0  0.58601900190E+02 -0.38024223185E+02  0.15604484823E+03  0.17101897940E+03  0.41800000000E+01 0. -1.
         -5    1    1    2    0  502  0.26659212394E+02  0.22805141936E+02 -0.13113110821E+02  0.37685729124E+02  0.41800000000E+01 0. -1.
        -11    1    1    2    0    0 -0.19897220251E+02 -0.38281745626E+02  0.45746589661E+02  0.62881967905E+02  0.00000000000E+00 0. -1.
         11    1    1    2    0    0 -0.65363892334E+02  0.53500826875E+02  0.80613787116E+02  0.11676197827E+03  0.00000000000E+00 0.  1.
</event>
<event>
 7    1  0.2412631E-010  0.8950724E+02  0.7561462E-02  0.1304049E+00
         -4   -1    0    0    0  501 -0.00000000000E+00  0.00000000000E+00  0.74109959859E+03  0.74109959859E+03  0.00000000000E+00 0. -1.
          4   -1    0    0  501    0  0.00000000000E+00 -0.00000000000E+00 -0.18027871712E+02  0.18027871712E+02  0.00000000000E+00 0.  1.
         25    2    1    2    0    0 -0.12481292487E+01  0.89529587411E+01  0.54961233056E+03  0.56374472937E+03  0.12511072177E+03 0.  0.
          5    1    3    3  502    0 -0.43276083668E+02  0.45303083036E+02  0.38163020441E+03  0.38676126237E+03  0.41800000000E+01 0. -1.
         -5    1    3    3    0  502  0.42027954420E+02 -0.36350124295E+02  0.16798212614E+03  0.17698346700E+03  0.41800000000E+01 0. -1.
        -11    1    1    2    0    0  0.29369051725E+02 -0.12948150684E+02  0.16134039744E+03  0.16450203541E+03  0.00000000000E+00 0. -1.
         11    1    1    2    0    0 -0.28120922477E+02  0.39951919427E+01  0.12118998875E+02  0.30880705519E+02  0.00000000000E+00 0.  1.
</event>
<event>
 6    1  0.2412631E-010  0.1097646E+03  0.7561462E-02  0.1261006E+00
         -2   -1    0    0    0  501 -0.00000000000E+00  0.00000000000E+00  0.22545905856E+02  0.22545905856E+02  0.00000000000E+00 0.  1.
          2   -1    0    0  501    0  0.00000000000E+00 -0.00000000000E+00 -0.87771272482E+03  0.87771272482E+03  0.00000000000E+00 0. -1.
          5    1    1    2  502    0  0.71457918861E+01  0.55112931248E+02 -0.23778821049E+03  0.24423186316E+03  0.41800000000E+01 0. -1.
         -5    1    1    2    0  502 -0.53293730061E+02 -0.52544290497E+02 -0.47153933497E+03  0.47745988413E+03  0.41800000000E+01 0. -1.
        -11    1    1    2    0    0 -0.14572913040E+02 -0.20840549926E+02 -0.91788039818E+02  0.95245695805E+02  0.00000000000E+00 0. -1.
         11    1    1    2    0    0  0.60720851215E+02  0.18271909175E+02 -0.54051233674E+02  0.83321187575E+02  0.00000000000E+00 0.  1.
</event>
<event>
 6    1  0.2412631E-010  0.6946160E+02  0.7561462E-02  0.1361934E+00
          2   -1    0    0  501    0  0.00000000000E+00  0.00000000000E+00  0.10124302389E+03  0.10124302389E+03  0.00000000000E+00 0. -1.
         -2   -1    0    0    0  501 -0.00000000000E+00 -0.00000000000E+00 -0.11387483595E+03  0.11387483595E+03  0.00000000000E+00 0.  1.
          5    1    1    2  502    0  0.30704843786E+02  0.12338210137E+02  0.42773658149E+02  0.54240917145E+02  0.41800000000E+01 0. -1.
         -5    1    1    2    0  502 -0.21164392281E+02 -0.20077758459E+01 -0.71954222938E+02  0.75145493964E+02  0.41800000000E+01 0. -1.
        -11    1    1    2    0    0 -0.24645111706E+02  0.31171717267E+02  0.10908160765E+02  0.41207347156E+02  0.00000000000E+00 0. -1.
         11    1    1    2    0    0  0.15104660201E+02 -0.41502151558E+02  0.56405919611E+01  0.44524101579E+02  0.00000000000E+00 0.  1.
</event>
<event>
 6    1  0.2412631E-010  0.1070703E+03  0.7561462E-02  0.1266093E+00
          2   -1    0    0  501    0  0.00000000000E+00  0.00000000000E+00  0.48154765594E+03  0.48154765594E+03  0.00000000000E+00 0. -1.
         -2   -1    0    0    0  501 -0.00000000000E+00 -0.00000000000E+00 -0.30214021402E+02  0.30214021402E+02  0.00000000000E+00 0.  1.
          5    1    1    2  502    0 -0.61473532507E+02  0.33240273608E+02  0.13393300954E+03  0.15112721274E+03  0.41800000000E+01 0. -1.
         -5    1    1    2    0  502  0.19723756649E+02 -0.58986984292E+02  0.76749558475E+02  0.98875972907E+02  0.41800000000E+01 0. -1.
        -11    1    1    2    0    0 -0.39549794305E+01 -0.18058143383E+02  0.71385576135E+01  0.19816594297E+02  0.00000000000E+00 0.  1.
         11    1    1    2    0    0  0.45704755288E+02  0.43804854066E+02  0.23351250892E+03  0.24194189740E+03  0.00000000000E+00 0. -1.
</event>
<event>
 7    1  0.2412631E-010  0.1248575E+03  0.7561462E-02  0.1235292E+00
         -2   -1    0    0    0  501 -0.00000000000E+00  0.00000000000E+00  0.22293945718E+03  0.22293945718E+03  0.00000000000E+00 0.  1.
          2   -1    0    0  501    0  0.00000000000E+00 -0.00000000000E+00 -0.99637203354E+02  0.99637203354E+02  0.00000000000E+00 0. -1.
         25    2    1    2    0    0 -0.38162520584E+02 -0.88667211041E+02  0.10844750538E+03  0.19161703373E+03  0.12505188483E+03 0.  0.
          5    1    3    3  502    0 -0.63963193762E+02 -0.19190610306E+02  0.89891952891E+01  0.67511833867E+02  0.41800000000E+01 0. -1.
         -5    1    3    3    0  502  0.25800673178E+02 -0.69476600734E+02  0.99458310092E+02  0.12410519986E+03  0.41800000000E+01 0. -1.
        -11    1    1    2    0    0 -0.97961190896E+01  0.36149761735E+02  0.40679687611E+02  0.55295625567E+02  0.00000000000E+00 0.  1.
         11    1    1    2    0    0  0.47958639674E+02  0.52517449306E+02 -0.25824939164E+02  0.75664001241E+02  0.00000000000E+00 0. -1.
</event>
<event>
 6    1  0.2412631E-010  0.2615704E+03  0.7561462E-02  0.1106203E+00
         -1   -1    0    0    0  501 -0.00000000000E+00  0.00000000000E+00  0.16912177401E+03  0.16912177401E+03  0.00000000000E+00 0.  1.
          1   -1    0    0  501    0  0.00000000000E+00 -0.00000000000E+00 -0.46409625363E+03  0.46409625363E+03  0.00000000000E+00 0. -1.
          5    1    1    2  502    0 -0.12432040396E+02 -0.14928150171E+01  0.15323551398E+02  0.20225423420E+02  0.41800000000E+01 0.  1.
         -5    1    1    2    0  502 -0.14728121259E+03 -0.19636646451E+03 -0.21667677946E+03  0.32744135829E+03  0.41800000000E+01 0.  1.
        -11    1    1    2    0    0  0.18295301856E+02 -0.32574124228E+01  0.70551206930E+01  0.19877211416E+02  0.00000000000E+00 0.  1.
         11    1    1    2    0    0  0.14141795113E+03  0.20111669195E+03 -0.10067637226E+03  0.26567403451E+03  0.00000000000E+00 0. -1.
</event>
<event>
 7    1  0.2412631E-010  0.2160346E+03  0.7561462E-02  0.1136874E+00
         -2   -1    0    0    0  501 -0.00000000000E+00  0.00000000000E+00  0.62324202151E+03  0.62324202151E+03  0.00000000000E+00 0.  1.
          2   -1    0    0  501    0  0.00000000000E+00 -0.00000000000E+00 -0.79061456107E+02  0.79061456107E+02  0.00000000000E+00 0. -1.
         25    2    1    2    0    0  0.69561019187E+02  0.18150471423E+03  0.26091789105E+03  0.34857263737E+03  0.12506814532E+03 0.  0.
          5    1    3    3  502    0 -0.15391968297E+02  0.10515179570E+03  0.17804365833E+03  0.20739052413E+03  0.41800000000E+01 0.  1.
         -5    1    3    3    0  502  0.84952987484E+02  0.76352918532E+02  0.82874232724E+02  0.14118211324E+03  0.41800000000E+01 0.  1.
        -11    1    1    2    0    0 -0.31799514486E+02 -0.16850484057E+03  0.22033062586E+03  0.27919648119E+03  0.00000000000E+00 0. -1.
         11    1    1    2    0    0 -0.37761504701E+02 -0.12999873663E+02  0.62932048491E+02  0.74534359056E+02  0.00000000000E+00 0.  1.
</event>
<event>
 7    1  0.2412631E-010  0.1277513E+03  0.7561462E-02  0.1230831E+00
          2   -1    0    0  501    0  0.00000000000E+00  0.00000000000E+00  0.63842146456E+03  0.63842146456E+03  0.00000000000E+00 0. -1.
         -2   -1    0    0    0  501 -0.00000000000E+00 -0.00000000000E+00 -0.40124969180E+02  0.40124969180E+02  0.00000000000E+00 0.  1.
         25    2    1    2    0    0 -0.10944341088E+03 -0.13758456604E+02  0.38779723944E+03  0.42213299672E+03  0.12506963138E+03 0.  0.
          5    1    3    3  502    0 -0.10307572135E+03 -0.15095609334E+02  0.39679780551E+03  0.41026631913E+03  0.41800000000E+01 0.  1.
         -5    1    3    3    0  502 -0.63676895334E+01  0.13371527302E+01 -0.90005660755E+01  0.11866677593E+02  0.41800000000E+01 0.  1.
        -11    1    1    2    0    0  0.26637512465E+02 -0.37593102359E+02  0.45256623931E+02  0.64582973181E+02  0.00000000000E+00 0.  1.
         11    1    1    2    0    0  0.82805898418E+02  0.51351558962E+02  0.16524263201E+03  0.19183046383E+03  0.00000000000E+00 0. -1.
</event>
<event>
 6    1  0.2412631E-010  0.8780561E+02  0.7561462E-02  0.1308254E+00
          2   -1    0    0  501    0  0.00000000000E+00  0.00000000000E+00  0.13190395140E+03  0.13190395140E+03  0.00000000000E+00 0. -1.
         -2   -1    0    0    0  501 -0.00000000000E+00 -0.00000000000E+00 -0.11440472940E+03  0.11440472940E+03  0.00000000000E+00 0.  1.
          5    1    1    2  502    0  0.37660621879E+02  0.40042293222E+02  0.19662822655E+00  0.55129109819E+02  0.41800000000E+01 0. -1.
         -5    1    1    2    0  502 -0.29545127517E+02 -0.61776426410E+02 -0.35256394028E+02  0.77134474392E+02  0.41800000000E+01 0. -1.
        -11    1    1    2    0    0  0.12873541389E+02  0.27282255458E+02 -0.21386318888E+02  0.36978698819E+02  0.00000000000E+00 0.  1.
         11    1    1    2    0    0 -0.20989035751E+02 -0.55481222701E+01  0.73945306693E+02  0.77066397765E+02  0.00000000000E+00 0. -1.
</event>
<event>
 7    1  0.2412631E-010  0.6629014E+02  0.7561462E-02  0.1373183E+00
         -3   -1    0    0    0  501 -0.00000000000E+00  0.00000000000E+00  0.73480594001E+02  0.73480594001E+02  0.00000000000E+00 0.  1.
          3   -1    0    0  501    0  0.00000000000E+00 -0.00000000000E+00 -0.17967422644E+03  0.17967422644E+03  0.00000000000E+00 0. -1.
         25    2    1    2    0    0 -0.29414985063E+02 -0.27641145809E+02 -0.63949697556E+02  0.14613888002E+03  0.12505092621E+03 0.  0.
          5    1    3    3  502    0 -0.14810926895E+02 -0.49014667411E+02  0.22289854659E+02  0.56000992827E+02  0.41800000000E+01 0. -1.
         -5    1    3    3    0  502 -0.14604058169E+02  0.21373521602E+02 -0.86239552214E+02  0.90137887188E+02  0.41800000000E+01 0. -1.
        -11    1    1    2    0    0  0.24285521575E+02  0.37031599490E+02  0.16535138295E+02  0.47270886573E+02  0.00000000000E+00 0.  1.
         11    1    1    2    0    0  0.51294634879E+01 -0.93904536813E+01 -0.58779073178E+02  0.59745053852E+02  0.00000000000E+00 0. -1.
</event>
<event>
 7    1  0.2412631E-010  0.1629141E+03  0.7561462E-02  0.1185445E+00
          1   -1    0    0  501    0  0.00000000000E+00  0.00000000000E+00  0.48716237514E+03  0.48716237514E+03  0.00000000000E+00 0. -1.
         -1   -1    0    0    0  501 -0.00000000000E+00 -0.00000000000E+00 -0.80093170768E+02  0.80093170768E+02  0.00000000000E+00 0.  1.
         25    2    1    2    0    0 -0.12784830370E+03 -0.68124778822E+02  0.32518161142E+03  0.37732165972E+03  0.12506950162E+03 0.  0.
          5    1    3    3  502    0 -0.83798606473E+02  0.24082733363E+01  0.25489103639E+03  0.26835595589E+03  0.41800000000E+01 0. -1.
         -5    1    3    3    0  502 -0.44049697227E+02 -0.70533052158E+02  0.70290575031E+02  0.10896570383E+03  0.41800000000E+01 0. -1.
        -11    1    1    2    0    0  0.28208937310E+02  0.49920056167E+02  0.65963461434E+02  0.87400997684E+02  0.00000000000E+00 0. -1.
         11    1    1    2    0    0  0.99639366390E+02  0.18204722655E+02  0.15924131516E+02  0.10253288851E+03  0.00000000000E+00 0.  1.
</event>
<event>
 7    1  0.2412631E-010  0.9840798E+02  0.7561462E-02  0.1283680E+00
         -2   -1    0    0    0  501 -0.00000000000E+00  0.00000000000E+00  0.49815349957E+02  0.49815349957E+02  0.00000000000E+00 0.  1.
          2   -1    0    0  501    0  0.00000000000E+00 -0.00000000000E+00 -0.32478553835E+03  0.32478553835E+03  0.00000000000E+00 0. -1.
         25    2    1    2    0    0 -0.46144660893E+02  0.45606929363E+02 -0.13889005900E+03  0.19789113281E+03  0.12514443743E+03 0.  0.
          5    1    3    3  502    0  0.11882075451E+02  0.66648588746E+01 -0.12588109368E+03  0.12668514596E+03  0.41800000000E+01 0. -1.
         -5    1    3    3    0  502 -0.58026736344E+02  0.38942070488E+02 -0.13008965327E+02  0.71205986851E+02  0.41800000000E+01 0. -1.
        -11    1    1    2    0    0  0.71784260545E+02 -0.48681730901E+02 -0.10061468094E+03  0.13283901914E+03  0.00000000000E+00 0.  1.
         11    1    1    2    0    0 -0.25639599652E+02  0.30748015386E+01 -0.35465448447E+02  0.43870736355E+02  0.00000000000E+00 0. -1.
</event>
<event>
 7    1  0.2412631E-010  0.1114785E+03  0.7561462E-02  0.1257856E+00
          1   -1    0    0  501    0  0.00000000000E+00  0.00000000000E+00  0.73531336607E+02  0.73531336607E+02  0.00000000000E+00 0. -1.
         -1   -1    0    0    0  501 -0.00000000000E+00 -0.00000000000E+00 -0.22226879976E+03  0.22226879976E+03  0.00000000000E+00 0.  1.
         25    2    1    2    0    0 -0.67356263054E+02  0.91802700559E+01 -0.78986029511E+02  0.16278736777E+03  0.12505914887E+03 0.  0.
          5    1    3    3  502    0 -0.61963474111E+02  0.62757436389E+02 -0.47147322920E+02  0.10009151015E+03  0.41800000000E+01 0.  1.
         -5    1    3    3    0  502 -0.53927889431E+01 -0.53577166333E+02 -0.31838706592E+02  0.62695857617E+02  0.41800000000E+01 0.  1.
        -11    1    1    2    0    0  0.47216449103E+01  0.13296355401E+02 -0.64761231949E+02  0.66280496085E+02  0.00000000000E+00 0.  1.
         11    1    1    2    0    0  0.62634618144E+02 -0.22476625457E+02 -0.49902016924E+01  0.66732272514E+02  0.00000000000E+00 0. -1.
</event>
<event>
 7    1  0.2412631E-010  0.1167218E+03  0.7561462E-02  0.1248605E+00
          1   -1    0    0  501    0  0.00000000000E+00  0.00000000000E+00  0.70746016356E+03  0.70746016356E+03  0.00000000000E+00 0. -1.
         -1   -1    0    0    0  501 -0.00000000000E+00 -0.00000000000E+00 -0.31018720938E+02  0.31018720938E+02  0.00000000000E+00 0.  1.
         25    2    1    2    0    0 -0.42727082400E+02 -0.86425517711E+02  0.43970276969E+03  0.46719837275E+03  0.12506326460E+03 0.  0.
          5    1    3    3  502    0 -0.34075360169E+01  0.21455661258E+02  0.13811876924E+02  0.26080587530E+02  0.41800000000E+01 0.  1.
         -5    1    3    3    0  502 -0.39319546383E+02 -0.10788117897E+03  0.42589089276E+03  0.44111778522E+03  0.41800000000E+01 0.  1.
        -11    1    1    2    0    0  0.74932208096E+01  0.16428601293E+02 -0.36667296517E+01  0.18425314241E+02  0.00000000000E+00 0.  1.
         11    1    1    2    0    0  0.35233861590E+02  0.69996916418E+02  0.24040540259E+03  0.25285519751E+03  0.00000000000E+00 0. -1.
</event>
<event>
 7    1  0.2412631E-010  0.1415480E+03  0.7561462E-02  0.1211261E+00
         -1   -1    0    0    0  501 -0.00000000000E+00  0.00000000000E+00  0.16311037225E+03  0.16311037225E+03  0.00000000000E+00 0.  1.
          1   -1    0    0  501    0  0.00000000000E+00 -0.00000000000E+00 -0.15867928138E+03  0.15867928138E+03  0.00000000000E+00 0. -1.
         25    2    1    2    0    0 -0.81915785360E+02  0.86587420501E+02 -0.21962053614E+02  0.17415923091E+03  0.12506609706E+03 0.  0.
          5    1    3    3  502    0 -0.11474539530E+02 -0.17009134286E+02 -0.42276141774E+02  0.47177539888E+02  0.41800000000E+01 0.  1.
         -5    1    3    3    0  502 -0.70441245830E+02  0.10359655479E+03  0.20314088160E+02  0.12698169102E+03  0.41800000000E+01 0.  1.
        -11    1    1    2    0    0  0.21676149556E+01 -0.48298261579E+02  0.33596392352E+02  0.58873917868E+02  0.00000000000E+00 0. -1.
         11    1    1    2    0    0  0.79748170404E+02 -0.38289158922E+02 -0.72032478687E+01  0.88756504853E+02  0.00000000000E+00 0.  1.
</event>
<event>
 7    1  0.2412631E-010  0.1152885E+03  0.7561462E-02  0.1251078E+00
          1   -1    0    0  501    0  0.00000000000E+00  0.00000000000E+00  0.37385021584E+03  0.37385021584E+03  0.00000000000E+00 0. -1.
         -1   -1    0    0    0  501 -0.00000000000E+00 -0.00000000000E+00 -0.40458210379E+02  0.40458210379E+02  0.00000000000E+00 0.  1.
         25    2    1    2    0    0 -0.42790363267E+02  0.30770865128E+02  0.23853984398E+03  0.27446746285E+03  0.12511302756E+03 0.  0.
          5    1    3    3  502    0  0.40768482808E+02  0.21458697499E+00  0.41974152699E+02  0.58663592908E+02  0.41800000000E+01 0.  1.
         -5    1    3    3    0  502 -0.83558846075E+02  0.30556278153E+02  0.19656569128E+03  0.21580386994E+03  0.41800000000E+01 0.  1.
        -11    1    1    2    0    0  0.50486234158E+02  0.16127689536E+02  0.64363070795E+02  0.83376058262E+02  0.00000000000E+00 0. -1.
         11    1    1    2    0    0 -0.76958708916E+01 -0.46898554664E+02  0.30489090690E+02  0.56464905113E+02  0.00000000000E+00 0.  1.
</event>
<event>
 7    1  0.2412631E-010  0.8845056E+02  0.7561462E-02  0.1306648E+00
         -3   -1    0    0    0  501 -0.00000000000E+00  0.00000000000E+00  0.10002996866E+03  0.10002996866E+03  0.00000000000E+00 0.  1.
          3   -1    0    0  501    0  0.00000000000E+00 -0.00000000000E+00 -0.13576942819E+03  0.13576942819E+03  0.00000000000E+00 0. -1.
         25    2    1    2    0    0  0.25440110569E+02 -0.19735702622E+02 -0.49367649310E+02  0.13830917693E+03  0.12512220602E+03 0.  0.
          5    1    3    3  502    0 -0.27289192355E+02 -0.27653642993E+02  0.25234834350E+02  0.46515516280E+02  0.41800000000E+01 0.  1.
         -5    1    3    3    0  502  0.52729302924E+02  0.79179403704E+01 -0.74602483660E+02  0.91793660646E+02  0.41800000000E+01 0.  1.
        -11    1    1    2    0    0  0.27852975631E+02  0.12608796482E+02 -0.17633928009E+02  0.35294835561E+02  0.00000000000E+00 0. -1.
         11    1    1    2    0    0 -0.53293086201E+02  0.71269061400E+01  0.31262117788E+02  0.62195384367E+02  0.00000000000E+00 0.  1.
</event>
<event>
 6    1  0.2412631E-010  0.1233906E+03  0.7561462E-02  0.1237606E+00
          1   -1    0    0  501    0  0.00000000000E+00  0.00000000000E+00  0.27243241492E+03  0.27243241492E+03  0.00000000000E+00 0. -1.
         -1   -1    0    0    0  501 -0.00000000000E+00 -0.00000000000E+00 -0.67441597023E+02  0.67441597023E+02  0.00000000000E+00 0.  1.
          5    1    1    2  502    0 -0.12355895326E+02 -0.67878361703E+02  0.26755535889E+02  0.74117954893E+02  0.41800000000E+01 0.  1.
         -5    1    1    2    0  502 -0.62214887207E+02  0.27935538218E+02  0.11028874763E+03  0.12973884052E+03  0.41800000000E+01 0.  1.
        -11    1    1    2    0    0  0.12420074155E+02 -0.19639135294E+02  0.38602721254E+02  0.45056896978E+02  0.00000000000E+00 0. -1.
         11    1    1    2    0    0  0.62150708379E+02  0.59581958778E+02  0.29343813122E+02  0.90960319549E+02  0.00000000000E+00 0.  1.
</event>
<event>
 7    1  0.2412631E-010  0.1088639E+03  0.7561462E-02  0.1262688E+00
         -2   -1    0    0    0  501 -0.00000000000E+00  0.00000000000E+00  0.14048276429E+03  0.14048276429E+03  0.00000000000E+00 0.  1.
          2   -1    0    0  501    0  0.00000000000E+00 -0.00000000000E+00 -0.10665205608E+03  0.10665205608E+03  0.00000000000E+00 0. -1.
         25    2    1    2    0    0  0.38231394523E+02 -0.33148146440E+02  0.44848844056E+02  0.14216766093E+03  0.12505912947E+03 0.  0.
          5    1    3    3  502    0  0.38907623304E+02  0.41422214072E+02  0.42130960723E+01  0.57138651964E+02  0.41800000000E+01 0.  1.
         -5    1    3    3    0  502 -0.67622878001E+00 -0.74570360512E+02  0.40635747984E+02  0.85029008970E+02  0.41800000000E+01 0.  1.
        -11    1    1    2    0    0 -0.32907478461E+02 -0.16019180680E+02  0.24532203628E+02  0.44060700212E+02  0.00000000000E+00 0.  1.
         11    1    1    2    0    0 -0.53239160622E+01  0.49167327120E+02 -0.35550339478E+02  0.60906459225E+02  0.00000000000E+00 0. -1.
</event>
<event>
 7    1  0.2412631E-010  0.4954226E+02  0.7561462E-02  0.1447826E+00
          1   -1    0    0  501    0  0.00000000000E+00  0.00000000000E+00  0.16353574678E+03  0.16353574678E+03  0.00000000000E+00 0. -1.
         -1   -1    0    0    0  501 -0.00000000000E+00 -0.00000000000E+00 -0.11719344788E+03  0.11719344788E+03  0.00000000000E+00 0.  1.
         25    2    1    2    0    0  0.19837196364E+02 -0.65195761920E+01 -0.57658461629E+02  0.13935004058E+03  0.12513159624E+03 0.  0.
          5    1    3    3  502    0 -0.41212120412E+01 -0.11299957955E+02 -0.94276344123E+02  0.95132407200E+02  0.41800000000E+01 0. -1.
         -5    1    3    3    0  502  0.23958408405E+02  0.47803817635E+01  0.36617882494E+02  0.44217633377E+02  0.41800000000E+01 0. -1.
        -11    1    1    2    0    0 -0.27538183128E+02 -0.19945421025E+02  0.22271037834E+00  0.34003249107E+02  0.00000000000E+00 0.  1.
         11    1    1    2    0    0  0.77009867641E+01  0.26464997217E+02  0.10377805015E+03  0.10737590497E+03  0.00000000000E+00 0. -1.
</event>
<event>
 7    1  0.2412631E-010  0.1448155E+03  0.7561462E-02  0.1206992E+00
          1   -1    0    0  501    0  0.00000000000E+00  0.00000000000E+00  0.48352629449E+03  0.48352629449E+03  0.00000000000E+00 0. -1.
         -1   -1    0    0    0  501 -0.00000000000E+00 -0.00000000000E+00 -0.72958884385E+02  0.72958884385E+02  0.00000000000E+00 0.  1.
         25    2    1    2    0    0  0.75620071324E+02 -0.82521673439E+02  0.36838479820E+03  0.40481724535E+03  0.12506566600E+03 0.  0.
          5    1    3    3  502    0  0.77631464235E+02 -0.13471091284E+02  0.28863812589E+03  0.29922826514E+03  0.41800000000E+01 0.  1.
         -5    1    3    3    0  502 -0.20113929109E+01 -0.69050582155E+02  0.79746672305E+02  0.10558898021E+03  0.41800000000E+01 0.  1.
        -11    1    1    2    0    0  0.16445667889E+02 -0.19692802629E+01 -0.61768283248E+01  0.17677422472E+02  0.00000000000E+00 0.  1.
         11    1    1    2    0    0 -0.92065739214E+02  0.84490953702E+02  0.48359440237E+02  0.13399051106E+03  0.00000000000E+00 0. -1.
</event>
<event>
 7    1  0.2412631E-010  0.1418356E+03  0.7561462E-02  0.1210880E+00
         -1   -1    0    0    0  501 -0.00000000000E+00  0.00000000000E+00  0.74031684218E+02  0.74031684218E+02  0.00000000000E+00 0.  1.
          1   -1    0    0  501    0  0.00000000000E+00 -0.00000000000E+00 -0.33447679367E+03  0.33447679367E+03  0.00000000000E+00 0. -1.
         25    2    1    2    0    0 -0.34086023494E+02 -0.10408688261E+03 -0.11342662874E+03  0.20128875121E+03  0.12512244053E+03 0.  0.
          5    1    3    3  502    0  0.35545841202E+02 -0.27995638473E+02 -0.81370808572E+02  0.93198409257E+02  0.41800000000E+01 0.  1.
         -5    1    3    3    0  502 -0.69631864696E+02 -0.76091244141E+02 -0.32055820170E+02  0.10809034195E+03  0.41800000000E+01 0.  1.
        -11    1    1    2    0    0  0.36104740343E+02  0.11673763629E+03 -0.98241432934E+02  0.15678841522E+03  0.00000000000E+00 0.  1.
         11    1    1    2    0    0 -0.20187168495E+01 -0.12650753676E+02 -0.48777047774E+02  0.50431311462E+02  0.00000000000E+00 0. -1.
</event>
<event>
 7    1  0.2412631E-010  0.1321612E+03  0.7561462E-02  0.1224284E+00
         -1   -1    0    0    0  501 -0.00000000000E+00  0.00000000000E+00  0.70557973991E+02  0.70557973991E+02  0.00000000000E+00 0.  1.
          1   -1    0    0  501    0  0.00000000000E+00 -0.00000000000E+00 -0.40722221751E+03  0.40722221751E+03  0.00000000000E+00 0. -1.
         25    2    1    2    0    0 -0.39633773913E+02  0.96534539219E+02 -0.70659353121E+02  0.17758654618E+03  0.12511788003E+03 0.  0.
          5    1    3    3  502    0 -0.81448376416E+02  0.45419497780E+02 -0.58898654581E+02  0.11037795392E+03  0.41800000000E+01 0. -1.
         -5    1    3    3    0  502  0.41814602504E+02  0.51115041439E+02 -0.11760698540E+02  0.67208592263E+02  0.41800000000E+01 0. -1.
        -11    1    1    2    0    0  0.20633241281E+02 -0.37736874334E+02 -0.21657765015E+02  0.48154554465E+02  0.00000000000E+00 0.  1.
         11    1    1    2    0    0  0.19000532632E+02 -0.58797664885E+02 -0.24434712538E+03  0.25203909086E+03  0.00000000000E+00 0. -1.
</event>
<event>
 7    1  0.2412631E-010  0.7429974E+02  0.7561462E-02  0.1346053E+00
         -2   -1    0    0    0  501 -0.00000000000E+00  0.00000000000E+00  0.44287999694E+02  0.44287999694E+02  0.00000000000E+00 0.  1.
          2   -1    0    0  501    0  0.00000000000E+00 -0.00000000000E+00 -0.29037566625E+03  0.29037566625E+03  0.00000000000E+00 0. -1.
         25    2    1    2    0    0  0.30311192712E+02  0.13432889962E+02 -0.14537826930E+03  0.19460105693E+03  0.12504206987E+03 0.  0.
          5    1    3    3  502    0  0.36601251593E+02  0.32895062036E+02 -0.17036851696E+01  0.49417726249E+02  0.41800000000E+01 0. -1.
         -5    1    3    3    0  502 -0.62900588808E+01 -0.19462172074E+02 -0.14367458413E+03  0.14518333068E+03  0.41800000000E+01 0. -1.
        -11    1    1    2    0    0 -0.51572457160E+02  0.27041636667E+01 -0.10092442698E+03  0.11337006130E+03  0.00000000000E+00 0. -1.
         11    1    1    2    0    0  0.21261264448E+02 -0.16137053628E+02  0.21502971980E+00  0.26692547715E+02  0.00000000000E+00 0.  1.
</event>
<event>
 6    1  0.2412631E-010  0.1385879E+03  0.7561462E-02  0.1215242E+00
         -3   -1    0    0    0  501 -0.00000000000E+00  0.00000000000E+00  0.28851617654E+03  0.28851617654E+03  0.00000000000E+00 0. -1.
          3   -1    0    0  501    0  0.00000000000E+00 -0.00000000000E+00 -0.78567603684E+02  0.78567603684E+02  0.00000000000E+00 0.  1.
          5    1    1    2  502    0 -0.34022380010E+02  0.48258007011E+02  0.32409400120E+00  0.59194045470E+02  0.41800000000E+01 0.  1.
         -5    1    1    2    0  502 -0.41748434631E+02 -0.81525359573E+02  0.54841054789E+02  0.10683786659E+03  0.41800000000E+01 0.  1.
        -11    1    1    2    0    0 -0.18318944190E+02 -0.11981666980E+02  0.14806336749E+02  0.26426722607E+02  0.00000000000E+00 0.  1.
         11    1    1    2    0    0  0.94089758831E+02  0.45249019542E+02  0.13997708732E+03  0.17462514556E+03  0.00000000000E+00 0. -1.
</event>
<event>
 7    1  0.2412631E-010  0.9737550E+02  0.7561462E-02  0.1285914E+00
         -2   -1    0    0    0  501 -0.00000000000E+00  0.00000000000E+00  0.35905207953E+02  0.35905207953E+02  0.00000000000E+00 0.  1.
          2   -1    0    0  501    0  0.00000000000E+00 -0.00000000000E+00 -0.43326682515E+03  0.43326682515E+03  0.00000000000E+00 0. -1.
         25    2    1    2    0    0 -0.57944179463E+02  0.21491810196E+02 -0.18013431717E+03  0.22786864043E+03  0.12512521421E+03 0.  0.
          5    1    3    3  502    0 -0.75469627895E+02  0.27089691732E+02 -0.46248794748E+02  0.92660345070E+02  0.41800000000E+01 0.  1.
         -5    1    3    3    0  502  0.17525448433E+02 -0.55978815361E+01 -0.13388552242E+03  0.13520829536E+03  0.41800000000E+01 0.  1.
        -11    1    1    2    0    0  0.70513986367E+02 -0.33625019543E+02 -0.12476079381E+03  0.14720095069E+03  0.00000000000E+00 0.  1.
         11    1    1    2    0    0 -0.12569806904E+02  0.12133209347E+02 -0.92466506223E+02  0.94102441987E+02  0.00000000000E+00 0. -1.
</event>
<event>
 7    1  0.2412631E-010  0.1045025E+03  0.7561462E-02  0.1271103E+00
          2   -1    0    0  501    0  0.00000000000E+00  0.00000000000E+00  0.69039001895E+03  0.69039001895E+03  0.00000000000E+00 0.  1.
         -2   -1    0    0    0  501 -0.00000000000E+00 -0.00000000000E+00 -0.23998562859E+02  0.23998562859E+02  0.00000000000E+00 0. -1.
         25    2    1    2    0    0  0.35197532503E+02  0.56747384584E+02  0.31851245773E+03  0.34863816458E+03  0.12505699549E+03 0.  0.
          5    1    3    3  502    0  0.64439809408E+02  0.63858986474E+02  0.29909678557E+03  0.31258089950E+03  0.41800000000E+01 0. -1.
         -5    1    3    3    0  502 -0.29242276905E+02 -0.71116018895E+01  0.19415672162E+02  0.36057265086E+02  0.41800000000E+01 0. -1.
        -11    1    1    2    0    0 -0.36222779094E+02 -0.67711436334E+02  0.34619621544E+03  0.35461069911E+03  0.00000000000E+00 0.  1.
         11    1    1    2    0    0  0.10252465910E+01  0.10964051750E+02  0.16827829105E+01  0.11139718114E+02  0.00000000000E+00 0. -1.
</event>
<event>
 7    1  0.3982058E-010  0.1670558E+03  0.7561462E-02  0.1180953E+00
         -2   -1    0    0    0  501 -0.00000000000E+00  0.00000000000E+00  0.21231632192E+02  0.21231632192E+02  0.00000000000E+00 0. -1.
          2   -1    0    0  501    0  0.00000000000E+00 -0.00000000000E+00 -0.16040378148E+04  0.16040378148E+04  0.00000000000E+00 0.  1.
         25    2    1    2    0    0 -0.12284646973E+03 -0.49871087377E+02 -0.11283406718E+04  0.11429724138E+04  0.12511948954E+03 0.  0.
          5    1    3    3  502    0 -0.86234339957E+02 -0.85874394343E+02 -0.93457643260E+03  0.94247618207E+03  0.41800000000E+01 0.  1.
         -5    1    3    3    0  502 -0.36612129775E+02  0.36003306967E+02 -0.19376423915E+03  0.20049623171E+03  0.41800000000E+01 0.  1.
        -11    1    1    2    0    0 -0.43746471805E+01  0.32063330503E+02 -0.10983386792E+03  0.11450184821E+03  0.00000000000E+00 0. -1.
         11    1    1    2    0    0  0.12722111691E+03  0.17807756874E+02 -0.34463164290E+03  0.36779518496E+03  0.00000000000E+00 0.  1.
</event>
<event>
 7    1  0.2412631E-010  0.9977329E+02  0.7561462E-02  0.1280773E+00
         -2   -1    0    0    0  501 -0.00000000000E+00  0.00000000000E+00  0.20760190568E+03  0.20760190568E+03  0.00000000000E+00 0.  1.
          2   -1    0    0  501    0  0.00000000000E+00 -0.00000000000E+00 -0.64818526911E+02  0.64818526911E+02  0.00000000000E+00 0. -1.
         25    2    1    2    0    0  0.30646469216E+02 -0.17261219695E+02  0.11229305423E+03  0.17170066389E+03  0.12503692323E+03 0.  0.
          5    1    3    3  502    0 -0.21947394863E+02  0.40578346182E+02  0.19408159445E+02  0.50223892454E+02  0.41800000000E+01 0.  1.
         -5    1    3    3    0  502  0.52593864079E+02 -0.57839565877E+02  0.92884894788E+02  0.12147677144E+03  0.41800000000E+01 0.  1.
        -11    1    1    2    0    0 -0.36215294744E+01  0.39666517967E+02 -0.15604852118E+02  0.42779195095E+02  0.00000000000E+00 0. -1.
         11    1    1    2    0    0 -0.27024939741E+02 -0.22405298272E+02  0.46095176650E+02  0.57940573600E+02  0.00000000000E+00 0.  1.
</event>
<event>
 7    1  0.2412631E-010  0.1043177E+03  0.7561462E-02  0.1271470E+00
         -1   -1    0    0    0  501 -0.00000000000E+00  0.00000000000E+00  0.18673484092E+03  0.18673484092E+03  0.00000000000E+00 0.  1.
          1   -1    0    0  501    0  0.00000000000E+00 -0.00000000000E+00 -0.33129738173E+03  0.33129738173E+03  0.00000000000E+00 0. -1.
         25    2    1    2    0    0 -0.73515286794E+02  0.20700525090E+02  0.14453410382E+03  0.20586755095E+03  0.12513325791E+03 0.  0.
          5    1    3    3  502    0 -0.17962753594E+02 -0.20998816119E+02  0.13229165948E+03  0.13521156150E+03  0.41800000000E+01 0.  1.
         -5    1    3    3    0  502 -0.55552533200E+02  0.41699341209E+02  0.12242444346E+02  0.70655989454E+02  0.41800000000E+01 0.  1.
        -11    1    1    2    0    0  0.97289857377E+01 -0.42571103781E+02 -0.66316381603E+02  0.79402862099E+02  0.00000000000E+00 0.  1.
         11    1    1    2    0    0  0.63786301057E+02  0.21870578690E+02 -0.22278026303E+03  0.23276180960E+03  0.00000000000E+00 0. -1.
</event>
<event>
 7    1  0.4422654E-010  0.9772197E+02  0.7561462E-02  0.1285161E+00
         -1   -1    0    0    0  501 -0.00000000000E+00  0.00000000000E+00  0.30388813209E+02  0.30388813209E+02  0.00000000000E+00 0.  1.
          1   -1    0    0  501    0  0.00000000000E+00 -0.00000000000E+00 -0.39633876335E+03  0.39633876335E+03  0.00000000000E+00 0. -1.
         25    2    1    2    0    0  0.81991459774E+01  0.46085234475E+01 -0.17374986054E+03  0.21427767621E+03  0.12504976610E+03 0.  0.
          5    1    3    3  502    0 -0.44965962977E+02  0.31835315115E+02 -0.12637335369E+03  0.13792433446E+03  0.41800000000E+01 0.  1.
         -5    1    3    3    0  502  0.53165108954E+02 -0.27226791667E+02 -0.47376506858E+02  0.76353341752E+02  0.41800000000E+01 0.  1.
        -11    1    1    2    0    0 -0.22129525906E+02  0.33268354229E+02 -0.46719201005E+02  0.61475060410E+02  0.00000000000E+00 0.  1.
         11    1    1    2    0    0  0.13930379929E+02 -0.37876877676E+02 -0.14548088860E+03  0.15097483994E+03  0.00000000000E+00 0. -1.
</event>
<event>
 7    1  0.2412631E-010  0.1095382E+03  0.7561462E-02  0.1261427E+00
          1   -1    0    0  501    0  0.00000000000E+00  0.00000000000E+00  0.16922220944E+03  0.16922220944E+03  0.00000000000E+00 0. -1.
         -1   -1    0    0    0  501 -0.00000000000E+00 -0.00000000000E+00 -0.10895020905E+03  0.10895020905E+03  0.00000000000E+00 0.  1.
         25    2    1    2    0    0 -0.78519958247E+01 -0.70804980774E+02 -0.67462076418E+01  0.14407116197E+03  0.12504394928E+03 0.  0.
          5    1    3    3  502    0  0.49109847679E+02 -0.35282020694E+02 -0.36247084438E+02  0.70625219671E+02  0.41800000000E+01 0. -1.
         -5    1    3    3    0  502 -0.56961843504E+02 -0.35522960080E+02  0.29500876796E+02  0.73445942297E+02  0.41800000000E+01 0. -1.
        -11    1    1    2    0    0 -0.40907353166E+01  0.77434288955E+02  0.13301223893E+02  0.78674810318E+02  0.00000000000E+00 0.  1.
         11    1    1    2    0    0  0.11942731141E+02 -0.66293081816E+01  0.53716984134E+02  0.55426446202E+02  0.00000000000E+00 0. -1.
</event>
<event>
 7    1  0.2412631E-010  0.1238087E+03  0.7561462E-02  0.1236943E+00
         -3   -1    0    0    0  501 -0.00000000000E+00  0.00000000000E+00  0.24760476463E+02  0.24760476463E+02  0.00000000000E+00 0.  1.
          3   -1    0    0  501    0  0.00000000000E+00 -0.00000000000E+00 -0.87988622214E+03  0.87988622214E+03  0.00000000000E+00 0. -1.
         25    2    1    2    0    0 -0.60465091310E+02 -0.70987994680E+02 -0.58218025242E+03  0.60271739223E+03  0.12505633106E+03 0.  0.
          5    1    3    3  502    0 -0.96769603219E+02 -0.53483022918E+02 -0.35142744813E+03  0.36843386591E+03  0.41800000000E+01 0.  1.
         -5    1    3    3    0  502  0.36304511909E+02 -0.17504971762E+02 -0.23075280428E+03  0.23428352632E+03  0.41800000000E+01 0.  1.
        -11    1    1    2    0    0  0.46498559232E+02  0.36083028177E+02 -0.25222676384E+03  0.25900278247E+03  0.00000000000E+00 0. -1.
         11    1    1    2    0    0  0.13966532078E+02  0.34904966503E+02 -0.20718729420E+02  0.42926523894E+02  0.00000000000E+00 0.  1.
</event>
<event>
 7    1  0.2412631E-010  0.9273959E+02  0.7561462E-02  0.1296350E+00
         -1   -1    0    0    0  501 -0.00000000000E+00  0.00000000000E+00  0.53402638132E+02  0.53402638132E+02  0.00000000000E+00 0.  1.
          1   -1    0    0  501    0  0.00000000000E+00 -0.00000000000E+00 -0.33868565525E+03  0.33868565525E+03  0.00000000000E+00 0. -1.
         25    2    1    2    0    0  0.30265809083E+02  0.66576949669E+02 -0.11496993078E+03  0.18493737280E+03  0.12504094308E+03 0.  0.
          5    1    3    3  502    0  0.80850641813E+01  0.33487806260E+00  0.26001861313E+02  0.27550854758E+02  0.41800000000E+01 0.  1.
         -5    1    3    3    0  502  0.22180744902E+02  0.66242071606E+02 -0.14097179209E+03  0.15738651804E+03  0.41800000000E+01 0.  1.
        -11    1    1    2    0    0 -0.56378365318E+02 -0.39970315011E+02 -0.62884282106E+02  0.93437567894E+02  0.00000000000E+00 0.  1.
         11    1    1    2    0    0  0.26112556234E+02 -0.26606634657E+02 -0.10742880424E+03  0.11371335269E+03  0.00000000000E+00 0. -1.
</event>
<event>
 6    1  0.2412631E-010  0.1144902E+03  0.7561462E-02  0.1252474E+00
          2   -1    0    0  501    0  0.00000000000E+00  0.00000000000E+00  0.27912742238E+03  0.27912742238E+03  0.00000000000E+00 0. -1.
         -2   -1    0    0    0  501 -0.00000000000E+00 -0.00000000000E+00 -0.52002208641E+02  0.52002208641E+02  0.00000000000E+00 0.  1.
          5    1    1    2  502    0  0.49820874664E+02  0.43171132591E+02  0.10773104924E+03  0.12636976542E+03  0.41800000000E+01 0.  1.
         -5    1    1    2    0  502 -0.63481177238E+02 -0.81676263537E+00  0.58566284697E+02  0.86475482467E+02  0.41800000000E+01 0.  1.
        -11    1    1    2    0    0 -0.37817083707E+02 -0.23252015418E+02  0.39359408131E+02  0.59329175366E+02  0.00000000000E+00 0. -1.
         11    1    1    2    0    0  0.51477386281E+02 -0.19102354538E+02  0.21468471668E+02  0.58955207768E+02  0.00000000000E+00 0.  1.
</event>
<event>
 7    1  0.2412631E-010  0.9309304E+02  0.7561462E-02  0.1295530E+00
         -2   -1    0    0    0  501 -0.00000000000E+00  0.00000000000E+00  0.12221405741E+02  0.12221405741E+02  0.00000000000E+00 0.  1.
          2   -1    0    0  501    0  0.00000000000E+00 -0.00000000000E+00 -0.11611060781E+04  0.11611060781E+04  0.00000000000E+00 0. -1.
         25    2    1    2    0    0  0.16600579024E+02 -0.45567942454E+02 -0.70646574850E+03  0.71908450434E+03  0.12504660722E+03 0.  0.
          5    1    3    3  502    0 -0.86723016460E+01  0.17408698006E+02 -0.16692777177E+02  0.25969073761E+02  0.41800000000E+01 0. -1.
         -5    1    3    3    0  502  0.25272880670E+02 -0.62976640460E+02 -0.68977297132E+03  0.69311543058E+03  0.41800000000E+01 0. -1.
        -11    1    1    2    0    0 -0.28568170074E+02  0.67513510330E+02 -0.37996653194E+03  0.38697387485E+03  0.00000000000E+00 0. -1.
         11    1    1    2    0    0  0.11967591050E+02 -0.21945567876E+02 -0.62452391950E+02  0.67269104685E+02  0.00000000000E+00 0.  1.
</event>
<event>
 7    1  0.2412631E-010  0.1107951E+03  0.7561462E-02  0.1259105E+00
          4   -1    0    0  501    0  0.00000000000E+00  0.00000000000E+00  0.21043125460E+03  0.21043125460E+03  0.00000000000E+00 0. -1.
         -4   -1    0    0    0  501 -0.00000000000E+00 -0.00000000000E+00 -0.10355983675E+03  0.10355983675E+03  0.00000000000E+00 0.  1.
         25    2    1    2    0    0  0.95955861355E+02 -0.14672565258E+02  0.27189326539E+02  0.16062887793E+03  0.12505824822E+03 0.  0.
          5    1    3    3  502    0  0.88676205195E+02 -0.29972177074E+02  0.68312330151E+02  0.11595623147E+03  0.41800000000E+01 0. -1.
         -5    1    3    3    0  502  0.72796561603E+01  0.15299611816E+02 -0.41123003611E+02  0.44672646458E+02  0.41800000000E+01 0. -1.
        -11    1    1    2    0    0 -0.64855142726E+02  0.34596569858E+02  0.88841645763E+02  0.11530806653E+03  0.00000000000E+00 0. -1.
         11    1    1    2    0    0 -0.31100718629E+02 -0.19924004600E+02 -0.91595544447E+01  0.38054146898E+02  0.00000000000E+00 0.  1.
</event>
<event>
 6    1  0.2412631E-010  0.3137202E+03  0.7561462E-02  0.1078576E+00
         -2   -1    0    0    0  501 -0.00000000000E+00  0.00000000000E+00  0.90222253309E+02  0.90222253309E+02  0.00000000000E+00 0.  1.
          2   -1    0    0  501    0  0.00000000000E+00 -0.00000000000E+00 -0.14731134782E+04  0.14731134782E+04  0.00000000000E+00 0. -1.
          5    1    1    2  502    0 -0.61759836502E+02 -0.22971469704E+02 -0.24964231170E+02  0.70587896010E+02  0.41800000000E+01 0. -1.
         -5    1    1    2    0  502 -0.11747623623E+03 -0.21895261521E+03 -0.30309549167E+03  0.39195058777E+03  0.41800000000E+01 0. -1.
        -11    1    1    2    0    0  0.90416479472E+02  0.18899013636E+03 -0.76062814275E+03  0.78895347325E+03  0.00000000000E+00 0.  1.
         11    1    1    2    0    0  0.88819593265E+02  0.52933948553E+02 -0.29420335932E+03  0.31184377450E+03  0.00000000000E+00 0. -1.
</event>
<event>
 7    1  0.2412631E-010  0.2883976E+03  0.7561462E-02  0.1091189E+00
          2   -1    0    0  501    0  0.00000000000E+00  0.00000000000E+00  0.21560823976E+04  0.21560823976E+04  0.00000000000E+00 0. -1.
         -2   -1    0    0    0  501 -0.00000000000E+00 -0.00000000000E+00 -0.48823781232E+02  0.48823781232E+02  0.00000000000E+00 0.  1.
         25    2    1    2    0    0  0.16350653371E+03  0.22406149625E+03  0.15048745234E+04  0.15353319236E+04  0.12513530206E+03 0.  0.
          5    1    3    3  502    0  0.14818253070E+03  0.11823522196E+03  0.11163616014E+04  0.11323507971E+04  0.41800000000E+01 0.  1.
         -5    1    3    3    0  502  0.15324003009E+02  0.10582627429E+03  0.38851292196E+03  0.40298112652E+03  0.41800000000E+01 0.  1.
        -11    1    1    2    0    0 -0.14112868762E+03 -0.16566916045E+03  0.37328457414E+03  0.43209368253E+03  0.00000000000E+00 0.  1.
         11    1    1    2    0    0 -0.22377846092E+02 -0.58392335806E+02  0.22909951888E+03  0.23748057273E+03  0.00000000000E+00 0. -1.
</event>
<event>
 7    1  0.2412631E-010  0.1417787E+03  0.7561462E-02  0.1210955E+00
         -1   -1    0    0    0  501 -0.00000000000E+00  0.00000000000E+00  0.34965102634E+02  0.34965102634E+02  0.00000000000E+00 0.  1.
          1   -1    0    0  501    0  0.00000000000E+00 -0.00000000000E+00 -0.80794509367E+03  0.80794509367E+03  0.00000000000E+00 0. -1.
         25    2    1    2    0    0  0.65572590714E+02 -0.10751721643E+03 -0.44871505182E+03  0.48255326394E+03  0.12511090414E+03 0.  0.
          5    1    3    3  502    0  0.38392021659E+02 -0.55811543402E+02 -0.63605294017E+02  0.93016028355E+02  0.41800000000E+01 0.  1.
         -5    1    3    3    0  502  0.27180569055E+02 -0.51705673027E+02 -0.38510975780E+03  0.38953723559E+03  0.41800000000E+01 0.  1.
        -11    1    1    2    0    0  0.23143035292E+02  0.37671312750E+02 -0.96098095874E+02  0.10578077291E+03  0.00000000000E+00 0.  1.
         11    1    1    2    0    0 -0.88715626006E+02  0.69845903679E+02 -0.22816684334E+03  0.25457615945E+03  0.00000000000E+00 0. -1.
</event>
<event>
 7    1  0.3061899E-010  0.1974730E+03  0.7561462E-02  0.1151889E+00
          2   -1    0    0  501    0  0.00000000000E+00  0.00000000000E+00  0.16078646365E+04  0.16078646365E+04  0.00000000000E+00 0. -1.
         -2   -1    0    0    0  501 -0.00000000000E+00 -0.00000000000E+00 -0.24432622014E+02  0.24432622014E+02  0.00000000000E+00 0.  1.
         25    2    1    2    0    0  0.70085832266E+02  0.14918921479E+03  0.76887101836E+03  0.79622298749E+03  0.12505581648E+03 0.  0.
          5    1    3    3  502    0 -0.30011230633E+02  0.78090197704E+02  0.29123337394E+03  0.30303977204E+03  0.41800000000E+01 0. -1.
         -5    1    3    3    0  502  0.10009706290E+03  0.71099017085E+02  0.47763764442E+03  0.49318321545E+03  0.41800000000E+01 0. -1.
        -11    1    1    2    0    0  0.11288939982E+02 -0.82090262913E+02  0.37253886549E+03  0.38164310256E+03  0.00000000000E+00 0. -1.
         11    1    1    2    0    0 -0.81374772248E+02 -0.67098951876E+02  0.44202213060E+03  0.45443116843E+03  0.00000000000E+00 0.  1.
</event>
<event>
 6    1  0.2412631E-010  0.1766310E+03  0.7561462E-02  0.1171104E+00
          3   -1    0    0  501    0  0.00000000000E+00  0.00000000000E+00  0.14553553729E+03  0.14553553729E+03  0.00000000000E+00 0. -1.
         -3   -1    0    0    0  501 -0.00000000000E+00 -0.00000000000E+00 -0.23300072038E+03  0.23300072038E+03  0.00000000000E+00 0.  1.
          5    1    1    2  502    0 -0.20204606839E+02 -0.92890426037E+00 -0.18034007902E+02  0.27418731584E+02  0.41800000000E+01 0. -1.
         -5    1    1    2    0  502  0.16537379659E+03  0.22883704048E+02 -0.72949662287E+01  0.16716113616E+03  0.41800000000E+01 0. -1.
        -11    1    1    2    0    0 -0.71852250083E+01 -0.26591337318E+02 -0.32764759540E+02  0.42804861248E+02  0.00000000000E+00 0.  1.
         11    1    1    2    0    0 -0.13798396474E+03  0.46365375302E+01 -0.29371449419E+02  0.14115152868E+03  0.00000000000E+00 0. -1.
</event>
<event>
 6    1  0.2412631E-010  0.1204821E+03  0.7561462E-02  0.1242304E+00
          2   -1    0    0  501    0  0.00000000000E+00  0.00000000000E+00  0.22311240507E+03  0.22311240507E+03  0.00000000000E+00 0. -1.
         -2   -1    0    0    0  501 -0.00000000000E+00 -0.00000000000E+00 -0.67036463126E+02  0.67036463126E+02  0.00000000000E+00 0.  1.
          5    1    1    2  502    0  0.40858823601E+02 -0.45943613674E+02  0.27457090044E+02  0.67465719422E+02  0.41800000000E+01 0. -1.
         -5    1    1    2    0  502 -0.73917887850E+02  0.53914853613E+01  0.36244296776E+02  0.82607770261E+02  0.41800000000E+01 0. -1.
        -11    1    1    2    0    0 -0.31890463124E+02  0.10829093134E+02  0.33620000600E+02  0.47587554430E+02  0.00000000000E+00 0.  1.
         11    1    1    2    0    0  0.64949527373E+02  0.29723035179E+02  0.58754554524E+02  0.92487824083E+02  0.00000000000E+00 0. -1.
</event>
<event>
 7    1  0.2412631E-010  0.2254278E+03  0.7561462E-02  0.1129900E+00
          2   -1    0    0  501    0  0.00000000000E+00  0.00000000000E+00  0.22206628724E+04  0.22206628724E+04  0.00000000000E+00 0.  1.
         -2   -1    0    0    0  501 -0.00000000000E+00 -0.00000000000E+00 -0.24192407317E+02  0.24192407317E+02  0.00000000000E+00 0. -1.
         25    2    1    2    0    0 -0.19271239744E+03 -0.67279462339E+02  0.11937372200E+04  0.12175037371E+04  0.12506880284E+03 0.  0.
          5    1    3    3  502    0 -0.55832617358E+02 -0.78310975307E+02  0.36632824376E+03  0.37876608162E+03  0.41800000000E+01 0.  1.
         -5    1    3    3    0  502 -0.13687978008E+03  0.11031512968E+02  0.82740897620E+03  0.83873765551E+03  0.41800000000E+01 0.  1.
        -11    1    1    2    0    0  0.12326261938E+03  0.41272040641E+01  0.68610704772E+03  0.69710371400E+03  0.00000000000E+00 0.  1.
         11    1    1    2    0    0  0.69449778059E+02  0.63152258275E+02  0.31662619744E+03  0.33024782861E+03  0.00000000000E+00 0. -1.
</event>
<event>
 7    1  0.2412631E-010  0.1718226E+03  0.7561462E-02  0.1175960E+00
         -2   -1    0    0    0  501 -0.00000000000E+00  0.00000000000E+00  0.48349774004E+03  0.48349774004E+03  0.00000000000E+00 0.  1.
          2   -1    0    0  501    0  0.00000000000E+00 -0.00000000000E+00 -0.77759462855E+02  0.77759462855E+02  0.00000000000E+00 0. -1.
         25    2    1    2    0    0 -0.10156078839E+03 -0.12379782375E+03  0.20791604619E+03  0.29072841451E+03  0.12511368364E+03 0.  0.
          5    1    3    3  502    0 -0.29286618233E+02 -0.16938202370E+02 -0.11657538864E+02  0.36027480059E+02  0.41800000000E+01 0. -1.
         -5    1    3    3    0  502 -0.72274170159E+02 -0.10685962138E+03  0.21957358506E+03  0.25470093445E+03  0.41800000000E+01 0. -1.
        -11    1    1    2    0    0  0.49509925700E+01 -0.12484536219E+02  0.27609425092E+01  0.13711264550E+02  0.00000000000E+00 0. -1.
         11    1    1    2    0    0  0.96609795822E+02  0.13628235996E+03  0.19506128848E+03  0.25681752384E+03  0.00000000000E+00 0.  1.
</event>
<event>
 6    1  0.2412631E-010  0.1120535E+03  0.7561462E-02  0.1256814E+00
          2   -1    0    0  501    0  0.00000000000E+00  0.00000000000E+00  0.14314085387E+03  0.14314085387E+03  0.00000000000E+00 0. -1.
         -2   -1    0    0    0  501 -0.00000000000E+00 -0.00000000000E+00 -0.16221643473E+03  0.16221643473E+03  0.00000000000E+00 0.  1.
          5    1    1    2  502    0 -0.23361068895E+02  0.99533163349E+02  0.54115487328E+02  0.11575209940E+03  0.41800000000E+01 0. -1.
         -5    1    1    2    0  502  0.12048589861E+02  0.37295266292E+01 -0.45368227970E+02  0.47273950497E+02  0.41800000000E+01 0. -1.
        -11    1    1    2    0    0  0.17989415765E+02 -0.30365953038E+02  0.32116836565E+02  0.47720031166E+02  0.00000000000E+00 0. -1.
         11    1    1    2    0    0 -0.66769367310E+01 -0.72896736939E+02 -0.59939676779E+02  0.94611207544E+02  0.00000000000E+00 0.  1.
</event>
<event>
 6    1  0.2412631E-010  0.1357794E+03  0.7561462E-02  0.1219124E+00
         -1   -1    0    0    0  501 -0.00000000000E+00  0.00000000000E+00  0.17100020526E+02  0.17100020526E+02  0.00000000000E+00 0.  1.
          1   -1    0    0  501    0  0.00000000000E+00 -0.00000000000E+00 -0.11885988570E+04  0.11885988570E+04  0.00000000000E+00 0. -1.
          5    1    1    2  502    0 -0.62955850505E+02 -0.17502930641E+02 -0.40595856068E+03  0.41120507910E+03  0.41800000000E+01 0. -1.
         -5    1    1    2    0  502 -0.26473965770E+00  0.83233953813E+02 -0.29199604615E+03  0.30365626047E+03  0.41800000000E+01 0. -1.
        -11    1    1    2    0    0 -0.67343303346E+01 -0.50758236705E+02 -0.12599345685E+03  0.13600037120E+03  0.00000000000E+00 0.  1.
         11    1    1    2    0    0  0.69954920497E+02 -0.14972786467E+02 -0.34755077282E+03  0.35483716677E+03  0.00000000000E+00 0. -1.
</event>
<event>
 7    1  0.2412631E-010  0.8367309E+02  0.7561462E-02  0.1318939E+00
          2   -1    0    0  501    0  0.00000000000E+00  0.00000000000E+00  0.10614658505E+04  0.10614658505E+04  0.00000000000E+00 0. -1.
         -2   -1    0    0    0  501 -0.00000000000E+00 -0.00000000000E+00 -0.13087584056E+02  0.13087584056E+02  0.00000000000E+00 0.  1.
         25    2    1    2    0    0  0.72904392080E+01  0.38830726543E+02  0.59192265674E+03  0.60629062610E+03  0.12511960641E+03 0.  0.
          5    1    3    3  502    0 -0.20719065888E+02  0.14707911405E+02  0.54853121681E+03  0.54913529349E+03  0.41800000000E+01 0.  1.
         -5    1    3    3    0  502  0.28009505096E+02  0.24122815138E+02  0.43391439932E+02  0.57155332606E+02  0.41800000000E+01 0.  1.
        -11    1    1    2    0    0 -0.65325439282E+01 -0.71459441488E+02  0.32289433640E+03  0.33077164084E+03  0.00000000000E+00 0.  1.
         11    1    1    2    0    0 -0.75789527984E+00  0.32628714945E+02  0.13356127327E+03  0.13749116758E+03  0.00000000000E+00 0. -1.
</event>
<event>
 7    1  0.2412631E-010  0.8880843E+02  0.7561462E-02  0.1305763E+00
          1   -1    0    0  501    0  0.00000000000E+00  0.00000000000E+00  0.51349459521E+03  0.51349459521E+03  0.00000000000E+00 0. -1.
         -1   -1    0    0    0  501 -0.00000000000E+00 -0.00000000000E+00 -0.55760261520E+02  0.55760261520E+02  0.00000000000E+00 0.  1.
         25    2    1    2    0    0 -0.57840319756E+02  0.87619017865E+01  0.43595205438E+03  0.45729251468E+03  0.12505989267E+03 0.  0.
          5    1    3    3  502    0 -0.59325928091E+02  0.14443314621E+02  0.77424256213E+02  0.98692263786E+02  0.41800000000E+01 0.  1.
         -5    1    3    3    0  502  0.14856083354E+01 -0.56814128348E+01  0.35852779817E+03  0.35860025090E+03  0.41800000000E+01 0.  1.
        -11    1    1    2    0    0  0.83933296206E+01 -0.46344595589E+02  0.35453827443E+01  0.47231761149E+02  0.00000000000E+00 0. -1.
         11    1    1    2    0    0  0.49446990135E+02  0.37582693802E+02  0.18236896562E+02  0.64730580895E+02  0.00000000000E+00 0.  1.
</event>
<event>
 7    1  0.2412631E-010  0.1487855E+03  0.7561462E-02  0.1201973E+00
          2   -1    0    0  501    0  0.00000000000E+00  0.00000000000E+00  0.16346997409E+03  0.16346997409E+03  0.00000000000E+00 0. -1.
         -2   -1    0    0    0  501 -0.00000000000E+00 -0.00000000000E+00 -0.15885639890E+03  0.15885639890E+03  0.00000000000E+00 0.  1.
         25    2    1    2    0    0  0.54575464642E+02 -0.10481806205E+03 -0.74420261074E+01  0.17226069117E+03  0.12511216766E+03 0.  0.
          5    1    3    3  502    0  0.88111174512E+02 -0.69992647672E+02  0.23060856879E+02  0.11494270452E+03  0.41800000000E+01 0. -1.
         -5    1    3    3    0  502 -0.33535709870E+02 -0.34825414380E+02 -0.30502882986E+02  0.57317986651E+02  0.41800000000E+01 0. -1.
        -11    1    1    2    0    0 -0.65937063945E+02  0.10618763523E+03 -0.98182989453E+01  0.12537906234E+03  0.00000000000E+00 0.  1.
         11    1    1    2    0    0  0.11361599303E+02 -0.13695731812E+01  0.21873900242E+02  0.24686619478E+02  0.00000000000E+00 0. -1.
</event>
<event>
 7    1  0.2412631E-010  0.1113478E+03  0.7561462E-02  0.1258094E+00
         -1   -1    0    0    0  501 -0.00000000000E+00  0.00000000000E+00  0.57201613842E+02  0.57201613842E+02  0.00000000000E+00 0.  1.
          1   -1    0    0  501    0  0.00000000000E+00 -0.00000000000E+00 -0.30156751891E+03  0.30156751891E+03  0.00000000000E+00 0. -1.
         25    2    1    2    0    0 -0.68729301658E+02  0.53531258805E+01 -0.17636796668E+03  0.22693348564E+03  0.12506308157E+03 0.  0.
          5    1    3    3  502    0 -0.42489127072E+02  0.62446273793E+02 -0.68619488787E+02  0.10213211871E+03  0.41800000000E+01 0.  1.
         -5    1    3    3    0  502 -0.26240174585E+02 -0.57093147913E+02 -0.10774847789E+03  0.12480136694E+03  0.41800000000E+01 0.  1.
        -11    1    1    2    0    0 -0.36568242979E+00  0.12665116615E+02  0.16758716600E+02  0.21009366592E+02  0.00000000000E+00 0.  1.
         11    1    1    2    0    0  0.69094984088E+02 -0.18018242496E+02 -0.84756654984E+02  0.11082628051E+03  0.00000000000E+00 0. -1.
</event>
<event>
 7    1  0.2412631E-010  0.1999740E+03  0.7561462E-02  0.1149761E+00
         -2   -1    0    0    0  501 -0.00000000000E+00  0.00000000000E+00  0.94310228103E+02  0.94310228103E+02  0.00000000000E+00 0.  1.
          2   -1    0    0  501    0  0.00000000000E+00 -0.00000000000E+00 -0.57501350472E+03  0.57501350472E+03  0.00000000000E+00 0. -1.
         25    2    1    2    0    0  0.18089484601E+03 -0.57311727238E+02 -0.13608353370E+03  0.26491776456E+03  0.12512039979E+03 0.  0.
          5    1    3    3  502    0  0.14918879982E+03 -0.16017440537E+02 -0.39657304415E+02  0.15525472807E+03  0.41800000000E+01 0. -1.
         -5    1    3    3    0  502  0.31706046189E+02 -0.41294286701E+02 -0.96426229281E+02  0.10966303649E+03  0.41800000000E+01 0. -1.
        -11    1    1    2    0    0 -0.72014226174E+02  0.51583092566E+02 -0.84768615626E+02  0.12260743210E+03  0.00000000000E+00 0.  1.
         11    1    1    2    0    0 -0.10888061984E+03  0.57286346717E+01 -0.25985112730E+03  0.28179853617E+03  0.00000000000E+00 0. -1.
</event>
<event>
 7    1  0.2412631E-010  0.1155116E+03  0.7561462E-02  0.1250691E+00
         -3   -1    0    0    0  501 -0.00000000000E+00  0.00000000000E+00  0.17472782766E+02  0.17472782766E+02  0.00000000000E+00 0.  1.
          3   -1    0    0  501    0  0.00000000000E+00 -0.00000000000E+00 -0.12118272195E+04  0.12118272195E+04  0.00000000000E+00 0. -1.
         25    2    1    2    0    0  0.38225629951E+02 -0.16460962995E+02 -0.10085486115E+04  0.10171309306E+04  0.12511141441E+03 0.  0.
          5    1    3    3  502    0  0.53806704880E+02  0.42493233822E+02 -0.44378675974E+03  0.44907126041E+03  0.41800000000E+01 0. -1.
         -5    1    3    3    0  502 -0.15581074930E+02 -0.58954196817E+02 -0.56476185181E+03  0.56805967017E+03  0.41800000000E+01 0. -1.
        -11    1    1    2    0    0 -0.61389343442E+02 -0.13978728973E+02 -0.99216233731E+02  0.11750709505E+03  0.00000000000E+00 0.  1.
         11    1    1    2    0    0  0.23163713492E+02  0.30439691968E+02 -0.86589591437E+02  0.94661976606E+02  0.00000000000E+00 0. -1.
</event>
<event>
 7    1  0.2412631E-010  0.1021991E+03  0.7561462E-02  0.1275738E+00
         -1   -1    0    0    0  501 -0.00000000000E+00  0.00000000000E+00  0.20256947181E+02  0.20256947181E+02  0.00000000000E+00 0.  1.
          1   -1    0    0  501    0  0.00000000000E+00 -0.00000000000E+00 -0.10488389918E+04  0.10488389918E+04  0.00000000000E+00 0. -1.
         25    2    1    2    0    0 -0.68290901803E+02  0.19779175089E+02 -0.78327570205E+03  0.79637499346E+03  0.12504975709E+03 0.  0.
          5    1    3    3  502    0 -0.10474636480E+02  0.58435988098E+02 -0.19210607388E+03  0.20111364632E+03  0.41800000000E+01 0.  1.
         -5    1    3    3    0  502 -0.57816265323E+02 -0.38656813010E+02 -0.59116962816E+03  0.59526134713E+03  0.41800000000E+01 0.  1.
        -11    1    1    2    0    0  0.61310290273E+02 -0.84327835583E+01 -0.25079113757E+03  0.25831426251E+03  0.00000000000E+00 0. -1.
         11    1    1    2    0    0  0.69806115300E+01 -0.11346391530E+02  0.54847950296E+01  0.14406682984E+02  0.00000000000E+00 0.  1.
</event>
<event>
 7    1  0.2412631E-010  0.9261092E+02  0.7561462E-02  0.1296649E+00
         -1   -1    0    0    0  501 -0.00000000000E+00  0.00000000000E+00  0.26976944985E+02  0.26976944985E+02  0.00000000000E+00 0.  1.
          1   -1    0    0  501    0  0.00000000000E+00 -0.00000000000E+00 -0.69665243211E+03  0.69665243211E+03  0.00000000000E+00 0. -1.
         25    2    1    2    0    0  0.12058485847E+02 -0.58332375919E+02 -0.53703913883E+03  0.55462886981E+03  0.12511623967E+03 0.  0.
          5    1    3    3  502    0  0.41166664471E+02 -0.20970782231E+02 -0.63132974675E+02  0.78343556610E+02  0.41800000000E+01 0.  1.
         -5    1    3    3    0  502 -0.29108178624E+02 -0.37361593687E+02 -0.47390616415E+03  0.47628531320E+03  0.41800000000E+01 0.  1.
        -11    1    1    2    0    0  0.15205725587E+01 -0.15824146633E+02  0.60612017291E+00  0.15908586965E+02  0.00000000000E+00 0.  1.
         11    1    1    2    0    0 -0.13579058405E+02  0.74156522551E+02 -0.13324246847E+03  0.15309192033E+03  0.00000000000E+00 0. -1.
</event>
<event>
 6    1  0.2412631E-010  0.9341509E+02  0.7561462E-02  0.1294786E+00
          1   -1    0    0  501    0  0.00000000000E+00  0.00000000000E+00  0.84730418327E+03  0.84730418327E+03  0.00000000000E+00 0. -1.
         -1   -1    0    0    0  501 -0.00000000000E+00 -0.00000000000E+00 -0.33170251577E+02  0.33170251577E+02  0.00000000000E+00 0.  1.
          5    1    1    2  502    0  0.47635476110E+02  0.75079219619E+01  0.48395152218E+03  0.48636617450E+03  0.41800000000E+01 0.  1.
         -5    1    1    2    0  502 -0.65419579491E+02  0.12357597091E+02  0.25614051159E+03  0.26468446434E+03  0.41800000000E+01 0.  1.
        -11    1    1    2    0    0  0.13777468103E+01 -0.43184287355E+02  0.87733018731E+02  0.97795007215E+02  0.00000000000E+00 0. -1.
         11    1    1    2    0    0  0.16406356570E+02  0.23318768302E+02 -0.13691120811E+02  0.31628788786E+02  0.00000000000E+00 0.  1.
</event>
<event>
 7    1  0.2412631E-010  0.1000121E+03  0.7561462E-02  0.1280271E+00
         -2   -1    0    0    0  501 -0.00000000000E+00  0.00000000000E+00  0.14044946376E+02  0.14044946376E+02  0.00000000000E+00 0.  1.
          2   -1    0    0  501    0  0.00000000000E+00 -0.00000000000E+00 -0.14254575041E+04  0.14254575041E+04  0.00000000000E+00 0. -1.
         25    2    1    2    0    0 -0.32041527096E+02  0.68350282748E+02 -0.10266251368E+04  0.10369663175E+04  0.12506618920E+03 0.  0.
          5    1    3    3  502    0 -0.15939461451E+02  0.41003584092E+01 -0.13563306328E+02  0.21732810425E+02  0.41800000000E+01 0.  1.
         -5    1    3    3    0  502 -0.16102065644E+02  0.64249924339E+02 -0.10130618304E+04  0.10152335071E+04  0.41800000000E+01 0.  1.
        -11    1    1    2    0    0  0.35415559045E+02  0.11129528962E+02 -0.94042724861E+02  0.10110470977E+03  0.00000000000E+00 0.  1.
         11    1    1    2    0    0 -0.33740319495E+01 -0.79479811710E+02 -0.29074469609E+03  0.30143142316E+03  0.00000000000E+00 0. -1.
</event>
<event>
 7    1  0.2412631E-010  0.1620318E+03  0.7561462E-02  0.1186422E+00
         -2   -1    0    0    0  501 -0.00000000000E+00  0.00000000000E+00  0.55963485851E+02  0.55963485851E+02  0.00000000000E+00 0.  1.
          2   -1    0    0  501    0  0.00000000000E+00 -0.00000000000E+00 -0.50508250828E+03  0.50508250828E+03  0.00000000000E+00 0. -1.
         25    2    1    2    0    0  0.84048723059E+02 -0.96234273933E+02 -0.20166214722E+03  0.26950920870E+03  0.12506945519E+03 0.  0.
          5    1    3    3  502    0 -0.98105940067E+01  0.23400500378E+02 -0.20056814394E+02  0.32612564700E+02  0.41800000000E+01 0. -1.
         -5    1    3    3    0  502  0.93859317066E+02 -0.11963477431E+03 -0.18160533283E+03  0.23689664400E+03  0.41800000000E+01 0. -1.
        -11    1    1    2    0    0 -0.84529929225E+02  0.46464128781E+02 -0.20320659478E+03  0.22493809006E+03  0.00000000000E+00 0.  1.
         11    1    1    2    0    0  0.48120616621E+00  0.49770145153E+02 -0.44250280427E+02  0.66598695376E+02  0.00000000000E+00 0. -1.
</event>
<event>
 6    1  0.2412631E-010  0.9074934E+02  0.7561462E-02  0.1301047E+00
          1   -1    0    0  501    0  0.00000000000E+00  0.00000000000E+00  0.13980779834E+03  0.13980779834E+03  0.00000000000E+00 0. -1.
         -1   -1    0    0    0  501 -0.00000000000E+00 -0.00000000000E+00 -0.11515400549E+03  0.11515400549E+03  0.00000000000E+00 0.  1.
          5    1    1    2  502    0  0.73238937002E+01  0.93087563531E-01  0.60132263345E+02  0.60720750813E+02  0.41800000000E+01 0.  1.
         -5    1    1    2    0  502 -0.18200549885E+01  0.66869692765E+02 -0.46940888142E+02  0.81827793507E+02  0.41800000000E+01 0.  1.
        -11    1    1    2    0    0  0.37669232905E+02 -0.40930523352E+02  0.23811838151E+02  0.60508532337E+02  0.00000000000E+00 0. -1.
         11    1    1    2    0    0 -0.43173071616E+02 -0.26032256976E+02 -0.12349420500E+02  0.51904727171E+02  0.00000000000E+00 0.  1.
</event>
<event>
 7    1  0.2412631E-010  0.3392845E+02  0.7561462E-02  0.1558327E+00
         -1   -1    0    0    0  501 -0.00000000000E+00  0.00000000000E+00  0.15361036105E+03  0.15361036105E+03  0.00000000000E+00 0.  1.
          1   -1    0    0  501    0  0.00000000000E+00 -0.00000000000E+00 -0.11195991457E+03  0.11195991457E+03  0.00000000000E+00 0. -1.
         25    2    1    2    0    0 -0.13685363871E+02 -0.53200270325E+01  0.10235726142E+03  0.16231395741E+03  0.12511282881E+03 0.  0.
          5    1    3    3  502    0  0.66739162743E+01  0.76519487341E+01  0.12705330927E+03  0.12752689628E+03  0.41800000000E+01 0. -1.
         -5    1    3    3    0  502 -0.20359280146E+02 -0.12971975767E+02 -0.24696047844E+02  0.34787061136E+02  0.41800000000E+01 0. -1.
        -11    1    1    2    0    0 -0.16703270388E+00 -0.10982482428E+02  0.18333561788E+02  0.21371998223E+02  0.00000000000E+00 0.  1.
         11    1    1    2    0    0  0.13852396575E+02  0.16302509460E+02 -0.79040376733E+02  0.81884319986E+02  0.00000000000E+00 0. -1.
</event>
<event>
 6    1  0.2412631E-010  0.9755431E+02  0.7561462E-02  0.1285525E+00
         -3   -1    0    0    0  501 -0.00000000000E+00  0.00000000000E+00  0.61722265950E+03  0.61722265950E+03  0.00000000000E+00 0.  1.
          3   -1    0    0  501    0  0.00000000000E+00 -0.00000000000E+00 -0.28241299571E+02  0.28241299571E+02  0.00000000000E+00 0. -1.
          5    1    1    2  502    0  0.14462473425E+02  0.54450621272E+02  0.55689941641E+02  0.79327645210E+02  0.41800000000E+01 0. -1.
         -5    1    1    2    0  502 -0.57212863742E+02  0.81986877236E+01  0.29313134460E+03  0.29880426344E+03  0.41800000000E+01 0. -1.
        -11    1    1    2    0    0  0.39495261202E+02 -0.34834505418E+02  0.23237194906E+03  0.23826464517E+03  0.00000000000E+00 0.  1.
         11    1    1    2    0    0  0.32551291145E+01 -0.27814803577E+02  0.77881246263E+01  0.29067405264E+02  0.00000000000E+00 0. -1.
</event>
<event>
 6    1  0.2412631E-010  0.2130398E+03  0.7561462E-02  0.1139181E+00
          4   -1    0    0  501    0  0.00000000000E+00  0.00000000000E+00  0.49634724744E+02  0.49634724744E+02  0.00000000000E+00 0.  1.
         -4   -1    0    0    0  501 -0.00000000000E+00 -0.00000000000E+00 -0.10140092133E+04  0.10140092133E+04  0.00000000000E+00 0. -1.
          5    1    1    2  502    0  0.16312754495E+02  0.20181252680E+03 -0.35546380487E+03  0.40910437655E+03  0.41800000000E+01 0. -1.
         -5    1    1    2    0  502 -0.23248198069E+02 -0.78417935739E+01 -0.81697466895E+02  0.85404455018E+02  0.41800000000E+01 0. -1.
        -11    1    1    2    0    0  0.18953523266E+02 -0.40272082639E+02 -0.46776041116E+02  0.64568372340E+02  0.00000000000E+00 0.  1.
         11    1    1    2    0    0 -0.12018079692E+02 -0.15369865059E+03 -0.48043717567E+03  0.50456673414E+03  0.00000000000E+00 0. -1.
</event>
<event>
 7    1  0.2412631E-010  0.1317821E+03  0.7561462E-02  0.1224835E+00
         -1   -1    0    0    0  501 -0.00000000000E+00  0.00000000000E+00  0.36291845850E+02  0.36291845850E+02  0.00000000000E+00 0.  1.
          1   -1    0    0  501    0  0.00000000000E+00 -0.00000000000E+00 -0.75820364172E+03  0.75820364172E+03  0.00000000000E+00 0. -1.
         25    2    1    2    0    0 -0.11080298786E+03  0.38214319728E+02 -0.47073939429E+03  0.50099207341E+03  0.12513929811E+03 0.  0.
          5    1    3    3  502    0 -0.98136365843E+02  0.40870389817E+02 -0.47497755860E+03  0.48674663701E+03  0.41800000000E+01 0. -1.
         -5    1    3    3    0  502 -0.12666622014E+02 -0.26560700892E+01  0.42381643095E+01  0.14245436402E+02  0.41800000000E+01 0. -1.
        -11    1    1    2    0    0  0.72095551896E+02 -0.64539929861E+02 -0.11954053895E+03  0.15379568135E+03  0.00000000000E+00 0.  1.
         11    1    1    2    0    0  0.38707435961E+02  0.26325610133E+02 -0.13163186263E+03  0.13970773281E+03  0.00000000000E+00 0. -1.
</event>
<event>
 7    1  0.2412631E-010  0.9421719E+02  0.7561462E-02  0.1292949E+00
          3   -1    0    0  501    0  0.00000000000E+00  0.00000000000E+00  0.20629470181E+03  0.20629470181E+03  0.00000000000E+00 0. -1.
         -3   -1    0    0    0  501 -0.00000000000E+00 -0.00000000000E+00 -0.63864134282E+02  0.63864134282E+02  0.00000000000E+00 0.  1.
         25    2    1    2    0    0 -0.58315382784E+01 -0.95419246332E+01  0.40580186689E+02  0.13193446960E+03  0.12503958394E+03 0.  0.
          5    1    3    3  502    0  0.31287677611E+02 -0.37625576169E+02  0.63179839709E+02  0.80023542148E+02  0.41800000000E+01 0.  1.
         -5    1    3    3    0  502 -0.37119215890E+02  0.28083651535E+02 -0.22599653019E+02  0.51910927447E+02  0.41800000000E+01 0.  1.
        -11    1    1    2    0    0  0.48847804459E+02  0.18010544801E+01  0.63056520043E+02  0.79783936464E+02  0.00000000000E+00 0.  1.
         11    1    1    2    0    0 -0.43016266181E+02  0.77408701531E+01  0.38793860795E+02  0.58440430031E+02  0.00000000000E+00 0. -1.
</event>
<event>
 6    1  0.2412631E-010  0.2694163E+03  0.7561462E-02  0.1101614E+00
         -2   -1    0    0    0  501 -0.00000000000E+00  0.00000000000E+00  0.60961410207E+03  0.60961410207E+03  0.00000000000E+00 0.  1.
          2   -1    0    0  501    0  0.00000000000E+00 -0.00000000000E+00 -0.15277486768E+03  0.15277486768E+03  0.00000000000E+00 0. -1.
          5    1    1    2  502    0 -0.46469888787E+01 -0.26026219603E+03  0.39039944649E+03  0.46924109518E+03  0.41800000000E+01 0. -1.
         -5    1    1    2    0  502 -0.47938334167E+01  0.17585333412E+01 -0.72195238057E+01  0.97809612166E+01  0.41800000000E+01 0. -1.
        -11    1    1    2    0    0 -0.13413355780E+02  0.24496725512E+03  0.75642807004E+02  0.25673080931E+03  0.00000000000E+00 0.  1.
         11    1    1    2    0    0  0.22854178075E+02  0.13536407569E+02 -0.19834952970E+01  0.26636104050E+02  0.00000000000E+00 0. -1.
</event>
<event>
 7    1  0.2412631E-010  0.1130765E+03  0.7561462E-02  0.1254976E+00
          2   -1    0    0  501    0  0.00000000000E+00  0.00000000000E+00  0.57094290573E+03  0.57094290573E+03  0.00000000000E+00 0. -1.
         -2   -1    0    0    0  501 -0.00000000000E+00 -0.00000000000E+00 -0.31073725803E+02  0.31073725803E+02  0.00000000000E+00 0.  1.
         25    2    1    2    0    0 -0.23245015070E+02 -0.65518725214E+02  0.37153229682E+03  0.39812753992E+03  0.12504501740E+03 0.  0.
          5    1    3    3  502    0  0.26902817305E+02  0.24276550949E+02  0.14129973150E+03  0.14593217269E+03  0.41800000000E+01 0.  1.
         -5    1    3    3    0  502 -0.50147832375E+02 -0.89795276164E+02  0.23023256532E+03  0.25219536722E+03  0.41800000000E+01 0.  1.
        -11    1    1    2    0    0 -0.18012088591E+00  0.63201799839E+02  0.43195246417E+02  0.76552787405E+02  0.00000000000E+00 0.  1.
         11    1    1    2    0    0  0.23425135956E+02  0.23169253757E+01  0.12514163668E+03  0.12733630421E+03  0.00000000000E+00 0. -1.
</event>
<event>
 7    1  0.2412631E-010  0.1115431E+03  0.7561462E-02  0.1257739E+00
         -2   -1    0    0    0  501 -0.00000000000E+00  0.00000000000E+00  0.65443587697E+02  0.65443587697E+02  0.00000000000E+00 0.  1.
          2   -1    0    0  501    0  0.00000000000E+00 -0.00000000000E+00 -0.21017586730E+03  0.21017586730E+03  0.00000000000E+00 0. -1.
         25    2    1    2    0    0  0.88582836706E+01  0.23314922229E+02 -0.39570197531E+02  0.13349410289E+03  0.12503127683E+03 0.  0.
          5    1    3    3  502    0  0.59477344671E+02  0.42465111513E+02 -0.23645648353E+02  0.76924828963E+02  0.41800000000E+01 0. -1.
         -5    1    3    3    0  502 -0.50619061000E+02 -0.19150189284E+02 -0.15924549178E+02  0.56569273927E+02  0.41800000000E+01 0. -1.
        -11    1    1    2    0    0 -0.34820882034E+02  0.23544046959E+02 -0.46695565287E+02  0.62827476396E+02  0.00000000000E+00 0.  1.
         11    1    1    2    0    0  0.25962598363E+02 -0.46858969188E+02 -0.58466516785E+02  0.79297875710E+02  0.00000000000E+00 0. -1.
</event>
<event>
 6    1  0.2412631E-010  0.1502134E+03  0.7561462E-02  0.1200211E+00
         -2   -1    0    0    0  501 -0.00000000000E+00  0.00000000000E+00  0.20176827454E+02  0.20176827454E+02  0.00000000000E+00 0.  1.
          2   -1    0    0  501    0  0.00000000000E+00 -0.00000000000E+00 -0.13045423801E+04  0.13045423801E+04  0.00000000000E+00 0. -1.
          5    1    1    2  502    0  0.18438194672E+02 -0.68678132210E+01 -0.27277103377E+02  0.33891689982E+02  0.41800000000E+01 0. -1.
         -5    1    1    2    0  502 -0.13585527932E+03 -0.97084501597E+01 -0.75229206491E+03  0.76453367110E+03  0.41800000000E+01 0. -1.
        -11    1    1    2    0    0  0.74746524884E+02 -0.30302474572E+02 -0.34678992780E+03  0.35604569506E+03  0.00000000000E+00 0. -1.
         11    1    1    2    0    0  0.42670559764E+02  0.46878737952E+02 -0.15800645652E+03  0.17024815137E+03  0.00000000000E+00 0.  1.
</event>
<event>
 6    1  0.2412631E-010  0.1405967E+03  0.7561462E-02  0.1212528E+00
         -2   -1    0    0    0  501 -0.00000000000E+00  0.00000000000E+00  0.84869297245E+02  0.84869297245E+02  0.00000000000E+00 0.  1.
          2   -1    0    0  501    0  0.00000000000E+00 -0.00000000000E+00 -0.29436538824E+03  0.29436538824E+03  0.00000000000E+00 0. -1.
          5    1    1    2  502    0 -0.23442585828E+02 -0.64575899737E+02 -0.41909164922E+02  0.80581959281E+02  0.41800000000E+01 0.  1.
         -5    1    1    2    0  502  0.95018013155E+02 -0.19988294753E+02 -0.35012883014E+02  0.10330212548E+03  0.41800000000E+01 0.  1.
        -11    1    1    2    0    0 -0.72746999897E+02  0.71293543494E+02 -0.53290437630E+02  0.11495549609E+03  0.00000000000E+00 0.  1.
         11    1    1    2    0    0  0.11715725701E+01  0.13270650997E+02 -0.79283605433E+02  0.80395104643E+02  0.00000000000E+00 0. -1.
</event>
<event>
 7    1  0.2412631E-010  0.1381404E+03  0.7561462E-02  0.1215853E+00
         -2   -1    0    0    0  501 -0.00000000000E+00  0.00000000000E+00  0.95963762283E+02  0.95963762283E+02  0.00000000000E+00 0.  1.
          2   -1    0    0  501    0  0.00000000000E+00 -0.00000000000E+00 -0.26974845122E+03  0.26974845122E+03  0.00000000000E+00 0. -1.
         25    2    1    2    0    0 -0.10154166533E+03 -0.20439960270E+02 -0.27381396706E+02  0.16468291220E+03  0.12506885667E+03 0.  0.
          5    1    3    3  502    0 -0.68068990181E+02  0.32850836524E+02  0.28039143045E+02  0.80723174041E+02  0.41800000000E+01 0. -1.
         -5    1    3    3    0  502 -0.33472675153E+02 -0.53290796794E+02 -0.55420539751E+02  0.83959738156E+02  0.41800000000E+01 0. -1.
        -11    1    1    2    0    0  0.47061053732E+01  0.38688672698E+02 -0.47064462759E+02  0.61106664756E+02  0.00000000000E+00 0. -1.
         11    1    1    2    0    0  0.96835559961E+02 -0.18248712428E+02 -0.99338829473E+02  0.13992263655E+03  0.00000000000E+00 0.  1.
</event>
<event>
 6    1  0.2412631E-010  0.5867665E+02  0.7561462E-02  0.1403471E+00
         -2   -1    0    0    0  501 -0.00000000000E+00  0.00000000000E+00  0.46740463689E+02  0.46740463689E+02  0.00000000000E+00 0.  1.
          2   -1    0    0  501    0  0.00000000000E+00 -0.00000000000E+00 -0.26260643056E+03  0.26260643056E+03  0.00000000000E+00 0. -1.
          5    1    1    2  502    0 -0.27629395362E+02 -0.19303347916E+02  0.40455275420E+01  0.34202944638E+02  0.41800000000E+01 0. -1.
         -5    1    1    2    0  502  0.41831431339E+02  0.12295316412E+02 -0.16186601431E+03  0.16768757391E+03  0.41800000000E+01 0. -1.
        -11    1    1    2    0    0 -0.17775810624E+02  0.19623570150E+02 -0.78675885301E+02  0.83011799623E+02  0.00000000000E+00 0. -1.
         11    1    1    2    0    0  0.35737746470E+01 -0.12615538647E+02  0.20630405205E+02  0.24444576075E+02  0.00000000000E+00 0.  1.
</event>
<event>
 6    1  0.2412631E-010  0.1004643E+03  0.7561462E-02  0.1279323E+00
         -1   -1    0    0    0  501 -0.00000000000E+00  0.00000000000E+00  0.16721591618E+03  0.16721591618E+03  0.00000000000E+00 0.  1.
          1   -1    0    0  501    0  0.00000000000E+00 -0.00000000000E+00 -0.11272195475E+03  0.11272195475E+03  0.00000000000E+00 0. -1.
          5    1    1    2  502    0  0.26729278846E+02  0.26185931339E+02  0.86207263420E+02  0.94070835087E+02  0.41800000000E+01 0. -1.
         -5    1    1    2    0  502 -0.52427194139E+02 -0.48507780484E+02  0.22606129857E+02  0.75034158620E+02  0.41800000000E+01 0. -1.
        -11    1    1    2    0    0 -0.13552857798E+02  0.44588439542E+02 -0.10166209004E+02  0.47698644643E+02  0.00000000000E+00 0.  1.
         11    1    1    2    0    0  0.39250773091E+02 -0.22266590397E+02 -0.44153222844E+02  0.63134232582E+02  0.00000000000E+00 0. -1.
</event>
<event>
 7    1  0.2412631E-010  0.1352751E+03  0.7561462E-02  0.1219832E+00
          1   -1    0    0  501    0  0.00000000000E+00  0.00000000000E+00  0.10032182768E+04  0.10032182768E+04  0.00000000000E+00 0. -1.
         -1   -1    0    0    0  501 -0.00000000000E+00 -0.00000000000E+00 -0.30558390946E+02  0.30558390946E+02  0.00000000000E+00 0.  1.
         25    2    1    2    0    0  0.68810690210E+02 -0.88910043544E+02  0.74787526300E+03  0.76654776009E+03  0.12505259919E+03 0.  0.
          5    1    3    3  502    0  0.30279882118E+02 -0.81908952219E+02  0.21327429659E+03  0.23049803838E+03  0.41800000000E+01 0.  1.
         -5    1    3    3    0  502  0.38530808092E+02 -0.70010913250E+01  0.53460096641E+03  0.53604972171E+03  0.41800000000E+01 0.  1.
        -11    1    1    2    0    0 -0.81691913994E+02  0.35979779269E+02  0.15268065672E+03  0.17686010365E+03  0.00000000000E+00 0.  1.
         11    1    1    2    0    0  0.12881223784E+02  0.52930264275E+02  0.72103966089E+02  0.90368803955E+02  0.00000000000E+00 0. -1.
</event>
<event>
 7    1  0.2412631E-010  0.1043065E+03  0.7561462E-02  0.1271492E+00
         -3   -1    0    0    0  501 -0.00000000000E+00  0.00000000000E+00  0.16183419844E+03  0.16183419844E+03  0.00000000000E+00 0. -1.
          3   -1    0    0  501    0  0.00000000000E+00 -0.00000000000E+00 -0.10714476517E+03  0.10714476517E+03  0.00000000000E+00 0.  1.
         25    2    1    2    0    0 -0.44073130462E+02 -0.56338790884E+02  0.61849041255E+02  0.15683602141E+03  0.12512287369E+03 0.  0.
          5    1    3    3  502    0  0.55140137609E+01  0.26883967562E+02 -0.16393738074E+02  0.32239403029E+02  0.41800000000E+01 0.  1.
         -5    1    3    3    0  502 -0.49587144223E+02 -0.83222758447E+02  0.78242779328E+02  0.12459661838E+03  0.41800000000E+01 0.  1.
        -11    1    1    2    0    0  0.11696148374E+02 -0.63663140397E+01 -0.34097716517E+02  0.36605793433E+02  0.00000000000E+00 0.  1.
         11    1    1    2    0    0  0.32376982088E+02  0.62705104924E+02  0.26938108526E+02  0.75537148765E+02  0.00000000000E+00 0. -1.
</event>
<event>
 6    1  0.2412631E-010  0.1154660E+03  0.7561462E-02  0.1250770E+00
         -2   -1    0    0    0  501 -0.00000000000E+00  0.00000000000E+00  0.10120966722E+03  0.10120966722E+03  0.00000000000E+00 0.  1.
          2   -1    0    0  501    0  0.00000000000E+00 -0.00000000000E+00 -0.19309452665E+03  0.19309452665E+03  0.00000000000E+00 0. -1.
          5    1    1    2  502    0 -0.60390812096E+02  0.27127899057E+02 -0.16890225035E+02  0.68452357115E+02  0.41800000000E+01 0.  1.
         -5    1    1    2    0  502  0.25836186059E+02 -0.50124161953E+02  0.37754302765E+02  0.67991175154E+02  0.41800000000E+01 0.  1.
        -11    1    1    2    0    0  0.30861549566E+02  0.61796914129E+02 -0.87257904026E+02  0.11128897363E+03  0.00000000000E+00 0.  1.
         11    1    1    2    0    0  0.36930764710E+01 -0.38800651233E+02 -0.25491033129E+02  0.46571687965E+02  0.00000000000E+00 0. -1.
</event>
<event>
 7    1  0.2412631E-010  0.6526974E+02  0.7561462E-02  0.1376960E+00
         -2   -1    0    0    0  501 -0.00000000000E+00  0.00000000000E+00  0.74942289001E+02  0.74942289001E+02  0.00000000000E+00 0. -1.
          2   -1    0    0  501    0  0.00000000000E+00 -0.00000000000E+00 -0.15932946597E+03  0.15932946597E+03  0.00000000000E+00 0.  1.
         25    2    1    2    0    0  0.15043910313E+01 -0.10148687121E+02 -0.46053349439E+02  0.13371608518E+03  0.12511523248E+03 0.  0.
          5    1    3    3  502    0 -0.18429853818E+02  0.36213162499E+00  0.40225413941E+02  0.44444875720E+02  0.41800000000E+01 0.  1.
         -5    1    3    3    0  502  0.19934244849E+02 -0.10510818746E+02 -0.86278763379E+02  0.89271209461E+02  0.41800000000E+01 0.  1.
        -11    1    1    2    0    0 -0.44760206419E+02  0.28497365564E+01 -0.34377615496E+02  0.56510331129E+02  0.00000000000E+00 0.  1.
         11    1    1    2    0    0  0.43255815388E+02  0.72989505648E+01 -0.39562120381E+01  0.44045338663E+02  0.00000000000E+00 0. -1.
</event>
<event>
 6    1  0.2412631E-010  0.1017577E+03  0.7561462E-02  0.1276643E+00
          1   -1    0    0  501    0  0.00000000000E+00  0.00000000000E+00  0.67586786059E+03  0.67586786059E+03  0.00000000000E+00 0. -1.
         -1   -1    0    0    0  501 -0.00000000000E+00 -0.00000000000E+00 -0.23095394641E+02  0.23095394641E+02  0.00000000000E+00 0.  1.
          5    1    1    2  502    0 -0.82353640687E+01  0.53347758742E+02  0.34409281392E+03  0.34832619996E+03  0.41800000000E+01 0. -1.
         -5    1    1    2    0  502  0.39370163451E+01 -0.62683437288E+02  0.19423812583E+03  0.20418284779E+03  0.41800000000E+01 0. -1.
        -11    1    1    2    0    0  0.17992145482E+02  0.44872022031E+02  0.39649119953E+02  0.62524142323E+02  0.00000000000E+00 0.  1.
         11    1    1    2    0    0 -0.13693797758E+02 -0.35536343485E+02  0.74792406251E+02  0.83930065162E+02  0.00000000000E+00 0. -1.
</event>
<event>
 6    1  0.2412631E-010  0.9542137E+02  0.7561462E-02  0.1290230E+00
         -2   -1    0    0    0  501 -0.00000000000E+00  0.00000000000E+00  0.89970792585E+01  0.89970792585E+01  0.00000000000E+00 0.  1.
          2   -1    0    0  501    0  0.00000000000E+00 -0.00000000000E+00 -0.15853273398E+04  0.15853273398E+04  0.00000000000E+00 0. -1.
          5    1    1    2  502    0  0.17257107688E+02  0.45761711257E+02 -0.98528407020E+03  0.98650601285E+03  0.41800000000E+01 0.  1.
         -5    1    1    2    0  502  0.65073504569E+01 -0.45602126176E+02 -0.18581627242E+03  0.19148644604E+03  0.41800000000E+01 0.  1.
        -11    1    1    2    0    0 -0.64499021854E+01 -0.46027115459E+02 -0.19780295205E+03  0.20318982365E+03  0.00000000000E+00 0. -1.
         11    1    1    2    0    0 -0.17314555960E+02  0.45867530378E+02 -0.20742696586E+03  0.21314213651E+03  0.00000000000E+00 0.  1.
</event>
<event>
 6    1  0.2412631E-010  0.1032367E+03  0.7561462E-02  0.1273633E+00
         -3   -1    0    0    0  501 -0.00000000000E+00  0.00000000000E+00  0.51221128795E+02  0.51221128795E+02  0.00000000000E+00 0.  1.
          3   -1    0    0  501    0  0.00000000000E+00 -0.00000000000E+00 -0.23043237616E+03  0.23043237616E+03  0.00000000000E+00 0. -1.
          5    1    1    2  502    0  0.49903944350E+02  0.10206563546E+02 -0.10919475700E+02  0.52261696783E+02  0.41800000000E+01 0. -1.
         -5    1    1    2    0  502 -0.62377473366E+02 -0.12342840956E+02 -0.77700094749E+02  0.10048916375E+03  0.41800000000E+01 0. -1.
        -11    1    1    2    0    0  0.12293280567E+02  0.46082745199E+02 -0.49469063954E+02  0.68716318591E+02  0.00000000000E+00 0.  1.
         11    1    1    2    0    0  0.18024844974E+00 -0.43946467790E+02 -0.41122612960E+02  0.60186325834E+02  0.00000000000E+00 0. -1.
</event>
<event>
 7    1  0.2412631E-010  0.7456791E+02  0.7561462E-02  0.1345214E+00
          1   -1    0    0  501    0  0.00000000000E+00  0.00000000000E+00  0.10275362076E+03  0.10275362076E+03  0.00000000000E+00 0. -1.
         -1   -1    0    0    0  501 -0.00000000000E+00 -0.00000000000E+00 -0.17509075259E+03  0.17509075259E+03  0.00000000000E+00 0.  1.
         25    2    1    2    0    0  0.37557655362E+01 -0.11230795019E+02  0.40662036617E+02  0.13204000900E+03  0.12506368867E+03 0.  0.
          5    1    3    3  502    0 -0.13805415879E+02  0.40514183922E+02  0.60091085676E+02  0.73894516604E+02  0.41800000000E+01 0.  1.
         -5    1    3    3    0  502  0.17561181415E+02 -0.51744978941E+02 -0.19429049059E+02  0.58145492393E+02  0.41800000000E+01 0.  1.
        -11    1    1    2    0    0 -0.31327347964E+01  0.31195622446E+02 -0.12046657367E+03  0.12447962186E+03  0.00000000000E+00 0.  1.
         11    1    1    2    0    0 -0.62303073976E+00 -0.19964827427E+02  0.74674052292E+01  0.21324742492E+02  0.00000000000E+00 0. -1.
</event>
<event>
 7    1  0.2412631E-010  0.6495435E+02  0.7561462E-02  0.1378143E+00
          1   -1    0    0  501    0  0.00000000000E+00  0.00000000000E+00  0.99785389314E+02  0.99785389314E+02  0.00000000000E+00 0. -1.
         -1   -1    0    0    0  501 -0.00000000000E+00 -0.00000000000E+00 -0.12069120993E+03  0.12069120993E+03  0.00000000000E+00 0.  1.
         25    2    1    2    0    0 -0.11617044023E+02 -0.22104345922E+02 -0.15098043230E+02  0.12839894612E+03  0.12503911642E+03 0.  0.
          5    1    3    3  502    0 -0.18541790178E+02 -0.23234830219E+02 -0.68283197982E+02  0.74590366972E+02  0.41800000000E+01 0.  1.
         -5    1    3    3    0  502  0.69247461554E+01  0.11304842966E+01  0.53185154752E+02  0.53808579149E+02  0.41800000000E+01 0.  1.
        -11    1    1    2    0    0  0.30832388201E+02 -0.25739674934E+02  0.24561843760E+00  0.40165001635E+02  0.00000000000E+00 0. -1.
         11    1    1    2    0    0 -0.19215344178E+02  0.47844020856E+02 -0.60533958228E+01  0.51912651488E+02  0.00000000000E+00 0.  1.
</event>
<event>
 7    1  0.2412631E-010  0.1698766E+03  0.7561462E-02  0.1177977E+00
          2   -1    0    0  501    0  0.00000000000E+00  0.00000000000E+00  0.49041309904E+02  0.49041309904E+02  0.00000000000E+00 0. -1.
         -2   -1    0    0    0  501 -0.00000000000E+00 -0.00000000000E+00 -0.86869679385E+03  0.86869679385E+03  0.00000000000E+00 0.  1.
         25    2    1    2    0    0 -0.11056993686E+03 -0.11582223761E+03 -0.60969542572E+03  0.64266841927E+03  0.12511468069E+03 0.  0.
          5    1    3    3  502    0 -0.85338392133E+02 -0.54715645181E+02 -0.16971990986E+03  0.19773407193E+03  0.41800000000E+01 0.  1.
         -5    1    3    3    0  502 -0.25231544726E+02 -0.61106592426E+02 -0.43997551586E+03  0.44493434734E+03  0.41800000000E+01 0.  1.
        -11    1    1    2    0    0  0.81114889814E+02  0.11723653068E+03 -0.14309452363E+03  0.20199027741E+03  0.00000000000E+00 0.  1.
         11    1    1    2    0    0  0.29455047045E+02 -0.14142930715E+01 -0.66865534598E+02  0.73079407075E+02  0.00000000000E+00 0. -1.
</event>
<event>
 7    1  0.2412631E-010  0.1009836E+03  0.7561462E-02  0.1278241E+00
         -1   -1    0    0    0  501 -0.00000000000E+00  0.00000000000E+00  0.26921105043E+03  0.26921105043E+03  0.00000000000E+00 0.  1.
          1   -1    0    0  501    0  0.00000000000E+00 -0.00000000000E+00 -0.62196431027E+02  0.62196431027E+02  0.00000000000E+00 0. -1.
         25    2    1    2    0    0  0.57697475567E+02  0.35322280169E+02  0.96465260226E+02  0.17186627820E+03  0.12512317527E+03 0.  0.
          5    1    3    3  502    0 -0.23495762247E+01 -0.19321613960E+02  0.87893005206E+02  0.90119354406E+02  0.41800000000E+01 0.  1.
         -5    1    3    3    0  502  0.60047051791E+02  0.54643894129E+02  0.85722550203E+01  0.81746923798E+02  0.41800000000E+01 0.  1.
        -11    1    1    2    0    0 -0.72466381894E+02 -0.12436628114E+02  0.10998506598E+03  0.13229800060E+03  0.00000000000E+00 0.  1.
         11    1    1    2    0    0  0.14768906328E+02 -0.22885652055E+02  0.56429319810E+00  0.27243202655E+02  0.00000000000E+00 0. -1.
</event>
<event>
 7    1  0.2412631E-010  0.1058745E+03  0.7561462E-02  0.1268406E+00
         -3   -1    0    0    0  501 -0.00000000000E+00  0.00000000000E+00  0.90567878747E+02  0.90567878747E+02  0.00000000000E+00 0.  1.
          3   -1    0    0  501    0  0.00000000000E+00 -0.00000000000E+00 -0.18768275802E+03  0.18768275802E+03  0.00000000000E+00 0. -1.
         25    2    1    2    0    0  0.52665907740E+02 -0.33915038373E+02 -0.92330433340E+02  0.16759240463E+03  0.12505349857E+03 0.  0.
          5    1    3    3  502    0 -0.36550484098E+02 -0.71030506499E+01 -0.56286857065E+02  0.67617112439E+02  0.41800000000E+01 0. -1.
         -5    1    3    3    0  502  0.89216391838E+02 -0.26811987723E+02 -0.36043576276E+02  0.99975292192E+02  0.41800000000E+01 0. -1.
        -11    1    1    2    0    0 -0.94341177772E+01  0.36519782865E+02 -0.39896020134E+02  0.54903456551E+02  0.00000000000E+00 0. -1.
         11    1    1    2    0    0 -0.43231789962E+02 -0.26047444917E+01  0.35111574203E+02  0.55754775582E+02  0.00000000000E+00 0.  1.
</event>
<event>
 7    1  0.2412631E-010  0.1109691E+03  0.7561462E-02  0.1258786E+00
          1   -1    0    0  501    0  0.00000000000E+00  0.00000000000E+00  0.30286134949E+03  0.30286134949E+03  0.00000000000E+00 0. -1.
         -1   -1    0    0    0  501 -0.00000000000E+00 -0.00000000000E+00 -0.52153124188E+02  0.52153124188E+02  0.00000000000E+00 0.  1.
         25    2    1    2    0    0 -0.45590731696E+02  0.37326170878E+02  0.17017096878E+03  0.21924493508E+03  0.12505368884E+03 0.  0.
          5    1    3    3  502    0 -0.69088573788E+02  0.76625101395E+00  0.16012178584E+03  0.17444276101E+03  0.41800000000E+01 0.  1.
         -5    1    3    3    0  502  0.23497842091E+02  0.36559919864E+02  0.10049182941E+02  0.44802174068E+02  0.41800000000E+01 0.  1.
        -11    1    1    2    0    0  0.21561909102E+02  0.30357721457E+02  0.23251018194E+02  0.43898941026E+02  0.00000000000E+00 0. -1.
         11    1    1    2    0    0  0.24028822594E+02 -0.67683892335E+02  0.57286238330E+02  0.91870597575E+02  0.00000000000E+00 0.  1.
</event>
<event>
 7    1  0.2412631E-010  0.1317301E+03  0.7561462E-02  0.1224911E+00
          2   -1    0    0  501    0  0.00000000000E+00  0.00000000000E+00  0.48294141214E+03  0.48294141214E+03  0.00000000000E+00 0.  1.
         -2   -1    0    0    0  501 -0.00000000000E+00 -0.00000000000E+00 -0.78707705322E+02  0.78707705322E+02  0.00000000000E+00 0. -1.
         25    2    1    2    0    0 -0.39739710236E+02  0.12298444897E+03  0.35075860291E+03  0.39419591909E+03  0.12511756812E+03 0.  0.
          5    1    3    3  502    0 -0.42971156604E+02  0.11112795177E+03  0.14363783239E+03  0.18666880097E+03  0.41800000000E+01 0. -1.
         -5    1    3    3    0  502  0.32314463680E+01  0.11856497201E+02  0.20712077053E+03  0.20752711812E+03  0.41800000000E+01 0. -1.
        -11    1    1    2    0    0  0.21513869625E+02 -0.32620674619E+02  0.63672889328E+02  0.74707374698E+02  0.00000000000E+00 0.  1.
         11    1    1    2    0    0  0.18225840611E+02 -0.90363774349E+02 -0.10197785427E+02  0.92745823669E+02  0.00000000000E+00 0. -1.
</event>
<event>
 7    1  0.2451048E-010  0.2204764E+03  0.7561462E-02  0.1133528E+00
         -1   -1    0    0    0  501 -0.00000000000E+00  0.00000000000E+00  0.66306636182E+02  0.66306636182E+02  0.00000000000E+00 0.  1.
          1   -1    0    0  501    0  0.00000000000E+00 -0.00000000000E+00 -0.81301674981E+03  0.81301674981E+03  0.00000000000E+00 0. -1.
         25    2    1    2    0    0 -0.77266497004E+02 -0.18857023906E+03 -0.34436778496E+03  0.41925372866E+03  0.12512262408E+03 0.  0.
          5    1    3    3  502    0 -0.10435328367E+03 -0.14889753551E+03 -0.31212682259E+03  0.36124881962E+03  0.41800000000E+01 0. -1.
         -5    1    3    3    0  502  0.27086786664E+02 -0.39672703547E+02 -0.32240962375E+02  0.58004909045E+02  0.41800000000E+01 0. -1.
        -11    1    1    2    0    0  0.34450962493E+02  0.14772042739E+03 -0.21154822892E+03  0.26030913668E+03  0.00000000000E+00 0. -1.
         11    1    1    2    0    0  0.42815534511E+02  0.40849811675E+02 -0.19079409975E+03  0.19976052065E+03  0.00000000000E+00 0.  1.
</event>
<event>
 7    1  0.2412631E-010  0.1520767E+03  0.7561462E-02  0.1197944E+00
          1   -1    0    0  501    0  0.00000000000E+00  0.00000000000E+00  0.91921451622E+03  0.91921451622E+03  0.00000000000E+00 0. -1.
         -1   -1    0    0    0  501 -0.00000000000E+00 -0.00000000000E+00 -0.41979102332E+02  0.41979102332E+02  0.00000000000E+00 0.  1.
         25    2    1    2    0    0 -0.11058902550E+03 -0.27209051785E+01  0.16630145278E+03  0.23569545723E+03  0.12513528469E+03 0.  0.
          5    1    3    3  502    0 -0.37185374989E+02  0.57159463956E+02  0.95199235207E+02  0.11717646187E+03  0.41800000000E+01 0.  1.
         -5    1    3    3    0  502 -0.73403650509E+02 -0.59880369134E+02  0.71102217574E+02  0.11851899535E+03  0.41800000000E+01 0.  1.
        -11    1    1    2    0    0  0.12202858851E+03 -0.11719717662E+02  0.66105277735E+03  0.67232365914E+03  0.00000000000E+00 0.  1.
         11    1    1    2    0    0 -0.11439563011E+02  0.14440622841E+02  0.49881183755E+02  0.53174502185E+02  0.00000000000E+00 0. -1.
</event>
<event>
 7    1  0.2412631E-010  0.9849567E+02  0.7561462E-02  0.1283492E+00
          3   -1    0    0  501    0  0.00000000000E+00  0.00000000000E+00  0.14894499231E+03  0.14894499231E+03  0.00000000000E+00 0. -1.
         -3   -1    0    0    0  501 -0.00000000000E+00 -0.00000000000E+00 -0.92390516595E+02  0.92390516595E+02  0.00000000000E+00 0.  1.
         25    2    1    2    0    0 -0.18194764025E+02 -0.29740137804E+02  0.35745771633E+02  0.13464913912E+03  0.12504841159E+03 0.  0.
          5    1    3    3  502    0 -0.24197182372E+02 -0.60308339670E+02  0.64786905794E+02  0.91855402840E+02  0.41800000000E+01 0.  1.
         -5    1    3    3    0  502  0.60024183468E+01  0.30568201866E+02 -0.29041134161E+02  0.42793736279E+02  0.41800000000E+01 0.  1.
        -11    1    1    2    0    0  0.38960808800E+02  0.55215683562E+02 -0.38532763127E+00  0.67578582487E+02  0.00000000000E+00 0. -1.
         11    1    1    2    0    0 -0.20766044775E+02 -0.25475545758E+02  0.21194031717E+02  0.39107787303E+02  0.00000000000E+00 0.  1.
</event>
<event>
 6    1  0.2412631E-010  0.1721756E+03  0.7561462E-02  0.1175598E+00
          1   -1    0    0  501    0  0.00000000000E+00  0.00000000000E+00  0.81916459471E+02  0.81916459471E+02  0.00000000000E+00 0. -1.
         -1   -1    0    0    0  501 -0.00000000000E+00 -0.00000000000E+00 -0.46668271241E+03  0.46668271241E+03  0.00000000000E+00 0.  1.
          5    1    1    2  502    0 -0.28003314617E+02  0.59323686440E+00 -0.82530891607E+01  0.29497854841E+02  0.41800000000E+01 0.  1.
         -5    1    1    2    0  502  0.10540391787E+03  0.12760641698E+03 -0.10503500662E+03  0.19606939734E+03  0.41800000000E+01 0.  1.
        -11    1    1    2    0    0 -0.33399988990E+02 -0.41750205001E+02 -0.26759037025E+02  0.59788669032E+02  0.00000000000E+00 0. -1.
         11    1    1    2    0    0 -0.44000614265E+02 -0.86449448848E+02 -0.24471912013E+03  0.26324325067E+03  0.00000000000E+00 0.  1.
</event>
<event>
 7    1  0.2412631E-010  0.1191620E+03  0.7561462E-02  0.1244486E+00
          2   -1    0    0  501    0  0.00000000000E+00  0.00000000000E+00  0.11986608469E+03  0.11986608469E+03  0.00000000000E+00 0. -1.
         -2   -1    0    0    0  501 -0.00000000000E+00 -0.00000000000E+00 -0.19148885506E+03  0.19148885506E+03  0.00000000000E+00 0.  1.
         25    2    1    2    0    0 -0.19984064210E+02  0.89620392649E+02  0.14436493579E+02  0.15579999482E+03  0.12503618852E+03 0.  0.
          5    1    3    3  502    0 -0.44907426353E+02  0.56922869201E+02 -0.43484537469E+02  0.84647902387E+02  0.41800000000E+01 0.  1.
         -5    1    3    3    0  502  0.24923362143E+02  0.32697523448E+02  0.57921031048E+02  0.71152092434E+02  0.41800000000E+01 0.  1.
        -11    1    1    2    0    0  0.51578272510E+02 -0.70811976355E+02 -0.79308557659E+02  0.11817149194E+03  0.00000000000E+00 0.  1.
         11    1    1    2    0    0 -0.31594208299E+02 -0.18808416294E+02 -0.67507062882E+01  0.37383452983E+02  0.00000000000E+00 0. -1.
</event>
<event>
 6    1  0.2412631E-010  0.6348735E+02  0.7561462E-02  0.1383754E+00
          2   -1    0    0  501    0  0.00000000000E+00  0.00000000000E+00  0.90788889633E+02  0.90788889633E+02  0.00000000000E+00 0. -1.
         -2   -1    0    0    0  501 -0.00000000000E+00 -0.00000000000E+00 -0.12891370293E+03  0.12891370293E+03  0.00000000000E+00 0.  1.
          5    1    1    2  502    0 -0.16282518184E+02  0.13095401018E+02 -0.68777253747E+02  0.72002728832E+02  0.41800000000E+01 0.  1.
         -5    1    1    2    0  502  0.18339594929E+02 -0.11943295979E+01  0.51430049107E+02  0.54774898599E+02  0.41800000000E+01 0.  1.
        -11    1    1    2    0    0 -0.38608920680E+02 -0.27163830321E+02 -0.24416335366E+02  0.53147717415E+02  0.00000000000E+00 0.  1.
         11    1    1    2    0    0  0.36551843935E+02  0.15262758901E+02  0.36387267031E+01  0.39777247722E+02  0.00000000000E+00 0. -1.
</event>
<event>
 6    1  0.2412631E-010  0.1055849E+03  0.7561462E-02  0.1268971E+00
         -2   -1    0    0    0  501 -0.00000000000E+00  0.00000000000E+00  0.64661592085E+02  0.64661592085E+02  0.00000000000E+00 0.  1.
          2   -1    0    0  501    0  0.00000000000E+00 -0.00000000000E+00 -0.29904907704E+03  0.29904907704E+03  0.00000000000E+00 0. -1.
          5    1    1    2  502    0 -0.73925028684E+02  0.46994312538E+02 -0.11520153069E+03  0.14478342568E+03  0.41800000000E+01 0.  1.
         -5    1    1    2    0  502  0.44255996314E+02 -0.32024561204E+01 -0.10358848453E+03  0.11276921327E+03  0.41800000000E+01 0.  1.
        -11    1    1    2    0    0  0.40733076150E+02 -0.51321106721E+02 -0.41108682661E+02  0.77349617180E+02  0.00000000000E+00 0. -1.
         11    1    1    2    0    0 -0.11064043780E+02  0.75292503032E+01  0.25511212922E+02  0.28808413001E+02  0.00000000000E+00 0.  1.
</event>
<event>
 6    1  0.2412631E-010  0.1179998E+03  0.7561462E-02  0.1246434E+00
          1   -1    0    0  501    0  0.00000000000E+00  0.00000000000E+00  0.29489743564E+03  0.29489743564E+03  0.00000000000E+00 0. -1.
         -1   -1    0    0    0  501 -0.00000000000E+00 -0.00000000000E+00 -0.64382735562E+02  0.64382735562E+02  0.00000000000E+00 0.  1.
          5    1    1    2  502    0 -0.13981695416E+02  0.19148602331E+02  0.66543250957E+02  0.70764634005E+02  0.41800000000E+01 0. -1.
         -5    1    1    2    0  502  0.64639520397E+02 -0.87264309589E+02  0.48294144727E+02  0.11892486763E+03  0.41800000000E+01 0. -1.
        -11    1    1    2    0    0 -0.42743268109E+02  0.90982264415E+01  0.98275962686E+02  0.10755430970E+03  0.00000000000E+00 0. -1.
         11    1    1    2    0    0 -0.79145568714E+01  0.59017480817E+02  0.17401341706E+02  0.62036359868E+02  0.00000000000E+00 0.  1.
</event>
<event>
 7    1  0.2412631E-010  0.3052202E+03  0.7561462E-02  0.1082660E+00
         -2   -1    0    0    0  501 -0.00000000000E+00  0.00000000000E+00  0.51032454920E+03  0.51032454920E+03  0.00000000000E+00 0.  1.
          2   -1    0    0  501    0  0.00000000000E+00 -0.00000000000E+00 -0.19945624996E+03  0.19945624996E+03  0.00000000000E+00 0. -1.
         25    2    1    2    0    0 -0.13725751958E+03 -0.25488601797E+03  0.24440223973E+03  0.39898878792E+03  0.12511230660E+03 0.  0.
          5    1    3    3  502    0 -0.49495230638E+02 -0.13087620263E+02  0.13052464755E+02  0.52999083919E+02  0.41800000000E+01 0. -1.
         -5    1    3    3    0  502 -0.87762288944E+02 -0.24179839771E+03  0.23134977498E+03  0.34598970400E+03  0.41800000000E+01 0. -1.
        -11    1    1    2    0    0  0.12324785262E+03  0.14188083216E+03  0.24931157323E+02  0.18958313827E+03  0.00000000000E+00 0.  1.
         11    1    1    2    0    0  0.14009666966E+02  0.11300518581E+03  0.41534902187E+02  0.12120887297E+03  0.00000000000E+00 0. -1.
</event>
<event>
 6    1  0.2412631E-010  0.1621850E+03  0.7561462E-02  0.1186252E+00
         -2   -1    0    0    0  501 -0.00000000000E+00  0.00000000000E+00  0.33651987401E+02  0.33651987401E+02  0.00000000000E+00 0.  1.
          2   -1    0    0  501    0  0.00000000000E+00 -0.00000000000E+00 -0.14153607801E+04  0.14153607801E+04  0.00000000000E+00 0. -1.
          5    1    1    2  502    0  0.48192491531E+02  0.33548950973E+02 -0.76113797522E+03  0.76341111995E+03  0.41800000000E+01 0. -1.
         -5    1    1    2    0  502  0.20214275831E+02  0.98524344101E+02 -0.33377593262E+03  0.34862516967E+03  0.41800000000E+01 0. -1.
        -11    1    1    2    0    0  0.73563138238E+01 -0.59403084108E+02 -0.50142809098E+02  0.78084204926E+02  0.00000000000E+00 0.  1.
         11    1    1    2    0    0 -0.75763081186E+02 -0.72670210965E+02 -0.23665207574E+03  0.25889227293E+03  0.00000000000E+00 0. -1.
</event>
<event>
 7    1  0.2412631E-010  0.1732480E+03  0.7561462E-02  0.1174502E+00
         -1   -1    0    0    0  501 -0.00000000000E+00  0.00000000000E+00  0.27883911357E+02  0.27883911357E+02  0.00000000000E+00 0.  1.
          1   -1    0    0  501    0  0.00000000000E+00 -0.00000000000E+00 -0.13906718108E+04  0.13906718108E+04  0.00000000000E+00 0. -1.
         25    2    1    2    0    0  0.12808483970E+03 -0.28566414166E+02 -0.64130714900E+03  0.66644817771E+03  0.12512612854E+03 0.  0.
          5    1    3    3  502    0  0.14499429723E+03  0.26066341912E+01 -0.49305988020E+03  0.51396075593E+03  0.41800000000E+01 0. -1.
         -5    1    3    3    0  502 -0.16909457523E+02 -0.31173048357E+02 -0.14824726879E+03  0.15248742178E+03  0.41800000000E+01 0. -1.
        -11    1    1    2    0    0 -0.26565034631E+02 -0.36487648228E+02 -0.40836539124E+02  0.60866020617E+02  0.00000000000E+00 0. -1.
         11    1    1    2    0    0 -0.10151980507E+03  0.65054062393E+02 -0.68064421133E+03  0.69124152384E+03  0.00000000000E+00 0.  1.
</event>
<event>
 7    1  0.2412631E-010  0.1118551E+03  0.7561462E-02  0.1257173E+00
         -2   -1    0    0    0  501 -0.00000000000E+00  0.00000000000E+00  0.20893946307E+03  0.20893946307E+03  0.00000000000E+00 0.  1.
          2   -1    0    0  501    0  0.00000000000E+00 -0.00000000000E+00 -0.89982668213E+02  0.89982668213E+02  0.00000000000E+00 0. -1.
         25    2    1    2    0    0 -0.35982093651E+02  0.58547369394E+02  0.18797517713E+02  0.14390621646E+03  0.12503258351E+03 0.  0.
          5    1    3    3  502    0  0.17997059468E+02  0.79153693675E+02 -0.46426954396E+01  0.81413932425E+02  0.41800000000E+01 0. -1.
         -5    1    3    3    0  502 -0.53979153120E+02 -0.20606324282E+02  0.23440213152E+02  0.62492284040E+02  0.41800000000E+01 0. -1.
        -11    1    1    2    0    0  0.91510351130E+01 -0.56885178194E+02  0.11175960213E+03  0.12573731988E+03  0.00000000000E+00 0.  1.
         11    1    1    2    0    0  0.26831058538E+02 -0.16621911993E+01 -0.11600324986E+02  0.29278594940E+02  0.00000000000E+00 0. -1.
</event>
<event>
 7    1  0.2412631E-010  0.1078481E+03  0.7561462E-02  0.1264608E+00
         -2   -1    0    0    0  501 -0.00000000000E+00  0.00000000000E+00  0.33591439571E+02  0.33591439571E+02  0.00000000000E+00 0.  1.
          2   -1    0    0  501    0  0.00000000000E+00 -0.00000000000E+00 -0.39900285743E+03  0.39900285743E+03  0.00000000000E+00 0. -1.
         25    2    1    2    0    0  0.29645575496E+02  0.32055259098E+01 -0.15489940699E+03  0.20129812601E+03  0.12505188406E+03 0.  0.
          5    1    3    3  502    0 -0.11371104624E+02 -0.50974419757E+02 -0.33734325523E+02  0.62315091338E+02  0.41800000000E+01 0. -1.
         -5    1    3    3    0  502  0.41016680120E+02  0.54179945667E+02 -0.12116508146E+03  0.13898303467E+03  0.41800000000E+01 0. -1.
        -11    1    1    2    0    0  0.25668244230E+02  0.22583172952E+02 -0.63481292839E+02  0.72102239930E+02  0.00000000000E+00 0.  1.
         11    1    1    2    0    0 -0.55313819726E+02 -0.25788698862E+02 -0.14703071804E+03  0.15919393107E+03  0.00000000000E+00 0. -1.
</event>
<event>
 7    1  0.2864990E-010  0.1030573E+03  0.7561462E-02  0.1273995E+00
          1   -1    0    0  501    0  0.00000000000E+00  0.00000000000E+00  0.78700316658E+02  0.78700316658E+02  0.00000000000E+00 0. -1.
         -1   -1    0    0    0  501 -0.00000000000E+00 -0.00000000000E+00 -0.15989020394E+03  0.15989020394E+03  0.00000000000E+00 0.  1.
         25    2    1    2    0    0 -0.35094580281E+01 -0.16683972006E+02 -0.72706000851E+02  0.14566139390E+03  0.12506161640E+03 0.  0.
          5    1    3    3  502    0 -0.50508954666E+02 -0.41524777675E+02 -0.15246926658E+02  0.67271114417E+02  0.41800000000E+01 0.  1.
         -5    1    3    3    0  502  0.46999496638E+02  0.24840805669E+02 -0.57459074193E+02  0.78390279484E+02  0.41800000000E+01 0.  1.
        -11    1    1    2    0    0 -0.97955609355E+01 -0.33733142911E+02 -0.18700800754E+02  0.39794445511E+02  0.00000000000E+00 0. -1.
         11    1    1    2    0    0  0.13305018964E+02  0.50417114917E+02  0.10216914325E+02  0.53134681184E+02  0.00000000000E+00 0.  1.
</event>
<event>
 7    1  0.2412631E-010  0.1101240E+03  0.7561462E-02  0.1260340E+00
          2   -1    0    0  501    0  0.00000000000E+00  0.00000000000E+00  0.85278789682E+03  0.85278789682E+03  0.00000000000E+00 0. -1.
         -2   -1    0    0    0  501 -0.00000000000E+00 -0.00000000000E+00 -0.22022318381E+02  0.22022318381E+02  0.00000000000E+00 0.  1.
         25    2    1    2    0    0  0.15853310764E+02 -0.36512581973E+02  0.68712901900E+03  0.69955063655E+03  0.12506121800E+03 0.  0.
          5    1    3    3  502    0  0.56725418715E+01  0.43586985328E+02  0.14975576302E+03  0.15612899788E+03  0.41800000000E+01 0.  1.
         -5    1    3    3    0  502  0.10180768892E+02 -0.80099567302E+02  0.53737325598E+03  0.54342163868E+03  0.41800000000E+01 0.  1.
        -11    1    1    2    0    0 -0.31716273826E+02 -0.19362727191E+02  0.30458980047E+02  0.48047754320E+02  0.00000000000E+00 0.  1.
         11    1    1    2    0    0  0.15862963063E+02  0.55875309165E+02  0.11317757939E+03  0.12721182433E+03  0.00000000000E+00 0. -1.
</event>
<event>
 7    1  0.2412631E-010  0.9869813E+02  0.7561462E-02  0.1283058E+00
         -2   -1    0    0    0  501 -0.00000000000E+00  0.00000000000E+00  0.10276083598E+03  0.10276083598E+03  0.00000000000E+00 0.  1.
          2   -1    0    0  501    0  0.00000000000E+00 -0.00000000000E+00 -0.11222555165E+03  0.11222555165E+03  0.00000000000E+00 0. -1.
         25    2    1    2    0    0 -0.10742761661E+02  0.13412889011E+02 -0.15155809644E+02  0.12720507209E+03  0.12512441521E+03 0.  0.
          5    1    3    3  502    0 -0.55978100860E+02 -0.18096253900E+02 -0.34862434574E+02  0.68511925426E+02  0.41800000000E+01 0.  1.
         -5    1    3    3    0  502  0.45235339199E+02  0.31509142911E+02  0.19706624931E+02  0.58693146667E+02  0.41800000000E+01 0.  1.
        -11    1    1    2    0    0 -0.32718753427E+02 -0.21187949435E+02 -0.11123862843E+02  0.40536235045E+02  0.00000000000E+00 0. -1.
         11    1    1    2    0    0  0.43461515088E+02  0.77750604242E+01  0.16814956812E+02  0.47245080494E+02  0.00000000000E+00 0.  1.
</event>
<event>
 6    1  0.2412631E-010  0.9508774E+02  0.7561462E-02  0.1290979E+00
         -2   -1    0    0    0  501 -0.00000000000E+00  0.00000000000E+00  0.23849780776E+03  0.23849780776E+03  0.00000000000E+00 0.  1.
          2   -1    0    0  501    0  0.00000000000E+00 -0.00000000000E+00 -0.72404254066E+02  0.72404254066E+02  0.00000000000E+00 0. -1.
          5    1    1    2  502    0 -0.17149559069E+02  0.35187527941E+02 -0.31451945572E+02  0.50388161101E+02  0.41800000000E+01 0.  1.
         -5    1    1    2    0  502  0.56515830182E+01  0.37252736136E+02  0.10628171062E+03  0.11284051202E+03  0.41800000000E+01 0.  1.
        -11    1    1    2    0    0  0.11327230135E+02 -0.92322909853E+02  0.60218299666E+02  0.11080645036E+03  0.00000000000E+00 0. -1.
         11    1    1    2    0    0  0.17074591577E+00  0.19882645776E+02  0.31045488979E+02  0.36866938348E+02  0.00000000000E+00 0.  1.
</event>
<event>
 7    1  0.2412631E-010  0.1189859E+03  0.7561462E-02  0.1244779E+00
          1   -1    0    0  501    0  0.00000000000E+00  0.00000000000E+00  0.55926352817E+03  0.55926352817E+03  0.00000000000E+00 0. -1.
         -1   -1    0    0    0  501 -0.00000000000E+00 -0.00000000000E+00 -0.44025802509E+02  0.44025802509E+02  0.00000000000E+00 0.  1.
         25    2    1    2    0    0 -0.46815354799E+02  0.91557306804E+02  0.18701994825E+03  0.24736687048E+03  0.12505794535E+03 0.  0.
          5    1    3    3  502    0 -0.34471944941E+02  0.85934308358E+02  0.20469349070E+03  0.22469961699E+03  0.41800000000E+01 0. -1.
         -5    1    3    3    0  502 -0.12343409858E+02  0.56229984460E+01 -0.17673542447E+02  0.22667253496E+02  0.41800000000E+01 0. -1.
        -11    1    1    2    0    0  0.28350046690E+02  0.83025362809E+01  0.36042689060E+02  0.46601852868E+02  0.00000000000E+00 0.  1.
         11    1    1    2    0    0  0.18465308109E+02 -0.99859843085E+02  0.29217508836E+03  0.30932060733E+03  0.00000000000E+00 0. -1.
</event>
<event>
 7    1  0.2412631E-010  0.1695596E+03  0.7561462E-02  0.1178308E+00
         -3   -1    0    0    0  501 -0.00000000000E+00  0.00000000000E+00  0.76048653329E+02  0.76048653329E+02  0.00000000000E+00 0.  1.
          3   -1    0    0  501    0  0.00000000000E+00 -0.00000000000E+00 -0.52632345621E+03  0.52632345621E+03  0.00000000000E+00 0. -1.
         25    2    1    2    0    0  0.50867406299E+02 -0.15635384103E+03 -0.18879085428E+03  0.27988187719E+03  0.12513137852E+03 0.  0.
          5    1    3    3  502    0  0.87271994991E+01 -0.31880145076E+02  0.15652257648E+02  0.36809961024E+02  0.41800000000E+01 0.  1.
         -5    1    3    3    0  502  0.42140206800E+02 -0.12447369595E+03 -0.20444311193E+03  0.24307191616E+03  0.41800000000E+01 0.  1.
        -11    1    1    2    0    0  0.47097831378E+01  0.78639839136E+02 -0.58437492775E+02  0.98088464756E+02  0.00000000000E+00 0.  1.
         11    1    1    2    0    0 -0.55577189437E+02  0.77714001892E+02 -0.20304645583E+03  0.22440176760E+03  0.00000000000E+00 0. -1.
</event>
<event>
 6    1  0.2412631E-010  0.1188942E+03  0.7561462E-02  0.1244932E+00
          2   -1    0    0  501    0  0.00000000000E+00  0.00000000000E+00  0.75262154858E+03  0.75262154858E+03  0.00000000000E+00 0. -1.
         -2   -1    0    0    0  501 -0.00000000000E+00 -0.00000000000E+00 -0.36331922716E+02  0.36331922716E+02  0.00000000000E+00 0.  1.
          5    1    1    2  502    0  0.46309609972E+02  0.21402499737E+02  0.68635340131E+02  0.85620846093E+02  0.41800000000E+01 0.  1.
         -5    1    1    2    0  502  0.48644056614E+02 -0.65570512468E+02  0.47351452524E+03  0.48051973358E+03  0.41800000000E+01 0.  1.
        -11    1    1    2    0    0 -0.42861797467E+02  0.22773377966E+02  0.10370288117E+02  0.49631676394E+02  0.00000000000E+00 0.  1.
         11    1    1    2    0    0 -0.52091869119E+02  0.21394634765E+02  0.16376947238E+03  0.17318121523E+03  0.00000000000E+00 0. -1.
</event>
<event>
 7    1  0.2412631E-010  0.1621904E+03  0.7561462E-02  0.1186246E+00
          1   -1    0    0  501    0  0.00000000000E+00  0.00000000000E+00  0.37456457976E+03  0.37456457976E+03  0.00000000000E+00 0. -1.
         -1   -1    0    0    0  501 -0.00000000000E+00 -0.00000000000E+00 -0.11297763344E+03  0.11297763344E+03  0.00000000000E+00 0.  1.
         25    2    1    2    0    0  0.99070053067E+02 -0.94792894237E+02  0.26363763427E+03  0.32240481910E+03  0.12505797440E+03 0.  0.
          5    1    3    3  502    0  0.11410008018E+03 -0.29447321018E+02  0.17896794537E+03  0.21431978649E+03  0.41800000000E+01 0. -1.
         -5    1    3    3    0  502 -0.15030027112E+02 -0.65345573220E+02  0.84669688900E+02  0.10808503260E+03  0.41800000000E+01 0. -1.
        -11    1    1    2    0    0 -0.37108799889E+02  0.19979028879E+02  0.41078279901E+02  0.58852779915E+02  0.00000000000E+00 0. -1.
         11    1    1    2    0    0 -0.61961253178E+02  0.74813865359E+02 -0.43128967855E+02  0.10628461419E+03  0.00000000000E+00 0.  1.
</event>
<event>
 6    1  0.2412631E-010  0.1320009E+03  0.7561462E-02  0.1224517E+00
         -1   -1    0    0    0  501 -0.00000000000E+00  0.00000000000E+00  0.16738701440E+03  0.16738701440E+03  0.00000000000E+00 0.  1.
          1   -1    0    0  501    0  0.00000000000E+00 -0.00000000000E+00 -0.15352854247E+03  0.15352854247E+03  0.00000000000E+00 0. -1.
          5    1    1    2  502    0  0.10585162838E+03 -0.72569599459E+01  0.80165134376E+02  0.13304567587E+03  0.41800000000E+01 0. -1.
         -5    1    1    2    0  502 -0.26967094680E+02  0.30478093590E+02  0.11355811665E+02  0.42456627786E+02  0.41800000000E+01 0. -1.
        -11    1    1    2    0    0 -0.44231438071E+02 -0.54525826068E+02 -0.67965312025E+02  0.97717805240E+02  0.00000000000E+00 0. -1.
         11    1    1    2    0    0 -0.34653095627E+02  0.31304692424E+02 -0.96971620858E+01  0.47695447967E+02  0.00000000000E+00 0.  1.
</event>
<event>
 7    1  0.2412631E-010  0.6995979E+02  0.7561462E-02  0.1360230E+00
         -2   -1    0    0    0  501 -0.00000000000E+00  0.00000000000E+00  0.77476057610E+02  0.77476057610E+02  0.00000000000E+00 0.  1.
          2   -1    0    0  501    0  0.00000000000E+00 -0.00000000000E+00 -0.23594781642E+03  0.23594781642E+03  0.00000000000E+00 0. -1.
         25    2    1    2    0    0 -0.37465895995E+02 -0.14815058612E+02 -0.17014573172E+03  0.21500620729E+03  0.12511962206E+03 0.  0.
          5    1    3    3  502    0  0.16650797782E+02  0.60418922938E+01  0.13315576060E+02  0.22550620725E+02  0.41800000000E+01 0. -1.
         -5    1    3    3    0  502 -0.54116693777E+02 -0.20856950905E+02 -0.18346130778E+03  0.19245558656E+03  0.41800000000E+01 0. -1.
        -11    1    1    2    0    0  0.28906154152E+02  0.32760719931E+02 -0.29484568843E+02  0.52708351503E+02  0.00000000000E+00 0. -1.
         11    1    1    2    0    0  0.85597418430E+01 -0.17945661319E+02  0.41158541753E+02  0.45709315241E+02  0.00000000000E+00 0.  1.
</event>
<event>
 7    1  0.2412631E-010  0.6566667E+02  0.7561462E-02  0.1375481E+00
         -2   -1    0    0    0  501 -0.00000000000E+00  0.00000000000E+00  0.85971303503E+02  0.85971303503E+02  0.00000000000E+00 0.  1.
          2   -1    0    0  501    0  0.00000000000E+00 -0.00000000000E+00 -0.22930625603E+03  0.22930625603E+03  0.00000000000E+00 0. -1.
         25    2    1    2    0    0 -0.12863493889E+02 -0.55891232651E+02 -0.15256150021E+03  0.20546789065E+03  0.12511092430E+03 0.  0.
          5    1    3    3  502    0  0.50966433184E+01 -0.50008346104E+02  0.12371417128E+01  0.50456053877E+02  0.41800000000E+01 0.  1.
         -5    1    3    3    0  502 -0.17960137207E+02 -0.58828865465E+01 -0.15379864192E+03  0.15501183677E+03  0.41800000000E+01 0.  1.
        -11    1    1    2    0    0  0.18010448481E+02  0.28852393138E+02  0.50086787018E+02  0.60543563473E+02  0.00000000000E+00 0.  1.
         11    1    1    2    0    0 -0.51469545929E+01  0.27038839512E+02 -0.40860239337E+02  0.49266105411E+02  0.00000000000E+00 0. -1.
</event>
<event>
 6    1  0.2412631E-010  0.1090295E+03  0.7561462E-02  0.1262378E+00
         -4   -1    0    0    0  501 -0.00000000000E+00  0.00000000000E+00  0.57058413476E+02  0.57058413476E+02  0.00000000000E+00 0.  1.
          4   -1    0    0  501    0  0.00000000000E+00 -0.00000000000E+00 -0.22922923497E+03  0.22922923497E+03  0.00000000000E+00 0. -1.
          5    1    1    2  502    0 -0.53605374249E+02 -0.13185079557E+01 -0.20269264974E+02  0.57476865904E+02  0.41800000000E+01 0.  1.
         -5    1    1    2    0  502  0.72323244853E+02  0.52586258570E+01 -0.40033904982E+02  0.82936667645E+02  0.41800000000E+01 0.  1.
        -11    1    1    2    0    0  0.17938587729E+02  0.34275663170E+02 -0.32840262403E+02  0.50745412109E+02  0.00000000000E+00 0.  1.
         11    1    1    2    0    0 -0.36656458333E+02 -0.38215781071E+02 -0.79027389132E+02  0.95128702785E+02  0.00000000000E+00 0. -1.
</event>
<event>
 6    1  0.2412631E-010  0.1168139E+03  0.7561462E-02  0.1248448E+00
         -3   -1    0    0    0  501 -0.00000000000E+00  0.00000000000E+00  0.88296626798E+02  0.88296626798E+02  0.00000000000E+00 0.  1.
          3   -1    0    0  501    0  0.00000000000E+00 -0.00000000000E+00 -0.18553551247E+03  0.18553551247E+03  0.00000000000E+00 0. -1.
          5    1    1    2  502    0 -0.47813206412E+01 -0.41282299237E+02 -0.10060718953E+02  0.42962538603E+02  0.41800000000E+01 0. -1.
         -5    1    1    2    0  502  0.70772586391E+02  0.75833927898E+02 -0.14763372598E+02  0.10485691763E+03  0.41800000000E+01 0. -1.
        -11    1    1    2    0    0 -0.50711438939E+02 -0.48804607432E+00 -0.76913560494E+01  0.51293714880E+02  0.00000000000E+00 0.  1.
         11    1    1    2    0    0 -0.15279826810E+02 -0.34063582586E+02 -0.64723438068E+02  0.74718968150E+02  0.00000000000E+00 0. -1.
</event>
<event>
 7    1  0.2412631E-010  0.1038624E+03  0.7561462E-02  0.1272377E+00
          2   -1    0    0  501    0  0.00000000000E+00  0.00000000000E+00  0.16881757629E+04  0.16881757629E+04  0.00000000000E+00 0. -1.
         -2   -1    0    0    0  501 -0.00000000000E+00 -0.00000000000E+00 -0.12975677277E+02  0.12975677277E+02  0.00000000000E+00 0.  1.
         25    2    1    2    0    0 -0.27978949976E+02 -0.46267231646E+02  0.13713876091E+04  0.13781448345E+04  0.12512286840E+03 0.  0.
          5    1    3    3  502    0  0.30608720481E+02 -0.33156264271E+02  0.19410535826E+03  0.19932534745E+03  0.41800000000E+01 0.  1.
         -5    1    3    3    0  502 -0.58587670457E+02 -0.13110967375E+02  0.11772822508E+04  0.11788194871E+04  0.41800000000E+01 0.  1.
        -11    1    1    2    0    0  0.59445642055E+02  0.26665985753E+02  0.24474882832E+03  0.25327228060E+03  0.00000000000E+00 0.  1.
         11    1    1    2    0    0 -0.31466692079E+02  0.19601245893E+02  0.59063648234E+02  0.69734325075E+02  0.00000000000E+00 0. -1.
</event>
<event>
 6    1  0.2412631E-010  0.9524290E+02  0.7561462E-02  0.1290630E+00
         -4   -1    0    0    0  501 -0.00000000000E+00  0.00000000000E+00  0.76870214569E+02  0.76870214569E+02  0.00000000000E+00 0.  1.
          4   -1    0    0  501    0  0.00000000000E+00 -0.00000000000E+00 -0.26919203898E+03  0.26919203898E+03  0.00000000000E+00 0. -1.
          5    1    1    2  502    0 -0.59523433064E+01 -0.18970949653E+02 -0.11983948588E+03  0.12154958699E+03  0.41800000000E+01 0.  1.
         -5    1    1    2    0  502 -0.73835212789E+02 -0.26129201399E+02 -0.68383082061E+01  0.78731243306E+02  0.41800000000E+01 0.  1.
        -11    1    1    2    0    0  0.31466797335E+02  0.15612390106E+02 -0.80008229648E+02  0.87379762364E+02  0.00000000000E+00 0. -1.
         11    1    1    2    0    0  0.48320758761E+02  0.29487760945E+02  0.14364199319E+02  0.58401660892E+02  0.00000000000E+00 0.  1.
</event>
<event>
 7    1  0.2412631E-010  0.1032755E+03  0.7561462E-02  0.1273555E+00
         -2   -1    0    0    0  501 -0.00000000000E+00  0.00000000000E+00  0.22428031792E+03  0.22428031792E+03  0.00000000000E+00 0. -1.
          2   -1    0    0  501    0  0.00000000000E+00 -0.00000000000E+00 -0.18699697825E+03  0.18699697825E+03  0.00000000000E+00 0.  1.
         25    2    1    2    0    0 -0.28358383209E+02 -0.64473152464E+02  0.17857704962E+03  0.22913787916E+03  0.12511362726E+03 0.  0.
          5    1    3    3  502    0 -0.52258482347E+02 -0.53571956433E+02  0.18681559287E+03  0.20129193136E+03  0.41800000000E+01 0. -1.
         -5    1    3    3    0  502  0.23900099138E+02 -0.10901196031E+02 -0.82385432474E+01  0.27845947794E+02  0.41800000000E+01 0. -1.
        -11    1    1    2    0    0 -0.27025834346E+02  0.26453230716E+02 -0.18339230420E+02  0.42029709847E+02  0.00000000000E+00 0. -1.
         11    1    1    2    0    0  0.55384217555E+02  0.38019921748E+02 -0.12295447953E+03  0.14010970716E+03  0.00000000000E+00 0.  1.
</event>
<event>
 6    1  0.2412631E-010  0.1193877E+03  0.7561462E-02  0.1244111E+00
          2   -1    0    0  501    0  0.00000000000E+00  0.00000000000E+00  0.23564858545E+03  0.23564858545E+03  0.00000000000E+00 0. -1.
         -2   -1    0    0    0  501 -0.00000000000E+00 -0.00000000000E+00 -0.75739808743E+02  0.75739808743E+02  0.00000000000E+00 0.  1.
          5    1    1    2  502    0 -0.46636153944E+02 -0.49976933861E+02  0.90127826726E+02  0.11319506316E+03  0.41800000000E+01 0.  1.
         -5    1    1    2    0  502  0.64982113365E+02 -0.18709500216E+02  0.29184002729E+02  0.73769227127E+02  0.41800000000E+01 0.  1.
        -11    1    1    2    0    0 -0.44003439099E+02  0.21834526415E+02  0.50104015051E+02  0.70167382170E+02  0.00000000000E+00 0. -1.
         11    1    1    2    0    0  0.25657479679E+02  0.46851907663E+02 -0.95070678033E+01  0.54256721734E+02  0.00000000000E+00 0.  1.
</event>
<event>
 6    1  0.2412631E-010  0.6450714E+02  0.7561462E-02  0.1379835E+00
         -2   -1    0    0    0  501 -0.00000000000E+00  0.00000000000E+00  0.46071990464E+02  0.46071990464E+02  0.00000000000E+00 0.  1.
          2   -1    0    0  501    0  0.00000000000E+00 -0.00000000000E+00 -0.41518702854E+03  0.41518702854E+03  0.00000000000E+00 0. -1.
          5    1    1    2  502    0  0.22748309167E+01 -0.18462438284E+02 -0.96196995054E+02  0.98068194337E+02  0.41800000000E+01 0.  1.
         -5    1    1    2    0  502  0.18281497217E+02  0.21718120652E+02  0.32720387995E+02  0.43519950548E+02  0.41800000000E+01 0.  1.
        -11    1    1    2    0    0 -0.51817748066E+01 -0.40568382807E+02 -0.74057889244E+02  0.84600327618E+02  0.00000000000E+00 0.  1.
         11    1    1    2    0    0 -0.15374553327E+02  0.37312700439E+02 -0.23158054177E+03  0.23507054650E+03  0.00000000000E+00 0. -1.
</event>
<event>
 7    1  0.2412631E-010  0.1246595E+03  0.7561462E-02  0.1235602E+00
          2   -1    0    0  501    0  0.00000000000E+00  0.00000000000E+00  0.42399960481E+03  0.42399960481E+03  0.00000000000E+00 0. -1.
         -2   -1    0    0    0  501 -0.00000000000E+00 -0.00000000000E+00 -0.37682074135E+02  0.37682074135E+02  0.00000000000E+00 0.  1.
         25    2    1    2    0    0 -0.12086582181E+02 -0.61662331129E+02  0.22322849246E+03  0.26350251403E+03  0.12511709117E+03 0.  0.
          5    1    3    3  502    0 -0.48741902036E+02 -0.83762432710E+02  0.15409268572E+03  0.18208225158E+03  0.41800000000E+01 0. -1.
         -5    1    3    3    0  502  0.36655319855E+02  0.22100101581E+02  0.69135806739E+02  0.81420262448E+02  0.41800000000E+01 0. -1.
        -11    1    1    2    0    0 -0.35728052041E+02  0.65071789752E+01  0.78203925094E+02  0.86224654137E+02  0.00000000000E+00 0. -1.
         11    1    1    2    0    0  0.47814634222E+02  0.55155152154E+02  0.84885113127E+02  0.11195451079E+03  0.00000000000E+00 0.  1.
</event>
<event>
 7    1  0.2412631E-010  0.1094361E+03  0.7561462E-02  0.1261618E+00
         -1   -1    0    0    0  501 -0.00000000000E+00  0.00000000000E+00  0.46427910280E+03  0.46427910280E+03  0.00000000000E+00 0.  1.
          1   -1    0    0  501    0  0.00000000000E+00 -0.00000000000E+00 -0.16466827494E+03  0.16466827494E+03  0.00000000000E+00 0. -1.
         25    2    1    2    0    0  0.13074133010E+02  0.89632990036E+02 -0.11636282335E+03  0.19334793530E+03  0.12505243528E+03 0.  0.
          5    1    3    3  502    0  0.23998162572E+02  0.29388207363E+02  0.20520104655E+02  0.43337346872E+02  0.41800000000E+01 0. -1.
         -5    1    3    3    0  502 -0.10924029561E+02  0.60244782673E+02 -0.13688292800E+03  0.15001058843E+03  0.41800000000E+01 0. -1.
        -11    1    1    2    0    0 -0.43327433544E+02 -0.72779393798E+02  0.35958218453E+03  0.36942313691E+03  0.00000000000E+00 0.  1.
         11    1    1    2    0    0  0.30253300534E+02 -0.16853596238E+02  0.56391466681E+02  0.66176305531E+02  0.00000000000E+00 0. -1.
</event>
<event>
 6    1  0.2412631E-010  0.1063379E+03  0.7561462E-02  0.1267506E+00
         -1   -1    0    0    0  501 -0.00000000000E+00  0.00000000000E+00  0.32644322618E+02  0.32644322618E+02  0.00000000000E+00 0.  1.
          1   -1    0    0  501    0  0.00000000000E+00 -0.00000000000E+00 -0.63134826415E+03  0.63134826415E+03  0.00000000000E+00 0. -1.
          5    1    1    2  502    0 -0.91281377053E+02 -0.45255840815E+02 -0.30875902206E+03  0.32516147839E+03  0.41800000000E+01 0.  1.
         -5    1    1    2    0  502  0.38407046062E+02  0.35624916783E+01 -0.16206605879E+03  0.16664534901E+03  0.41800000000E+01 0.  1.
        -11    1    1    2    0    0  0.21643766741E+02  0.24910738574E+01  0.11095554238E+02  0.24449323335E+02  0.00000000000E+00 0.  1.
         11    1    1    2    0    0  0.31230564250E+02  0.39202275279E+02 -0.13897441492E+03  0.14773643604E+03  0.00000000000E+00 0. -1.
</event>
<event>
 6    1  0.2412631E-010  0.2352308E+03  0.7561462E-02  0.1123011E+00
          2   -1    0    0  501    0  0.00000000000E+00  0.00000000000E+00  0.46849626589E+03  0.46849626589E+03  0.00000000000E+00 0. -1.
         -2   -1    0    0    0  501 -0.00000000000E+00 -0.00000000000E+00 -0.15207170352E+03  0.15207170352E+03  0.00000000000E+00 0.  1.
          5    1    1    2  502    0  0.21132871186E+02  0.76982130134E+02  0.11406036839E+01  0.79947607727E+02  0.41800000000E+01 0.  1.
         -5    1    1    2    0  502  0.16156092640E+03  0.24111579101E+02  0.15881551680E+02  0.16417368020E+03  0.41800000000E+01 0. -1.
        -11    1    1    2    0    0 -0.14015851003E+03 -0.28568859832E+02  0.17060763764E+03  0.22263771852E+03  0.00000000000E+00 0.  1.
         11    1    1    2    0    0 -0.42535287561E+02 -0.72524849403E+02  0.12879476938E+03  0.15380896296E+03  0.00000000000E+00 0. -1.
</event>
<event>
 6    1  0.2412631E-010  0.9509538E+02  0.7561462E-02  0.1290961E+00
          1   -1    0    0  501    0  0.00000000000E+00  0.00000000000E+00  0.79717966978E+03  0.79717966978E+03  0.00000000000E+00 0. -1.
         -1   -1    0    0    0  501 -0.00000000000E+00 -0.00000000000E+00 -0.18012812959E+02  0.18012812959E+02  0.00000000000E+00 0.  1.
          5    1    1    2  502    0  0.31463406487E+02  0.59370017296E+02  0.44748704193E+03  0.45252278395E+03  0.41800000000E+01 0. -1.
         -5    1    1    2    0  502 -0.52398494289E+01 -0.39864722587E+02  0.69825451718E+02  0.80682824917E+02  0.41800000000E+01 0. -1.
        -11    1    1    2    0    0  0.26360223779E+02 -0.13211322052E+02  0.23176034970E+02  0.37503720149E+02  0.00000000000E+00 0.  1.
         11    1    1    2    0    0 -0.52583780837E+02 -0.62939726568E+01  0.23867832821E+03  0.24448315372E+03  0.00000000000E+00 0. -1.
</event>
<event>
 7    1  0.2412631E-010  0.1049682E+03  0.7561462E-02  0.1270182E+00
          2   -1    0    0  501    0  0.00000000000E+00  0.00000000000E+00  0.46644860593E+03  0.46644860593E+03  0.00000000000E+00 0. -1.
         -2   -1    0    0    0  501 -0.00000000000E+00 -0.00000000000E+00 -0.33756539751E+02  0.33756539751E+02  0.00000000000E+00 0.  1.
         25    2    1    2    0    0 -0.21509668194E+02 -0.26859228843E+02  0.31811782457E+03  0.34354788506E+03  0.12506844134E+03 0.  0.
          5    1    3    3  502    0 -0.56704981915E+02  0.17832604398E+02  0.86697184539E+02  0.10520138288E+03  0.41800000000E+01 0.  1.
         -5    1    3    3    0  502  0.35195313720E+02 -0.44691833242E+02  0.23142064003E+03  0.23834650217E+03  0.41800000000E+01 0.  1.
        -11    1    1    2    0    0 -0.33660793240E+02  0.15122602010E+02  0.10641976075E+02  0.38405647344E+02  0.00000000000E+00 0.  1.
         11    1    1    2    0    0  0.55170461435E+02  0.11736626833E+02  0.10393226554E+03  0.11825161328E+03  0.00000000000E+00 0. -1.
</event>
<event>
 6    1  0.2412631E-010  0.1799397E+03  0.7561462E-02  0.1167861E+00
          1   -1    0    0  501    0  0.00000000000E+00  0.00000000000E+00  0.72090475282E+02  0.72090475282E+02  0.00000000000E+00 0. -1.
         -1   -1    0    0    0  501 -0.00000000000E+00 -0.00000000000E+00 -0.62696047072E+03  0.62696047072E+03  0.00000000000E+00 0.  1.
          5    1    1    2  502    0  0.45294776297E+02  0.32250342217E+02 -0.74786647814E+02  0.93285671055E+02  0.41800000000E+01 0.  1.
         -5    1    1    2    0  502 -0.51732781717E+02  0.11653200396E+03 -0.38426128482E+03  0.40488294119E+03  0.41800000000E+01 0.  1.
        -11    1    1    2    0    0 -0.32928069591E+02 -0.13379075483E+02 -0.18786170602E+02  0.40201711825E+02  0.00000000000E+00 0. -1.
         11    1    1    2    0    0  0.39366075011E+02 -0.13540327070E+03 -0.77035892197E+02  0.16068062193E+03  0.00000000000E+00 0.  1.
</event>
<event>
 7    1  0.2412631E-010  0.1067633E+03  0.7561462E-02  0.1266684E+00
          1   -1    0    0  501    0  0.00000000000E+00  0.00000000000E+00  0.52301925586E+02  0.52301925586E+02  0.00000000000E+00 0. -1.
         -1   -1    0    0    0  501 -0.00000000000E+00 -0.00000000000E+00 -0.62113948868E+03  0.62113948868E+03  0.00000000000E+00 0.  1.
         25    2    1    2    0    0  0.67578685031E+02  0.37439898203E+02 -0.52576468345E+03  0.54592296445E+03  0.12503901830E+03 0.  0.
          5    1    3    3  502    0  0.95793009131E+02  0.25642415622E+02 -0.25880176439E+03  0.27718163671E+03  0.41800000000E+01 0. -1.
         -5    1    3    3    0  502 -0.28214324100E+02  0.11797482581E+02 -0.26696291906E+03  0.26874132774E+03  0.41800000000E+01 0. -1.
        -11    1    1    2    0    0 -0.17221280661E+02  0.45810614158E+01 -0.57641354259E+02  0.60333111574E+02  0.00000000000E+00 0.  1.
         11    1    1    2    0    0 -0.50357404370E+02 -0.42020959619E+02  0.14568474621E+02  0.67185338244E+02  0.00000000000E+00 0. -1.
</event>
<event>
 7    1  0.2412631E-010  0.1430083E+03  0.7561462E-02  0.1209337E+00
         -1   -1    0    0    0  501 -0.00000000000E+00  0.00000000000E+00  0.20909807450E+02  0.20909807450E+02  0.00000000000E+00 0.  1.
          1   -1    0    0  501    0  0.00000000000E+00 -0.00000000000E+00 -0.10585580862E+04  0.10585580862E+04  0.00000000000E+00 0. -1.
         25    2    1    2    0    0  0.99258443949E+02 -0.18127486293E+02 -0.54813245941E+03  0.57121613783E+03  0.12513128547E+03 0.  0.
          5    1    3    3  502    0  0.12045920408E+03 -0.41343659463E+02 -0.46794104561E+03  0.48498042496E+03  0.41800000000E+01 0. -1.
         -5    1    3    3    0  502 -0.21200760135E+02  0.23216173170E+02 -0.80191413801E+02  0.86235712871E+02  0.41800000000E+01 0. -1.
        -11    1    1    2    0    0 -0.76374634689E+02 -0.23040380299E+02 -0.39100524498E+03  0.39906020292E+03  0.00000000000E+00 0. -1.
         11    1    1    2    0    0 -0.22883809260E+02  0.41167866592E+02 -0.98510574387E+02  0.10919155293E+03  0.00000000000E+00 0.  1.
</event>
<event>
 6    1  0.2412631E-010  0.1016730E+03  0.7561462E-02  0.1276817E+00
          1   -1    0    0  501    0  0.00000000000E+00  0.00000000000E+00  0.49986194759E+03  0.49986194759E+03  0.00000000000E+00 0. -1.
         -1   -1    0    0    0  501 -0.00000000000E+00 -0.00000000000E+00 -0.29455689436E+02  0.29455689436E+02  0.00000000000E+00 0.  1.
          5    1    1    2  502    0  0.44305210775E+02  0.12895132224E+02  0.61524461612E+02  0.77019269755E+02  0.41800000000E+01 0.  1.
         -5    1    1    2    0  502 -0.60939208745E+02  0.76001439526E+01  0.30473190729E+03  0.31088640541E+03  0.41800000000E+01 0.  1.
        -11    1    1    2    0    0  0.54778426185E+02 -0.82362760593E+01  0.55933766358E+02  0.78721651644E+02  0.00000000000E+00 0.  1.
         11    1    1    2    0    0 -0.38144428215E+02 -0.12259000117E+02  0.48216122894E+02  0.62690310214E+02  0.00000000000E+00 0. -1.
</event>
<event>
 7    1  0.2412631E-010  0.1178099E+03  0.7561462E-02  0.1246754E+00
         -2   -1    0    0    0  501 -0.00000000000E+00  0.00000000000E+00  0.20535665073E+02  0.20535665073E+02  0.00000000000E+00 0.  1.
          2   -1    0    0  501    0  0.00000000000E+00 -0.00000000000E+00 -0.10344462140E+04  0.10344462140E+04  0.00000000000E+00 0. -1.
         25    2    1    2    0    0  0.81671717665E+02  0.15243230648E+01 -0.73421578522E+03  0.74926870732E+03  0.12513266350E+03 0.  0.
          5    1    3    3  502    0  0.33640122179E+02  0.51977230731E+02 -0.17422218068E+03  0.18494358863E+03  0.41800000000E+01 0.  1.
         -5    1    3    3    0  502  0.48031595486E+02 -0.50452907667E+02 -0.55999360454E+03  0.56432511869E+03  0.41800000000E+01 0.  1.
        -11    1    1    2    0    0 -0.46465116745E+02 -0.32648295715E+02 -0.66718550743E+02  0.87614401216E+02  0.00000000000E+00 0.  1.
         11    1    1    2    0    0 -0.35206600920E+02  0.31123972650E+02 -0.21297621300E+03  0.21809877057E+03  0.00000000000E+00 0. -1.
</event>
<event>
 7    1  0.2412631E-010  0.9807375E+02  0.7561462E-02  0.1284400E+00
         -1   -1    0    0    0  501 -0.00000000000E+00  0.00000000000E+00  0.11824430620E+03  0.11824430620E+03  0.00000000000E+00 0.  1.
          1   -1    0    0  501    0  0.00000000000E+00 -0.00000000000E+00 -0.15859181288E+03  0.15859181288E+03  0.00000000000E+00 0. -1.
         25    2    1    2    0    0 -0.68938281512E+01  0.81840122747E+02 -0.22409991991E+02  0.15133709149E+03  0.12512144885E+03 0.  0.
          5    1    3    3  502    0  0.30155992509E+02  0.54552204411E+02 -0.63809010369E+02  0.89299435019E+02  0.41800000000E+01 0. -1.
         -5    1    3    3    0  502 -0.37049820660E+02  0.27287918336E+02  0.41399018378E+02  0.62037656473E+02  0.41800000000E+01 0. -1.
        -11    1    1    2    0    0 -0.11786707793E+02 -0.38832170845E+02 -0.53141633987E+02  0.66864768271E+02  0.00000000000E+00 0. -1.
         11    1    1    2    0    0  0.18680535944E+02 -0.43007951902E+02  0.35204119299E+02  0.58634259316E+02  0.00000000000E+00 0.  1.
</event>
<event>
 7    1  0.2412631E-010  0.1145943E+03  0.7561462E-02  0.1252291E+00
          1   -1    0    0  501    0  0.00000000000E+00  0.00000000000E+00  0.59596795535E+02  0.59596795535E+02  0.00000000000E+00 0. -1.
         -1   -1    0    0    0  501 -0.00000000000E+00 -0.00000000000E+00 -0.26868787441E+03  0.26868787441E+03  0.00000000000E+00 0.  1.
         25    2    1    2    0    0 -0.62469226139E+02 -0.48804859347E+00 -0.92035147593E+02  0.16740941491E+03  0.12511115619E+03 0.  0.
          5    1    3    3  502    0  0.75673267498E+01  0.47404894526E+02 -0.59207825493E+02  0.76338243749E+02  0.41800000000E+01 0. -1.
         -5    1    3    3    0  502 -0.70036552889E+02 -0.47892943119E+02 -0.32827322100E+02  0.91071171166E+02  0.41800000000E+01 0. -1.
        -11    1    1    2    0    0  0.48159891261E+02 -0.33841208146E+02 -0.10736516763E+03  0.12244133989E+03  0.00000000000E+00 0.  1.
         11    1    1    2    0    0  0.14309334879E+02  0.34329256739E+02 -0.96907636603E+01  0.38433915144E+02  0.00000000000E+00 0. -1.
</event>
<event>
 7    1  0.2412631E-010  0.1395184E+03  0.7561462E-02  0.1213978E+00
         -1   -1    0    0    0  501 -0.00000000000E+00  0.00000000000E+00  0.77876578439E+03  0.77876578439E+03  0.00000000000E+00 0.  1.
          1   -1    0    0  501    0  0.00000000000E+00 -0.00000000000E+00 -0.30612951070E+02  0.30612951070E+02  0.00000000000E+00 0. -1.
         25    2    1    2    0    0  0.28893622797E+02  0.10531494754E+03  0.41824992703E+03  0.45000134743E+03  0.12506850769E+03 0.  0.
          5    1    3    3  502    0  0.71765084641E+02  0.29511406419E+02  0.17097923889E+03  0.18780980543E+03  0.41800000000E+01 0. -1.
         -5    1    3    3    0  502 -0.42871461844E+02  0.75803541119E+02  0.24727068814E+03  0.26219154200E+03  0.41800000000E+01 0. -1.
        -11    1    1    2    0    0  0.50042374733E+01 -0.42230940809E+02  0.32636579415E+02  0.53606352891E+02  0.00000000000E+00 0. -1.
         11    1    1    2    0    0 -0.33897860270E+02 -0.63084006729E+02  0.29726632687E+03  0.30577103514E+03  0.00000000000E+00 0.  1.
</event>
<event>
 6    1  0.2412631E-010  0.1252314E+03  0.7561462E-02  0.1234708E+00
         -2   -1    0    0    0  501 -0.00000000000E+00  0.00000000000E+00  0.63849701729E+02  0.63849701729E+02  0.00000000000E+00 0.  1.
          2   -1    0    0  501    0  0.00000000000E+00 -0.00000000000E+00 -0.43000589766E+03  0.43000589766E+03  0.00000000000E+00 0. -1.
          5    1    1    2  502    0  0.85260618217E+02  0.43946384894E+01 -0.78971398932E+01  0.85840101844E+02  0.41800000000E+01 0. -1.
         -5    1    1    2    0  502 -0.34643563874E+02  0.40504592492E+02 -0.30484362127E+02  0.61543214615E+02  0.41800000000E+01 0. -1.
        -11    1    1    2    0    0 -0.42376872025E+02  0.19465664811E+02 -0.15722072470E+03  0.16399105971E+03  0.00000000000E+00 0.  1.
         11    1    1    2    0    0 -0.82401823170E+01 -0.64364895793E+02 -0.17055396921E+03  0.18248122322E+03  0.00000000000E+00 0. -1.
</event>
<event>
 7    1  0.2412631E-010  0.7678052E+02  0.7561462E-02  0.1338444E+00
          2   -1    0    0  501    0  0.00000000000E+00  0.00000000000E+00  0.53215183396E+03  0.53215183396E+03  0.00000000000E+00 0. -1.
         -2   -1    0    0    0  501 -0.00000000000E+00 -0.00000000000E+00 -0.29244212806E+02  0.29244212806E+02  0.00000000000E+00 0.  1.
         25    2    1    2    0    0  0.48397509052E+01 -0.44906737135E+02  0.18631867771E+03  0.22894525899E+03  0.12514489091E+03 0.  0.
          5    1    3    3  502    0  0.19451183720E+02 -0.13055978426E+02  0.19176575917E+03  0.19323660604E+03  0.41800000000E+01 0. -1.
         -5    1    3    3    0  502 -0.14611432814E+02 -0.31850758709E+02 -0.54470814627E+01  0.35708652953E+02  0.41800000000E+01 0. -1.
        -11    1    1    2    0    0  0.38959691145E+02  0.16772297209E+02  0.83933551828E+02  0.94042589342E+02  0.00000000000E+00 0.  1.
         11    1    1    2    0    0 -0.43799442051E+02  0.28134439926E+02  0.23265539161E+03  0.23840819843E+03  0.00000000000E+00 0. -1.
</event>
<event>
 7    1  0.2412631E-010  0.2074024E+03  0.7561462E-02  0.1143640E+00
         -2   -1    0    0    0  501 -0.00000000000E+00  0.00000000000E+00  0.20062037032E+03  0.20062037032E+03  0.00000000000E+00 0.  1.
          2   -1    0    0  501    0  0.00000000000E+00 -0.00000000000E+00 -0.25962109367E+03  0.25962109367E+03  0.00000000000E+00 0. -1.
         25    2    1    2    0    0  0.87417987574E+02  0.17659851042E+03 -0.24998120254E+02  0.23476364270E+03  0.12514041508E+03 0.  0.
          5    1    3    3  502    0  0.99283769993E+02  0.10755892846E+03  0.25056869260E+02  0.14856483155E+03  0.41800000000E+01 0. -1.
         -5    1    3    3    0  502 -0.11865782419E+02  0.69039581956E+02 -0.50054989514E+02  0.86198811154E+02  0.41800000000E+01 0. -1.
        -11    1    1    2    0    0 -0.51672660781E+02 -0.12651575917E+03 -0.70667827182E+02  0.15385136655E+03  0.00000000000E+00 0. -1.
         11    1    1    2    0    0 -0.35745326793E+02 -0.50082751250E+02  0.36665224091E+02  0.71626454735E+02  0.00000000000E+00 0.  1.
</event>
<event>
 6    1  0.2412631E-010  0.1715802E+03  0.7561462E-02  0.1176210E+00
          2   -1    0    0  501    0  0.00000000000E+00  0.00000000000E+00  0.92241082339E+03  0.92241082339E+03  0.00000000000E+00 0. -1.
         -2   -1    0    0    0  501 -0.00000000000E+00 -0.00000000000E+00 -0.39711536584E+02  0.39711536584E+02  0.00000000000E+00 0.  1.
          5    1    1    2  502    0 -0.86167844779E-01  0.19814223517E+02  0.13070120701E+02  0.24102102266E+02  0.41800000000E+01 0. -1.
         -5    1    1    2    0  502 -0.75498692706E+02 -0.15221208231E+03  0.35037594386E+03  0.38942180863E+03  0.41800000000E+01 0. -1.
        -11    1    1    2    0    0  0.18939407034E+02  0.44736304035E+02  0.57871205324E+02  0.75558682116E+02  0.00000000000E+00 0. -1.
         11    1    1    2    0    0  0.56645453517E+02  0.87661554760E+02  0.46138201692E+03  0.47303976696E+03  0.00000000000E+00 0.  1.
</event>
<event>
 7    1  0.2412631E-010  0.1521876E+03  0.7561462E-02  0.1197810E+00
          2   -1    0    0  501    0  0.00000000000E+00  0.00000000000E+00  0.10966162717E+04  0.10966162717E+04  0.00000000000E+00 0. -1.
         -2   -1    0    0    0  501 -0.00000000000E+00 -0.00000000000E+00 -0.23522661773E+02  0.23522661773E+02  0.00000000000E+00 0.  1.
         25    2    1    2    0    0 -0.10221318252E+03 -0.35548707001E+02  0.40992457193E+03  0.44202131944E+03  0.12503378309E+03 0.  0.
          5    1    3    3  502    0 -0.71633194462E+02  0.39333298338E+02  0.24457281778E+03  0.25789873692E+03  0.41800000000E+01 0.  1.
         -5    1    3    3    0  502 -0.30579988056E+02 -0.74882005339E+02  0.16535175416E+03  0.18412258252E+03  0.41800000000E+01 0.  1.
        -11    1    1    2    0    0 -0.30823826993E+01 -0.21552317525E+02  0.10836621223E+03  0.11053162184E+03  0.00000000000E+00 0. -1.
         11    1    1    2    0    0  0.10529556522E+03  0.57101024525E+02  0.55480282573E+03  0.56758599216E+03  0.00000000000E+00 0.  1.
</event>
<event>
 7    1  0.2412631E-010  0.1436331E+03  0.7561462E-02  0.1208522E+00
          1   -1    0    0  501    0  0.00000000000E+00  0.00000000000E+00  0.98092620384E+03  0.98092620384E+03  0.00000000000E+00 0. -1.
         -1   -1    0    0    0  501 -0.00000000000E+00 -0.00000000000E+00 -0.14791882818E+03  0.14791882818E+03  0.00000000000E+00 0.  1.
         25    2    1    2    0    0 -0.40455560975E+02 -0.97922070440E+02  0.93955946692E+03  0.95375675439E+03  0.12511822555E+03 0.  0.
          5    1    3    3  502    0 -0.85226919185E+02 -0.53738487276E+02  0.59153006361E+03  0.60006394770E+03  0.41800000000E+01 0.  1.
         -5    1    3    3    0  502  0.44771358210E+02 -0.44183583164E+02  0.34802940331E+03  0.35369280669E+03  0.41800000000E+01 0.  1.
        -11    1    1    2    0    0  0.68008119756E+01  0.88049157322E+02 -0.10857722038E+03  0.13995684311E+03  0.00000000000E+00 0.  1.
         11    1    1    2    0    0  0.33654749000E+02  0.98729131176E+01  0.20251291217E+01  0.35131434523E+02  0.00000000000E+00 0. -1.
</event>
<event>
 7    1  0.2412631E-010  0.1137394E+03  0.7561462E-02  0.1253798E+00
          1   -1    0    0  501    0  0.00000000000E+00  0.00000000000E+00  0.16437234171E+02  0.16437234171E+02  0.00000000000E+00 0. -1.
         -1   -1    0    0    0  501 -0.00000000000E+00 -0.00000000000E+00 -0.87887069599E+03  0.87887069599E+03  0.00000000000E+00 0.  1.
         25    2    1    2    0    0  0.14324091183E+02  0.29107685307E+02 -0.34069526777E+03  0.36437171985E+03  0.12506417477E+03 0.  0.
          5    1    3    3  502    0 -0.15999293828E+02  0.73412285529E+02 -0.19143593778E+03  0.20569523996E+03  0.41800000000E+01 0. -1.
         -5    1    3    3    0  502  0.30323385011E+02 -0.44304600222E+02 -0.14925933000E+03  0.15867647989E+03  0.41800000000E+01 0. -1.
        -11    1    1    2    0    0 -0.50129852194E+02 -0.36252849181E+02 -0.33362679158E+03  0.33931417185E+03  0.00000000000E+00 0.  1.
         11    1    1    2    0    0  0.35805761012E+02  0.71451638733E+01 -0.18811140246E+03  0.19162203846E+03  0.00000000000E+00 0. -1.
</event>
<event>
 6    1  0.2412631E-010  0.8232486E+02  0.7561462E-02  0.1322580E+00
         -2   -1    0    0    0  501 -0.00000000000E+00  0.00000000000E+00  0.27735585421E+03  0.27735585421E+03  0.00000000000E+00 0. -1.
          2   -1    0    0  501    0  0.00000000000E+00 -0.00000000000E+00 -0.60893720207E+02  0.60893720207E+02  0.00000000000E+00 0.  1.
          5    1    1    2  502    0  0.21055599252E+02 -0.29712307839E+02  0.10584938321E+03  0.11201662297E+03  0.41800000000E+01 0.  1.
         -5    1    1    2    0  502  0.43550034836E+02  0.17666908681E+02 -0.22175102747E+02  0.52133796892E+02  0.41800000000E+01 0.  1.
        -11    1    1    2    0    0 -0.12577677287E+02  0.24297918043E+02 -0.36143206967E+01  0.27598009009E+02  0.00000000000E+00 0.  1.
         11    1    1    2    0    0 -0.52027956801E+02 -0.12252518885E+02  0.13640217424E+03  0.14650114555E+03  0.00000000000E+00 0. -1.
</event>
<event>
 7    1  0.2412631E-010  0.1042718E+03  0.7561462E-02  0.1271561E+00
         -1   -1    0    0    0  501 -0.00000000000E+00  0.00000000000E+00  0.32851233057E+03  0.32851233057E+03  0.00000000000E+00 0.  1.
          1   -1    0    0  501    0  0.00000000000E+00 -0.00000000000E+00 -0.40837290659E+02  0.40837290659E+02  0.00000000000E+00 0. -1.
         25    2    1    2    0    0  0.95556682820E+01 -0.65927856724E+02  0.12768816518E+03  0.19074186584E+03  0.12506157991E+03 0.  0.
          5    1    3    3  502    0 -0.27356801194E+02  0.27608667751E+02  0.22244967072E+02  0.44977150494E+02  0.41800000000E+01 0.  1.
         -5    1    3    3    0  502  0.36912469476E+02 -0.93536524475E+02  0.10544319810E+03  0.14576471535E+03  0.41800000000E+01 0.  1.
        -11    1    1    2    0    0 -0.12378574547E+02  0.26156032349E+02  0.11458961061E+03  0.11818691127E+03  0.00000000000E+00 0.  1.
         11    1    1    2    0    0  0.28229062651E+01  0.39771824374E+02  0.45397264129E+02  0.60420844120E+02  0.00000000000E+00 0. -1.
</event>
<event>
 7    1  0.2412631E-010  0.1606147E+03  0.7561462E-02  0.1188005E+00
         -1   -1    0    0    0  501 -0.00000000000E+00  0.00000000000E+00  0.33634271563E+02  0.33634271563E+02  0.00000000000E+00 0.  1.
          1   -1    0    0  501    0  0.00000000000E+00 -0.00000000000E+00 -0.87094199979E+03  0.87094199979E+03  0.00000000000E+00 0. -1.
         25    2    1    2    0    0 -0.17356239805E+02 -0.11896435078E+03 -0.58312201306E+03  0.60839003124E+03  0.12511351717E+03 0.  0.
          5    1    3    3  502    0  0.16029244704E+02 -0.13466495973E+03 -0.43393979886E+03  0.45465680408E+03  0.41800000000E+01 0.  1.
         -5    1    3    3    0  502 -0.33385484509E+02  0.15700608953E+02 -0.14918221420E+03  0.15373322716E+03  0.41800000000E+01 0.  1.
        -11    1    1    2    0    0  0.10287312602E+02 -0.12825185597E+02 -0.11933274292E+02  0.20315442931E+02  0.00000000000E+00 0.  1.
         11    1    1    2    0    0  0.70689272025E+01  0.13178953637E+03 -0.24225244087E+03  0.27587079718E+03  0.00000000000E+00 0. -1.
</event>
<event>
 7    1  0.2412631E-010  0.9497104E+02  0.7561462E-02  0.1291241E+00
         -1   -1    0    0    0  501 -0.00000000000E+00  0.00000000000E+00  0.14711695592E+03  0.14711695592E+03  0.00000000000E+00 0.  1.
          1   -1    0    0  501    0  0.00000000000E+00 -0.00000000000E+00 -0.14994216678E+03  0.14994216678E+03  0.00000000000E+00 0. -1.
         25    2    1    2    0    0 -0.16056849789E+02 -0.58501653377E+01 -0.99228227442E+02  0.16061165286E+03  0.12513119137E+03 0.  0.
          5    1    3    3  502    0 -0.61406127115E+02  0.22454532425E+02 -0.27493429570E+02  0.71051245895E+02  0.41800000000E+01 0. -1.
         -5    1    3    3    0  502  0.45349277326E+02 -0.28304697763E+02 -0.71734797872E+02  0.89560406962E+02  0.41800000000E+01 0. -1.
        -11    1    1    2    0    0 -0.26695864861E+02  0.83723111311E+01  0.88603772973E+02  0.92916055552E+02  0.00000000000E+00 0.  1.
         11    1    1    2    0    0  0.42752714650E+02 -0.25221457934E+01  0.77992436138E+01  0.43531414292E+02  0.00000000000E+00 0. -1.
</event>
<event>
 6    1  0.2412631E-010  0.1066793E+03  0.7561462E-02  0.1266846E+00
          1   -1    0    0  501    0  0.00000000000E+00  0.00000000000E+00  0.87937080500E+03  0.87937080500E+03  0.00000000000E+00 0. -1.
         -1   -1    0    0    0  501 -0.00000000000E+00 -0.00000000000E+00 -0.18037613800E+02  0.18037613800E+02  0.00000000000E+00 0.  1.
          5    1    1    2  502    0  0.87542791417E+02 -0.23448587749E+02  0.26298522236E+03  0.27819467316E+03  0.41800000000E+01 0. -1.
         -5    1    1    2    0  502 -0.29045694066E+02  0.21044827521E+02  0.27140039476E+03  0.27379222740E+03  0.41800000000E+01 0. -1.
        -11    1    1    2    0    0  0.12391173059E+02 -0.81811580518E+01  0.51154053170E+01  0.15704772790E+02  0.00000000000E+00 0.  1.
         11    1    1    2    0    0 -0.70888270409E+02  0.10584918280E+02  0.32183216877E+03  0.32971674545E+03  0.00000000000E+00 0. -1.
</event>
<event>
 7    1  0.2412631E-010  0.2187188E+03  0.7561462E-02  0.1134842E+00
         -2   -1    0    0    0  501 -0.00000000000E+00  0.00000000000E+00  0.42600166300E+03  0.42600166300E+03  0.00000000000E+00 0. -1.
          2   -1    0    0  501    0  0.00000000000E+00 -0.00000000000E+00 -0.13384756996E+03  0.13384756996E+03  0.00000000000E+00 0.  1.
         25    2    1    2    0    0  0.17178304413E+03 -0.11092871942E+03  0.83904548579E+02  0.25398875372E+03  0.12512281448E+03 0.  0.
          5    1    3    3  502    0  0.57555465370E+02 -0.93163794681E+02  0.84382857769E+02  0.13831147211E+03  0.41800000000E+01 0. -1.
         -5    1    3    3    0  502  0.11422757876E+03 -0.17764924737E+02 -0.47830918954E+00  0.11567728161E+03  0.41800000000E+01 0. -1.
        -11    1    1    2    0    0 -0.10279920258E+02  0.29628067970E+02  0.74879583878E+02  0.81181594305E+02  0.00000000000E+00 0. -1.
         11    1    1    2    0    0 -0.16150312387E+03  0.81300651449E+02  0.13336996059E+03  0.22467888493E+03  0.00000000000E+00 0.  1.
</event>
<event>
 7    1  0.2412631E-010  0.1094641E+03  0.7561462E-02  0.1261566E+00
         -1   -1    0    0    0  501 -0.00000000000E+00  0.00000000000E+00  0.10415383302E+03  0.10415383302E+03  0.00000000000E+00 0.  1.
          1   -1    0    0  501    0  0.00000000000E+00 -0.00000000000E+00 -0.17515786347E+03  0.17515786347E+03  0.00000000000E+00 0. -1.
         25    2    1    2    0    0 -0.68845236300E+02  0.33673598229E+02 -0.59394934719E+01  0.14677467000E+03  0.12503578845E+03 0.  0.
          5    1    3    3  502    0 -0.43145493232E+02  0.78827508589E+02 -0.21276875328E+02  0.92441806129E+02  0.41800000000E+01 0.  1.
         -5    1    3    3    0  502 -0.25699743068E+02 -0.45153910360E+02  0.15337381856E+02  0.54332863875E+02  0.41800000000E+01 0.  1.
        -11    1    1    2    0    0  0.32903887122E+02 -0.19222552979E+02 -0.81875128282E+02  0.90308963907E+02  0.00000000000E+00 0. -1.
         11    1    1    2    0    0  0.35941349178E+02 -0.14451045250E+02  0.16810591296E+02  0.42228062580E+02  0.00000000000E+00 0.  1.
</event>
<event>
 7    1  0.2412631E-010  0.9663330E+02  0.7561462E-02  0.1287539E+00
          2   -1    0    0  501    0  0.00000000000E+00  0.00000000000E+00  0.13368813650E+03  0.13368813650E+03  0.00000000000E+00 0. -1.
         -2   -1    0    0    0  501 -0.00000000000E+00 -0.00000000000E+00 -0.18907275609E+03  0.18907275609E+03  0.00000000000E+00 0.  1.
         25    2    1    2    0    0 -0.55066650569E+02  0.70817244895E+02  0.47864595877E+02  0.16121912592E+03  0.12511262463E+03 0.  0.
          5    1    3    3  502    0 -0.16043600667E+02  0.14247608536E+02  0.81650187037E+02  0.84525835782E+02  0.41800000000E+01 0.  1.
         -5    1    3    3    0  502 -0.39023049902E+02  0.56569636359E+02 -0.33785591161E+02  0.76693290133E+02  0.41800000000E+01 0.  1.
        -11    1    1    2    0    0 -0.14303061865E+01 -0.36343847519E+02 -0.85657374743E+02  0.93059695229E+02  0.00000000000E+00 0.  1.
         11    1    1    2    0    0  0.56496956756E+02 -0.34473397375E+02 -0.17591840720E+02  0.68482071444E+02  0.00000000000E+00 0. -1.
</event>
<event>
 7    1  0.2412631E-010  0.1773095E+03  0.7561462E-02  0.1170433E+00
         -1   -1    0    0    0  501 -0.00000000000E+00  0.00000000000E+00  0.23396038551E+03  0.23396038551E+03  0.00000000000E+00 0.  1.
          1   -1    0    0  501    0  0.00000000000E+00 -0.00000000000E+00 -0.19835521084E+03  0.19835521084E+03  0.00000000000E+00 0. -1.
         25    2    1    2    0    0  0.15127795048E+03 -0.52934983684E+02  0.11289425704E+03  0.23256344766E+03  0.12511400047E+03 0.  0.
          5    1    3    3  502    0  0.59243595308E+02  0.16301290876E+02 -0.11866595457E+02  0.62720205332E+02  0.41800000000E+01 0. -1.
         -5    1    3    3    0  502  0.92034355173E+02 -0.69236274560E+02  0.12476085250E+03  0.16984324233E+03  0.41800000000E+01 0. -1.
        -11    1    1    2    0    0 -0.55401562071E+02 -0.18297092584E+02 -0.16368971891E+01  0.58367766013E+02  0.00000000000E+00 0.  1.
         11    1    1    2    0    0 -0.95876388409E+02  0.71232076268E+02 -0.75652185181E+02  0.14138438268E+03  0.00000000000E+00 0. -1.
</event>
<event>
 7    1  0.2412631E-010  0.9904931E+02  0.7561462E-02  0.1282308E+00
          1   -1    0    0  501    0  0.00000000000E+00  0.00000000000E+00  0.38307741959E+03  0.38307741959E+03  0.00000000000E+00 0. -1.
         -1   -1    0    0    0  501 -0.00000000000E+00 -0.00000000000E+00 -0.41554274229E+02  0.41554274229E+02  0.00000000000E+00 0.  1.
         25    2    1    2    0    0 -0.53070080747E+01 -0.45819743435E+02  0.11473417146E+03  0.17592634325E+03  0.12513406780E+03 0.  0.
          5    1    3    3  502    0  0.34314359657E+02 -0.49542877629E+02  0.67741711709E+01  0.60789257254E+02  0.41800000000E+01 0.  1.
         -5    1    3    3    0  502 -0.39621367732E+02  0.37231341946E+01  0.10796000029E+03  0.11513708599E+03  0.41800000000E+01 0.  1.
        -11    1    1    2    0    0 -0.75712962727E+01  0.69930178769E+02  0.19189278624E+03  0.20437807084E+03  0.00000000000E+00 0. -1.
         11    1    1    2    0    0  0.12878304347E+02 -0.24110435335E+02  0.34896187668E+02  0.44327279734E+02  0.00000000000E+00 0.  1.
</event>
<event>
 6    1  0.2412631E-010  0.1119468E+03  0.7561462E-02  0.1257007E+00
          2   -1    0    0  501    0  0.00000000000E+00  0.00000000000E+00  0.19425119303E+02  0.19425119303E+02  0.00000000000E+00 0. -1.
         -2   -1    0    0    0  501 -0.00000000000E+00 -0.00000000000E+00 -0.77931233871E+03  0.77931233871E+03  0.00000000000E+00 0.  1.
          5    1    1    2  502    0  0.44873126251E+02 -0.74417291354E+01 -0.27440538892E+03  0.27818117596E+03  0.41800000000E+01 0. -1.
         -5    1    1    2    0  502 -0.60795945241E+02 -0.47581245299E+02 -0.16447394184E+03  0.18173957138E+03  0.41800000000E+01 0. -1.
        -11    1    1    2    0    0  0.33427518667E+02  0.70187520540E+02 -0.28922426685E+03  0.29949017276E+03  0.00000000000E+00 0.  1.
         11    1    1    2    0    0 -0.17504699677E+02 -0.15164546105E+02 -0.31783621802E+02  0.39326537913E+02  0.00000000000E+00 0. -1.
</event>
<event>
 6    1  0.2412631E-010  0.1455119E+03  0.7561462E-02  0.1206099E+00
          1   -1    0    0  501    0  0.00000000000E+00  0.00000000000E+00  0.46097549602E+03  0.46097549602E+03  0.00000000000E+00 0. -1.
         -1   -1    0    0    0  501 -0.00000000000E+00 -0.00000000000E+00 -0.76671014124E+02  0.76671014124E+02  0.00000000000E+00 0.  1.
          5    1    1    2  502    0 -0.37284182739E+02  0.20074217347E+02 -0.44560543299E+01  0.42783329753E+02  0.41800000000E+01 0.  1.
         -5    1    1    2    0  502  0.85170208418E+02  0.92258699240E+02  0.71567727168E+02  0.14458576679E+03  0.41800000000E+01 0.  1.
        -11    1    1    2    0    0 -0.70179928973E+01 -0.31418544966E+02  0.16414869715E+02  0.36136202621E+02  0.00000000000E+00 0.  1.
         11    1    1    2    0    0 -0.40868032782E+02 -0.80914371620E+02  0.30077793935E+03  0.31414121098E+03  0.00000000000E+00 0. -1.
</event>
<event>
 6    1  0.2412631E-010  0.9369952E+02  0.7561462E-02  0.1294132E+00
          2   -1    0    0  501    0  0.00000000000E+00  0.00000000000E+00  0.71208295623E+02  0.71208295623E+02  0.00000000000E+00 0. -1.
         -2   -1    0    0    0  501 -0.00000000000E+00 -0.00000000000E+00 -0.20083393130E+03  0.20083393130E+03  0.00000000000E+00 0.  1.
          5    1    1    2  502    0 -0.59333028074E+02 -0.21823675234E+02 -0.12684812997E+03  0.14179069609E+03  0.41800000000E+01 0. -1.
         -5    1    1    2    0  502  0.25476094653E+02  0.14602464817E+02  0.11591835873E+02  0.31845037861E+02  0.41800000000E+01 0. -1.
        -11    1    1    2    0    0 -0.29888763938E+02  0.67142717706E+01 -0.16157765390E+02  0.34633698005E+02  0.00000000000E+00 0. -1.
         11    1    1    2    0    0  0.63745697359E+02  0.50693864662E+00  0.17884238036E+01  0.63772794970E+02  0.00000000000E+00 0.  1.
</event>
<event>
 7    1  0.2412631E-010  0.8276185E+02  0.7561462E-02  0.1321392E+00
         -2   -1    0    0    0  501 -0.00000000000E+00  0.00000000000E+00  0.10606178884E+02  0.10606178884E+02  0.00000000000E+00 0.  1.
          2   -1    0    0  501    0  0.00000000000E+00 -0.00000000000E+00 -0.17376367136E+04  0.17376367136E+04  0.00000000000E+00 0. -1.
         25    2    1    2    0    0  0.92895087357E+01  0.20588553984E+02 -0.14583872515E+04  0.14639195403E+04  0.12512738144E+03 0.  0.
          5    1    3    3  502    0  0.42669328078E+02  0.14276269575E+02 -0.19895101814E+03  0.20401829195E+03  0.41800000000E+01 0. -1.
         -5    1    3    3    0  502 -0.33379819343E+02  0.63122844087E+01 -0.12594362333E+04  0.12599012483E+04  0.41800000000E+01 0. -1.
        -11    1    1    2    0    0 -0.39083773355E+02  0.13019107627E+02 -0.18342513217E+03  0.18799419570E+03  0.00000000000E+00 0. -1.
         11    1    1    2    0    0  0.29794264619E+02 -0.33607661611E+02 -0.85218151019E+02  0.96329156470E+02  0.00000000000E+00 0.  1.
</event>
<event>
 6    1  0.2412631E-010  0.1273066E+03  0.7561462E-02  0.1231508E+00
          1   -1    0    0  501    0  0.00000000000E+00  0.00000000000E+00  0.90478152679E+03  0.90478152679E+03  0.00000000000E+00 0. -1.
         -1   -1    0    0    0  501 -0.00000000000E+00 -0.00000000000E+00 -0.30665400917E+02  0.30665400917E+02  0.00000000000E+00 0.  1.
          5    1    1    2  502    0  0.11100386594E+03 -0.13435926334E+02  0.28591782512E+03  0.30703233948E+03  0.41800000000E+01 0.  1.
         -5    1    1    2    0  502 -0.70656427849E+00  0.96088670345E+01  0.35718820284E+03  0.35734257262E+03  0.41800000000E+01 0.  1.
        -11    1    1    2    0    0 -0.84873430041E+02 -0.29896779567E+02  0.10558977253E+03  0.13873181545E+03  0.00000000000E+00 0.  1.
         11    1    1    2    0    0 -0.25423871621E+02  0.33723838866E+02  0.12542032539E+03  0.13234020015E+03  0.00000000000E+00 0. -1.
</event>
<event>
 7    1  0.2412631E-010  0.1197893E+03  0.7561462E-02  0.1243445E+00
         -2   -1    0    0    0  501 -0.00000000000E+00  0.00000000000E+00  0.10008696975E+03  0.10008696975E+03  0.00000000000E+00 0.  1.
          2   -1    0    0  501    0  0.00000000000E+00 -0.00000000000E+00 -0.24387468539E+03  0.24387468539E+03  0.00000000000E+00 0. -1.
         25    2    1    2    0    0 -0.10285136875E+03  0.54431993535E+02 -0.10296998805E+03  0.19946157032E+03  0.12506339840E+03 0.  0.
          5    1    3    3  502    0 -0.15703602057E+02  0.83490957481E+01  0.29247577698E+02  0.34484833167E+02  0.41800000000E+01 0. -1.
         -5    1    3    3    0  502 -0.87147766692E+02  0.46082897787E+02 -0.13221756575E+03  0.16497673715E+03  0.41800000000E+01 0. -1.
        -11    1    1    2    0    0  0.80397801134E+02 -0.22289920558E+02  0.57453995374E+01  0.83628085005E+02  0.00000000000E+00 0.  1.
         11    1    1    2    0    0  0.22453567615E+02 -0.32142072978E+02 -0.46563127132E+02  0.60871999822E+02  0.00000000000E+00 0. -1.
</event>
<event>
 7    1  0.2412631E-010  0.1929349E+03  0.7561462E-02  0.1155841E+00
          2   -1    0    0  501    0  0.00000000000E+00  0.00000000000E+00  0.15080159714E+03  0.15080159714E+03  0.00000000000E+00 0. -1.
         -2   -1    0    0    0  501 -0.00000000000E+00 -0.00000000000E+00 -0.28062871220E+03  0.28062871220E+03  0.00000000000E+00 0.  1.
         25    2    1    2    0    0 -0.13795962150E+03  0.10633469930E+03 -0.90896575480E+02  0.23292715806E+03  0.12511174240E+03 0.  0.
          5    1    3    3  502    0 -0.57546949550E+02  0.10183941472E+03 -0.97045072792E+02  0.15204649403E+03  0.41800000000E+01 0.  1.
         -5    1    3    3    0  502 -0.80412671952E+02  0.44952845713E+01  0.61484973113E+01  0.80880664024E+02  0.41800000000E+01 0.  1.
        -11    1    1    2    0    0  0.16550578971E+02 -0.53077894084E+02 -0.35337890014E+02  0.65878304284E+02  0.00000000000E+00 0.  1.
         11    1    1    2    0    0  0.12140904253E+03 -0.53256805211E+02 -0.35926495665E+01  0.13262484700E+03  0.00000000000E+00 0. -1.
</event>
<event>
 6    1  0.2412631E-010  0.8734114E+02  0.7561462E-02  0.1309421E+00
         -1   -1    0    0    0  501 -0.00000000000E+00  0.00000000000E+00  0.26952481752E+03  0.26952481752E+03  0.00000000000E+00 0.  1.
          1   -1    0    0  501    0  0.00000000000E+00 -0.00000000000E+00 -0.50254750970E+02  0.50254750970E+02  0.00000000000E+00 0. -1.
          5    1    1    2  502    0  0.32559187009E+02 -0.15690925269E+02  0.10258153473E+03  0.10884277404E+03  0.41800000000E+01 0. -1.
         -5    1    1    2    0  502 -0.62055699122E+02  0.42405623873E+02  0.41508477727E+02  0.85962624744E+02  0.41800000000E+01 0. -1.
        -11    1    1    2    0    0 -0.41977251397E+01  0.11400345283E+02 -0.16282604469E+02  0.20315313860E+02  0.00000000000E+00 0. -1.
         11    1    1    2    0    0  0.33694237253E+02 -0.38115043888E+02  0.91462658564E+02  0.10465885584E+03  0.00000000000E+00 0.  1.
</event>
<event>
 7    1  0.2450759E-010  0.1292664E+03  0.7561462E-02  0.1228548E+00
          1   -1    0    0  501    0  0.00000000000E+00  0.00000000000E+00  0.52033010065E+03  0.52033010065E+03  0.00000000000E+00 0. -1.
         -1   -1    0    0    0  501 -0.00000000000E+00 -0.00000000000E+00 -0.43588144583E+02  0.43588144583E+02  0.00000000000E+00 0.  1.
         25    2    1    2    0    0 -0.36077777967E+01  0.10119350451E+03  0.21455268410E+03  0.26821845073E+03  0.12512050848E+03 0.  0.
          5    1    3    3  502    0  0.52899652846E+01 -0.10807985871E+02  0.12180221512E+03  0.12246651910E+03  0.41800000000E+01 0.  1.
         -5    1    3    3    0  502 -0.88977430813E+01  0.11200149038E+03  0.92750468975E+02  0.14575193163E+03  0.41800000000E+01 0.  1.
        -11    1    1    2    0    0 -0.33257569188E+02 -0.95803775340E+01  0.99912924810E+02  0.10573760961E+03  0.00000000000E+00 0.  1.
         11    1    1    2    0    0  0.36865346985E+02 -0.91613126973E+02  0.16227634716E+03  0.18996218489E+03  0.00000000000E+00 0. -1.
</event>
<event>
 7    1  0.2412631E-010  0.9094698E+02  0.7561462E-02  0.1300575E+00
         -1   -1    0    0    0  501 -0.00000000000E+00  0.00000000000E+00  0.30106142850E+02  0.30106142850E+02  0.00000000000E+00 0.  1.
          1   -1    0    0  501    0  0.00000000000E+00 -0.00000000000E+00 -0.54188714819E+03  0.54188714819E+03  0.00000000000E+00 0. -1.
         25    2    1    2    0    0 -0.16535794018E+02 -0.56979052374E+02 -0.35314347440E+03  0.37930487532E+03  0.12506730202E+03 0.  0.
          5    1    3    3  502    0  0.33667320905E+02 -0.20182386573E+02 -0.28415523091E+02  0.48638786757E+02  0.41800000000E+01 0. -1.
         -5    1    3    3    0  502 -0.50203114923E+02 -0.36796665801E+02 -0.32472795131E+03  0.33066608856E+03  0.41800000000E+01 0. -1.
        -11    1    1    2    0    0 -0.87544336327E+01  0.53843403679E+02 -0.31437776120E+02  0.62960987884E+02  0.00000000000E+00 0.  1.
         11    1    1    2    0    0  0.25290227650E+02  0.31356486956E+01 -0.12719975482E+03  0.12972742784E+03  0.00000000000E+00 0. -1.
</event>
<event>
 7    1  0.3055378E-010  0.9769613E+02  0.7561462E-02  0.1285217E+00
         -1   -1    0    0    0  501 -0.00000000000E+00  0.00000000000E+00  0.36495195905E+03  0.36495195905E+03  0.00000000000E+00 0.  1.
          1   -1    0    0  501    0  0.00000000000E+00 -0.00000000000E+00 -0.53386134820E+02  0.53386134820E+02  0.00000000000E+00 0. -1.
         25    2    1    2    0    0  0.57229798321E+02  0.48272919995E+02  0.10442493665E+03  0.17934944911E+03  0.12512446956E+03 0.  0.
          5    1    3    3  502    0  0.52355973412E+02  0.68150435259E+02  0.14778180721E+02  0.87301184433E+02  0.41800000000E+01 0. -1.
         -5    1    3    3    0  502  0.48738249091E+01 -0.19877515264E+02  0.89646755928E+02  0.92048264681E+02  0.41800000000E+01 0. -1.
        -11    1    1    2    0    0 -0.26808828232E+02 -0.51308417912E+02  0.43227969037E+02  0.72249043778E+02  0.00000000000E+00 0. -1.
         11    1    1    2    0    0 -0.30420970089E+02  0.30354979164E+01  0.16391291854E+03  0.16673960098E+03  0.00000000000E+00 0.  1.
</event>
<event>
 6    1  0.2412631E-010  0.1540051E+03  0.7561462E-02  0.1195636E+00
          2   -1    0    0  501    0  0.00000000000E+00  0.00000000000E+00  0.73926752894E+03  0.73926752894E+03  0.00000000000E+00 0. -1.
         -2   -1    0    0    0  501 -0.00000000000E+00 -0.00000000000E+00 -0.41323275189E+02  0.41323275189E+02  0.00000000000E+00 0.  1.
          5    1    1    2  502    0 -0.32266847113E+02 -0.89304004974E+02  0.27257222938E+03  0.28866840381E+03  0.41800000000E+01 0.  1.
         -5    1    1    2    0  502  0.30152163706E+02 -0.42929064177E+02  0.20868828987E+02  0.56613054595E+02  0.41800000000E+01 0.  1.
        -11    1    1    2    0    0 -0.43674902420E+02  0.51527096459E+02  0.15353086941E+03  0.16773272380E+03  0.00000000000E+00 0.  1.
         11    1    1    2    0    0  0.45789585827E+02  0.80705972692E+02  0.25097232597E+03  0.26757662193E+03  0.00000000000E+00 0. -1.
</event>
<event>
 6    1  0.2412631E-010  0.1015685E+03  0.7561462E-02  0.1277032E+00
          2   -1    0    0  501    0  0.00000000000E+00  0.00000000000E+00  0.92593455885E+03  0.92593455885E+03  0.00000000000E+00 0. -1.
         -2   -1    0    0    0  501 -0.00000000000E+00 -0.00000000000E+00 -0.22224171711E+02  0.22224171711E+02  0.00000000000E+00 0.  1.
          5    1    1    2  502    0  0.25443893082E+02 -0.54885831502E+02  0.53229168239E+03  0.53573477929E+03  0.41800000000E+01 0.  1.
         -5    1    1    2    0  502  0.43784990218E+02  0.38620072001E+02  0.13809532625E+03  0.14998808906E+03  0.41800000000E+01 0.  1.
        -11    1    1    2    0    0 -0.43405397566E+02  0.31817710702E+02  0.22473814607E+03  0.23109225334E+03  0.00000000000E+00 0. -1.
         11    1    1    2    0    0 -0.25823485734E+02 -0.15551951201E+02  0.85852324336E+01  0.31343608879E+02  0.00000000000E+00 0.  1.
</event>
<event>
 6    1  0.2412631E-010  0.1646368E+03  0.7561462E-02  0.1183559E+00
          2   -1    0    0  501    0  0.00000000000E+00  0.00000000000E+00  0.88186203785E+03  0.88186203785E+03  0.00000000000E+00 0. -1.
         -2   -1    0    0    0  501 -0.00000000000E+00 -0.00000000000E+00 -0.38932169699E+02  0.38932169699E+02  0.00000000000E+00 0.  1.
          5    1    1    2  502    0 -0.91881924981E+00  0.38046180330E+02  0.26911746209E+03  0.27182721878E+03  0.41800000000E+01 0.  1.
         -5    1    1    2    0  502  0.13155497458E+03  0.14328124288E+02  0.30819777464E+03  0.33543307407E+03  0.41800000000E+01 0.  1.
        -11    1    1    2    0    0 -0.12632839228E+03 -0.22391131437E+02  0.16836910607E+03  0.21167990302E+03  0.00000000000E+00 0.  1.
         11    1    1    2    0    0 -0.43077630578E+01 -0.29983173181E+02  0.97245525343E+02  0.10185401168E+03  0.00000000000E+00 0. -1.
</event>
<event>
 6    1  0.2412631E-010  0.1263731E+03  0.7561462E-02  0.1232939E+00
         -2   -1    0    0    0  501 -0.00000000000E+00  0.00000000000E+00  0.17055391934E+02  0.17055391934E+02  0.00000000000E+00 0.  1.
          2   -1    0    0  501    0  0.00000000000E+00 -0.00000000000E+00 -0.10707983528E+04  0.10707983528E+04  0.00000000000E+00 0. -1.
          5    1    1    2  502    0 -0.29905919166E+02 -0.47465533577E+01 -0.25718863605E+03  0.25899876580E+03  0.41800000000E+01 0. -1.
         -5    1    1    2    0  502  0.90269670394E+02 -0.46441541334E+02 -0.26787525168E+03  0.28649616580E+03  0.41800000000E+01 0. -1.
        -11    1    1    2    0    0  0.11381519426E+02  0.47383197129E+02 -0.19070899360E+03  0.19683654792E+03  0.00000000000E+00 0.  1.
         11    1    1    2    0    0 -0.71745270654E+02  0.38048975632E+01 -0.33797007953E+03  0.34552226523E+03  0.00000000000E+00 0. -1.
</event>
<event>
 7    1  0.2412631E-010  0.9275789E+02  0.7561462E-02  0.1296307E+00
         -1   -1    0    0    0  501 -0.00000000000E+00  0.00000000000E+00  0.96935088153E+02  0.96935088153E+02  0.00000000000E+00 0.  1.
          1   -1    0    0  501    0  0.00000000000E+00 -0.00000000000E+00 -0.18097294506E+03  0.18097294506E+03  0.00000000000E+00 0. -1.
         25    2    1    2    0    0 -0.13415643081E+01 -0.14641800672E+02 -0.13070033599E+03  0.18153069185E+03  0.12511847239E+03 0.  0.
          5    1    3    3  502    0  0.49199684997E+02 -0.24891568810E+02 -0.19068653831E+02  0.58491752927E+02  0.41800000000E+01 0. -1.
         -5    1    3    3    0  502 -0.50541249305E+02  0.10249768137E+02 -0.11163168216E+03  0.12303893892E+03  0.41800000000E+01 0. -1.
        -11    1    1    2    0    0 -0.32589986407E+02  0.27047782471E+02  0.42517645941E+02  0.60011998525E+02  0.00000000000E+00 0.  1.
         11    1    1    2    0    0  0.33931550715E+02 -0.12405981798E+02  0.41448331440E+01  0.36365342843E+02  0.00000000000E+00 0. -1.
</event>
<event>
 7    1  0.2412631E-010  0.1188756E+03  0.7561462E-02  0.1244964E+00
         -2   -1    0    0    0  501 -0.00000000000E+00  0.00000000000E+00  0.66027093494E+02  0.66027093494E+02  0.00000000000E+00 0.  1.
          2   -1    0    0  501    0  0.00000000000E+00 -0.00000000000E+00 -0.32295070843E+03  0.32295070843E+03  0.00000000000E+00 0. -1.
         25    2    1    2    0    0 -0.29368836444E+02 -0.87515354675E+02 -0.18811913842E+03  0.24401472060E+03  0.12503162709E+03 0.  0.
          5    1    3    3  502    0  0.34055778501E+02 -0.60288932791E+02 -0.38849152635E+02  0.79506481037E+02  0.41800000000E+01 0. -1.
         -5    1    3    3    0  502 -0.63424614945E+02 -0.27226421884E+02 -0.14926998578E+03  0.16450823957E+03  0.41800000000E+01 0. -1.
        -11    1    1    2    0    0  0.18306496747E+02  0.86167250189E+02 -0.86881631330E+02  0.12372687942E+03  0.00000000000E+00 0. -1.
         11    1    1    2    0    0  0.11062339697E+02  0.13481044858E+01  0.18077154810E+02  0.21236201904E+02  0.00000000000E+00 0.  1.
</event>
<event>
 7    1  0.2412631E-010  0.1116948E+03  0.7561462E-02  0.1257463E+00
          2   -1    0    0  501    0  0.00000000000E+00  0.00000000000E+00  0.17371541950E+03  0.17371541950E+03  0.00000000000E+00 0. -1.
         -2   -1    0    0    0  501 -0.00000000000E+00 -0.00000000000E+00 -0.94115642660E+02  0.94115642660E+02  0.00000000000E+00 0.  1.
         25    2    1    2    0    0 -0.65005363501E+02 -0.52405216518E+02  0.85875814482E+02  0.17321302444E+03  0.12512430748E+03 0.  0.
          5    1    3    3  502    0  0.23441414810E+02  0.10649513995E+02  0.53941080167E+02  0.59916814053E+02  0.41800000000E+01 0.  1.
         -5    1    3    3    0  502 -0.88446778311E+02 -0.63054730512E+02  0.31934734315E+02  0.11329621039E+03  0.41800000000E+01 0.  1.
        -11    1    1    2    0    0  0.48915546969E+02  0.53481136346E+02  0.82104615381E+01  0.72940896339E+02  0.00000000000E+00 0. -1.
         11    1    1    2    0    0  0.16089816532E+02 -0.10759198280E+01 -0.14486499183E+02  0.21677141373E+02  0.00000000000E+00 0.  1.
</event>
<event>
 7    1  0.2412631E-010  0.1234587E+03  0.7561462E-02  0.1237498E+00
         -2   -1    0    0    0  501 -0.00000000000E+00  0.00000000000E+00  0.12007616813E+03  0.12007616813E+03  0.00000000000E+00 0.  1.
          2   -1    0    0  501    0  0.00000000000E+00 -0.00000000000E+00 -0.21912322587E+03  0.21912322587E+03  0.00000000000E+00 0. -1.
         25    2    1    2    0    0  0.11343367366E+03  0.37487181979E+02 -0.40581591066E+02  0.17765111105E+03  0.12506224286E+03 0.  0.
          5    1    3    3  502    0  0.25420037104E+02  0.23502628052E+02  0.43025597446E+02  0.55382544608E+02  0.41800000000E+01 0.  1.
         -5    1    3    3    0  502  0.88013636555E+02  0.13984553927E+02 -0.83607188512E+02  0.12226856644E+03  0.41800000000E+01 0.  1.
        -11    1    1    2    0    0 -0.96021245837E+02 -0.42057436389E+02 -0.47933292202E+01  0.10493752243E+03  0.00000000000E+00 0.  1.
         11    1    1    2    0    0 -0.17412427822E+02  0.45702544101E+01 -0.53672137452E+02  0.56610760520E+02  0.00000000000E+00 0. -1.
</event>
<event>
 6    1  0.2412631E-010  0.1319433E+03  0.7561462E-02  0.1224600E+00
          2   -1    0    0  501    0  0.00000000000E+00  0.00000000000E+00  0.34053980114E+03  0.34053980114E+03  0.00000000000E+00 0.  1.
         -2   -1    0    0    0  501 -0.00000000000E+00 -0.00000000000E+00 -0.59054830114E+02  0.59054830114E+02  0.00000000000E+00 0. -1.
          5    1    1    2  502    0  0.28022119324E+01  0.24341452816E+02  0.39039116897E+00  0.24859274370E+02  0.41800000000E+01 0. -1.
         -5    1    1    2    0  502  0.26426216522E+02 -0.10862700288E+03  0.18119563003E+03  0.21294952317E+03  0.41800000000E+01 0. -1.
        -11    1    1    2    0    0  0.15310799408E+02  0.81068571592E+02  0.61700238703E+02  0.10302161586E+03  0.00000000000E+00 0. -1.
         11    1    1    2    0    0 -0.44539227862E+02  0.32169784717E+01  0.38198711123E+02  0.58764217858E+02  0.00000000000E+00 0.  1.
</event>
<event>
 6    1  0.2412631E-010  0.1007349E+03  0.7561462E-02  0.1278758E+00
         -2   -1    0    0    0  501 -0.00000000000E+00  0.00000000000E+00  0.24917268924E+02  0.24917268924E+02  0.00000000000E+00 0.  1.
          2   -1    0    0  501    0  0.00000000000E+00 -0.00000000000E+00 -0.74736170385E+03  0.74736170385E+03  0.00000000000E+00 0. -1.
          5    1    1    2  502    0  0.13812669167E+02  0.60070490971E+02 -0.25927217769E+03  0.26653102679E+03  0.41800000000E+01 0.  1.
         -5    1    1    2    0  502  0.23718970610E+02 -0.83047991737E+01  0.30308048549E+01  0.25655748560E+02  0.41800000000E+01 0.  1.
        -11    1    1    2    0    0  0.13670114988E+02  0.21109992450E+02 -0.12087175784E+03  0.12346046196E+03  0.00000000000E+00 0.  1.
         11    1    1    2    0    0 -0.51201754765E+02 -0.72875684246E+02 -0.34533130425E+03  0.35663173546E+03  0.00000000000E+00 0. -1.
</event>
<event>
 7    1  0.2412631E-010  0.1836423E+03  0.7561462E-02  0.1164324E+00
         -2   -1    0    0    0  501 -0.00000000000E+00  0.00000000000E+00  0.43752383165E+02  0.43752383165E+02  0.00000000000E+00 0. -1.
          2   -1    0    0  501    0  0.00000000000E+00 -0.00000000000E+00 -0.83369824691E+03  0.83369824691E+03  0.00000000000E+00 0.  1.
         25    2    1    2    0    0  0.15305532119E+03  0.27391546022E+02 -0.46094398110E+03  0.50228222961E+03  0.12506740716E+03 0.  0.
          5    1    3    3  502    0  0.15326743805E+03  0.61456322822E+02 -0.37772927301E+03  0.41226770826E+03  0.41800000000E+01 0. -1.
         -5    1    3    3    0  502 -0.21211686866E+00 -0.34064776800E+02 -0.83214708093E+02  0.90014521356E+02  0.41800000000E+01 0. -1.
        -11    1    1    2    0    0 -0.11807755441E+03 -0.47685081652E+02 -0.17810199047E+03  0.21894404509E+03  0.00000000000E+00 0. -1.
         11    1    1    2    0    0 -0.34977766777E+02  0.20293535630E+02 -0.15089989216E+03  0.15622435537E+03  0.00000000000E+00 0.  1.
</event>
<event>
 6    1  0.2412631E-010  0.1024418E+03  0.7561462E-02  0.1275243E+00
          2   -1    0    0  501    0  0.00000000000E+00  0.00000000000E+00  0.75396541390E+03  0.75396541390E+03  0.00000000000E+00 0. -1.
         -2   -1    0    0    0  501 -0.00000000000E+00 -0.00000000000E+00 -0.27157997762E+02  0.27157997762E+02  0.00000000000E+00 0.  1.
          5    1    1    2  502    0  0.62546687306E+02  0.18939215595E+02  0.17424808616E+03  0.18614685039E+03  0.41800000000E+01 0. -1.
         -5    1    1    2    0  502 -0.37545163454E+02  0.13858810043E+02  0.45145059642E+03  0.45324035492E+03  0.41800000000E+01 0. -1.
        -11    1    1    2    0    0 -0.25226119842E+02  0.28386009318E+02  0.42778465018E+02  0.57202445023E+02  0.00000000000E+00 0. -1.
         11    1    1    2    0    0  0.22459598972E+00 -0.61184034955E+02  0.58330268531E+02  0.84533761325E+02  0.00000000000E+00 0.  1.
</event>
<event>
 6    1  0.2412631E-010  0.5879628E+02  0.7561462E-02  0.1402954E+00
         -1   -1    0    0    0  501 -0.00000000000E+00  0.00000000000E+00  0.62188815660E+02  0.62188815660E+02  0.00000000000E+00 0.  1.
          1   -1    0    0  501    0  0.00000000000E+00 -0.00000000000E+00 -0.24986006519E+03  0.24986006519E+03  0.00000000000E+00 0. -1.
          5    1    1    2  502    0  0.17676354322E+01 -0.90078323521E+01 -0.19641775171E+03  0.19667656487E+03  0.41800000000E+01 0. -1.
         -5    1    1    2    0  502  0.38605372367E+01  0.14170066102E+02  0.16723110291E+02  0.22645735557E+02  0.41800000000E+01 0. -1.
        -11    1    1    2    0    0 -0.13736601674E+02  0.42099551932E+02 -0.12211076247E+01  0.44300762999E+02  0.00000000000E+00 0.  1.
         11    1    1    2    0    0  0.81084290055E+01 -0.47261785682E+02 -0.67555004810E+01  0.48425817428E+02  0.00000000000E+00 0. -1.
</event>
<event>
 6    1  0.2412631E-010  0.7963603E+02  0.7561462E-02  0.1330088E+00
         -1   -1    0    0    0  501 -0.00000000000E+00  0.00000000000E+00  0.60896136352E+02  0.60896136352E+02  0.00000000000E+00 0.  1.
          1   -1    0    0  501    0  0.00000000000E+00 -0.00000000000E+00 -0.29483499577E+03  0.29483499577E+03  0.00000000000E+00 0. -1.
          5    1    1    2  502    0 -0.16304406347E+02  0.59469753855E+02 -0.30326523937E+02  0.68845157739E+02  0.41800000000E+01 0. -1.
         -5    1    1    2    0  502  0.12983439072E+02 -0.98284259470E+01 -0.18123932892E+03  0.18201740135E+03  0.41800000000E+01 0. -1.
        -11    1    1    2    0    0 -0.74806401332E+01  0.14122872589E+02  0.21448297556E+02  0.26747803181E+02  0.00000000000E+00 0.  1.
         11    1    1    2    0    0  0.10801607409E+02 -0.63764200497E+02 -0.43821304116E+02  0.78120769851E+02  0.00000000000E+00 0. -1.
</event>
<event>
 7    1  0.2412631E-010  0.1098459E+03  0.7561462E-02  0.1260856E+00
          2   -1    0    0  501    0  0.00000000000E+00  0.00000000000E+00  0.12598886840E+03  0.12598886840E+03  0.00000000000E+00 0. -1.
         -2   -1    0    0    0  501 -0.00000000000E+00 -0.00000000000E+00 -0.21873920397E+03  0.21873920397E+03  0.00000000000E+00 0.  1.
         25    2    1    2    0    0 -0.93224874907E+02  0.41779368856E+02 -0.12531621204E+03  0.20445213513E+03  0.12514043949E+03 0.  0.
          5    1    3    3  502    0 -0.75013013667E+02  0.33581899560E+02 -0.15080792065E+03  0.17179987639E+03  0.41800000000E+01 0. -1.
         -5    1    3    3    0  502 -0.18211861241E+02  0.81974692962E+01  0.25491708612E+02  0.32652258738E+02  0.41800000000E+01 0. -1.
        -11    1    1    2    0    0  0.87245988048E+02 -0.13736278557E+02  0.54845391792E+02  0.10396424760E+03  0.00000000000E+00 0. -1.
         11    1    1    2    0    0  0.59788868588E+01 -0.28043090299E+02 -0.22279515320E+02  0.36311689639E+02  0.00000000000E+00 0.  1.
</event>
<event>
 7    1  0.2412631E-010  0.3310598E+03  0.7561462E-02  0.1070669E+00
         -2   -1    0    0    0  501 -0.00000000000E+00  0.00000000000E+00  0.48487645588E+02  0.48487645588E+02  0.00000000000E+00 0. -1.
          2   -1    0    0  501    0  0.00000000000E+00 -0.00000000000E+00 -0.24717313492E+04  0.24717313492E+04  0.00000000000E+00 0.  1.
         25    2    1    2    0    0 -0.27333092265E+02  0.31640531668E+03 -0.91900148130E+03  0.98034529255E+03  0.12511493766E+03 0.  0.
          5    1    3    3  502    0  0.10285444377E+02 -0.74662467035E+01 -0.61512520696E+02  0.62950757011E+02  0.41800000000E+01 0. -1.
         -5    1    3    3    0  502 -0.37618536641E+02  0.32387156338E+03 -0.85748896061E+03  0.91739453554E+03  0.41800000000E+01 0. -1.
        -11    1    1    2    0    0  0.38732202902E+02 -0.12369441233E+03 -0.76157185650E+03  0.77252325777E+03  0.00000000000E+00 0.  1.
         11    1    1    2    0    0 -0.11399110638E+02 -0.19271090435E+03 -0.74267036577E+03  0.76735044443E+03  0.00000000000E+00 0. -1.
</event>
<event>
 6    1  0.2412631E-010  0.1225942E+03  0.7561462E-02  0.1238878E+00
         -1   -1    0    0    0  501 -0.00000000000E+00  0.00000000000E+00  0.16195935368E+03  0.16195935368E+03  0.00000000000E+00 0.  1.
          1   -1    0    0  501    0  0.00000000000E+00 -0.00000000000E+00 -0.13003170006E+03  0.13003170006E+03  0.00000000000E+00 0. -1.
          5    1    1    2  502    0 -0.38905606720E+02 -0.18132140720E+02 -0.56208749236E+02  0.70847135807E+02  0.41800000000E+01 0.  1.
         -5    1    1    2    0  502 -0.37896951689E+02  0.64128800192E+02  0.38676577022E+02  0.84035896922E+02  0.41800000000E+01 0.  1.
        -11    1    1    2    0    0  0.21703600539E+02 -0.65503313343E+02  0.21225619579E+02  0.72195964304E+02  0.00000000000E+00 0. -1.
         11    1    1    2    0    0  0.55098957870E+02  0.19506653871E+02  0.28234206257E+02  0.64912056712E+02  0.00000000000E+00 0.  1.
</event>
<event>
 7    1  0.2412631E-010  0.1126415E+03  0.7561462E-02  0.1255755E+00
          1   -1    0    0  501    0  0.00000000000E+00  0.00000000000E+00  0.51589583987E+02  0.51589583987E+02  0.00000000000E+00 0. -1.
         -1   -1    0    0    0  501 -0.00000000000E+00 -0.00000000000E+00 -0.39047534013E+03  0.39047534013E+03  0.00000000000E+00 0.  1.
         25    2    1    2    0    0  0.92028171870E+02 -0.84258838679E+01 -0.17087237385E+03  0.23103435466E+03  0.12505728669E+03 0.  0.
          5    1    3    3  502    0  0.10053201128E+03 -0.14179000155E+02 -0.18619787060E+03  0.21211989240E+03  0.41800000000E+01 0.  1.
         -5    1    3    3    0  502 -0.85038394100E+01  0.57531162869E+01  0.15325496754E+02  0.18914462258E+02  0.41800000000E+01 0.  1.
        -11    1    1    2    0    0  0.31973647527E+01 -0.14326241371E+02 -0.73489665054E+02  0.74941278365E+02  0.00000000000E+00 0.  1.
         11    1    1    2    0    0 -0.95225536623E+02  0.22752125239E+02 -0.94523717240E+02  0.13608929109E+03  0.00000000000E+00 0. -1.
</event>
<event>
 7    1  0.2412631E-010  0.8764260E+02  0.7561462E-02  0.1308663E+00
         -2   -1    0    0    0  501 -0.00000000000E+00  0.00000000000E+00  0.33827901304E+02  0.33827901304E+02  0.00000000000E+00 0.  1.
          2   -1    0    0  501    0  0.00000000000E+00 -0.00000000000E+00 -0.54280928586E+03  0.54280928586E+03  0.00000000000E+00 0. -1.
         25    2    1    2    0    0 -0.22922401508E+02  0.75139927883E+02 -0.23560438921E+03  0.27809108770E+03  0.12511506540E+03 0.  0.
          5    1    3    3  502    0 -0.13103104567E+02  0.16036399144E+02 -0.21280310702E+03  0.21384922774E+03  0.41800000000E+01 0. -1.
         -5    1    3    3    0  502 -0.98192969417E+01  0.59103528739E+02 -0.22801282193E+02  0.64241859963E+02  0.41800000000E+01 0. -1.
        -11    1    1    2    0    0 -0.62012752767E+01 -0.61723090507E+02 -0.25313656539E+03  0.26062677616E+03  0.00000000000E+00 0. -1.
         11    1    1    2    0    0  0.29123676785E+02 -0.13416837376E+02 -0.20240429951E+02  0.37919323296E+02  0.00000000000E+00 0.  1.
</event>
<event>
 7    1  0.2412631E-010  0.2318369E+03  0.7561462E-02  0.1125354E+00
         -1   -1    0    0    0  501 -0.00000000000E+00  0.00000000000E+00  0.13793198629E+03  0.13793198629E+03  0.00000000000E+00 0.  1.
          1   -1    0    0  501    0  0.00000000000E+00 -0.00000000000E+00 -0.40547193186E+03  0.40547193186E+03  0.00000000000E+00 0. -1.
         25    2    1    2    0    0 -0.17417667116E+03  0.11578966238E+03 -0.12676624740E+03  0.27469282439E+03  0.12506681254E+03 0.  0.
          5    1    3    3  502    0  0.90038406085E+01  0.46826717182E+02 -0.27120233907E+02  0.55016271001E+02  0.41800000000E+01 0.  1.
         -5    1    3    3    0  502 -0.18318051177E+03  0.68962945202E+02 -0.99646013493E+02  0.21967655338E+03  0.41800000000E+01 0.  1.
        -11    1    1    2    0    0  0.97748129117E+02 -0.24122120322E+02 -0.10175482389E+03  0.14314544219E+03  0.00000000000E+00 0. -1.
         11    1    1    2    0    0  0.76428542041E+02 -0.91667542062E+02 -0.39018874277E+02  0.12556565158E+03  0.00000000000E+00 0.  1.
</event>
<event>
 7    1  0.2412631E-010  0.6250781E+02  0.7561462E-02  0.1387599E+00
          3   -1    0    0  501    0  0.00000000000E+00  0.00000000000E+00  0.12099841158E+03  0.12099841158E+03  0.00000000000E+00 0. -1.
         -3   -1    0    0    0  501 -0.00000000000E+00 -0.00000000000E+00 -0.13216977719E+03  0.13216977719E+03  0.00000000000E+00 0.  1.
         25    2    1    2    0    0  0.38992790790E+02  0.29636232204E+02 -0.50081560271E+02  0.14334397438E+03  0.12506233773E+03 0.  0.
          5    1    3    3  502    0  0.13579251335E+02  0.67687745966E+00 -0.87989405675E+02  0.89131712319E+02  0.41800000000E+01 0.  1.
         -5    1    3    3    0  502  0.25413539455E+02  0.28959354744E+02  0.37907845404E+02  0.54212262063E+02  0.41800000000E+01 0.  1.
        -11    1    1    2    0    0 -0.25942971115E+02  0.11868074674E+02 -0.21255076321E+02  0.35576217002E+02  0.00000000000E+00 0.  1.
         11    1    1    2    0    0 -0.13049819675E+02 -0.41504306878E+02  0.60165270979E+02  0.74247997380E+02  0.00000000000E+00 0. -1.
</event>
<event>
 7    1  0.2412631E-010  0.9298953E+02  0.7561462E-02  0.1295769E+00
         -2   -1    0    0    0  501 -0.00000000000E+00  0.00000000000E+00  0.23035498296E+02  0.23035498296E+02  0.00000000000E+00 0.  1.
          2   -1    0    0  501    0  0.00000000000E+00 -0.00000000000E+00 -0.10950233248E+04  0.10950233248E+04  0.00000000000E+00 0. -1.
         25    2    1    2    0    0 -0.84948014975E+02 -0.18548920145E+02 -0.84130675145E+03  0.85497969267E+03  0.12503198451E+03 0.  0.
          5    1    3    3  502    0  0.12000330323E+01  0.75434267547E+01  0.15331071587E+00  0.87085745480E+01  0.41800000000E+01 0.  1.
         -5    1    3    3    0  502 -0.86148048008E+02 -0.26092346900E+02 -0.84146006217E+03  0.84627111812E+03  0.41800000000E+01 0.  1.
        -11    1    1    2    0    0  0.44726908460E+02  0.66556342960E+01 -0.22115031362E+02  0.50337544839E+02  0.00000000000E+00 0.  1.
         11    1    1    2    0    0  0.40221106515E+02  0.11893285849E+02 -0.20856604367E+03  0.21274158557E+03  0.00000000000E+00 0. -1.
</event>
<event>
 7    1  0.2412631E-010  0.1235769E+03  0.7561462E-02  0.1237310E+00
          2   -1    0    0  501    0  0.00000000000E+00  0.00000000000E+00  0.69469152557E+03  0.69469152557E+03  0.00000000000E+00 0. -1.
         -2   -1    0    0    0  501 -0.00000000000E+00 -0.00000000000E+00 -0.28156868577E+02  0.28156868577E+02  0.00000000000E+00 0.  1.
         25    2    1    2    0    0 -0.81011432836E+02 -0.22912625273E+02  0.42756126819E+03  0.45337749326E+03  0.12511863446E+03 0.  0.
          5    1    3    3  502    0 -0.77214338441E+02 -0.60774579432E+02  0.37893802849E+03  0.39149342958E+03  0.41800000000E+01 0. -1.
         -5    1    3    3    0  502 -0.37970943950E+01  0.37861954160E+02  0.48623239698E+02  0.61884063678E+02  0.41800000000E+01 0. -1.
        -11    1    1    2    0    0  0.25708242567E+02 -0.26092637388E+02  0.28522650694E+02  0.46425004732E+02  0.00000000000E+00 0.  1.
         11    1    1    2    0    0  0.55303190269E+02  0.49005262661E+02  0.21045073811E+03  0.22304589616E+03  0.00000000000E+00 0. -1.
</event>
<event>
 7    1  0.2412631E-010  0.1265477E+03  0.7561462E-02  0.1232670E+00
          1   -1    0    0  501    0  0.00000000000E+00  0.00000000000E+00  0.42980288342E+03  0.42980288342E+03  0.00000000000E+00 0. -1.
         -1   -1    0    0    0  501 -0.00000000000E+00 -0.00000000000E+00 -0.49924476002E+02  0.49924476002E+02  0.00000000000E+00 0.  1.
         25    2    1    2    0    0  0.85744136132E+02 -0.23946447770E+02  0.14129389734E+03  0.20863616247E+03  0.12505836086E+03 0.  0.
          5    1    3    3  502    0  0.29138901509E+02 -0.72745141608E+02  0.67249912824E+02  0.10334870286E+03  0.41800000000E+01 0.  1.
         -5    1    3    3    0  502  0.56605234623E+02  0.48798693838E+02  0.74043984514E+02  0.10528745960E+03  0.41800000000E+01 0.  1.
        -11    1    1    2    0    0 -0.69715682091E+02 -0.14556322322E+01  0.66336944778E+02  0.96244404705E+02  0.00000000000E+00 0.  1.
         11    1    1    2    0    0 -0.16028454041E+02  0.25402080003E+02  0.17224756531E+03  0.17484679225E+03  0.00000000000E+00 0. -1.
</event>
<event>
 7    1  0.2412631E-010  0.1103554E+03  0.7561462E-02  0.1259913E+00
         -1   -1    0    0    0  501 -0.00000000000E+00  0.00000000000E+00  0.42466026864E+02  0.42466026864E+02  0.00000000000E+00 0.  1.
          1   -1    0    0  501    0  0.00000000000E+00 -0.00000000000E+00 -0.43531887118E+03  0.43531887118E+03  0.00000000000E+00 0. -1.
         25    2    1    2    0    0  0.35966177209E+02 -0.37791823560E+02 -0.34253617239E+03  0.36838333350E+03  0.12511380088E+03 0.  0.
          5    1    3    3  502    0 -0.26522191673E+02  0.25472497827E+02 -0.17280635750E+03  0.17672516626E+03  0.41800000000E+01 0.  1.
         -5    1    3    3    0  502  0.62488368882E+02 -0.63264321387E+02 -0.16972981489E+03  0.19165816723E+03  0.41800000000E+01 0.  1.
        -11    1    1    2    0    0  0.13319770711E+02  0.43098090952E+02 -0.36260456832E+02  0.57876441366E+02  0.00000000000E+00 0. -1.
         11    1    1    2    0    0 -0.49285947920E+02 -0.53062673918E+01 -0.14056215091E+02  0.51525123180E+02  0.00000000000E+00 0.  1.
</event>
<event>
 7    1  0.2412631E-010  0.9960860E+02  0.7561462E-02  0.1281121E+00
         -2   -1    0    0    0  501 -0.00000000000E+00  0.00000000000E+00  0.91300934222E+02  0.91300934222E+02  0.00000000000E+00 0. -1.
          2   -1    0    0  501    0  0.00000000000E+00 -0.00000000000E+00 -0.15730854673E+03  0.15730854673E+03  0.00000000000E+00 0.  1.
         25    2    1    2    0    0 -0.13982302629E+02 -0.24164199490E+02 -0.80320505732E+02  0.15122850440E+03  0.12505704129E+03 0.  0.
          5    1    3    3  502    0  0.41887406895E+02 -0.36986752447E+02 -0.46823310970E+01  0.56231408817E+02  0.41800000000E+01 0. -1.
         -5    1    3    3    0  502 -0.55869709524E+02  0.12822552957E+02 -0.75638174635E+02  0.94997095581E+02  0.41800000000E+01 0. -1.
        -11    1    1    2    0    0 -0.28294331050E+02  0.31994599694E+02  0.29359373625E+02  0.51828528812E+02  0.00000000000E+00 0. -1.
         11    1    1    2    0    0  0.42276633679E+02 -0.78304002042E+01 -0.15046480397E+02  0.45552447738E+02  0.00000000000E+00 0.  1.
</event>
<event>
 7    1  0.2412631E-010  0.1351492E+03  0.7561462E-02  0.1220009E+00
         -1   -1    0    0    0  501 -0.00000000000E+00  0.00000000000E+00  0.58843608427E+02  0.58843608427E+02  0.00000000000E+00 0.  1.
          1   -1    0    0  501    0  0.00000000000E+00 -0.00000000000E+00 -0.41280140660E+03  0.41280140660E+03  0.00000000000E+00 0. -1.
         25    2    1    2    0    0  0.60926983408E+02  0.82454289174E+02 -0.12341412113E+03  0.20342704996E+03  0.12506283321E+03 0.  0.
          5    1    3    3  502    0 -0.12225556957E+02  0.72018967040E+02 -0.19271371708E+02  0.75664086751E+02  0.41800000000E+01 0.  1.
         -5    1    3    3    0  502  0.73152540365E+02  0.10435322134E+02 -0.10414274942E+03  0.12776296321E+03  0.41800000000E+01 0.  1.
        -11    1    1    2    0    0 -0.12512697668E+02 -0.72652235236E+02 -0.19167171802E+03  0.20536056675E+03  0.00000000000E+00 0. -1.
         11    1    1    2    0    0 -0.48414285740E+02 -0.98020539380E+01 -0.38871959024E+02  0.62857398319E+02  0.00000000000E+00 0.  1.
</event>
<event>
 7    1  0.2412631E-010  0.1200013E+03  0.7561462E-02  0.1243095E+00
         -2   -1    0    0    0  501 -0.00000000000E+00  0.00000000000E+00  0.29731603845E+02  0.29731603845E+02  0.00000000000E+00 0.  1.
          2   -1    0    0  501    0  0.00000000000E+00 -0.00000000000E+00 -0.64431243965E+03  0.64431243965E+03  0.00000000000E+00 0. -1.
         25    2    1    2    0    0  0.77607293462E+02 -0.31726189803E+02 -0.34759856122E+03  0.37879755443E+03  0.12503353295E+03 0.  0.
          5    1    3    3  502    0  0.87497969451E+02 -0.79665870821E+01 -0.11519986751E+03  0.14494082600E+03  0.41800000000E+01 0. -1.
         -5    1    3    3    0  502 -0.98906759885E+01 -0.23759602720E+02 -0.23239869371E+03  0.23385672842E+03  0.41800000000E+01 0. -1.
        -11    1    1    2    0    0 -0.25033451984E+02  0.60899867272E+02 -0.13399387769E+03  0.14929777899E+03  0.00000000000E+00 0.  1.
         11    1    1    2    0    0 -0.52573841478E+02 -0.29173677469E+02 -0.13298839690E+03  0.14594871008E+03  0.00000000000E+00 0. -1.
</event>
<event>
 7    1  0.2412631E-010  0.1961779E+03  0.7561462E-02  0.1153004E+00
          2   -1    0    0  501    0  0.00000000000E+00  0.00000000000E+00  0.74449526269E+03  0.74449526269E+03  0.00000000000E+00 0. -1.
         -2   -1    0    0    0  501 -0.00000000000E+00 -0.00000000000E+00 -0.54608729245E+02  0.54608729245E+02  0.00000000000E+00 0.  1.
         25    2    1    2    0    0 -0.14917775572E+03  0.77223192632E+02  0.32363514208E+03  0.38549968992E+03  0.12511147614E+03 0.  0.
          5    1    3    3  502    0 -0.66701240487E+02  0.99343680719E+02  0.22574526726E+03  0.25553203414E+03  0.41800000000E+01 0. -1.
         -5    1    3    3    0  502 -0.82476515231E+02 -0.22120488087E+02  0.97889874812E+02  0.12996765578E+03  0.41800000000E+01 0. -1.
        -11    1    1    2    0    0  0.98534406945E+02 -0.46631625271E+01  0.14557859594E+03  0.17585193213E+03  0.00000000000E+00 0.  1.
         11    1    1    2    0    0  0.50643348773E+02 -0.72560030105E+02  0.22067279542E+03  0.23775236988E+03  0.00000000000E+00 0. -1.
</event>
<event>
 6    1  0.2412631E-010  0.1745421E+03  0.7561462E-02  0.1173192E+00
          1   -1    0    0  501    0  0.00000000000E+00  0.00000000000E+00  0.72194465501E+02  0.72194465501E+02  0.00000000000E+00 0. -1.
         -1   -1    0    0    0  501 -0.00000000000E+00 -0.00000000000E+00 -0.59415013077E+03  0.59415013077E+03  0.00000000000E+00 0.  1.
          5    1    1    2  502    0  0.49462935742E+02  0.10714514633E+02 -0.23844970681E+02  0.56102030826E+02  0.41800000000E+01 0.  1.
         -5    1    1    2    0  502  0.77870378630E+02  0.90498682131E+02 -0.35712987054E+03  0.37658070073E+03  0.41800000000E+01 0.  1.
        -11    1    1    2    0    0 -0.10614387614E+03 -0.38942391270E+02 -0.11939583590E+03  0.16443356686E+03  0.00000000000E+00 0.  1.
         11    1    1    2    0    0 -0.21189438230E+02 -0.62270805494E+02 -0.21584988148E+02  0.69228297846E+02  0.00000000000E+00 0. -1.
</event>
<event>
 7    1  0.2412631E-010  0.2561056E+03  0.7561462E-02  0.1109506E+00
         -1   -1    0    0    0  501 -0.00000000000E+00  0.00000000000E+00  0.19541781907E+03  0.19541781907E+03  0.00000000000E+00 0.  1.
          1   -1    0    0  501    0  0.00000000000E+00 -0.00000000000E+00 -0.87681916512E+03  0.87681916512E+03  0.00000000000E+00 0. -1.
         25    2    1    2    0    0  0.81490472306E+02  0.22610945595E+03  0.70310761340E+02  0.27991447419E+03  0.12506928701E+03 0.  0.
          5    1    3    3  502    0  0.11024353687E+03  0.17293816915E+03  0.30430113944E+02  0.20737577487E+03  0.41800000000E+01 0.  1.
         -5    1    3    3    0  502 -0.28753064559E+02  0.53171286801E+02  0.39880647396E+02  0.72538699315E+02  0.41800000000E+01 0.  1.
        -11    1    1    2    0    0  0.79119229641E+01 -0.28839576755E+02 -0.53508898305E+02  0.61298628942E+02  0.00000000000E+00 0.  1.
         11    1    1    2    0    0 -0.89402395270E+02 -0.19726987919E+03 -0.69820320909E+03  0.73102388107E+03  0.00000000000E+00 0. -1.
</event>
<event>
 6    1  0.2412631E-010  0.1441080E+03  0.7561462E-02  0.1207906E+00
         -1   -1    0    0    0  501 -0.00000000000E+00  0.00000000000E+00  0.16731043566E+02  0.16731043566E+02  0.00000000000E+00 0.  1.
          1   -1    0    0  501    0  0.00000000000E+00 -0.00000000000E+00 -0.14056381285E+04  0.14056381285E+04  0.00000000000E+00 0. -1.
          5    1    1    2  502    0  0.64974867525E+01 -0.29233031184E+02 -0.19271807842E+03  0.19507567147E+03  0.41800000000E+01 0. -1.
         -5    1    1    2    0  502 -0.24474676547E+02  0.12634279026E+03 -0.78984221999E+03  0.80026852701E+03  0.41800000000E+01 0. -1.
        -11    1    1    2    0    0 -0.22020248542E+02 -0.84439693649E+02 -0.23689670748E+03  0.25245792367E+03  0.00000000000E+00 0.  1.
         11    1    1    2    0    0  0.39997438336E+02 -0.12670065423E+02 -0.16945007902E+03  0.17456704990E+03  0.00000000000E+00 0. -1.
</event>
<event>
 7    1  0.2412631E-010  0.1598874E+03  0.7561462E-02  0.1188824E+00
         -2   -1    0    0    0  501 -0.00000000000E+00  0.00000000000E+00  0.24734012240E+03  0.24734012240E+03  0.00000000000E+00 0.  1.
          2   -1    0    0  501    0  0.00000000000E+00 -0.00000000000E+00 -0.12997390336E+03  0.12997390336E+03  0.00000000000E+00 0. -1.
         25    2    1    2    0    0  0.10992170893E+03 -0.67950272145E+02 -0.27853828735E+01  0.17984828494E+03  0.12505049245E+03 0.  0.
          5    1    3    3  502    0  0.11815149392E+03 -0.87439455330E+02  0.20087119032E+02  0.14841293278E+03  0.41800000000E+01 0. -1.
         -5    1    3    3    0  502 -0.82297849976E+01  0.19489183184E+02 -0.22872501905E+02  0.31435352164E+02  0.41800000000E+01 0. -1.
        -11    1    1    2    0    0 -0.13724669906E+02 -0.17675025878E+02  0.39829966865E+02  0.45685877077E+02  0.00000000000E+00 0.  1.
         11    1    1    2    0    0 -0.96197039021E+02  0.85625298024E+02  0.80321635050E+02  0.15177986373E+03  0.00000000000E+00 0. -1.
</event>
<event>
 6    1  0.2412631E-010  0.1279808E+03  0.7561462E-02  0.1230483E+00
         -1   -1    0    0    0  501 -0.00000000000E+00  0.00000000000E+00  0.46676961981E+03  0.46676961981E+03  0.00000000000E+00 0.  1.
          1   -1    0    0  501    0  0.00000000000E+00 -0.00000000000E+00 -0.44306260460E+02  0.44306260460E+02  0.00000000000E+00 0. -1.
          5    1    1    2  502    0 -0.13078962196E+02 -0.51440303202E+02  0.15384449803E+03  0.16279670150E+03  0.41800000000E+01 0.  1.
         -5    1    1    2    0  502  0.82159446377E+02  0.32680920986E+02  0.18711825891E+03  0.20699983682E+03  0.41800000000E+01 0.  1.
        -11    1    1    2    0    0 -0.82058166986E+02 -0.99842646375E+01  0.67727143819E+02  0.10686530924E+03  0.00000000000E+00 0. -1.
         11    1    1    2    0    0  0.12977682805E+02  0.28743646853E+02  0.13773458584E+02  0.34414032701E+02  0.00000000000E+00 0.  1.
</event>
<event>
 7    1  0.2412631E-010  0.1430547E+03  0.7561462E-02  0.1209277E+00
          3   -1    0    0  501    0  0.00000000000E+00  0.00000000000E+00  0.50848024975E+03  0.50848024975E+03  0.00000000000E+00 0. -1.
         -3   -1    0    0    0  501 -0.00000000000E+00 -0.00000000000E+00 -0.46512029181E+02  0.46512029181E+02  0.00000000000E+00 0.  1.
         25    2    1    2    0    0 -0.98668285320E+02 -0.38471018879E+02  0.28832705014E+03  0.33164761644E+03  0.12506879637E+03 0.  0.
          5    1    3    3  502    0  0.18665340288E+02  0.11696964692E+02  0.83368515869E+01  0.23920480878E+02  0.41800000000E+01 0.  1.
         -5    1    3    3    0  502 -0.11733362561E+03 -0.50167983571E+02  0.27999019856E+03  0.30772713556E+03  0.41800000000E+01 0.  1.
        -11    1    1    2    0    0  0.11129534468E+02  0.46773922096E+02  0.36207943427E+02  0.60188715661E+02  0.00000000000E+00 0. -1.
         11    1    1    2    0    0  0.87538750852E+02 -0.83029032167E+01  0.13743322699E+03  0.16315594683E+03  0.00000000000E+00 0.  1.
</event>
<event>
 7    1  0.2412631E-010  0.7812768E+02  0.7561462E-02  0.1334450E+00
          2   -1    0    0  501    0  0.00000000000E+00  0.00000000000E+00  0.35781697641E+02  0.35781697641E+02  0.00000000000E+00 0. -1.
         -2   -1    0    0    0  501 -0.00000000000E+00 -0.00000000000E+00 -0.40166111166E+03  0.40166111166E+03  0.00000000000E+00 0.  1.
         25    2    1    2    0    0 -0.11688264543E+02 -0.45609284134E+02 -0.25025029697E+03  0.28371767333E+03  0.12511468618E+03 0.  0.
          5    1    3    3  502    0  0.23440196365E+02  0.21894138209E+02 -0.16998335432E+03  0.17303354946E+03  0.41800000000E+01 0. -1.
         -5    1    3    3    0  502 -0.35128460908E+02 -0.67503422343E+02 -0.80266942656E+02  0.11068412387E+03  0.41800000000E+01 0. -1.
        -11    1    1    2    0    0  0.14220204294E+01  0.20796239446E+02  0.11489261535E+02  0.23801446339E+02  0.00000000000E+00 0. -1.
         11    1    1    2    0    0  0.10266244114E+02  0.24813044688E+02 -0.12711837858E+03  0.12992368964E+03  0.00000000000E+00 0.  1.
</event>
<event>
 7    1  0.2412631E-010  0.8684013E+02  0.7561462E-02  0.1310689E+00
         -2   -1    0    0    0  501 -0.00000000000E+00  0.00000000000E+00  0.19695518458E+03  0.19695518458E+03  0.00000000000E+00 0.  1.
          2   -1    0    0  501    0  0.00000000000E+00 -0.00000000000E+00 -0.76547727946E+02  0.76547727946E+02  0.00000000000E+00 0. -1.
         25    2    1    2    0    0 -0.36116160596E+02 -0.43671862568E+02  0.53669417897E+02  0.14739496187E+03  0.12503303456E+03 0.  0.
          5    1    3    3  502    0 -0.82054464438E+00 -0.37030186700E+02  0.89216676431E+02  0.96690205160E+02  0.41800000000E+01 0.  1.
         -5    1    3    3    0  502 -0.35295615951E+02 -0.66416758675E+01 -0.35547258534E+02  0.50704756710E+02  0.41800000000E+01 0.  1.
        -11    1    1    2    0    0 -0.10049625807E+02  0.52322673024E+02  0.57219343209E+02  0.78183823957E+02  0.00000000000E+00 0.  1.
         11    1    1    2    0    0  0.46165786403E+02 -0.86508104558E+01  0.95186955328E+01  0.47924126705E+02  0.00000000000E+00 0. -1.
</event>
<event>
 7    1  0.2412631E-010  0.1151788E+03  0.7561462E-02  0.1251269E+00
          4   -1    0    0  501    0  0.00000000000E+00  0.00000000000E+00  0.34800540970E+03  0.34800540970E+03  0.00000000000E+00 0. -1.
         -4   -1    0    0    0  501 -0.00000000000E+00 -0.00000000000E+00 -0.67513859410E+02  0.67513859410E+02  0.00000000000E+00 0.  1.
         25    2    1    2    0    0  0.82834035605E+02 -0.27038511334E+01  0.26170031147E+03  0.30165904872E+03  0.12506934230E+03 0.  0.
          5    1    3    3  502    0  0.13223009204E+02 -0.57126712449E+02  0.77062745846E+02  0.96924962961E+02  0.41800000000E+01 0.  1.
         -5    1    3    3    0  502  0.69611026401E+02  0.54422861316E+02  0.18463756562E+03  0.20473408575E+03  0.41800000000E+01 0.  1.
        -11    1    1    2    0    0 -0.56211888731E+02  0.47481798634E+01 -0.25685514127E+02  0.61984411610E+02  0.00000000000E+00 0.  1.
         11    1    1    2    0    0 -0.26622146874E+02 -0.20443287300E+01  0.44476752945E+02  0.51875808781E+02  0.00000000000E+00 0. -1.
</event>
<event>
 6    1  0.2412631E-010  0.1723576E+03  0.7561462E-02  0.1175411E+00
          2   -1    0    0  501    0  0.00000000000E+00  0.00000000000E+00  0.48483787973E+03  0.48483787973E+03  0.00000000000E+00 0. -1.
         -2   -1    0    0    0  501 -0.00000000000E+00 -0.00000000000E+00 -0.83131653690E+02  0.83131653690E+02  0.00000000000E+00 0.  1.
          5    1    1    2  502    0 -0.12624498177E+02 -0.17864211480E+02  0.83756056568E+02  0.86666356897E+02  0.41800000000E+01 0. -1.
         -5    1    1    2    0  502  0.15194291077E+03  0.56337287730E+02  0.24908779638E+03  0.29719142118E+03  0.41800000000E+01 0. -1.
        -11    1    1    2    0    0 -0.49549663008E+02  0.19752214885E+02  0.54317405996E+02  0.76129492913E+02  0.00000000000E+00 0. -1.
         11    1    1    2    0    0 -0.89768749586E+02 -0.58225291135E+02  0.14544967098E+02  0.10798226242E+03  0.00000000000E+00 0.  1.
</event>
<event>
 6    1  0.2412631E-010  0.1637617E+03  0.7561462E-02  0.1184514E+00
          1   -1    0    0  501    0  0.00000000000E+00  0.00000000000E+00  0.87530010428E+03  0.87530010428E+03  0.00000000000E+00 0. -1.
         -1   -1    0    0    0  501 -0.00000000000E+00 -0.00000000000E+00 -0.36574784363E+02  0.36574784363E+02  0.00000000000E+00 0.  1.
          5    1    1    2  502    0  0.10255446433E+03  0.15715534185E+02  0.18865849797E+03  0.21534599468E+03  0.41800000000E+01 0.  1.
         -5    1    1    2    0  502 -0.81055333129E+01  0.75953030234E+02  0.10386160967E+03  0.12899328988E+03  0.41800000000E+01 0.  1.
        -11    1    1    2    0    0 -0.32580881500E+02 -0.76995084743E+02  0.22348618633E+03  0.23861230562E+03  0.00000000000E+00 0.  1.
         11    1    1    2    0    0 -0.61868049521E+02 -0.14673479675E+02  0.32271902595E+03  0.32892329846E+03  0.00000000000E+00 0. -1.
</event>
<event>
 7    1  0.2412631E-010  0.4780884E+02  0.7561462E-02  0.1457532E+00
          3   -1    0    0  501    0  0.00000000000E+00  0.00000000000E+00  0.25513243595E+03  0.25513243595E+03  0.00000000000E+00 0. -1.
         -3   -1    0    0    0  501 -0.00000000000E+00 -0.00000000000E+00 -0.53403052030E+02  0.53403052030E+02  0.00000000000E+00 0.  1.
         25    2    1    2    0    0  0.28946863051E+01  0.11224905686E+01  0.54322988982E+02  0.13643268583E+03  0.12511295471E+03 0.  0.
          5    1    3    3  502    0 -0.39213363848E+01 -0.15409435985E+01  0.94851612314E+02  0.95037109303E+02  0.41800000000E+01 0.  1.
         -5    1    3    3    0  502  0.68160226899E+01  0.26634341671E+01 -0.40528623332E+02  0.41395576527E+02  0.41800000000E+01 0.  1.
        -11    1    1    2    0    0 -0.16832571868E+02 -0.38146117487E+02  0.40562598462E+02  0.58170320173E+02  0.00000000000E+00 0.  1.
         11    1    1    2    0    0  0.13937885562E+02  0.37023626918E+02  0.10684379648E+03  0.11393248198E+03  0.00000000000E+00 0. -1.
</event>
<event>
 6    1  0.2412631E-010  0.1140026E+03  0.7561462E-02  0.1253332E+00
          2   -1    0    0  501    0  0.00000000000E+00  0.00000000000E+00  0.24554032123E+03  0.24554032123E+03  0.00000000000E+00 0.  1.
         -2   -1    0    0    0  501 -0.00000000000E+00 -0.00000000000E+00 -0.76588358538E+02  0.76588358538E+02  0.00000000000E+00 0. -1.
          5    1    1    2  502    0  0.12600730649E+01  0.55217180676E+02  0.17155014238E+02  0.57985271746E+02  0.41800000000E+01 0. -1.
         -5    1    1    2    0  502 -0.79512663204E+02 -0.38388462874E+02  0.82439841797E+02  0.12087074752E+03  0.41800000000E+01 0. -1.
        -11    1    1    2    0    0  0.14845212892E+02  0.70926485098E+01  0.73555517830E+02  0.75373073521E+02  0.00000000000E+00 0.  1.
         11    1    1    2    0    0  0.63407377247E+02 -0.23921366312E+02 -0.41984111704E+01  0.67899586979E+02  0.00000000000E+00 0. -1.
</event>
<event>
 7    1  0.2412631E-010  0.8859038E+02  0.7561462E-02  0.1306302E+00
          2   -1    0    0  501    0  0.00000000000E+00  0.00000000000E+00  0.24242150045E+03  0.24242150045E+03  0.00000000000E+00 0. -1.
         -2   -1    0    0    0  501 -0.00000000000E+00 -0.00000000000E+00 -0.70612960938E+02  0.70612960938E+02  0.00000000000E+00 0.  1.
         25    2    1    2    0    0  0.70669799377E+02  0.23262201975E+01  0.11408768592E+03  0.18348949078E+03  0.12511099593E+03 0.  0.
          5    1    3    3  502    0 -0.12722599217E+02 -0.48681997828E+01  0.96895721661E+02  0.97937823011E+02  0.41800000000E+01 0. -1.
         -5    1    3    3    0  502  0.83392398594E+02  0.71944199803E+01  0.17191964257E+02  0.85551667764E+02  0.41800000000E+01 0. -1.
        -11    1    1    2    0    0 -0.67102853521E+02  0.85812546532E+01 -0.30325003809E+01  0.67717257333E+02  0.00000000000E+00 0.  1.
         11    1    1    2    0    0 -0.35669458554E+01 -0.10907474851E+02  0.60753353977E+02  0.61827713283E+02  0.00000000000E+00 0. -1.
</event>
<event>
 6    1  0.2412631E-010  0.1050434E+03  0.7561462E-02  0.1270034E+00
          1   -1    0    0  501    0  0.00000000000E+00  0.00000000000E+00  0.33000048882E+02  0.33000048882E+02  0.00000000000E+00 0. -1.
         -1   -1    0    0    0  501 -0.00000000000E+00 -0.00000000000E+00 -0.49511290607E+03  0.49511290607E+03  0.00000000000E+00 0.  1.
          5    1    1    2  502    0  0.98965550221E+01 -0.38705854218E+02 -0.53742425779E+02  0.67095496724E+02  0.41800000000E+01 0.  1.
         -5    1    1    2    0  502 -0.49290589472E+02  0.68224469608E+02 -0.29090232663E+03  0.30286263636E+03  0.41800000000E+01 0.  1.
        -11    1    1    2    0    0  0.18026252341E+02 -0.51756916788E+02 -0.11478508373E+03  0.12719803322E+03  0.00000000000E+00 0.  1.
         11    1    1    2    0    0  0.21367782110E+02  0.22238301399E+02 -0.26830210524E+01  0.30956788647E+02  0.00000000000E+00 0. -1.
</event>
<event>
 7    1  0.2412631E-010  0.1017285E+03  0.7561462E-02  0.1276703E+00
         -2   -1    0    0    0  501 -0.00000000000E+00  0.00000000000E+00  0.95175370778E+02  0.95175370778E+02  0.00000000000E+00 0.  1.
          2   -1    0    0  501    0  0.00000000000E+00 -0.00000000000E+00 -0.19908741422E+03  0.19908741422E+03  0.00000000000E+00 0. -1.
         25    2    1    2    0    0  0.22623950279E+02  0.26986588115E+02 -0.13745133879E+03  0.18914225398E+03  0.12506719251E+03 0.  0.
          5    1    3    3  502    0 -0.45908658366E+02  0.24253527267E+00 -0.19471513550E+02  0.50042741494E+02  0.41800000000E+01 0.  1.
         -5    1    3    3    0  502  0.68532608645E+02  0.26744052842E+02 -0.11797982524E+03  0.13909951249E+03  0.41800000000E+01 0.  1.
        -11    1    1    2    0    0  0.23430118124E+02 -0.29353782778E+02 -0.12863902982E+02  0.39700062954E+02  0.00000000000E+00 0. -1.
         11    1    1    2    0    0 -0.46054068402E+02  0.23671946629E+01  0.46403198328E+02  0.65420468066E+02  0.00000000000E+00 0.  1.
</event>
<event>
 6    1  0.2412631E-010  0.1146285E+03  0.7561462E-02  0.1252231E+00
         -4   -1    0    0    0  501 -0.00000000000E+00  0.00000000000E+00  0.26184429053E+03  0.26184429053E+03  0.00000000000E+00 0.  1.
          4   -1    0    0  501    0  0.00000000000E+00 -0.00000000000E+00 -0.65161869169E+02  0.65161869169E+02  0.00000000000E+00 0. -1.
          5    1    1    2  502    0  0.11305621742E+02 -0.38968747755E+02  0.28348925982E+01  0.40888744179E+02  0.41800000000E+01 0. -1.
         -5    1    1    2    0  502 -0.81371950882E+02  0.48947202976E+02  0.85693620185E+02  0.12797691983E+03  0.41800000000E+01 0. -1.
        -11    1    1    2    0    0  0.65951553236E+02  0.15383526182E+02  0.11324288977E+03  0.13194776366E+03  0.00000000000E+00 0.  1.
         11    1    1    2    0    0  0.41147759038E+01 -0.25361981404E+02 -0.50889811892E+01  0.26192732026E+02  0.00000000000E+00 0. -1.
</event>
<event>
 7    1  0.2412631E-010  0.1047048E+03  0.7561462E-02  0.1270702E+00
          2   -1    0    0  501    0  0.00000000000E+00  0.00000000000E+00  0.24101177700E+03  0.24101177700E+03  0.00000000000E+00 0. -1.
         -2   -1    0    0    0  501 -0.00000000000E+00 -0.00000000000E+00 -0.61053346881E+02  0.61053346881E+02  0.00000000000E+00 0.  1.
         25    2    1    2    0    0  0.50200270736E+02  0.55367788902E+01  0.81646512441E+02  0.15770191088E+03  0.12511201621E+03 0.  0.
          5    1    3    3  502    0  0.14308636551E+02  0.59643108416E+02  0.67153287436E+02  0.91044351142E+02  0.41800000000E+01 0. -1.
         -5    1    3    3    0  502  0.35891634185E+02 -0.54106329526E+02  0.14493225006E+02  0.66657559739E+02  0.41800000000E+01 0. -1.
        -11    1    1    2    0    0  0.16103293049E+02 -0.37860131821E+01 -0.85267026282E+01  0.18610604519E+02  0.00000000000E+00 0.  1.
         11    1    1    2    0    0 -0.66303563785E+02 -0.17507657081E+01  0.10683862031E+03  0.12575260848E+03  0.00000000000E+00 0. -1.
</event>
<event>
 6    1  0.2412631E-010  0.9102562E+02  0.7561462E-02  0.1300387E+00
          1   -1    0    0  501    0  0.00000000000E+00  0.00000000000E+00  0.22154069735E+03  0.22154069735E+03  0.00000000000E+00 0. -1.
         -1   -1    0    0    0  501 -0.00000000000E+00 -0.00000000000E+00 -0.16749684421E+03  0.16749684421E+03  0.00000000000E+00 0.  1.
          5    1    1    2  502    0  0.36358585294E+02 -0.83912661822E+01  0.22195793304E+02  0.43617493201E+02  0.41800000000E+01 0. -1.
         -5    1    1    2    0  502  0.40561884033E+02  0.23227413541E+02 -0.13311424406E+03  0.14114408790E+03  0.41800000000E+01 0. -1.
        -11    1    1    2    0    0 -0.66559421815E+02  0.13049925098E+02  0.46748469410E+02  0.82376432125E+02  0.00000000000E+00 0.  1.
         11    1    1    2    0    0 -0.10361047511E+02 -0.27886072457E+02  0.11821383449E+03  0.12189952833E+03  0.00000000000E+00 0. -1.
</event>
<event>
 6    1  0.2412631E-010  0.1095292E+03  0.7561462E-02  0.1261444E+00
          1   -1    0    0  501    0  0.00000000000E+00  0.00000000000E+00  0.79610512403E+02  0.79610512403E+02  0.00000000000E+00 0. -1.
         -1   -1    0    0    0  501 -0.00000000000E+00 -0.00000000000E+00 -0.18022893955E+03  0.18022893955E+03  0.00000000000E+00 0.  1.
          5    1    1    2  502    0 -0.19382122873E+02 -0.78667364337E+02 -0.30024734419E+02  0.86505363856E+02  0.41800000000E+01 0.  1.
         -5    1    1    2    0  502 -0.41470962363E+01  0.45209917933E+02  0.99973206624E+01  0.46674981598E+02  0.41800000000E+01 0.  1.
        -11    1    1    2    0    0 -0.40038133182E+01  0.56374431816E+02 -0.28119110512E+02  0.63125204631E+02  0.00000000000E+00 0. -1.
         11    1    1    2    0    0  0.27533032427E+02 -0.22916985412E+02 -0.52471902877E+02  0.63533901868E+02  0.00000000000E+00 0.  1.
</event>
<event>
 7    1  0.2412631E-010  0.1288224E+03  0.7561462E-02  0.1229214E+00
          1   -1    0    0  501    0  0.00000000000E+00  0.00000000000E+00  0.10192483121E+04  0.10192483121E+04  0.00000000000E+00 0. -1.
         -1   -1    0    0    0  501 -0.00000000000E+00 -0.00000000000E+00 -0.17554127664E+02  0.17554127664E+02  0.00000000000E+00 0.  1.
         25    2    1    2    0    0  0.16971423355E+02  0.74055713299E+02  0.48739309912E+03  0.50888472079E+03  0.12505737924E+03 0.  0.
          5    1    3    3  502    0  0.65234756929E+02  0.25961923361E+02  0.16537488102E+03  0.17971065257E+03  0.41800000000E+01 0.  1.
         -5    1    3    3    0  502 -0.48263333574E+02  0.48093789937E+02  0.32201821811E+03  0.32917406822E+03  0.41800000000E+01 0.  1.
        -11    1    1    2    0    0  0.34661546911E+02 -0.86648217165E+01  0.14553219205E+03  0.14985366493E+03  0.00000000000E+00 0. -1.
         11    1    1    2    0    0 -0.51632970266E+02 -0.65390891582E+02  0.36876889330E+03  0.37806405408E+03  0.00000000000E+00 0.  1.
</event>
<event>
 6    1  0.2412631E-010  0.1274544E+03  0.7561462E-02  0.1231283E+00
          2   -1    0    0  501    0  0.00000000000E+00  0.00000000000E+00  0.14671810999E+03  0.14671810999E+03  0.00000000000E+00 0. -1.
         -2   -1    0    0    0  501 -0.00000000000E+00 -0.00000000000E+00 -0.15314871656E+03  0.15314871656E+03  0.00000000000E+00 0.  1.
          5    1    1    2  502    0  0.34967285352E+02 -0.43724180843E+02 -0.53270072947E+01  0.56394719984E+02  0.41800000000E+01 0. -1.
         -5    1    1    2    0  502  0.33208107484E+02  0.74368311838E+02 -0.69624399918E+02  0.10723084292E+03  0.41800000000E+01 0. -1.
        -11    1    1    2    0    0 -0.63969076095E+02  0.19513725827E+02  0.45523337330E+02  0.80902425389E+02  0.00000000000E+00 0.  1.
         11    1    1    2    0    0 -0.42063167413E+01 -0.50157856822E+02  0.22997463306E+02  0.55338838261E+02  0.00000000000E+00 0. -1.
</event>
<event>
 6    1  0.2412631E-010  0.1096436E+03  0.7561462E-02  0.1261231E+00
         -2   -1    0    0    0  501 -0.00000000000E+00  0.00000000000E+00  0.21830548710E+02  0.21830548710E+02  0.00000000000E+00 0. -1.
          2   -1    0    0  501    0  0.00000000000E+00 -0.00000000000E+00 -0.60924723515E+03  0.60924723515E+03  0.00000000000E+00 0.  1.
          5    1    1    2  502    0 -0.45191889223E+02 -0.24517132058E+02 -0.11192705457E+03  0.12324177279E+03  0.41800000000E+01 0.  1.
         -5    1    1    2    0  502  0.66890836218E+02  0.33824419663E+02 -0.13298459153E+03  0.15271165417E+03  0.41800000000E+01 0.  1.
        -11    1    1    2    0    0 -0.12223585185E+02  0.40306977911E+02 -0.12797494107E+03  0.13472807445E+03  0.00000000000E+00 0.  1.
         11    1    1    2    0    0 -0.94753618100E+01 -0.49614265516E+02 -0.21453009926E+03  0.22039628244E+03  0.00000000000E+00 0. -1.
</event>
<event>
 7    1  0.2412631E-010  0.3371549E+03  0.7561462E-02  0.1068014E+00
         -1   -1    0    0    0  501 -0.00000000000E+00  0.00000000000E+00  0.71435454605E+03  0.71435454605E+03  0.00000000000E+00 0.  1.
          1   -1    0    0  501    0  0.00000000000E+00 -0.00000000000E+00 -0.18407627775E+03  0.18407627775E+03  0.00000000000E+00 0. -1.
         25    2    1    2    0    0  0.16220229415E+03  0.29071868805E+03  0.15275579683E+03  0.38706263602E+03  0.12512478143E+03 0.  0.
          5    1    3    3  502    0  0.12601868711E+03  0.17015944385E+03  0.35021273593E+02  0.21465998192E+03  0.41800000000E+01 0.  1.
         -5    1    3    3    0  502  0.36183607046E+02  0.12055924420E+03  0.11773452324E+03  0.17240265410E+03  0.41800000000E+01 0.  1.
        -11    1    1    2    0    0 -0.61687217079E+02 -0.65617095694E+02  0.15501790309E+03  0.17928041242E+03  0.00000000000E+00 0.  1.
         11    1    1    2    0    0 -0.10051507708E+03 -0.22510159235E+03  0.22250456837E+03  0.33208777536E+03  0.00000000000E+00 0. -1.
</event>
<event>
 6    1  0.2412631E-010  0.8412746E+02  0.7561462E-02  0.1317730E+00
          2   -1    0    0  501    0  0.00000000000E+00  0.00000000000E+00  0.47791390634E+03  0.47791390634E+03  0.00000000000E+00 0. -1.
         -2   -1    0    0    0  501 -0.00000000000E+00 -0.00000000000E+00 -0.41681891476E+02  0.41681891476E+02  0.00000000000E+00 0.  1.
          5    1    1    2  502    0 -0.38092336618E+02  0.47967711064E+02  0.34269272464E+03  0.34814896716E+03  0.41800000000E+01 0.  1.
         -5    1    1    2    0  502 -0.20135800897E+01  0.15539148729E+02 -0.71839693008E+01  0.17737008286E+02  0.41800000000E+01 0.  1.
        -11    1    1    2    0    0 -0.61804186299E+01 -0.36569962848E+02 -0.27591445787E+01  0.37191028971E+02  0.00000000000E+00 0.  1.
         11    1    1    2    0    0  0.46286335338E+02 -0.26936896945E+02  0.10348240410E+03  0.11651879340E+03  0.00000000000E+00 0. -1.
</event>
<event>
 7    1  0.2412631E-010  0.2130152E+03  0.7561462E-02  0.1139200E+00
         -2   -1    0    0    0  501 -0.00000000000E+00  0.00000000000E+00  0.24206170478E+03  0.24206170478E+03  0.00000000000E+00 0.  1.
          2   -1    0    0  501    0  0.00000000000E+00 -0.00000000000E+00 -0.26400776859E+03  0.26400776859E+03  0.00000000000E+00 0. -1.
         25    2    1    2    0    0  0.13586485263E+03  0.13826356398E+03 -0.13197650857E+03  0.26579640394E+03  0.12511537966E+03 0.  0.
          5    1    3    3  502    0  0.20110487124E+02 -0.14307742117E+02 -0.52966123295E+02  0.58583494209E+02  0.41800000000E+01 0.  1.
         -5    1    3    3    0  502  0.11575436551E+03  0.15257130609E+03 -0.79010385275E+02  0.20721290973E+03  0.41800000000E+01 0.  1.
        -11    1    1    2    0    0 -0.25305194100E+02  0.75898673583E+01  0.31509309666E+02  0.41119284169E+02  0.00000000000E+00 0.  1.
         11    1    1    2    0    0 -0.11055965853E+03 -0.14585343134E+03  0.78521135094E+02  0.19915378526E+03  0.00000000000E+00 0. -1.
</event>
<event>
 7    1  0.2412631E-010  0.1264349E+03  0.7561462E-02  0.1232844E+00
         -2   -1    0    0    0  501 -0.00000000000E+00  0.00000000000E+00  0.32574221210E+02  0.32574221210E+02  0.00000000000E+00 0. -1.
          2   -1    0    0  501    0  0.00000000000E+00 -0.00000000000E+00 -0.56769647223E+03  0.56769647223E+03  0.00000000000E+00 0.  1.
         25    2    1    2    0    0  0.70898186919E+02 -0.25823281652E+02 -0.23463715034E+03  0.27638794609E+03  0.12506921939E+03 0.  0.
          5    1    3    3  502    0  0.32295567695E+02  0.45131482391E+02 -0.50015554106E+02  0.74825680405E+02  0.41800000000E+01 0. -1.
         -5    1    3    3    0  502  0.38602619224E+02 -0.70954764043E+02 -0.18462159624E+03  0.20156226569E+03  0.41800000000E+01 0. -1.
        -11    1    1    2    0    0 -0.91646746966E+02  0.27026971558E+02 -0.20516776203E+03  0.22632585799E+03  0.00000000000E+00 0. -1.
         11    1    1    2    0    0  0.20748560047E+02 -0.12036899059E+01 -0.95317338654E+02  0.97556889360E+02  0.00000000000E+00 0.  1.
</event>
<event>
 7    1  0.2412631E-010  0.1771759E+03  0.7561462E-02  0.1170565E+00
          2   -1    0    0  501    0  0.00000000000E+00  0.00000000000E+00  0.87214138786E+03  0.87214138786E+03  0.00000000000E+00 0. -1.
         -2   -1    0    0    0  501 -0.00000000000E+00 -0.00000000000E+00 -0.45266805041E+02  0.45266805041E+02  0.00000000000E+00 0.  1.
         25    2    1    2    0    0  0.14303665560E+03  0.62873991499E+02  0.31298405065E+03  0.37149612522E+03  0.12505091540E+03 0.  0.
          5    1    3    3  502    0  0.14876557471E+03  0.23416920375E+02  0.19205075661E+03  0.24409119995E+03  0.41800000000E+01 0. -1.
         -5    1    3    3    0  502 -0.57289191126E+01  0.39457071125E+02  0.12093329404E+03  0.12740492527E+03  0.41800000000E+01 0. -1.
        -11    1    1    2    0    0 -0.47206168307E+02 -0.46734945339E+02  0.95154688085E+02  0.11604737010E+03  0.00000000000E+00 0.  1.
         11    1    1    2    0    0 -0.95830487290E+02 -0.16139046160E+02  0.41873584409E+03  0.42986469759E+03  0.00000000000E+00 0. -1.
</event>
<event>
 6    1  0.2412631E-010  0.1134093E+03  0.7561462E-02  0.1254383E+00
          2   -1    0    0  501    0  0.00000000000E+00  0.00000000000E+00  0.69195141985E+02  0.69195141985E+02  0.00000000000E+00 0. -1.
         -2   -1    0    0    0  501 -0.00000000000E+00 -0.00000000000E+00 -0.27330624060E+03  0.27330624060E+03  0.00000000000E+00 0.  1.
          5    1    1    2  502    0 -0.68323451252E+02 -0.86055892173E+02 -0.13002725006E+03  0.17028878039E+03  0.41800000000E+01 0.  1.
         -5    1    1    2    0  502  0.19875163731E+02  0.29082797567E+02 -0.30923521892E+02  0.47059195210E+02  0.41800000000E+01 0.  1.
        -11    1    1    2    0    0  0.25478640450E+02  0.51967704884E+02 -0.69106146161E+02  0.90141349598E+02  0.00000000000E+00 0.  1.
         11    1    1    2    0    0  0.22969647070E+02  0.50053897227E+01  0.25945819500E+02  0.35012057386E+02  0.00000000000E+00 0. -1.
</event>
<event>
 7    1  0.2412631E-010  0.1009884E+03  0.7561462E-02  0.1278231E+00
         -2   -1    0    0    0  501 -0.00000000000E+00  0.00000000000E+00  0.24520339622E+02  0.24520339622E+02  0.00000000000E+00 0.  1.
          2   -1    0    0  501    0  0.00000000000E+00 -0.00000000000E+00 -0.60544566537E+03  0.60544566537E+03  0.00000000000E+00 0. -1.
         25    2    1    2    0    0 -0.40834085569E+02  0.43158327355E+02 -0.34157842017E+03  0.36857249950E+03  0.12505921197E+03 0.  0.
          5    1    3    3  502    0 -0.81793051452E+02  0.20192431872E+02 -0.15881183871E+03  0.17982355265E+03  0.41800000000E+01 0. -1.
         -5    1    3    3    0  502  0.40958965883E+02  0.22965895484E+02 -0.18276658146E+03  0.18874894685E+03  0.41800000000E+01 0. -1.
        -11    1    1    2    0    0  0.14831573785E+02  0.50825432293E+01  0.17798529029E+00  0.15679269925E+02  0.00000000000E+00 0.  1.
         11    1    1    2    0    0  0.26002511783E+02 -0.48240870585E+02 -0.23952489087E+03  0.24571423557E+03  0.00000000000E+00 0. -1.
</event>
<event>
 7    1  0.2412631E-010  0.1058257E+03  0.7561462E-02  0.1268501E+00
         -2   -1    0    0    0  501 -0.00000000000E+00  0.00000000000E+00  0.27444556959E+02  0.27444556959E+02  0.00000000000E+00 0.  1.
          2   -1    0    0  501    0  0.00000000000E+00 -0.00000000000E+00 -0.88557062358E+03  0.88557062358E+03  0.00000000000E+00 0. -1.
         25    2    1    2    0    0  0.69731031251E+02 -0.55174736099E+02 -0.26428747073E+03  0.30564166771E+03  0.12514908563E+03 0.  0.
          5    1    3    3  502    0  0.28641302893E+02 -0.11191779578E+02 -0.23768454687E+03  0.23970189065E+03  0.41800000000E+01 0.  1.
         -5    1    3    3    0  502  0.41089728358E+02 -0.43982956520E+02 -0.26602923860E+02  0.65939777060E+02  0.41800000000E+01 0.  1.
        -11    1    1    2    0    0 -0.82870132811E+02  0.23725656723E+02 -0.50337461799E+03  0.51070184230E+03  0.00000000000E+00 0. -1.
         11    1    1    2    0    0  0.13139101560E+02  0.31449079376E+02 -0.90463977911E+02  0.96671670529E+02  0.00000000000E+00 0.  1.
</event>
<event>
 7    1  0.2412631E-010  0.1403444E+03  0.7561462E-02  0.1212866E+00
          1   -1    0    0  501    0  0.00000000000E+00  0.00000000000E+00  0.45919562352E+03  0.45919562352E+03  0.00000000000E+00 0. -1.
         -1   -1    0    0    0  501 -0.00000000000E+00 -0.00000000000E+00 -0.50361165251E+02  0.50361165251E+02  0.00000000000E+00 0.  1.
         25    2    1    2    0    0 -0.75691582854E+02 -0.67019726537E+02  0.27314491518E+03  0.31695872051E+03  0.12503530045E+03 0.  0.
          5    1    3    3  502    0  0.26150700071E+02 -0.44980601100E+02  0.59026085311E+02  0.78795080662E+02  0.41800000000E+01 0.  1.
         -5    1    3    3    0  502 -0.10184228292E+03 -0.22039125437E+02  0.21411882987E+03  0.23816363985E+03  0.41800000000E+01 0.  1.
        -11    1    1    2    0    0  0.70931304742E+02  0.82039557770E+02  0.80116744453E+02  0.13483483145E+03  0.00000000000E+00 0.  1.
         11    1    1    2    0    0  0.47602781113E+01 -0.15019831234E+02  0.55572798638E+02  0.57763236807E+02  0.00000000000E+00 0. -1.
</event>
<event>
 7    1  0.2412631E-010  0.1054811E+03  0.7561462E-02  0.1269175E+00
          2   -1    0    0  501    0  0.00000000000E+00  0.00000000000E+00  0.76844221220E+03  0.76844221220E+03  0.00000000000E+00 0. -1.
         -2   -1    0    0    0  501 -0.00000000000E+00 -0.00000000000E+00 -0.21638491350E+02  0.21638491350E+02  0.00000000000E+00 0.  1.
         25    2    1    2    0    0 -0.99456593459E+01  0.68493376463E+02  0.44291800367E+03  0.46541005632E+03  0.12505960098E+03 0.  0.
          5    1    3    3  502    0 -0.44066392037E+02  0.40191079804E+02  0.80537895167E+02  0.10030451017E+03  0.41800000000E+01 0. -1.
         -5    1    3    3    0  502  0.34120732692E+02  0.28302296659E+02  0.36238010850E+03  0.36510554615E+03  0.41800000000E+01 0. -1.
        -11    1    1    2    0    0 -0.45792955858E+01  0.18188366036E+02  0.11270444267E+03  0.11425444414E+03  0.00000000000E+00 0.  1.
         11    1    1    2    0    0  0.14524954932E+02 -0.86681742499E+02  0.19118127452E+03  0.21041620309E+03  0.00000000000E+00 0. -1.
</event>
<event>
 7    1  0.2412631E-010  0.9843050E+02  0.7561462E-02  0.1283631E+00
         -2   -1    0    0    0  501 -0.00000000000E+00  0.00000000000E+00  0.27758740655E+03  0.27758740655E+03  0.00000000000E+00 0. -1.
          2   -1    0    0  501    0  0.00000000000E+00 -0.00000000000E+00 -0.49298646756E+02  0.49298646756E+02  0.00000000000E+00 0.  1.
         25    2    1    2    0    0 -0.34356110954E+02 -0.97435180952E+01  0.17166044839E+03  0.21539983260E+03  0.12511794372E+03 0.  0.
          5    1    3    3  502    0 -0.63531360732E+02  0.15809844836E+02  0.16262570656E+03  0.17535899699E+03  0.41800000000E+01 0. -1.
         -5    1    3    3    0  502  0.29175249778E+02 -0.25553362931E+02  0.90347418241E+01  0.40040835613E+02  0.41800000000E+01 0. -1.
        -11    1    1    2    0    0 -0.83072130138E+01  0.39416753411E+02  0.40380792151E+02  0.57037694661E+02  0.00000000000E+00 0. -1.
         11    1    1    2    0    0  0.42663323968E+02 -0.29673235316E+02  0.16247519253E+02  0.54448526040E+02  0.00000000000E+00 0.  1.
</event>
<event>
 6    1  0.2412631E-010  0.1212498E+03  0.7561462E-02  0.1241049E+00
         -1   -1    0    0    0  501 -0.00000000000E+00  0.00000000000E+00  0.33314073207E+02  0.33314073207E+02  0.00000000000E+00 0.  1.
          1   -1    0    0  501    0  0.00000000000E+00 -0.00000000000E+00 -0.65121924485E+03  0.65121924485E+03  0.00000000000E+00 0. -1.
          5    1    1    2  502    0 -0.50496222613E+02 -0.44996644304E+02 -0.17515165145E+03  0.18780346084E+03  0.41800000000E+01 0.  1.
         -5    1    1    2    0  502 -0.26831240305E+02  0.76687061705E+02 -0.28305445410E+03  0.29451335670E+03  0.41800000000E+01 0.  1.
        -11    1    1    2    0    0  0.26089262598E+02  0.93707721663E+01 -0.12483038205E+03  0.12787136223E+03  0.00000000000E+00 0. -1.
         11    1    1    2    0    0  0.51238200320E+02 -0.41061189567E+02 -0.34868684036E+02  0.74345138289E+02  0.00000000000E+00 0.  1.
</event>
<event>
 7    1  0.2412631E-010  0.7681794E+02  0.7561462E-02  0.1338332E+00
          1   -1    0    0  501    0  0.00000000000E+00  0.00000000000E+00  0.44706782017E+02  0.44706782017E+02  0.00000000000E+00 0. -1.
         -1   -1    0    0    0  501 -0.00000000000E+00 -0.00000000000E+00 -0.29831408829E+03  0.29831408829E+03  0.00000000000E+00 0.  1.
         25    2    1    2    0    0 -0.17631723804E+02  0.34549541857E+02 -0.14452875830E+03  0.19505331167E+03  0.12511068656E+03 0.  0.
          5    1    3    3  502    0 -0.19659974950E+02 -0.11696605410E+02 -0.14669217490E+03  0.14852404442E+03  0.41800000000E+01 0.  1.
         -5    1    3    3    0  502  0.20282511459E+01  0.46246147267E+02  0.21634166040E+01  0.46529267254E+02  0.41800000000E+01 0.  1.
        -11    1    1    2    0    0  0.45710816745E+02 -0.10429562293E+02 -0.99097437371E+02  0.10962917782E+03  0.00000000000E+00 0.  1.
         11    1    1    2    0    0 -0.28079092941E+02 -0.24119979564E+02 -0.99811106109E+01  0.38338380816E+02  0.00000000000E+00 0. -1.
</event>
<event>
 7    1  0.2412631E-010  0.1559383E+03  0.7561462E-02  0.1193360E+00
          1   -1    0    0  501    0  0.00000000000E+00  0.00000000000E+00  0.36324123125E+04  0.36324123125E+04  0.00000000000E+00 0. -1.
         -1   -1    0    0    0  501 -0.00000000000E+00 -0.00000000000E+00 -0.10785994773E+02  0.10785994773E+02  0.00000000000E+00 0.  1.
         25    2    1    2    0    0  0.11312457574E+03  0.47062252405E+02  0.29392561210E+04  0.29444687949E+04  0.12513158713E+03 0.  0.
          5    1    3    3  502    0  0.13416512159E+01 -0.29346388408E+02  0.10230481605E+04  0.10234783933E+04  0.41800000000E+01 0. -1.
         -5    1    3    3    0  502  0.11178292452E+03  0.76408640812E+02  0.19162079605E+04  0.19209904015E+04  0.41800000000E+01 0. -1.
        -11    1    1    2    0    0  0.80151279827E+01  0.10012481362E+02  0.27996451041E+02  0.30794371735E+02  0.00000000000E+00 0.  1.
         11    1    1    2    0    0 -0.12113970372E+03 -0.57074733767E+02  0.65437374576E+03  0.66793514071E+03  0.00000000000E+00 0. -1.
</event>
<event>
 6    1  0.2412631E-010  0.9902577E+02  0.7561462E-02  0.1282358E+00
         -1   -1    0    0    0  501 -0.00000000000E+00  0.00000000000E+00  0.59770073120E+02  0.59770073120E+02  0.00000000000E+00 0.  1.
          1   -1    0    0  501    0  0.00000000000E+00 -0.00000000000E+00 -0.37116157523E+03  0.37116157523E+03  0.00000000000E+00 0. -1.
          5    1    1    2  502    0  0.20133567476E+02  0.64918522546E+01 -0.18605916301E+03  0.18730453605E+03  0.41800000000E+01 0. -1.
         -5    1    1    2    0  502  0.98507070824E+01 -0.81341624216E+02 -0.64912699082E+02  0.10461657212E+03  0.41800000000E+01 0. -1.
        -11    1    1    2    0    0 -0.10869987139E+00  0.61873778811E+02 -0.79901107307E+02  0.10105722769E+03  0.00000000000E+00 0. -1.
         11    1    1    2    0    0 -0.29875574687E+02  0.12975993150E+02  0.19481467287E+02  0.37953312488E+02  0.00000000000E+00 0.  1.
</event>
<event>
 6    1  0.2412631E-010  0.9473991E+02  0.7561462E-02  0.1291763E+00
         -1   -1    0    0    0  501 -0.00000000000E+00  0.00000000000E+00  0.21008003691E+03  0.21008003691E+03  0.00000000000E+00 0. -1.
          1   -1    0    0  501    0  0.00000000000E+00 -0.00000000000E+00 -0.59188746782E+02  0.59188746782E+02  0.00000000000E+00 0.  1.
          5    1    1    2  502    0 -0.63609131743E+02 -0.11549724739E+01  0.73167104808E+02  0.97048200542E+02  0.41800000000E+01 0.  1.
         -5    1    1    2    0  502  0.56013625373E+02  0.16994173737E+00  0.22298583596E+02  0.60433884022E+02  0.41800000000E+01 0.  1.
        -11    1    1    2    0    0 -0.18289032409E+02  0.27158335884E+02  0.65838920065E+02  0.73531131568E+02  0.00000000000E+00 0. -1.
         11    1    1    2    0    0  0.25884538778E+02 -0.26173305147E+02 -0.10413318344E+02  0.38255567556E+02  0.00000000000E+00 0.  1.
</event>
<event>
 7    1  0.2412631E-010  0.1274129E+03  0.7561462E-02  0.1231346E+00
         -2   -1    0    0    0  501 -0.00000000000E+00  0.00000000000E+00  0.56874243637E+02  0.56874243637E+02  0.00000000000E+00 0.  1.
          2   -1    0    0  501    0  0.00000000000E+00 -0.00000000000E+00 -0.39371873380E+03  0.39371873380E+03  0.00000000000E+00 0. -1.
         25    2    1    2    0    0 -0.16277010526E+02  0.69669484715E+02 -0.75167716013E+02  0.16248479100E+03  0.12502937097E+03 0.  0.
          5    1    3    3  502    0 -0.67171643613E+02  0.62219821188E+02 -0.39813549388E+02  0.99929610072E+02  0.41800000000E+01 0. -1.
         -5    1    3    3    0  502  0.50894633086E+02  0.74496635264E+01 -0.35354166625E+02  0.62555180932E+02  0.41800000000E+01 0. -1.
        -11    1    1    2    0    0 -0.29477635383E+02 -0.15686191498E+01 -0.12719463525E+03  0.13057513849E+03  0.00000000000E+00 0. -1.
         11    1    1    2    0    0  0.45754645910E+02 -0.68100865565E+02 -0.13448213890E+03  0.15753304795E+03  0.00000000000E+00 0.  1.
</event>
<event>
 7    1  0.2412631E-010  0.8236977E+02  0.7561462E-02  0.1322458E+00
          3   -1    0    0  501    0  0.00000000000E+00  0.00000000000E+00  0.11570735032E+03  0.11570735032E+03  0.00000000000E+00 0. -1.
         -3   -1    0    0    0  501 -0.00000000000E+00 -0.00000000000E+00 -0.11687495960E+03  0.11687495960E+03  0.00000000000E+00 0.  1.
         25    2    1    2    0    0  0.59585138394E+01  0.36695179325E+02 -0.22262133666E+02  0.13235388110E+03  0.12505961448E+03 0.  0.
          5    1    3    3  502    0  0.15263341919E+02  0.80636487864E+02 -0.28470110912E+00  0.82175216679E+02  0.41800000000E+01 0. -1.
         -5    1    3    3    0  502 -0.93048280796E+01 -0.43941308539E+02 -0.21977432557E+02  0.50178664425E+02  0.41800000000E+01 0. -1.
        -11    1    1    2    0    0  0.20018975955E+00 -0.12061777782E+02 -0.35879048093E+02  0.37852776004E+02  0.00000000000E+00 0.  1.
         11    1    1    2    0    0 -0.61587035990E+01 -0.24633401543E+02  0.56973572483E+02  0.62375652806E+02  0.00000000000E+00 0. -1.
</event>
<event>
 7    1  0.2412631E-010  0.1199551E+03  0.7561462E-02  0.1243171E+00
         -1   -1    0    0    0  501 -0.00000000000E+00  0.00000000000E+00  0.12032642667E+03  0.12032642667E+03  0.00000000000E+00 0.  1.
          1   -1    0    0  501    0  0.00000000000E+00 -0.00000000000E+00 -0.19626805511E+03  0.19626805511E+03  0.00000000000E+00 0. -1.
         25    2    1    2    0    0  0.85029792403E+02 -0.26610025321E+02  0.22258398001E+02  0.15519945667E+03  0.12511305298E+03 0.  0.
          5    1    3    3  502    0  0.20427319941E+02 -0.65582987631E+02  0.37116622024E+02  0.78188999846E+02  0.41800000000E+01 0.  1.
         -5    1    3    3    0  502  0.64602472462E+02  0.38972962310E+02 -0.14858224023E+02  0.77010456826E+02  0.41800000000E+01 0.  1.
        -11    1    1    2    0    0 -0.91094306706E+01 -0.79704135988E+01  0.15941565870E+02  0.20016062111E+02  0.00000000000E+00 0.  1.
         11    1    1    2    0    0 -0.75920361732E+02  0.34580438920E+02 -0.11414159231E+03  0.14137896299E+03  0.00000000000E+00 0. -1.
</event>
<event>
 7    1  0.2412631E-010  0.1492808E+03  0.7561462E-02  0.1201360E+00
         -1   -1    0    0    0  501 -0.00000000000E+00  0.00000000000E+00  0.31062059733E+02  0.31062059733E+02  0.00000000000E+00 0.  1.
          1   -1    0    0  501    0  0.00000000000E+00 -0.00000000000E+00 -0.88746623901E+03  0.88746623901E+03  0.00000000000E+00 0. -1.
         25    2    1    2    0    0 -0.46077329139E+02  0.99578081275E+02 -0.28479987109E+03  0.32985256966E+03  0.12511129687E+03 0.  0.
          5    1    3    3  502    0  0.38931951404E+02  0.27351273746E+02 -0.46291584636E+02  0.66514451241E+02  0.41800000000E+01 0.  1.
         -5    1    3    3    0  502 -0.85009280544E+02  0.72226807529E+02 -0.23850828645E+03  0.26333811842E+03  0.41800000000E+01 0.  1.
        -11    1    1    2    0    0  0.46516705245E+02 -0.75301077040E+01 -0.15405952993E+03  0.16110507488E+03  0.00000000000E+00 0.  1.
         11    1    1    2    0    0 -0.43937610532E+00 -0.92047973571E+02 -0.41754477826E+03  0.42757065421E+03  0.00000000000E+00 0. -1.
</event>
<event>
 7    1  0.2412631E-010  0.1338299E+03  0.7561462E-02  0.1221881E+00
         -2   -1    0    0    0  501 -0.00000000000E+00  0.00000000000E+00  0.31547924998E+03  0.31547924998E+03  0.00000000000E+00 0.  1.
          2   -1    0    0  501    0  0.00000000000E+00 -0.00000000000E+00 -0.13260857742E+03  0.13260857742E+03  0.00000000000E+00 0. -1.
         25    2    1    2    0    0  0.79690314037E+02 -0.68199268400E+02  0.24716250711E+03  0.29621546843E+03  0.12511040105E+03 0.  0.
          5    1    3    3  502    0  0.14431964207E+02 -0.65814588461E+02  0.38896793592E+02  0.77911966969E+02  0.41800000000E+01 0.  1.
         -5    1    3    3    0  502  0.65258349829E+02 -0.23846799383E+01  0.20826571352E+03  0.21830350146E+03  0.41800000000E+01 0.  1.
        -11    1    1    2    0    0  0.16424021849E+02  0.23615009341E+02 -0.27276210124E+02  0.39640998961E+02  0.00000000000E+00 0. -1.
         11    1    1    2    0    0 -0.96114335886E+02  0.44584259058E+02 -0.37015624421E+02  0.11223136001E+03  0.00000000000E+00 0.  1.
</event>
<event>
 7    1  0.2412631E-010  0.1217438E+03  0.7561462E-02  0.1240248E+00
          2   -1    0    0  501    0  0.00000000000E+00  0.00000000000E+00  0.89592084110E+03  0.89592084110E+03  0.00000000000E+00 0. -1.
         -2   -1    0    0    0  501 -0.00000000000E+00 -0.00000000000E+00 -0.32949973484E+02  0.32949973484E+02  0.00000000000E+00 0.  1.
         25    2    1    2    0    0  0.64432769273E+02  0.73537307542E+02  0.69887518995E+03  0.71667837432E+03  0.12506815640E+03 0.  0.
          5    1    3    3  502    0  0.33539274575E+02  0.78304370464E+02  0.20821055691E+03  0.22500125729E+03  0.41800000000E+01 0. -1.
         -5    1    3    3    0  502  0.30893494698E+02 -0.47670629218E+01  0.49066463304E+03  0.49167711704E+03  0.41800000000E+01 0. -1.
        -11    1    1    2    0    0 -0.18370040202E+02 -0.78233613294E+02  0.13618982419E+03  0.15813166931E+03  0.00000000000E+00 0.  1.
         11    1    1    2    0    0 -0.46062729072E+02  0.46963057520E+01  0.27905853479E+02  0.54060770949E+02  0.00000000000E+00 0. -1.
</event>
<event>
 6    1  0.2412631E-010  0.1183743E+03  0.7561462E-02  0.1245803E+00
          3   -1    0    0  501    0  0.00000000000E+00  0.00000000000E+00  0.10847003090E+02  0.10847003090E+02  0.00000000000E+00 0. -1.
         -3   -1    0    0    0  501 -0.00000000000E+00 -0.00000000000E+00 -0.13448539562E+04  0.13448539562E+04  0.00000000000E+00 0.  1.
          5    1    1    2  502    0  0.51091282164E-01  0.65369460395E+02 -0.45147755205E+03  0.45620458280E+03  0.41800000000E+01 0. -1.
         -5    1    1    2    0  502 -0.47614509835E+02 -0.45301246269E+02 -0.26678969674E+03  0.27479730557E+03  0.41800000000E+01 0. -1.
        -11    1    1    2    0    0  0.30160660681E+02  0.35837054873E+02 -0.28105419960E+03  0.28493055832E+03  0.00000000000E+00 0.  1.
         11    1    1    2    0    0  0.17402757872E+02 -0.55905268998E+02 -0.33468550474E+03  0.33976851261E+03  0.00000000000E+00 0. -1.
</event>
<event>
 6    1  0.2412631E-010  0.1074229E+03  0.7561462E-02  0.1265418E+00
         -1   -1    0    0    0  501 -0.00000000000E+00  0.00000000000E+00  0.61367642918E+02  0.61367642918E+02  0.00000000000E+00 0.  1.
          1   -1    0    0  501    0  0.00000000000E+00 -0.00000000000E+00 -0.29482763659E+03  0.29482763659E+03  0.00000000000E+00 0. -1.
          5    1    1    2  502    0  0.34410039696E+02  0.19211018985E+02 -0.64435084504E+02  0.75646986704E+02  0.41800000000E+01 0. -1.
         -5    1    1    2    0  502 -0.65172369044E+02 -0.75593469853E+02 -0.11705087500E+03  0.15388369020E+03  0.41800000000E+01 0. -1.
        -11    1    1    2    0    0  0.40265042230E+02  0.47954965769E+02  0.99924648978E+01  0.63409792007E+02  0.00000000000E+00 0.  1.
         11    1    1    2    0    0 -0.95027128820E+01  0.84274850995E+01 -0.61966499064E+02  0.63254810596E+02  0.00000000000E+00 0. -1.
</event>
<event>
 7    1  0.2412631E-010  0.1002149E+03  0.7561462E-02  0.1279845E+00
         -1   -1    0    0    0  501 -0.00000000000E+00  0.00000000000E+00  0.41760509252E+03  0.41760509252E+03  0.00000000000E+00 0.  1.
          1   -1    0    0  501    0  0.00000000000E+00 -0.00000000000E+00 -0.36525212840E+02  0.36525212840E+02  0.00000000000E+00 0. -1.
         25    2    1    2    0    0  0.79994456577E+01 -0.58816750279E+02  0.20727648524E+03  0.24924452409E+03  0.12504355326E+03 0.  0.
          5    1    3    3  502    0 -0.18551721195E+02  0.75422310984E+01 -0.83094761429E+01  0.22081019066E+02  0.41800000000E+01 0. -1.
         -5    1    3    3    0  502  0.26551166852E+02 -0.66358981378E+02  0.21558596138E+03  0.22716350503E+03  0.41800000000E+01 0. -1.
        -11    1    1    2    0    0  0.40523372015E+02  0.15679396993E+02  0.74360529888E+02  0.86124767487E+02  0.00000000000E+00 0.  1.
         11    1    1    2    0    0 -0.48522817673E+02  0.43137353287E+02  0.99442864552E+02  0.11876101378E+03  0.00000000000E+00 0. -1.
</event>
<event>
 7    1  0.2412631E-010  0.1276549E+03  0.7561462E-02  0.1230978E+00
         -1   -1    0    0    0  501 -0.00000000000E+00  0.00000000000E+00  0.19831212936E+03  0.19831212936E+03  0.00000000000E+00 0.  1.
          1   -1    0    0  501    0  0.00000000000E+00 -0.00000000000E+00 -0.90853077025E+02  0.90853077025E+02  0.00000000000E+00 0. -1.
         25    2    1    2    0    0 -0.59707018736E+02 -0.53265303441E+01  0.87059688527E+02  0.16379929365E+03  0.12513000928E+03 0.  0.
          5    1    3    3  502    0 -0.67138012856E+02 -0.55838094416E+02  0.51911763811E+02  0.10167452572E+03  0.41800000000E+01 0. -1.
         -5    1    3    3    0  502  0.74309941206E+01  0.50511564072E+02  0.35147924716E+02  0.62124767931E+02  0.41800000000E+01 0. -1.
        -11    1    1    2    0    0  0.16523492371E+01  0.45838184873E+02  0.28671826613E+02  0.54091987316E+02  0.00000000000E+00 0.  1.
         11    1    1    2    0    0  0.58054669499E+02 -0.40511654529E+02 -0.82724628070E+01  0.71273925416E+02  0.00000000000E+00 0. -1.
</event>
<event>
 7    1  0.2412631E-010  0.1311902E+03  0.7561462E-02  0.1225700E+00
          1   -1    0    0  501    0  0.00000000000E+00  0.00000000000E+00  0.14648007630E+03  0.14648007630E+03  0.00000000000E+00 0. -1.
         -1   -1    0    0    0  501 -0.00000000000E+00 -0.00000000000E+00 -0.14475266895E+03  0.14475266895E+03  0.00000000000E+00 0.  1.
         25    2    1    2    0    0  0.90955919182E+02  0.10877955001E+02  0.31325479488E+02  0.15815433314E+03  0.12506077837E+03 0.  0.
          5    1    3    3  502    0  0.28026750246E+02  0.57717243665E+02  0.44910553939E+02  0.78429644910E+02  0.41800000000E+01 0.  1.
         -5    1    3    3    0  502  0.62929168936E+02 -0.46839288664E+02 -0.13585074451E+02  0.79724688230E+02  0.41800000000E+01 0.  1.
        -11    1    1    2    0    0 -0.10308467675E+03  0.21818038926E+00 -0.43171724155E+02  0.11175999261E+03  0.00000000000E+00 0.  1.
         11    1    1    2    0    0  0.12128757564E+02 -0.11096135391E+02  0.13573652022E+02  0.21318419497E+02  0.00000000000E+00 0. -1.
</event>
<event>
 7    1  0.2412631E-010  0.2095461E+03  0.7561462E-02  0.1141926E+00
          2   -1    0    0  501    0  0.00000000000E+00  0.00000000000E+00  0.11935408762E+04  0.11935408762E+04  0.00000000000E+00 0. -1.
         -2   -1    0    0    0  501 -0.00000000000E+00 -0.00000000000E+00 -0.39928549263E+02  0.39928549263E+02  0.00000000000E+00 0.  1.
         25    2    1    2    0    0 -0.15759172439E+03 -0.10492882505E+03  0.60915875964E+03  0.65005855246E+03  0.12512600553E+03 0.  0.
          5    1    3    3  502    0 -0.17690452822E+03 -0.80442957020E+02  0.49997513732E+03  0.53643162824E+03  0.41800000000E+01 0.  1.
         -5    1    3    3    0  502  0.19312803829E+02 -0.24485868033E+02  0.10918362232E+03  0.11362692423E+03  0.41800000000E+01 0.  1.
        -11    1    1    2    0    0  0.12617878908E+03  0.63501669569E+02  0.27685900599E+03  0.31081257705E+03  0.00000000000E+00 0.  1.
         11    1    1    2    0    0  0.31412935318E+02  0.41427155484E+02  0.26759456126E+03  0.27259829591E+03  0.00000000000E+00 0. -1.
</event>
<event>
 7    1  0.2412631E-010  0.1310546E+03  0.7561462E-02  0.1225899E+00
         -2   -1    0    0    0  501 -0.00000000000E+00  0.00000000000E+00  0.10830956400E+03  0.10830956400E+03  0.00000000000E+00 0.  1.
          2   -1    0    0  501    0  0.00000000000E+00 -0.00000000000E+00 -0.25481503492E+03  0.25481503492E+03  0.00000000000E+00 0. -1.
         25    2    1    2    0    0 -0.65224653479E+02 -0.95206040293E+02 -0.13052142666E+03  0.21446277026E+03  0.12505995155E+03 0.  0.
          5    1    3    3  502    0 -0.14492195725E+01 -0.20625395957E+02  0.23632344436E+02  0.31677551978E+02  0.41800000000E+01 0. -1.
         -5    1    3    3    0  502 -0.63775433907E+02 -0.74580644336E+02 -0.15415377109E+03  0.18278521828E+03  0.41800000000E+01 0. -1.
        -11    1    1    2    0    0  0.22982679962E+01  0.77350553649E+02 -0.27733688454E+02  0.82204304393E+02  0.00000000000E+00 0. -1.
         11    1    1    2    0    0  0.62926385483E+02  0.17855486644E+02  0.11749644199E+02  0.66457524270E+02  0.00000000000E+00 0.  1.
</event>
<event>
 6    1  0.2412631E-010  0.8718500E+02  0.7561462E-02  0.1309815E+00
          1   -1    0    0  501    0  0.00000000000E+00  0.00000000000E+00  0.16612909642E+03  0.16612909642E+03  0.00000000000E+00 0. -1.
         -1   -1    0    0    0  501 -0.00000000000E+00 -0.00000000000E+00 -0.89892965808E+02  0.89892965808E+02  0.00000000000E+00 0.  1.
          5    1    1    2  502    0 -0.47617477849E+02  0.17460563588E+02  0.24543579640E+02  0.56499160871E+02  0.41800000000E+01 0. -1.
         -5    1    1    2    0  502  0.78789867399E+02  0.98717006600E+01  0.68189732206E+02  0.10475020600E+03  0.41800000000E+01 0. -1.
        -11    1    1    2    0    0 -0.11449391774E+02 -0.19760717053E+02  0.33472027858E+02  0.40520996525E+02  0.00000000000E+00 0. -1.
         11    1    1    2    0    0 -0.19722997775E+02 -0.75715471953E+01 -0.49969209096E+02  0.54251698829E+02  0.00000000000E+00 0.  1.
</event>
<event>
 6    1  0.2412631E-010  0.1237690E+03  0.7561462E-02  0.1237006E+00
          1   -1    0    0  501    0  0.00000000000E+00  0.00000000000E+00  0.28247307615E+03  0.28247307615E+03  0.00000000000E+00 0. -1.
         -1   -1    0    0    0  501 -0.00000000000E+00 -0.00000000000E+00 -0.96970966974E+02  0.96970966974E+02  0.00000000000E+00 0.  1.
          5    1    1    2  502    0 -0.35004264025E+02  0.29513765140E+02  0.13056774247E+03  0.13842604020E+03  0.41800000000E+01 0. -1.
         -5    1    1    2    0  502 -0.18368625184E+02 -0.85182918493E+02  0.80334770990E+02  0.11859461971E+03  0.41800000000E+01 0. -1.
        -11    1    1    2    0    0  0.32773036526E+02  0.77597150384E+02 -0.19149672575E+01  0.84255900508E+02  0.00000000000E+00 0.  1.
         11    1    1    2    0    0  0.20599852682E+02 -0.21927997031E+02 -0.23485437020E+02  0.38167482709E+02  0.00000000000E+00 0. -1.
</event>
<event>
 6    1  0.2412631E-010  0.1116840E+03  0.7561462E-02  0.1257483E+00
         -2   -1    0    0    0  501 -0.00000000000E+00  0.00000000000E+00  0.43072596253E+02  0.43072596253E+02  0.00000000000E+00 0.  1.
          2   -1    0    0  501    0  0.00000000000E+00 -0.00000000000E+00 -0.57834943177E+03  0.57834943177E+03  0.00000000000E+00 0. -1.
          5    1    1    2  502    0  0.32295285591E+02  0.38549187298E+02 -0.40608653394E+02  0.64773146004E+02  0.41800000000E+01 0.  1.
         -5    1    1    2    0  502  0.64839743307E+02 -0.19106762198E+02 -0.36100558987E+03  0.36730337460E+03  0.41800000000E+01 0.  1.
        -11    1    1    2    0    0 -0.51880151508E+02  0.76406183559E+01 -0.79769738260E+01  0.53043013496E+02  0.00000000000E+00 0.  1.
         11    1    1    2    0    0 -0.45254877391E+02 -0.27083043456E+02 -0.12568561843E+03  0.13630249392E+03  0.00000000000E+00 0. -1.
</event>
<event>
 6    1  0.2412631E-010  0.1140779E+03  0.7561462E-02  0.1253199E+00
          3   -1    0    0  501    0  0.00000000000E+00  0.00000000000E+00  0.51911816992E+02  0.51911816992E+02  0.00000000000E+00 0. -1.
         -3   -1    0    0    0  501 -0.00000000000E+00 -0.00000000000E+00 -0.28359674011E+03  0.28359674011E+03  0.00000000000E+00 0.  1.
          5    1    1    2  502    0 -0.76380871596E+01 -0.91642696612E+02 -0.98120751815E+02  0.13454322188E+03  0.41800000000E+01 0. -1.
         -5    1    1    2    0  502  0.16126142406E+02  0.39648997593E+02 -0.32636440228E+02  0.53988008945E+02  0.41800000000E+01 0. -1.
        -11    1    1    2    0    0  0.25284092226E+02  0.53620211580E+02 -0.25920231372E+02  0.64701397234E+02  0.00000000000E+00 0. -1.
         11    1    1    2    0    0 -0.33772147473E+02 -0.16265125618E+01 -0.75007499703E+02  0.82275929042E+02  0.00000000000E+00 0.  1.
</event>
<event>
 7    1  0.2412631E-010  0.1326119E+03  0.7561462E-02  0.1223631E+00
          3   -1    0    0  501    0  0.00000000000E+00  0.00000000000E+00  0.15772003308E+03  0.15772003308E+03  0.00000000000E+00 0. -1.
         -3   -1    0    0    0  501 -0.00000000000E+00 -0.00000000000E+00 -0.15972493620E+03  0.15972493620E+03  0.00000000000E+00 0.  1.
         25    2    1    2    0    0 -0.84304640999E+02  0.78011731663E+02  0.14157319060E+02  0.17043184175E+03  0.12511386905E+03 0.  0.
          5    1    3    3  502    0 -0.79582497980E+02  0.57126716878E+02 -0.44626395416E+02  0.10773032690E+03  0.41800000000E+01 0.  1.
         -5    1    3    3    0  502 -0.47221430189E+01  0.20885014785E+02  0.58783714476E+02  0.62701514853E+02  0.41800000000E+01 0.  1.
        -11    1    1    2    0    0  0.10343249500E+03 -0.63819187396E+02 -0.19049862953E+02  0.12302059575E+03  0.00000000000E+00 0. -1.
         11    1    1    2    0    0 -0.19127853998E+02 -0.14192544267E+02  0.28876407702E+01  0.23992531767E+02  0.00000000000E+00 0.  1.
</event>
<event>
 6    1  0.2412631E-010  0.1580143E+03  0.7561462E-02  0.1190957E+00
         -2   -1    0    0    0  501 -0.00000000000E+00  0.00000000000E+00  0.14468222542E+02  0.14468222542E+02  0.00000000000E+00 0.  1.
          2   -1    0    0  501    0  0.00000000000E+00 -0.00000000000E+00 -0.20164227000E+04  0.20164227000E+04  0.00000000000E+00 0. -1.
          5    1    1    2  502    0 -0.40463506223E+02  0.70059696089E+02 -0.85080773783E+03  0.85465603345E+03  0.41800000000E+01 0. -1.
         -5    1    1    2    0  502  0.54911230146E+02  0.60968075646E+02 -0.33194280280E+03  0.34195883696E+03  0.41800000000E+01 0. -1.
        -11    1    1    2    0    0  0.14550779113E+02 -0.12145044205E+03 -0.72498502571E+03  0.73523140749E+03  0.00000000000E+00 0.  1.
         11    1    1    2    0    0 -0.28998503036E+02 -0.95773296836E+01 -0.94218911111E+02  0.99044644646E+02  0.00000000000E+00 0. -1.
</event>
<event>
 7    1  0.2412631E-010  0.2596093E+03  0.7561462E-02  0.1107378E+00
          2   -1    0    0  501    0  0.00000000000E+00  0.00000000000E+00  0.88450400267E+03  0.88450400267E+03  0.00000000000E+00 0. -1.
         -2   -1    0    0    0  501 -0.00000000000E+00 -0.00000000000E+00 -0.99094568792E+02  0.99094568792E+02  0.00000000000E+00 0.  1.
         25    2    1    2    0    0 -0.13493183819E+03  0.21241577999E+03  0.58655481293E+03  0.65039410457E+03  0.12505550025E+03 0.  0.
          5    1    3    3  502    0 -0.59443347729E+02  0.14760226579E+03  0.22661585474E+03  0.27693349107E+03  0.41800000000E+01 0.  1.
         -5    1    3    3    0  502 -0.75488490465E+02  0.64813514201E+02  0.35993895819E+03  0.37346061350E+03  0.41800000000E+01 0.  1.
        -11    1    1    2    0    0  0.59087139704E+02 -0.37963113721E+02  0.89567822355E+02  0.11381951890E+03  0.00000000000E+00 0. -1.
         11    1    1    2    0    0  0.75844698491E+02 -0.17445266627E+03  0.10928679859E+03  0.21938494799E+03  0.00000000000E+00 0.  1.
</event>
<event>
 7    1  0.2412631E-010  0.9109864E+02  0.7561462E-02  0.1300213E+00
         -2   -1    0    0    0  501 -0.00000000000E+00  0.00000000000E+00  0.40631817931E+03  0.40631817931E+03  0.00000000000E+00 0. -1.
          2   -1    0    0  501    0  0.00000000000E+00 -0.00000000000E+00 -0.35186469233E+02  0.35186469233E+02  0.00000000000E+00 0.  1.
         25    2    1    2    0    0 -0.10096890043E+02  0.43477813189E+02  0.23951436676E+03  0.27386170021E+03  0.12506331007E+03 0.  0.
          5    1    3    3  502    0 -0.39545065821E+02  0.38530216979E+02  0.23724906651E+03  0.24362467406E+03  0.41800000000E+01 0. -1.
         -5    1    3    3    0  502  0.29448175778E+02  0.49475962096E+01  0.22653002529E+01  0.30237026145E+02  0.41800000000E+01 0. -1.
        -11    1    1    2    0    0 -0.33420329936E+02  0.23179641615E+01  0.18992427756E+02  0.38509787366E+02  0.00000000000E+00 0.  1.
         11    1    1    2    0    0  0.43517219979E+02 -0.45795777350E+02  0.11262491555E+03  0.12913316097E+03  0.00000000000E+00 0. -1.
</event>
<event>
 7    1  0.2958923E-010  0.9787445E+02  0.7561462E-02  0.1284830E+00
         -1   -1    0    0    0  501 -0.00000000000E+00  0.00000000000E+00  0.33103714880E+02  0.33103714880E+02  0.00000000000E+00 0.  1.
          1   -1    0    0  501    0  0.00000000000E+00 -0.00000000000E+00 -0.37443969914E+03  0.37443969914E+03  0.00000000000E+00 0. -1.
         25    2    1    2    0    0 -0.37699332821E+01  0.29164218617E+02 -0.18959385809E+03  0.22902595532E+03  0.12506915344E+03 0.  0.
          5    1    3    3  502    0  0.63980248626E+01  0.64395958961E+02 -0.17936485770E+03  0.19072755132E+03  0.41800000000E+01 0.  1.
         -5    1    3    3    0  502 -0.10167958145E+02 -0.35231740344E+02 -0.10229000382E+02  0.38298404005E+02  0.41800000000E+01 0.  1.
        -11    1    1    2    0    0 -0.42576523595E+02 -0.18581221020E+02 -0.77673151937E+02  0.90504920683E+02  0.00000000000E+00 0. -1.
         11    1    1    2    0    0  0.46346456877E+02 -0.10582997597E+02 -0.74068974241E+02  0.88012538018E+02  0.00000000000E+00 0.  1.
</event>
<event>
 7    1  0.2412631E-010  0.1032918E+03  0.7561462E-02  0.1273522E+00
          1   -1    0    0  501    0  0.00000000000E+00  0.00000000000E+00  0.17945992914E+03  0.17945992914E+03  0.00000000000E+00 0. -1.
         -1   -1    0    0    0  501 -0.00000000000E+00 -0.00000000000E+00 -0.92589127174E+02  0.92589127174E+02  0.00000000000E+00 0.  1.
         25    2    1    2    0    0 -0.38805791224E+02 -0.13093959786E+02 -0.10367471992E+02  0.13197907283E+03  0.12503459511E+03 0.  0.
          5    1    3    3  502    0  0.42239632427E+02 -0.25300937309E+02 -0.15261343820E+01  0.49438097277E+02  0.41800000000E+01 0.  1.
         -5    1    3    3    0  502 -0.81045423650E+02  0.12206977523E+02 -0.88413376104E+01  0.82540975555E+02  0.41800000000E+01 0.  1.
        -11    1    1    2    0    0  0.27648996897E+02 -0.23848029815E+02  0.94586116722E+02  0.10138899858E+03  0.00000000000E+00 0. -1.
         11    1    1    2    0    0  0.11156794326E+02  0.36941989602E+02  0.26521572368E+01  0.38680984907E+02  0.00000000000E+00 0.  1.
</event>
<event>
 7    1  0.2412631E-010  0.1586220E+03  0.7561462E-02  0.1190261E+00
          1   -1    0    0  501    0  0.00000000000E+00  0.00000000000E+00  0.78261340410E+02  0.78261340410E+02  0.00000000000E+00 0. -1.
         -1   -1    0    0    0  501 -0.00000000000E+00 -0.00000000000E+00 -0.47557800615E+03  0.47557800615E+03  0.00000000000E+00 0.  1.
         25    2    1    2    0    0  0.10516706911E+03  0.10086801935E+03 -0.29894942536E+03  0.35531220642E+03  0.12506612393E+03 0.  0.
          5    1    3    3  502    0  0.60028895089E+02  0.63785061829E+02 -0.52947922376E+02  0.10243513676E+03  0.41800000000E+01 0.  1.
         -5    1    3    3    0  502  0.45138174021E+02  0.37082957526E+02 -0.24600150298E+03  0.25287706967E+03  0.41800000000E+01 0.  1.
        -11    1    1    2    0    0 -0.10768979701E+03 -0.47735862971E+02 -0.79389705093E+02  0.14205115370E+03  0.00000000000E+00 0.  1.
         11    1    1    2    0    0  0.25227279010E+01 -0.53132156383E+02 -0.18977535287E+02  0.56475986433E+02  0.00000000000E+00 0. -1.
</event>
<event>
 6    1  0.2412631E-010  0.8099276E+02  0.7561462E-02  0.1326258E+00
         -1   -1    0    0    0  501 -0.00000000000E+00  0.00000000000E+00  0.44090082045E+02  0.44090082045E+02  0.00000000000E+00 0.  1.
          1   -1    0    0  501    0  0.00000000000E+00 -0.00000000000E+00 -0.34081446316E+03  0.34081446316E+03  0.00000000000E+00 0. -1.
          5    1    1    2  502    0 -0.67831965113E+02 -0.68199688012E+01 -0.11782418244E+03  0.13618993293E+03  0.41800000000E+01 0. -1.
         -5    1    1    2    0  502  0.26212548869E+02  0.31474003914E+02  0.58144914854E+00  0.41176706081E+02  0.41800000000E+01 0. -1.
        -11    1    1    2    0    0  0.10847436422E+02 -0.18018417838E+02  0.39716655799E+01  0.21403373234E+02  0.00000000000E+00 0.  1.
         11    1    1    2    0    0  0.30771979822E+02 -0.66356172750E+01 -0.18345331341E+03  0.18613453296E+03  0.00000000000E+00 0. -1.
</event>
<event>
 7    1  0.2412631E-010  0.1402157E+03  0.7561462E-02  0.1213039E+00
          2   -1    0    0  501    0  0.00000000000E+00  0.00000000000E+00  0.22022587762E+03  0.22022587762E+03  0.00000000000E+00 0. -1.
         -2   -1    0    0    0  501 -0.00000000000E+00 -0.00000000000E+00 -0.11653507880E+03  0.11653507880E+03  0.00000000000E+00 0.  1.
         25    2    1    2    0    0  0.96967875920E+02  0.35738583919E+02  0.11542067852E+03  0.19915122231E+03  0.12513696886E+03 0.  0.
          5    1    3    3  502    0  0.24223834322E+02 -0.41652474223E+02  0.98878235791E+01  0.49365617725E+02  0.41800000000E+01 0.  1.
         -5    1    3    3    0  502  0.72744041598E+02  0.77391058142E+02  0.10553285494E+03  0.14978560459E+03  0.41800000000E+01 0.  1.
        -11    1    1    2    0    0 -0.10564963049E+02  0.20231811605E+02  0.19510469594E+02  0.30026705927E+02  0.00000000000E+00 0.  1.
         11    1    1    2    0    0 -0.86402912872E+02 -0.55970395523E+02 -0.31240349295E+02  0.10758302818E+03  0.00000000000E+00 0. -1.
</event>
<event>
 7    1  0.2412631E-010  0.1670297E+03  0.7561462E-02  0.1180981E+00
          1   -1    0    0  501    0  0.00000000000E+00  0.00000000000E+00  0.71575169184E+03  0.71575169184E+03  0.00000000000E+00 0. -1.
         -1   -1    0    0    0  501 -0.00000000000E+00 -0.00000000000E+00 -0.49581115769E+02  0.49581115769E+02  0.00000000000E+00 0.  1.
         25    2    1    2    0    0  0.60614962087E+02  0.13828603419E+03  0.29056064702E+03  0.35050793735E+03  0.12503249045E+03 0.  0.
          5    1    3    3  502    0 -0.28925347860E+02  0.42815590235E+02  0.14853840135E+03  0.15732444054E+03  0.41800000000E+01 0.  1.
         -5    1    3    3    0  502  0.89540309947E+02  0.95470443956E+02  0.14202224567E+03  0.19318349681E+03  0.41800000000E+01 0.  1.
        -11    1    1    2    0    0 -0.68641874166E+01 -0.95852898649E+01 -0.22883224464E+01  0.12009632397E+02  0.00000000000E+00 0.  1.
         11    1    1    2    0    0 -0.53750774670E+02 -0.12870074433E+03  0.37789825150E+03  0.40281523786E+03  0.00000000000E+00 0. -1.
</event>
<event>
 6    1  0.2412631E-010  0.1826079E+03  0.7561462E-02  0.1165303E+00
         -2   -1    0    0    0  501 -0.00000000000E+00  0.00000000000E+00  0.16027632536E+03  0.16027632536E+03  0.00000000000E+00 0.  1.
          2   -1    0    0  501    0  0.00000000000E+00 -0.00000000000E+00 -0.21861768500E+03  0.21861768500E+03  0.00000000000E+00 0. -1.
          5    1    1    2  502    0 -0.54058462609E+02 -0.95244010902E+02  0.14807709837E+01  0.10960567538E+03  0.41800000000E+01 0.  1.
         -5    1    1    2    0  502  0.60334116483E+02 -0.57051776000E+02 -0.35631618047E+02  0.90455488287E+02  0.41800000000E+01 0.  1.
        -11    1    1    2    0    0  0.32213787123E+02  0.11288110815E+03 -0.35408820131E+02  0.12261181510E+03  0.00000000000E+00 0. -1.
         11    1    1    2    0    0 -0.38489440996E+02  0.39414678751E+02  0.11218307560E+02  0.56221031596E+02  0.00000000000E+00 0.  1.
</event>
<event>
 7    1  0.2412631E-010  0.1564806E+03  0.7561462E-02  0.1192728E+00
          2   -1    0    0  501    0  0.00000000000E+00  0.00000000000E+00  0.52231378493E+03  0.52231378493E+03  0.00000000000E+00 0.  1.
         -2   -1    0    0    0  501 -0.00000000000E+00 -0.00000000000E+00 -0.64494108604E+02  0.64494108604E+02  0.00000000000E+00 0. -1.
         25    2    1    2    0    0 -0.14318888625E+03  0.12064611035E+02  0.29907517767E+03  0.35461140710E+03  0.12511864836E+03 0.  0.
          5    1    3    3  502    0 -0.13881923144E+03 -0.16668573815E+02  0.29292844348E+03  0.32461233152E+03  0.41800000000E+01 0.  1.
         -5    1    3    3    0  502 -0.43696548007E+01  0.28733184850E+02  0.61467341800E+01  0.29999075582E+02  0.41800000000E+01 0.  1.
        -11    1    1    2    0    0  0.57317750246E+02 -0.61101652049E+01  0.74398785636E+01  0.58120653860E+02  0.00000000000E+00 0. -1.
         11    1    1    2    0    0  0.85871135999E+02 -0.59544458305E+01  0.15130462010E+03  0.17407583257E+03  0.00000000000E+00 0.  1.
</event>
<event>
 7    1  0.2412631E-010  0.1070131E+03  0.7561462E-02  0.1266203E+00
         -2   -1    0    0    0  501 -0.00000000000E+00  0.00000000000E+00  0.10376910129E+04  0.10376910129E+04  0.00000000000E+00 0.  1.
          2   -1    0    0  501    0  0.00000000000E+00 -0.00000000000E+00 -0.16146332125E+02  0.16146332125E+02  0.00000000000E+00 0. -1.
         25    2    1    2    0    0  0.66687318875E+02 -0.23852731911E+02  0.58561346422E+03  0.60299176566E+03  0.12505914066E+03 0.  0.
          5    1    3    3  502    0  0.12540785055E+02 -0.40527519601E+02  0.56197052668E+02  0.70536035212E+02  0.41800000000E+01 0.  1.
         -5    1    3    3    0  502  0.54146533820E+02  0.16674787689E+02  0.52941641155E+03  0.53245573045E+03  0.41800000000E+01 0.  1.
        -11    1    1    2    0    0 -0.34741242232E+02  0.58136952081E+02  0.23853779999E+03  0.24796600802E+03  0.00000000000E+00 0.  1.
         11    1    1    2    0    0 -0.31946076643E+02 -0.34284220169E+02  0.19739341658E+03  0.20287957136E+03  0.00000000000E+00 0. -1.
</event>
<event>
 7    1  0.2412631E-010  0.2105945E+03  0.7561462E-02  0.1141096E+00
         -1   -1    0    0    0  501 -0.00000000000E+00  0.00000000000E+00  0.15268316695E+03  0.15268316695E+03  0.00000000000E+00 0.  1.
          1   -1    0    0  501    0  0.00000000000E+00 -0.00000000000E+00 -0.43964999172E+03  0.43964999172E+03  0.00000000000E+00 0. -1.
         25    2    1    2    0    0 -0.14293555669E+03  0.13352820387E+03  0.12561719405E+01  0.23216678845E+03  0.12505792696E+03 0.  0.
          5    1    3    3  502    0 -0.79190562484E+02  0.20150820463E+02 -0.45820917978E+02  0.93777554224E+02  0.41800000000E+01 0. -1.
         -5    1    3    3    0  502 -0.63744994207E+02  0.11337738341E+03  0.47077089918E+02  0.13838923423E+03  0.41800000000E+01 0. -1.
        -11    1    1    2    0    0  0.45489636433E+01 -0.44389160597E+02 -0.29414981366E+02  0.53444660889E+02  0.00000000000E+00 0.  1.
         11    1    1    2    0    0  0.13838659305E+03 -0.89139043271E+02 -0.25880801535E+03  0.30672170934E+03  0.00000000000E+00 0. -1.
</event>
<event>
 6    1  0.2412631E-010  0.1026295E+03  0.7561462E-02  0.1274862E+00
          1   -1    0    0  501    0  0.00000000000E+00  0.00000000000E+00  0.27084414542E+03  0.27084414542E+03  0.00000000000E+00 0. -1.
         -1   -1    0    0    0  501 -0.00000000000E+00 -0.00000000000E+00 -0.47410510806E+02  0.47410510806E+02  0.00000000000E+00 0.  1.
          5    1    1    2  502    0 -0.76732756764E+02  0.25315859732E+01  0.96448172817E+02  0.12334523634E+03  0.41800000000E+01 0.  1.
         -5    1    1    2    0  502  0.43084468661E+02 -0.89758251532E+00  0.11589764975E+02  0.44820443397E+02  0.41800000000E+01 0.  1.
        -11    1    1    2    0    0  0.59045157301E+02 -0.58348076383E+01  0.43065163464E+02  0.73314281590E+02  0.00000000000E+00 0.  1.
         11    1    1    2    0    0 -0.25396869197E+02  0.42008041804E+01  0.72330533362E+02  0.76774694901E+02  0.00000000000E+00 0. -1.
</event>
<event>
 6    1  0.2412631E-010  0.2057914E+03  0.7561462E-02  0.1144943E+00
         -2   -1    0    0    0  501 -0.00000000000E+00  0.00000000000E+00  0.54767296702E+03  0.54767296702E+03  0.00000000000E+00 0.  1.
          2   -1    0    0  501    0  0.00000000000E+00 -0.00000000000E+00 -0.17169080261E+03  0.17169080261E+03  0.00000000000E+00 0. -1.
          5    1    1    2  502    0 -0.65506009355E+02 -0.60863758765E+01  0.15408079476E+03  0.16759010993E+03  0.41800000000E+01 0. -1.
         -5    1    1    2    0  502  0.22013528985E+02  0.84342110483E+02  0.25669789260E+03  0.27112629441E+03  0.41800000000E+01 0. -1.
        -11    1    1    2    0    0 -0.72195846519E+02  0.48351670653E+02 -0.62347754577E+02  0.10694562548E+03  0.00000000000E+00 0. -1.
         11    1    1    2    0    0  0.11568832689E+03 -0.12660740526E+03  0.27551231640E+02  0.17370173980E+03  0.00000000000E+00 0.  1.
</event>
<event>
 6    1  0.2412631E-010  0.1045448E+03  0.7561462E-02  0.1271019E+00
         -1   -1    0    0    0  501 -0.00000000000E+00  0.00000000000E+00  0.20882752380E+02  0.20882752380E+02  0.00000000000E+00 0.  1.
          1   -1    0    0  501    0  0.00000000000E+00 -0.00000000000E+00 -0.61178334956E+03  0.61178334956E+03  0.00000000000E+00 0. -1.
          5    1    1    2  502    0  0.67824339244E+02  0.31731546847E+02 -0.22019157200E+03  0.23261305389E+03  0.41800000000E+01 0.  1.
         -5    1    1    2    0  502 -0.48092752484E+02 -0.18201514468E+02 -0.18919364031E+03  0.19610179475E+03  0.41800000000E+01 0.  1.
        -11    1    1    2    0    0 -0.18671198231E+02 -0.46191711752E+02 -0.15185400411E+03  0.15981841709E+03  0.00000000000E+00 0. -1.
         11    1    1    2    0    0 -0.10603885289E+01  0.32661679373E+02 -0.29661380760E+02  0.44132836210E+02  0.00000000000E+00 0.  1.
</event>
<event>
 7    1  0.2412631E-010  0.9310154E+02  0.7561462E-02  0.1295510E+00
         -1   -1    0    0    0  501 -0.00000000000E+00  0.00000000000E+00  0.42740195268E+03  0.42740195268E+03  0.00000000000E+00 0.  1.
          1   -1    0    0  501    0  0.00000000000E+00 -0.00000000000E+00 -0.28577219677E+02  0.28577219677E+02  0.00000000000E+00 0. -1.
         25    2    1    2    0    0  0.68607434251E+01 -0.96679039754E+00  0.28724009744E+03  0.31336217454E+03  0.12506388117E+03 0.  0.
          5    1    3    3  502    0 -0.44320837439E+02 -0.12317028075E+02  0.41620894184E+02  0.62175694967E+02  0.41800000000E+01 0.  1.
         -5    1    3    3    0  502  0.51181580864E+02  0.11350237678E+02  0.24561920325E+03  0.25118647958E+03  0.41800000000E+01 0.  1.
        -11    1    1    2    0    0  0.31135017153E+02 -0.26217117047E+02  0.64634490906E+02  0.76382877231E+02  0.00000000000E+00 0. -1.
         11    1    1    2    0    0 -0.37995760578E+02  0.27183907445E+02  0.46950144655E+02  0.66234120580E+02  0.00000000000E+00 0.  1.
</event>
<event>
 7    1  0.2412631E-010  0.7161288E+02  0.7561462E-02  0.1354693E+00
         -1   -1    0    0    0  501 -0.00000000000E+00  0.00000000000E+00  0.48328766916E+02  0.48328766916E+02  0.00000000000E+00 0.  1.
          1   -1    0    0  501    0  0.00000000000E+00 -0.00000000000E+00 -0.24737463278E+03  0.24737463278E+03  0.00000000000E+00 0. -1.
         25    2    1    2    0    0  0.18871080061E+01 -0.79138293198E+01 -0.12872391014E+03  0.17971517916E+03  0.12514595762E+03 0.  0.
          5    1    3    3  502    0  0.24959015494E+02 -0.11199884465E+02 -0.14713981473E+03  0.14971969591E+03  0.41800000000E+01 0. -1.
         -5    1    3    3    0  502 -0.23071907488E+02  0.32860551457E+01  0.18415904590E+02  0.29995483250E+02  0.41800000000E+01 0. -1.
        -11    1    1    2    0    0 -0.44382214315E+02  0.18495969791E+02 -0.31645152577E+02  0.57561250226E+02  0.00000000000E+00 0.  1.
         11    1    1    2    0    0  0.42495106308E+02 -0.10582140472E+02 -0.38676803146E+02  0.58426970303E+02  0.00000000000E+00 0. -1.
</event>
<event>
 7    1  0.2412631E-010  0.1364895E+03  0.7561462E-02  0.1218132E+00
         -1   -1    0    0    0  501 -0.00000000000E+00  0.00000000000E+00  0.11625015448E+03  0.11625015448E+03  0.00000000000E+00 0.  1.
          1   -1    0    0  501    0  0.00000000000E+00 -0.00000000000E+00 -0.27002147636E+03  0.27002147636E+03  0.00000000000E+00 0. -1.
         25    2    1    2    0    0  0.77833286162E+02 -0.38872269885E+02 -0.18649202131E+03  0.24083907776E+03  0.12512039626E+03 0.  0.
          5    1    3    3  502    0  0.23892467828E+02 -0.76911509475E+02 -0.69564047041E+02  0.10650286076E+03  0.41800000000E+01 0. -1.
         -5    1    3    3    0  502  0.53940818334E+02  0.38039239590E+02 -0.11692797427E+03  0.13433621700E+03  0.41800000000E+01 0. -1.
        -11    1    1    2    0    0 -0.87371868153E+02  0.12465759527E+01 -0.97183254399E+01  0.87919526531E+02  0.00000000000E+00 0. -1.
         11    1    1    2    0    0  0.95385819906E+01  0.37625693933E+02  0.42439024878E+02  0.57513026550E+02  0.00000000000E+00 0.  1.
</event>
<event>
 7    1  0.2412631E-010  0.2819546E+03  0.7561462E-02  0.1094626E+00
          1   -1    0    0  501    0  0.00000000000E+00  0.00000000000E+00  0.81977785423E+03  0.81977785423E+03  0.00000000000E+00 0. -1.
         -1   -1    0    0    0  501 -0.00000000000E+00 -0.00000000000E+00 -0.10998521577E+03  0.10998521577E+03  0.00000000000E+00 0.  1.
         25    2    1    2    0    0  0.25378864785E+03 -0.11632860896E+03  0.37250729967E+03  0.48201469764E+03  0.12504182255E+03 0.  0.
          5    1    3    3  502    0  0.20779565130E+03 -0.10181244434E+03  0.21020825485E+03  0.31264962710E+03  0.41800000000E+01 0. -1.
         -5    1    3    3    0  502  0.45992996557E+02 -0.14516164626E+02  0.16229904482E+03  0.16936507054E+03  0.41800000000E+01 0. -1.
        -11    1    1    2    0    0 -0.21237183474E+03  0.74134400946E+02  0.30901022273E+03  0.38221070543E+03  0.00000000000E+00 0. -1.
         11    1    1    2    0    0 -0.41416813110E+02  0.42194208015E+02  0.28275116061E+02  0.65537666928E+02  0.00000000000E+00 0.  1.
</event>
<event>
 7    1  0.2412631E-010  0.1077061E+03  0.7561462E-02  0.1264878E+00
         -1   -1    0    0    0  501 -0.00000000000E+00  0.00000000000E+00  0.11888115152E+03  0.11888115152E+03  0.00000000000E+00 0.  1.
          1   -1    0    0  501    0  0.00000000000E+00 -0.00000000000E+00 -0.13596499386E+03  0.13596499386E+03  0.00000000000E+00 0. -1.
         25    2    1    2    0    0 -0.65063886991E+02 -0.56034911662E+01 -0.17104569854E+02  0.14212491835E+03  0.12506885145E+03 0.  0.
          5    1    3    3  502    0 -0.54402205134E+02  0.53561559759E+02 -0.26937071948E+02  0.81064905183E+02  0.41800000000E+01 0. -1.
         -5    1    3    3    0  502 -0.10661681857E+02 -0.59165050925E+02  0.98325020941E+01  0.61060013171E+02  0.41800000000E+01 0. -1.
        -11    1    1    2    0    0  0.39789745465E+02  0.24859079385E+02  0.39999825509E+02  0.61653740461E+02  0.00000000000E+00 0.  1.
         11    1    1    2    0    0  0.25274141526E+02 -0.19255588219E+02 -0.39979097997E+02  0.51067486566E+02  0.00000000000E+00 0. -1.
</event>
<event>
 6    1  0.2412631E-010  0.1410101E+03  0.7561462E-02  0.1211976E+00
         -2   -1    0    0    0  501 -0.00000000000E+00  0.00000000000E+00  0.33145768716E+03  0.33145768716E+03  0.00000000000E+00 0.  1.
          2   -1    0    0  501    0  0.00000000000E+00 -0.00000000000E+00 -0.83071631162E+02  0.83071631162E+02  0.00000000000E+00 0. -1.
          5    1    1    2  502    0 -0.75916760163E+02  0.71637288482E+01  0.14192938159E+03  0.16117101241E+03  0.41800000000E+01 0.  1.
         -5    1    1    2    0  502 -0.42926634772E+02  0.27737563740E+02 -0.17703454024E+02  0.54248991691E+02  0.41800000000E+01 0.  1.
        -11    1    1    2    0    0  0.66968785298E+02 -0.65888777098E+02  0.62881892998E+02  0.11304990765E+03  0.00000000000E+00 0.  1.
         11    1    1    2    0    0  0.51874609637E+02  0.30987484509E+02  0.61278235436E+02  0.86059406571E+02  0.00000000000E+00 0. -1.
</event>
<event>
 7    1  0.2412631E-010  0.1479919E+03  0.7561462E-02  0.1202962E+00
         -2   -1    0    0    0  501 -0.00000000000E+00  0.00000000000E+00  0.11603336109E+03  0.11603336109E+03  0.00000000000E+00 0.  1.
          2   -1    0    0  501    0  0.00000000000E+00 -0.00000000000E+00 -0.24622243581E+03  0.24622243581E+03  0.00000000000E+00 0. -1.
         25    2    1    2    0    0 -0.12674327126E+03  0.18141239819E+02 -0.81551464697E+02  0.19671558808E+03  0.12511362759E+03 0.  0.
          5    1    3    3  502    0 -0.55475744560E+02 -0.38873830847E+02  0.85403995257E+01  0.68404267289E+02  0.41800000000E+01 0.  1.
         -5    1    3    3    0  502 -0.71267526698E+02  0.57015070666E+02 -0.90091864223E+02  0.12831132079E+03  0.41800000000E+01 0.  1.
        -11    1    1    2    0    0  0.10525960616E+03 -0.33364528604E+02 -0.21428665644E+00  0.11042111382E+03  0.00000000000E+00 0.  1.
         11    1    1    2    0    0  0.21483665094E+02  0.15223288785E+02 -0.48423323365E+02  0.55119094994E+02  0.00000000000E+00 0. -1.
</event>
<event>
 7    1  0.2412631E-010  0.1324860E+03  0.7561462E-02  0.1223813E+00
          1   -1    0    0  501    0  0.00000000000E+00  0.00000000000E+00  0.16809527789E+03  0.16809527789E+03  0.00000000000E+00 0. -1.
         -1   -1    0    0    0  501 -0.00000000000E+00 -0.00000000000E+00 -0.16009284203E+03  0.16009284203E+03  0.00000000000E+00 0.  1.
         25    2    1    2    0    0  0.19779905455E+02 -0.11796340228E+03  0.33621026947E+02  0.17629203448E+03  0.12506757785E+03 0.  0.
          5    1    3    3  502    0  0.42984712159E+01 -0.37320687513E+02 -0.47556728106E+02  0.60748871260E+02  0.41800000000E+01 0.  1.
         -5    1    3    3    0  502  0.15481434239E+02 -0.80642714764E+02  0.81177755053E+02  0.11554316322E+03  0.41800000000E+01 0.  1.
        -11    1    1    2    0    0 -0.48384173457E+02  0.43054623251E+02 -0.30447212827E+02  0.71566483730E+02  0.00000000000E+00 0.  1.
         11    1    1    2    0    0  0.28604268002E+02  0.74908779025E+02  0.48286217394E+01  0.80329601710E+02  0.00000000000E+00 0. -1.
</event>
<event>
 7    1  0.2412631E-010  0.9026141E+02  0.7561462E-02  0.1302220E+00
         -1   -1    0    0    0  501 -0.00000000000E+00  0.00000000000E+00  0.37115686297E+02  0.37115686297E+02  0.00000000000E+00 0.  1.
          1   -1    0    0  501    0  0.00000000000E+00 -0.00000000000E+00 -0.58617554698E+03  0.58617554698E+03  0.00000000000E+00 0. -1.
         25    2    1    2    0    0  0.77813992500E+02  0.18410422299E+02 -0.18107358707E+03  0.23418873584E+03  0.12515094480E+03 0.  0.
          5    1    3    3  502    0  0.54941508073E+02 -0.14213853553E+02 -0.18536011521E+03  0.19389803416E+03  0.41800000000E+01 0.  1.
         -5    1    3    3    0  502  0.22872484427E+02  0.32624275853E+02  0.42865281342E+01  0.40290701684E+02  0.41800000000E+01 0.  1.
        -11    1    1    2    0    0 -0.19848262124E+02  0.58894700035E+01 -0.57967941902E+01  0.21499818351E+02  0.00000000000E+00 0.  1.
         11    1    1    2    0    0 -0.57965730376E+02 -0.24299892303E+02 -0.36218947942E+03  0.36760267908E+03  0.00000000000E+00 0. -1.
</event>
<event>
 7    1  0.2412631E-010  0.1062254E+03  0.7561462E-02  0.1267724E+00
          2   -1    0    0  501    0  0.00000000000E+00  0.00000000000E+00  0.35424712989E+03  0.35424712989E+03  0.00000000000E+00 0. -1.
         -2   -1    0    0    0  501 -0.00000000000E+00 -0.00000000000E+00 -0.37554196629E+02  0.37554196629E+02  0.00000000000E+00 0.  1.
         25    2    1    2    0    0 -0.33840427705E+01  0.41007743217E+02  0.17994605920E+03  0.22300335114E+03  0.12512722985E+03 0.  0.
          5    1    3    3  502    0  0.55429933289E+02  0.12313671299E+02  0.43610412437E+02  0.71717811443E+02  0.41800000000E+01 0.  1.
         -5    1    3    3    0  502 -0.58813976060E+02  0.28694071918E+02  0.13633564676E+03  0.15128553970E+03  0.41800000000E+01 0.  1.
        -11    1    1    2    0    0 -0.95855257798E+01  0.22850911234E+02  0.75150420291E+02  0.79130475283E+02  0.00000000000E+00 0. -1.
         11    1    1    2    0    0  0.12969568550E+02 -0.63858654450E+02  0.61596453773E+02  0.89667500099E+02  0.00000000000E+00 0.  1.
</event>
<event>
 7    1  0.2412631E-010  0.6786465E+02  0.7561462E-02  0.1367509E+00
         -2   -1    0    0    0  501 -0.00000000000E+00  0.00000000000E+00  0.59834341651E+03  0.59834341651E+03  0.00000000000E+00 0.  1.
          2   -1    0    0  501    0  0.00000000000E+00 -0.00000000000E+00 -0.39612314910E+02  0.39612314910E+02  0.00000000000E+00 0. -1.
         25    2    1    2    0    0  0.14922359031E+02 -0.30259782050E+02  0.50087603933E+03  0.51735314738E+03  0.12505655172E+03 0.  0.
          5    1    3    3  502    0  0.22893661637E+02  0.91941959007E+01  0.45692380871E+03  0.45760844873E+03  0.41800000000E+01 0. -1.
         -5    1    3    3    0  502 -0.79713026051E+01 -0.39453977950E+02  0.43952230615E+02  0.59744698655E+02  0.41800000000E+01 0. -1.
        -11    1    1    2    0    0 -0.15695392333E+01 -0.19069815064E+02  0.66120675432E+02  0.68833603854E+02  0.00000000000E+00 0.  1.
         11    1    1    2    0    0 -0.13352819798E+02  0.49329597114E+02 -0.82656131590E+01  0.51768980180E+02  0.00000000000E+00 0. -1.
</event>
<event>
 7    1  0.2412631E-010  0.1073316E+03  0.7561462E-02  0.1265593E+00
         -1   -1    0    0    0  501 -0.00000000000E+00  0.00000000000E+00  0.18290894066E+03  0.18290894066E+03  0.00000000000E+00 0.  1.
          1   -1    0    0  501    0  0.00000000000E+00 -0.00000000000E+00 -0.69984005547E+02  0.69984005547E+02  0.00000000000E+00 0. -1.
         25    2    1    2    0    0 -0.20592520855E+02  0.20580611202E+02  0.43313768527E+02  0.13556858134E+03  0.12512051882E+03 0.  0.
          5    1    3    3  502    0 -0.43338620318E+02 -0.41059228371E+02  0.34682261003E+02  0.69169558866E+02  0.41800000000E+01 0.  1.
         -5    1    3    3    0  502  0.22746099463E+02  0.61639839573E+02  0.86315075246E+01  0.66399022474E+02  0.41800000000E+01 0.  1.
        -11    1    1    2    0    0 -0.10654676547E+02  0.28708576557E+02  0.43965631399E+02  0.53578738736E+02  0.00000000000E+00 0.  1.
         11    1    1    2    0    0  0.31247197402E+02 -0.49289187759E+02  0.25645535184E+02  0.63745626127E+02  0.00000000000E+00 0. -1.
</event>
<event>
 7    1  0.2412631E-010  0.9060247E+02  0.7561462E-02  0.1301399E+00
         -1   -1    0    0    0  501 -0.00000000000E+00  0.00000000000E+00  0.44126504420E+03  0.44126504420E+03  0.00000000000E+00 0.  1.
          1   -1    0    0  501    0  0.00000000000E+00 -0.00000000000E+00 -0.29406731272E+02  0.29406731272E+02  0.00000000000E+00 0. -1.
         25    2    1    2    0    0  0.24944082578E+01  0.31409097150E+02  0.26429480927E+03  0.29407370947E+03  0.12503938155E+03 0.  0.
          5    1    3    3  502    0  0.44970933433E+02  0.53405600426E+02  0.21123338484E+03  0.22251192840E+03  0.41800000000E+01 0.  1.
         -5    1    3    3    0  502 -0.42476525175E+02 -0.21996503276E+02  0.53061424430E+02  0.71561781069E+02  0.41800000000E+01 0.  1.
        -11    1    1    2    0    0 -0.26038148552E+02 -0.29907464709E+02  0.14777769068E+03  0.15300551457E+03  0.00000000000E+00 0.  1.
         11    1    1    2    0    0  0.23543740294E+02 -0.15016324411E+01 -0.21418702089E+00  0.23592551433E+02  0.00000000000E+00 0. -1.
</event>
<event>
 6    1  0.2412631E-010  0.3124427E+03  0.7561462E-02  0.1079181E+00
         -1   -1    0    0    0  501 -0.00000000000E+00  0.00000000000E+00  0.48787112423E+02  0.48787112423E+02  0.00000000000E+00 0.  1.
          1   -1    0    0  501    0  0.00000000000E+00 -0.00000000000E+00 -0.20491586878E+04  0.20491586878E+04  0.00000000000E+00 0. -1.
          5    1    1    2  502    0 -0.12056535785E+03  0.74113551466E+02 -0.36585550576E+03  0.39229650460E+03  0.41800000000E+01 0.  1.
         -5    1    1    2    0  502 -0.55866759525E+02  0.16407944041E+03 -0.69047347733E+03  0.71190887962E+03  0.41800000000E+01 0.  1.
        -11    1    1    2    0    0  0.15878481041E+03 -0.24419574264E+03 -0.87401147414E+03  0.92127098818E+03  0.00000000000E+00 0.  1.
         11    1    1    2    0    0  0.17647306966E+02  0.60027507586E+01 -0.70031118181E+02  0.72469427854E+02  0.00000000000E+00 0. -1.
</event>
<event>
 6    1  0.2412631E-010  0.3224971E+03  0.7561462E-02  0.1074506E+00
          2   -1    0    0  501    0  0.00000000000E+00  0.00000000000E+00  0.72571481076E+03  0.72571481076E+03  0.00000000000E+00 0. -1.
         -2   -1    0    0    0  501 -0.00000000000E+00 -0.00000000000E+00 -0.24586571411E+03  0.24586571411E+03  0.00000000000E+00 0.  1.
          5    1    1    2  502    0 -0.20854764012E+03  0.21872375330E+03  0.53922642211E+03  0.61815435383E+03  0.41800000000E+01 0. -1.
         -5    1    1    2    0  502 -0.89234743824E-01  0.18358191761E+02 -0.35482951529E+00  0.18831608310E+02  0.41800000000E+01 0. -1.
        -11    1    1    2    0    0  0.12116822782E+03 -0.83405132414E+02  0.32189989900E+01  0.14713435187E+03  0.00000000000E+00 0. -1.
         11    1    1    2    0    0  0.87468647045E+02 -0.15367681265E+03 -0.62241494934E+02  0.18746021085E+03  0.00000000000E+00 0.  1.
</event>
<event>
 7    1  0.2412631E-010  0.1337267E+03  0.7561462E-02  0.1222028E+00
          1   -1    0    0  501    0  0.00000000000E+00  0.00000000000E+00  0.81762527689E+02  0.81762527689E+02  0.00000000000E+00 0. -1.
         -1   -1    0    0    0  501 -0.00000000000E+00 -0.00000000000E+00 -0.49485595579E+03  0.49485595579E+03  0.00000000000E+00 0.  1.
         25    2    1    2    0    0  0.66810022001E+02 -0.84591468284E+02 -0.28531449505E+02  0.16755694694E+03  0.12506794677E+03 0.  0.
          5    1    3    3  502    0 -0.32663186394E+02 -0.31250810153E+02 -0.30322274218E+02  0.54593127721E+02  0.41800000000E+01 0.  1.
         -5    1    3    3    0  502  0.99473208395E+02 -0.53340658131E+02  0.17908247128E+01  0.11296381921E+03  0.41800000000E+01 0.  1.
        -11    1    1    2    0    0 -0.60491553123E+02  0.66277147655E+02 -0.37815573784E+03  0.38865621102E+03  0.00000000000E+00 0. -1.
         11    1    1    2    0    0 -0.63184688777E+01  0.18314320629E+02 -0.64062407486E+01  0.20405325520E+02  0.00000000000E+00 0.  1.
</event>
<event>
 6    1  0.2412631E-010  0.5739697E+02  0.7561462E-02  0.1409092E+00
         -1   -1    0    0    0  501 -0.00000000000E+00  0.00000000000E+00  0.28535340934E+03  0.28535340934E+03  0.00000000000E+00 0.  1.
          1   -1    0    0  501    0  0.00000000000E+00 -0.00000000000E+00 -0.48806639873E+02  0.48806639873E+02  0.00000000000E+00 0. -1.
          5    1    1    2  502    0 -0.14176944954E+02  0.97826122452E+01  0.13708633748E+03  0.13822742707E+03  0.41800000000E+01 0. -1.
         -5    1    1    2    0  502 -0.26034152789E+02  0.78445937818E+01 -0.23581409861E+02  0.36233548737E+02  0.41800000000E+01 0. -1.
        -11    1    1    2    0    0 -0.13460809296E+02 -0.54594525902E+01 -0.86947020895E+01  0.16929171684E+02  0.00000000000E+00 0. -1.
         11    1    1    2    0    0  0.53671907040E+02 -0.12167753437E+02  0.13173654394E+03  0.14276990173E+03  0.00000000000E+00 0.  1.
</event>
<event>
 7    1  0.2412631E-010  0.2122262E+03  0.7561462E-02  0.1139815E+00
         -1   -1    0    0    0  501 -0.00000000000E+00  0.00000000000E+00  0.25418521273E+02  0.25418521273E+02  0.00000000000E+00 0.  1.
          1   -1    0    0  501    0  0.00000000000E+00 -0.00000000000E+00 -0.17955296178E+04  0.17955296178E+04  0.00000000000E+00 0. -1.
         25    2    1    2    0    0 -0.12944978499E+03 -0.12863997910E+03 -0.85879249184E+03  0.88683086874E+03  0.12505580614E+03 0.  0.
          5    1    3    3  502    0 -0.10904995833E+03 -0.22511779468E+02 -0.38158817735E+03  0.39752444343E+03  0.41800000000E+01 0.  1.
         -5    1    3    3    0  502 -0.20399826660E+02 -0.10612819963E+03 -0.47720431449E+03  0.48930642531E+03  0.41800000000E+01 0.  1.
        -11    1    1    2    0    0  0.10569846927E+03  0.39850204073E+02 -0.52508658922E+03  0.53709974060E+03  0.00000000000E+00 0.  1.
         11    1    1    2    0    0  0.23751315724E+02  0.88789775028E+02 -0.38623201550E+03  0.39701752977E+03  0.00000000000E+00 0. -1.
</event>
<event>
 7    1  0.2412631E-010  0.2134746E+03  0.7561462E-02  0.1138844E+00
         -1   -1    0    0    0  501 -0.00000000000E+00  0.00000000000E+00  0.55120102192E+02  0.55120102192E+02  0.00000000000E+00 0.  1.
          1   -1    0    0  501    0  0.00000000000E+00 -0.00000000000E+00 -0.90200519732E+03  0.90200519732E+03  0.00000000000E+00 0. -1.
         25    2    1    2    0    0  0.85852823012E+02  0.17049555227E+03 -0.51748655926E+03  0.56558589567E+03  0.12512244323E+03 0.  0.
          5    1    3    3  502    0  0.53414318892E+02  0.17614304292E+03 -0.48652646227E+03  0.52019701260E+03  0.41800000000E+01 0.  1.
         -5    1    3    3    0  502  0.32438504120E+02 -0.56474906509E+01 -0.30960096992E+02  0.45388883066E+02  0.41800000000E+01 0.  1.
        -11    1    1    2    0    0  0.14561934559E+02 -0.53607545094E+02 -0.64912588570E+02  0.85436894747E+02  0.00000000000E+00 0.  1.
         11    1    1    2    0    0 -0.10041475757E+03 -0.11688800717E+03 -0.26448594729E+03  0.30610250909E+03  0.00000000000E+00 0. -1.
</event>
<event>
 6    1  0.2412631E-010  0.1167983E+03  0.7561462E-02  0.1248474E+00
         -1   -1    0    0    0  501 -0.00000000000E+00  0.00000000000E+00  0.11480195746E+03  0.11480195746E+03  0.00000000000E+00 0.  1.
          1   -1    0    0  501    0  0.00000000000E+00 -0.00000000000E+00 -0.16342270858E+03  0.16342270858E+03  0.00000000000E+00 0. -1.
          5    1    1    2  502    0  0.25171702106E+02 -0.23634733946E+02 -0.39896762927E+02  0.52928624842E+02  0.41800000000E+01 0.  1.
         -5    1    1    2    0  502  0.35479798602E+01  0.10123504196E+03  0.36315201967E+01  0.10144842148E+03  0.41800000000E+01 0.  1.
        -11    1    1    2    0    0 -0.15537254963E+02 -0.82058695661E+02  0.22350480112E+02  0.86455652138E+02  0.00000000000E+00 0.  1.
         11    1    1    2    0    0 -0.13182427003E+02  0.44583876508E+01 -0.34705988499E+02  0.37391967584E+02  0.00000000000E+00 0. -1.
</event>
<event>
 6    1  0.2412631E-010  0.1172609E+03  0.7561462E-02  0.1247685E+00
         -3   -1    0    0    0  501 -0.00000000000E+00  0.00000000000E+00  0.37241585447E+03  0.37241585447E+03  0.00000000000E+00 0.  1.
          3   -1    0    0  501    0  0.00000000000E+00 -0.00000000000E+00 -0.10063467471E+03  0.10063467471E+03  0.00000000000E+00 0. -1.
          5    1    1    2  502    0 -0.42270105101E+02  0.16118333692E+02 -0.66096716518E+02  0.80204805346E+02  0.41800000000E+01 0. -1.
         -5    1    1    2    0  502 -0.34390897137E+02  0.46370140023E+02  0.54802953728E+02  0.79710475027E+02  0.41800000000E+01 0. -1.
        -11    1    1    2    0    0 -0.75847711398E+01 -0.44398216021E+02  0.69335009986E+02  0.82680553632E+02  0.00000000000E+00 0. -1.
         11    1    1    2    0    0  0.84245773377E+02 -0.18090257695E+02  0.21373993256E+03  0.23045469517E+03  0.00000000000E+00 0.  1.
</event>
<event>
 7    1  0.2412631E-010  0.1572510E+03  0.7561462E-02  0.1191836E+00
          1   -1    0    0  501    0  0.00000000000E+00  0.00000000000E+00  0.16966453325E+04  0.16966453325E+04  0.00000000000E+00 0. -1.
         -1   -1    0    0    0  501 -0.00000000000E+00 -0.00000000000E+00 -0.15904171780E+02  0.15904171780E+02  0.00000000000E+00 0.  1.
         25    2    1    2    0    0  0.11020871407E+03 -0.44064949529E+02  0.10747118278E+04  0.10884538603E+04  0.12505443897E+03 0.  0.
          5    1    3    3  502    0  0.59549990127E+02  0.38026129290E+02  0.58905020990E+03  0.59328729130E+03  0.41800000000E+01 0. -1.
         -5    1    3    3    0  502  0.50658723943E+02 -0.82091078819E+02  0.48566161790E+03  0.49516656898E+03  0.41800000000E+01 0. -1.
        -11    1    1    2    0    0 -0.45828536463E+02 -0.25450146453E+02  0.17036846366E+03  0.17825088532E+03  0.00000000000E+00 0.  1.
         11    1    1    2    0    0 -0.64380177607E+02  0.69515095982E+02  0.43566086928E+03  0.44584475870E+03  0.00000000000E+00 0. -1.
</event>
<event>
 7    1  0.2412631E-010  0.2722108E+03  0.7561462E-02  0.1100021E+00
         -1   -1    0    0    0  501 -0.00000000000E+00  0.00000000000E+00  0.51714250102E+03  0.51714250102E+03  0.00000000000E+00 0.  1.
          1   -1    0    0  501    0  0.00000000000E+00 -0.00000000000E+00 -0.16111178319E+03  0.16111178319E+03  0.00000000000E+00 0. -1.
         25    2    1    2    0    0 -0.24867649038E+03 -0.94758490948E+02  0.21105985983E+03  0.36196562969E+03  0.12511468409E+03 0.  0.
          5    1    3    3  502    0 -0.77635296897E+02  0.84484819162E+01  0.11796100818E+03  0.14153051976E+03  0.41800000000E+01 0. -1.
         -5    1    3    3    0  502 -0.17104119348E+03 -0.10320697286E+03  0.93098851643E+02  0.22043510994E+03  0.41800000000E+01 0. -1.
        -11    1    1    2    0    0  0.71613788402E+02  0.21346298142E+02  0.89805627885E+02  0.11683000442E+03  0.00000000000E+00 0. -1.
         11    1    1    2    0    0  0.17706270198E+03  0.73412192806E+02  0.55165230116E+02  0.19945865010E+03  0.00000000000E+00 0.  1.
</event>
<event>
 6    1  0.2412631E-010  0.1484864E+03  0.7561462E-02  0.1202345E+00
          1   -1    0    0  501    0  0.00000000000E+00  0.00000000000E+00  0.76202698491E+02  0.76202698491E+02  0.00000000000E+00 0. -1.
         -1   -1    0    0    0  501 -0.00000000000E+00 -0.00000000000E+00 -0.45467489854E+03  0.45467489854E+03  0.00000000000E+00 0.  1.
          5    1    1    2  502    0  0.27606392005E+02  0.10382046618E+03 -0.21312537827E+02  0.10960154537E+03  0.41800000000E+01 0.  1.
         -5    1    1    2    0  502  0.10421140941E+02  0.37999926885E+02 -0.12920190190E+03  0.13514140179E+03  0.41800000000E+01 0.  1.
        -11    1    1    2    0    0 -0.41194311190E+02 -0.10362535732E+03 -0.91047763868E+02  0.14396138809E+03  0.00000000000E+00 0. -1.
         11    1    1    2    0    0  0.31667782443E+01 -0.38195035744E+02 -0.13690999645E+03  0.14217326179E+03  0.00000000000E+00 0.  1.
</event>
<event>
 7    1  0.2412631E-010  0.1103082E+03  0.7561462E-02  0.1260000E+00
         -1   -1    0    0    0  501 -0.00000000000E+00  0.00000000000E+00  0.76553494945E+02  0.76553494945E+02  0.00000000000E+00 0.  1.
          1   -1    0    0  501    0  0.00000000000E+00 -0.00000000000E+00 -0.18901864095E+03  0.18901864095E+03  0.00000000000E+00 0. -1.
         25    2    1    2    0    0  0.20921122487E+02  0.50929340866E+02 -0.62946890880E+02  0.15044875739E+03  0.12506408918E+03 0.  0.
          5    1    3    3  502    0 -0.40122141128E+02 -0.11506959522E+02 -0.44403875777E+02  0.61084964682E+02  0.41800000000E+01 0.  1.
         -5    1    3    3    0  502  0.61043263614E+02  0.62436300388E+02 -0.18543015103E+02  0.89363792713E+02  0.41800000000E+01 0.  1.
        -11    1    1    2    0    0 -0.12591822186E+02  0.17917965240E+02  0.96796716998E+01  0.23943757193E+02  0.00000000000E+00 0.  1.
         11    1    1    2    0    0 -0.83293003010E+01 -0.68847306105E+02 -0.59197926823E+02  0.91179621307E+02  0.00000000000E+00 0. -1.
</event>
<event>
 7    1  0.2412631E-010  0.1101958E+03  0.7561462E-02  0.1260208E+00
          1   -1    0    0  501    0  0.00000000000E+00  0.00000000000E+00  0.48773541074E+03  0.48773541074E+03  0.00000000000E+00 0. -1.
         -1   -1    0    0    0  501 -0.00000000000E+00 -0.00000000000E+00 -0.27967263485E+02  0.27967263485E+02  0.00000000000E+00 0.  1.
         25    2    1    2    0    0  0.26400114887E+02  0.22996875702E+02  0.20144146432E+03  0.23967745680E+03  0.12506317362E+03 0.  0.
          5    1    3    3  502    0  0.60047312305E+02  0.51842172963E+02  0.16101105563E+03  0.17954198130E+03  0.41800000000E+01 0.  1.
         -5    1    3    3    0  502 -0.33647197418E+02 -0.28845297262E+02  0.40430408685E+02  0.60135475508E+02  0.41800000000E+01 0.  1.
        -11    1    1    2    0    0  0.32329108191E+02  0.24678823458E+01  0.70716221264E+02  0.77794894624E+02  0.00000000000E+00 0.  1.
         11    1    1    2    0    0 -0.58729223078E+02 -0.25464758047E+02  0.18761046168E+03  0.19823032280E+03  0.00000000000E+00 0. -1.
</event>
<event>
 6    1  0.2412631E-010  0.1176512E+03  0.7561462E-02  0.1247023E+00
          2   -1    0    0  501    0  0.00000000000E+00  0.00000000000E+00  0.42480359782E+03  0.42480359782E+03  0.00000000000E+00 0. -1.
         -2   -1    0    0    0  501 -0.00000000000E+00 -0.00000000000E+00 -0.41277240440E+02  0.41277240440E+02  0.00000000000E+00 0.  1.
          5    1    1    2  502    0  0.58850818187E+02  0.64236440083E+02  0.21388680460E+03  0.23098652908E+03  0.41800000000E+01 0. -1.
         -5    1    1    2    0  502  0.10388087991E+02 -0.42772277333E+02  0.33101683218E+02  0.55232000799E+02  0.41800000000E+01 0. -1.
        -11    1    1    2    0    0 -0.38746770137E+02  0.26564696722E+02  0.21790807445E+02  0.51786432558E+02  0.00000000000E+00 0.  1.
         11    1    1    2    0    0 -0.30492136041E+02 -0.48028859473E+02  0.11474706212E+03  0.12807587582E+03  0.00000000000E+00 0. -1.
</event>
<event>
 6    1  0.2412631E-010  0.2982318E+03  0.7561462E-02  0.1086128E+00
          2   -1    0    0  501    0  0.00000000000E+00  0.00000000000E+00  0.14752113356E+04  0.14752113356E+04  0.00000000000E+00 0. -1.
         -2   -1    0    0    0  501 -0.00000000000E+00 -0.00000000000E+00 -0.67259989691E+02  0.67259989691E+02  0.00000000000E+00 0.  1.
          5    1    1    2  502    0  0.20569197590E+02 -0.64488530253E+02  0.15147092842E+03  0.16596016685E+03  0.41800000000E+01 0. -1.
         -5    1    1    2    0  502 -0.13843271423E+03 -0.18928736980E+03  0.33310427903E+03  0.40739324717E+03  0.41800000000E+01 0. -1.
        -11    1    1    2    0    0  0.82226267130E+02  0.73344509612E+02  0.35941283837E+03  0.37592308320E+03  0.00000000000E+00 0.  1.
         11    1    1    2    0    0  0.35637249506E+02  0.18043139044E+03  0.56396330008E+03  0.59319482807E+03  0.00000000000E+00 0. -1.
</event>
<event>
 7    1  0.2412631E-010  0.1174104E+03  0.7561462E-02  0.1247431E+00
         -2   -1    0    0    0  501 -0.00000000000E+00  0.00000000000E+00  0.12998266257E+03  0.12998266257E+03  0.00000000000E+00 0.  1.
          2   -1    0    0  501    0  0.00000000000E+00 -0.00000000000E+00 -0.11140978531E+03  0.11140978531E+03  0.00000000000E+00 0. -1.
         25    2    1    2    0    0  0.11172735452E+01 -0.41351485336E+02  0.10750178262E+02  0.13221690559E+03  0.12511814477E+03 0.  0.
          5    1    3    3  502    0 -0.34803425104E+02 -0.74212935855E+02 -0.49326709351E+00  0.82076512838E+02  0.41800000000E+01 0.  1.
         -5    1    3    3    0  502  0.35920698650E+02  0.32861450518E+02  0.11243445355E+02  0.50140392750E+02  0.41800000000E+01 0.  1.
        -11    1    1    2    0    0  0.45569634301E+02  0.74255791876E+01  0.19794949094E+02  0.50235155083E+02  0.00000000000E+00 0.  1.
         11    1    1    2    0    0 -0.46686907846E+02  0.33925906149E+02 -0.11972250094E+02  0.58940387210E+02  0.00000000000E+00 0. -1.
</event>
<event>
 7    1  0.2412631E-010  0.1391530E+03  0.7561462E-02  0.1214473E+00
         -3   -1    0    0    0  501 -0.00000000000E+00  0.00000000000E+00  0.97943301311E+02  0.97943301311E+02  0.00000000000E+00 0.  1.
          3   -1    0    0  501    0  0.00000000000E+00 -0.00000000000E+00 -0.37030164843E+03  0.37030164843E+03  0.00000000000E+00 0. -1.
         25    2    1    2    0    0  0.86227775426E+02 -0.33180005669E+02 -0.29932679135E+03  0.33733013594E+03  0.12513572858E+03 0.  0.
          5    1    3    3  502    0  0.89890255967E+01  0.41728350995E+02 -0.12781119506E+03  0.13481554748E+03  0.41800000000E+01 0.  1.
         -5    1    3    3    0  502  0.77238749829E+02 -0.74908356664E+02 -0.17151559628E+03  0.20251458847E+03  0.41800000000E+01 0.  1.
        -11    1    1    2    0    0 -0.30673971651E+02 -0.30482838245E+02  0.44568512710E+01  0.43473664299E+02  0.00000000000E+00 0. -1.
         11    1    1    2    0    0 -0.55553803774E+02  0.63662843914E+02  0.22511592953E+02  0.87441149503E+02  0.00000000000E+00 0.  1.
</event>
<event>
 7    1  0.2412631E-010  0.1628201E+03  0.7561462E-02  0.1185549E+00
          2   -1    0    0  501    0  0.00000000000E+00  0.00000000000E+00  0.42160063562E+03  0.42160063562E+03  0.00000000000E+00 0. -1.
         -2   -1    0    0    0  501 -0.00000000000E+00 -0.00000000000E+00 -0.65654591758E+02  0.65654591758E+02  0.00000000000E+00 0.  1.
         25    2    1    2    0    0  0.10003828184E+03 -0.75312527821E+02  0.17298108565E+03  0.24750833319E+03  0.12513306648E+03 0.  0.
          5    1    3    3  502    0  0.14753026642E+02 -0.88023142401E+02  0.72714214823E+02  0.11519789421E+03  0.41800000000E+01 0.  1.
         -5    1    3    3    0  502  0.85285255202E+02  0.12710614580E+02  0.10026687083E+03  0.13231043898E+03  0.41800000000E+01 0.  1.
        -11    1    1    2    0    0 -0.29638664092E+02 -0.16768519939E+02  0.19139245681E+02  0.39063338252E+02  0.00000000000E+00 0.  1.
         11    1    1    2    0    0 -0.70399617751E+02  0.92081047760E+02  0.16382571252E+03  0.20068355593E+03  0.00000000000E+00 0. -1.
</event>
<event>
 7    1  0.2412631E-010  0.7738711E+02  0.7561462E-02  0.1336634E+00
         -2   -1    0    0    0  501 -0.00000000000E+00  0.00000000000E+00  0.10786941144E+02  0.10786941144E+02  0.00000000000E+00 0.  1.
          2   -1    0    0  501    0  0.00000000000E+00 -0.00000000000E+00 -0.14610619109E+04  0.14610619109E+04  0.00000000000E+00 0. -1.
         25    2    1    2    0    0 -0.27112306857E+02 -0.73157733854E+01 -0.11461545129E+04  0.11533085664E+04  0.12514744954E+03 0.  0.
          5    1    3    3  502    0 -0.43366882123E+02 -0.16910022956E+02 -0.15328932398E+03  0.16025518583E+03  0.41800000000E+01 0. -1.
         -5    1    3    3    0  502  0.16254575266E+02  0.95942495706E+01 -0.99286518896E+03  0.99305338058E+03  0.41800000000E+01 0. -1.
        -11    1    1    2    0    0  0.66378136286E+01 -0.38213891607E+02 -0.79728427845E+02  0.88662191988E+02  0.00000000000E+00 0.  1.
         11    1    1    2    0    0  0.20474493229E+02  0.45529664992E+02 -0.22439202895E+03  0.22987809362E+03  0.00000000000E+00 0. -1.
</event>
<event>
 6    1  0.2412631E-010  0.1976326E+03  0.7561462E-02  0.1151752E+00
          2   -1    0    0  501    0  0.00000000000E+00  0.00000000000E+00  0.41118991133E+02  0.41118991133E+02  0.00000000000E+00 0. -1.
         -2   -1    0    0    0  501 -0.00000000000E+00 -0.00000000000E+00 -0.11725444137E+04  0.11725444137E+04  0.00000000000E+00 0.  1.
          5    1    1    2  502    0  0.28090819233E+02 -0.11894927405E+02 -0.94092234700E+02  0.99002042675E+02  0.41800000000E+01 0. -1.
         -5    1    1    2    0  502  0.21253574620E+01  0.17827128723E+03 -0.73990846961E+03  0.76109604177E+03  0.41800000000E+01 0. -1.
        -11    1    1    2    0    0  0.50592122832E+01 -0.14459524123E+03 -0.26080888864E+03  0.29825267109E+03  0.00000000000E+00 0.  1.
         11    1    1    2    0    0 -0.35275388978E+02 -0.21781118600E+02 -0.36615829629E+02  0.55312649317E+02  0.00000000000E+00 0. -1.
</event>
<event>
 7    1  0.2412631E-010  0.1503428E+03  0.7561462E-02  0.1200052E+00
          2   -1    0    0  501    0  0.00000000000E+00  0.00000000000E+00  0.29053034407E+03  0.29053034407E+03  0.00000000000E+00 0. -1.
         -2   -1    0    0    0  501 -0.00000000000E+00 -0.00000000000E+00 -0.94719528986E+02  0.94719528986E+02  0.00000000000E+00 0.  1.
         25    2    1    2    0    0 -0.63773406283E+02  0.10202856913E+03  0.68005979624E+02  0.18642935654E+03  0.12511680721E+03 0.  0.
          5    1    3    3  502    0 -0.92045090959E+01  0.96886767892E+02 -0.19846279556E+01  0.97432950938E+02  0.41800000000E+01 0. -1.
         -5    1    3    3    0  502 -0.54568897187E+02  0.51418012346E+01  0.69990607579E+02  0.88996405599E+02  0.41800000000E+01 0. -1.
        -11    1    1    2    0    0 -0.56173314031E+01 -0.72785727678E+02  0.85588024122E+02  0.11249278394E+03  0.00000000000E+00 0. -1.
         11    1    1    2    0    0  0.69390737686E+02 -0.29242841448E+02  0.42216811337E+02  0.86327732578E+02  0.00000000000E+00 0.  1.
</event>
<event>
 6    1  0.2412631E-010  0.8110415E+02  0.7561462E-02  0.1325947E+00
         -2   -1    0    0    0  501 -0.00000000000E+00  0.00000000000E+00  0.67122449225E+02  0.67122449225E+02  0.00000000000E+00 0.  1.
          2   -1    0    0  501    0  0.00000000000E+00 -0.00000000000E+00 -0.18303652731E+03  0.18303652731E+03  0.00000000000E+00 0. -1.
          5    1    1    2  502    0  0.22782947643E+02  0.36039396919E+02  0.26271376488E+02  0.50254934645E+02  0.41800000000E+01 0.  1.
         -5    1    1    2    0  502 -0.40191836492E+01 -0.27656907160E+02 -0.85333461431E+02  0.89890657972E+02  0.41800000000E+01 0.  1.
        -11    1    1    2    0    0  0.18518351527E+02 -0.38799850523E+02 -0.13007408219E+02  0.44917150538E+02  0.00000000000E+00 0. -1.
         11    1    1    2    0    0 -0.37282115520E+02  0.30417360763E+02 -0.43844584926E+02  0.65096233384E+02  0.00000000000E+00 0.  1.
</event>
<event>
 7    1  0.2412631E-010  0.1653169E+03  0.7561462E-02  0.1182821E+00
          2   -1    0    0  501    0  0.00000000000E+00  0.00000000000E+00  0.77055050592E+02  0.77055050592E+02  0.00000000000E+00 0. -1.
         -2   -1    0    0    0  501 -0.00000000000E+00 -0.00000000000E+00 -0.71319358007E+03  0.71319358007E+03  0.00000000000E+00 0.  1.
         25    2    1    2    0    0  0.72105620085E+02 -0.14473087775E+03 -0.10954402612E+03  0.23192253000E+03  0.12506765705E+03 0.  0.
          5    1    3    3  502    0  0.76142615582E+02 -0.11078540903E+03 -0.13386687589E+03  0.18976015815E+03  0.41800000000E+01 0.  1.
         -5    1    3    3    0  502 -0.40369954967E+01 -0.33945468729E+02  0.24322849765E+02  0.42162371856E+02  0.41800000000E+01 0.  1.
        -11    1    1    2    0    0 -0.64147973876E+02  0.12808277999E+03 -0.51894164097E+03  0.53834987491E+03  0.00000000000E+00 0.  1.
         11    1    1    2    0    0 -0.79576462089E+01  0.16648097767E+02 -0.76528623842E+01  0.19976225747E+02  0.00000000000E+00 0. -1.
</event>
<event>
 7    1  0.2412631E-010  0.9675194E+02  0.7561462E-02  0.1287278E+00
         -1   -1    0    0    0  501 -0.00000000000E+00  0.00000000000E+00  0.48872919030E+02  0.48872919030E+02  0.00000000000E+00 0.  1.
          1   -1    0    0  501    0  0.00000000000E+00 -0.00000000000E+00 -0.50560959198E+03  0.50560959198E+03  0.00000000000E+00 0. -1.
         25    2    1    2    0    0 -0.67530799274E+02  0.61155404099E+02 -0.12599448016E+03  0.19953645507E+03  0.12505916828E+03 0.  0.
          5    1    3    3  502    0 -0.44703927495E+01 -0.70815008437E+01 -0.10340164563E+03  0.10382439397E+03  0.41800000000E+01 0. -1.
         -5    1    3    3    0  502 -0.63060406524E+02  0.68236904943E+02 -0.22592834534E+02  0.95712061097E+02  0.41800000000E+01 0. -1.
        -11    1    1    2    0    0  0.29575611321E+02 -0.28361323875E+02 -0.31916770815E+02  0.51939982058E+02  0.00000000000E+00 0.  1.
         11    1    1    2    0    0  0.37955187952E+02 -0.32794080224E+02 -0.29882542197E+03  0.30300607388E+03  0.00000000000E+00 0. -1.
</event>
<event>
 7    1  0.2412631E-010  0.1137884E+03  0.7561462E-02  0.1253711E+00
         -4   -1    0    0    0  501 -0.00000000000E+00  0.00000000000E+00  0.42405179683E+03  0.42405179683E+03  0.00000000000E+00 0.  1.
          4   -1    0    0  501    0  0.00000000000E+00 -0.00000000000E+00 -0.50061170664E+02  0.50061170664E+02  0.00000000000E+00 0. -1.
         25    2    1    2    0    0 -0.64436733972E+02 -0.18610096531E+02  0.88864364433E+02  0.16743872093E+03  0.12506167127E+03 0.  0.
          5    1    3    3  502    0  0.98641912152E+01 -0.45839954625E+02  0.72626069292E+02  0.86548379818E+02  0.41800000000E+01 0.  1.
         -5    1    3    3    0  502 -0.74300925187E+02  0.27229858094E+02  0.16238295141E+02  0.80890341108E+02  0.41800000000E+01 0.  1.
        -11    1    1    2    0    0  0.90231465077E+01 -0.27642371991E+02  0.31030505471E+02  0.42525406194E+02  0.00000000000E+00 0. -1.
         11    1    1    2    0    0  0.55413587464E+02  0.46252468523E+02  0.25409575627E+03  0.26414884038E+03  0.00000000000E+00 0.  1.
</event>
<event>
 7    1  0.2412631E-010  0.2105002E+03  0.7561462E-02  0.1141170E+00
          2   -1    0    0  501    0  0.00000000000E+00  0.00000000000E+00  0.22591672179E+04  0.22591672179E+04  0.00000000000E+00 0. -1.
         -2   -1    0    0    0  501 -0.00000000000E+00 -0.00000000000E+00 -0.24197935706E+02  0.24197935706E+02  0.00000000000E+00 0.  1.
         25    2    1    2    0    0 -0.17476959964E+02 -0.18951005564E+03  0.15479084526E+04  0.15645685231E+04  0.12503831613E+03 0.  0.
          5    1    3    3  502    0  0.58560422658E+01  0.15088427980E+02  0.23589689930E+03  0.23648842126E+03  0.41800000000E+01 0.  1.
         -5    1    3    3    0  502 -0.23333002230E+02 -0.20459848362E+03  0.13120115533E+04  0.13280801019E+04  0.41800000000E+01 0.  1.
        -11    1    1    2    0    0  0.33250032112E+02  0.67008137862E+02  0.38952809325E+03  0.39664567387E+03  0.00000000000E+00 0.  1.
         11    1    1    2    0    0 -0.15773072147E+02  0.12250191778E+03  0.29753273633E+03  0.32215095663E+03  0.00000000000E+00 0. -1.
</event>
<event>
 7    1  0.2412631E-010  0.9795838E+02  0.7561462E-02  0.1284649E+00
          3   -1    0    0  501    0  0.00000000000E+00  0.00000000000E+00  0.87308048307E+02  0.87308048307E+02  0.00000000000E+00 0. -1.
         -3   -1    0    0    0  501 -0.00000000000E+00 -0.00000000000E+00 -0.20610815146E+03  0.20610815146E+03  0.00000000000E+00 0.  1.
         25    2    1    2    0    0  0.20293413228E+02 -0.44570306766E+02  0.25988721983E+01  0.13430941058E+03  0.12503570997E+03 0.  0.
          5    1    3    3  502    0  0.48535983534E+02 -0.12618200464E+02  0.49634393226E+02  0.70682431137E+02  0.41800000000E+01 0.  1.
         -5    1    3    3    0  502 -0.28242570307E+02 -0.31952106302E+02 -0.47035521027E+02  0.63626979443E+02  0.41800000000E+01 0.  1.
        -11    1    1    2    0    0 -0.34857562097E+02  0.67275398671E+02 -0.86359199839E+02  0.11488664108E+03  0.00000000000E+00 0. -1.
         11    1    1    2    0    0  0.14564148869E+02 -0.22705091905E+02 -0.35039775508E+02  0.44220148104E+02  0.00000000000E+00 0.  1.
</event>
<event>
 7    1  0.2412631E-010  0.8772719E+02  0.7561462E-02  0.1308451E+00
         -3   -1    0    0    0  501 -0.00000000000E+00  0.00000000000E+00  0.83506659791E+03  0.83506659791E+03  0.00000000000E+00 0.  1.
          3   -1    0    0  501    0  0.00000000000E+00 -0.00000000000E+00 -0.17857706680E+02  0.17857706680E+02  0.00000000000E+00 0. -1.
         25    2    1    2    0    0 -0.70485129184E+01  0.44385334691E+01  0.64976078332E+03  0.66175073525E+03  0.12512225202E+03 0.  0.
          5    1    3    3  502    0  0.38574999180E+02 -0.22361503405E+02  0.51455048614E+03  0.51649563656E+03  0.41800000000E+01 0. -1.
         -5    1    3    3    0  502 -0.45623512099E+02  0.26800036874E+02  0.13521029718E+03  0.14525509869E+03  0.41800000000E+01 0. -1.
        -11    1    1    2    0    0 -0.31184909168E+02  0.15109795520E+02  0.25919006394E+02  0.43273541257E+02  0.00000000000E+00 0. -1.
         11    1    1    2    0    0  0.38233422086E+02 -0.19548328989E+02  0.14152910152E+03  0.14790002808E+03  0.00000000000E+00 0.  1.
</event>
<event>
 7    1  0.2412631E-010  0.1091434E+03  0.7561462E-02  0.1262164E+00
          1   -1    0    0  501    0  0.00000000000E+00  0.00000000000E+00  0.61927612436E+02  0.61927612436E+02  0.00000000000E+00 0. -1.
         -1   -1    0    0    0  501 -0.00000000000E+00 -0.00000000000E+00 -0.20000254118E+03  0.20000254118E+03  0.00000000000E+00 0.  1.
         25    2    1    2    0    0  0.15137490767E+02 -0.18025376005E+02 -0.90866629515E+02  0.15634439046E+03  0.12503106119E+03 0.  0.
          5    1    3    3  502    0 -0.71463123718E+01 -0.70001224829E+02 -0.48592058067E+02  0.85614845473E+02  0.41800000000E+01 0.  1.
         -5    1    3    3    0  502  0.22283803139E+02  0.51975848824E+02 -0.42274571447E+02  0.70729544989E+02  0.41800000000E+01 0.  1.
        -11    1    1    2    0    0  0.72599903160E+01 -0.33833291668E+02 -0.47675023599E+01  0.34930332996E+02  0.00000000000E+00 0. -1.
         11    1    1    2    0    0 -0.22397481083E+02  0.51858667673E+02 -0.42440796868E+02  0.70655430156E+02  0.00000000000E+00 0.  1.
</event>
<event>
 6    1  0.2412631E-010  0.1213707E+03  0.7561462E-02  0.1240853E+00
          2   -1    0    0  501    0  0.00000000000E+00  0.00000000000E+00  0.98584928200E+03  0.98584928200E+03  0.00000000000E+00 0. -1.
         -2   -1    0    0    0  501 -0.00000000000E+00 -0.00000000000E+00 -0.18301001999E+02  0.18301001999E+02  0.00000000000E+00 0.  1.
          5    1    1    2  502    0  0.21626912050E+02  0.86386501517E+02  0.40384455358E+03  0.41356770525E+03  0.41800000000E+01 0.  1.
         -5    1    1    2    0  502  0.27106840546E+02 -0.42554698599E+02  0.30826483590E+03  0.31239456562E+03  0.41800000000E+01 0.  1.
        -11    1    1    2    0    0 -0.48622014308E+01  0.22729780504E+02  0.24029259774E+02  0.33431859802E+02  0.00000000000E+00 0.  1.
         11    1    1    2    0    0 -0.43871551166E+02 -0.66561583421E+02  0.23140963074E+03  0.24475615332E+03  0.00000000000E+00 0. -1.
</event>
<event>
 7    1  0.2412631E-010  0.1487440E+03  0.7561462E-02  0.1202025E+00
         -1   -1    0    0    0  501 -0.00000000000E+00  0.00000000000E+00  0.87276782924E+02  0.87276782924E+02  0.00000000000E+00 0.  1.
          1   -1    0    0  501    0  0.00000000000E+00 -0.00000000000E+00 -0.35959430970E+03  0.35959430970E+03  0.00000000000E+00 0. -1.
         25    2    1    2    0    0  0.62702664407E+02 -0.11795591430E+03 -0.91676149248E+02  0.20471728694E+03  0.12513764177E+03 0.  0.
          5    1    3    3  502    0  0.33118315085E+02 -0.11619832214E+03 -0.11493505978E+03  0.16681250921E+03  0.41800000000E+01 0. -1.
         -5    1    3    3    0  502  0.29584349322E+02 -0.17575921615E+01  0.23258910536E+02  0.37904777724E+02  0.41800000000E+01 0. -1.
        -11    1    1    2    0    0 -0.72521516538E+02  0.82377659155E+02 -0.82499202082E+02  0.13730101031E+03  0.00000000000E+00 0.  1.
         11    1    1    2    0    0  0.98188521308E+01  0.35578255147E+02 -0.98142175446E+02  0.10485279537E+03  0.00000000000E+00 0. -1.
</event>
<event>
 6    1  0.2412631E-010  0.9729076E+02  0.7561462E-02  0.1286099E+00
          2   -1    0    0  501    0  0.00000000000E+00  0.00000000000E+00  0.45947290720E+03  0.45947290720E+03  0.00000000000E+00 0. -1.
         -2   -1    0    0    0  501 -0.00000000000E+00 -0.00000000000E+00 -0.29728151891E+02  0.29728151891E+02  0.00000000000E+00 0.  1.
          5    1    1    2  502    0 -0.74532289988E+02  0.38922752347E+02  0.13248879019E+03  0.15697386670E+03  0.41800000000E+01 0. -1.
         -5    1    1    2    0  502  0.48273892869E+02 -0.23472198573E+01  0.93151555315E+02  0.10502648633E+03  0.41800000000E+01 0. -1.
        -11    1    1    2    0    0 -0.91148373254E+01 -0.21648338035E+02  0.44733224204E+01  0.23911114835E+02  0.00000000000E+00 0.  1.
         11    1    1    2    0    0  0.35373234444E+02 -0.14927194455E+02  0.19963108738E+03  0.20328959122E+03  0.00000000000E+00 0. -1.
</event>
<event>
 6    1  0.2412631E-010  0.9939225E+02  0.7561462E-02  0.1281579E+00
         -2   -1    0    0    0  501 -0.00000000000E+00  0.00000000000E+00  0.42163821478E+02  0.42163821478E+02  0.00000000000E+00 0.  1.
          2   -1    0    0  501    0  0.00000000000E+00 -0.00000000000E+00 -0.29270969556E+03  0.29270969556E+03  0.00000000000E+00 0. -1.
          5    1    1    2  502    0  0.66738372783E+02 -0.17588760615E+02 -0.76591248214E+02  0.10318462388E+03  0.41800000000E+01 0. -1.
         -5    1    1    2    0  502 -0.50777023670E+02  0.19363068337E+02 -0.97919578162E+02  0.11206672448E+03  0.41800000000E+01 0. -1.
        -11    1    1    2    0    0 -0.26398786892E+02 -0.32972743013E+02 -0.65509776615E+01  0.42743573078E+02  0.00000000000E+00 0.  1.
         11    1    1    2    0    0  0.10437437779E+02  0.31198435292E+02 -0.69484070048E+02  0.76878595607E+02  0.00000000000E+00 0. -1.
</event>
<event>
 7    1  0.2412631E-010  0.1625856E+03  0.7561462E-02  0.1185808E+00
          1   -1    0    0  501    0  0.00000000000E+00  0.00000000000E+00  0.13788561760E+03  0.13788561760E+03  0.00000000000E+00 0. -1.
         -1   -1    0    0    0  501 -0.00000000000E+00 -0.00000000000E+00 -0.28380530875E+03  0.28380530875E+03  0.00000000000E+00 0.  1.
         25    2    1    2    0    0 -0.14015339210E+03 -0.53498067087E+02 -0.47453343265E+01  0.19539903650E+03  0.12511294404E+03 0.  0.
          5    1    3    3  502    0 -0.13965801254E+03 -0.31903048080E+02  0.37171783379E+02  0.14805870060E+03  0.41800000000E+01 0. -1.
         -5    1    3    3    0  502 -0.49537956756E+00 -0.21595019007E+02 -0.41917117705E+02  0.47340335905E+02  0.41800000000E+01 0. -1.
        -11    1    1    2    0    0  0.90762828738E+02  0.54173243459E+01 -0.30491883163E+02  0.95900956317E+02  0.00000000000E+00 0. -1.
         11    1    1    2    0    0  0.49390563366E+02  0.48080742741E+02 -0.11068247367E+03  0.13039093354E+03  0.00000000000E+00 0.  1.
</event>
<event>
 7    1  0.2412631E-010  0.8015925E+02  0.7561462E-02  0.1328600E+00
         -2   -1    0    0    0  501 -0.00000000000E+00  0.00000000000E+00  0.24008704077E+02  0.24008704077E+02  0.00000000000E+00 0.  1.
          2   -1    0    0  501    0  0.00000000000E+00 -0.00000000000E+00 -0.56700808520E+03  0.56700808520E+03  0.00000000000E+00 0. -1.
         25    2    1    2    0    0 -0.36885104145E+02  0.55429459840E+00 -0.34630166447E+03  0.37003521191E+03  0.12506157321E+03 0.  0.
          5    1    3    3  502    0 -0.60743804188E+02 -0.84690280498E+01 -0.72662639649E+02  0.95178074072E+02  0.41800000000E+01 0. -1.
         -5    1    3    3    0  502  0.23858700043E+02  0.90233226482E+01 -0.27363902482E+03  0.27485713784E+03  0.41800000000E+01 0. -1.
        -11    1    1    2    0    0  0.12873735454E+02  0.30871163043E+02 -0.17001363515E+03  0.17327261154E+03  0.00000000000E+00 0. -1.
         11    1    1    2    0    0  0.24011368691E+02 -0.31425457642E+02 -0.26684081509E+02  0.47708965828E+02  0.00000000000E+00 0.  1.
</event>
<event>
 6    1  0.2412631E-010  0.1119545E+03  0.7561462E-02  0.1256993E+00
          1   -1    0    0  501    0  0.00000000000E+00  0.00000000000E+00  0.40807202327E+03  0.40807202327E+03  0.00000000000E+00 0. -1.
         -1   -1    0    0    0  501 -0.00000000000E+00 -0.00000000000E+00 -0.31846173687E+02  0.31846173687E+02  0.00000000000E+00 0.  1.
          5    1    1    2  502    0  0.75730225400E+02 -0.11738188214E+02  0.11107696489E+03  0.13501265359E+03  0.41800000000E+01 0.  1.
         -5    1    1    2    0  502 -0.51264535650E+02 -0.55299319132E+01  0.64584561049E+02  0.82748236768E+02  0.41800000000E+01 0.  1.
        -11    1    1    2    0    0  0.34689428697E+02  0.70390264854E+01  0.79606343112E+02  0.87121032023E+02  0.00000000000E+00 0. -1.
         11    1    1    2    0    0 -0.59155118447E+02  0.10229093642E+02  0.12095798053E+03  0.13503627457E+03  0.00000000000E+00 0.  1.
</event>
<event>
 7    1  0.2412631E-010  0.1726132E+03  0.7561462E-02  0.1175150E+00
         -2   -1    0    0    0  501 -0.00000000000E+00  0.00000000000E+00  0.72325323233E+02  0.72325323233E+02  0.00000000000E+00 0.  1.
          2   -1    0    0  501    0  0.00000000000E+00 -0.00000000000E+00 -0.59497930212E+03  0.59497930212E+03  0.00000000000E+00 0. -1.
         25    2    1    2    0    0 -0.36246675363E+02  0.14894560502E+03 -0.41521978711E+03  0.45994271177E+03  0.12506483027E+03 0.  0.
          5    1    3    3  502    0 -0.47170617446E+01  0.13823296097E+03 -0.20672173517E+03  0.24876082964E+03  0.41800000000E+01 0. -1.
         -5    1    3    3    0  502 -0.31529613618E+02  0.10712644053E+02 -0.20849805194E+03  0.21118188213E+03  0.41800000000E+01 0. -1.
        -11    1    1    2    0    0  0.54862577647E+02 -0.14389634862E+03 -0.79211824421E+02  0.17317787013E+03  0.00000000000E+00 0.  1.
         11    1    1    2    0    0 -0.18615902284E+02 -0.50492564018E+01 -0.28222367354E+02  0.34184043457E+02  0.00000000000E+00 0. -1.
</event>
<event>
 7    1  0.2412631E-010  0.1416108E+03  0.7561462E-02  0.1211178E+00
         -1   -1    0    0    0  501 -0.00000000000E+00  0.00000000000E+00  0.20892059619E+03  0.20892059619E+03  0.00000000000E+00 0.  1.
          1   -1    0    0  501    0  0.00000000000E+00 -0.00000000000E+00 -0.20204853803E+03  0.20204853803E+03  0.00000000000E+00 0. -1.
         25    2    1    2    0    0  0.10409567619E+03  0.65404128522E+02  0.12775306058E+03  0.21701182188E+03  0.12513862919E+03 0.  0.
          5    1    3    3  502    0  0.31546060637E+02 -0.11911108370E+02  0.10243976294E+03  0.10792778083E+03  0.41800000000E+01 0. -1.
         -5    1    3    3    0  502  0.72549615554E+02  0.77315236892E+02  0.25313297643E+02  0.10908404104E+03  0.41800000000E+01 0. -1.
        -11    1    1    2    0    0 -0.75258373693E+02 -0.80823272320E+02 -0.62116748074E+02  0.12670720007E+03  0.00000000000E+00 0.  1.
         11    1    1    2    0    0 -0.28837302498E+02  0.15419143798E+02 -0.58764254355E+02  0.67250112273E+02  0.00000000000E+00 0. -1.
</event>
<event>
 6    1  0.2412631E-010  0.1116988E+03  0.7561462E-02  0.1257456E+00
          1   -1    0    0  501    0  0.00000000000E+00  0.00000000000E+00  0.35958916941E+03  0.35958916941E+03  0.00000000000E+00 0. -1.
         -1   -1    0    0    0  501 -0.00000000000E+00 -0.00000000000E+00 -0.38707386254E+02  0.38707386254E+02  0.00000000000E+00 0.  1.
          5    1    1    2  502    0  0.35206217311E+02  0.31726197842E+02  0.71733159568E+02  0.86076407618E+02  0.41800000000E+01 0.  1.
         -5    1    1    2    0  502 -0.39382897774E+02 -0.73421858922E+02  0.16407814602E+03  0.18406762998E+03  0.41800000000E+01 0.  1.
        -11    1    1    2    0    0  0.39949226461E+02  0.35537179247E+01  0.54208108502E+02  0.67432103877E+02  0.00000000000E+00 0. -1.
         11    1    1    2    0    0 -0.35772545997E+02  0.38141943155E+02  0.30862369061E+02  0.60720414185E+02  0.00000000000E+00 0.  1.
</event>
<event>
 6    1  0.2412631E-010  0.9982339E+02  0.7561462E-02  0.1280668E+00
         -2   -1    0    0    0  501 -0.00000000000E+00  0.00000000000E+00  0.54981386201E+02  0.54981386201E+02  0.00000000000E+00 0.  1.
          2   -1    0    0  501    0  0.00000000000E+00 -0.00000000000E+00 -0.28412664540E+03  0.28412664540E+03  0.00000000000E+00 0. -1.
          5    1    1    2  502    0  0.58073510219E+02 -0.35481397272E+02  0.40018859695E+01  0.68300436549E+02  0.41800000000E+01 0.  1.
         -5    1    1    2    0  502 -0.32738135540E+02  0.13333183024E+01 -0.73965805181E+02  0.81006024421E+02  0.41800000000E+01 0.  1.
        -11    1    1    2    0    0 -0.43302756761E+02  0.55585339409E+02 -0.84318177192E+02  0.10988363711E+03  0.00000000000E+00 0.  1.
         11    1    1    2    0    0  0.17967382082E+02 -0.21437260439E+02 -0.74863162799E+02  0.79917933521E+02  0.00000000000E+00 0. -1.
</event>
<event>
 7    1  0.2412631E-010  0.8560558E+02  0.7561462E-02  0.1313856E+00
          1   -1    0    0  501    0  0.00000000000E+00  0.00000000000E+00  0.11465632222E+03  0.11465632222E+03  0.00000000000E+00 0. -1.
         -1   -1    0    0    0  501 -0.00000000000E+00 -0.00000000000E+00 -0.16961562274E+03  0.16961562274E+03  0.00000000000E+00 0.  1.
         25    2    1    2    0    0 -0.61657295550E+02  0.43475185870E+02  0.23966844391E+02  0.14805753433E+03  0.12511958264E+03 0.  0.
          5    1    3    3  502    0  0.47308127534E+01  0.17124718520E+02  0.63667914675E+02  0.66232260513E+02  0.41800000000E+01 0.  1.
         -5    1    3    3    0  502 -0.66388108303E+02  0.26350467350E+02 -0.39701070283E+02  0.81825273817E+02  0.41800000000E+01 0.  1.
        -11    1    1    2    0    0  0.31357067606E+02 -0.39449508767E+01  0.10960469629E+02  0.33450862781E+02  0.00000000000E+00 0. -1.
         11    1    1    2    0    0  0.30300227943E+02 -0.39530234993E+02 -0.89886614546E+02  0.10276354785E+03  0.00000000000E+00 0.  1.
</event>
<event>
 7    1  0.2412631E-010  0.9776066E+02  0.7561462E-02  0.1285077E+00
          1   -1    0    0  501    0  0.00000000000E+00  0.00000000000E+00  0.81032817433E+02  0.81032817433E+02  0.00000000000E+00 0. -1.
         -1   -1    0    0    0  501 -0.00000000000E+00 -0.00000000000E+00 -0.26133360733E+03  0.26133360733E+03  0.00000000000E+00 0.  1.
         25    2    1    2    0    0 -0.54462380425E+02  0.56329471674E+02 -0.16494990100E+03  0.22137317257E+03  0.12513373419E+03 0.  0.
          5    1    3    3  502    0 -0.65493153316E+02  0.23941775220E+02 -0.17248132081E+03  0.18609094594E+03  0.41800000000E+01 0.  1.
         -5    1    3    3    0  502  0.11030772892E+02  0.32387696455E+02  0.75314198019E+01  0.35282226637E+02  0.41800000000E+01 0.  1.
        -11    1    1    2    0    0  0.21446963855E+02 -0.53993527940E+02 -0.47355651938E+02  0.74952192019E+02  0.00000000000E+00 0.  1.
         11    1    1    2    0    0  0.33015416570E+02 -0.23359437346E+01  0.32004763044E+02  0.46041060174E+02  0.00000000000E+00 0. -1.
</event>
<event>
 6    1  0.2412631E-010  0.1117124E+03  0.7561462E-02  0.1257431E+00
         -2   -1    0    0    0  501 -0.00000000000E+00  0.00000000000E+00  0.15572598753E+03  0.15572598753E+03  0.00000000000E+00 0.  1.
          2   -1    0    0  501    0  0.00000000000E+00 -0.00000000000E+00 -0.10948587333E+03  0.10948587333E+03  0.00000000000E+00 0. -1.
          5    1    1    2  502    0 -0.57018237328E+02 -0.32270224274E+02  0.13106183413E+02  0.66945434544E+02  0.41800000000E+01 0.  1.
         -5    1    1    2    0  502  0.67551846496E+02 -0.39524655241E+02  0.60188703714E+01  0.78607566668E+02  0.41800000000E+01 0.  1.
        -11    1    1    2    0    0  0.47909944414E-01  0.68233180818E+02  0.56267899827E+02  0.88441199737E+02  0.00000000000E+00 0.  1.
         11    1    1    2    0    0 -0.10581519112E+02  0.35616986969E+01 -0.29152839417E+02  0.31217659913E+02  0.00000000000E+00 0. -1.
</event>
<event>
 7    1  0.2412631E-010  0.7639591E+02  0.7561462E-02  0.1339602E+00
         -2   -1    0    0    0  501 -0.00000000000E+00  0.00000000000E+00  0.14637948466E+03  0.14637948466E+03  0.00000000000E+00 0.  1.
          2   -1    0    0  501    0  0.00000000000E+00 -0.00000000000E+00 -0.99954662957E+02  0.99954662957E+02  0.00000000000E+00 0. -1.
         25    2    1    2    0    0  0.50636327962E+02  0.41973698368E+01  0.15671030225E+02  0.13588694686E+03  0.12505209121E+03 0.  0.
          5    1    3    3  502    0  0.10311229200E+02 -0.12523507327E+02  0.66602473074E+02  0.68676935743E+02  0.41800000000E+01 0.  1.
         -5    1    3    3    0  502  0.40325098762E+02  0.16720877164E+02 -0.50931442849E+02  0.67210011114E+02  0.41800000000E+01 0.  1.
        -11    1    1    2    0    0  0.41697062868E+01 -0.30928449481E+02 -0.14597845549E+02  0.34453628728E+02  0.00000000000E+00 0. -1.
         11    1    1    2    0    0 -0.54806034249E+02  0.26731079644E+02  0.45351637026E+02  0.75993572031E+02  0.00000000000E+00 0.  1.
</event>
<event>
 7    1  0.2412631E-010  0.9179569E+02  0.7561462E-02  0.1298561E+00
         -3   -1    0    0    0  501 -0.00000000000E+00  0.00000000000E+00  0.26659333340E+02  0.26659333340E+02  0.00000000000E+00 0.  1.
          3   -1    0    0  501    0  0.00000000000E+00 -0.00000000000E+00 -0.54609879324E+03  0.54609879324E+03  0.00000000000E+00 0. -1.
         25    2    1    2    0    0 -0.15889161986E+02  0.11738427263E+02 -0.37477427851E+03  0.39558082056E+03  0.12505266736E+03 0.  0.
          5    1    3    3  502    0 -0.14290011095E+02 -0.48570782404E+02 -0.26886014689E+03  0.27361757310E+03  0.41800000000E+01 0.  1.
         -5    1    3    3    0  502 -0.15991508909E+01  0.60309209666E+02 -0.10591413162E+03  0.12196324746E+03  0.41800000000E+01 0.  1.
        -11    1    1    2    0    0  0.43120839802E+02 -0.13047756405E+02 -0.14292657511E+03  0.14985878902E+03  0.00000000000E+00 0. -1.
         11    1    1    2    0    0 -0.27231677816E+02  0.13093291428E+01 -0.17386062724E+01  0.27318517003E+02  0.00000000000E+00 0.  1.
</event>
<event>
 7    1  0.2412631E-010  0.9339024E+02  0.7561462E-02  0.1294843E+00
         -3   -1    0    0    0  501 -0.00000000000E+00  0.00000000000E+00  0.68385214231E+02  0.68385214231E+02  0.00000000000E+00 0.  1.
          3   -1    0    0  501    0  0.00000000000E+00 -0.00000000000E+00 -0.23791559137E+03  0.23791559137E+03  0.00000000000E+00 0. -1.
         25    2    1    2    0    0 -0.36909619756E+02 -0.49231841777E+02 -0.61489338087E+02  0.15240230560E+03  0.12513764333E+03 0.  0.
          5    1    3    3  502    0  0.26077950520E+02  0.41834368813E+01 -0.64324273031E+02  0.69660929856E+02  0.41800000000E+01 0.  1.
         -5    1    3    3    0  502 -0.62987570275E+02 -0.53415278659E+02  0.28349349438E+01  0.82741375741E+02  0.41800000000E+01 0.  1.
        -11    1    1    2    0    0  0.40610628159E+02  0.15586023983E+02 -0.30722989169E+01  0.43607181561E+02  0.00000000000E+00 0.  1.
         11    1    1    2    0    0 -0.37010084029E+01  0.33645817794E+02 -0.10496874014E+03  0.11029131844E+03  0.00000000000E+00 0. -1.
</event>
<event>
 7    1  0.2412631E-010  0.3784519E+03  0.7561462E-02  0.1051507E+00
         -2   -1    0    0    0  501 -0.00000000000E+00  0.00000000000E+00  0.11817362051E+03  0.11817362051E+03  0.00000000000E+00 0.  1.
          2   -1    0    0  501    0  0.00000000000E+00 -0.00000000000E+00 -0.13002102655E+04  0.13002102655E+04  0.00000000000E+00 0. -1.
         25    2    1    2    0    0  0.14423484460E+02 -0.37303226840E+03 -0.68447159812E+03  0.78963304867E+03  0.12513142188E+03 0.  0.
          5    1    3    3  502    0  0.46839123740E+02 -0.14076071353E+03 -0.17996058383E+03  0.23326115433E+03  0.41800000000E+01 0. -1.
         -5    1    3    3    0  502 -0.32415639281E+02 -0.23227155488E+03 -0.50451101428E+03  0.55637189434E+03  0.41800000000E+01 0. -1.
        -11    1    1    2    0    0 -0.20129265847E+02  0.30584283487E+03 -0.34227962295E+03  0.45945659998E+03  0.00000000000E+00 0.  1.
         11    1    1    2    0    0  0.57057813870E+01  0.67189433534E+02 -0.15528542397E+03  0.16929423740E+03  0.00000000000E+00 0. -1.
</event>
<event>
 6    1  0.2412631E-010  0.1185342E+03  0.7561462E-02  0.1245535E+00
          1   -1    0    0  501    0  0.00000000000E+00  0.00000000000E+00  0.14163989759E+02  0.14163989759E+02  0.00000000000E+00 0. -1.
         -1   -1    0    0    0  501 -0.00000000000E+00 -0.00000000000E+00 -0.12105602933E+04  0.12105602933E+04  0.00000000000E+00 0.  1.
          5    1    1    2  502    0 -0.27876703507E+02  0.18390662770E+02 -0.90713468293E+02  0.96756047900E+02  0.41800000000E+01 0. -1.
         -5    1    1    2    0  502  0.47342080412E+02 -0.85650526949E+02 -0.68029562833E+03  0.68731135569E+03  0.41800000000E+01 0. -1.
        -11    1    1    2    0    0  0.26807547810E+02  0.48722620765E+02 -0.31021458426E+03  0.31515968442E+03  0.00000000000E+00 0.  1.
         11    1    1    2    0    0 -0.46272924714E+02  0.18537243414E+02 -0.11517262269E+03  0.12549719507E+03  0.00000000000E+00 0. -1.
</event>
<event>
 7    1  0.2412631E-010  0.8929766E+02  0.7561462E-02  0.1304561E+00
         -2   -1    0    0    0  501 -0.00000000000E+00  0.00000000000E+00  0.44028738849E+03  0.44028738849E+03  0.00000000000E+00 0.  1.
          2   -1    0    0  501    0  0.00000000000E+00 -0.00000000000E+00 -0.32252570686E+02  0.32252570686E+02  0.00000000000E+00 0. -1.
         25    2    1    2    0    0 -0.27034573296E+01  0.36444113751E+02  0.16627385112E+03  0.21129372956E+03  0.12515016771E+03 0.  0.
          5    1    3    3  502    0 -0.20637820605E+02 -0.19041867464E+02  0.14703016392E+03  0.14974596442E+03  0.41800000000E+01 0.  1.
         -5    1    3    3    0  502  0.17934363276E+02  0.55485981215E+02  0.19243687200E+02  0.61547765147E+02  0.41800000000E+01 0.  1.
        -11    1    1    2    0    0  0.35519654781E+02 -0.45479171633E+02  0.19532947270E+03  0.20367524109E+03  0.00000000000E+00 0. -1.
         11    1    1    2    0    0 -0.32816197452E+02  0.90350578815E+01  0.46431493982E+02  0.57570988523E+02  0.00000000000E+00 0.  1.
</event>
<event>
 7    1  0.2412631E-010  0.1726508E+03  0.7561462E-02  0.1175111E+00
         -1   -1    0    0    0  501 -0.00000000000E+00  0.00000000000E+00  0.79517280941E+03  0.79517280941E+03  0.00000000000E+00 0.  1.
          1   -1    0    0  501    0  0.00000000000E+00 -0.00000000000E+00 -0.85500591176E+02  0.85500591176E+02  0.00000000000E+00 0. -1.
         25    2    1    2    0    0  0.35153001601E+02 -0.14033170001E+03  0.47326808858E+02  0.19703502308E+03  0.12511696101E+03 0.  0.
          5    1    3    3  502    0  0.76307668563E+02 -0.60391929694E+02  0.48966032560E+01  0.97526891559E+02  0.41800000000E+01 0.  1.
         -5    1    3    3    0  502 -0.41154666962E+02 -0.79939770319E+02  0.42430205602E+02  0.99508131522E+02  0.41800000000E+01 0.  1.
        -11    1    1    2    0    0 -0.53566215121E+02  0.97006302681E+02  0.56171445051E+03  0.57254055409E+03  0.00000000000E+00 0. -1.
         11    1    1    2    0    0  0.18413213521E+02  0.43325397333E+02  0.10063095886E+03  0.11109782342E+03  0.00000000000E+00 0.  1.
</event>
<event>
 6    1  0.2412631E-010  0.1065670E+03  0.7561462E-02  0.1267063E+00
         -1   -1    0    0    0  501 -0.00000000000E+00  0.00000000000E+00  0.21881878297E+02  0.21881878297E+02  0.00000000000E+00 0.  1.
          1   -1    0    0  501    0  0.00000000000E+00 -0.00000000000E+00 -0.61085132887E+03  0.61085132887E+03  0.00000000000E+00 0. -1.
          5    1    1    2  502    0 -0.30174492187E+02 -0.70774960027E+02 -0.19663565469E+03  0.21119339015E+03  0.41800000000E+01 0. -1.
         -5    1    1    2    0  502  0.38512898183E+01  0.50062360144E+02 -0.19534576204E+03  0.20173872084E+03  0.41800000000E+01 0. -1.
        -11    1    1    2    0    0  0.52042738233E+02  0.27823070924E+02 -0.17665939777E+03  0.18625550381E+03  0.00000000000E+00 0. -1.
         11    1    1    2    0    0 -0.25719535864E+02 -0.71104710408E+01 -0.20328636071E+02  0.33545592378E+02  0.00000000000E+00 0.  1.
</event>
<event>
 6    1  0.2412631E-010  0.1147209E+03  0.7561462E-02  0.1252069E+00
          2   -1    0    0  501    0  0.00000000000E+00  0.00000000000E+00  0.27812009872E+03  0.27812009872E+03  0.00000000000E+00 0. -1.
         -2   -1    0    0    0  501 -0.00000000000E+00 -0.00000000000E+00 -0.97946147588E+02  0.97946147588E+02  0.00000000000E+00 0.  1.
          5    1    1    2  502    0  0.20206643488E+02  0.66029241482E+02 -0.25097212068E+02  0.73590159840E+02  0.41800000000E+01 0.  1.
         -5    1    1    2    0  502  0.11621620366E+02 -0.59322514618E+02 -0.98141141792E+00  0.60602461740E+02  0.41800000000E+01 0.  1.
        -11    1    1    2    0    0 -0.48549004760E+02 -0.39677817661E+02  0.46930184351E+02  0.78318435127E+02  0.00000000000E+00 0.  1.
         11    1    1    2    0    0  0.16720740906E+02  0.32971090798E+02  0.15932239027E+03  0.16355518960E+03  0.00000000000E+00 0. -1.
</event>
<event>
 6    1  0.2412631E-010  0.1149135E+03  0.7561462E-02  0.1251732E+00
         -1   -1    0    0    0  501 -0.00000000000E+00  0.00000000000E+00  0.13133178709E+03  0.13133178709E+03  0.00000000000E+00 0.  1.
          1   -1    0    0  501    0  0.00000000000E+00 -0.00000000000E+00 -0.24641648043E+03  0.24641648043E+03  0.00000000000E+00 0. -1.
          5    1    1    2  502    0  0.18184215496E+02 -0.91131553507E+02 -0.12133781798E+03  0.15289200179E+03  0.41800000000E+01 0.  1.
         -5    1    1    2    0  502  0.41758033678E+02  0.36720988388E+02 -0.61872598949E+02  0.83293788877E+02  0.41800000000E+01 0.  1.
        -11    1    1    2    0    0 -0.35794206271E+02  0.29990362663E+02 -0.17058607856E+02  0.49715622869E+02  0.00000000000E+00 0. -1.
         11    1    1    2    0    0 -0.24148042903E+02  0.24420202457E+02  0.85184331449E+02  0.91846853994E+02  0.00000000000E+00 0.  1.
</event>
<event>
 7    1  0.2412631E-010  0.3630510E+03  0.7561462E-02  0.1057382E+00
          1   -1    0    0  501    0  0.00000000000E+00  0.00000000000E+00  0.35735731777E+03  0.35735731777E+03  0.00000000000E+00 0. -1.
         -1   -1    0    0    0  501 -0.00000000000E+00 -0.00000000000E+00 -0.43150442244E+03  0.43150442244E+03  0.00000000000E+00 0.  1.
         25    2    1    2    0    0 -0.18232930842E+03 -0.31065524298E+03 -0.14885712207E+03  0.40933035203E+03  0.12506893139E+03 0.  0.
          5    1    3    3  502    0 -0.15419133104E+03 -0.23561847028E+03 -0.56947884503E+02  0.28731787980E+03  0.41800000000E+01 0.  1.
         -5    1    3    3    0  502 -0.28137977387E+02 -0.75036772699E+02 -0.91909237567E+02  0.12201247223E+03  0.41800000000E+01 0.  1.
        -11    1    1    2    0    0  0.16325506793E+02  0.70010322548E+02 -0.15581616096E+02  0.73557828920E+02  0.00000000000E+00 0.  1.
         11    1    1    2    0    0  0.16600380163E+03  0.24064492043E+03  0.90291633490E+02  0.30597355926E+03  0.00000000000E+00 0. -1.
</event>
<event>
 6    1  0.2412631E-010  0.2496009E+03  0.7561462E-02  0.1113557E+00
          2   -1    0    0  501    0  0.00000000000E+00  0.00000000000E+00  0.11036350181E+03  0.11036350181E+03  0.00000000000E+00 0.  1.
         -2   -1    0    0    0  501 -0.00000000000E+00 -0.00000000000E+00 -0.62022706787E+03  0.62022706787E+03  0.00000000000E+00 0. -1.
          5    1    1    2  502    0  0.16302806209E+03  0.15080524782E+03 -0.28257309764E+03  0.35942370499E+03  0.41800000000E+01 0. -1.
         -5    1    1    2    0  502  0.22809559023E+02 -0.40335439621E+01  0.72267605961E+01  0.24622021210E+02  0.41800000000E+01 0. -1.
        -11    1    1    2    0    0 -0.85862017917E+02 -0.13463815719E+02 -0.62476763637E+02  0.10703693965E+03  0.00000000000E+00 0.  1.
         11    1    1    2    0    0 -0.99975603192E+02 -0.13330788814E+03 -0.17204046537E+03  0.23950790384E+03  0.00000000000E+00 0. -1.
</event>
<event>
 6    1  0.2412631E-010  0.1311245E+03  0.7561462E-02  0.1225797E+00
         -1   -1    0    0    0  501 -0.00000000000E+00  0.00000000000E+00  0.38793033277E+02  0.38793033277E+02  0.00000000000E+00 0.  1.
          1   -1    0    0  501    0  0.00000000000E+00 -0.00000000000E+00 -0.68676655183E+03  0.68676655183E+03  0.00000000000E+00 0. -1.
          5    1    1    2  502    0  0.36543954277E+02  0.89288205049E+02 -0.94204071098E+02  0.13490635110E+03  0.41800000000E+01 0. -1.
         -5    1    1    2    0  502 -0.30199852825E+02  0.30809542008E+02 -0.22028618793E+03  0.22450999083E+03  0.41800000000E+01 0. -1.
        -11    1    1    2    0    0  0.68077882345E+01 -0.76403616537E+02 -0.89248403715E+02  0.11768235282E+03  0.00000000000E+00 0.  1.
         11    1    1    2    0    0 -0.13151889686E+02 -0.43694130520E+02 -0.24423485581E+03  0.24846089036E+03  0.00000000000E+00 0. -1.
</event>
<event>
 7    1  0.2412631E-010  0.2248911E+03  0.7561462E-02  0.1130288E+00
         -1   -1    0    0    0  501 -0.00000000000E+00  0.00000000000E+00  0.79687044516E+02  0.79687044516E+02  0.00000000000E+00 0.  1.
          1   -1    0    0  501    0  0.00000000000E+00 -0.00000000000E+00 -0.66516655029E+03  0.66516655029E+03  0.00000000000E+00 0. -1.
         25    2    1    2    0    0 -0.10889086552E+03 -0.17007125913E+03 -0.30284430309E+03  0.38488019500E+03  0.12504654657E+03 0.  0.
          5    1    3    3  502    0 -0.11955970823E+03 -0.18213050906E+03 -0.29426526683E+03  0.36616330486E+03  0.41800000000E+01 0. -1.
         -5    1    3    3    0  502  0.10668842702E+02  0.12059249927E+02 -0.85790362636E+01  0.18716890143E+02  0.41800000000E+01 0. -1.
        -11    1    1    2    0    0  0.46097434334E+02  0.15885057132E+02 -0.10906580862E+03  0.11946823470E+03  0.00000000000E+00 0. -1.
         11    1    1    2    0    0  0.62793431190E+02  0.15418620200E+03 -0.17356939406E+03  0.24050516510E+03  0.00000000000E+00 0.  1.
</event>
<event>
 7    1  0.2412631E-010  0.1637452E+03  0.7561462E-02  0.1184532E+00
          2   -1    0    0  501    0  0.00000000000E+00  0.00000000000E+00  0.48359593086E+03  0.48359593086E+03  0.00000000000E+00 0. -1.
         -2   -1    0    0    0  501 -0.00000000000E+00 -0.00000000000E+00 -0.85734956664E+02  0.85734956664E+02  0.00000000000E+00 0.  1.
         25    2    1    2    0    0  0.41595936513E+02  0.13846371327E+03  0.34170190622E+03  0.39156158758E+03  0.12513138025E+03 0.  0.
          5    1    3    3  502    0  0.80010027250E+02  0.86736597295E+02  0.16090377441E+03  0.19958040683E+03  0.41800000000E+01 0. -1.
         -5    1    3    3    0  502 -0.38414090736E+02  0.51727115972E+02  0.18079813181E+03  0.19198118075E+03  0.41800000000E+01 0. -1.
        -11    1    1    2    0    0 -0.28328099996E+02 -0.79140306864E+02 -0.13697983073E+02  0.85166332316E+02  0.00000000000E+00 0.  1.
         11    1    1    2    0    0 -0.13267836517E+02 -0.59323406403E+02  0.69857051042E+02  0.92602967628E+02  0.00000000000E+00 0. -1.
</event>
<event>
 6    1  0.2412631E-010  0.1068805E+03  0.7561462E-02  0.1266458E+00
         -2   -1    0    0    0  501 -0.00000000000E+00  0.00000000000E+00  0.65971823244E+02  0.65971823244E+02  0.00000000000E+00 0.  1.
          2   -1    0    0  501    0  0.00000000000E+00 -0.00000000000E+00 -0.25643284309E+03  0.25643284309E+03  0.00000000000E+00 0. -1.
          5    1    1    2  502    0 -0.58481963807E+02  0.48282477726E+02 -0.13049593736E+03  0.15099006528E+03  0.41800000000E+01 0. -1.
         -5    1    1    2    0  502  0.56958175368E+01 -0.51642236658E+02 -0.29815874180E+02  0.60048494549E+02  0.41800000000E+01 0. -1.
        -11    1    1    2    0    0  0.31273929949E+02 -0.31713621055E+02  0.17992837669E+02  0.48037013461E+02  0.00000000000E+00 0.  1.
         11    1    1    2    0    0  0.21512216321E+02  0.35073379987E+02 -0.48142045975E+02  0.63329093042E+02  0.00000000000E+00 0. -1.
</event>
<event>
 6    1  0.2412631E-010  0.1184221E+03  0.7561462E-02  0.1245723E+00
         -1   -1    0    0    0  501 -0.00000000000E+00  0.00000000000E+00  0.12066013061E+03  0.12066013061E+03  0.00000000000E+00 0.  1.
          1   -1    0    0  501    0  0.00000000000E+00 -0.00000000000E+00 -0.12457433831E+03  0.12457433831E+03  0.00000000000E+00 0. -1.
          5    1    1    2  502    0  0.42737055154E+02  0.44966425854E+02 -0.14551560322E+02  0.63856523905E+02  0.41800000000E+01 0. -1.
         -5    1    1    2    0  502 -0.68827359336E+02  0.61074311871E+01  0.27290894382E+02  0.74409484779E+02  0.41800000000E+01 0. -1.
        -11    1    1    2    0    0 -0.32541262829E+01 -0.70291270097E+02 -0.78470123170E+01  0.70802737178E+02  0.00000000000E+00 0.  1.
         11    1    1    2    0    0  0.29344430464E+02  0.19217413055E+02 -0.88065294390E+01  0.36165723062E+02  0.00000000000E+00 0. -1.
</event>
<event>
 6    1  0.2412631E-010  0.1186767E+03  0.7561462E-02  0.1245296E+00
          1   -1    0    0  501    0  0.00000000000E+00  0.00000000000E+00  0.11843099209E+03  0.11843099209E+03  0.00000000000E+00 0. -1.
         -1   -1    0    0    0  501 -0.00000000000E+00 -0.00000000000E+00 -0.12828326627E+03  0.12828326627E+03  0.00000000000E+00 0.  1.
          5    1    1    2  502    0  0.70100460568E+02 -0.42628691917E+02  0.17790585980E+02  0.84055084891E+02  0.41800000000E+01 0.  1.
         -5    1    1    2    0  502 -0.15094166755E+02  0.52343131590E+02  0.39832772160E+01  0.54781166400E+02  0.41800000000E+01 0.  1.
        -11    1    1    2    0    0 -0.67780676718E+02  0.17930894866E+02 -0.10692215981E+02  0.70922920199E+02  0.00000000000E+00 0.  1.
         11    1    1    2    0    0  0.12774382905E+02 -0.27645334540E+02 -0.20933921395E+02  0.36955086867E+02  0.00000000000E+00 0. -1.
</event>
<event>
 7    1  0.2412631E-010  0.1141785E+03  0.7561462E-02  0.1253022E+00
          2   -1    0    0  501    0  0.00000000000E+00  0.00000000000E+00  0.17062769900E+03  0.17062769900E+03  0.00000000000E+00 0.  1.
         -2   -1    0    0    0  501 -0.00000000000E+00 -0.00000000000E+00 -0.94982916045E+02  0.94982916045E+02  0.00000000000E+00 0. -1.
         25    2    1    2    0    0 -0.12726329296E+02  0.49783244941E+02  0.86519813564E+02  0.16051973082E+03  0.12506228412E+03 0.  0.
          5    1    3    3  502    0 -0.51475021437E+02 -0.16613445769E+02  0.55219833595E+02  0.77410508554E+02  0.41800000000E+01 0.  1.
         -5    1    3    3    0  502  0.38748692141E+02  0.66396690710E+02  0.31299979968E+02  0.83109222268E+02  0.41800000000E+01 0.  1.
        -11    1    1    2    0    0  0.44216950023E+02 -0.82262693483E+01  0.14295236383E+02  0.47192838016E+02  0.00000000000E+00 0.  1.
         11    1    1    2    0    0 -0.31490620727E+02 -0.41556975593E+02 -0.25170266993E+02  0.57898046208E+02  0.00000000000E+00 0. -1.
</event>
<event>
 6    1  0.2412631E-010  0.1147673E+03  0.7561462E-02  0.1251988E+00
         -2   -1    0    0    0  501 -0.00000000000E+00  0.00000000000E+00  0.34578439793E+02  0.34578439793E+02  0.00000000000E+00 0.  1.
          2   -1    0    0  501    0  0.00000000000E+00 -0.00000000000E+00 -0.58476328391E+03  0.58476328391E+03  0.00000000000E+00 0. -1.
          5    1    1    2  502    0 -0.35241288337E+02  0.56119400953E+02 -0.42788647613E+02  0.78991621908E+02  0.41800000000E+01 0. -1.
         -5    1    1    2    0  502 -0.47355410781E+02 -0.23617142896E+02 -0.20964369041E+03  0.21625969041E+03  0.41800000000E+01 0. -1.
        -11    1    1    2    0    0  0.58532538517E+01  0.17502872219E+02 -0.78396616387E+01  0.20051718410E+02  0.00000000000E+00 0.  1.
         11    1    1    2    0    0  0.76743445266E+02 -0.50005130276E+02 -0.28991284446E+03  0.30403869298E+03  0.00000000000E+00 0. -1.
</event>
<event>
 6    1  0.2412631E-010  0.1099260E+03  0.7561462E-02  0.1260707E+00
          1   -1    0    0  501    0  0.00000000000E+00  0.00000000000E+00  0.71948021471E+02  0.71948021471E+02  0.00000000000E+00 0. -1.
         -1   -1    0    0    0  501 -0.00000000000E+00 -0.00000000000E+00 -0.39876689476E+03  0.39876689476E+03  0.00000000000E+00 0.  1.
          5    1    1    2  502    0 -0.38855085981E+02  0.49419222617E+02 -0.60161025795E+02  0.87113711294E+02  0.41800000000E+01 0. -1.
         -5    1    1    2    0  502 -0.28225098604E+02 -0.31869905561E+02  0.38648621854E+02  0.57650112254E+02  0.41800000000E+01 0. -1.
        -11    1    1    2    0    0 -0.61390581952E+01  0.27451371004E+02 -0.69945479594E+02  0.75389892699E+02  0.00000000000E+00 0.  1.
         11    1    1    2    0    0  0.73219242781E+02 -0.45000688061E+02 -0.23536098975E+03  0.25056119998E+03  0.00000000000E+00 0. -1.
</event>
<event>
 7    1  0.2412631E-010  0.1353678E+03  0.7561462E-02  0.1219701E+00
         -3   -1    0    0    0  501 -0.00000000000E+00  0.00000000000E+00  0.47038845574E+03  0.47038845574E+03  0.00000000000E+00 0.  1.
          3   -1    0    0  501    0  0.00000000000E+00 -0.00000000000E+00 -0.68809243596E+02  0.68809243596E+02  0.00000000000E+00 0. -1.
         25    2    1    2    0    0 -0.10715224313E+03 -0.29441053925E+02  0.34857268543E+03  0.38663854816E+03  0.12505227321E+03 0.  0.
          5    1    3    3  502    0 -0.62952561850E+02  0.41173419454E+02  0.22721874735E+03  0.23938276266E+03  0.41800000000E+01 0. -1.
         -5    1    3    3    0  502 -0.44199681277E+02 -0.70614473378E+02  0.12135393808E+03  0.14725578550E+03  0.41800000000E+01 0. -1.
        -11    1    1    2    0    0  0.33336861333E+02  0.25833424955E+01 -0.25082084806E+02  0.41798695676E+02  0.00000000000E+00 0. -1.
         11    1    1    2    0    0  0.73815381794E+02  0.26857711429E+02  0.78088611519E+02  0.11076045550E+03  0.00000000000E+00 0.  1.
</event>
<event>
 7    1  0.2412631E-010  0.2023358E+03  0.7561462E-02  0.1147783E+00
          1   -1    0    0  501    0  0.00000000000E+00  0.00000000000E+00  0.45116775178E+02  0.45116775178E+02  0.00000000000E+00 0. -1.
         -1   -1    0    0    0  501 -0.00000000000E+00 -0.00000000000E+00 -0.10152318604E+04  0.10152318604E+04  0.00000000000E+00 0.  1.
         25    2    1    2    0    0  0.16990786973E+03  0.25007890516E+02 -0.65863434816E+03  0.69206237199E+03  0.12512810780E+03 0.  0.
          5    1    3    3  502    0  0.11178247982E+03 -0.41888495749E+02 -0.30726329001E+03  0.32966372360E+03  0.41800000000E+01 0.  1.
         -5    1    3    3    0  502  0.58125389918E+02  0.66896386266E+02 -0.35137105815E+03  0.36239864839E+03  0.41800000000E+01 0.  1.
        -11    1    1    2    0    0 -0.86672186869E+02 -0.60830557349E+02 -0.16773350079E+03  0.19836066135E+03  0.00000000000E+00 0. -1.
         11    1    1    2    0    0 -0.83235682866E+02  0.35822666833E+02 -0.14374723629E+03  0.16992560226E+03  0.00000000000E+00 0.  1.
</event>
<event>
 7    1  0.2412631E-010  0.1048594E+03  0.7561462E-02  0.1270397E+00
         -2   -1    0    0    0  501 -0.00000000000E+00  0.00000000000E+00  0.58509913063E+03  0.58509913063E+03  0.00000000000E+00 0.  1.
          2   -1    0    0  501    0  0.00000000000E+00 -0.00000000000E+00 -0.29833352324E+02  0.29833352324E+02  0.00000000000E+00 0. -1.
         25    2    1    2    0    0 -0.28702452159E+02 -0.54313514332E+02  0.40873628521E+03  0.43185072349E+03  0.12512357064E+03 0.  0.
          5    1    3    3  502    0 -0.50568539073E+02  0.70961255975E+01  0.30491991586E+03  0.30919437192E+03  0.41800000000E+01 0.  1.
         -5    1    3    3    0  502  0.21866086915E+02 -0.61409639930E+02  0.10381636936E+03  0.12265635157E+03  0.41800000000E+01 0.  1.
        -11    1    1    2    0    0 -0.57553069197E+01  0.58203223075E+02  0.39502956287E+02  0.70577774756E+02  0.00000000000E+00 0. -1.
         11    1    1    2    0    0  0.34457759078E+02 -0.38897087426E+01  0.10702653681E+03  0.11250398471E+03  0.00000000000E+00 0.  1.
</event>
<event>
 6    1  0.2412631E-010  0.8189818E+02  0.7561462E-02  0.1323749E+00
         -3   -1    0    0    0  501 -0.00000000000E+00  0.00000000000E+00  0.98167784786E+02  0.98167784786E+02  0.00000000000E+00 0.  1.
          3   -1    0    0  501    0  0.00000000000E+00 -0.00000000000E+00 -0.16700157150E+03  0.16700157150E+03  0.00000000000E+00 0. -1.
          5    1    1    2  502    0  0.20588571971E+02  0.39356883264E+02  0.31522909833E+02  0.54626182371E+02  0.41800000000E+01 0. -1.
         -5    1    1    2    0  502 -0.48272904704E+02  0.20909142911E+02 -0.78569137509E+02  0.94646961677E+02  0.41800000000E+01 0. -1.
        -11    1    1    2    0    0  0.11717361125E+02 -0.29649216634E+02  0.36305095403E+02  0.48315965798E+02  0.00000000000E+00 0.  1.
         11    1    1    2    0    0  0.15966971608E+02 -0.30616809541E+02 -0.58092654441E+02  0.67580246440E+02  0.00000000000E+00 0. -1.
</event>
<event>
 7    1  0.2412631E-010  0.9116572E+02  0.7561462E-02  0.1300053E+00
         -2   -1    0    0    0  501 -0.00000000000E+00  0.00000000000E+00  0.78482327529E+02  0.78482327529E+02  0.00000000000E+00 0.  1.
          2   -1    0    0  501    0  0.00000000000E+00 -0.00000000000E+00 -0.17658354398E+03  0.17658354398E+03  0.00000000000E+00 0. -1.
         25    2    1    2    0    0  0.12469716132E+02 -0.10839655518E+02  0.75717690940E+01  0.12637408207E+03  0.12506032537E+03 0.  0.
          5    1    3    3  502    0 -0.29686325505E+01 -0.58473466725E+02 -0.27777121795E+02  0.64938432266E+02  0.41800000000E+01 0.  1.
         -5    1    3    3    0  502  0.15438348682E+02  0.47633811207E+02  0.35348890889E+02  0.61435649807E+02  0.41800000000E+01 0.  1.
        -11    1    1    2    0    0  0.22332454008E+02 -0.17606179747E+02 -0.38374008448E+02  0.47762753183E+02  0.00000000000E+00 0. -1.
         11    1    1    2    0    0 -0.34802170140E+02  0.28445835265E+02 -0.67298977096E+02  0.80929036251E+02  0.00000000000E+00 0.  1.
</event>
<event>
 7    1  0.2412631E-010  0.1709221E+03  0.7561462E-02  0.1176890E+00
         -1   -1    0    0    0  501 -0.00000000000E+00  0.00000000000E+00  0.71331047216E+03  0.71331047216E+03  0.00000000000E+00 0.  1.
          1   -1    0    0  501    0  0.00000000000E+00 -0.00000000000E+00 -0.49662040693E+02  0.49662040693E+02  0.00000000000E+00 0. -1.
         25    2    1    2    0    0 -0.27077987121E+02  0.14650065252E+03  0.42684733238E+03  0.46907214857E+03  0.12503750170E+03 0.  0.
          5    1    3    3  502    0 -0.53923892787E+02  0.10863546347E+03  0.17506705037E+03  0.21301501042E+03  0.41800000000E+01 0.  1.
         -5    1    3    3    0  502  0.26845905666E+02  0.37865189048E+02  0.25178028200E+03  0.25605713815E+03  0.41800000000E+01 0.  1.
        -11    1    1    2    0    0 -0.64647318515E+01  0.11050882619E+02  0.21262893208E+02  0.24819858826E+02  0.00000000000E+00 0.  1.
         11    1    1    2    0    0  0.33542718972E+02 -0.15755153514E+03  0.21553820588E+03  0.26908050545E+03  0.00000000000E+00 0. -1.
</event>
<event>
 6    1  0.2412631E-010  0.1140611E+03  0.7561462E-02  0.1253229E+00
          1   -1    0    0  501    0  0.00000000000E+00  0.00000000000E+00  0.19081091762E+03  0.19081091762E+03  0.00000000000E+00 0. -1.
         -1   -1    0    0    0  501 -0.00000000000E+00 -0.00000000000E+00 -0.84837605242E+02  0.84837605242E+02  0.00000000000E+00 0.  1.
          5    1    1    2  502    0  0.23608367945E+02 -0.25895141149E+02 -0.12886696633E+02  0.37569305587E+02  0.41800000000E+01 0. -1.
         -5    1    1    2    0  502 -0.77588518255E+02  0.21292328964E+02  0.83490515983E+02  0.11602361870E+03  0.41800000000E+01 0. -1.
        -11    1    1    2    0    0  0.28023227515E+02 -0.46876133684E+02  0.34106717990E+02  0.64388985095E+02  0.00000000000E+00 0. -1.
         11    1    1    2    0    0  0.25956922795E+02  0.51478945870E+02  0.12627750353E+01  0.57666613475E+02  0.00000000000E+00 0.  1.
</event>
<event>
 6    1  0.2412631E-010  0.1498216E+03  0.7561462E-02  0.1200692E+00
          1   -1    0    0  501    0  0.00000000000E+00  0.00000000000E+00  0.16976263846E+03  0.16976263846E+03  0.00000000000E+00 0. -1.
         -1   -1    0    0    0  501 -0.00000000000E+00 -0.00000000000E+00 -0.23059646021E+03  0.23059646021E+03  0.00000000000E+00 0.  1.
          5    1    1    2  502    0 -0.15648316822E+02  0.13035288002E+03 -0.13226206369E+03  0.18640673014E+03  0.41800000000E+01 0.  1.
         -5    1    1    2    0  502  0.15415503354E-01  0.17895910101E+02  0.28564220639E+02  0.33965437384E+02  0.41800000000E+01 0.  1.
        -11    1    1    2    0    0  0.13007951706E+01 -0.86895532771E+02 -0.21910234271E+02  0.89624684375E+02  0.00000000000E+00 0.  1.
         11    1    1    2    0    0  0.14332106148E+02 -0.61353257354E+02  0.64774255583E+02  0.90362246768E+02  0.00000000000E+00 0. -1.
</event>
<event>
 7    1  0.2412631E-010  0.1414354E+03  0.7561462E-02  0.1211410E+00
         -2   -1    0    0    0  501 -0.00000000000E+00  0.00000000000E+00  0.77333643004E+02  0.77333643004E+02  0.00000000000E+00 0. -1.
          2   -1    0    0  501    0  0.00000000000E+00 -0.00000000000E+00 -0.28123155343E+03  0.28123155343E+03  0.00000000000E+00 0.  1.
         25    2    1    2    0    0  0.89236050606E+02 -0.33774585078E+02 -0.14307865559E+03  0.21267117976E+03  0.12511488198E+03 0.  0.
          5    1    3    3  502    0 -0.23246692137E+02 -0.36776148284E+02 -0.51381185410E+02  0.67456596357E+02  0.41800000000E+01 0. -1.
         -5    1    3    3    0  502  0.11248274274E+03  0.30015632063E+01 -0.91697470180E+02  0.14521458341E+03  0.41800000000E+01 0. -1.
        -11    1    1    2    0    0 -0.80505262877E+02 -0.10723414495E+02 -0.59229440491E+02  0.10051972737E+03  0.00000000000E+00 0. -1.
         11    1    1    2    0    0 -0.87307877289E+01  0.44497999573E+02 -0.15898143508E+01  0.45374289306E+02  0.00000000000E+00 0.  1.
</event>
<event>
 7    1  0.2412631E-010  0.8762105E+02  0.7561462E-02  0.1308717E+00
          1   -1    0    0  501    0  0.00000000000E+00  0.00000000000E+00  0.31467975947E+03  0.31467975947E+03  0.00000000000E+00 0. -1.
         -1   -1    0    0    0  501 -0.00000000000E+00 -0.00000000000E+00 -0.56935625251E+02  0.56935625251E+02  0.00000000000E+00 0.  1.
         25    2    1    2    0    0  0.56464588026E+01 -0.65072892223E+02  0.20319326266E+03  0.24736459776E+03  0.12504150685E+03 0.  0.
          5    1    3    3  502    0  0.85744981241E+00 -0.11222236309E+02 -0.16877324465E+02  0.20712080752E+02  0.41800000000E+01 0.  1.
         -5    1    3    3    0  502  0.47890089902E+01 -0.53850655914E+02  0.22007058713E+03  0.22665251701E+03  0.41800000000E+01 0.  1.
        -11    1    1    2    0    0 -0.28618513400E+02 -0.10145301101E+02  0.36825329639E+01  0.30586066970E+02  0.00000000000E+00 0.  1.
         11    1    1    2    0    0  0.22972054597E+02  0.75218193324E+02  0.50868338598E+02  0.93664719991E+02  0.00000000000E+00 0. -1.
</event>
<event>
 6    1  0.2412631E-010  0.1007488E+03  0.7561462E-02  0.1278729E+00
          1   -1    0    0  501    0  0.00000000000E+00  0.00000000000E+00  0.46534348047E+02  0.46534348047E+02  0.00000000000E+00 0. -1.
         -1   -1    0    0    0  501 -0.00000000000E+00 -0.00000000000E+00 -0.33761117066E+03  0.33761117066E+03  0.00000000000E+00 0.  1.
          5    1    1    2  502    0  0.53666460251E+01  0.26297538470E+02 -0.89319032826E+02  0.93358038990E+02  0.41800000000E+01 0.  1.
         -5    1    1    2    0  502 -0.25692238170E+02 -0.77268200157E+02 -0.26372136870E+02  0.85693802930E+02  0.41800000000E+01 0.  1.
        -11    1    1    2    0    0  0.48773566289E+02  0.28029907812E+02 -0.52709441396E+02  0.77089699135E+02  0.00000000000E+00 0. -1.
         11    1    1    2    0    0 -0.28447974144E+02  0.22940753875E+02 -0.12267621152E+03  0.12800397765E+03  0.00000000000E+00 0.  1.
</event>
<event>
 7    1  0.5337073E-010  0.9241546E+02  0.7561462E-02  0.1297106E+00
          2   -1    0    0  501    0  0.00000000000E+00  0.00000000000E+00  0.73154747048E+03  0.73154747048E+03  0.00000000000E+00 0. -1.
         -2   -1    0    0    0  501 -0.00000000000E+00 -0.00000000000E+00 -0.20199236670E+02  0.20199236670E+02  0.00000000000E+00 0.  1.
         25    2    1    2    0    0  0.45375558511E+02 -0.24113999423E+02  0.46257006030E+03  0.48192713971E+03  0.12506910496E+03 0.  0.
          5    1    3    3  502    0  0.64824674509E+02 -0.31273220983E+02  0.45303241326E+03  0.45873313881E+03  0.41800000000E+01 0. -1.
         -5    1    3    3    0  502 -0.19449115997E+02  0.71592215593E+01  0.95376470399E+01  0.23194000894E+02  0.41800000000E+01 0. -1.
        -11    1    1    2    0    0 -0.44793066912E+02 -0.18869969481E+02  0.19502707260E+03  0.20099267061E+03  0.00000000000E+00 0. -1.
         11    1    1    2    0    0 -0.58249159899E+00  0.42983968905E+02  0.53751100899E+02  0.68826896829E+02  0.00000000000E+00 0.  1.
</event>
<event>
 7    1  0.2412631E-010  0.8298294E+02  0.7561462E-02  0.1320793E+00
         -2   -1    0    0    0  501 -0.00000000000E+00  0.00000000000E+00  0.18893813823E+03  0.18893813823E+03  0.00000000000E+00 0.  1.
          2   -1    0    0  501    0  0.00000000000E+00 -0.00000000000E+00 -0.76971189932E+02  0.76971189932E+02  0.00000000000E+00 0. -1.
         25    2    1    2    0    0 -0.51558861087E+02 -0.73415177014E+00  0.56549779496E+02  0.14660481901E+03  0.12504495296E+03 0.  0.
          5    1    3    3  502    0  0.29848662931E+02 -0.69986719531E+01  0.56990624537E+02  0.64848498618E+02  0.41800000000E+01 0. -1.
         -5    1    3    3    0  502 -0.81407524018E+02  0.62645201830E+01 -0.44084504057E+00  0.81756320393E+02  0.41800000000E+01 0. -1.
        -11    1    1    2    0    0  0.19166543021E+02 -0.61968065261E+01  0.77116891380E+02  0.79704276664E+02  0.00000000000E+00 0.  1.
         11    1    1    2    0    0  0.32392318066E+02  0.69309582962E+01 -0.21699722582E+02  0.39600232483E+02  0.00000000000E+00 0. -1.
</event>
<event>
 7    1  0.2412631E-010  0.1954081E+03  0.7561462E-02  0.1153672E+00
          2   -1    0    0  501    0  0.00000000000E+00  0.00000000000E+00  0.98547155657E+02  0.98547155657E+02  0.00000000000E+00 0. -1.
         -2   -1    0    0    0  501 -0.00000000000E+00 -0.00000000000E+00 -0.45333242609E+03  0.45333242609E+03  0.00000000000E+00 0.  1.
         25    2    1    2    0    0  0.12655955711E+02 -0.18006550218E+03 -0.19956527143E+03  0.29673078690E+03  0.12505640345E+03 0.  0.
          5    1    3    3  502    0  0.51542774780E+02 -0.42866702033E+02 -0.10808448786E+03  0.12725541518E+03  0.41800000000E+01 0.  1.
         -5    1    3    3    0  502 -0.38886819069E+02 -0.13719880015E+03 -0.91480783572E+02  0.16947537173E+03  0.41800000000E+01 0.  1.
        -11    1    1    2    0    0 -0.13738928796E+02  0.10332185738E+03 -0.14372473680E+03  0.17754144402E+03  0.00000000000E+00 0.  1.
         11    1    1    2    0    0  0.10829730845E+01  0.76743644801E+02 -0.11495262192E+02  0.77607350818E+02  0.00000000000E+00 0. -1.
</event>
<event>
 7    1  0.2412631E-010  0.1343062E+03  0.7561462E-02  0.1221202E+00
         -3   -1    0    0    0  501 -0.00000000000E+00  0.00000000000E+00  0.89018384317E+02  0.89018384317E+02  0.00000000000E+00 0.  1.
          3   -1    0    0  501    0  0.00000000000E+00 -0.00000000000E+00 -0.26856633259E+03  0.26856633259E+03  0.00000000000E+00 0. -1.
         25    2    1    2    0    0  0.38296204140E+02  0.75404979805E+02 -0.17958642113E+03  0.23461896700E+03  0.12506904811E+03 0.  0.
          5    1    3    3  502    0  0.78412631066E+02  0.77393567946E+02 -0.12424206043E+03  0.16610799815E+03  0.41800000000E+01 0. -1.
         -5    1    3    3    0  502 -0.40116426926E+02 -0.19885881415E+01 -0.55344360697E+02  0.68510968852E+02  0.41800000000E+01 0. -1.
        -11    1    1    2    0    0  0.13281999601E+02 -0.63722273798E+02 -0.17229049842E+02  0.67333348720E+02  0.00000000000E+00 0.  1.
         11    1    1    2    0    0 -0.51578203741E+02 -0.11682706007E+02  0.17267522699E+02  0.55632401179E+02  0.00000000000E+00 0. -1.
</event>
<event>
 6    1  0.2412631E-010  0.1831259E+03  0.7561462E-02  0.1164812E+00
         -2   -1    0    0    0  501 -0.00000000000E+00  0.00000000000E+00  0.26627741876E+03  0.26627741876E+03  0.00000000000E+00 0. -1.
          2   -1    0    0  501    0  0.00000000000E+00 -0.00000000000E+00 -0.25360615568E+03  0.25360615568E+03  0.00000000000E+00 0.  1.
          5    1    1    2  502    0  0.67397807065E+02 -0.45290064123E+02  0.56027154803E+02  0.98742942942E+02  0.41800000000E+01 0. -1.
         -5    1    1    2    0  502  0.41146844774E+02 -0.90676486607E+02 -0.58374430005E+02  0.11550036596E+03  0.41800000000E+01 0. -1.
        -11    1    1    2    0    0 -0.58974267611E+02  0.11912983032E+03  0.12585903544E+03  0.18305839919E+03  0.00000000000E+00 0. -1.
         11    1    1    2    0    0 -0.49570384228E+02  0.16836720411E+02 -0.11084049716E+03  0.12258186635E+03  0.00000000000E+00 0.  1.
</event>
<event>
 7    1  0.2412631E-010  0.1646735E+03  0.7561462E-02  0.1183519E+00
          2   -1    0    0  501    0  0.00000000000E+00  0.00000000000E+00  0.51178275126E+03  0.51178275126E+03  0.00000000000E+00 0. -1.
         -2   -1    0    0    0  501 -0.00000000000E+00 -0.00000000000E+00 -0.54674613238E+02  0.54674613238E+02  0.00000000000E+00 0.  1.
         25    2    1    2    0    0  0.10164462800E+03  0.75084589613E+02  0.25301735135E+03  0.30925959891E+03  0.12511751849E+03 0.  0.
          5    1    3    3  502    0  0.11816944996E+03  0.21510106574E+02  0.18988210107E+03  0.22472068951E+03  0.41800000000E+01 0.  1.
         -5    1    3    3    0  502 -0.16524821961E+02  0.53574483039E+02  0.63135250283E+02  0.84538909397E+02  0.41800000000E+01 0.  1.
        -11    1    1    2    0    0  0.15796203325E+02 -0.93694199466E+01  0.46315536384E+02  0.49824040183E+02  0.00000000000E+00 0. -1.
         11    1    1    2    0    0 -0.11744083132E+03 -0.65715169667E+02  0.15777525029E+03  0.20737372541E+03  0.00000000000E+00 0.  1.
</event>
<event>
 7    1  0.2412631E-010  0.9335512E+02  0.7561462E-02  0.1294924E+00
          2   -1    0    0  501    0  0.00000000000E+00  0.00000000000E+00  0.12876818353E+04  0.12876818353E+04  0.00000000000E+00 0.  1.
         -2   -1    0    0    0  501 -0.00000000000E+00 -0.00000000000E+00 -0.23119549811E+02  0.23119549811E+02  0.00000000000E+00 0. -1.
         25    2    1    2    0    0 -0.55108137705E+02  0.26099119067E+02  0.11245671168E+04  0.11331404946E+04  0.12505242705E+03 0.  0.
          5    1    3    3  502    0  0.16412972383E+02  0.17969537228E+02  0.81157903418E+03  0.81195461145E+03  0.41800000000E+01 0. -1.
         -5    1    3    3    0  502 -0.71521110088E+02  0.81295818382E+01  0.31298808258E+03  0.32118588314E+03  0.41800000000E+01 0. -1.
        -11    1    1    2    0    0  0.21068215042E+02  0.22341912864E+02  0.10384792619E+03  0.10829322476E+03  0.00000000000E+00 0.  1.
         11    1    1    2    0    0  0.34039922662E+02 -0.48441031931E+02  0.36147242523E+02  0.69367665749E+02  0.00000000000E+00 0. -1.
</event>
<event>
 7    1  0.2412631E-010  0.9080212E+02  0.7561462E-02  0.1300921E+00
          1   -1    0    0  501    0  0.00000000000E+00  0.00000000000E+00  0.41956508194E+03  0.41956508194E+03  0.00000000000E+00 0. -1.
         -1   -1    0    0    0  501 -0.00000000000E+00 -0.00000000000E+00 -0.37044863782E+02  0.37044863782E+02  0.00000000000E+00 0.  1.
         25    2    1    2    0    0  0.40457269800E+02  0.38909063403E+02  0.26223654610E+03  0.29593464800E+03  0.12513434334E+03 0.  0.
          5    1    3    3  502    0 -0.33891012840E+02  0.36405242650E+02  0.17102331157E+03  0.17815832269E+03  0.41800000000E+01 0. -1.
         -5    1    3    3    0  502  0.74348282641E+02  0.25038207525E+01  0.91213234526E+02  0.11777632531E+03  0.41800000000E+01 0. -1.
        -11    1    1    2    0    0 -0.19393084047E+02 -0.26146375376E+02 -0.50516528372E+01  0.32943039486E+02  0.00000000000E+00 0.  1.
         11    1    1    2    0    0 -0.21064185753E+02 -0.12762688027E+02  0.12533532490E+03  0.12773225824E+03  0.00000000000E+00 0. -1.
</event>
<event>
 7    1  0.2412631E-010  0.1618266E+03  0.7561462E-02  0.1186650E+00
          2   -1    0    0  501    0  0.00000000000E+00  0.00000000000E+00  0.15637542379E+03  0.15637542379E+03  0.00000000000E+00 0. -1.
         -2   -1    0    0    0  501 -0.00000000000E+00 -0.00000000000E+00 -0.32304097550E+03  0.32304097550E+03  0.00000000000E+00 0.  1.
         25    2    1    2    0    0 -0.67423258243E+02  0.13911493481E+03  0.43061365252E+02  0.20349403119E+03  0.12512665069E+03 0.  0.
          5    1    3    3  502    0 -0.30949300733E+02  0.34510506009E+02 -0.42832249909E+02  0.63252733325E+02  0.41800000000E+01 0.  1.
         -5    1    3    3    0  502 -0.36473957510E+02  0.10460442880E+03  0.85893615161E+02  0.14024129786E+03  0.41800000000E+01 0.  1.
        -11    1    1    2    0    0  0.79153989991E+02 -0.11787182357E+03 -0.20767204317E+03  0.25156867539E+03  0.00000000000E+00 0. -1.
         11    1    1    2    0    0 -0.11730731748E+02 -0.21243111235E+02 -0.20548737926E+01  0.24353692710E+02  0.00000000000E+00 0.  1.
</event>
<event>
 7    1  0.2412631E-010  0.1129230E+03  0.7561462E-02  0.1255251E+00
         -1   -1    0    0    0  501 -0.00000000000E+00  0.00000000000E+00  0.35326941260E+02  0.35326941260E+02  0.00000000000E+00 0.  1.
          1   -1    0    0  501    0  0.00000000000E+00 -0.00000000000E+00 -0.37800581656E+03  0.37800581656E+03  0.00000000000E+00 0. -1.
         25    2    1    2    0    0 -0.28668727982E+02 -0.12284039462E+02 -0.15431958342E+03  0.20106997447E+03  0.12506721080E+03 0.  0.
          5    1    3    3  502    0  0.49977627567E+01 -0.65154508075E+02 -0.88427701831E+02  0.11003189722E+03  0.41800000000E+01 0. -1.
         -5    1    3    3    0  502 -0.33666490739E+02  0.52870468613E+02 -0.65891881593E+02  0.91038077253E+02  0.41800000000E+01 0. -1.
        -11    1    1    2    0    0 -0.20448266664E+02  0.37217263599E+02 -0.73696083053E+02  0.85055093773E+02  0.00000000000E+00 0.  1.
         11    1    1    2    0    0  0.49116994646E+02 -0.24933224136E+02 -0.11466320882E+03  0.12720768957E+03  0.00000000000E+00 0. -1.
</event>
<event>
 7    1  0.2412631E-010  0.1524650E+03  0.7561462E-02  0.1197476E+00
         -2   -1    0    0    0  501 -0.00000000000E+00  0.00000000000E+00  0.67228453806E+02  0.67228453806E+02  0.00000000000E+00 0.  1.
          2   -1    0    0  501    0  0.00000000000E+00 -0.00000000000E+00 -0.43771552861E+03  0.43771552861E+03  0.00000000000E+00 0. -1.
         25    2    1    2    0    0 -0.42624682765E+02  0.11132712106E+03 -0.27889076186E+03  0.32809163709E+03  0.12511384342E+03 0.  0.
          5    1    3    3  502    0 -0.22035067619E+02 -0.18263458173E+02 -0.11243056561E+03  0.11609135452E+03  0.41800000000E+01 0. -1.
         -5    1    3    3    0  502 -0.20589615147E+02  0.12959057923E+03 -0.16646019625E+03  0.21200028257E+03  0.41800000000E+01 0. -1.
        -11    1    1    2    0    0 -0.17847019077E+02  0.21034840177E+00  0.36329541363E+01  0.18214244210E+02  0.00000000000E+00 0.  1.
         11    1    1    2    0    0  0.60471701843E+02 -0.11153746946E+03 -0.95229267080E+02  0.15863810111E+03  0.00000000000E+00 0. -1.
</event>
<event>
 7    1  0.2412631E-010  0.1048450E+03  0.7561462E-02  0.1270425E+00
         -3   -1    0    0    0  501 -0.00000000000E+00  0.00000000000E+00  0.16393651857E+03  0.16393651857E+03  0.00000000000E+00 0.  1.
          3   -1    0    0  501    0  0.00000000000E+00 -0.00000000000E+00 -0.98019336407E+02  0.98019336407E+02  0.00000000000E+00 0. -1.
         25    2    1    2    0    0 -0.68824559904E+02 -0.21505786996E+01  0.63690994657E+02  0.15639420143E+03  0.12514455004E+03 0.  0.
          5    1    3    3  502    0  0.28291416197E+02 -0.27830122154E+02  0.56495842369E+01  0.40302731069E+02  0.41800000000E+01 0. -1.
         -5    1    3    3    0  502 -0.97115976101E+02  0.25679543455E+02  0.58041410420E+02  0.11609147036E+03  0.41800000000E+01 0. -1.
        -11    1    1    2    0    0  0.17550419027E+02 -0.26367248070E+01  0.38619864014E+02  0.42502510775E+02  0.00000000000E+00 0.  1.
         11    1    1    2    0    0  0.51274140877E+02  0.47873035065E+01 -0.36393676509E+02  0.63059142774E+02  0.00000000000E+00 0. -1.
</event>
<event>
 7    1  0.2412631E-010  0.1244605E+03  0.7561462E-02  0.1235915E+00
         -3   -1    0    0    0  501 -0.00000000000E+00  0.00000000000E+00  0.26986985266E+03  0.26986985266E+03  0.00000000000E+00 0.  1.
          3   -1    0    0  501    0  0.00000000000E+00 -0.00000000000E+00 -0.63264653295E+02  0.63264653295E+02  0.00000000000E+00 0. -1.
         25    2    1    2    0    0 -0.38044552210E+02  0.57840324878E+02  0.92415708322E+02  0.17019512677E+03  0.12503130367E+03 0.  0.
          5    1    3    3  502    0 -0.66779938196E+02 -0.88347480934E+01  0.28086086089E+02  0.73102076244E+02  0.41800000000E+01 0. -1.
         -5    1    3    3    0  502  0.28735385986E+02  0.66675072971E+02  0.64329622233E+02  0.97093050525E+02  0.41800000000E+01 0. -1.
        -11    1    1    2    0    0  0.65039574241E+02 -0.40321470756E+02  0.10412545505E+03  0.12922104168E+03  0.00000000000E+00 0.  1.
         11    1    1    2    0    0 -0.26995022031E+02 -0.17518854122E+02  0.10064035992E+02  0.33718337514E+02  0.00000000000E+00 0. -1.
</event>
<event>
 6    1  0.2412631E-010  0.1324691E+03  0.7561462E-02  0.1223837E+00
          2   -1    0    0  501    0  0.00000000000E+00  0.00000000000E+00  0.73342786382E+03  0.73342786382E+03  0.00000000000E+00 0. -1.
         -2   -1    0    0    0  501 -0.00000000000E+00 -0.00000000000E+00 -0.33926823796E+02  0.33926823796E+02  0.00000000000E+00 0.  1.
          5    1    1    2  502    0  0.92883058579E+02  0.23215813195E+02  0.12285372343E+03  0.15580996859E+03  0.41800000000E+01 0. -1.
         -5    1    1    2    0  502 -0.29891383788E+02  0.54456026356E+02  0.11964002879E+03  0.13487091058E+03  0.41800000000E+01 0. -1.
        -11    1    1    2    0    0 -0.35225205883E+02 -0.14976581302E+02  0.45346784620E+02  0.59341755892E+02  0.00000000000E+00 0.  1.
         11    1    1    2    0    0 -0.27766468909E+02 -0.62695258249E+02  0.41166050319E+03  0.41733205255E+03  0.00000000000E+00 0. -1.
</event>
<event>
 7    1  0.2412631E-010  0.1008392E+03  0.7561462E-02  0.1278541E+00
          2   -1    0    0  501    0  0.00000000000E+00  0.00000000000E+00  0.21575353956E+02  0.21575353956E+02  0.00000000000E+00 0. -1.
         -2   -1    0    0    0  501 -0.00000000000E+00 -0.00000000000E+00 -0.57107455202E+03  0.57107455202E+03  0.00000000000E+00 0.  1.
         25    2    1    2    0    0  0.22419707423E+02 -0.15869708682E+02 -0.32141267163E+03  0.34597399898E+03  0.12504963633E+03 0.  0.
          5    1    3    3  502    0 -0.41819376094E+02 -0.24351350310E+01 -0.22727722042E+03  0.23114324005E+03  0.41800000000E+01 0.  1.
         -5    1    3    3    0  502  0.64239083517E+02 -0.13434573651E+02 -0.94135451211E+02  0.11483075892E+03  0.41800000000E+01 0.  1.
        -11    1    1    2    0    0  0.33645157631E+02 -0.49603437516E+01 -0.76621450112E+02  0.83829876890E+02  0.00000000000E+00 0.  1.
         11    1    1    2    0    0 -0.56064865053E+02  0.20830052434E+02 -0.15146507632E+03  0.16284603011E+03  0.00000000000E+00 0. -1.
</event>
<event>
 6    1  0.2412631E-010  0.1402360E+03  0.7561462E-02  0.1213012E+00
          2   -1    0    0  501    0  0.00000000000E+00  0.00000000000E+00  0.66021880089E+02  0.66021880089E+02  0.00000000000E+00 0. -1.
         -2   -1    0    0    0  501 -0.00000000000E+00 -0.00000000000E+00 -0.39370950056E+03  0.39370950056E+03  0.00000000000E+00 0.  1.
          5    1    1    2  502    0 -0.24999147055E+02  0.12035565356E+03 -0.10019449557E+03  0.15864063174E+03  0.41800000000E+01 0.  1.
         -5    1    1    2    0  502  0.58413510543E+01 -0.20730631031E+02  0.12408624479E+02  0.25205689964E+02  0.41800000000E+01 0.  1.
        -11    1    1    2    0    0 -0.12028876001E+02 -0.10342247273E+03 -0.19542480518E+03  0.22143115455E+03  0.00000000000E+00 0.  1.
         11    1    1    2    0    0  0.31186672001E+02  0.37974501997E+01 -0.44476944196E+02  0.54453904392E+02  0.00000000000E+00 0. -1.
</event>
<event>
 7    1  0.2412631E-010  0.9564373E+02  0.7561462E-02  0.1289733E+00
         -2   -1    0    0    0  501 -0.00000000000E+00  0.00000000000E+00  0.13112727983E+03  0.13112727983E+03  0.00000000000E+00 0.  1.
          2   -1    0    0  501    0  0.00000000000E+00 -0.00000000000E+00 -0.10816971683E+03  0.10816971683E+03  0.00000000000E+00 0. -1.
         25    2    1    2    0    0 -0.30478047947E+02  0.32245294416E+02 -0.53385516252E+01  0.13280588473E+03  0.12506091503E+03 0.  0.
          5    1    3    3  502    0 -0.41337998473E+02 -0.41076667449E+02 -0.88228058442E+00  0.58432641097E+02  0.41800000000E+01 0.  1.
         -5    1    3    3    0  502  0.10859950526E+02  0.73321961865E+02 -0.44562710408E+01  0.74373243635E+02  0.41800000000E+01 0.  1.
        -11    1    1    2    0    0 -0.49015266120E+01 -0.20900988396E+02  0.56111960280E+02  0.60078518337E+02  0.00000000000E+00 0.  1.
         11    1    1    2    0    0  0.35379574559E+02 -0.11344306020E+02 -0.27815845654E+02  0.46412593598E+02  0.00000000000E+00 0. -1.
</event>
<event>
 6    1  0.2412631E-010  0.1291916E+03  0.7561462E-02  0.1228660E+00
          2   -1    0    0  501    0  0.00000000000E+00  0.00000000000E+00  0.46093227037E+03  0.46093227037E+03  0.00000000000E+00 0. -1.
         -2   -1    0    0    0  501 -0.00000000000E+00 -0.00000000000E+00 -0.71602471315E+02  0.71602471315E+02  0.00000000000E+00 0.  1.
          5    1    1    2  502    0  0.44103587645E+02 -0.39978709600E+02 -0.22133603504E+02  0.63645836223E+02  0.41800000000E+01 0. -1.
         -5    1    1    2    0  502  0.67708411697E+02  0.30299611154E+02  0.91881641753E+02  0.11816177022E+03  0.41800000000E+01 0. -1.
        -11    1    1    2    0    0 -0.78033097020E+02  0.31552565575E+02  0.28657374293E+03  0.29867915689E+03  0.00000000000E+00 0. -1.
         11    1    1    2    0    0 -0.33778902322E+02 -0.21873467128E+02  0.33008017879E+02  0.52047978353E+02  0.00000000000E+00 0.  1.
</event>
<event>
 6    1  0.2412631E-010  0.1549902E+03  0.7561462E-02  0.1194472E+00
         -2   -1    0    0    0  501 -0.00000000000E+00  0.00000000000E+00  0.32844011296E+02  0.32844011296E+02  0.00000000000E+00 0. -1.
          2   -1    0    0  501    0  0.00000000000E+00 -0.00000000000E+00 -0.11261945488E+04  0.11261945488E+04  0.00000000000E+00 0.  1.
          5    1    1    2  502    0  0.90627992077E+02 -0.77561186265E+02 -0.26650355390E+03  0.29201162170E+03  0.41800000000E+01 0.  1.
         -5    1    1    2    0  502 -0.27552248958E+02 -0.32479192231E+02 -0.24968695763E+02  0.49547275593E+02  0.41800000000E+01 0.  1.
        -11    1    1    2    0    0  0.15544078980E+02  0.44281235114E+01 -0.26786775649E+02  0.31285108579E+02  0.00000000000E+00 0. -1.
         11    1    1    2    0    0 -0.78619822098E+02  0.10561225498E+03 -0.77509151215E+03  0.78619455419E+03  0.00000000000E+00 0.  1.
</event>
<event>
 7    1  0.3921522E-010  0.1299972E+03  0.7561462E-02  0.1227460E+00
         -2   -1    0    0    0  501 -0.00000000000E+00  0.00000000000E+00  0.25980712573E+02  0.25980712573E+02  0.00000000000E+00 0.  1.
          2   -1    0    0  501    0  0.00000000000E+00 -0.00000000000E+00 -0.95403807606E+03  0.95403807606E+03  0.00000000000E+00 0. -1.
         25    2    1    2    0    0 -0.66010965457E+02  0.83233993387E+02 -0.62161276341E+03  0.64290710995E+03  0.12506709868E+03 0.  0.
          5    1    3    3  502    0  0.49268678228E+01  0.49338045405E+02 -0.46463833649E+03  0.46729516677E+03  0.41800000000E+01 0. -1.
         -5    1    3    3    0  502 -0.70937833280E+02  0.33895947982E+02 -0.15697442692E+03  0.17561194318E+03  0.41800000000E+01 0. -1.
        -11    1    1    2    0    0  0.47263080745E+02 -0.11194000670E+01 -0.58285816072E+02  0.75048572360E+02  0.00000000000E+00 0.  1.
         11    1    1    2    0    0  0.18747884712E+02 -0.82114593320E+02 -0.24815878400E+03  0.26206310632E+03  0.00000000000E+00 0. -1.
</event>
<event>
 7    1  0.2412631E-010  0.1293375E+03  0.7561462E-02  0.1228442E+00
         -1   -1    0    0    0  501 -0.00000000000E+00  0.00000000000E+00  0.33290411767E+02  0.33290411767E+02  0.00000000000E+00 0.  1.
          1   -1    0    0  501    0  0.00000000000E+00 -0.00000000000E+00 -0.71303862555E+03  0.71303862555E+03  0.00000000000E+00 0. -1.
         25    2    1    2    0    0 -0.84250932659E+02  0.44884657605E+02 -0.49387392679E+03  0.51832268558E+03  0.12503638943E+03 0.  0.
          5    1    3    3  502    0 -0.15955827948E+02  0.62354903355E+02 -0.37130776898E+03  0.37686821851E+03  0.41800000000E+01 0. -1.
         -5    1    3    3    0  502 -0.68295104711E+02 -0.17470245750E+02 -0.12256615782E+03  0.14145446708E+03  0.41800000000E+01 0. -1.
        -11    1    1    2    0    0 -0.60499212838E+01  0.14342513049E+02 -0.60804726857E+02  0.62765627825E+02  0.00000000000E+00 0. -1.
         11    1    1    2    0    0  0.90300853942E+02 -0.59227170654E+02 -0.12506956014E+03  0.16524072391E+03  0.00000000000E+00 0.  1.
</event>
<event>
 6    1  0.2412631E-010  0.1537576E+03  0.7561462E-02  0.1195930E+00
         -1   -1    0    0    0  501 -0.00000000000E+00  0.00000000000E+00  0.25389946458E+02  0.25389946458E+02  0.00000000000E+00 0.  1.
          1   -1    0    0  501    0  0.00000000000E+00 -0.00000000000E+00 -0.11371340134E+04  0.11371340134E+04  0.00000000000E+00 0. -1.
          5    1    1    2  502    0  0.52630066970E+02  0.76650229462E+02 -0.17136244899E+03  0.19500703308E+03  0.41800000000E+01 0.  1.
         -5    1    1    2    0  502  0.57525375681E+02 -0.94883928945E+01 -0.38881271371E+03  0.39318188817E+03  0.41800000000E+01 0.  1.
        -11    1    1    2    0    0 -0.82845231835E+02  0.68971148908E+00 -0.35662066403E+03  0.36611761246E+03  0.00000000000E+00 0. -1.
         11    1    1    2    0    0 -0.27310210815E+02 -0.67851548057E+02 -0.19494824018E+03  0.20821742612E+03  0.00000000000E+00 0.  1.
</event>
<event>
 6    1  0.2412631E-010  0.1434991E+03  0.7561462E-02  0.1208697E+00
          1   -1    0    0  501    0  0.00000000000E+00  0.00000000000E+00  0.94645864709E+03  0.94645864709E+03  0.00000000000E+00 0. -1.
         -1   -1    0    0    0  501 -0.00000000000E+00 -0.00000000000E+00 -0.23558846657E+02  0.23558846657E+02  0.00000000000E+00 0.  1.
          5    1    1    2  502    0  0.45839201352E+02  0.26855073621E+02  0.14057469557E+03  0.15033677126E+03  0.41800000000E+01 0. -1.
         -5    1    1    2    0  502 -0.15465137374E+01 -0.10866910600E+03  0.41993969813E+03  0.43379509999E+03  0.41800000000E+01 0. -1.
        -11    1    1    2    0    0 -0.65741745379E+02  0.37426322971E+02  0.15178096815E+03  0.16958823376E+03  0.00000000000E+00 0.  1.
         11    1    1    2    0    0  0.21449057765E+02  0.44387709408E+02  0.21060443858E+03  0.21629738874E+03  0.00000000000E+00 0. -1.
</event>
<event>
 7    1  0.2412631E-010  0.1029868E+03  0.7561462E-02  0.1274138E+00
          1   -1    0    0  501    0  0.00000000000E+00  0.00000000000E+00  0.76026632517E+03  0.76026632517E+03  0.00000000000E+00 0. -1.
         -1   -1    0    0    0  501 -0.00000000000E+00 -0.00000000000E+00 -0.23547725456E+02  0.23547725456E+02  0.00000000000E+00 0.  1.
         25    2    1    2    0    0  0.43319444612E+02 -0.34675907712E+02  0.55555862442E+03  0.57215973718E+03  0.12506952797E+03 0.  0.
          5    1    3    3  502    0  0.58570748669E+02 -0.55138670578E+02  0.52897289303E+03  0.53507064912E+03  0.41800000000E+01 0.  1.
         -5    1    3    3    0  502 -0.15251304057E+02  0.20462762866E+02  0.26585731397E+02  0.37089088065E+02  0.41800000000E+01 0.  1.
        -11    1    1    2    0    0 -0.34285247189E+02  0.61964650840E+02  0.16282694213E+03  0.17756043820E+03  0.00000000000E+00 0. -1.
         11    1    1    2    0    0 -0.90341974229E+01 -0.27288743128E+02  0.18333033164E+02  0.34093875250E+02  0.00000000000E+00 0.  1.
</event>
<event>
 7    1  0.2412631E-010  0.1145123E+03  0.7561462E-02  0.1252435E+00
         -1   -1    0    0    0  501 -0.00000000000E+00  0.00000000000E+00  0.51212822192E+03  0.51212822192E+03  0.00000000000E+00 0.  1.
          1   -1    0    0  501    0  0.00000000000E+00 -0.00000000000E+00 -0.30473990199E+02  0.30473990199E+02  0.00000000000E+00 0. -1.
         25    2    1    2    0    0  0.17960406441E+02  0.57306119761E+02  0.26005114209E+03  0.29476583711E+03  0.12511488586E+03 0.  0.
          5    1    3    3  502    0  0.60182656497E+02  0.28116254456E+02  0.65005876414E+02  0.93036080507E+02  0.41800000000E+01 0. -1.
         -5    1    3    3    0  502 -0.42222250056E+02  0.29189865305E+02  0.19504526568E+03  0.20172975661E+03  0.41800000000E+01 0. -1.
        -11    1    1    2    0    0 -0.28976629338E+02  0.18490626758E+02  0.69834473504E+02  0.77835737392E+02  0.00000000000E+00 0. -1.
         11    1    1    2    0    0  0.11016222896E+02 -0.75796746519E+02  0.15176861612E+03  0.17000063762E+03  0.00000000000E+00 0.  1.
</event>
<event>
 6    1  0.2412631E-010  0.1829147E+03  0.7561462E-02  0.1165012E+00
         -1   -1    0    0    0  501 -0.00000000000E+00  0.00000000000E+00  0.12198014908E+03  0.12198014908E+03  0.00000000000E+00 0.  1.
          1   -1    0    0  501    0  0.00000000000E+00 -0.00000000000E+00 -0.45954732571E+03  0.45954732571E+03  0.00000000000E+00 0. -1.
          5    1    1    2  502    0 -0.40346010514E+02  0.21406497301E+02 -0.21705042957E+03  0.22184318801E+03  0.41800000000E+01 0. -1.
         -5    1    1    2    0  502 -0.12077497075E+03  0.35423172671E+02 -0.10685999596E+03  0.16516030352E+03  0.41800000000E+01 0. -1.
        -11    1    1    2    0    0  0.66908849480E+02  0.22789652433E+02 -0.39918640111E+01  0.70796167799E+02  0.00000000000E+00 0.  1.
         11    1    1    2    0    0  0.94212131789E+02 -0.79619322406E+02 -0.96648870930E+01  0.12372781546E+03  0.00000000000E+00 0. -1.
</event>
<event>
 7    1  0.2412631E-010  0.2703455E+03  0.7561462E-02  0.1101082E+00
          1   -1    0    0  501    0  0.00000000000E+00  0.00000000000E+00  0.18216807105E+04  0.18216807105E+04  0.00000000000E+00 0. -1.
         -1   -1    0    0    0  501 -0.00000000000E+00 -0.00000000000E+00 -0.47715685873E+02  0.47715685873E+02  0.00000000000E+00 0.  1.
         25    2    1    2    0    0 -0.26387520511E+03 -0.42744671830E+02  0.71720506784E+03  0.77555302815E+03  0.12506861837E+03 0.  0.
          5    1    3    3  502    0 -0.35974677802E+02 -0.16828531788E+00  0.21263891144E+02  0.41997990779E+02  0.41800000000E+01 0. -1.
         -5    1    3    3    0  502 -0.22790052731E+03 -0.42576386512E+02  0.69594117669E+03  0.73355503737E+03  0.41800000000E+01 0. -1.
        -11    1    1    2    0    0  0.13062739025E+03  0.48192245339E+02  0.39611460098E+03  0.41987234334E+03  0.00000000000E+00 0.  1.
         11    1    1    2    0    0  0.13324781487E+03 -0.54475735095E+01  0.66064535581E+03  0.67397102488E+03  0.00000000000E+00 0. -1.
</event>
<event>
 6    1  0.2412631E-010  0.1261886E+03  0.7561462E-02  0.1233223E+00
         -2   -1    0    0    0  501 -0.00000000000E+00  0.00000000000E+00  0.39115426809E+02  0.39115426809E+02  0.00000000000E+00 0.  1.
          2   -1    0    0  501    0  0.00000000000E+00 -0.00000000000E+00 -0.47520127898E+03  0.47520127898E+03  0.00000000000E+00 0. -1.
          5    1    1    2  502    0  0.10448279568E+03  0.31910726675E+02 -0.16283479678E+03  0.19613156940E+03  0.41800000000E+01 0. -1.
         -5    1    1    2    0  502 -0.27022912528E+02 -0.15614603516E+02 -0.11260249611E+03  0.11692240236E+03  0.41800000000E+01 0. -1.
        -11    1    1    2    0    0 -0.92280722198E+02 -0.41069045282E+01 -0.93531089253E+02  0.13145593562E+03  0.00000000000E+00 0.  1.
         11    1    1    2    0    0  0.14820839042E+02 -0.12189218631E+02 -0.67117470028E+02  0.69806798406E+02  0.00000000000E+00 0. -1.
</event>
<event>
 7    1  0.2412631E-010  0.1025476E+03  0.7561462E-02  0.1275028E+00
          1   -1    0    0  501    0  0.00000000000E+00  0.00000000000E+00  0.29291135300E+03  0.29291135300E+03  0.00000000000E+00 0. -1.
         -1   -1    0    0    0  501 -0.00000000000E+00 -0.00000000000E+00 -0.43865795271E+02  0.43865795271E+02  0.00000000000E+00 0.  1.
         25    2    1    2    0    0 -0.10036765113E+02 -0.24268683133E+02  0.18776431574E+03  0.22715828791E+03  0.12512291502E+03 0.  0.
          5    1    3    3  502    0  0.20973907848E+02 -0.63015942494E+02  0.15174065519E+03  0.16569131739E+03  0.41800000000E+01 0.  1.
         -5    1    3    3    0  502 -0.31010672960E+02  0.38747259361E+02  0.36023660548E+02  0.61466970518E+02  0.41800000000E+01 0.  1.
        -11    1    1    2    0    0 -0.18524843237E+02 -0.25406930469E+02  0.10781175541E+02  0.33240271944E+02  0.00000000000E+00 0.  1.
         11    1    1    2    0    0  0.28561608350E+02  0.49675613602E+02  0.50500066447E+02  0.76378588423E+02  0.00000000000E+00 0. -1.
</event>
<event>
 7    1  0.2412631E-010  0.1013747E+03  0.7561462E-02  0.1277432E+00
          2   -1    0    0  501    0  0.00000000000E+00  0.00000000000E+00  0.16585244137E+03  0.16585244137E+03  0.00000000000E+00 0.  1.
         -2   -1    0    0    0  501 -0.00000000000E+00 -0.00000000000E+00 -0.71674459513E+02  0.71674459513E+02  0.00000000000E+00 0. -1.
         25    2    1    2    0    0 -0.44229936904E+01  0.18408746970E+01  0.54973020068E+02  0.13675892458E+03  0.12513200560E+03 0.  0.
          5    1    3    3  502    0 -0.51169572799E+02 -0.23909403546E+02 -0.44127307707E+01  0.56806067908E+02  0.41800000000E+01 0.  1.
         -5    1    3    3    0  502  0.46746579109E+02  0.25750278243E+02  0.59385750839E+02  0.79952856676E+02  0.41800000000E+01 0.  1.
        -11    1    1    2    0    0 -0.41626857088E+02  0.13946299332E+02  0.14928813556E+02  0.46369860581E+02  0.00000000000E+00 0.  1.
         11    1    1    2    0    0  0.46049850778E+02 -0.15787174029E+02  0.24276148231E+02  0.54398115716E+02  0.00000000000E+00 0. -1.
</event>
<event>
 6    1  0.2412631E-010  0.8421062E+02  0.7561462E-02  0.1317510E+00
          1   -1    0    0  501    0  0.00000000000E+00  0.00000000000E+00  0.35158786206E+02  0.35158786206E+02  0.00000000000E+00 0. -1.
         -1   -1    0    0    0  501 -0.00000000000E+00 -0.00000000000E+00 -0.35812607445E+03  0.35812607445E+03  0.00000000000E+00 0.  1.
          5    1    1    2  502    0 -0.38759373733E+02  0.28750856646E+02 -0.18725117975E+03  0.19341503956E+03  0.41800000000E+01 0.  1.
         -5    1    1    2    0  502  0.24249132097E+02 -0.42981958658E+02 -0.29232674771E+02  0.57510789003E+02  0.41800000000E+01 0.  1.
        -11    1    1    2    0    0  0.61266865394E+01  0.41487840466E+02 -0.11934006217E+02  0.43602725819E+02  0.00000000000E+00 0. -1.
         11    1    1    2    0    0  0.83835550967E+01 -0.27256738454E+02 -0.94549427510E+02  0.98756306278E+02  0.00000000000E+00 0.  1.
</event>
<event>
 7    1  0.2412631E-010  0.1066756E+03  0.7561462E-02  0.1266853E+00
         -1   -1    0    0    0  501 -0.00000000000E+00  0.00000000000E+00  0.26536552983E+03  0.26536552983E+03  0.00000000000E+00 0.  1.
          1   -1    0    0  501    0  0.00000000000E+00 -0.00000000000E+00 -0.68092995134E+02  0.68092995134E+02  0.00000000000E+00 0. -1.
         25    2    1    2    0    0  0.57778469016E+02  0.88888465085E+01  0.42654534195E+02  0.14455209549E+03  0.12513407190E+03 0.  0.
          5    1    3    3  502    0 -0.26006371599E+01 -0.35576030055E+02 -0.24767106590E+02  0.43626817405E+02  0.41800000000E+01 0.  1.
         -5    1    3    3    0  502  0.60379106176E+02  0.44464876563E+02  0.67421640785E+02  0.10092527808E+03  0.41800000000E+01 0.  1.
        -11    1    1    2    0    0  0.10775108409E+02  0.23994237818E+02  0.71868363139E+02  0.76530307917E+02  0.00000000000E+00 0. -1.
         11    1    1    2    0    0 -0.68553577426E+02 -0.32883084326E+02  0.82749637364E+02  0.11237612156E+03  0.00000000000E+00 0.  1.
</event>
<event>
 6    1  0.2412631E-010  0.1986911E+03  0.7561462E-02  0.1150848E+00
          1   -1    0    0  501    0  0.00000000000E+00  0.00000000000E+00  0.15720748209E+03  0.15720748209E+03  0.00000000000E+00 0. -1.
         -1   -1    0    0    0  501 -0.00000000000E+00 -0.00000000000E+00 -0.27020956639E+03  0.27020956639E+03  0.00000000000E+00 0.  1.
          5    1    1    2  502    0 -0.10416473997E+02 -0.30972983844E+02 -0.14449910523E+02  0.35973614954E+02  0.41800000000E+01 0. -1.
         -5    1    1    2    0  502  0.17496624799E+03 -0.94509734313E+01 -0.14698400715E+01  0.17527732787E+03  0.41800000000E+01 0. -1.
        -11    1    1    2    0    0 -0.11708337839E+03  0.66866940444E+02 -0.88179525416E+02  0.16110659180E+03  0.00000000000E+00 0.  1.
         11    1    1    2    0    0 -0.47466395605E+02 -0.26442983168E+02 -0.89028082839E+01  0.55059513855E+02  0.00000000000E+00 0. -1.
</event>
<event>
 7    1  0.2412631E-010  0.5595961E+03  0.7561462E-02  0.9992969E-01
          1   -1    0    0  501    0  0.00000000000E+00  0.00000000000E+00  0.15695214302E+04  0.15695214302E+04  0.00000000000E+00 0. -1.
         -1   -1    0    0    0  501 -0.00000000000E+00 -0.00000000000E+00 -0.20455115293E+03  0.20455115293E+03  0.00000000000E+00 0.  1.
         25    2    1    2    0    0  0.29307079488E+02  0.55477536875E+03  0.65035052617E+03  0.86443310956E+03  0.12511666288E+03 0.  0.
          5    1    3    3  502    0  0.58217245065E+02  0.47621742218E+03  0.59343470639E+03  0.76312155255E+03  0.41800000000E+01 0.  1.
         -5    1    3    3    0  502 -0.28910165577E+02  0.78557946568E+02  0.56915819780E+02  0.10131155701E+03  0.41800000000E+01 0.  1.
        -11    1    1    2    0    0 -0.27941488403E+02 -0.48149179484E+03  0.66351987953E+03  0.82028879415E+03  0.00000000000E+00 0. -1.
         11    1    1    2    0    0 -0.13655910841E+01 -0.73283573904E+02  0.51099871610E+02  0.89350679470E+02  0.00000000000E+00 0.  1.
</event>
<event>
 7    1  0.2412631E-010  0.1683567E+03  0.7561462E-02  0.1179572E+00
          2   -1    0    0  501    0  0.00000000000E+00  0.00000000000E+00  0.58264340812E+02  0.58264340812E+02  0.00000000000E+00 0. -1.
         -2   -1    0    0    0  501 -0.00000000000E+00 -0.00000000000E+00 -0.64649032732E+03  0.64649032732E+03  0.00000000000E+00 0.  1.
         25    2    1    2    0    0  0.13717809252E+03 -0.75779333919E+02 -0.24051083343E+03  0.31311850517E+03  0.12504959325E+03 0.  0.
          5    1    3    3  502    0  0.44262075673E+02 -0.25248442334E+02 -0.86338845902E+00  0.51135438033E+02  0.41800000000E+01 0.  1.
         -5    1    3    3    0  502  0.92916016843E+02 -0.50530891585E+02 -0.23964744497E+03  0.26198306714E+03  0.41800000000E+01 0.  1.
        -11    1    1    2    0    0  0.16088579999E+01  0.35061832814E+02 -0.57257592227E+02  0.67159157320E+02  0.00000000000E+00 0.  1.
         11    1    1    2    0    0 -0.13878695051E+03  0.40717501105E+02 -0.29045756086E+03  0.32447700564E+03  0.00000000000E+00 0. -1.
</event>
<event>
 7    1  0.2412631E-010  0.2749810E+03  0.7561462E-02  0.1098462E+00
          2   -1    0    0  501    0  0.00000000000E+00  0.00000000000E+00  0.24149844685E+04  0.24149844685E+04  0.00000000000E+00 0. -1.
         -2   -1    0    0    0  501 -0.00000000000E+00 -0.00000000000E+00 -0.34424632791E+02  0.34424632791E+02  0.00000000000E+00 0.  1.
         25    2    1    2    0    0 -0.22240691476E+03  0.14579739914E+03  0.13204578084E+04  0.13527649040E+04  0.12506935789E+03 0.  0.
          5    1    3    3  502    0 -0.21765081673E+03  0.15886648975E+03  0.13002224746E+04  0.13278578220E+04  0.41800000000E+01 0.  1.
         -5    1    3    3    0  502 -0.47560980281E+01 -0.13069090615E+02  0.20235333843E+02  0.24907081999E+02  0.41800000000E+01 0.  1.
        -11    1    1    2    0    0  0.27229026716E+02 -0.18695960958E+02  0.49211752062E+02  0.59268502537E+02  0.00000000000E+00 0.  1.
         11    1    1    2    0    0  0.19517788804E+03 -0.12710143818E+03  0.10108902752E+04  0.10373756948E+04  0.00000000000E+00 0. -1.
</event>
<event>
 7    1  0.2412631E-010  0.1086563E+03  0.7561462E-02  0.1263079E+00
          2   -1    0    0  501    0  0.00000000000E+00  0.00000000000E+00  0.17577157032E+03  0.17577157032E+03  0.00000000000E+00 0. -1.
         -2   -1    0    0    0  501 -0.00000000000E+00 -0.00000000000E+00 -0.98427074239E+02  0.98427074239E+02  0.00000000000E+00 0.  1.
         25    2    1    2    0    0  0.43887987993E+02  0.66155610589E+00  0.10059225977E+03  0.16643666513E+03  0.12512300999E+03 0.  0.
          5    1    3    3  502    0 -0.31820014153E+02  0.35899884042E+02  0.27956770689E+02  0.55680951879E+02  0.41800000000E+01 0. -1.
         -5    1    3    3    0  502  0.75708002145E+02 -0.35238327936E+02  0.72635489080E+02  0.11075571325E+03  0.41800000000E+01 0. -1.
        -11    1    1    2    0    0  0.13154031825E+02  0.20792447952E+02  0.21082688791E+02  0.32401145223E+02  0.00000000000E+00 0. -1.
         11    1    1    2    0    0 -0.57042019818E+02 -0.21454004058E+02 -0.44330452478E+02  0.75360834204E+02  0.00000000000E+00 0.  1.
</event>
<event>
 7    1  0.2412631E-010  0.1012012E+03  0.7561462E-02  0.1277790E+00
          3   -1    0    0  501    0  0.00000000000E+00  0.00000000000E+00  0.12338522556E+03  0.12338522556E+03  0.00000000000E+00 0. -1.
         -3   -1    0    0    0  501 -0.00000000000E+00 -0.00000000000E+00 -0.15584275039E+03  0.15584275039E+03  0.00000000000E+00 0.  1.
         25    2    1    2    0    0  0.37732087820E+02  0.71132275308E+02 -0.43140528607E+02  0.15493399828E+03  0.12513963230E+03 0.  0.
          5    1    3    3  502    0  0.17170042944E+02  0.10997887821E+02  0.43018965649E+02  0.47789828591E+02  0.41800000000E+01 0.  1.
         -5    1    3    3    0  502  0.20562044876E+02  0.60134387486E+02 -0.86159494257E+02  0.10714416969E+03  0.41800000000E+01 0.  1.
        -11    1    1    2    0    0 -0.63726109195E+02 -0.33040684786E+02  0.24993226486E+02  0.76008981144E+02  0.00000000000E+00 0. -1.
         11    1    1    2    0    0  0.25994021375E+02 -0.38091590522E+02 -0.14310222708E+02  0.48284996527E+02  0.00000000000E+00 0.  1.
</event>
<event>
 6    1  0.2412631E-010  0.1707004E+03  0.7561462E-02  0.1177119E+00
         -2   -1    0    0    0  501 -0.00000000000E+00  0.00000000000E+00  0.35905198743E+03  0.35905198743E+03  0.00000000000E+00 0.  1.
          2   -1    0    0  501    0  0.00000000000E+00 -0.00000000000E+00 -0.90942199277E+02  0.90942199277E+02  0.00000000000E+00 0. -1.
          5    1    1    2  502    0  0.12948014697E+03 -0.22585716832E+02  0.11988752035E+03  0.17794862461E+03  0.41800000000E+01 0.  1.
         -5    1    1    2    0  502  0.11530731025E+02  0.40049409600E+02 -0.73786422390E+01  0.42530338920E+02  0.41800000000E+01 0.  1.
        -11    1    1    2    0    0 -0.11602565656E+03 -0.50545057157E+02  0.12592008329E+03  0.17852905410E+03  0.00000000000E+00 0. -1.
         11    1    1    2    0    0 -0.24985221440E+02  0.33081364388E+02  0.29680826757E+02  0.50986169077E+02  0.00000000000E+00 0.  1.
</event>
<event>
 6    1  0.2412631E-010  0.1331577E+03  0.7561462E-02  0.1222844E+00
         -3   -1    0    0    0  501 -0.00000000000E+00  0.00000000000E+00  0.89861685075E+02  0.89861685075E+02  0.00000000000E+00 0.  1.
          3   -1    0    0  501    0  0.00000000000E+00 -0.00000000000E+00 -0.30844182902E+03  0.30844182902E+03  0.00000000000E+00 0. -1.
          5    1    1    2  502    0  0.17837461559E+02 -0.25022339488E+02 -0.80337064302E+01  0.32036000801E+02  0.41800000000E+01 0.  1.
         -5    1    1    2    0  502 -0.12500265714E+03  0.17998238243E+00 -0.18034706799E+03  0.21947262703E+03  0.41800000000E+01 0.  1.
        -11    1    1    2    0    0  0.38219222058E+02  0.12324727482E+02  0.33347779238E+02  0.52198488698E+02  0.00000000000E+00 0.  1.
         11    1    1    2    0    0  0.68945973519E+02  0.12517629624E+02 -0.63547148767E+02  0.94596397566E+02  0.00000000000E+00 0. -1.
</event>
<event>
 6    1  0.2412631E-010  0.1880505E+03  0.7561462E-02  0.1160231E+00
         -2   -1    0    0    0  501 -0.00000000000E+00  0.00000000000E+00  0.39469690964E+02  0.39469690964E+02  0.00000000000E+00 0.  1.
          2   -1    0    0  501    0  0.00000000000E+00 -0.00000000000E+00 -0.99792582176E+03  0.99792582176E+03  0.00000000000E+00 0. -1.
          5    1    1    2  502    0  0.13025120047E+03  0.95729063814E+01 -0.37172578602E+03  0.39402353756E+03  0.41800000000E+01 0.  1.
         -5    1    1    2    0  502 -0.10534524340E+02  0.76764378402E+02 -0.28414388133E+03  0.29454874587E+03  0.41800000000E+01 0.  1.
        -11    1    1    2    0    0 -0.35869489861E+01  0.13945026557E+02 -0.75135970632E+01  0.16241431881E+02  0.00000000000E+00 0.  1.
         11    1    1    2    0    0 -0.11612972715E+03 -0.10028231134E+03 -0.29507286638E+03  0.33258179741E+03  0.00000000000E+00 0. -1.
</event>
<event>
 7    1  0.3954782E-010  0.1744363E+03  0.7561462E-02  0.1173299E+00
          2   -1    0    0  501    0  0.00000000000E+00  0.00000000000E+00  0.92506010044E+02  0.92506010044E+02  0.00000000000E+00 0. -1.
         -2   -1    0    0    0  501 -0.00000000000E+00 -0.00000000000E+00 -0.35725748769E+03  0.35725748769E+03  0.00000000000E+00 0.  1.
         25    2    1    2    0    0  0.12478616118E+03  0.74383208938E+02 -0.13932125834E+03  0.23697227898E+03  0.12506398438E+03 0.  0.
          5    1    3    3  502    0  0.83580392899E+02 -0.19520511549E+02 -0.84926383228E+02  0.12081678450E+03  0.41800000000E+01 0.  1.
         -5    1    3    3    0  502  0.41205768283E+02  0.93903720487E+02 -0.54394875107E+02  0.11615549448E+03  0.41800000000E+01 0.  1.
        -11    1    1    2    0    0  0.79931991345E+01 -0.98301456376E+01 -0.40567380113E+02  0.42499827352E+02  0.00000000000E+00 0.  1.
         11    1    1    2    0    0 -0.13277936032E+03 -0.64553063301E+02 -0.84862839194E+02  0.17029139140E+03  0.00000000000E+00 0. -1.
</event>
<event>
 7    1  0.2412631E-010  0.1635707E+03  0.7561462E-02  0.1184723E+00
          2   -1    0    0  501    0  0.00000000000E+00  0.00000000000E+00  0.56185147608E+03  0.56185147608E+03  0.00000000000E+00 0.  1.
         -2   -1    0    0    0  501 -0.00000000000E+00 -0.00000000000E+00 -0.64277541462E+02  0.64277541462E+02  0.00000000000E+00 0. -1.
         25    2    1    2    0    0 -0.12204412787E+03  0.86496380450E+02  0.33965532234E+03  0.39164124051E+03  0.12506290536E+03 0.  0.
          5    1    3    3  502    0 -0.51122655406E+02  0.92670968095E+02  0.11689458913E+03  0.15774426009E+03  0.41800000000E+01 0.  1.
         -5    1    3    3    0  502 -0.70921472459E+02 -0.61745876455E+01  0.22276073322E+03  0.23389698043E+03  0.41800000000E+01 0.  1.
        -11    1    1    2    0    0  0.84013133995E+02 -0.65011695627E+02  0.15849729505E+03  0.19080387782E+03  0.00000000000E+00 0.  1.
         11    1    1    2    0    0  0.38030993871E+02 -0.21484684822E+02 -0.57868277541E+00  0.43683899213E+02  0.00000000000E+00 0. -1.
</event>
<event>
 6    1  0.2412631E-010  0.1398848E+03  0.7561462E-02  0.1213484E+00
          2   -1    0    0  501    0  0.00000000000E+00  0.00000000000E+00  0.17347659947E+03  0.17347659947E+03  0.00000000000E+00 0.  1.
         -2   -1    0    0    0  501 -0.00000000000E+00 -0.00000000000E+00 -0.16330975405E+03  0.16330975405E+03  0.00000000000E+00 0. -1.
          5    1    1    2  502    0 -0.29347080070E+02  0.11162182714E+03 -0.44844457035E+02  0.12389181219E+03  0.41800000000E+01 0.  1.
         -5    1    1    2    0  502  0.30687722462E+02  0.16634376989E+02  0.42760721598E+02  0.55356937409E+02  0.41800000000E+01 0.  1.
        -11    1    1    2    0    0  0.53516265277E+01 -0.97527454245E+02  0.48911037529E+02  0.10923613793E+03  0.00000000000E+00 0.  1.
         11    1    1    2    0    0 -0.66922689204E+01 -0.30728749881E+02 -0.36660456676E+02  0.48301465985E+02  0.00000000000E+00 0. -1.
</event>
<event>
 6    1  0.2412631E-010  0.1033182E+03  0.7561462E-02  0.1273469E+00
         -2   -1    0    0    0  501 -0.00000000000E+00  0.00000000000E+00  0.54637336612E+02  0.54637336612E+02  0.00000000000E+00 0.  1.
          2   -1    0    0  501    0  0.00000000000E+00 -0.00000000000E+00 -0.27953822195E+03  0.27953822195E+03  0.00000000000E+00 0. -1.
          5    1    1    2  502    0 -0.57077798356E+02 -0.34768414507E+02 -0.11314427455E+03  0.13147553756E+03  0.41800000000E+01 0.  1.
         -5    1    1    2    0  502  0.30314416800E+02 -0.11333476432E+02  0.15366940889E+02  0.36069749461E+02  0.41800000000E+01 0.  1.
        -11    1    1    2    0    0 -0.24432317791E+02 -0.13944170444E+02 -0.25503131062E+02  0.37970880106E+02  0.00000000000E+00 0.  1.
         11    1    1    2    0    0  0.51195699348E+02  0.60046061383E+02 -0.10162042061E+03  0.12865939144E+03  0.00000000000E+00 0. -1.
</event>
<event>
 7    1  0.2412631E-010  0.1370559E+03  0.7561462E-02  0.1217346E+00
         -1   -1    0    0    0  501 -0.00000000000E+00  0.00000000000E+00  0.34243060465E+02  0.34243060465E+02  0.00000000000E+00 0.  1.
          1   -1    0    0  501    0  0.00000000000E+00 -0.00000000000E+00 -0.68098636052E+03  0.68098636052E+03  0.00000000000E+00 0. -1.
         25    2    1    2    0    0 -0.86920083050E+02 -0.55256833508E+02 -0.28201969017E+03  0.32526499190E+03  0.12511511030E+03 0.  0.
          5    1    3    3  502    0 -0.11549071568E+03 -0.31839145430E+02 -0.24524021354E+03  0.27296899334E+03  0.41800000000E+01 0. -1.
         -5    1    3    3    0  502  0.28570632630E+02 -0.23417688078E+02 -0.36779476635E+02  0.52295998559E+02  0.41800000000E+01 0. -1.
        -11    1    1    2    0    0  0.13923539657E+02  0.40181765020E+02 -0.46017290476E+02  0.62658041938E+02  0.00000000000E+00 0.  1.
         11    1    1    2    0    0  0.72996543392E+02  0.15075068488E+02 -0.31870631941E+03  0.32730638715E+03  0.00000000000E+00 0. -1.
</event>
<event>
 6    1  0.2412631E-010  0.1015207E+03  0.7561462E-02  0.1277130E+00
         -2   -1    0    0    0  501 -0.00000000000E+00  0.00000000000E+00  0.47026917285E+03  0.47026917285E+03  0.00000000000E+00 0. -1.
          2   -1    0    0  501    0  0.00000000000E+00 -0.00000000000E+00 -0.45736483314E+02  0.45736483314E+02  0.00000000000E+00 0.  1.
          5    1    1    2  502    0 -0.76896042362E+02  0.61879079439E+02  0.14958115183E+03  0.17925963066E+03  0.41800000000E+01 0. -1.
         -5    1    1    2    0  502  0.19459039555E+02 -0.89719881280E+01  0.18649178039E+03  0.18776529856E+03  0.41800000000E+01 0. -1.
        -11    1    1    2    0    0  0.35722476503E+02 -0.15021872410E+02  0.97028408291E+02  0.10448092646E+03  0.00000000000E+00 0. -1.
         11    1    1    2    0    0  0.21714526304E+02 -0.37885218901E+02 -0.85686509673E+01  0.44499800484E+02  0.00000000000E+00 0.  1.
</event>
<event>
 7    1  0.2412631E-010  0.1519697E+03  0.7561462E-02  0.1198073E+00
          1   -1    0    0  501    0  0.00000000000E+00  0.00000000000E+00  0.15738134580E+04  0.15738134580E+04  0.00000000000E+00 0. -1.
         -1   -1    0    0    0  501 -0.00000000000E+00 -0.00000000000E+00 -0.17706791380E+02  0.17706791380E+02  0.00000000000E+00 0.  1.
         25    2    1    2    0    0  0.79980431120E+02 -0.76849645462E+02  0.11536769902E+04  0.11657327709E+04  0.12513815553E+03 0.  0.
          5    1    3    3  502    0 -0.62736224060E+01 -0.78862355469E+02  0.63321961474E+03  0.63815607992E+03  0.41800000000E+01 0.  1.
         -5    1    3    3    0  502  0.86254053526E+02  0.20127100068E+01  0.52045737546E+03  0.52757669094E+03  0.41800000000E+01 0.  1.
        -11    1    1    2    0    0 -0.60213529100E+02  0.12804580874E+01  0.19735753390E+03  0.20634268789E+03  0.00000000000E+00 0.  1.
         11    1    1    2    0    0 -0.19766902020E+02  0.75569187375E+02  0.20507214252E+03  0.21944479063E+03  0.00000000000E+00 0. -1.
</event>
<event>
 7    1  0.2412631E-010  0.9408795E+02  0.7561462E-02  0.1293244E+00
         -1   -1    0    0    0  501 -0.00000000000E+00  0.00000000000E+00  0.80120621997E+02  0.80120621997E+02  0.00000000000E+00 0.  1.
          1   -1    0    0  501    0  0.00000000000E+00 -0.00000000000E+00 -0.22861677978E+03  0.22861677978E+03  0.00000000000E+00 0. -1.
         25    2    1    2    0    0 -0.68370441580E+02  0.30813171880E+02 -0.46194898601E+02  0.15296652745E+03  0.12506326806E+03 0.  0.
          5    1    3    3  502    0 -0.81761661336E+02  0.24668460952E+02 -0.79220447287E+02  0.11656266082E+03  0.41800000000E+01 0. -1.
         -5    1    3    3    0  502  0.13391219756E+02  0.61447109286E+01  0.33025548686E+02  0.36403866621E+02  0.41800000000E+01 0. -1.
        -11    1    1    2    0    0  0.17902155999E+02 -0.32230198812E+02 -0.98460546387E+02  0.10513682561E+03  0.00000000000E+00 0. -1.
         11    1    1    2    0    0  0.50468285582E+02  0.14170269315E+01 -0.38407127937E+01  0.50634048718E+02  0.00000000000E+00 0.  1.
</event>
<event>
 7    1  0.2412631E-010  0.8820872E+02  0.7561462E-02  0.1307248E+00
          4   -1    0    0  501    0  0.00000000000E+00  0.00000000000E+00  0.27302558886E+02  0.27302558886E+02  0.00000000000E+00 0. -1.
         -4   -1    0    0    0  501 -0.00000000000E+00 -0.00000000000E+00 -0.53382967619E+03  0.53382967619E+03  0.00000000000E+00 0.  1.
         25    2    1    2    0    0 -0.48833133754E+02 -0.21149990839E+02 -0.26401949382E+03  0.29697730749E+03  0.12512885752E+03 0.  0.
          5    1    3    3  502    0  0.78195148206E+01  0.50773370179E+01 -0.22055869293E+03  0.22079523000E+03  0.41800000000E+01 0.  1.
         -5    1    3    3    0  502 -0.56652648575E+02 -0.26227327857E+02 -0.43460800882E+02  0.76182077488E+02  0.41800000000E+01 0.  1.
        -11    1    1    2    0    0 -0.45562595320E+01  0.44947698668E+02 -0.12495405972E+03  0.13287050898E+03  0.00000000000E+00 0.  1.
         11    1    1    2    0    0  0.53389393286E+02 -0.23797707829E+02 -0.11755356377E+03  0.13128441860E+03  0.00000000000E+00 0. -1.
</event>
<event>
 6    1  0.2412631E-010  0.3331611E+03  0.7561462E-02  0.1069747E+00
         -2   -1    0    0    0  501 -0.00000000000E+00  0.00000000000E+00  0.31823218557E+03  0.31823218557E+03  0.00000000000E+00 0.  1.
          2   -1    0    0  501    0  0.00000000000E+00 -0.00000000000E+00 -0.37270910041E+03  0.37270910041E+03  0.00000000000E+00 0. -1.
          5    1    1    2  502    0  0.71651978884E+02 -0.60490962558E+02 -0.56150067727E+02  0.10937762630E+03  0.41800000000E+01 0. -1.
         -5    1    1    2    0  502  0.73367687647E+02 -0.23070801975E+03  0.95324009842E+01  0.24231662558E+03  0.41800000000E+01 0. -1.
        -11    1    1    2    0    0 -0.13676373868E+03  0.22276001122E+03 -0.37760189285E+02  0.26410637007E+03  0.00000000000E+00 0.  1.
         11    1    1    2    0    0 -0.82559278532E+01  0.68438971079E+02  0.29900941188E+02  0.75140664031E+02  0.00000000000E+00 0. -1.
</event>
<event>
 7    1  0.2412631E-010  0.1065684E+03  0.7561462E-02  0.1267060E+00
         -1   -1    0    0    0  501 -0.00000000000E+00  0.00000000000E+00  0.18340533927E+03  0.18340533927E+03  0.00000000000E+00 0.  1.
          1   -1    0    0  501    0  0.00000000000E+00 -0.00000000000E+00 -0.11601274625E+03  0.11601274625E+03  0.00000000000E+00 0. -1.
         25    2    1    2    0    0  0.61639551349E+02 -0.46062751767E+02 -0.24196022223E+02  0.14881642064E+03  0.12505865892E+03 0.  0.
          5    1    3    3  502    0  0.12003579456E+02  0.21292408341E+02 -0.54383527769E+02  0.59770335998E+02  0.41800000000E+01 0. -1.
         -5    1    3    3    0  502  0.49635971894E+02 -0.67355160108E+02  0.30187505546E+02  0.89046084643E+02  0.41800000000E+01 0. -1.
        -11    1    1    2    0    0 -0.27734750335E+02 -0.17310283123E+02 -0.18178198987E+01  0.32743957414E+02  0.00000000000E+00 0. -1.
         11    1    1    2    0    0 -0.33904801015E+02  0.63373034890E+02  0.93406435147E+02  0.11785770747E+03  0.00000000000E+00 0.  1.
</event>
<event>
 7    1  0.2412631E-010  0.1634370E+03  0.7561462E-02  0.1184870E+00
         -2   -1    0    0    0  501 -0.00000000000E+00  0.00000000000E+00  0.16514586993E+03  0.16514586993E+03  0.00000000000E+00 0.  1.
          2   -1    0    0  501    0  0.00000000000E+00 -0.00000000000E+00 -0.19194982748E+03  0.19194982748E+03  0.00000000000E+00 0. -1.
         25    2    1    2    0    0  0.40668455649E+02  0.11981178065E+03 -0.76586763528E+02  0.19372436028E+03  0.12511918059E+03 0.  0.
          5    1    3    3  502    0  0.52044511176E+02  0.38105027970E+00 -0.46617156019E+02  0.69995771144E+02  0.41800000000E+01 0.  1.
         -5    1    3    3    0  502 -0.11376055527E+02  0.11943073037E+03 -0.29969607509E+02  0.12372858914E+03  0.41800000000E+01 0.  1.
        -11    1    1    2    0    0  0.25526143633E+02 -0.60782373447E+02  0.30351454200E+02  0.72576109724E+02  0.00000000000E+00 0.  1.
         11    1    1    2    0    0 -0.66194599282E+02 -0.59029407201E+02  0.19431351776E+02  0.90795227410E+02  0.00000000000E+00 0. -1.
</event>
<event>
 6    1  0.2412631E-010  0.1622208E+03  0.7561462E-02  0.1186212E+00
         -2   -1    0    0    0  501 -0.00000000000E+00  0.00000000000E+00  0.28395476465E+02  0.28395476465E+02  0.00000000000E+00 0.  1.
          2   -1    0    0  501    0  0.00000000000E+00 -0.00000000000E+00 -0.15434074201E+04  0.15434074201E+04  0.00000000000E+00 0. -1.
          5    1    1    2  502    0 -0.54404276681E+02 -0.46046772895E+02 -0.79233263217E+03  0.79554296114E+03  0.41800000000E+01 0. -1.
         -5    1    1    2    0  502 -0.95821322755E+02  0.23759709625E+02 -0.35438030961E+03  0.36789825486E+03  0.41800000000E+01 0. -1.
        -11    1    1    2    0    0  0.43328203167E+02 -0.57797166182E+01 -0.31464011102E+02  0.53858354120E+02  0.00000000000E+00 0.  1.
         11    1    1    2    0    0  0.10689739627E+03  0.28066779888E+02 -0.33683499080E+03  0.35450332648E+03  0.00000000000E+00 0. -1.
</event>
<event>
 6    1  0.2412631E-010  0.8811783E+02  0.7561462E-02  0.1307475E+00
         -2   -1    0    0    0  501 -0.00000000000E+00  0.00000000000E+00  0.24559247040E+02  0.24559247040E+02  0.00000000000E+00 0.  1.
          2   -1    0    0  501    0  0.00000000000E+00 -0.00000000000E+00 -0.51486876411E+03  0.51486876411E+03  0.00000000000E+00 0. -1.
          5    1    1    2  502    0 -0.17316306968E+02 -0.50683995242E+02 -0.48679295488E+02  0.72497365952E+02  0.41800000000E+01 0. -1.
         -5    1    1    2    0  502 -0.10943664587E+02  0.45843657405E+02 -0.22405983455E+03  0.22900149908E+03  0.41800000000E+01 0. -1.
        -11    1    1    2    0    0  0.17967867522E+02  0.37160378812E+02 -0.18937584527E+03  0.19382195125E+03  0.00000000000E+00 0. -1.
         11    1    1    2    0    0  0.10292104033E+02 -0.32320040975E+02 -0.28194541759E+02  0.44107194867E+02  0.00000000000E+00 0.  1.
</event>
<event>
 7    1  0.2412631E-010  0.1397443E+03  0.7561462E-02  0.1213673E+00
          2   -1    0    0  501    0  0.00000000000E+00  0.00000000000E+00  0.83627172649E+03  0.83627172649E+03  0.00000000000E+00 0. -1.
         -2   -1    0    0    0  501 -0.00000000000E+00 -0.00000000000E+00 -0.31674987204E+02  0.31674987204E+02  0.00000000000E+00 0.  1.
         25    2    1    2    0    0  0.79024484748E+02 -0.86823184644E+02  0.51322589228E+03  0.54112807394E+03  0.12504255806E+03 0.  0.
          5    1    3    3  502    0  0.67623306250E+02 -0.30900274745E+02  0.44888658825E+03  0.45502129625E+03  0.41800000000E+01 0. -1.
         -5    1    3    3    0  502  0.11401178498E+02 -0.55922909899E+02  0.64339304026E+02  0.86106777697E+02  0.41800000000E+01 0. -1.
        -11    1    1    2    0    0 -0.73779320276E+02  0.10530818726E+03  0.24693564535E+03  0.27840692403E+03  0.00000000000E+00 0. -1.
         11    1    1    2    0    0 -0.52451644725E+01 -0.18485002618E+02  0.44435201660E+02  0.48411715717E+02  0.00000000000E+00 0.  1.
</event>
<event>
 6    1  0.2412631E-010  0.1088175E+03  0.7561462E-02  0.1262775E+00
         -2   -1    0    0    0  501 -0.00000000000E+00  0.00000000000E+00  0.24453681868E+02  0.24453681868E+02  0.00000000000E+00 0.  1.
          2   -1    0    0  501    0  0.00000000000E+00 -0.00000000000E+00 -0.72381393823E+03  0.72381393823E+03  0.00000000000E+00 0. -1.
          5    1    1    2  502    0  0.47690796836E+02 -0.53518006241E+02 -0.13303894050E+03  0.15118009520E+03  0.41800000000E+01 0. -1.
         -5    1    1    2    0  502 -0.45831884025E+02 -0.19955631611E+02 -0.33609327813E+03  0.33981605734E+03  0.41800000000E+01 0. -1.
        -11    1    1    2    0    0  0.26164841002E+02  0.13440332146E+02 -0.15171682461E+03  0.15454202116E+03  0.00000000000E+00 0. -1.
         11    1    1    2    0    0 -0.28023753813E+02  0.60033305706E+02 -0.78511213121E+02  0.10272944640E+03  0.00000000000E+00 0.  1.
</event>
<event>
 7    1  0.2412631E-010  0.1343750E+03  0.7561462E-02  0.1221105E+00
          2   -1    0    0  501    0  0.00000000000E+00  0.00000000000E+00  0.96027868503E+03  0.96027868503E+03  0.00000000000E+00 0. -1.
         -2   -1    0    0    0  501 -0.00000000000E+00 -0.00000000000E+00 -0.22525470690E+02  0.22525470690E+02  0.00000000000E+00 0.  1.
         25    2    1    2    0    0  0.80731208363E+02 -0.54061891502E+02  0.59333883868E+03  0.61410706489E+03  0.12504516605E+03 0.  0.
          5    1    3    3  502    0 -0.12431459137E+02 -0.62696646599E+02  0.21420830540E+03  0.22358014485E+03  0.41800000000E+01 0. -1.
         -5    1    3    3    0  502  0.93162667500E+02  0.86347550973E+01  0.37913053328E+03  0.39052692004E+03  0.41800000000E+01 0. -1.
        -11    1    1    2    0    0  0.31262226216E+00  0.24912414574E+02  0.17043006352E+02  0.30185927154E+02  0.00000000000E+00 0.  1.
         11    1    1    2    0    0 -0.81043830625E+02  0.29149476927E+02  0.32737136931E+03  0.33851116367E+03  0.00000000000E+00 0. -1.
</event>
<event>
 7    1  0.2412631E-010  0.8996632E+02  0.7561462E-02  0.1302933E+00
         -1   -1    0    0    0  501 -0.00000000000E+00  0.00000000000E+00  0.89344496355E+02  0.89344496355E+02  0.00000000000E+00 0.  1.
          1   -1    0    0  501    0  0.00000000000E+00 -0.00000000000E+00 -0.15289881709E+03  0.15289881709E+03  0.00000000000E+00 0. -1.
         25    2    1    2    0    0  0.39602010066E+02  0.18972101587E+02 -0.39670860148E+02  0.13835528780E+03  0.12506058003E+03 0.  0.
          5    1    3    3  502    0 -0.37954504190E+02  0.17589516234E+02 -0.43609799022E+02  0.60574107013E+02  0.41800000000E+01 0. -1.
         -5    1    3    3    0  502  0.77556514255E+02  0.13825853532E+01  0.39389388741E+01  0.77781180791E+02  0.41800000000E+01 0. -1.
        -11    1    1    2    0    0 -0.64280612390E+01  0.12770228365E+02 -0.49353601754E+02  0.51382649891E+02  0.00000000000E+00 0. -1.
         11    1    1    2    0    0 -0.33173948827E+02 -0.31742329952E+02  0.25470141167E+02  0.52505375750E+02  0.00000000000E+00 0.  1.
</event>
<event>
 6    1  0.2412631E-010  0.1032033E+03  0.7561462E-02  0.1273700E+00
         -1   -1    0    0    0  501 -0.00000000000E+00  0.00000000000E+00  0.10065599956E+03  0.10065599956E+03  0.00000000000E+00 0.  1.
          1   -1    0    0  501    0  0.00000000000E+00 -0.00000000000E+00 -0.15677398938E+03  0.15677398938E+03  0.00000000000E+00 0. -1.
          5    1    1    2  502    0  0.71060063287E+02 -0.61766582578E+02 -0.56915391744E+02  0.11009758188E+03  0.41800000000E+01 0. -1.
         -5    1    1    2    0  502 -0.18415828368E+02  0.34228385009E+02  0.15238731096E+01  0.39121856603E+02  0.41800000000E+01 0. -1.
        -11    1    1    2    0    0 -0.44189716237E+02  0.38923931180E+02  0.35876765346E+02  0.68956114531E+02  0.00000000000E+00 0.  1.
         11    1    1    2    0    0 -0.84545186817E+01 -0.11385733610E+02 -0.36603236533E+02  0.39254435936E+02  0.00000000000E+00 0. -1.
</event>
<event>
 7    1  0.2412631E-010  0.1652483E+03  0.7561462E-02  0.1182896E+00
          2   -1    0    0  501    0  0.00000000000E+00  0.00000000000E+00  0.25514080746E+04  0.25514080746E+04  0.00000000000E+00 0. -1.
         -2   -1    0    0    0  501 -0.00000000000E+00 -0.00000000000E+00 -0.17578797245E+02  0.17578797245E+02  0.00000000000E+00 0.  1.
         25    2    1    2    0    0 -0.13814234400E+03  0.65598971895E+02  0.19142896837E+04  0.19244594891E+04  0.12511115011E+03 0.  0.
          5    1    3    3  502    0 -0.54296883603E+02  0.55457417307E+02  0.38139389062E+03  0.38923315494E+03  0.41800000000E+01 0.  1.
         -5    1    3    3    0  502 -0.83845460392E+02  0.10141554587E+02  0.15328957931E+04  0.15352263342E+04  0.41800000000E+01 0.  1.
        -11    1    1    2    0    0  0.72129925878E+02  0.40585094620E+01  0.37372561207E+03  0.38064423130E+03  0.00000000000E+00 0. -1.
         11    1    1    2    0    0  0.66012418118E+02 -0.69657481357E+02  0.24581398160E+03  0.26388315142E+03  0.00000000000E+00 0.  1.
</event>
<event>
 6    1  0.2412631E-010  0.1665032E+03  0.7561462E-02  0.1181544E+00
         -2   -1    0    0    0  501 -0.00000000000E+00  0.00000000000E+00  0.71832208223E+02  0.71832208223E+02  0.00000000000E+00 0.  1.
          2   -1    0    0  501    0  0.00000000000E+00 -0.00000000000E+00 -0.50086858910E+03  0.50086858910E+03  0.00000000000E+00 0. -1.
          5    1    1    2  502    0  0.27963213014E+02  0.76404841984E+02 -0.72327188316E+02  0.10894189153E+03  0.41800000000E+01 0. -1.
         -5    1    1    2    0  502  0.96676090143E+02  0.76616496429E+01 -0.24743289842E+03  0.26579217239E+03  0.41800000000E+01 0. -1.
        -11    1    1    2    0    0 -0.45445247013E+02 -0.51917765099E+02 -0.14803184695E+02  0.70568116640E+02  0.00000000000E+00 0. -1.
         11    1    1    2    0    0 -0.79194056145E+02 -0.32148726528E+02 -0.94473109446E+02  0.12739861677E+03  0.00000000000E+00 0.  1.
</event>
<event>
 7    1  0.2412631E-010  0.9488157E+02  0.7561462E-02  0.1291443E+00
          1   -1    0    0  501    0  0.00000000000E+00  0.00000000000E+00  0.58027040199E+03  0.58027040199E+03  0.00000000000E+00 0. -1.
         -1   -1    0    0    0  501 -0.00000000000E+00 -0.00000000000E+00 -0.26483060274E+02  0.26483060274E+02  0.00000000000E+00 0.  1.
         25    2    1    2    0    0 -0.24263126890E+02  0.26070553825E+02  0.42474372394E+03  0.44422652144E+03  0.12514630727E+03 0.  0.
          5    1    3    3  502    0 -0.56214842751E+02  0.17315123767E+02  0.39540026966E+03  0.39977339545E+03  0.41800000000E+01 0. -1.
         -5    1    3    3    0  502  0.31951715861E+02  0.87554300580E+01  0.29343454277E+02  0.44453125997E+02  0.41800000000E+01 0. -1.
        -11    1    1    2    0    0  0.52606075678E+02 -0.39744949496E+02  0.73907803795E+02  0.99042534653E+02  0.00000000000E+00 0.  1.
         11    1    1    2    0    0 -0.28342948788E+02  0.13674395672E+02  0.55135813975E+02  0.63484406162E+02  0.00000000000E+00 0. -1.
</event>
<event>
 7    1  0.2412631E-010  0.9764521E+02  0.7561462E-02  0.1285327E+00
          1   -1    0    0  501    0  0.00000000000E+00  0.00000000000E+00  0.17643937431E+03  0.17643937431E+03  0.00000000000E+00 0. -1.
         -1   -1    0    0    0  501 -0.00000000000E+00 -0.00000000000E+00 -0.11399719370E+03  0.11399719370E+03  0.00000000000E+00 0.  1.
         25    2    1    2    0    0  0.64107005772E+02  0.23799119550E+02 -0.26959759304E+02  0.14505658116E+03  0.12505389572E+03 0.  0.
          5    1    3    3  502    0  0.82694591996E+01  0.45425083250E+02 -0.60559467936E+02  0.76267579615E+02  0.41800000000E+01 0. -1.
         -5    1    3    3    0  502  0.55837546573E+02 -0.21625963700E+02  0.33599708631E+02  0.68789001543E+02  0.41800000000E+01 0. -1.
        -11    1    1    2    0    0 -0.10496718485E+02 -0.32894509047E+02  0.83898420394E+02  0.90725821953E+02  0.00000000000E+00 0. -1.
         11    1    1    2    0    0 -0.53610287287E+02  0.90953894974E+01  0.55035195166E+01  0.54654164893E+02  0.00000000000E+00 0.  1.
</event>
<event>
 7    1  0.2412631E-010  0.1567313E+03  0.7561462E-02  0.1192437E+00
         -1   -1    0    0    0  501 -0.00000000000E+00  0.00000000000E+00  0.46373074707E+02  0.46373074707E+02  0.00000000000E+00 0.  1.
          1   -1    0    0  501    0  0.00000000000E+00 -0.00000000000E+00 -0.73838197862E+03  0.73838197862E+03  0.00000000000E+00 0. -1.
         25    2    1    2    0    0 -0.14833283162E+03 -0.64746093301E+01 -0.40154364989E+03  0.44599827217E+03  0.12503042233E+03 0.  0.
          5    1    3    3  502    0  0.10698892787E+01 -0.63125520827E+01 -0.17146644399E+03  0.17163684567E+03  0.41800000000E+01 0.  1.
         -5    1    3    3    0  502 -0.14940272090E+03 -0.16205724743E+00 -0.23007720590E+03  0.27436142650E+03  0.41800000000E+01 0.  1.
        -11    1    1    2    0    0  0.63392149738E+02 -0.21480288710E+02 -0.54168432645E+02  0.86105670816E+02  0.00000000000E+00 0.  1.
         11    1    1    2    0    0  0.84940681886E+02  0.27954898040E+02 -0.23629682138E+03  0.25265111034E+03  0.00000000000E+00 0. -1.
</event>
<event>
 6    1  0.2412631E-010  0.1066327E+03  0.7561462E-02  0.1266936E+00
          2   -1    0    0  501    0  0.00000000000E+00  0.00000000000E+00  0.15373859901E+03  0.15373859901E+03  0.00000000000E+00 0. -1.
         -2   -1    0    0    0  501 -0.00000000000E+00 -0.00000000000E+00 -0.11277482608E+03  0.11277482608E+03  0.00000000000E+00 0.  1.
          5    1    1    2  502    0  0.19279090432E+01  0.16071432778E+02 -0.37241543535E+02  0.40821719093E+02  0.41800000000E+01 0. -1.
         -5    1    1    2    0  502  0.38632679561E+02 -0.79863543403E+02  0.59507070154E+02  0.10690759231E+03  0.41800000000E+01 0. -1.
        -11    1    1    2    0    0  0.20817352568E+02  0.33116325051E+02 -0.15552119525E+02  0.42094198823E+02  0.00000000000E+00 0.  1.
         11    1    1    2    0    0 -0.61377941172E+02  0.30675785574E+02  0.34250365833E+02  0.76689914870E+02  0.00000000000E+00 0. -1.
</event>
<event>
 7    1  0.2412631E-010  0.1033661E+03  0.7561462E-02  0.1273373E+00
          1   -1    0    0  501    0  0.00000000000E+00  0.00000000000E+00  0.93439690114E+03  0.93439690114E+03  0.00000000000E+00 0. -1.
         -1   -1    0    0    0  501 -0.00000000000E+00 -0.00000000000E+00 -0.17419584558E+02  0.17419584558E+02  0.00000000000E+00 0.  1.
         25    2    1    2    0    0  0.18230350772E+01  0.61545550369E+02  0.60565909317E+03  0.62149139762E+03  0.12504975789E+03 0.  0.
          5    1    3    3  502    0  0.47116827072E+02  0.23354309299E+01  0.39817842599E+03  0.40098501338E+03  0.41800000000E+01 0. -1.
         -5    1    3    3    0  502 -0.45293791994E+02  0.59210119439E+02  0.20748066718E+03  0.22050638424E+03  0.41800000000E+01 0. -1.
        -11    1    1    2    0    0 -0.24997891849E+02 -0.78125128223E+01  0.19382750962E+02  0.32582525813E+02  0.00000000000E+00 0.  1.
         11    1    1    2    0    0  0.23174856771E+02 -0.53733037547E+02  0.29193547246E+03  0.29774256227E+03  0.00000000000E+00 0. -1.
</event>
<event>
 7    1  0.2412631E-010  0.1839852E+03  0.7561462E-02  0.1164001E+00
         -1   -1    0    0    0  501 -0.00000000000E+00  0.00000000000E+00  0.38072944005E+03  0.38072944005E+03  0.00000000000E+00 0.  1.
          1   -1    0    0  501    0  0.00000000000E+00 -0.00000000000E+00 -0.11336332157E+03  0.11336332157E+03  0.00000000000E+00 0. -1.
         25    2    1    2    0    0  0.61306916653E+01  0.17467891064E+03  0.16693457287E+03  0.27213795026E+03  0.12506640295E+03 0.  0.
          5    1    3    3  502    0  0.40106321020E+01  0.16894518776E+03  0.83802522488E+02  0.18867669918E+03  0.41800000000E+01 0.  1.
         -5    1    3    3    0  502  0.21200595632E+01  0.57337228817E+01  0.83132050384E+02  0.83461251079E+02  0.41800000000E+01 0.  1.
        -11    1    1    2    0    0 -0.39856680493E+02 -0.60371409409E+02  0.65941689888E+02  0.97885486765E+02  0.00000000000E+00 0.  1.
         11    1    1    2    0    0  0.33725988828E+02 -0.11430750123E+03  0.34489855721E+02  0.12406932461E+03  0.00000000000E+00 0. -1.
</event>
<event>
 6    1  0.2412631E-010  0.1410033E+03  0.7561462E-02  0.1211985E+00
         -2   -1    0    0    0  501 -0.00000000000E+00  0.00000000000E+00  0.66460881047E+02  0.66460881047E+02  0.00000000000E+00 0.  1.
          2   -1    0    0  501    0  0.00000000000E+00 -0.00000000000E+00 -0.33368811256E+03  0.33368811256E+03  0.00000000000E+00 0. -1.
          5    1    1    2  502    0 -0.53421196824E+02 -0.10185563100E+02 -0.10695552500E+03  0.12006051263E+03  0.41800000000E+01 0. -1.
         -5    1    1    2    0  502 -0.30820951501E+01  0.94882798139E+02 -0.64336761003E+02  0.11475598420E+03  0.41800000000E+01 0. -1.
        -11    1    1    2    0    0  0.76102675843E+02 -0.83238706444E+02 -0.91382033954E+02  0.14515845015E+03  0.00000000000E+00 0.  1.
         11    1    1    2    0    0 -0.19599383869E+02 -0.14585285950E+01 -0.45529115648E+01  0.20174046630E+02  0.00000000000E+00 0. -1.
</event>
<event>
 7    1  0.2412631E-010  0.1459714E+03  0.7561462E-02  0.1205513E+00
          2   -1    0    0  501    0  0.00000000000E+00  0.00000000000E+00  0.10477289371E+04  0.10477289371E+04  0.00000000000E+00 0. -1.
         -2   -1    0    0    0  501 -0.00000000000E+00 -0.00000000000E+00 -0.29304074189E+02  0.29304074189E+02  0.00000000000E+00 0.  1.
         25    2    1    2    0    0 -0.35496829681E+02  0.12505156225E+03  0.65897695361E+03  0.68322960814E+03  0.12511656131E+03 0.  0.
          5    1    3    3  502    0 -0.84693262982E+01  0.62125040206E+02  0.55567945987E+03  0.55922123048E+03  0.41800000000E+01 0.  1.
         -5    1    3    3    0  502 -0.27027503383E+02  0.62926522041E+02  0.10329749375E+03  0.12400837766E+03  0.41800000000E+01 0.  1.
        -11    1    1    2    0    0 -0.30686479698E+02 -0.61525830709E+02  0.16742624542E+03  0.18099346821E+03  0.00000000000E+00 0.  1.
         11    1    1    2    0    0  0.66183309379E+02 -0.63525731537E+02  0.19202166392E+03  0.21280993497E+03  0.00000000000E+00 0. -1.
</event>
<event>
 6    1  0.2412631E-010  0.1811344E+03  0.7561462E-02  0.1166710E+00
         -4   -1    0    0    0  501 -0.00000000000E+00  0.00000000000E+00  0.50124892296E+02  0.50124892296E+02  0.00000000000E+00 0.  1.
          4   -1    0    0  501    0  0.00000000000E+00 -0.00000000000E+00 -0.88855477533E+03  0.88855477533E+03  0.00000000000E+00 0. -1.
          5    1    1    2  502    0 -0.52164702913E+02  0.69419037746E+01 -0.22773048387E+02  0.57492872522E+02  0.41800000000E+01 0. -1.
         -5    1    1    2    0  502 -0.58939153594E+02  0.12416045956E+03 -0.28991893190E+03  0.32087396750E+03  0.41800000000E+01 0. -1.
        -11    1    1    2    0    0  0.54228936638E+02 -0.69094542424E+02 -0.13823125252E+03  0.16377641019E+03  0.00000000000E+00 0.  1.
         11    1    1    2    0    0  0.56874919869E+02 -0.62007820912E+02 -0.38750665024E+03  0.39653641742E+03  0.00000000000E+00 0. -1.
</event>
<event>
 6    1  0.2412631E-010  0.6649158E+02  0.7561462E-02  0.1372447E+00
          2   -1    0    0  501    0  0.00000000000E+00  0.00000000000E+00  0.84099601590E+03  0.84099601590E+03  0.00000000000E+00 0. -1.
         -2   -1    0    0    0  501 -0.00000000000E+00 -0.00000000000E+00 -0.13988455572E+02  0.13988455572E+02  0.00000000000E+00 0.  1.
          5    1    1    2  502    0  0.92158428538E+01  0.25756536942E+02  0.13436501930E+02  0.30762687445E+02  0.41800000000E+01 0. -1.
         -5    1    1    2    0  502 -0.73627216470E+01 -0.16094539770E+02  0.41970373508E+03  0.42009753810E+03  0.41800000000E+01 0. -1.
        -11    1    1    2    0    0  0.12500563326E+01  0.38671349257E+02  0.12238328407E+03  0.12835382392E+03  0.00000000000E+00 0.  1.
         11    1    1    2    0    0 -0.31031775393E+01 -0.48333346429E+02  0.27148403925E+03  0.27577042201E+03  0.00000000000E+00 0. -1.
</event>
<event>
 7    1  0.2412631E-010  0.1049002E+03  0.7561462E-02  0.1270316E+00
         -1   -1    0    0    0  501 -0.00000000000E+00  0.00000000000E+00  0.24885134248E+03  0.24885134248E+03  0.00000000000E+00 0.  1.
          1   -1    0    0  501    0  0.00000000000E+00 -0.00000000000E+00 -0.75473836180E+02  0.75473836180E+02  0.00000000000E+00 0. -1.
         25    2    1    2    0    0 -0.77966433070E+02  0.20007499352E+01  0.12540096719E+03  0.19352098531E+03  0.12506878705E+03 0.  0.
          5    1    3    3  502    0  0.11173393191E+02  0.34469661994E+02  0.32028435597E+00  0.36477079042E+02  0.41800000000E+01 0.  1.
         -5    1    3    3    0  502 -0.89139826261E+02 -0.32468912058E+02  0.12508068284E+03  0.15704390626E+03  0.41800000000E+01 0.  1.
        -11    1    1    2    0    0  0.51222756849E+02  0.23100126324E+01 -0.21979014856E+02  0.55786952522E+02  0.00000000000E+00 0. -1.
         11    1    1    2    0    0  0.26743676221E+02 -0.43107625677E+01  0.69955553968E+02  0.75017240836E+02  0.00000000000E+00 0.  1.
</event>
<event>
 7    1  0.2412631E-010  0.1437461E+03  0.7561462E-02  0.1208375E+00
         -2   -1    0    0    0  501 -0.00000000000E+00  0.00000000000E+00  0.15536256013E+03  0.15536256013E+03  0.00000000000E+00 0.  1.
          2   -1    0    0  501    0  0.00000000000E+00 -0.00000000000E+00 -0.28473656880E+03  0.28473656880E+03  0.00000000000E+00 0. -1.
         25    2    1    2    0    0 -0.12925057531E+03 -0.44832553554E+02  0.54809550124E+02  0.19329221268E+03  0.12506847573E+03 0.  0.
          5    1    3    3  502    0 -0.45130988631E+02 -0.39899105989E+02 -0.35224089518E+02  0.69906749859E+02  0.41800000000E+01 0. -1.
         -5    1    3    3    0  502 -0.84119586678E+02 -0.49334475650E+01  0.90033639641E+02  0.12338546282E+03  0.41800000000E+01 0. -1.
        -11    1    1    2    0    0  0.20529563220E+01  0.10904200292E+02  0.81271239493E+01  0.13753776113E+02  0.00000000000E+00 0.  1.
         11    1    1    2    0    0  0.12719761899E+03  0.33928353262E+02 -0.19231068275E+03  0.23305314014E+03  0.00000000000E+00 0. -1.
</event>
<event>
 6    1  0.2412631E-010  0.8755516E+02  0.7561462E-02  0.1308883E+00
          1   -1    0    0  501    0  0.00000000000E+00  0.00000000000E+00  0.29533564865E+02  0.29533564865E+02  0.00000000000E+00 0. -1.
         -1   -1    0    0    0  501 -0.00000000000E+00 -0.00000000000E+00 -0.41449157279E+03  0.41449157279E+03  0.00000000000E+00 0.  1.
          5    1    1    2  502    0  0.44714652762E+02 -0.37144487328E+02 -0.22314365836E+03  0.23062887455E+03  0.41800000000E+01 0. -1.
         -5    1    1    2    0  502 -0.26144302538E+02  0.21463407014E+02 -0.10719657681E+02  0.35729341677E+02  0.41800000000E+01 0. -1.
        -11    1    1    2    0    0 -0.43461277722E+02  0.31122179245E+02 -0.52935659109E+02  0.75230689931E+02  0.00000000000E+00 0. -1.
         11    1    1    2    0    0  0.24890927499E+02 -0.15441098931E+02 -0.98159032778E+02  0.10243623150E+03  0.00000000000E+00 0.  1.
</event>
<event>
 7    1  0.2412631E-010  0.1359879E+03  0.7561462E-02  0.1218832E+00
          1   -1    0    0  501    0  0.00000000000E+00  0.00000000000E+00  0.50873851424E+02  0.50873851424E+02  0.00000000000E+00 0. -1.
         -1   -1    0    0    0  501 -0.00000000000E+00 -0.00000000000E+00 -0.43131799863E+03  0.43131799863E+03  0.00000000000E+00 0.  1.
         25    2    1    2    0    0 -0.92228613231E+02 -0.14797637564E+02 -0.14284984274E+03  0.21164123721E+03  0.12514331200E+03 0.  0.
          5    1    3    3  502    0  0.24911231247E+02  0.76088326406E+01 -0.62323403785E+02  0.67676752550E+02  0.41800000000E+01 0. -1.
         -5    1    3    3    0  502 -0.11713984448E+03 -0.22406470205E+02 -0.80526438954E+02  0.14396448466E+03  0.41800000000E+01 0. -1.
        -11    1    1    2    0    0  0.81996461142E+02  0.45584647615E+02 -0.19988326964E+03  0.22080466757E+03  0.00000000000E+00 0. -1.
         11    1    1    2    0    0  0.10232152090E+02 -0.30787010050E+02 -0.37711034826E+02  0.49745945281E+02  0.00000000000E+00 0.  1.
</event>
<event>
 6    1  0.2412631E-010  0.8560027E+02  0.7561462E-02  0.1313870E+00
         -2   -1    0    0    0  501 -0.00000000000E+00  0.00000000000E+00  0.14860131317E+03  0.14860131317E+03  0.00000000000E+00 0.  1.
          2   -1    0    0  501    0  0.00000000000E+00 -0.00000000000E+00 -0.94768669097E+02  0.94768669097E+02  0.00000000000E+00 0. -1.
          5    1    1    2  502    0  0.56189164444E+02 -0.21663942347E+02  0.41776915700E+02  0.73412067702E+02  0.41800000000E+01 0. -1.
         -5    1    1    2    0  502 -0.34459742519E+02  0.56036009306E+02  0.43354681337E+01  0.66058889465E+02  0.41800000000E+01 0. -1.
        -11    1    1    2    0    0 -0.17908223777E+02 -0.10535486727E+02  0.50594988154E+02  0.54695098370E+02  0.00000000000E+00 0.  1.
         11    1    1    2    0    0 -0.38211981476E+01 -0.23836580232E+02 -0.42874727912E+02  0.49203926733E+02  0.00000000000E+00 0. -1.
</event>
<event>
 6    1  0.2412631E-010  0.1180319E+03  0.7561462E-02  0.1246380E+00
          1   -1    0    0  501    0  0.00000000000E+00  0.00000000000E+00  0.22368076661E+03  0.22368076661E+03  0.00000000000E+00 0. -1.
         -1   -1    0    0    0  501 -0.00000000000E+00 -0.00000000000E+00 -0.13737489923E+03  0.13737489923E+03  0.00000000000E+00 0.  1.
          5    1    1    2  502    0  0.45561826012E+02 -0.88204084964E+02  0.15298692657E+03  0.18242344338E+03  0.41800000000E+01 0.  1.
         -5    1    1    2    0  502 -0.20329642657E+02 -0.79055749833E+01 -0.16489647508E+02  0.27661767140E+02  0.41800000000E+01 0.  1.
        -11    1    1    2    0    0  0.11496842795E+02  0.66007232921E+02 -0.72313543332E+02  0.98581847931E+02  0.00000000000E+00 0.  1.
         11    1    1    2    0    0 -0.36729026149E+02  0.30102427026E+02  0.22122131649E+02  0.52388607382E+02  0.00000000000E+00 0. -1.
</event>
<event>
 7    1  0.2412631E-010  0.1246290E+03  0.7561462E-02  0.1235650E+00
          1   -1    0    0  501    0  0.00000000000E+00  0.00000000000E+00  0.38121936810E+03  0.38121936810E+03  0.00000000000E+00 0. -1.
         -1   -1    0    0    0  501 -0.00000000000E+00 -0.00000000000E+00 -0.49337556989E+02  0.49337556989E+02  0.00000000000E+00 0.  1.
         25    2    1    2    0    0 -0.72705599021E+02  0.72879956994E+01  0.11882850593E+03  0.18738344004E+03  0.12511243251E+03 0.  0.
          5    1    3    3  502    0 -0.13157344050E+02  0.58527894610E+02  0.25489790655E+02  0.65313336904E+02  0.41800000000E+01 0.  1.
         -5    1    3    3    0  502 -0.59548254972E+02 -0.51239898910E+02  0.93338715273E+02  0.12207010313E+03  0.41800000000E+01 0.  1.
        -11    1    1    2    0    0  0.42256089429E+02  0.37365071557E+02  0.67831146707E+02  0.88220123157E+02  0.00000000000E+00 0. -1.
         11    1    1    2    0    0  0.30449509593E+02 -0.44653067256E+02  0.14522215847E+03  0.15495336189E+03  0.00000000000E+00 0.  1.
</event>
<event>
 7    1  0.2412631E-010  0.1213082E+03  0.7561462E-02  0.1240954E+00
         -2   -1    0    0    0  501 -0.00000000000E+00  0.00000000000E+00  0.36373212636E+02  0.36373212636E+02  0.00000000000E+00 0.  1.
          2   -1    0    0  501    0  0.00000000000E+00 -0.00000000000E+00 -0.49471761789E+03  0.49471761789E+03  0.00000000000E+00 0. -1.
         25    2    1    2    0    0 -0.70776138357E+02 -0.29150829549E+02 -0.20214671859E+03  0.24972195470E+03  0.12505489274E+03 0.  0.
          5    1    3    3  502    0 -0.20404024787E+01 -0.60194665612E+02 -0.13797859179E+03  0.15060918034E+03  0.41800000000E+01 0. -1.
         -5    1    3    3    0  502 -0.68735735878E+02  0.31043836063E+02 -0.64168126799E+02  0.99112774359E+02  0.41800000000E+01 0. -1.
        -11    1    1    2    0    0  0.11250331188E+02  0.43950429126E+02 -0.16745045036E+03  0.17348735832E+03  0.00000000000E+00 0. -1.
         11    1    1    2    0    0  0.59525807169E+02 -0.14799599576E+02 -0.88747236299E+02  0.10788151750E+03  0.00000000000E+00 0.  1.
</event>
<event>
 7    1  0.2412631E-010  0.1197443E+03  0.7561462E-02  0.1243519E+00
         -1   -1    0    0    0  501 -0.00000000000E+00  0.00000000000E+00  0.15490829872E+02  0.15490829872E+02  0.00000000000E+00 0.  1.
          1   -1    0    0  501    0  0.00000000000E+00 -0.00000000000E+00 -0.14492357981E+04  0.14492357981E+04  0.00000000000E+00 0. -1.
         25    2    1    2    0    0 -0.98672998320E+02  0.28215440763E+01 -0.84088552635E+03  0.85585598323E+03  0.12512663145E+03 0.  0.
          5    1    3    3  502    0 -0.91766106186E+01 -0.11173766154E+02 -0.62309246126E+01  0.16289875814E+02  0.41800000000E+01 0.  1.
         -5    1    3    3    0  502 -0.89496387701E+02  0.13995310230E+02 -0.83465460174E+03  0.83956610742E+03  0.41800000000E+01 0.  1.
        -11    1    1    2    0    0  0.62609041494E+02  0.42623702030E+02 -0.25296998667E+03  0.26406530671E+03  0.00000000000E+00 0.  1.
         11    1    1    2    0    0  0.36063956826E+02 -0.45445246106E+02 -0.33988945525E+03  0.34480533808E+03  0.00000000000E+00 0. -1.
</event>
<event>
 7    1  0.2412631E-010  0.9475696E+02  0.7561462E-02  0.1291724E+00
          2   -1    0    0  501    0  0.00000000000E+00  0.00000000000E+00  0.46065445532E+03  0.46065445532E+03  0.00000000000E+00 0.  1.
         -2   -1    0    0    0  501 -0.00000000000E+00 -0.00000000000E+00 -0.65143045031E+02  0.65143045031E+02  0.00000000000E+00 0. -1.
         25    2    1    2    0    0  0.84725889728E+02 -0.39118651958E+02  0.35720530943E+03  0.38979708103E+03  0.12504953407E+03 0.  0.
          5    1    3    3  502    0  0.75675815585E+02 -0.38119413505E+02  0.36646364500E+03  0.37615554530E+03  0.41800000000E+01 0.  1.
         -5    1    3    3    0  502  0.90500741433E+01 -0.99923845294E+00 -0.92583355715E+01  0.13641535729E+02  0.41800000000E+01 0.  1.
        -11    1    1    2    0    0 -0.40170618729E+02  0.98875259318E+01  0.64496427823E+02  0.76623958265E+02  0.00000000000E+00 0.  1.
         11    1    1    2    0    0 -0.44555270999E+02  0.29231126026E+02 -0.26190326959E+02  0.59376461066E+02  0.00000000000E+00 0. -1.
</event>
<event>
 6    1  0.2412631E-010  0.1918163E+03  0.7561462E-02  0.1156833E+00
          1   -1    0    0  501    0  0.00000000000E+00  0.00000000000E+00  0.12687319661E+03  0.12687319661E+03  0.00000000000E+00 0. -1.
         -1   -1    0    0    0  501 -0.00000000000E+00 -0.00000000000E+00 -0.42298182285E+03  0.42298182285E+03  0.00000000000E+00 0.  1.
          5    1    1    2  502    0  0.11473523172E+03 -0.88071147066E+01 -0.59634245294E+02  0.12967441644E+03  0.41800000000E+01 0.  1.
         -5    1    1    2    0  502  0.66277435133E+02 -0.43766461909E+02 -0.19636713516E+03  0.21186251619E+03  0.41800000000E+01 0.  1.
        -11    1    1    2    0    0 -0.56920327956E+02  0.22933686551E+02 -0.51655769715E+02  0.80213441880E+02  0.00000000000E+00 0.  1.
         11    1    1    2    0    0 -0.12409233889E+03  0.29639890064E+02  0.11548523931E+02  0.12810464496E+03  0.00000000000E+00 0. -1.
</event>
<event>
 6    1  0.2412631E-010  0.1107155E+03  0.7561462E-02  0.1259251E+00
          3   -1    0    0  501    0  0.00000000000E+00  0.00000000000E+00  0.11237783925E+03  0.11237783925E+03  0.00000000000E+00 0.  1.
         -3   -1    0    0    0  501 -0.00000000000E+00 -0.00000000000E+00 -0.17005176382E+03  0.17005176382E+03  0.00000000000E+00 0. -1.
          5    1    1    2  502    0 -0.49467664908E+02  0.11563048891E+02  0.30545196813E+02  0.59424198939E+02  0.41800000000E+01 0.  1.
         -5    1    1    2    0  502  0.62327442979E+02 -0.44594010735E+02  0.17273101726E+02  0.78671267849E+02  0.41800000000E+01 0.  1.
        -11    1    1    2    0    0 -0.50174246684E+02  0.22085328775E+02 -0.38899864203E+02  0.67219165514E+02  0.00000000000E+00 0.  1.
         11    1    1    2    0    0  0.37314468613E+02  0.10945633069E+02 -0.66592358911E+02  0.77114970768E+02  0.00000000000E+00 0. -1.
</event>
<event>
 6    1  0.2412631E-010  0.1232069E+03  0.7561462E-02  0.1237898E+00
         -2   -1    0    0    0  501 -0.00000000000E+00  0.00000000000E+00  0.25033167705E+02  0.25033167705E+02  0.00000000000E+00 0.  1.
          2   -1    0    0  501    0  0.00000000000E+00 -0.00000000000E+00 -0.61719959346E+03  0.61719959346E+03  0.00000000000E+00 0. -1.
          5    1    1    2  502    0  0.20164370471E+02 -0.55090176178E+02 -0.14808916331E+03  0.15934052227E+03  0.41800000000E+01 0.  1.
         -5    1    1    2    0  502 -0.73689693210E+02  0.29847521462E+02 -0.20824080782E+03  0.22294113991E+03  0.41800000000E+01 0.  1.
        -11    1    1    2    0    0  0.66493689937E+02  0.47851426614E+02 -0.15986367543E+03  0.17963174706E+03  0.00000000000E+00 0.  1.
         11    1    1    2    0    0 -0.12968367197E+02 -0.22608771898E+02 -0.75972779206E+02  0.80319351931E+02  0.00000000000E+00 0. -1.
</event>
<event>
 6    1  0.2412631E-010  0.1249825E+03  0.7561462E-02  0.1235097E+00
         -3   -1    0    0    0  501 -0.00000000000E+00  0.00000000000E+00  0.24068466872E+03  0.24068466872E+03  0.00000000000E+00 0.  1.
          3   -1    0    0  501    0  0.00000000000E+00 -0.00000000000E+00 -0.13989171067E+03  0.13989171067E+03  0.00000000000E+00 0. -1.
          5    1    1    2  502    0 -0.62569253467E+02 -0.74929816894E+02  0.49019232381E+02  0.10931489598E+03  0.41800000000E+01 0.  1.
         -5    1    1    2    0  502 -0.33183647051E+02  0.28533666558E+02  0.11372852379E+03  0.12193020169E+03  0.41800000000E+01 0.  1.
        -11    1    1    2    0    0  0.72638071894E+02  0.44306154357E+02 -0.82368125269E+02  0.11842226506E+03  0.00000000000E+00 0.  1.
         11    1    1    2    0    0  0.23114828624E+02  0.20899959786E+01  0.20413327147E+02  0.30909016657E+02  0.00000000000E+00 0. -1.
</event>
<event>
 7    1  0.2412631E-010  0.1054988E+03  0.7561462E-02  0.1269140E+00
          2   -1    0    0  501    0  0.00000000000E+00  0.00000000000E+00  0.16054889123E+02  0.16054889123E+02  0.00000000000E+00 0. -1.
         -2   -1    0    0    0  501 -0.00000000000E+00 -0.00000000000E+00 -0.12585087633E+04  0.12585087633E+04  0.00000000000E+00 0.  1.
         25    2    1    2    0    0  0.43013267844E+02  0.48927432009E+02 -0.95323293827E+03  0.96361332587E+03  0.12511423734E+03 0.  0.
          5    1    3    3  502    0  0.74711446584E+02  0.36978864583E+01 -0.35487086885E+03  0.36269309419E+03  0.41800000000E+01 0.  1.
         -5    1    3    3    0  502 -0.31698178741E+02  0.45229545551E+02 -0.59836206942E+03  0.60092023168E+03  0.41800000000E+01 0.  1.
        -11    1    1    2    0    0 -0.52484681174E+02 -0.32517268258E+02 -0.28490425916E+03  0.29151749755E+03  0.00000000000E+00 0.  1.
         11    1    1    2    0    0  0.94714133306E+01 -0.16410163751E+02 -0.43166767560E+01  0.19432829003E+02  0.00000000000E+00 0. -1.
</event>
<event>
 7    1  0.2412631E-010  0.1236401E+03  0.7561462E-02  0.1237210E+00
          1   -1    0    0  501    0  0.00000000000E+00  0.00000000000E+00  0.27256737399E+03  0.27256737399E+03  0.00000000000E+00 0. -1.
         -1   -1    0    0    0  501 -0.00000000000E+00 -0.00000000000E+00 -0.71718074787E+02  0.71718074787E+02  0.00000000000E+00 0.  1.
         25    2    1    2    0    0  0.72271582040E+02  0.35819652365E+02  0.15274516934E+03  0.21323760316E+03  0.12503183426E+03 0.  0.
          5    1    3    3  502    0  0.94127142306E+02 -0.91925071639E+01  0.12177261076E+03  0.15424157105E+03  0.41800000000E+01 0.  1.
         -5    1    3    3    0  502 -0.21855560266E+02  0.45012159529E+02  0.30972558577E+02  0.58996032111E+02  0.41800000000E+01 0.  1.
        -11    1    1    2    0    0  0.24883291065E+01 -0.27009450579E+02  0.48727502930E+02  0.55768017215E+02  0.00000000000E+00 0. -1.
         11    1    1    2    0    0 -0.74759911146E+02 -0.88102017869E+01 -0.62337307016E+00  0.75279828401E+02  0.00000000000E+00 0.  1.
</event>
<event>
 6    1  0.2412631E-010  0.1088627E+03  0.7561462E-02  0.1262691E+00
         -2   -1    0    0    0  501 -0.00000000000E+00  0.00000000000E+00  0.18053926049E+03  0.18053926049E+03  0.00000000000E+00 0.  1.
          2   -1    0    0  501    0  0.00000000000E+00 -0.00000000000E+00 -0.76160891949E+02  0.76160891949E+02  0.00000000000E+00 0. -1.
          5    1    1    2  502    0  0.48482269314E+02 -0.18806439564E+02  0.63293358002E+02  0.82022766193E+02  0.41800000000E+01 0. -1.
         -5    1    1    2    0  502 -0.71174009255E+02  0.37556733710E+01  0.36176596293E+02  0.80037885999E+02  0.41800000000E+01 0. -1.
        -11    1    1    2    0    0  0.17508486394E+02 -0.37483348550E+02  0.62094924476E+01  0.41834271965E+02  0.00000000000E+00 0.  1.
         11    1    1    2    0    0  0.51832535478E+01  0.52534114743E+02 -0.13010782020E+01  0.52805228280E+02  0.00000000000E+00 0. -1.
</event>
<event>
 7    1  0.2412631E-010  0.6725216E+02  0.7561462E-02  0.1369695E+00
         -2   -1    0    0    0  501 -0.00000000000E+00  0.00000000000E+00  0.38635517540E+03  0.38635517540E+03  0.00000000000E+00 0.  1.
          2   -1    0    0  501    0  0.00000000000E+00 -0.00000000000E+00 -0.33460655613E+02  0.33460655613E+02  0.00000000000E+00 0. -1.
         25    2    1    2    0    0 -0.97017631469E+01  0.24752924123E+02  0.16628485690E+03  0.20978615192E+03  0.12511092855E+03 0.  0.
          5    1    3    3  502    0  0.44129817999E+01  0.43012363083E+02  0.17824250372E+03  0.18345953319E+03  0.41800000000E+01 0. -1.
         -5    1    3    3    0  502 -0.14114744947E+02 -0.18259438960E+02 -0.11957646822E+02  0.26326618727E+02  0.41800000000E+01 0. -1.
        -11    1    1    2    0    0  0.32070891281E+02  0.27156717642E+01  0.16590497258E+03  0.16899815640E+03  0.00000000000E+00 0.  1.
         11    1    1    2    0    0 -0.22369128134E+02 -0.27468595887E+02  0.20704690306E+02  0.41031522689E+02  0.00000000000E+00 0. -1.
</event>
<event>
 6    1  0.2412631E-010  0.2002331E+03  0.7561462E-02  0.1149543E+00
         -2   -1    0    0    0  501 -0.00000000000E+00  0.00000000000E+00  0.15079003364E+03  0.15079003364E+03  0.00000000000E+00 0.  1.
          2   -1    0    0  501    0  0.00000000000E+00 -0.00000000000E+00 -0.26930322338E+03  0.26930322338E+03  0.00000000000E+00 0. -1.
          5    1    1    2  502    0  0.57330144018E+02 -0.13934810315E+03 -0.51560151948E+02  0.15931277706E+03  0.41800000000E+01 0. -1.
         -5    1    1    2    0  502 -0.50446934482E+02 -0.29372236998E+02 -0.74383621784E+01  0.58995111126E+02  0.41800000000E+01 0. -1.
        -11    1    1    2    0    0  0.41146867823E+02  0.90481470545E+02 -0.43903558284E+02  0.10866224585E+03  0.00000000000E+00 0.  1.
         11    1    1    2    0    0 -0.48030077359E+02  0.78238869607E+02 -0.15611117327E+02  0.93123122976E+02  0.00000000000E+00 0. -1.
</event>
<event>
 6    1  0.2412631E-010  0.1328256E+03  0.7561462E-02  0.1223322E+00
          1   -1    0    0  501    0  0.00000000000E+00  0.00000000000E+00  0.11140603676E+03  0.11140603676E+03  0.00000000000E+00 0. -1.
         -1   -1    0    0    0  501 -0.00000000000E+00 -0.00000000000E+00 -0.20108814012E+03  0.20108814012E+03  0.00000000000E+00 0.  1.
          5    1    1    2  502    0 -0.50161756248E+02 -0.71418922715E+02  0.26948830462E+02  0.91436186354E+02  0.41800000000E+01 0. -1.
         -5    1    1    2    0  502  0.40162940119E+02 -0.28652219799E+02 -0.50430686035E+02  0.70673460028E+02  0.41800000000E+01 0. -1.
        -11    1    1    2    0    0 -0.35108872414E+02  0.52956617831E+02 -0.10067983692E+02  0.64330401755E+02  0.00000000000E+00 0.  1.
         11    1    1    2    0    0  0.45107688543E+02  0.47114524683E+02 -0.56132264093E+02  0.86054128744E+02  0.00000000000E+00 0. -1.
</event>
<event>
 6    1  0.2412631E-010  0.1704162E+03  0.7561462E-02  0.1177414E+00
          2   -1    0    0  501    0  0.00000000000E+00  0.00000000000E+00  0.10097593098E+04  0.10097593098E+04  0.00000000000E+00 0. -1.
         -2   -1    0    0    0  501 -0.00000000000E+00 -0.00000000000E+00 -0.32716280956E+02  0.32716280956E+02  0.00000000000E+00 0.  1.
          5    1    1    2  502    0  0.48989257488E+02 -0.10653626506E+03  0.23458155939E+03  0.26228973203E+03  0.41800000000E+01 0. -1.
         -5    1    1    2    0  502  0.53544147021E+02  0.43115941808E+01  0.31784790553E+03  0.32238227150E+03  0.41800000000E+01 0. -1.
        -11    1    1    2    0    0 -0.88467090829E+02  0.26145884566E+02  0.26090678411E+03  0.27673522261E+03  0.00000000000E+00 0. -1.
         11    1    1    2    0    0 -0.14066313681E+02  0.76078786317E+02  0.16370677979E+03  0.18106836459E+03  0.00000000000E+00 0.  1.
</event>
<event>
 7    1  0.2412631E-010  0.2080026E+03  0.7561462E-02  0.1143158E+00
         -2   -1    0    0    0  501 -0.00000000000E+00  0.00000000000E+00  0.18093269473E+03  0.18093269473E+03  0.00000000000E+00 0.  1.
          2   -1    0    0  501    0  0.00000000000E+00 -0.00000000000E+00 -0.27269481460E+03  0.27269481460E+03  0.00000000000E+00 0. -1.
         25    2    1    2    0    0  0.33276667472E+02  0.18722421070E+03 -0.79363082319E+02  0.24102333021E+03  0.12503401616E+03 0.  0.
          5    1    3    3  502    0 -0.27047538611E+02  0.14150637856E+03 -0.21645205123E+02  0.14574502332E+03  0.41800000000E+01 0.  1.
         -5    1    3    3    0  502  0.60324206082E+02  0.45717832143E+02 -0.57717877196E+02  0.95278306887E+02  0.41800000000E+01 0.  1.
        -11    1    1    2    0    0  0.90852311122E+00 -0.12556626087E+03  0.31620318206E+02  0.12948959730E+03  0.00000000000E+00 0.  1.
         11    1    1    2    0    0 -0.34185190583E+02 -0.61657949826E+02 -0.44019355759E+02  0.83114581833E+02  0.00000000000E+00 0. -1.
</event>
<event>
 6    1  0.2412631E-010  0.1153539E+03  0.7561462E-02  0.1250965E+00
          1   -1    0    0  501    0  0.00000000000E+00  0.00000000000E+00  0.11215081325E+03  0.11215081325E+03  0.00000000000E+00 0. -1.
         -1   -1    0    0    0  501 -0.00000000000E+00 -0.00000000000E+00 -0.17306151666E+03  0.17306151666E+03  0.00000000000E+00 0.  1.
          5    1    1    2  502    0 -0.79049920679E+01 -0.28637726038E+02  0.20871128407E+02  0.36547019758E+02  0.41800000000E+01 0. -1.
         -5    1    1    2    0  502 -0.93553572110E+01  0.11039380357E+03 -0.28714390099E+02  0.11452643002E+03  0.41800000000E+01 0. -1.
        -11    1    1    2    0    0  0.24678723561E+02 -0.37024649129E+02 -0.72292966388E+02  0.84888968830E+02  0.00000000000E+00 0.  1.
         11    1    1    2    0    0 -0.74183742819E+01 -0.44731428400E+02  0.19225524673E+02  0.49249911296E+02  0.00000000000E+00 0. -1.
</event>
<event>
 7    1  0.2412631E-010  0.1397789E+03  0.7561462E-02  0.1213627E+00
          2   -1    0    0  501    0  0.00000000000E+00  0.00000000000E+00  0.40932317135E+03  0.40932317135E+03  0.00000000000E+00 0. -1.
         -2   -1    0    0    0  501 -0.00000000000E+00 -0.00000000000E+00 -0.58385771275E+02  0.58385771275E+02  0.00000000000E+00 0.  1.
         25    2    1    2    0    0  0.28949362725E+02  0.97327985821E+02  0.12272100889E+03  0.20256367848E+03  0.12514309965E+03 0.  0.
          5    1    3    3  502    0  0.55562323330E+02  0.10323141768E+03  0.55239147413E+02  0.12966392396E+03  0.41800000000E+01 0.  1.
         -5    1    3    3    0  502 -0.26612960605E+02 -0.59034318615E+01  0.67481861476E+02  0.72899754513E+02  0.41800000000E+01 0.  1.
        -11    1    1    2    0    0  0.11992872556E+02 -0.92694161108E+02  0.16644809120E+03  0.19089526856E+03  0.00000000000E+00 0. -1.
         11    1    1    2    0    0 -0.40942235282E+02 -0.46338247129E+01  0.61768299987E+02  0.74249995586E+02  0.00000000000E+00 0.  1.
</event>
<event>
 6    1  0.2412631E-010  0.1274042E+03  0.7561462E-02  0.1231359E+00
          2   -1    0    0  501    0  0.00000000000E+00  0.00000000000E+00  0.99909305655E+03  0.99909305655E+03  0.00000000000E+00 0. -1.
         -2   -1    0    0    0  501 -0.00000000000E+00 -0.00000000000E+00 -0.19973537483E+02  0.19973537483E+02  0.00000000000E+00 0.  1.
          5    1    1    2  502    0 -0.51730536005E+02  0.51546003146E+02  0.49505771298E+03  0.50043246335E+03  0.41800000000E+01 0. -1.
         -5    1    1    2    0  502  0.59330502074E+02  0.26487395436E+02  0.20301225300E+03  0.21319741523E+03  0.41800000000E+01 0. -1.
        -11    1    1    2    0    0  0.24073522837E+02  0.76036025866E+01  0.36347892108E+02  0.44255152636E+02  0.00000000000E+00 0. -1.
         11    1    1    2    0    0 -0.31673488906E+02 -0.85637001168E+02  0.24470166098E+03  0.26118156282E+03  0.00000000000E+00 0.  1.
</event>
<event>
 7    1  0.2412631E-010  0.1100226E+03  0.7561462E-02  0.1260528E+00
          2   -1    0    0  501    0  0.00000000000E+00  0.00000000000E+00  0.14600999085E+04  0.14600999085E+04  0.00000000000E+00 0. -1.
         -2   -1    0    0    0  501 -0.00000000000E+00 -0.00000000000E+00 -0.97583791638E+01  0.97583791638E+01  0.00000000000E+00 0.  1.
         25    2    1    2    0    0  0.28408101146E+02  0.77439422371E+01  0.10600359040E+04  0.10677997250E+04  0.12511253410E+03 0.  0.
          5    1    3    3  502    0 -0.27034846690E+02  0.48044754944E+02  0.61718831243E+03  0.61965963788E+03  0.41800000000E+01 0.  1.
         -5    1    3    3    0  502  0.55442947836E+02 -0.40300812707E+02  0.44284759157E+03  0.44814008717E+03  0.41800000000E+01 0.  1.
        -11    1    1    2    0    0  0.14962797601E+02 -0.39562570064E+02  0.15355403589E+03  0.15927311198E+03  0.00000000000E+00 0.  1.
         11    1    1    2    0    0 -0.43370898747E+02  0.31818627827E+02  0.23675158943E+03  0.24278545062E+03  0.00000000000E+00 0. -1.
</event>
<event>
 7    1  0.2412631E-010  0.7691593E+02  0.7561462E-02  0.1338039E+00
          1   -1    0    0  501    0  0.00000000000E+00  0.00000000000E+00  0.72937701591E+03  0.72937701591E+03  0.00000000000E+00 0. -1.
         -1   -1    0    0    0  501 -0.00000000000E+00 -0.00000000000E+00 -0.25248482318E+02  0.25248482318E+02  0.00000000000E+00 0.  1.
         25    2    1    2    0    0 -0.31653702302E+02 -0.64782723511E+02  0.49323584697E+03  0.51392580999E+03  0.12505750400E+03 0.  0.
          5    1    3    3  502    0 -0.35143511663E+02 -0.40724918677E+02  0.62843910915E+02  0.82827621917E+02  0.41800000000E+01 0. -1.
         -5    1    3    3    0  502  0.34898093607E+01 -0.24057804834E+02  0.43039193605E+03  0.43109818808E+03  0.41800000000E+01 0. -1.
        -11    1    1    2    0    0  0.12701953853E+02  0.48780971811E+02  0.20990884243E+03  0.21587645766E+03  0.00000000000E+00 0. -1.
         11    1    1    2    0    0  0.18951748450E+02  0.16001751700E+02  0.98384419451E+00  0.24823230575E+02  0.00000000000E+00 0.  1.
</event>
<event>
 6    1  0.2412631E-010  0.9952361E+02  0.7561462E-02  0.1281301E+00
         -2   -1    0    0    0  501 -0.00000000000E+00  0.00000000000E+00  0.95024595119E+02  0.95024595119E+02  0.00000000000E+00 0. -1.
          2   -1    0    0  501    0  0.00000000000E+00 -0.00000000000E+00 -0.22435598853E+03  0.22435598853E+03  0.00000000000E+00 0.  1.
          5    1    1    2  502    0  0.18437594224E+02  0.10346478438E+02  0.39298622791E+02  0.44820181281E+02  0.41800000000E+01 0.  1.
         -5    1    1    2    0  502  0.16949231555E+02 -0.89290773829E+02 -0.59829256238E+02  0.10889045433E+03  0.41800000000E+01 0.  1.
        -11    1    1    2    0    0 -0.27468139580E+02  0.60696070078E+02 -0.12391360387E+03  0.14068792713E+03  0.00000000000E+00 0.  1.
         11    1    1    2    0    0 -0.79186861990E+01  0.18248225313E+02  0.15112843905E+02  0.24982020917E+02  0.00000000000E+00 0. -1.
</event>
<event>
 7    1  0.2412631E-010  0.1028657E+03  0.7561462E-02  0.1274383E+00
          3   -1    0    0  501    0  0.00000000000E+00  0.00000000000E+00  0.33466661524E+02  0.33466661524E+02  0.00000000000E+00 0. -1.
         -3   -1    0    0    0  501 -0.00000000000E+00 -0.00000000000E+00 -0.52973169484E+03  0.52973169484E+03  0.00000000000E+00 0.  1.
         25    2    1    2    0    0  0.43959733469E+02 -0.50608449364E+02 -0.34805544450E+03  0.37586830365E+03  0.12506284792E+03 0.  0.
          5    1    3    3  502    0  0.26451188853E+02  0.29634269669E+02 -0.22058842689E+03  0.22417533720E+03  0.41800000000E+01 0. -1.
         -5    1    3    3    0  502  0.17508544615E+02 -0.80242719033E+02 -0.12746701761E+03  0.15169296645E+03  0.41800000000E+01 0. -1.
        -11    1    1    2    0    0  0.11261199920E+02  0.85678186252E+01  0.81006922644E+01  0.16304703456E+02  0.00000000000E+00 0. -1.
         11    1    1    2    0    0 -0.55220933389E+02  0.42040630739E+02 -0.15631028108E+03  0.17102534926E+03  0.00000000000E+00 0.  1.
</event>
<event>
 7    1  0.2412631E-010  0.6128378E+02  0.7561462E-02  0.1392522E+00
          1   -1    0    0  501    0  0.00000000000E+00  0.00000000000E+00  0.19149541162E+03  0.19149541162E+03  0.00000000000E+00 0. -1.
         -1   -1    0    0    0  501 -0.00000000000E+00 -0.00000000000E+00 -0.10270881246E+03  0.10270881246E+03  0.00000000000E+00 0.  1.
         25    2    1    2    0    0  0.15841746782E+02  0.17522540278E+02  0.13811517672E+03  0.18781841011E+03  0.12506779273E+03 0.  0.
          5    1    3    3  502    0  0.13607643643E+02  0.52960028010E+02  0.11211036250E+02  0.55974032069E+02  0.41800000000E+01 0. -1.
         -5    1    3    3    0  502  0.22341031398E+01 -0.35437487731E+02  0.12690414047E+03  0.13184437804E+03  0.41800000000E+01 0. -1.
        -11    1    1    2    0    0 -0.18239017326E+02 -0.45708605642E+01  0.24785327269E+02  0.31110560380E+02  0.00000000000E+00 0. -1.
         11    1    1    2    0    0  0.23972705433E+01 -0.12951679714E+02 -0.74113904825E+02  0.75275253582E+02  0.00000000000E+00 0.  1.
</event>
<event>
 7    1  0.3724972E-010  0.1333044E+03  0.7561462E-02  0.1222633E+00
          1   -1    0    0  501    0  0.00000000000E+00  0.00000000000E+00  0.80105228811E+02  0.80105228811E+02  0.00000000000E+00 0. -1.
         -1   -1    0    0    0  501 -0.00000000000E+00 -0.00000000000E+00 -0.29659025154E+03  0.29659025154E+03  0.00000000000E+00 0.  1.
         25    2    1    2    0    0  0.96986161904E+02 -0.27063000599E+02 -0.64151943757E+02  0.17295487273E+03  0.12513670329E+03 0.  0.
          5    1    3    3  502    0  0.28631977071E+02  0.47792518204E+02 -0.39863680815E+02  0.68633084991E+02  0.41800000000E+01 0.  1.
         -5    1    3    3    0  502  0.68354184833E+02 -0.74855518803E+02 -0.24288262942E+02  0.10432178774E+03  0.41800000000E+01 0.  1.
        -11    1    1    2    0    0 -0.65055283791E+02 -0.34122036306E+01 -0.26390778956E+02  0.70287312487E+02  0.00000000000E+00 0. -1.
         11    1    1    2    0    0 -0.31930878113E+02  0.30475204230E+02 -0.12594230002E+03  0.13345329514E+03  0.00000000000E+00 0.  1.
</event>
<event>
 7    1  0.2412631E-010  0.1824223E+03  0.7561462E-02  0.1165479E+00
         -3   -1    0    0    0  501 -0.00000000000E+00  0.00000000000E+00  0.27456234863E+03  0.27456234863E+03  0.00000000000E+00 0.  1.
          3   -1    0    0  501    0  0.00000000000E+00 -0.00000000000E+00 -0.14255465442E+03  0.14255465442E+03  0.00000000000E+00 0. -1.
         25    2    1    2    0    0 -0.84189755878E+02  0.14152973209E+03  0.50897132455E+02  0.21299613508E+03  0.12513295091E+03 0.  0.
          5    1    3    3  502    0 -0.10005341716E+03  0.62640604175E+02  0.58961268093E+02  0.13201679860E+03  0.41800000000E+01 0. -1.
         -5    1    3    3    0  502  0.15863661283E+02  0.78889127917E+02 -0.80641356380E+01  0.80979336478E+02  0.41800000000E+01 0. -1.
        -11    1    1    2    0    0  0.39883181046E+02 -0.46250130686E+02  0.77911554260E+02  0.98994712010E+02  0.00000000000E+00 0.  1.
         11    1    1    2    0    0  0.44306574832E+02 -0.95279601405E+02  0.31990074966E+01  0.10512615596E+03  0.00000000000E+00 0. -1.
</event>
<event>
 7    1  0.2749489E-010  0.1437499E+03  0.7561462E-02  0.1208370E+00
          2   -1    0    0  501    0  0.00000000000E+00  0.00000000000E+00  0.57980742221E+03  0.57980742221E+03  0.00000000000E+00 0. -1.
         -2   -1    0    0    0  501 -0.00000000000E+00 -0.00000000000E+00 -0.49671581280E+02  0.49671581280E+02  0.00000000000E+00 0.  1.
         25    2    1    2    0    0 -0.11815878063E+03  0.53814728632E+02  0.27416020104E+03  0.32813732576E+03  0.12511101576E+03 0.  0.
          5    1    3    3  502    0 -0.99474896680E+02  0.44228480658E+02  0.28429045354E+03  0.30445023886E+03  0.41800000000E+01 0.  1.
         -5    1    3    3    0  502 -0.18683883954E+02  0.95862479741E+01 -0.10130252502E+02  0.23687086895E+02  0.41800000000E+01 0.  1.
        -11    1    1    2    0    0  0.36143040656E+02 -0.64996079226E+02  0.98335113150E+02  0.12329073031E+03  0.00000000000E+00 0.  1.
         11    1    1    2    0    0  0.82015739978E+02  0.11181350593E+02  0.15764052674E+03  0.17805094742E+03  0.00000000000E+00 0. -1.
</event>
<event>
 6    1  0.2412631E-010  0.1710106E+03  0.7561462E-02  0.1176798E+00
          1   -1    0    0  501    0  0.00000000000E+00  0.00000000000E+00  0.12712627585E+04  0.12712627585E+04  0.00000000000E+00 0. -1.
         -1   -1    0    0    0  501 -0.00000000000E+00 -0.00000000000E+00 -0.29117727784E+02  0.29117727784E+02  0.00000000000E+00 0.  1.
          5    1    1    2  502    0 -0.60446443566E+01 -0.65633169531E+02  0.53210143851E+03  0.53618435630E+03  0.41800000000E+01 0.  1.
         -5    1    1    2    0  502 -0.38590295875E+02 -0.85743983119E+02  0.16960095227E+03  0.19396699974E+03  0.41800000000E+01 0.  1.
        -11    1    1    2    0    0  0.29055537403E+02 -0.62147324721E+00  0.82618607753E+02  0.87581075751E+02  0.00000000000E+00 0. -1.
         11    1    1    2    0    0  0.15579402829E+02  0.15199862590E+03  0.45782403214E+03  0.48264805445E+03  0.00000000000E+00 0.  1.
</event>
<event>
 6    1  0.2412631E-010  0.1181382E+03  0.7561462E-02  0.1246200E+00
          2   -1    0    0  501    0  0.00000000000E+00  0.00000000000E+00  0.95033535163E+03  0.95033535163E+03  0.00000000000E+00 0. -1.
         -2   -1    0    0    0  501 -0.00000000000E+00 -0.00000000000E+00 -0.19747575815E+02  0.19747575815E+02  0.00000000000E+00 0.  1.
          5    1    1    2  502    0 -0.41822232172E+02  0.60867557910E+02  0.50114158028E+03  0.50657113479E+03  0.41800000000E+01 0.  1.
         -5    1    1    2    0  502 -0.33234887780E+02 -0.21920892829E+02  0.45717778804E+02  0.60767351488E+02  0.41800000000E+01 0.  1.
        -11    1    1    2    0    0  0.74125610022E+02 -0.63559839324E+02  0.30914550499E+03  0.32419963370E+03  0.00000000000E+00 0. -1.
         11    1    1    2    0    0  0.93150992984E+00  0.24613174243E+02  0.74582911739E+02  0.78544807470E+02  0.00000000000E+00 0.  1.
</event>
<event>
 7    1  0.2412631E-010  0.1320844E+03  0.7561462E-02  0.1224395E+00
          2   -1    0    0  501    0  0.00000000000E+00  0.00000000000E+00  0.23695480033E+03  0.23695480033E+03  0.00000000000E+00 0. -1.
         -2   -1    0    0    0  501 -0.00000000000E+00 -0.00000000000E+00 -0.94845140328E+02  0.94845140328E+02  0.00000000000E+00 0.  1.
         25    2    1    2    0    0 -0.96615669964E+02 -0.14678598033E+02  0.39920942274E+02  0.16365772220E+03  0.12506046330E+03 0.  0.
          5    1    3    3  502    0 -0.57963483221E+02  0.41280599215E+02 -0.18785263923E+02  0.73717106558E+02  0.41800000000E+01 0. -1.
         -5    1    3    3    0  502 -0.38652186744E+02 -0.55959197248E+02  0.58706206197E+02  0.89940615646E+02  0.41800000000E+01 0. -1.
        -11    1    1    2    0    0  0.50149796627E+02  0.46530908765E+02  0.25552524007E+02  0.73027796457E+02  0.00000000000E+00 0.  1.
         11    1    1    2    0    0  0.46465873337E+02 -0.31852310732E+02  0.76636193725E+02  0.95114422001E+02  0.00000000000E+00 0. -1.
</event>
<event>
 7    1  0.2412631E-010  0.1208089E+03  0.7561462E-02  0.1241768E+00
         -2   -1    0    0    0  501 -0.00000000000E+00  0.00000000000E+00  0.32091892702E+03  0.32091892702E+03  0.00000000000E+00 0.  1.
          2   -1    0    0  501    0  0.00000000000E+00 -0.00000000000E+00 -0.53088553797E+02  0.53088553797E+02  0.00000000000E+00 0. -1.
         25    2    1    2    0    0  0.90573283488E+01 -0.68314522833E+02  0.19470709893E+03  0.24145682595E+03  0.12506652310E+03 0.  0.
          5    1    3    3  502    0  0.36212873123E+02  0.24207052956E+02  0.83011859511E+02  0.93839196566E+02  0.41800000000E+01 0. -1.
         -5    1    3    3    0  502 -0.27155544774E+02 -0.92521575789E+02  0.11169523941E+03  0.14761762939E+03  0.41800000000E+01 0. -1.
        -11    1    1    2    0    0 -0.21610887427E+02 -0.87124060631E+01 -0.30444035243E+01  0.23499039717E+02  0.00000000000E+00 0. -1.
         11    1    1    2    0    0  0.12553559078E+02  0.77026928896E+02  0.76167677817E+02  0.10905161514E+03  0.00000000000E+00 0.  1.
</event>
<event>
 7    1  0.2412631E-010  0.1555344E+03  0.7561462E-02  0.1193833E+00
         -1   -1    0    0    0  501 -0.00000000000E+00  0.00000000000E+00  0.32617347131E+02  0.32617347131E+02  0.00000000000E+00 0.  1.
          1   -1    0    0  501    0  0.00000000000E+00 -0.00000000000E+00 -0.92781311322E+03  0.92781311322E+03  0.00000000000E+00 0. -1.
         25    2    1    2    0    0  0.10983944353E+03 -0.38450693492E+02 -0.28689801260E+03  0.33393859199E+03  0.12514533311E+03 0.  0.
          5    1    3    3  502    0  0.32457537570E+02 -0.77472317832E+02 -0.14422810170E+03  0.16695708878E+03  0.41800000000E+01 0. -1.
         -5    1    3    3    0  502  0.77381905961E+02  0.39021624339E+02 -0.14266991090E+03  0.16698150321E+03  0.41800000000E+01 0. -1.
        -11    1    1    2    0    0 -0.56643860328E+02  0.60266927977E+02 -0.46118911787E+03  0.46854672336E+03  0.00000000000E+00 0. -1.
         11    1    1    2    0    0 -0.53195583203E+02 -0.21816234484E+02 -0.14710863562E+03  0.15794514501E+03  0.00000000000E+00 0.  1.
</event>
<event>
 6    1  0.2412631E-010  0.1100112E+03  0.7561462E-02  0.1260549E+00
         -2   -1    0    0    0  501 -0.00000000000E+00  0.00000000000E+00  0.21966046008E+02  0.21966046008E+02  0.00000000000E+00 0.  1.
          2   -1    0    0  501    0  0.00000000000E+00 -0.00000000000E+00 -0.65712117027E+03  0.65712117027E+03  0.00000000000E+00 0. -1.
          5    1    1    2  502    0  0.55837413776E+02  0.16956630436E+02 -0.10255425049E+03  0.11806858510E+03  0.41800000000E+01 0.  1.
         -5    1    1    2    0  502 -0.67453803340E+02  0.27160853857E+02 -0.18635567123E+03  0.20008407275E+03  0.41800000000E+01 0.  1.
        -11    1    1    2    0    0  0.13514573096E+02  0.20217096577E+02 -0.32141730441E+02  0.40304658735E+02  0.00000000000E+00 0.  1.
         11    1    1    2    0    0 -0.18981835330E+01 -0.64334580871E+02 -0.31410347209E+03  0.32062989969E+03  0.00000000000E+00 0. -1.
</event>
<event>
 7    1  0.2412631E-010  0.1349655E+03  0.7561462E-02  0.1220268E+00
          2   -1    0    0  501    0  0.00000000000E+00  0.00000000000E+00  0.40901121807E+03  0.40901121807E+03  0.00000000000E+00 0. -1.
         -2   -1    0    0    0  501 -0.00000000000E+00 -0.00000000000E+00 -0.60596301488E+02  0.60596301488E+02  0.00000000000E+00 0.  1.
         25    2    1    2    0    0  0.12104460292E+02 -0.10552376392E+03  0.12688665867E+03  0.20741813726E+03  0.12506109229E+03 0.  0.
          5    1    3    3  502    0  0.50008838299E+02 -0.26307863803E+02  0.10093472679E+03  0.11575093554E+03  0.41800000000E+01 0.  1.
         -5    1    3    3    0  502 -0.37904378007E+02 -0.79215900117E+02  0.25951931881E+02  0.91667201723E+02  0.41800000000E+01 0.  1.
        -11    1    1    2    0    0  0.22758658837E+02  0.12399953617E+02  0.10892662093E+03  0.11196751381E+03  0.00000000000E+00 0. -1.
         11    1    1    2    0    0 -0.34863119130E+02  0.93123810303E+02  0.11260163698E+03  0.15022186849E+03  0.00000000000E+00 0.  1.
</event>
<event>
 7    1  0.2412631E-010  0.1249954E+03  0.7561462E-02  0.1235077E+00
          2   -1    0    0  501    0  0.00000000000E+00  0.00000000000E+00  0.62990001897E+03  0.62990001897E+03  0.00000000000E+00 0.  1.
         -2   -1    0    0    0  501 -0.00000000000E+00 -0.00000000000E+00 -0.37938968584E+02  0.37938968584E+02  0.00000000000E+00 0. -1.
         25    2    1    2    0    0  0.10265065247E+03  0.41337931915E+02  0.28301815969E+03  0.32863493382E+03  0.12512257965E+03 0.  0.
          5    1    3    3  502    0  0.81053498017E+02  0.46837196339E+02  0.29011685927E+03  0.30487482175E+03  0.41800000000E+01 0. -1.
         -5    1    3    3    0  502  0.21597154455E+02 -0.54992644239E+01 -0.70986995779E+01  0.23760112067E+02  0.41800000000E+01 0. -1.
        -11    1    1    2    0    0 -0.12003168168E+02 -0.41251190723E+02  0.56494708150E+02  0.70974564677E+02  0.00000000000E+00 0.  1.
         11    1    1    2    0    0 -0.90647484304E+02 -0.86741192431E-01  0.25244818254E+03  0.26822948906E+03  0.00000000000E+00 0. -1.
</event>
<event>
 6    1  0.2412631E-010  0.1130330E+03  0.7561462E-02  0.1255054E+00
         -1   -1    0    0    0  501 -0.00000000000E+00  0.00000000000E+00  0.17212153910E+02  0.17212153910E+02  0.00000000000E+00 0.  1.
          1   -1    0    0  501    0  0.00000000000E+00 -0.00000000000E+00 -0.80994762175E+03  0.80994762175E+03  0.00000000000E+00 0. -1.
          5    1    1    2  502    0 -0.41519109224E+02  0.26072433912E+02 -0.21637804235E+03  0.22190209069E+03  0.41800000000E+01 0.  1.
         -5    1    1    2    0  502  0.82006896269E+02  0.90302625084E+00 -0.22890565016E+03  0.24318966994E+03  0.41800000000E+01 0.  1.
        -11    1    1    2    0    0 -0.27821327267E+02 -0.56300498202E+02 -0.15943933404E+03  0.17136123712E+03  0.00000000000E+00 0.  1.
         11    1    1    2    0    0 -0.12666459778E+02  0.29325038038E+02 -0.18801244129E+03  0.19070677791E+03  0.00000000000E+00 0. -1.
</event>
<event>
 6    1  0.2412631E-010  0.1092899E+03  0.7561462E-02  0.1261891E+00
         -2   -1    0    0    0  501 -0.00000000000E+00  0.00000000000E+00  0.20576588615E+03  0.20576588615E+03  0.00000000000E+00 0.  1.
          2   -1    0    0  501    0  0.00000000000E+00 -0.00000000000E+00 -0.66248886732E+02  0.66248886732E+02  0.00000000000E+00 0. -1.
          5    1    1    2  502    0  0.54025607493E+02 -0.14310670446E+02  0.69092884326E+02  0.88965502404E+02  0.41800000000E+01 0.  1.
         -5    1    1    2    0  502 -0.57925275702E+02  0.38156737882E+02  0.51008565858E+02  0.86201046408E+02  0.41800000000E+01 0.  1.
        -11    1    1    2    0    0  0.43134967844E+02  0.62652973816E+01  0.18581681657E+02  0.47383101370E+02  0.00000000000E+00 0.  1.
         11    1    1    2    0    0 -0.39235299635E+02 -0.30111364817E+02  0.83386757796E+00  0.49465122701E+02  0.00000000000E+00 0. -1.
</event>
<event>
 7    1  0.2412631E-010  0.7743155E+02  0.7561462E-02  0.1336502E+00
         -2   -1    0    0    0  501 -0.00000000000E+00  0.00000000000E+00  0.52922754859E+03  0.52922754859E+03  0.00000000000E+00 0.  1.
          2   -1    0    0  501    0  0.00000000000E+00 -0.00000000000E+00 -0.26274681226E+02  0.26274681226E+02  0.00000000000E+00 0. -1.
         25    2    1    2    0    0 -0.85102201987E+01 -0.42121563955E+02  0.32241786854E+03  0.34850448067E+03  0.12512170513E+03 0.  0.
          5    1    3    3  502    0 -0.50959787695E+01  0.10362516494E+02  0.28141864142E+03  0.28168648332E+03  0.41800000000E+01 0. -1.
         -5    1    3    3    0  502 -0.34142414292E+01 -0.52484080449E+02  0.40999227125E+02  0.66817997351E+02  0.41800000000E+01 0. -1.
        -11    1    1    2    0    0  0.27085061910E+02 -0.14153325494E+02  0.11341513297E+03  0.11746024684E+03  0.00000000000E+00 0.  1.
         11    1    1    2    0    0 -0.18574841711E+02  0.56274889448E+02  0.67119865852E+02  0.89537502305E+02  0.00000000000E+00 0. -1.
</event>
<event>
 6    1  0.2412631E-010  0.1112431E+03  0.7561462E-02  0.1258285E+00
         -1   -1    0    0    0  501 -0.00000000000E+00  0.00000000000E+00  0.29922660397E+03  0.29922660397E+03  0.00000000000E+00 0.  1.
          1   -1    0    0  501    0  0.00000000000E+00 -0.00000000000E+00 -0.48296288831E+02  0.48296288831E+02  0.00000000000E+00 0. -1.
          5    1    1    2  502    0  0.17596110835E+02  0.56467471594E+02  0.24692682470E+02  0.64229272394E+02  0.41800000000E+01 0. -1.
         -5    1    1    2    0  502 -0.54881766416E+02 -0.40690191541E+02  0.69833744314E+02  0.97785092000E+02  0.41800000000E+01 0. -1.
        -11    1    1    2    0    0 -0.35228373812E+01 -0.44628621051E+02  0.45334114331E+02  0.63712684156E+02  0.00000000000E+00 0. -1.
         11    1    1    2    0    0  0.40808492962E+02  0.28851340998E+02  0.11106977403E+03  0.12179584426E+03  0.00000000000E+00 0.  1.
</event>
<event>
 7    1  0.2412631E-010  0.1622811E+03  0.7561462E-02  0.1186145E+00
         -1   -1    0    0    0  501 -0.00000000000E+00  0.00000000000E+00  0.36677214476E+02  0.36677214476E+02  0.00000000000E+00 0.  1.
          1   -1    0    0  501    0  0.00000000000E+00 -0.00000000000E+00 -0.90940465003E+03  0.90940465003E+03  0.00000000000E+00 0. -1.
         25    2    1    2    0    0 -0.12272178525E+02  0.14099438545E+03 -0.55799965273E+03  0.58909371308E+03  0.12505105857E+03 0.  0.
          5    1    3    3  502    0  0.49312518018E+02  0.82053014041E+02 -0.37690668950E+03  0.38889657563E+03  0.41800000000E+01 0.  1.
         -5    1    3    3    0  502 -0.61584696543E+02  0.58941371410E+02 -0.18109296324E+03  0.20019713746E+03  0.41800000000E+01 0.  1.
        -11    1    1    2    0    0  0.76254386935E+01 -0.11403658841E+02  0.28011358951E+01  0.14001325385E+02  0.00000000000E+00 0.  1.
         11    1    1    2    0    0  0.46467398318E+01 -0.12959072661E+03 -0.31752891871E+03  0.34298682603E+03  0.00000000000E+00 0. -1.
</event>
<event>
 7    1  0.2412631E-010  0.2429058E+03  0.7561462E-02  0.1117872E+00
         -3   -1    0    0    0  501 -0.00000000000E+00  0.00000000000E+00  0.12809578036E+03  0.12809578036E+03  0.00000000000E+00 0.  1.
          3   -1    0    0  501    0  0.00000000000E+00 -0.00000000000E+00 -0.50068159470E+03  0.50068159470E+03  0.00000000000E+00 0. -1.
         25    2    1    2    0    0 -0.61890148822E+01 -0.22818300892E+03 -0.17922256517E+03  0.31601708272E+03  0.12506110202E+03 0.  0.
          5    1    3    3  502    0  0.53260803675E+02 -0.10444738017E+03 -0.11543667153E+03  0.16458756322E+03  0.41800000000E+01 0. -1.
         -5    1    3    3    0  502 -0.59449818557E+02 -0.12373562875E+03 -0.63785893642E+02  0.15142951950E+03  0.41800000000E+01 0. -1.
        -11    1    1    2    0    0 -0.11130762613E+02  0.26690630402E+02  0.51527712177E+01  0.29374047710E+02  0.00000000000E+00 0.  1.
         11    1    1    2    0    0  0.17319777495E+02  0.20149237852E+03 -0.19851602039E+03  0.28338624463E+03  0.00000000000E+00 0. -1.
</event>
<event>
 7    1  0.2412631E-010  0.1319754E+03  0.7561462E-02  0.1224554E+00
          1   -1    0    0  501    0  0.00000000000E+00  0.00000000000E+00  0.15005230903E+04  0.15005230903E+04  0.00000000000E+00 0. -1.
         -1   -1    0    0    0  501 -0.00000000000E+00 -0.00000000000E+00 -0.20253691036E+02  0.20253691036E+02  0.00000000000E+00 0.  1.
         25    2    1    2    0    0 -0.46086980631E+02 -0.11547845056E+03  0.10517612239E+04  0.10664404486E+04  0.12503709801E+03 0.  0.
          5    1    3    3  502    0 -0.56474315949E+02 -0.58459470907E+02  0.90411693262E+03  0.90777296630E+03  0.41800000000E+01 0. -1.
         -5    1    3    3    0  502  0.10387335318E+02 -0.57018979648E+02  0.14764429129E+03  0.15866748225E+03  0.41800000000E+01 0. -1.
        -11    1    1    2    0    0  0.21366881597E+02  0.60828978708E+02  0.34810546208E+03  0.35402559372E+03  0.00000000000E+00 0. -1.
         11    1    1    2    0    0  0.24720099034E+02  0.54649471848E+02  0.80402713314E+02  0.10031073909E+03  0.00000000000E+00 0.  1.
</event>
<event>
 7    1  0.2412631E-010  0.9273130E+02  0.7561462E-02  0.1296369E+00
          2   -1    0    0  501    0  0.00000000000E+00  0.00000000000E+00  0.22719149469E+03  0.22719149469E+03  0.00000000000E+00 0. -1.
         -2   -1    0    0    0  501 -0.00000000000E+00 -0.00000000000E+00 -0.57973375736E+02  0.57973375736E+02  0.00000000000E+00 0.  1.
         25    2    1    2    0    0 -0.17460778476E+02  0.42435357415E+01  0.13801382668E+03  0.18711529336E+03  0.12506570382E+03 0.  0.
          5    1    3    3  502    0  0.48460760099E+02  0.95580189652E+01  0.23613405502E+02  0.54907798310E+02  0.41800000000E+01 0. -1.
         -5    1    3    3    0  502 -0.65921538575E+02 -0.53144832237E+01  0.11440042118E+03  0.13220749505E+03  0.41800000000E+01 0. -1.
        -11    1    1    2    0    0 -0.78834487521E+01 -0.31461198663E+02  0.47441796347E+02  0.57468946625E+02  0.00000000000E+00 0. -1.
         11    1    1    2    0    0  0.25344227228E+02  0.27217662922E+02 -0.16237504075E+02  0.40580630445E+02  0.00000000000E+00 0.  1.
</event>
<event>
 6    1  0.2412631E-010  0.9427695E+02  0.7561462E-02  0.1292813E+00
         -1   -1    0    0    0  501 -0.00000000000E+00  0.00000000000E+00  0.97896367547E+02  0.97896367547E+02  0.00000000000E+00 0.  1.
          1   -1    0    0  501    0  0.00000000000E+00 -0.00000000000E+00 -0.12716784237E+03  0.12716784237E+03  0.00000000000E+00 0. -1.
          5    1    1    2  502    0 -0.54519090893E+02  0.44764135323E+02  0.34628264166E+01  0.70750425086E+02  0.41800000000E+01 0.  1.
         -5    1    1    2    0  502  0.25682886847E+02 -0.46188292307E+02 -0.25689830499E+02  0.58910175811E+02  0.41800000000E+01 0.  1.
        -11    1    1    2    0    0  0.63279402015E+01  0.28769554350E+02 -0.38196138805E+02  0.48235620700E+02  0.00000000000E+00 0. -1.
         11    1    1    2    0    0  0.22508263844E+02 -0.27345397367E+02  0.31151668068E+02  0.47167988317E+02  0.00000000000E+00 0.  1.
</event>
<event>
 7    1  0.2412631E-010  0.1045174E+03  0.7561462E-02  0.1271073E+00
          2   -1    0    0  501    0  0.00000000000E+00  0.00000000000E+00  0.79931322085E+03  0.79931322085E+03  0.00000000000E+00 0. -1.
         -2   -1    0    0    0  501 -0.00000000000E+00 -0.00000000000E+00 -0.15179873263E+02  0.15179873263E+02  0.00000000000E+00 0.  1.
         25    2    1    2    0    0 -0.98714198708E+01 -0.14292400220E+02  0.45267728005E+03  0.46997242592E+03  0.12512251442E+03 0.  0.
          5    1    3    3  502    0  0.17772026189E+02  0.45681667982E+02  0.29342066152E+03  0.29751607807E+03  0.41800000000E+01 0. -1.
         -5    1    3    3    0  502 -0.27643446060E+02 -0.59974068202E+02  0.15925661853E+03  0.17245634785E+03  0.41800000000E+01 0. -1.
        -11    1    1    2    0    0  0.29227792212E+02 -0.32092954735E+02  0.13983305027E+03  0.14641551670E+03  0.00000000000E+00 0. -1.
         11    1    1    2    0    0 -0.19356372342E+02  0.46385354955E+02  0.19162301726E+03  0.19810515150E+03  0.00000000000E+00 0.  1.
</event>
<event>
 7    1  0.2412631E-010  0.9715745E+02  0.7561462E-02  0.1286390E+00
         -2   -1    0    0    0  501 -0.00000000000E+00  0.00000000000E+00  0.20912986614E+03  0.20912986614E+03  0.00000000000E+00 0.  1.
          2   -1    0    0  501    0  0.00000000000E+00 -0.00000000000E+00 -0.94046460408E+02  0.94046460408E+02  0.00000000000E+00 0. -1.
         25    2    1    2    0    0  0.13225557214E+02 -0.32720169263E+02  0.15658001374E+03  0.20353209284E+03  0.12514985926E+03 0.  0.
          5    1    3    3  502    0 -0.41948418016E+02 -0.21921179656E+02  0.12970927064E+02  0.49253682506E+02  0.41800000000E+01 0.  1.
         -5    1    3    3    0  502  0.55173975230E+02 -0.10798989607E+02  0.14360908668E+03  0.15427841033E+03  0.41800000000E+01 0.  1.
        -11    1    1    2    0    0  0.34788586171E+02  0.54707723362E+01 -0.19142587228E+02  0.40082586288E+02  0.00000000000E+00 0.  1.
         11    1    1    2    0    0 -0.48014143386E+02  0.27249396927E+02 -0.22354020782E+02  0.59561647418E+02  0.00000000000E+00 0. -1.
</event>
<event>
 6    1  0.2412631E-010  0.1045109E+03  0.7561462E-02  0.1271086E+00
         -1   -1    0    0    0  501 -0.00000000000E+00  0.00000000000E+00  0.41669069302E+02  0.41669069302E+02  0.00000000000E+00 0.  1.
          1   -1    0    0  501    0  0.00000000000E+00 -0.00000000000E+00 -0.30491365919E+03  0.30491365919E+03  0.00000000000E+00 0. -1.
          5    1    1    2  502    0  0.77173766762E+01  0.42507461171E+02 -0.18552212078E+02  0.47202744952E+02  0.41800000000E+01 0. -1.
         -5    1    1    2    0  502  0.30319499895E+01 -0.69534266173E+02 -0.14471365996E+03  0.16063537180E+03  0.41800000000E+01 0. -1.
        -11    1    1    2    0    0  0.40025277639E+01  0.59809451467E+02 -0.67783647043E+02  0.90486537782E+02  0.00000000000E+00 0. -1.
         11    1    1    2    0    0 -0.14751854430E+02 -0.32782646465E+02 -0.32195070805E+02  0.48258073962E+02  0.00000000000E+00 0.  1.
</event>
<event>
 6    1  0.2412631E-010  0.1226524E+03  0.7561462E-02  0.1238784E+00
          1   -1    0    0  501    0  0.00000000000E+00  0.00000000000E+00  0.65266982262E+02  0.65266982262E+02  0.00000000000E+00 0. -1.
         -1   -1    0    0    0  501 -0.00000000000E+00 -0.00000000000E+00 -0.35428939379E+03  0.35428939379E+03  0.00000000000E+00 0.  1.
          5    1    1    2  502    0 -0.22513564414E+02 -0.16389282230E+02 -0.16083217288E+03  0.16327868626E+03  0.41800000000E+01 0. -1.
         -5    1    1    2    0  502  0.59328654895E+02 -0.68656211531E+02 -0.68115073450E+02  0.11353721991E+03  0.41800000000E+01 0. -1.
        -11    1    1    2    0    0 -0.63773989802E+02  0.72553639735E+02 -0.31728733540E+02  0.10167529172E+03  0.00000000000E+00 0. -1.
         11    1    1    2    0    0  0.26958899320E+02  0.12491854026E+02 -0.28346431653E+02  0.41065178157E+02  0.00000000000E+00 0.  1.
</event>
<event>
 7    1  0.2412631E-010  0.1661928E+03  0.7561462E-02  0.1181877E+00
         -1   -1    0    0    0  501 -0.00000000000E+00  0.00000000000E+00  0.21121654823E+03  0.21121654823E+03  0.00000000000E+00 0.  1.
          1   -1    0    0  501    0  0.00000000000E+00 -0.00000000000E+00 -0.13756180334E+03  0.13756180334E+03  0.00000000000E+00 0. -1.
         25    2    1    2    0    0  0.67857759676E+02  0.11066203801E+03  0.22445529114E+02  0.18168982462E+03  0.12512644959E+03 0.  0.
          5    1    3    3  502    0 -0.35368689915E+01 -0.22123454864E+02  0.20807985918E+02  0.30861000881E+02  0.41800000000E+01 0. -1.
         -5    1    3    3    0  502  0.71394628667E+02  0.13278549288E+03  0.16375431955E+01  0.15082882373E+03  0.41800000000E+01 0. -1.
        -11    1    1    2    0    0 -0.60442199933E+02 -0.12710096078E+03  0.42211448228E+02  0.14693440756E+03  0.00000000000E+00 0.  1.
         11    1    1    2    0    0 -0.74155597426E+01  0.16438922763E+02  0.89977675454E+01  0.20154119398E+02  0.00000000000E+00 0. -1.
</event>
<event>
 7    1  0.2412631E-010  0.1067599E+03  0.7561462E-02  0.1266690E+00
         -2   -1    0    0    0  501 -0.00000000000E+00  0.00000000000E+00  0.19690187519E+03  0.19690187519E+03  0.00000000000E+00 0.  1.
          2   -1    0    0  501    0  0.00000000000E+00 -0.00000000000E+00 -0.95910604907E+02  0.95910604907E+02  0.00000000000E+00 0. -1.
         25    2    1    2    0    0 -0.16671765464E+02 -0.68938300947E+02  0.10504425758E+03  0.17805608084E+03  0.12505692613E+03 0.  0.
          5    1    3    3  502    0  0.46340611723E+02 -0.11402209984E+02  0.71949845948E+02  0.86439085022E+02  0.41800000000E+01 0. -1.
         -5    1    3    3    0  502 -0.63012377188E+02 -0.57536090963E+02  0.33094411632E+02  0.91616995822E+02  0.41800000000E+01 0. -1.
        -11    1    1    2    0    0  0.19049332924E+02  0.10606225985E+02 -0.40455368023E+02  0.45956565542E+02  0.00000000000E+00 0. -1.
         11    1    1    2    0    0 -0.23775674599E+01  0.58332074962E+02  0.36402380726E+02  0.68799833713E+02  0.00000000000E+00 0.  1.
</event>
<event>
 7    1  0.2412631E-010  0.1009885E+03  0.7561462E-02  0.1278231E+00
         -2   -1    0    0    0  501 -0.00000000000E+00  0.00000000000E+00  0.41707867052E+02  0.41707867052E+02  0.00000000000E+00 0.  1.
          2   -1    0    0  501    0  0.00000000000E+00 -0.00000000000E+00 -0.60378472457E+03  0.60378472457E+03  0.00000000000E+00 0. -1.
         25    2    1    2    0    0 -0.92146558051E+02  0.25718172861E+02 -0.16981747938E+03  0.23158586477E+03  0.12506647785E+03 0.  0.
          5    1    3    3  502    0 -0.74063971860E+02  0.37020770089E+02 -0.27099537397E+02  0.87223085664E+02  0.41800000000E+01 0.  1.
         -5    1    3    3    0  502 -0.18082586191E+02 -0.11302597228E+02 -0.14271794198E+03  0.14436277911E+03  0.41800000000E+01 0.  1.
        -11    1    1    2    0    0  0.26739824074E+02 -0.16147290622E+02 -0.23035555695E+02  0.38812240493E+02  0.00000000000E+00 0.  1.
         11    1    1    2    0    0  0.65406733978E+02 -0.95708822383E+01 -0.36922382244E+03  0.37509448636E+03  0.00000000000E+00 0. -1.
</event>
<event>
 7    1  0.2412631E-010  0.1351653E+03  0.7561462E-02  0.1219987E+00
         -1   -1    0    0    0  501 -0.00000000000E+00  0.00000000000E+00  0.12205096626E+03  0.12205096626E+03  0.00000000000E+00 0.  1.
          1   -1    0    0  501    0  0.00000000000E+00 -0.00000000000E+00 -0.16515076338E+03  0.16515076338E+03  0.00000000000E+00 0. -1.
         25    2    1    2    0    0 -0.33942221358E+02  0.74311469152E+02 -0.65626581028E+02  0.16316598059E+03  0.12506806246E+03 0.  0.
          5    1    3    3  502    0 -0.20311203132E+02  0.10940906374E+03 -0.45791047644E+02  0.12040423848E+03  0.41800000000E+01 0.  1.
         -5    1    3    3    0  502 -0.13631018226E+02 -0.35097594585E+02 -0.19835533384E+02  0.42761742108E+02  0.41800000000E+01 0.  1.
        -11    1    1    2    0    0 -0.27313867869E+02 -0.46249448609E+02  0.26114580628E+01  0.53776189785E+02  0.00000000000E+00 0. -1.
         11    1    1    2    0    0  0.61256089227E+02 -0.28062020543E+02  0.19915325849E+02  0.70259559264E+02  0.00000000000E+00 0.  1.
</event>
<event>
 7    1  0.2412631E-010  0.9900440E+02  0.7561462E-02  0.1282404E+00
          2   -1    0    0  501    0  0.00000000000E+00  0.00000000000E+00  0.54306832054E+03  0.54306832054E+03  0.00000000000E+00 0.  1.
         -2   -1    0    0    0  501 -0.00000000000E+00 -0.00000000000E+00 -0.24433680533E+02  0.24433680533E+02  0.00000000000E+00 0. -1.
         25    2    1    2    0    0 -0.31744459876E+02 -0.20774823371E+02  0.31661607354E+03  0.34252630612E+03  0.12505690040E+03 0.  0.
          5    1    3    3  502    0 -0.63217307305E+01  0.38382555062E+02  0.31581564159E+02  0.50279741520E+02  0.41800000000E+01 0.  1.
         -5    1    3    3    0  502 -0.25422729145E+02 -0.59157378434E+02  0.28503450938E+03  0.29224656460E+03  0.41800000000E+01 0.  1.
        -11    1    1    2    0    0  0.61042613862E+02  0.22387312419E+02  0.10392824266E+03  0.12259066884E+03  0.00000000000E+00 0. -1.
         11    1    1    2    0    0 -0.29298153987E+02 -0.16124890476E+01  0.98090323803E+02  0.10238502611E+03  0.00000000000E+00 0.  1.
</event>
<event>
 6    1  0.2412631E-010  0.1334340E+03  0.7561462E-02  0.1222448E+00
          2   -1    0    0  501    0  0.00000000000E+00  0.00000000000E+00  0.67813740262E+03  0.67813740262E+03  0.00000000000E+00 0. -1.
         -2   -1    0    0    0  501 -0.00000000000E+00 -0.00000000000E+00 -0.31380705634E+02  0.31380705634E+02  0.00000000000E+00 0.  1.
          5    1    1    2  502    0  0.38723756284E+02 -0.45350341787E+02  0.89764498404E+02  0.10784859932E+03  0.41800000000E+01 0. -1.
         -5    1    1    2    0  502  0.32905180409E+02  0.83009598047E+02  0.13194581582E+03  0.15937539013E+03  0.41800000000E+01 0. -1.
        -11    1    1    2    0    0 -0.20249261009E+02  0.27855335626E+02  0.75729238374E+02  0.83191765452E+02  0.00000000000E+00 0.  1.
         11    1    1    2    0    0 -0.51379675684E+02 -0.65514591887E+02  0.34931714439E+03  0.35910235336E+03  0.00000000000E+00 0. -1.
</event>
<event>
 7    1  0.2412631E-010  0.1296483E+03  0.7561462E-02  0.1227979E+00
          1   -1    0    0  501    0  0.00000000000E+00  0.00000000000E+00  0.15886959017E+03  0.15886959017E+03  0.00000000000E+00 0. -1.
         -1   -1    0    0    0  501 -0.00000000000E+00 -0.00000000000E+00 -0.14338677176E+03  0.14338677176E+03  0.00000000000E+00 0.  1.
         25    2    1    2    0    0  0.34305424286E+02  0.62932634345E+02  0.82789659134E+02  0.16627368877E+03  0.12512167405E+03 0.  0.
          5    1    3    3  502    0  0.12605596712E+02  0.10007939092E+03  0.56785940686E+02  0.11583134729E+03  0.41800000000E+01 0.  1.
         -5    1    3    3    0  502  0.21699827574E+02 -0.37146756578E+02  0.26003718448E+02  0.50442341482E+02  0.41800000000E+01 0.  1.
        -11    1    1    2    0    0 -0.19235869247E+02  0.21789162770E+02 -0.44160276590E+01  0.29398768345E+02  0.00000000000E+00 0. -1.
         11    1    1    2    0    0 -0.15069555039E+02 -0.84721797115E+02 -0.62890813071E+02  0.10658390481E+03  0.00000000000E+00 0.  1.
</event>
<event>
 6    1  0.2412631E-010  0.1663584E+03  0.7561462E-02  0.1181700E+00
          1   -1    0    0  501    0  0.00000000000E+00  0.00000000000E+00  0.26986698170E+03  0.26986698170E+03  0.00000000000E+00 0. -1.
         -1   -1    0    0    0  501 -0.00000000000E+00 -0.00000000000E+00 -0.13225824015E+03  0.13225824015E+03  0.00000000000E+00 0.  1.
          5    1    1    2  502    0 -0.57392886309E+02 -0.81299314819E+01  0.67029779469E+02  0.88715854955E+02  0.41800000000E+01 0.  1.
         -5    1    1    2    0  502 -0.76411662185E+02  0.72882868959E+02 -0.28173426298E+02  0.10937032987E+03  0.41800000000E+01 0.  1.
        -11    1    1    2    0    0 -0.10446046411E+02 -0.10483878519E+02 -0.77435413701E+01  0.16703114302E+02  0.00000000000E+00 0.  1.
         11    1    1    2    0    0  0.14425059491E+03 -0.54269058958E+02  0.10649592975E+03  0.18733592273E+03  0.00000000000E+00 0. -1.
</event>
<event>
 7    1  0.2412631E-010  0.1066150E+03  0.7561462E-02  0.1266970E+00
          1   -1    0    0  501    0  0.00000000000E+00  0.00000000000E+00  0.29589845089E+03  0.29589845089E+03  0.00000000000E+00 0. -1.
         -1   -1    0    0    0  501 -0.00000000000E+00 -0.00000000000E+00 -0.63275640508E+02  0.63275640508E+02  0.00000000000E+00 0.  1.
         25    2    1    2    0    0  0.15350139933E+02 -0.66766247060E+02  0.65267209495E+02  0.15686490478E+03  0.12511367301E+03 0.  0.
          5    1    3    3  502    0  0.29403686193E+02  0.29254261646E+02  0.36743300523E+01  0.41849273441E+02  0.41800000000E+01 0.  1.
         -5    1    3    3    0  502 -0.14053546260E+02 -0.96020508706E+02  0.61592879443E+02  0.11501563134E+03  0.41800000000E+01 0.  1.
        -11    1    1    2    0    0 -0.19815255379E+02  0.22762392230E+02  0.15279119403E+03  0.15574312126E+03  0.00000000000E+00 0. -1.
         11    1    1    2    0    0  0.44651154460E+01  0.44003854829E+02  0.14564406853E+02  0.46566065357E+02  0.00000000000E+00 0.  1.
</event>
<event>
 7    1  0.2412631E-010  0.5502995E+02  0.7561462E-02  0.1419957E+00
         -1   -1    0    0    0  501 -0.00000000000E+00  0.00000000000E+00  0.21647398344E+02  0.21647398344E+02  0.00000000000E+00 0.  1.
          1   -1    0    0  501    0  0.00000000000E+00 -0.00000000000E+00 -0.92503338498E+03  0.92503338498E+03  0.00000000000E+00 0. -1.
         25    2    1    2    0    0  0.71697599148E+00 -0.23556358677E+02 -0.79300633754E+03  0.80315083330E+03  0.12504716536E+03 0.  0.
          5    1    3    3  502    0 -0.21432487174E+02 -0.34877567471E+02 -0.82461116738E+02  0.92158040305E+02  0.41800000000E+01 0. -1.
         -5    1    3    3    0  502  0.22149463166E+02  0.11321208794E+02 -0.71054522080E+03  0.71099279300E+03  0.41800000000E+01 0. -1.
        -11    1    1    2    0    0  0.73433533363E+01  0.31515087393E+02 -0.12264033119E+03  0.12683759855E+03  0.00000000000E+00 0. -1.
         11    1    1    2    0    0 -0.80603293277E+01 -0.79587287155E+01  0.12260682105E+02  0.16692351462E+02  0.00000000000E+00 0.  1.
</event>
<event>
 7    1  0.2412631E-010  0.1310650E+03  0.7561462E-02  0.1225884E+00
          1   -1    0    0  501    0  0.00000000000E+00  0.00000000000E+00  0.48993242548E+03  0.48993242548E+03  0.00000000000E+00 0. -1.
         -1   -1    0    0    0  501 -0.00000000000E+00 -0.00000000000E+00 -0.49083479889E+02  0.49083479889E+02  0.00000000000E+00 0.  1.
         25    2    1    2    0    0 -0.59526025932E+02 -0.55594087213E+02  0.10752155565E+03  0.18398166464E+03  0.12511721583E+03 0.  0.
          5    1    3    3  502    0  0.35544454862E+02 -0.29006357843E+02  0.14549566983E+02  0.48310861782E+02  0.41800000000E+01 0. -1.
         -5    1    3    3    0  502 -0.95070480794E+02 -0.26587729370E+02  0.92971988665E+02  0.13567080286E+03  0.41800000000E+01 0. -1.
        -11    1    1    2    0    0  0.92222626751E+01 -0.22525738630E+02  0.11850734947E+03  0.12098120064E+03  0.00000000000E+00 0. -1.
         11    1    1    2    0    0  0.50303763257E+02  0.78119825843E+02  0.21482004047E+03  0.23405304009E+03  0.00000000000E+00 0.  1.
</event>
<event>
 6    1  0.2412631E-010  0.1733183E+03  0.7561462E-02  0.1174431E+00
         -2   -1    0    0    0  501 -0.00000000000E+00  0.00000000000E+00  0.41468770560E+02  0.41468770560E+02  0.00000000000E+00 0.  1.
          2   -1    0    0  501    0  0.00000000000E+00 -0.00000000000E+00 -0.11816748767E+04  0.11816748767E+04  0.00000000000E+00 0. -1.
          5    1    1    2  502    0  0.14735765995E+03 -0.41670635498E+02 -0.18004146081E+03  0.23639611210E+03  0.41800000000E+01 0. -1.
         -5    1    1    2    0  502  0.20230969050E+02 -0.18412489833E+00 -0.23570156322E+03  0.23660520982E+03  0.41800000000E+01 0. -1.
        -11    1    1    2    0    0 -0.11358713555E+03  0.30326506638E+02 -0.62871739278E+03  0.63961495788E+03  0.00000000000E+00 0. -1.
         11    1    1    2    0    0 -0.54001493443E+02  0.11528253758E+02 -0.95745689332E+02  0.11052736745E+03  0.00000000000E+00 0.  1.
</event>
<event>
 6    1  0.2412631E-010  0.7934259E+02  0.7561462E-02  0.1330927E+00
          1   -1    0    0  501    0  0.00000000000E+00  0.00000000000E+00  0.51238699321E+02  0.51238699321E+02  0.00000000000E+00 0. -1.
         -1   -1    0    0    0  501 -0.00000000000E+00 -0.00000000000E+00 -0.27202674350E+03  0.27202674350E+03  0.00000000000E+00 0.  1.
          5    1    1    2  502    0  0.16191032803E+01  0.28751811796E+02  0.14514937234E+02  0.32518363733E+02  0.41800000000E+01 0. -1.
         -5    1    1    2    0  502  0.98316772088E+01 -0.68305355461E+02 -0.11065948550E+03  0.13048094724E+03  0.41800000000E+01 0. -1.
        -11    1    1    2    0    0  0.17024159746E+02  0.17678713394E+02 -0.12179815560E+03  0.12424632643E+03  0.00000000000E+00 0.  1.
         11    1    1    2    0    0 -0.28474940235E+02  0.21874830271E+02 -0.28453403048E+01  0.36019805416E+02  0.00000000000E+00 0. -1.
</event>
<event>
 7    1  0.2412631E-010  0.2156060E+03  0.7561462E-02  0.1137202E+00
         -2   -1    0    0    0  501 -0.00000000000E+00  0.00000000000E+00  0.61730878814E+02  0.61730878814E+02  0.00000000000E+00 0. -1.
          2   -1    0    0  501    0  0.00000000000E+00 -0.00000000000E+00 -0.78221173651E+03  0.78221173651E+03  0.00000000000E+00 0.  1.
         25    2    1    2    0    0  0.86008847330E+02  0.16889748782E+03 -0.40270794868E+03  0.46233139026E+03  0.12511090793E+03 0.  0.
          5    1    3    3  502    0  0.65386715930E+02  0.15888767901E+02 -0.17156057218E+03  0.18433224865E+03  0.41800000000E+01 0.  1.
         -5    1    3    3    0  502  0.20622131400E+02  0.15300871992E+03 -0.23114737649E+03  0.27799914161E+03  0.41800000000E+01 0.  1.
        -11    1    1    2    0    0  0.13383464996E+02 -0.61797965436E+02 -0.12096296508E+03  0.13649228765E+03  0.00000000000E+00 0.  1.
         11    1    1    2    0    0 -0.99392312326E+02 -0.10709952239E+03 -0.19680994394E+03  0.24511893741E+03  0.00000000000E+00 0. -1.
</event>
<event>
 7    1  0.2412631E-010  0.8154549E+02  0.7561462E-02  0.1324722E+00
         -1   -1    0    0    0  501 -0.00000000000E+00  0.00000000000E+00  0.11990978111E+03  0.11990978111E+03  0.00000000000E+00 0.  1.
          1   -1    0    0  501    0  0.00000000000E+00 -0.00000000000E+00 -0.15556508824E+03  0.15556508824E+03  0.00000000000E+00 0. -1.
         25    2    1    2    0    0  0.27662186977E+00 -0.57789944345E+02  0.28673310931E+02  0.14072235232E+03  0.12506345387E+03 0.  0.
          5    1    3    3  502    0  0.16036453437E+02 -0.45375798054E+02  0.75486387502E+02  0.89620298962E+02  0.41800000000E+01 0. -1.
         -5    1    3    3    0  502 -0.15759831567E+02 -0.12414146291E+02 -0.46813076571E+02  0.51102053356E+02  0.41800000000E+01 0. -1.
        -11    1    1    2    0    0 -0.29831047281E+02  0.57451303350E+02 -0.78687058488E+02  0.10189306557E+03  0.00000000000E+00 0. -1.
         11    1    1    2    0    0  0.29554425411E+02  0.33864099525E+00  0.14358440425E+02  0.32859451464E+02  0.00000000000E+00 0.  1.
</event>
<event>
 7    1  0.2412631E-010  0.1162876E+03  0.7561462E-02  0.1249350E+00
          2   -1    0    0  501    0  0.00000000000E+00  0.00000000000E+00  0.87460976083E+03  0.87460976083E+03  0.00000000000E+00 0. -1.
         -2   -1    0    0    0  501 -0.00000000000E+00 -0.00000000000E+00 -0.24116408006E+02  0.24116408006E+02  0.00000000000E+00 0.  1.
         25    2    1    2    0    0  0.46450669660E+02  0.55284156221E+02  0.26340570481E+03  0.30041914743E+03  0.12512032678E+03 0.  0.
          5    1    3    3  502    0 -0.22882326074E+02  0.39828444122E+02  0.19954888641E+03  0.20481000043E+03  0.41800000000E+01 0. -1.
         -5    1    3    3    0  502  0.69332995734E+02  0.15455712099E+02  0.63856818403E+02  0.95609147002E+02  0.41800000000E+01 0. -1.
        -11    1    1    2    0    0 -0.15648402622E+01 -0.68488439064E+02  0.35539278393E+03  0.36193527858E+03  0.00000000000E+00 0. -1.
         11    1    1    2    0    0 -0.44885829397E+02  0.13204282843E+02  0.23169486409E+03  0.23637174283E+03  0.00000000000E+00 0.  1.
</event>
<event>
 7    1  0.2412631E-010  0.1607436E+03  0.7561462E-02  0.1187860E+00
          2   -1    0    0  501    0  0.00000000000E+00  0.00000000000E+00  0.34179681457E+03  0.34179681457E+03  0.00000000000E+00 0. -1.
         -2   -1    0    0    0  501 -0.00000000000E+00 -0.00000000000E+00 -0.86367972937E+02  0.86367972937E+02  0.00000000000E+00 0.  1.
         25    2    1    2    0    0 -0.12299038651E+03  0.49799705392E+02  0.13996626837E+03  0.22985826837E+03  0.12505047551E+03 0.  0.
          5    1    3    3  502    0  0.33679353371E+01  0.32184390759E+02 -0.88381933499E+01  0.33804793428E+02  0.41800000000E+01 0.  1.
         -5    1    3    3    0  502 -0.12635832184E+03  0.17615314633E+02  0.14880446172E+03  0.19605347494E+03  0.41800000000E+01 0.  1.
        -11    1    1    2    0    0  0.73437851452E+02  0.19531288361E+02  0.53004803148E+02  0.92650409646E+02  0.00000000000E+00 0. -1.
         11    1    1    2    0    0  0.49552535055E+02 -0.69330993754E+02  0.62457770114E+02  0.10565610949E+03  0.00000000000E+00 0.  1.
</event>
<event>
 6    1  0.2412631E-010  0.1995672E+03  0.7561462E-02  0.1150105E+00
         -1   -1    0    0    0  501 -0.00000000000E+00  0.00000000000E+00  0.16246511924E+03  0.16246511924E+03  0.00000000000E+00 0.  1.
          1   -1    0    0  501    0  0.00000000000E+00 -0.00000000000E+00 -0.39883343001E+03  0.39883343001E+03  0.00000000000E+00 0. -1.
          5    1    1    2  502    0 -0.99942221393E+02 -0.41424478720E+02  0.62224005231E+02  0.12487487450E+03  0.41800000000E+01 0.  1.
         -5    1    1    2    0  502 -0.90578101355E+02  0.28293726984E+02 -0.42990609862E+02  0.10426213295E+03  0.41800000000E+01 0.  1.
        -11    1    1    2    0    0  0.75549198512E+02 -0.16113053026E+02 -0.16730238358E+03  0.18427533591E+03  0.00000000000E+00 0. -1.
         11    1    1    2    0    0  0.11497112424E+03  0.29243804762E+02 -0.88299322556E+02  0.14788620588E+03  0.00000000000E+00 0.  1.
</event>
<event>
 7    1  0.2412631E-010  0.1255476E+03  0.7561462E-02  0.1234216E+00
          2   -1    0    0  501    0  0.00000000000E+00  0.00000000000E+00  0.91181220244E+03  0.91181220244E+03  0.00000000000E+00 0. -1.
         -2   -1    0    0    0  501 -0.00000000000E+00 -0.00000000000E+00 -0.17411739234E+02  0.17411739234E+02  0.00000000000E+00 0.  1.
         25    2    1    2    0    0 -0.13408735380E+02 -0.65720761757E+02  0.53179143888E+03  0.55040259482E+03  0.12506745865E+03 0.  0.
          5    1    3    3  502    0  0.54335729558E+02 -0.14162864177E+02  0.23146565813E+03  0.23821582970E+03  0.41800000000E+01 0.  1.
         -5    1    3    3    0  502 -0.67744464938E+02 -0.51557897580E+02  0.30032578075E+03  0.31218676512E+03  0.41800000000E+01 0.  1.
        -11    1    1    2    0    0  0.49697019591E+02  0.27286991210E+02  0.18025992571E+03  0.18896564361E+03  0.00000000000E+00 0.  1.
         11    1    1    2    0    0 -0.36288284211E+02  0.38433770547E+02  0.18234909861E+03  0.18985570324E+03  0.00000000000E+00 0. -1.
</event>
<event>
 7    1  0.2412631E-010  0.4093885E+03  0.7561462E-02  0.1040576E+00
          2   -1    0    0  501    0  0.00000000000E+00  0.00000000000E+00  0.31131580276E+04  0.31131580276E+04  0.00000000000E+00 0. -1.
         -2   -1    0    0    0  501 -0.00000000000E+00 -0.00000000000E+00 -0.58688223845E+02  0.58688223845E+02  0.00000000000E+00 0.  1.
         25    2    1    2    0    0  0.40317857119E+03 -0.18722967964E+02  0.18700704883E+04  0.19172174244E+04  0.12512198595E+03 0.  0.
          5    1    3    3  502    0  0.20943848199E+03 -0.27043700779E+02  0.12435166268E+04  0.12613274408E+04  0.41800000000E+01 0. -1.
         -5    1    3    3    0  502  0.19374008919E+03  0.83207328153E+01  0.62655386150E+03  0.65588998354E+03  0.41800000000E+01 0. -1.
        -11    1    1    2    0    0 -0.19755702926E+03 -0.36012722407E+02  0.59812178927E+03  0.63093214436E+03  0.00000000000E+00 0. -1.
         11    1    1    2    0    0 -0.20562154193E+03  0.54735690371E+02  0.58627752623E+03  0.62369668275E+03  0.00000000000E+00 0.  1.
</event>
<event>
 7    1  0.2412631E-010  0.1625922E+03  0.7561462E-02  0.1185801E+00
         -1   -1    0    0    0  501 -0.00000000000E+00  0.00000000000E+00  0.82964210093E+02  0.82964210093E+02  0.00000000000E+00 0.  1.
          1   -1    0    0  501    0  0.00000000000E+00 -0.00000000000E+00 -0.50278737163E+03  0.50278737163E+03  0.00000000000E+00 0. -1.
         25    2    1    2    0    0  0.52548007681E+02  0.11338583116E+03 -0.48838080813E+02  0.18342213122E+03  0.12506350493E+03 0.  0.
          5    1    3    3  502    0 -0.40330030368E+02  0.47358485096E+02 -0.11226805442E+02  0.63347067971E+02  0.41800000000E+01 0. -1.
         -5    1    3    3    0  502  0.92878038049E+02  0.66027346062E+02 -0.37611275371E+02  0.12007506325E+03  0.41800000000E+01 0. -1.
        -11    1    1    2    0    0 -0.68407703204E+02 -0.53461753836E+02 -0.15538344699E+03  0.17799378804E+03  0.00000000000E+00 0. -1.
         11    1    1    2    0    0  0.15859695524E+02 -0.59924077322E+02 -0.21560163373E+03  0.22433566246E+03  0.00000000000E+00 0.  1.
</event>
<event>
 7    1  0.2412631E-010  0.1086433E+03  0.7561462E-02  0.1263103E+00
         -1   -1    0    0    0  501 -0.00000000000E+00  0.00000000000E+00  0.13319284981E+03  0.13319284981E+03  0.00000000000E+00 0.  1.
          1   -1    0    0  501    0  0.00000000000E+00 -0.00000000000E+00 -0.14264570770E+03  0.14264570770E+03  0.00000000000E+00 0. -1.
         25    2    1    2    0    0 -0.64453889741E+01  0.12020575302E+02 -0.88762566725E+02  0.15401448463E+03  0.12512246383E+03 0.  0.
          5    1    3    3  502    0 -0.38554237495E+02  0.57892961095E+02 -0.47394576772E+02  0.84271836817E+02  0.41800000000E+01 0. -1.
         -5    1    3    3    0  502  0.32108848521E+02 -0.45872385793E+02 -0.41367989953E+02  0.69742647816E+02  0.41800000000E+01 0. -1.
        -11    1    1    2    0    0  0.11468416886E+01 -0.51555249758E+02  0.53540367567E+02  0.74335926595E+02  0.00000000000E+00 0.  1.
         11    1    1    2    0    0  0.52985472855E+01  0.39534674456E+02  0.25769341265E+02  0.47488146278E+02  0.00000000000E+00 0. -1.
</event>
<event>
 7    1  0.2412631E-010  0.1120666E+03  0.7561462E-02  0.1256790E+00
         -2   -1    0    0    0  501 -0.00000000000E+00  0.00000000000E+00  0.61995921490E+03  0.61995921490E+03  0.00000000000E+00 0.  1.
          2   -1    0    0  501    0  0.00000000000E+00 -0.00000000000E+00 -0.22575663111E+02  0.22575663111E+02  0.00000000000E+00 0. -1.
         25    2    1    2    0    0  0.12696335955E+02  0.24477466733E+02  0.43506259808E+03  0.45352077527E+03  0.12506512714E+03 0.  0.
          5    1    3    3  502    0  0.57975578614E+02  0.48985604506E+02  0.24123355144E+03  0.25292658205E+03  0.41800000000E+01 0. -1.
         -5    1    3    3    0  502 -0.45279242659E+02 -0.24508137773E+02  0.19382904664E+03  0.20059419322E+03  0.41800000000E+01 0. -1.
        -11    1    1    2    0    0 -0.51855170846E+02 -0.33389220047E+01  0.79065020878E+02  0.94611757567E+02  0.00000000000E+00 0. -1.
         11    1    1    2    0    0  0.39158834891E+02 -0.21138544729E+02  0.83255932830E+02  0.94402345175E+02  0.00000000000E+00 0.  1.
</event>
<event>
 7    1  0.2412631E-010  0.1910400E+03  0.7561462E-02  0.1157527E+00
          1   -1    0    0  501    0  0.00000000000E+00  0.00000000000E+00  0.33404887238E+04  0.33404887238E+04  0.00000000000E+00 0. -1.
         -1   -1    0    0    0  501 -0.00000000000E+00 -0.00000000000E+00 -0.22110668185E+02  0.22110668185E+02  0.00000000000E+00 0.  1.
         25    2    1    2    0    0 -0.17045911688E+03 -0.80852881233E+02  0.27039686500E+04  0.27134282077E+04  0.12511066886E+03 0.  0.
          5    1    3    3  502    0 -0.11682448871E+03 -0.54637357177E+02  0.24088114456E+04  0.24122651710E+04  0.41800000000E+01 0.  1.
         -5    1    3    3    0  502 -0.53634628175E+02 -0.26215524057E+02  0.29515720433E+03  0.30116303676E+03  0.41800000000E+01 0.  1.
        -11    1    1    2    0    0  0.11448835412E+03  0.31925016224E+02  0.49029284676E+03  0.50449367239E+03  0.00000000000E+00 0. -1.
         11    1    1    2    0    0  0.55970762756E+02  0.48927865010E+02  0.12411655891E+03  0.14467751191E+03  0.00000000000E+00 0.  1.
</event>
<event>
 6    1  0.2412631E-010  0.1482406E+03  0.7561462E-02  0.1202652E+00
         -1   -1    0    0    0  501 -0.00000000000E+00  0.00000000000E+00  0.70186300052E+03  0.70186300052E+03  0.00000000000E+00 0.  1.
          1   -1    0    0  501    0  0.00000000000E+00 -0.00000000000E+00 -0.40656807253E+02  0.40656807253E+02  0.00000000000E+00 0. -1.
          5    1    1    2  502    0  0.50829085285E+02  0.23392456962E+02  0.48802385412E+02  0.74363621318E+02  0.41800000000E+01 0.  1.
         -5    1    1    2    0  502  0.61263606319E+02 -0.88297894567E+02  0.28913293859E+03  0.30848837291E+03  0.41800000000E+01 0.  1.
        -11    1    1    2    0    0 -0.88377009829E+02  0.35991081957E+02  0.12166454564E+03  0.15462249356E+03  0.00000000000E+00 0. -1.
         11    1    1    2    0    0 -0.23715681775E+02  0.28914355649E+02  0.20160632362E+03  0.20504531999E+03  0.00000000000E+00 0.  1.
</event>
<event>
 7    1  0.2412631E-010  0.1329747E+03  0.7561462E-02  0.1223107E+00
         -2   -1    0    0    0  501 -0.00000000000E+00  0.00000000000E+00  0.52539444456E+02  0.52539444456E+02  0.00000000000E+00 0.  1.
          2   -1    0    0  501    0  0.00000000000E+00 -0.00000000000E+00 -0.63087548818E+03  0.63087548818E+03  0.00000000000E+00 0. -1.
         25    2    1    2    0    0  0.11413249501E+03  0.32177871933E+02 -0.14543475194E+03  0.22550774820E+03  0.12506332622E+03 0.  0.
          5    1    3    3  502    0  0.90104804229E+02  0.33025143841E+02 -0.16718686625E+03  0.19281715825E+03  0.41800000000E+01 0.  1.
         -5    1    3    3    0  502  0.24027690782E+02 -0.84727190743E+00  0.21752114307E+02  0.32690589943E+02  0.41800000000E+01 0.  1.
        -11    1    1    2    0    0 -0.48663943743E+02 -0.57468758793E+02 -0.27473455419E+03  0.28486823783E+03  0.00000000000E+00 0. -1.
         11    1    1    2    0    0 -0.65468551268E+02  0.25290886860E+02 -0.15816673759E+03  0.17303894661E+03  0.00000000000E+00 0.  1.
</event>
<event>
 6    1  0.2412631E-010  0.2643911E+03  0.7561462E-02  0.1104533E+00
         -2   -1    0    0    0  501 -0.00000000000E+00  0.00000000000E+00  0.16524338876E+03  0.16524338876E+03  0.00000000000E+00 0.  1.
          2   -1    0    0  501    0  0.00000000000E+00 -0.00000000000E+00 -0.52364820910E+03  0.52364820910E+03  0.00000000000E+00 0. -1.
          5    1    1    2  502    0  0.17013003967E+03 -0.11572661192E+03 -0.97455220267E+02  0.22771006008E+03  0.41800000000E+01 0. -1.
         -5    1    1    2    0  502  0.60095609064E+02  0.42862751097E+01  0.26098740967E+02  0.65791116902E+02  0.41800000000E+01 0. -1.
        -11    1    1    2    0    0 -0.87092890311E+02  0.11123208332E+02 -0.50550491489E+02  0.10131263246E+03  0.00000000000E+00 0.  1.
         11    1    1    2    0    0 -0.14313275842E+03  0.10031712848E+03 -0.23649784955E+03  0.29407778842E+03  0.00000000000E+00 0. -1.
</event>
<event>
 6    1  0.2412631E-010  0.6002647E+02  0.7561462E-02  0.1397721E+00
          1   -1    0    0  501    0  0.00000000000E+00  0.00000000000E+00  0.30329532894E+03  0.30329532894E+03  0.00000000000E+00 0. -1.
         -1   -1    0    0    0  501 -0.00000000000E+00 -0.00000000000E+00 -0.39602991580E+02  0.39602991580E+02  0.00000000000E+00 0.  1.
          5    1    1    2  502    0 -0.29118999044E+01 -0.76775290039E+01 -0.18533084573E+02  0.20697131116E+02  0.41800000000E+01 0. -1.
         -5    1    1    2    0  502 -0.13216237806E+02  0.15270675028E+02  0.19672336452E+03  0.19780145856E+03  0.41800000000E+01 0. -1.
        -11    1    1    2    0    0 -0.19265827025E+02 -0.38612680082E+02  0.37405204210E+02  0.57107446590E+02  0.00000000000E+00 0.  1.
         11    1    1    2    0    0  0.35393964735E+02  0.31019534058E+02  0.48096853199E+02  0.67292284257E+02  0.00000000000E+00 0. -1.
</event>
<event>
 7    1  0.2412631E-010  0.1146628E+03  0.7561462E-02  0.1252171E+00
         -1   -1    0    0    0  501 -0.00000000000E+00  0.00000000000E+00  0.19831946976E+02  0.19831946976E+02  0.00000000000E+00 0.  1.
          1   -1    0    0  501    0  0.00000000000E+00 -0.00000000000E+00 -0.94106416368E+03  0.94106416368E+03  0.00000000000E+00 0. -1.
         25    2    1    2    0    0  0.13098554753E+02 -0.52622885991E+02 -0.73123496711E+03  0.74382841768E+03  0.12504158328E+03 0.  0.
          5    1    3    3  502    0  0.64928903786E+02 -0.37707790530E+02 -0.30310092329E+03  0.31229038108E+03  0.41800000000E+01 0. -1.
         -5    1    3    3    0  502 -0.51830349033E+02 -0.14915095461E+02 -0.42813404382E+03  0.43153803660E+03  0.41800000000E+01 0. -1.
        -11    1    1    2    0    0 -0.47798327041E+02  0.18182416482E+02 -0.12984642220E+03  0.13955419626E+03  0.00000000000E+00 0. -1.
         11    1    1    2    0    0  0.34699772287E+02  0.34440469509E+02 -0.60150827389E+02  0.77513496711E+02  0.00000000000E+00 0.  1.
</event>
<event>
 7    1  0.2412631E-010  0.1196532E+03  0.7561462E-02  0.1243670E+00
          4   -1    0    0  501    0  0.00000000000E+00  0.00000000000E+00  0.42938038483E+02  0.42938038483E+02  0.00000000000E+00 0. -1.
         -4   -1    0    0    0  501 -0.00000000000E+00 -0.00000000000E+00 -0.40204705834E+03  0.40204705834E+03  0.00000000000E+00 0.  1.
         25    2    1    2    0    0  0.52283962438E+02 -0.18892362664E+02 -0.28062550687E+03  0.31222332697E+03  0.12506876789E+03 0.  0.
          5    1    3    3  502    0  0.90100720049E+02 -0.33241211157E+02 -0.20191967743E+03  0.22363395629E+03  0.41800000000E+01 0.  1.
         -5    1    3    3    0  502 -0.37816757611E+02  0.14348848493E+02 -0.78705829445E+02  0.88589370683E+02  0.41800000000E+01 0.  1.
        -11    1    1    2    0    0  0.14511875270E+02 -0.20388516622E+02 -0.37548981696E+02  0.45124407589E+02  0.00000000000E+00 0.  1.
         11    1    1    2    0    0 -0.66795837708E+02  0.39280879286E+02 -0.40934531287E+02  0.87637362262E+02  0.00000000000E+00 0. -1.
</event>
<event>
 7    1  0.2412631E-010  0.2153582E+03  0.7561462E-02  0.1137392E+00
          2   -1    0    0  501    0  0.00000000000E+00  0.00000000000E+00  0.13023393949E+04  0.13023393949E+04  0.00000000000E+00 0. -1.
         -2   -1    0    0    0  501 -0.00000000000E+00 -0.00000000000E+00 -0.38386575428E+02  0.38386575428E+02  0.00000000000E+00 0.  1.
         25    2    1    2    0    0  0.14089203357E+03 -0.12768416478E+03  0.79941087317E+03  0.83117243530E+03  0.12504424018E+03 0.  0.
          5    1    3    3  502    0  0.43694225368E+01  0.19619652681E+02  0.15008010086E+03  0.15147782577E+03  0.41800000000E+01 0.  1.
         -5    1    3    3    0  502  0.13652261103E+03 -0.14730381746E+03  0.64933077231E+03  0.67969460953E+03  0.41800000000E+01 0.  1.
        -11    1    1    2    0    0 -0.71876028201E+02  0.95807387442E+01  0.15384593874E+03  0.17007800226E+03  0.00000000000E+00 0.  1.
         11    1    1    2    0    0 -0.69016005367E+02  0.11810342603E+03  0.31069600758E+03  0.33947553279E+03  0.00000000000E+00 0. -1.
</event>
<event>
 7    1  0.2688219E-010  0.8481989E+02  0.7561462E-02  0.1315904E+00
          2   -1    0    0  501    0  0.00000000000E+00  0.00000000000E+00  0.11368656965E+03  0.11368656965E+03  0.00000000000E+00 0. -1.
         -2   -1    0    0    0  501 -0.00000000000E+00 -0.00000000000E+00 -0.13628342974E+03  0.13628342974E+03  0.00000000000E+00 0.  1.
         25    2    1    2    0    0 -0.21224724741E+02  0.85241457017E+01  0.45307120205E+02  0.13501424431E+03  0.12511179411E+03 0.  0.
          5    1    3    3  502    0 -0.10265417482E+02  0.47313317479E+02  0.71727456959E+02  0.86638497729E+02  0.41800000000E+01 0.  1.
         -5    1    3    3    0  502 -0.10959307259E+02 -0.38789171777E+02 -0.26420336754E+02  0.48375746578E+02  0.41800000000E+01 0.  1.
        -11    1    1    2    0    0 -0.27792502644E+02  0.77853943999E+01 -0.54365287995E+02  0.61551767708E+02  0.00000000000E+00 0.  1.
         11    1    1    2    0    0  0.49017227384E+02 -0.16309540102E+02 -0.13538692295E+02  0.53403987378E+02  0.00000000000E+00 0. -1.
</event>
<event>
 7    1  0.2412631E-010  0.1789201E+03  0.7561462E-02  0.1168852E+00
          2   -1    0    0  501    0  0.00000000000E+00  0.00000000000E+00  0.78161756100E+03  0.78161756100E+03  0.00000000000E+00 0. -1.
         -2   -1    0    0    0  501 -0.00000000000E+00 -0.00000000000E+00 -0.55447250201E+02  0.55447250201E+02  0.00000000000E+00 0.  1.
         25    2    1    2    0    0  0.14684134264E+03 -0.62487391830E+02  0.53841107404E+03  0.57533532427E+03  0.12512872035E+03 0.  0.
          5    1    3    3  502    0 -0.84507086720E+01 -0.25113678540E+02  0.19182786788E+03  0.19369438459E+03  0.41800000000E+01 0.  1.
         -5    1    3    3    0  502  0.15529205131E+03 -0.37373713290E+02  0.34658320616E+03  0.38164093968E+03  0.41800000000E+01 0.  1.
        -11    1    1    2    0    0 -0.87309070416E+02  0.34272603394E+01  0.14054976116E+03  0.16549578621E+03  0.00000000000E+00 0.  1.
         11    1    1    2    0    0 -0.59532272226E+02  0.59060131491E+02  0.47209475594E+02  0.96233700719E+02  0.00000000000E+00 0. -1.
</event>
<event>
 6    1  0.2412631E-010  0.1278507E+03  0.7561462E-02  0.1230680E+00
         -2   -1    0    0    0  501 -0.00000000000E+00  0.00000000000E+00  0.20677803482E+03  0.20677803482E+03  0.00000000000E+00 0.  1.
          2   -1    0    0  501    0  0.00000000000E+00 -0.00000000000E+00 -0.14151000248E+03  0.14151000248E+03  0.00000000000E+00 0. -1.
          5    1    1    2  502    0  0.59934624498E+02  0.49153063957E+02 -0.10271273461E+02  0.78301688159E+02  0.41800000000E+01 0. -1.
         -5    1    1    2    0  502  0.46558318370E+02 -0.21485330704E+01  0.10866574117E+03  0.11831318146E+03  0.41800000000E+01 0. -1.
        -11    1    1    2    0    0 -0.15653624141E+02 -0.36651149120E+02 -0.44272971236E+02  0.59568772546E+02  0.00000000000E+00 0.  1.
         11    1    1    2    0    0 -0.90839318727E+02 -0.10353381766E+02  0.11146535875E+02  0.92104395133E+02  0.00000000000E+00 0. -1.
</event>
<event>
 7    1  0.2412631E-010  0.8471560E+02  0.7561462E-02  0.1316178E+00
          2   -1    0    0  501    0  0.00000000000E+00  0.00000000000E+00  0.37162178503E+03  0.37162178503E+03  0.00000000000E+00 0. -1.
         -2   -1    0    0    0  501 -0.00000000000E+00 -0.00000000000E+00 -0.41120103261E+02  0.41120103261E+02  0.00000000000E+00 0.  1.
         25    2    1    2    0    0 -0.41621756613E+02  0.25828366617E+01  0.25465381206E+03  0.28677854967E+03  0.12511726854E+03 0.  0.
          5    1    3    3  502    0 -0.36598605621E+01 -0.23629445655E+02  0.23534576391E+03  0.23659426509E+03  0.41800000000E+01 0.  1.
         -5    1    3    3    0  502 -0.37961896050E+02  0.26212282317E+02  0.19308048150E+02  0.50184284585E+02  0.41800000000E+01 0.  1.
        -11    1    1    2    0    0  0.38001231826E+02  0.40537392675E+02  0.30929586083E+02  0.63592555543E+02  0.00000000000E+00 0.  1.
         11    1    1    2    0    0  0.36205247867E+01 -0.43120229337E+02  0.44918283628E+02  0.62370783079E+02  0.00000000000E+00 0. -1.
</event>
<event>
 7    1  0.2412631E-010  0.1191831E+03  0.7561462E-02  0.1244451E+00
         -1   -1    0    0    0  501 -0.00000000000E+00  0.00000000000E+00  0.33578203551E+03  0.33578203551E+03  0.00000000000E+00 0.  1.
          1   -1    0    0  501    0  0.00000000000E+00 -0.00000000000E+00 -0.60929658166E+02  0.60929658166E+02  0.00000000000E+00 0. -1.
         25    2    1    2    0    0 -0.69708735789E+02 -0.32597993141E+02  0.21978478366E+03  0.26432013258E+03  0.12505136687E+03 0.  0.
          5    1    3    3  502    0  0.78918400032E+01 -0.62763487147E+02  0.99127059063E+02  0.11766555442E+03  0.41800000000E+01 0. -1.
         -5    1    3    3    0  502 -0.77600575793E+02  0.30165494006E+02  0.12065772459E+03  0.14665457816E+03  0.41800000000E+01 0. -1.
        -11    1    1    2    0    0  0.43934932550E+02 -0.68711440802E+01 -0.15873200759E+02  0.47217045878E+02  0.00000000000E+00 0. -1.
         11    1    1    2    0    0  0.25773803239E+02  0.39469137221E+02  0.70940794450E+02  0.85174515224E+02  0.00000000000E+00 0.  1.
</event>
<event>
 7    1  0.2412631E-010  0.1702537E+03  0.7561462E-02  0.1177584E+00
         -2   -1    0    0    0  501 -0.00000000000E+00  0.00000000000E+00  0.14173548247E+03  0.14173548247E+03  0.00000000000E+00 0.  1.
          2   -1    0    0  501    0  0.00000000000E+00 -0.00000000000E+00 -0.24118880874E+03  0.24118880874E+03  0.00000000000E+00 0. -1.
         25    2    1    2    0    0  0.10285896335E+03 -0.10427872395E+03 -0.23687170407E+02  0.19409354917E+03  0.12512875440E+03 0.  0.
          5    1    3    3  502    0  0.59465823784E+02 -0.12298302283E+03  0.82326268827E+01  0.13691696990E+03  0.41800000000E+01 0. -1.
         -5    1    3    3    0  502  0.43393139565E+02  0.18704298880E+02 -0.31919797290E+02  0.57176579269E+02  0.41800000000E+01 0. -1.
        -11    1    1    2    0    0 -0.10486314366E+03  0.79630055957E+02 -0.90750551055E+02  0.15991525014E+03  0.00000000000E+00 0. -1.
         11    1    1    2    0    0  0.20041803084E+01  0.24648667988E+02  0.14984395194E+02  0.28915491897E+02  0.00000000000E+00 0.  1.
</event>
<event>
 6    1  0.2412631E-010  0.1579157E+03  0.7561462E-02  0.1191070E+00
         -1   -1    0    0    0  501 -0.00000000000E+00  0.00000000000E+00  0.15273683861E+03  0.15273683861E+03  0.00000000000E+00 0.  1.
          1   -1    0    0  501    0  0.00000000000E+00 -0.00000000000E+00 -0.18927553975E+03  0.18927553975E+03  0.00000000000E+00 0. -1.
          5    1    1    2  502    0 -0.98003046508E+02 -0.58661449708E+02 -0.28340465942E+00  0.11429486220E+03  0.41800000000E+01 0.  1.
         -5    1    1    2    0  502  0.26238396452E+02 -0.41512412834E+02 -0.45826867507E+02  0.67300134125E+02  0.41800000000E+01 0.  1.
        -11    1    1    2    0    0  0.59412930195E+02  0.88190732230E+01 -0.20475758919E+02  0.63458088769E+02  0.00000000000E+00 0. -1.
         11    1    1    2    0    0  0.12351719861E+02  0.91354789319E+02  0.30047329942E+02  0.96959293271E+02  0.00000000000E+00 0.  1.
</event>
<event>
 7    1  0.2412631E-010  0.1311518E+03  0.7561462E-02  0.1225757E+00
          1   -1    0    0  501    0  0.00000000000E+00  0.00000000000E+00  0.15555227105E+04  0.15555227105E+04  0.00000000000E+00 0. -1.
         -1   -1    0    0    0  501 -0.00000000000E+00 -0.00000000000E+00 -0.16708366865E+02  0.16708366865E+02  0.00000000000E+00 0.  1.
         25    2    1    2    0    0 -0.88194051667E+02 -0.49657272410E+02  0.11450533311E+04  0.11563095926E+04  0.12514274769E+03 0.  0.
          5    1    3    3  502    0 -0.11542184378E+03 -0.24364580870E+02  0.97939287897E+03  0.98648047046E+03  0.41800000000E+01 0. -1.
         -5    1    3    3    0  502  0.27227792115E+02 -0.25292691540E+02  0.16566045216E+03  0.16982912212E+03  0.41800000000E+01 0. -1.
        -11    1    1    2    0    0  0.41710549744E+02  0.43004912921E+02  0.33686426621E+03  0.34215015175E+03  0.00000000000E+00 0. -1.
         11    1    1    2    0    0  0.46483501923E+02  0.66523594896E+01  0.56896746259E+02  0.73771333000E+02  0.00000000000E+00 0.  1.
</event>
<event>
 7    1  0.2412631E-010  0.7456250E+02  0.7561462E-02  0.1345231E+00
          1   -1    0    0  501    0  0.00000000000E+00  0.00000000000E+00  0.11421013104E+03  0.11421013104E+03  0.00000000000E+00 0. -1.
         -1   -1    0    0    0  501 -0.00000000000E+00 -0.00000000000E+00 -0.12420844355E+03  0.12420844355E+03  0.00000000000E+00 0.  1.
         25    2    1    2    0    0 -0.15006986139E+02  0.11558011218E+01  0.36513035433E+02  0.13121800254E+03  0.12513359631E+03 0.  0.
          5    1    3    3  502    0 -0.30939125717E+02 -0.24631939850E+02 -0.35289352872E+02  0.53167403426E+02  0.41800000000E+01 0. -1.
         -5    1    3    3    0  502  0.15932139578E+02  0.25787740972E+02  0.71802388305E+02  0.78050599115E+02  0.41800000000E+01 0. -1.
        -11    1    1    2    0    0  0.23081213239E+02  0.34882167248E+02  0.67698664657E+01  0.42371441897E+02  0.00000000000E+00 0. -1.
         11    1    1    2    0    0 -0.80742270993E+01 -0.36037968370E+02 -0.53281214405E+02  0.64829130150E+02  0.00000000000E+00 0.  1.
</event>
<event>
 6    1  0.2412631E-010  0.2262516E+03  0.7561462E-02  0.1129306E+00
          2   -1    0    0  501    0  0.00000000000E+00  0.00000000000E+00  0.92632153026E+03  0.92632153026E+03  0.00000000000E+00 0.  1.
         -2   -1    0    0    0  501 -0.00000000000E+00 -0.00000000000E+00 -0.18626373180E+03  0.18626373180E+03  0.00000000000E+00 0. -1.
          5    1    1    2  502    0  0.37425079017E+01 -0.14310668982E+02  0.65816735152E+01  0.16721017863E+02  0.41800000000E+01 0. -1.
         -5    1    1    2    0  502  0.34773852284E+01  0.22430283507E+03 -0.88859059901E+02  0.24132397095E+03  0.41800000000E+01 0. -1.
        -11    1    1    2    0    0 -0.18497145716E+02 -0.72976508221E+02  0.14484056517E+03  0.16323757065E+03  0.00000000000E+00 0.  1.
         11    1    1    2    0    0  0.11277252586E+02 -0.13701565787E+03  0.67749461968E+03  0.69130270260E+03  0.00000000000E+00 0. -1.
</event>
<event>
 6    1  0.2412631E-010  0.2499335E+03  0.7561462E-02  0.1113347E+00
         -1   -1    0    0    0  501 -0.00000000000E+00  0.00000000000E+00  0.49752139840E+02  0.49752139840E+02  0.00000000000E+00 0.  1.
          1   -1    0    0  501    0  0.00000000000E+00 -0.00000000000E+00 -0.13236872936E+04  0.13236872936E+04  0.00000000000E+00 0. -1.
          5    1    1    2  502    0  0.42669527454E+02 -0.27574676686E+02 -0.17781917012E+03  0.18498156944E+03  0.41800000000E+01 0. -1.
         -5    1    1    2    0  502 -0.58783359517E+02 -0.19957548936E+03 -0.59952120792E+03  0.63460933688E+03  0.41800000000E+01 0. -1.
        -11    1    1    2    0    0  0.47369120873E+02  0.11502716221E+03 -0.30868908964E+03  0.33281231306E+03  0.00000000000E+00 0. -1.
         11    1    1    2    0    0 -0.31255288810E+02  0.11212300384E+03 -0.18790568602E+03  0.22103621402E+03  0.00000000000E+00 0.  1.
</event>
<event>
 7    1  0.2412631E-010  0.1804401E+03  0.7561462E-02  0.1167378E+00
         -1   -1    0    0    0  501 -0.00000000000E+00  0.00000000000E+00  0.98249251474E+02  0.98249251474E+02  0.00000000000E+00 0.  1.
          1   -1    0    0  501    0  0.00000000000E+00 -0.00000000000E+00 -0.46076991069E+03  0.46076991069E+03  0.00000000000E+00 0. -1.
         25    2    1    2    0    0 -0.17463032957E+03 -0.40024552504E+02 -0.14043150751E+03  0.25976526235E+03  0.12513699058E+03 0.  0.
          5    1    3    3  502    0 -0.13466627274E+03 -0.18384188861E+02 -0.28565538403E+02  0.13894763689E+03  0.41800000000E+01 0. -1.
         -5    1    3    3    0  502 -0.39964056833E+02 -0.21640363643E+02 -0.11186596910E+03  0.12081762546E+03  0.41800000000E+01 0. -1.
        -11    1    1    2    0    0  0.10741818996E+03  0.27652694827E+02 -0.19770085983E+03  0.22669135194E+03  0.00000000000E+00 0.  1.
         11    1    1    2    0    0  0.67212139609E+02  0.12371857677E+02 -0.24388291875E+02  0.72562547873E+02  0.00000000000E+00 0. -1.
</event>
<event>
 7    1  0.2412631E-010  0.1813405E+03  0.7561462E-02  0.1166512E+00
          1   -1    0    0  501    0  0.00000000000E+00  0.00000000000E+00  0.22930975855E+03  0.22930975855E+03  0.00000000000E+00 0. -1.
         -1   -1    0    0    0  501 -0.00000000000E+00 -0.00000000000E+00 -0.16693950423E+03  0.16693950423E+03  0.00000000000E+00 0.  1.
         25    2    1    2    0    0  0.36225183068E+01  0.16130420848E+03 -0.13597978046E+01  0.20413897200E+03  0.12505479010E+03 0.  0.
          5    1    3    3  502    0 -0.22343431747E+02  0.26155547840E+01 -0.33046159352E+02  0.40194416491E+02  0.41800000000E+01 0.  1.
         -5    1    3    3    0  502  0.25965950054E+02  0.15868865369E+03  0.31686361548E+02  0.16394455551E+03  0.41800000000E+01 0.  1.
        -11    1    1    2    0    0  0.34284954720E+02 -0.10958339154E+03  0.55264195515E+02  0.12742883947E+03  0.00000000000E+00 0.  1.
         11    1    1    2    0    0 -0.37907473027E+02 -0.51720816937E+02  0.84658566081E+01  0.64681451314E+02  0.00000000000E+00 0. -1.
</event>
<event>
 7    1  0.2412631E-010  0.1062519E+03  0.7561462E-02  0.1267672E+00
          2   -1    0    0  501    0  0.00000000000E+00  0.00000000000E+00  0.23940202616E+03  0.23940202616E+03  0.00000000000E+00 0. -1.
         -2   -1    0    0    0  501 -0.00000000000E+00 -0.00000000000E+00 -0.68860267410E+02  0.68860267410E+02  0.00000000000E+00 0.  1.
         25    2    1    2    0    0  0.22994164777E+02 -0.69338343152E+02  0.67110324735E+02  0.15960518382E+03  0.12503392168E+03 0.  0.
          5    1    3    3  502    0  0.66774892067E+02 -0.68004808150E+02  0.24816284162E+02  0.98574137083E+02  0.41800000000E+01 0. -1.
         -5    1    3    3    0  502 -0.43780727290E+02 -0.13335350023E+01  0.42294040573E+02  0.61031046735E+02  0.41800000000E+01 0. -1.
        -11    1    1    2    0    0 -0.85170546017E+01  0.21567917319E+02  0.95303196767E+02  0.98083712157E+02  0.00000000000E+00 0. -1.
         11    1    1    2    0    0 -0.14477110175E+02  0.47770425833E+02  0.81282372471E+01  0.50573397593E+02  0.00000000000E+00 0.  1.
</event>
<event>
 6    1  0.2412631E-010  0.1859015E+03  0.7561462E-02  0.1162211E+00
         -2   -1    0    0    0  501 -0.00000000000E+00  0.00000000000E+00  0.21640225584E+03  0.21640225584E+03  0.00000000000E+00 0.  1.
          2   -1    0    0  501    0  0.00000000000E+00 -0.00000000000E+00 -0.21743667503E+03  0.21743667503E+03  0.00000000000E+00 0. -1.
          5    1    1    2  502    0  0.93040027599E+02  0.11890707622E+03  0.16182076598E+02  0.15190349408E+03  0.41800000000E+01 0. -1.
         -5    1    1    2    0  502  0.92290154635E+01  0.30941385156E+02 -0.66906947868E+02  0.74408037972E+02  0.41800000000E+01 0. -1.
        -11    1    1    2    0    0 -0.94688666435E+02 -0.99742896769E+02  0.68283042335E+02  0.15354856846E+03  0.00000000000E+00 0.  1.
         11    1    1    2    0    0 -0.75803766279E+01 -0.50105564608E+02 -0.18592590250E+02  0.53978830357E+02  0.00000000000E+00 0. -1.
</event>
<event>
 7    1  0.2412631E-010  0.1290274E+03  0.7561462E-02  0.1228906E+00
          1   -1    0    0  501    0  0.00000000000E+00  0.00000000000E+00  0.14085158866E+03  0.14085158866E+03  0.00000000000E+00 0. -1.
         -1   -1    0    0    0  501 -0.00000000000E+00 -0.00000000000E+00 -0.14116650411E+03  0.14116650411E+03  0.00000000000E+00 0.  1.
         25    2    1    2    0    0  0.81762213890E+02  0.16823082833E+02 -0.32849805770E+02  0.15388521773E+03  0.12503389445E+03 0.  0.
          5    1    3    3  502    0 -0.15813396337E+02  0.32712582082E+02  0.20022548432E+02  0.41695939561E+02  0.41800000000E+01 0. -1.
         -5    1    3    3    0  502  0.97575610226E+02 -0.15889499249E+02 -0.52872354202E+02  0.11218927817E+03  0.41800000000E+01 0. -1.
        -11    1    1    2    0    0 -0.22156122384E+02 -0.49732124529E+02  0.49464358197E+01  0.54668502784E+02  0.00000000000E+00 0.  1.
         11    1    1    2    0    0 -0.59606091506E+02  0.32909041696E+02  0.27588454496E+02  0.73464372259E+02  0.00000000000E+00 0. -1.
</event>
<event>
 6    1  0.2412631E-010  0.9655079E+02  0.7561462E-02  0.1287721E+00
          2   -1    0    0  501    0  0.00000000000E+00  0.00000000000E+00  0.19050634083E+03  0.19050634083E+03  0.00000000000E+00 0. -1.
         -2   -1    0    0    0  501 -0.00000000000E+00 -0.00000000000E+00 -0.10710399936E+03  0.10710399936E+03  0.00000000000E+00 0.  1.
          5    1    1    2  502    0  0.10873793253E+02 -0.47162805837E+02  0.63338273364E+02  0.79823423297E+02  0.41800000000E+01 0. -1.
         -5    1    1    2    0  502 -0.37587500172E+02 -0.36623123831E+02 -0.51257902137E+02  0.73477331878E+02  0.41800000000E+01 0. -1.
        -11    1    1    2    0    0 -0.53813011759E+01  0.15885022653E+02 -0.19980228364E+02  0.26086430812E+02  0.00000000000E+00 0.  1.
         11    1    1    2    0    0  0.32095008095E+02  0.67900907015E+02  0.91302198612E+02  0.11822315420E+03  0.00000000000E+00 0. -1.
</event>
<event>
 7    1  0.2412631E-010  0.1162201E+03  0.7561462E-02  0.1249466E+00
         -1   -1    0    0    0  501 -0.00000000000E+00  0.00000000000E+00  0.15080001615E+02  0.15080001615E+02  0.00000000000E+00 0.  1.
          1   -1    0    0  501    0  0.00000000000E+00 -0.00000000000E+00 -0.12280036379E+04  0.12280036379E+04  0.00000000000E+00 0. -1.
         25    2    1    2    0    0 -0.24916692914E+02  0.70229527581E+02 -0.76028442799E+03  0.77409753898E+03  0.12506622357E+03 0.  0.
          5    1    3    3  502    0 -0.45023834124E+02  0.76019817191E+02 -0.73786317070E+03  0.74314580624E+03  0.41800000000E+01 0.  1.
         -5    1    3    3    0  502  0.20107141210E+02 -0.57902896092E+01 -0.22421257285E+02  0.30951732740E+02  0.41800000000E+01 0.  1.
        -11    1    1    2    0    0 -0.24618870351E+02 -0.68825217748E+02 -0.26082411991E+03  0.27087307157E+03  0.00000000000E+00 0.  1.
         11    1    1    2    0    0  0.49535563265E+02 -0.14043098337E+01 -0.19181508838E+03  0.19811302897E+03  0.00000000000E+00 0. -1.
</event>
<event>
 7    1  0.2412631E-010  0.1024928E+03  0.7561462E-02  0.1275140E+00
         -2   -1    0    0    0  501 -0.00000000000E+00  0.00000000000E+00  0.31145245211E+02  0.31145245211E+02  0.00000000000E+00 0. -1.
          2   -1    0    0  501    0  0.00000000000E+00 -0.00000000000E+00 -0.46924054191E+03  0.46924054191E+03  0.00000000000E+00 0.  1.
         25    2    1    2    0    0 -0.73377676268E+01 -0.45324761896E+02 -0.19042731095E+03  0.23240717876E+03  0.12506941716E+03 0.  0.
          5    1    3    3  502    0 -0.61232760334E+02  0.19630030807E+01 -0.86949295361E+02  0.10644696653E+03  0.41800000000E+01 0.  1.
         -5    1    3    3    0  502  0.53894992707E+02 -0.47287764977E+02 -0.10347801559E+03  0.12596021223E+03  0.41800000000E+01 0.  1.
        -11    1    1    2    0    0  0.30926710049E+02  0.32678478408E+02 -0.23330392411E+03  0.23760274693E+03  0.00000000000E+00 0.  1.
         11    1    1    2    0    0 -0.23588942422E+02  0.12646283488E+02 -0.14364061638E+02  0.30375861427E+02  0.00000000000E+00 0. -1.
</event>
<event>
 6    1  0.2412631E-010  0.2544318E+03  0.7561462E-02  0.1110536E+00
         -2   -1    0    0    0  501 -0.00000000000E+00  0.00000000000E+00  0.23415690240E+03  0.23415690240E+03  0.00000000000E+00 0.  1.
          2   -1    0    0  501    0  0.00000000000E+00 -0.00000000000E+00 -0.33288969022E+03  0.33288969022E+03  0.00000000000E+00 0. -1.
          5    1    1    2  502    0  0.54464451294E+02 -0.41877469109E+02 -0.13172679626E+02  0.70079174954E+02  0.41800000000E+01 0. -1.
         -5    1    1    2    0  502 -0.22049743652E+02 -0.19728576970E+03 -0.12703047010E+03  0.23571609799E+03  0.41800000000E+01 0. -1.
        -11    1    1    2    0    0 -0.19939962707E+01  0.35162512066E+02  0.42236274263E+02  0.54993464517E+02  0.00000000000E+00 0.  1.
         11    1    1    2    0    0 -0.30420711371E+02  0.20400072674E+03 -0.76591235504E+00  0.20625785515E+03  0.00000000000E+00 0. -1.
</event>
<event>
 7    1  0.2412631E-010  0.8143777E+02  0.7561462E-02  0.1325020E+00
          3   -1    0    0  501    0  0.00000000000E+00  0.00000000000E+00  0.22984001635E+03  0.22984001635E+03  0.00000000000E+00 0. -1.
         -3   -1    0    0    0  501 -0.00000000000E+00 -0.00000000000E+00 -0.75561556519E+02  0.75561556519E+02  0.00000000000E+00 0.  1.
         25    2    1    2    0    0  0.28464782574E+02 -0.44433210623E+02  0.14697178125E+03  0.20009585790E+03  0.12511232479E+03 0.  0.
          5    1    3    3  502    0  0.16569543548E+02 -0.69175275011E+02  0.15549851658E+03  0.17104686348E+03  0.41800000000E+01 0. -1.
         -5    1    3    3    0  502  0.11895239026E+02  0.24742064389E+02 -0.85267353346E+01  0.29048994426E+02  0.41800000000E+01 0. -1.
        -11    1    1    2    0    0 -0.13379678288E+02 -0.33088802914E+01 -0.36351088179E+02  0.38876292154E+02  0.00000000000E+00 0.  1.
         11    1    1    2    0    0 -0.15085104286E+02  0.47742090914E+02  0.43657766762E+02  0.66429422810E+02  0.00000000000E+00 0. -1.
</event>
<event>
 7    1  0.2412631E-010  0.6587381E+02  0.7561462E-02  0.1374714E+00
         -2   -1    0    0    0  501 -0.00000000000E+00  0.00000000000E+00  0.67772451448E+02  0.67772451448E+02  0.00000000000E+00 0.  1.
          2   -1    0    0  501    0  0.00000000000E+00 -0.00000000000E+00 -0.25367462112E+03  0.25367462112E+03  0.00000000000E+00 0. -1.
         25    2    1    2    0    0 -0.12141828680E+01 -0.44487536154E+02 -0.15307132094E+03  0.20261198843E+03  0.12506067906E+03 0.  0.
          5    1    3    3  502    0 -0.14673775373E+02 -0.11401558686E+02  0.18952187827E+02  0.26869556148E+02  0.41800000000E+01 0.  1.
         -5    1    3    3    0  502  0.13459592506E+02 -0.33085977469E+02 -0.17202350877E+03  0.17574243228E+03  0.41800000000E+01 0.  1.
        -11    1    1    2    0    0 -0.17439978084E+02 -0.93302370950E+01  0.28784979640E+02  0.34925366322E+02  0.00000000000E+00 0.  1.
         11    1    1    2    0    0  0.18654160952E+02  0.53817773249E+02 -0.61615828372E+02  0.83909717818E+02  0.00000000000E+00 0. -1.
</event>
<event>
 7    1  0.2978335E-010  0.1769030E+03  0.7561462E-02  0.1170834E+00
          2   -1    0    0  501    0  0.00000000000E+00  0.00000000000E+00  0.10430895687E+04  0.10430895687E+04  0.00000000000E+00 0. -1.
         -2   -1    0    0    0  501 -0.00000000000E+00 -0.00000000000E+00 -0.31672170206E+02  0.31672170206E+02  0.00000000000E+00 0.  1.
         25    2    1    2    0    0 -0.15390001906E+02  0.13825870037E+03  0.65538043395E+03  0.68156406037E+03  0.12511488639E+03 0.  0.
          5    1    3    3  502    0  0.47799187759E+02  0.18174907328E+02  0.18540517895E+03  0.19237370503E+03  0.41800000000E+01 0.  1.
         -5    1    3    3    0  502 -0.63189189665E+02  0.12008379304E+03  0.46997525500E+03  0.48919035534E+03  0.41800000000E+01 0.  1.
        -11    1    1    2    0    0 -0.37999338136E+02 -0.74070249521E+02  0.18524016397E+03  0.20308685312E+03  0.00000000000E+00 0. -1.
         11    1    1    2    0    0  0.53389340042E+02 -0.64188450848E+02  0.17079680054E+03  0.19011082538E+03  0.00000000000E+00 0.  1.
</event>
<event>
 7    1  0.2412631E-010  0.6046547E+02  0.7561462E-02  0.1395889E+00
         -1   -1    0    0    0  501 -0.00000000000E+00  0.00000000000E+00  0.62605136225E+02  0.62605136225E+02  0.00000000000E+00 0.  1.
          1   -1    0    0  501    0  0.00000000000E+00 -0.00000000000E+00 -0.22154152102E+03  0.22154152102E+03  0.00000000000E+00 0. -1.
         25    2    1    2    0    0 -0.78255199887E+01  0.21294509545E+02 -0.14123286554E+03  0.19000821707E+03  0.12506680354E+03 0.  0.
          5    1    3    3  502    0 -0.18336539845E+02 -0.18145469403E+02 -0.14634575277E+03  0.14866081699E+03  0.41800000000E+01 0. -1.
         -5    1    3    3    0  502  0.10511019857E+02  0.39439978947E+02  0.51128872351E+01  0.41347400084E+02  0.41800000000E+01 0. -1.
        -11    1    1    2    0    0  0.27987212704E+02 -0.64242036343E+01 -0.47317667588E+02  0.55349039136E+02  0.00000000000E+00 0. -1.
         11    1    1    2    0    0 -0.20161692715E+02 -0.14870305911E+02  0.29614148333E+02  0.38789401033E+02  0.00000000000E+00 0.  1.
</event>
<event>
 7    1  0.2412631E-010  0.2755375E+03  0.7561462E-02  0.1098152E+00
         -2   -1    0    0    0  501 -0.00000000000E+00  0.00000000000E+00  0.62683883343E+02  0.62683883343E+02  0.00000000000E+00 0. -1.
          2   -1    0    0  501    0  0.00000000000E+00 -0.00000000000E+00 -0.13514603156E+04  0.13514603156E+04  0.00000000000E+00 0.  1.
         25    2    1    2    0    0 -0.26292598756E+03 -0.56724371303E+02 -0.66441062828E+03  0.72763077649E+03  0.12512927191E+03 0.  0.
          5    1    3    3  502    0 -0.59464212705E+02 -0.48766067766E+02 -0.30454526889E+03  0.31413279861E+03  0.41800000000E+01 0.  1.
         -5    1    3    3    0  502 -0.20346177486E+03 -0.79583035374E+01 -0.35986535939E+03  0.41349797788E+03  0.41800000000E+01 0.  1.
        -11    1    1    2    0    0  0.14120414060E+03  0.16314016508E+02 -0.21679184079E+03  0.25923629895E+03  0.00000000000E+00 0. -1.
         11    1    1    2    0    0  0.12172184696E+03  0.40410354795E+02 -0.40757396314E+03  0.42727712346E+03  0.00000000000E+00 0.  1.
</event>
<event>
 7    1  0.2412631E-010  0.2673412E+03  0.7561462E-02  0.1102811E+00
         -1   -1    0    0    0  501 -0.00000000000E+00  0.00000000000E+00  0.82428703112E+02  0.82428703112E+02  0.00000000000E+00 0.  1.
          1   -1    0    0  501    0  0.00000000000E+00 -0.00000000000E+00 -0.10095774612E+04  0.10095774612E+04  0.00000000000E+00 0. -1.
         25    2    1    2    0    0  0.13838303525E+03  0.22158781602E+03 -0.37010435539E+03  0.46998964012E+03  0.12514792562E+03 0.  0.
          5    1    3    3  502    0  0.11519285155E+03  0.17628923222E+03 -0.19303402120E+03  0.28570420400E+03  0.41800000000E+01 0.  1.
         -5    1    3    3    0  502  0.23190183698E+02  0.45298583803E+02 -0.17707033419E+03  0.18428543611E+03  0.41800000000E+01 0.  1.
        -11    1    1    2    0    0 -0.85050050346E+02 -0.19637149972E+03 -0.47484107082E+03  0.52083521338E+03  0.00000000000E+00 0. -1.
         11    1    1    2    0    0 -0.53332984900E+02 -0.25216316297E+02 -0.82203331914E+02  0.10118131084E+03  0.00000000000E+00 0.  1.
</event>
<event>
 7    1  0.2412631E-010  0.1304054E+03  0.7561462E-02  0.1226855E+00
         -2   -1    0    0    0  501 -0.00000000000E+00  0.00000000000E+00  0.26561513877E+03  0.26561513877E+03  0.00000000000E+00 0.  1.
          2   -1    0    0  501    0  0.00000000000E+00 -0.00000000000E+00 -0.87487681076E+02  0.87487681076E+02  0.00000000000E+00 0. -1.
         25    2    1    2    0    0 -0.76439851733E+02 -0.62127190389E+02  0.37483249208E+02  0.16355193244E+03  0.12506559045E+03 0.  0.
          5    1    3    3  502    0 -0.95574471637E+02 -0.62440268434E+02  0.63720387247E+02  0.13080912392E+03  0.41800000000E+01 0. -1.
         -5    1    3    3    0  502  0.19134619904E+02  0.31307804471E+00 -0.26237138039E+02  0.32742808512E+02  0.41800000000E+01 0. -1.
        -11    1    1    2    0    0  0.51112903807E+02 -0.86235560846E+01  0.61035304818E+02  0.80076232987E+02  0.00000000000E+00 0.  1.
         11    1    1    2    0    0  0.25326947926E+02  0.70750746474E+02  0.79608903665E+02  0.10947465442E+03  0.00000000000E+00 0. -1.
</event>
<event>
 7    1  0.2412631E-010  0.1564947E+03  0.7561462E-02  0.1192712E+00
          2   -1    0    0  501    0  0.00000000000E+00  0.00000000000E+00  0.49059519384E+03  0.49059519384E+03  0.00000000000E+00 0.  1.
         -2   -1    0    0    0  501 -0.00000000000E+00 -0.00000000000E+00 -0.10050476800E+03  0.10050476800E+03  0.00000000000E+00 0. -1.
         25    2    1    2    0    0  0.15226535636E+03 -0.41052970018E+01  0.43926905248E+02  0.20195305946E+03  0.12511543873E+03 0.  0.
          5    1    3    3  502    0  0.11772803922E+03 -0.14208160355E+02 -0.27556839980E+02  0.12181385336E+03  0.41800000000E+01 0.  1.
         -5    1    3    3    0  502  0.34537317136E+02  0.10102863354E+02  0.71483745228E+02  0.80139206102E+02  0.41800000000E+01 0.  1.
        -11    1    1    2    0    0 -0.10535571416E+03  0.22479161633E+02  0.13852043177E+03  0.17547948379E+03  0.00000000000E+00 0. -1.
         11    1    1    2    0    0 -0.46909642194E+02 -0.18373864631E+02  0.20764308882E+03  0.21366741859E+03  0.00000000000E+00 0.  1.
</event>
<event>
 7    1  0.2412631E-010  0.1387924E+03  0.7561462E-02  0.1214963E+00
          1   -1    0    0  501    0  0.00000000000E+00  0.00000000000E+00  0.43786391772E+03  0.43786391772E+03  0.00000000000E+00 0. -1.
         -1   -1    0    0    0  501 -0.00000000000E+00 -0.00000000000E+00 -0.61956252363E+02  0.61956252363E+02  0.00000000000E+00 0.  1.
         25    2    1    2    0    0 -0.26861292185E+02 -0.10611728005E+03  0.28561376833E+03  0.33044733208E+03  0.12505122341E+03 0.  0.
          5    1    3    3  502    0 -0.18168113524E+02 -0.13206797798E+03  0.19938478670E+03  0.23988288127E+03  0.41800000000E+01 0. -1.
         -5    1    3    3    0  502 -0.86931786615E+01  0.25950697931E+02  0.86228981632E+02  0.90564450816E+02  0.41800000000E+01 0. -1.
        -11    1    1    2    0    0 -0.89328791646E+01  0.76854432529E+01 -0.16181357409E+02  0.20017459773E+02  0.00000000000E+00 0.  1.
         11    1    1    2    0    0  0.35794171350E+02  0.98431836800E+02  0.10647525444E+03  0.14935537823E+03  0.00000000000E+00 0. -1.
</event>
<event>
 7    1  0.2412631E-010  0.1650996E+03  0.7561462E-02  0.1183057E+00
          2   -1    0    0  501    0  0.00000000000E+00  0.00000000000E+00  0.35292160742E+02  0.35292160742E+02  0.00000000000E+00 0. -1.
         -2   -1    0    0    0  501 -0.00000000000E+00 -0.00000000000E+00 -0.77919670636E+03  0.77919670636E+03  0.00000000000E+00 0.  1.
         25    2    1    2    0    0  0.10829431923E+03  0.60739637759E+02 -0.35932000184E+03  0.40022571774E+03  0.12511114355E+03 0.  0.
          5    1    3    3  502    0  0.82661407307E+02  0.99588756124E+02 -0.26009949950E+03  0.29055128746E+03  0.41800000000E+01 0.  1.
         -5    1    3    3    0  502  0.25632911924E+02 -0.38849118364E+02 -0.99220502340E+02  0.10967443027E+03  0.41800000000E+01 0.  1.
        -11    1    1    2    0    0 -0.10284588984E+03 -0.10431493201E+02 -0.25776905125E+03  0.27772464221E+03  0.00000000000E+00 0.  1.
         11    1    1    2    0    0 -0.54484293853E+01 -0.50308144558E+02 -0.12681549252E+03  0.13653850715E+03  0.00000000000E+00 0. -1.
</event>
<event>
 7    1  0.2412631E-010  0.1607427E+03  0.7561462E-02  0.1187861E+00
         -1   -1    0    0    0  501 -0.00000000000E+00  0.00000000000E+00  0.21158271635E+03  0.21158271635E+03  0.00000000000E+00 0.  1.
          1   -1    0    0  501    0  0.00000000000E+00 -0.00000000000E+00 -0.15672471645E+03  0.15672471645E+03  0.00000000000E+00 0. -1.
         25    2    1    2    0    0 -0.12387219104E+03  0.29495312979E+02  0.10169244880E+03  0.20541550569E+03  0.12505951636E+03 0.  0.
          5    1    3    3  502    0 -0.25369049883E+02  0.67944046968E+02  0.40461356471E+02  0.83153929419E+02  0.41800000000E+01 0. -1.
         -5    1    3    3    0  502 -0.98503141161E+02 -0.38448733989E+02  0.61231092331E+02  0.12226157627E+03  0.41800000000E+01 0. -1.
        -11    1    1    2    0    0  0.83128327871E+02  0.13005703070E+02 -0.59010195901E+02  0.10276998797E+03  0.00000000000E+00 0. -1.
         11    1    1    2    0    0  0.40743863173E+02 -0.42501016049E+02  0.12175747002E+02  0.60121939145E+02  0.00000000000E+00 0.  1.
</event>
<event>
 7    1  0.2412631E-010  0.1464569E+03  0.7561462E-02  0.1204896E+00
         -2   -1    0    0    0  501 -0.00000000000E+00  0.00000000000E+00  0.66319474178E+02  0.66319474178E+02  0.00000000000E+00 0.  1.
          2   -1    0    0  501    0  0.00000000000E+00 -0.00000000000E+00 -0.38407191870E+03  0.38407191870E+03  0.00000000000E+00 0. -1.
         25    2    1    2    0    0 -0.90737451178E+02  0.65371844933E+02 -0.22087643058E+03  0.27736590330E+03  0.12505472230E+03 0.  0.
          5    1    3    3  502    0 -0.81643757042E+02 -0.15311183878E+02 -0.84306736933E+02  0.11842817954E+03  0.41800000000E+01 0. -1.
         -5    1    3    3    0  502 -0.90936941353E+01  0.80683028811E+02 -0.13656969365E+03  0.15893772376E+03  0.41800000000E+01 0. -1.
        -11    1    1    2    0    0  0.82185419566E+02 -0.23181880579E+02 -0.97972820028E+02  0.12996351888E+03  0.00000000000E+00 0. -1.
         11    1    1    2    0    0  0.85520316117E+01 -0.42189964354E+02  0.10968060867E+01  0.43061970699E+02  0.00000000000E+00 0.  1.
</event>
<event>
 7    1  0.2412631E-010  0.9740463E+02  0.7561462E-02  0.1285850E+00
         -1   -1    0    0    0  501 -0.00000000000E+00  0.00000000000E+00  0.46213354143E+02  0.46213354143E+02  0.00000000000E+00 0.  1.
          1   -1    0    0  501    0  0.00000000000E+00 -0.00000000000E+00 -0.27262995945E+03  0.27262995945E+03  0.00000000000E+00 0. -1.
         25    2    1    2    0    0  0.19700634217E+02  0.11808504935E+02 -0.10008978215E+03  0.16186778191E+03  0.12512257411E+03 0.  0.
          5    1    3    3  502    0  0.63113838296E+02  0.37152211034E+02 -0.77137314480E+02  0.10644849015E+03  0.41800000000E+01 0. -1.
         -5    1    3    3    0  502 -0.43413204079E+02 -0.25343706100E+02 -0.22952467665E+02  0.55419291760E+02  0.41800000000E+01 0. -1.
        -11    1    1    2    0    0  0.25142112373E+02 -0.53474782359E+01 -0.33540370285E+01  0.25922401557E+02  0.00000000000E+00 0.  1.
         11    1    1    2    0    0 -0.44842746590E+02 -0.64610266989E+01 -0.12297278613E+03  0.13105313013E+03  0.00000000000E+00 0. -1.
</event>
<event>
 7    1  0.2412631E-010  0.9122978E+02  0.7561462E-02  0.1299901E+00
         -1   -1    0    0    0  501 -0.00000000000E+00  0.00000000000E+00  0.37468095082E+02  0.37468095082E+02  0.00000000000E+00 0.  1.
          1   -1    0    0  501    0  0.00000000000E+00 -0.00000000000E+00 -0.42821369635E+03  0.42821369635E+03  0.00000000000E+00 0. -1.
         25    2    1    2    0    0 -0.64171555610E+02 -0.16787796738E+02 -0.23833619186E+03  0.27720788344E+03  0.12506099162E+03 0.  0.
          5    1    3    3  502    0 -0.15889587437E+02 -0.16398689139E+02 -0.22601241209E+03  0.22720140583E+03  0.41800000000E+01 0.  1.
         -5    1    3    3    0  502 -0.48281968173E+02 -0.38910759985E+00 -0.12323779772E+02  0.50006477613E+02  0.41800000000E+01 0.  1.
        -11    1    1    2    0    0  0.80767174552E+02  0.33307766728E+02 -0.11692476589E+03  0.14595939397E+03  0.00000000000E+00 0. -1.
         11    1    1    2    0    0 -0.16595618942E+02 -0.16519969989E+02 -0.35484643516E+02  0.42514514016E+02  0.00000000000E+00 0.  1.
</event>
<event>
 7    1  0.2412631E-010  0.1300439E+03  0.7561462E-02  0.1227391E+00
          2   -1    0    0  501    0  0.00000000000E+00  0.00000000000E+00  0.82598266671E+03  0.82598266671E+03  0.00000000000E+00 0. -1.
         -2   -1    0    0    0  501 -0.00000000000E+00 -0.00000000000E+00 -0.38174518981E+02  0.38174518981E+02  0.00000000000E+00 0.  1.
         25    2    1    2    0    0  0.74702581340E+02  0.30148501044E+02  0.69638930326E+03  0.71211351029E+03  0.12513265785E+03 0.  0.
          5    1    3    3  502    0  0.64024195647E+02 -0.40470284348E+02  0.40722374419E+03  0.41422891229E+03  0.41800000000E+01 0. -1.
         -5    1    3    3    0  502  0.10678385693E+02  0.70618785392E+02  0.28916555907E+03  0.29788459799E+03  0.41800000000E+01 0. -1.
        -11    1    1    2    0    0 -0.74999429845E+02  0.71928968829E+01  0.85957688265E+02  0.11430387751E+03  0.00000000000E+00 0. -1.
         11    1    1    2    0    0  0.29684850559E+00 -0.37341397926E+02  0.54611562077E+01  0.37739797896E+02  0.00000000000E+00 0.  1.
</event>
<event>
 6    1  0.2412631E-010  0.6546405E+02  0.7561462E-02  0.1376234E+00
          1   -1    0    0  501    0  0.00000000000E+00  0.00000000000E+00  0.11150181872E+03  0.11150181872E+03  0.00000000000E+00 0. -1.
         -1   -1    0    0    0  501 -0.00000000000E+00 -0.00000000000E+00 -0.12896784778E+03  0.12896784778E+03  0.00000000000E+00 0.  1.
          5    1    1    2  502    0 -0.80272987220E+01 -0.10654524298E+01 -0.65903507165E+02  0.66530574703E+02  0.41800000000E+01 0. -1.
         -5    1    1    2    0  502  0.33161924539E+02  0.43405086822E+02  0.43338344496E+02  0.69852697191E+02  0.41800000000E+01 0. -1.
        -11    1    1    2    0    0 -0.35086268084E+02 -0.15407537048E+02 -0.36908461381E+02  0.53204068712E+02  0.00000000000E+00 0.  1.
         11    1    1    2    0    0  0.99516422674E+01 -0.26932097345E+02  0.42007594987E+02  0.50882325888E+02  0.00000000000E+00 0. -1.
</event>
<event>
 7    1  0.2412631E-010  0.1088409E+03  0.7561462E-02  0.1262732E+00
          2   -1    0    0  501    0  0.00000000000E+00  0.00000000000E+00  0.27132158612E+03  0.27132158612E+03  0.00000000000E+00 0. -1.
         -2   -1    0    0    0  501 -0.00000000000E+00 -0.00000000000E+00 -0.58802199153E+02  0.58802199153E+02  0.00000000000E+00 0.  1.
         25    2    1    2    0    0 -0.22608991791E+02  0.32446429732E+02  0.49661342911E+02  0.14025717864E+03  0.12506754122E+03 0.  0.
          5    1    3    3  502    0 -0.60817749661E+02 -0.15790867054E+02  0.46896481441E+02  0.78516893263E+02  0.41800000000E+01 0. -1.
         -5    1    3    3    0  502  0.38208757869E+02  0.48237296786E+02  0.27648614705E+01  0.61740285374E+02  0.41800000000E+01 0. -1.
        -11    1    1    2    0    0  0.54719766881E+02 -0.16345800747E+02  0.70240985760E+02  0.90527532663E+02  0.00000000000E+00 0.  1.
         11    1    1    2    0    0 -0.32110775090E+02 -0.16100628985E+02  0.92617058298E+02  0.99339073975E+02  0.00000000000E+00 0. -1.
</event>
<event>
 7    1  0.2412631E-010  0.8924052E+02  0.7561462E-02  0.1304701E+00
          1   -1    0    0  501    0  0.00000000000E+00  0.00000000000E+00  0.66287426334E+03  0.66287426334E+03  0.00000000000E+00 0. -1.
         -1   -1    0    0    0  501 -0.00000000000E+00 -0.00000000000E+00 -0.26852809243E+02  0.26852809243E+02  0.00000000000E+00 0.  1.
         25    2    1    2    0    0  0.41754773315E+02 -0.65006095273E+02  0.34764412185E+03  0.37746459510E+03  0.12511527318E+03 0.  0.
          5    1    3    3  502    0  0.42246313757E+02 -0.61152412962E+02  0.35799051783E+03  0.36564880951E+03  0.41800000000E+01 0.  1.
         -5    1    3    3    0  502 -0.49154044138E+00 -0.38536823118E+01 -0.10346395985E+02  0.11815785595E+02  0.41800000000E+01 0.  1.
        -11    1    1    2    0    0  0.14493323178E+02  0.33558664425E+01  0.33235133798E+01  0.15243490332E+02  0.00000000000E+00 0.  1.
         11    1    1    2    0    0 -0.56248096494E+02  0.61650228831E+02  0.28505381887E+03  0.29701898714E+03  0.00000000000E+00 0. -1.
</event>
<event>
 7    1  0.2412631E-010  0.1701165E+03  0.7561462E-02  0.1177726E+00
          1   -1    0    0  501    0  0.00000000000E+00  0.00000000000E+00  0.46659076921E+03  0.46659076921E+03  0.00000000000E+00 0. -1.
         -1   -1    0    0    0  501 -0.00000000000E+00 -0.00000000000E+00 -0.71453222577E+02  0.71453222577E+02  0.00000000000E+00 0.  1.
         25    2    1    2    0    0  0.13657322828E+03  0.45497664489E+02  0.16817605218E+03  0.25428108295E+03  0.12511355027E+03 0.  0.
          5    1    3    3  502    0  0.15767026157E+03  0.36609928409E+02  0.16432128837E+03  0.23069277503E+03  0.41800000000E+01 0.  1.
         -5    1    3    3    0  502 -0.21097033289E+02  0.88877360803E+01  0.38547638093E+01  0.23588307914E+02  0.41800000000E+01 0.  1.
        -11    1    1    2    0    0 -0.94492941929E+02 -0.58334117970E+02  0.20814047754E+03  0.23591151685E+03  0.00000000000E+00 0.  1.
         11    1    1    2    0    0 -0.42080286350E+02  0.12836453480E+02  0.18821016913E+02  0.47851391985E+02  0.00000000000E+00 0. -1.
</event>
<event>
 7    1  0.2412631E-010  0.7891396E+02  0.7561462E-02  0.1332162E+00
         -1   -1    0    0    0  501 -0.00000000000E+00  0.00000000000E+00  0.60747463294E+02  0.60747463294E+02  0.00000000000E+00 0. -1.
          1   -1    0    0  501    0  0.00000000000E+00 -0.00000000000E+00 -0.33794061941E+03  0.33794061941E+03  0.00000000000E+00 0.  1.
         25    2    1    2    0    0  0.28547466173E+02 -0.34283301247E+02 -0.28355778660E+03  0.31309355637E+03  0.12502901314E+03 0.  0.
          5    1    3    3  502    0 -0.31622607142E+01 -0.47980014539E+02 -0.29292730275E+02  0.56458995165E+02  0.41800000000E+01 0.  1.
         -5    1    3    3    0  502  0.31709726887E+02  0.13696713292E+02 -0.25426505633E+03  0.25663456120E+03  0.41800000000E+01 0.  1.
        -11    1    1    2    0    0 -0.32828181820E+02  0.49257792561E+02  0.22352807176E+02  0.63274541786E+02  0.00000000000E+00 0. -1.
         11    1    1    2    0    0  0.42807156470E+01 -0.14974491314E+02 -0.15988176692E+02  0.22319984554E+02  0.00000000000E+00 0.  1.
</event>
<event>
 7    1  0.2412631E-010  0.1278579E+03  0.7561462E-02  0.1230669E+00
          1   -1    0    0  501    0  0.00000000000E+00  0.00000000000E+00  0.22618546724E+03  0.22618546724E+03  0.00000000000E+00 0. -1.
         -1   -1    0    0    0  501 -0.00000000000E+00 -0.00000000000E+00 -0.11533453235E+03  0.11533453235E+03  0.00000000000E+00 0.  1.
         25    2    1    2    0    0 -0.10353405992E+03  0.48795373811E+02  0.95373654087E+02  0.19451790180E+03  0.12506314468E+03 0.  0.
          5    1    3    3  502    0 -0.80213326012E+02  0.26835810460E+02  0.12479995158E+03  0.15082055134E+03  0.41800000000E+01 0.  1.
         -5    1    3    3    0  502 -0.23320733912E+02  0.21959563352E+02 -0.29426297492E+02  0.43697350456E+02  0.41800000000E+01 0.  1.
        -11    1    1    2    0    0 -0.14259595640E+01 -0.32472218795E+02  0.24052010470E+02  0.40434855778E+02  0.00000000000E+00 0. -1.
         11    1    1    2    0    0  0.10496001949E+03 -0.16323155016E+02 -0.85747296733E+01  0.10656724201E+03  0.00000000000E+00 0.  1.
</event>
<event>
 6    1  0.2412631E-010  0.1698919E+03  0.7561462E-02  0.1177961E+00
          2   -1    0    0  501    0  0.00000000000E+00  0.00000000000E+00  0.78754506776E+03  0.78754506776E+03  0.00000000000E+00 0. -1.
         -2   -1    0    0    0  501 -0.00000000000E+00 -0.00000000000E+00 -0.55611627449E+02  0.55611627449E+02  0.00000000000E+00 0.  1.
          5    1    1    2  502    0  0.67807595140E+02  0.60822729330E+02  0.12333517212E+03  0.15338289162E+03  0.41800000000E+01 0. -1.
         -5    1    1    2    0  502  0.83126363621E+02  0.30947914936E+00  0.40347981161E+03  0.41197514352E+03  0.41800000000E+01 0. -1.
        -11    1    1    2    0    0 -0.31880807353E+02 -0.26282301596E+02  0.40135791582E+01  0.41512095494E+02  0.00000000000E+00 0.  1.
         11    1    1    2    0    0 -0.11905315141E+03 -0.34849906883E+02  0.20110487743E+03  0.23628656457E+03  0.00000000000E+00 0. -1.
</event>
<event>
 7    1  0.2412631E-010  0.1458016E+03  0.7561462E-02  0.1205729E+00
         -1   -1    0    0    0  501 -0.00000000000E+00  0.00000000000E+00  0.19875751596E+03  0.19875751596E+03  0.00000000000E+00 0.  1.
          1   -1    0    0  501    0  0.00000000000E+00 -0.00000000000E+00 -0.11501721317E+03  0.11501721317E+03  0.00000000000E+00 0. -1.
         25    2    1    2    0    0 -0.96483540084E+01 -0.90194740670E+02  0.65527704426E+02  0.16787491970E+03  0.12513962856E+03 0.  0.
          5    1    3    3  502    0 -0.45636401974E+02 -0.10468536518E+03  0.57931734926E+02  0.12812207140E+03  0.41800000000E+01 0. -1.
         -5    1    3    3    0  502  0.35988047965E+02  0.14490624510E+02  0.75959695003E+01  0.39752848297E+02  0.41800000000E+01 0. -1.
        -11    1    1    2    0    0  0.53202161307E+02  0.22397498937E+02 -0.13534362241E+02  0.59289939177E+02  0.00000000000E+00 0. -1.
         11    1    1    2    0    0 -0.43553807299E+02  0.67797241734E+02  0.31746960607E+02  0.86609870250E+02  0.00000000000E+00 0.  1.
</event>
<event>
 7    1  0.2412631E-010  0.1220638E+03  0.7561462E-02  0.1239731E+00
          2   -1    0    0  501    0  0.00000000000E+00  0.00000000000E+00  0.18730186758E+03  0.18730186758E+03  0.00000000000E+00 0. -1.
         -2   -1    0    0    0  501 -0.00000000000E+00 -0.00000000000E+00 -0.16942633088E+03  0.16942633088E+03  0.00000000000E+00 0.  1.
         25    2    1    2    0    0 -0.19678566029E+02  0.78964554444E+02  0.12484904965E+03  0.19454341398E+03  0.12504882208E+03 0.  0.
          5    1    3    3  502    0  0.94687565071E+01 -0.22697680791E+02 -0.65762349638E+01  0.25798475330E+02  0.41800000000E+01 0. -1.
         -5    1    3    3    0  502 -0.29147322536E+02  0.10166223523E+03  0.13142528461E+03  0.16874493865E+03  0.41800000000E+01 0. -1.
        -11    1    1    2    0    0 -0.29255080088E+02 -0.45373161441E+02 -0.81124952731E+02  0.97446608180E+02  0.00000000000E+00 0.  1.
         11    1    1    2    0    0  0.48933646117E+02 -0.33591393002E+02 -0.25848560217E+02  0.64738176306E+02  0.00000000000E+00 0. -1.
</event>
<event>
 7    1  0.2412631E-010  0.1403361E+03  0.7561462E-02  0.1212877E+00
         -1   -1    0    0    0  501 -0.00000000000E+00  0.00000000000E+00  0.17829035675E+03  0.17829035675E+03  0.00000000000E+00 0.  1.
          1   -1    0    0  501    0  0.00000000000E+00 -0.00000000000E+00 -0.16702755363E+03  0.16702755363E+03  0.00000000000E+00 0. -1.
         25    2    1    2    0    0  0.13119104662E+03 -0.24360876604E+02 -0.11867134681E+02  0.18330395414E+03  0.12511981336E+03 0.  0.
          5    1    3    3  502    0  0.79718490023E+02 -0.35573278650E+02  0.50991241470E+02  0.10118337271E+03  0.41800000000E+01 0.  1.
         -5    1    3    3    0  502  0.51472556598E+02  0.11212402046E+02 -0.62858376151E+02  0.82120581432E+02  0.41800000000E+01 0.  1.
        -11    1    1    2    0    0 -0.71786671914E+02 -0.89216343301E+01  0.50925672242E+02  0.88466637310E+02  0.00000000000E+00 0.  1.
         11    1    1    2    0    0 -0.59404374707E+02  0.33282510934E+02 -0.27795734438E+02  0.73547318927E+02  0.00000000000E+00 0. -1.
</event>
<event>
 6    1  0.3122471E-010  0.1185900E+03  0.7561462E-02  0.1245441E+00
         -3   -1    0    0    0  501 -0.00000000000E+00  0.00000000000E+00  0.24745186995E+03  0.24745186995E+03  0.00000000000E+00 0.  1.
          3   -1    0    0  501    0  0.00000000000E+00 -0.00000000000E+00 -0.68006161883E+02  0.68006161883E+02  0.00000000000E+00 0. -1.
          5    1    1    2  502    0  0.43162261423E+02  0.59491808262E+02  0.33363231816E+01  0.73694365550E+02  0.41800000000E+01 0. -1.
         -5    1    1    2    0  502 -0.55329807276E+02  0.75660602626E+00  0.52356426601E+02  0.76293039213E+02  0.41800000000E+01 0. -1.
        -11    1    1    2    0    0 -0.31489831292E+02 -0.55946477640E+02  0.87703498957E+02  0.10869002514E+03  0.00000000000E+00 0.  1.
         11    1    1    2    0    0  0.43657377145E+02 -0.43019366476E+01  0.36049459328E+02  0.56780601934E+02  0.00000000000E+00 0. -1.
</event>
<event>
 7    1  0.2412631E-010  0.1027365E+03  0.7561462E-02  0.1274645E+00
          4   -1    0    0  501    0  0.00000000000E+00  0.00000000000E+00  0.24197682080E+03  0.24197682080E+03  0.00000000000E+00 0. -1.
         -4   -1    0    0    0  501 -0.00000000000E+00 -0.00000000000E+00 -0.82104681294E+02  0.82104681294E+02  0.00000000000E+00 0.  1.
         25    2    1    2    0    0  0.17971505604E+02 -0.62242203992E+02  0.15661332718E+02  0.14171995576E+03  0.12506878726E+03 0.  0.
          5    1    3    3  502    0 -0.50431053699E+02 -0.40365428499E+01  0.90449161157E+01  0.51564210096E+02  0.41800000000E+01 0. -1.
         -5    1    3    3    0  502  0.68402559302E+02 -0.58205661142E+02  0.66164166025E+01  0.90155745667E+02  0.41800000000E+01 0. -1.
        -11    1    1    2    0    0 -0.68513502421E+01  0.25832989306E+02  0.14171191630E+03  0.14421009521E+03  0.00000000000E+00 0. -1.
         11    1    1    2    0    0 -0.11120155361E+02  0.36409214687E+02  0.24988904848E+01  0.38151451126E+02  0.00000000000E+00 0.  1.
</event>
<event>
 6    1  0.2412631E-010  0.2117546E+03  0.7561462E-02  0.1140184E+00
          2   -1    0    0  501    0  0.00000000000E+00  0.00000000000E+00  0.16069837390E+04  0.16069837390E+04  0.00000000000E+00 0. -1.
         -2   -1    0    0    0  501 -0.00000000000E+00 -0.00000000000E+00 -0.32695252140E+02  0.32695252140E+02  0.00000000000E+00 0.  1.
          5    1    1    2  502    0 -0.76528849031E+02 -0.10346204685E+02  0.20938937023E+03  0.22321534323E+03  0.41800000000E+01 0.  1.
         -5    1    1    2    0  502 -0.93533609357E+02  0.98729577916E+02  0.82727779458E+03  0.83839256166E+03  0.41800000000E+01 0.  1.
        -11    1    1    2    0    0  0.28161110427E+02 -0.58740542505E+02  0.20848060658E+03  0.21842083873E+03  0.00000000000E+00 0. -1.
         11    1    1    2    0    0  0.14190134796E+03 -0.29642830725E+02  0.32914071551E+03  0.35965024756E+03  0.00000000000E+00 0.  1.
</event>
<event>
 7    1  0.2412631E-010  0.1080200E+03  0.7561462E-02  0.1264281E+00
         -2   -1    0    0    0  501 -0.00000000000E+00  0.00000000000E+00  0.69383677709E+02  0.69383677709E+02  0.00000000000E+00 0.  1.
          2   -1    0    0  501    0  0.00000000000E+00 -0.00000000000E+00 -0.46097791500E+03  0.46097791500E+03  0.00000000000E+00 0. -1.
         25    2    1    2    0    0  0.60305350946E+02 -0.52708308398E+02 -0.37832508500E+03  0.40642718363E+03  0.12505312681E+03 0.  0.
          5    1    3    3  502    0  0.92303499089E+02 -0.35628555445E+02 -0.33716375884E+03  0.35140603664E+03  0.41800000000E+01 0.  1.
         -5    1    3    3    0  502 -0.31998148143E+02 -0.17079752954E+02 -0.41161326160E+02  0.55021146996E+02  0.41800000000E+01 0.  1.
        -11    1    1    2    0    0 -0.36515641778E+02  0.26592058930E+02 -0.53746881617E+02  0.70208667387E+02  0.00000000000E+00 0. -1.
         11    1    1    2    0    0 -0.23789709168E+02  0.26116249469E+02  0.40477729329E+02  0.53725741691E+02  0.00000000000E+00 0.  1.
</event>
<event>
 6    1  0.2412631E-010  0.1342545E+03  0.7561462E-02  0.1221276E+00
          2   -1    0    0  501    0  0.00000000000E+00  0.00000000000E+00  0.77907107348E+03  0.77907107348E+03  0.00000000000E+00 0. -1.
         -2   -1    0    0    0  501 -0.00000000000E+00 -0.00000000000E+00 -0.29041780137E+02  0.29041780137E+02  0.00000000000E+00 0.  1.
          5    1    1    2  502    0 -0.92610820969E+00  0.25861407596E+02  0.13041628076E+03  0.13302461714E+03  0.41800000000E+01 0.  1.
         -5    1    1    2    0  502  0.67685297762E+02 -0.93722742708E+02  0.16296714201E+03  0.19985248012E+03  0.41800000000E+01 0.  1.
        -11    1    1    2    0    0 -0.77328319238E+02  0.23224196643E+02  0.22391244710E+03  0.23802482272E+03  0.00000000000E+00 0.  1.
         11    1    1    2    0    0  0.10569129685E+02  0.44637138469E+02  0.23273342348E+03  0.23721093364E+03  0.00000000000E+00 0. -1.
</event>
<event>
 6    1  0.2412631E-010  0.2690019E+03  0.7561462E-02  0.1101852E+00
          1   -1    0    0  501    0  0.00000000000E+00  0.00000000000E+00  0.18450232652E+03  0.18450232652E+03  0.00000000000E+00 0. -1.
         -1   -1    0    0    0  501 -0.00000000000E+00 -0.00000000000E+00 -0.43056541684E+03  0.43056541684E+03  0.00000000000E+00 0.  1.
          5    1    1    2  502    0 -0.34443906798E+02  0.88945156266E+02  0.12879133614E+02  0.96337780862E+02  0.41800000000E+01 0. -1.
         -5    1    1    2    0  502 -0.16679704230E+03  0.58227352620E+02 -0.59844268962E+02  0.18657568663E+03  0.41800000000E+01 0. -1.
        -11    1    1    2    0    0  0.14193894116E+02 -0.55921215893E+02 -0.46050946053E+02  0.73819635934E+02  0.00000000000E+00 0.  1.
         11    1    1    2    0    0  0.18704705498E+03 -0.91251292994E+02 -0.15304700892E+03  0.25833463994E+03  0.00000000000E+00 0. -1.
</event>
<event>
 6    1  0.2412631E-010  0.1149542E+03  0.7561462E-02  0.1251661E+00
          2   -1    0    0  501    0  0.00000000000E+00  0.00000000000E+00  0.14973296183E+04  0.14973296183E+04  0.00000000000E+00 0. -1.
         -2   -1    0    0    0  501 -0.00000000000E+00 -0.00000000000E+00 -0.11065880295E+02  0.11065880295E+02  0.00000000000E+00 0.  1.
          5    1    1    2  502    0 -0.39978078618E+02  0.41015709889E+02  0.31845765262E+03  0.32359432031E+03  0.41800000000E+01 0. -1.
         -5    1    1    2    0  502  0.70137283250E+02 -0.18444106405E+00  0.76268106080E+03  0.76591066412E+03  0.41800000000E+01 0. -1.
        -11    1    1    2    0    0  0.15984773825E+02 -0.52284974195E+02  0.27425924360E+03  0.27965579597E+03  0.00000000000E+00 0. -1.
         11    1    1    2    0    0 -0.46143978458E+02  0.11453705371E+02  0.13086578102E+03  0.13923471822E+03  0.00000000000E+00 0.  1.
</event>
<event>
 6    1  0.2412631E-010  0.1058393E+03  0.7561462E-02  0.1268475E+00
         -1   -1    0    0    0  501 -0.00000000000E+00  0.00000000000E+00  0.18172582933E+03  0.18172582933E+03  0.00000000000E+00 0.  1.
          1   -1    0    0  501    0  0.00000000000E+00 -0.00000000000E+00 -0.73604859323E+02  0.73604859323E+02  0.00000000000E+00 0. -1.
          5    1    1    2  502    0 -0.18149541527E+02  0.70393511181E+02  0.15034417255E+01  0.72831209046E+02  0.41800000000E+01 0.  1.
         -5    1    1    2    0  502  0.27727895614E+02 -0.28867110664E+02  0.61446560794E+02  0.73452695707E+02  0.41800000000E+01 0.  1.
        -11    1    1    2    0    0  0.32818962909E+02 -0.45427087457E+02  0.31720206026E+02  0.64396242682E+02  0.00000000000E+00 0.  1.
         11    1    1    2    0    0 -0.42397316996E+02  0.39006869401E+01  0.13450761459E+02  0.44650541216E+02  0.00000000000E+00 0. -1.
</event>
<event>
 7    1  0.2412631E-010  0.1089052E+03  0.7561462E-02  0.1262611E+00
         -1   -1    0    0    0  501 -0.00000000000E+00  0.00000000000E+00  0.17532141702E+02  0.17532141702E+02  0.00000000000E+00 0.  1.
          1   -1    0    0  501    0  0.00000000000E+00 -0.00000000000E+00 -0.73201809763E+03  0.73201809763E+03  0.00000000000E+00 0. -1.
         25    2    1    2    0    0  0.31347909030E+02 -0.20419743094E+01 -0.44890225425E+03  0.46707396718E+03  0.12513191393E+03 0.  0.
          5    1    3    3  502    0  0.71791190520E+02 -0.24024621443E+02 -0.19943696513E+03  0.21336291368E+03  0.41800000000E+01 0.  1.
         -5    1    3    3    0  502 -0.40443281490E+02  0.21982647134E+02 -0.24946528912E+03  0.25371105350E+03  0.41800000000E+01 0.  1.
        -11    1    1    2    0    0 -0.49499761395E+02 -0.30761250634E+02 -0.17466034048E+03  0.18412690041E+03  0.00000000000E+00 0. -1.
         11    1    1    2    0    0  0.18151852365E+02  0.32803224943E+02 -0.90923361203E+02  0.98349371749E+02  0.00000000000E+00 0.  1.
</event>
<event>
 7    1  0.2412631E-010  0.1218338E+03  0.7561462E-02  0.1240102E+00
          1   -1    0    0  501    0  0.00000000000E+00  0.00000000000E+00  0.21447760277E+03  0.21447760277E+03  0.00000000000E+00 0. -1.
         -1   -1    0    0    0  501 -0.00000000000E+00 -0.00000000000E+00 -0.74176602392E+02  0.74176602392E+02  0.00000000000E+00 0.  1.
         25    2    1    2    0    0 -0.27936661994E+02  0.62253567101E+02  0.74720804918E+02  0.16085519558E+03  0.12504091953E+03 0.  0.
          5    1    3    3  502    0  0.28126609999E+02  0.75155255211E+02  0.62732066020E+02  0.10194215557E+03  0.41800000000E+01 0.  1.
         -5    1    3    3    0  502 -0.56063271993E+02 -0.12901688109E+02  0.11988738898E+02  0.58913040008E+02  0.41800000000E+01 0.  1.
        -11    1    1    2    0    0  0.16015813735E+02  0.18232766770E+02  0.31055164860E+02  0.39412730661E+02  0.00000000000E+00 0.  1.
         11    1    1    2    0    0  0.11920848259E+02 -0.80486333871E+02  0.34525030601E+02  0.88386278919E+02  0.00000000000E+00 0. -1.
</event>
<event>
 7    1  0.2412631E-010  0.9755504E+02  0.7561462E-02  0.1285523E+00
         -1   -1    0    0    0  501 -0.00000000000E+00  0.00000000000E+00  0.15028965392E+03  0.15028965392E+03  0.00000000000E+00 0.  1.
          1   -1    0    0  501    0  0.00000000000E+00 -0.00000000000E+00 -0.92171702475E+02  0.92171702475E+02  0.00000000000E+00 0. -1.
         25    2    1    2    0    0 -0.27903845802E+02 -0.19199941739E+02  0.65997232384E+00  0.12957331778E+03  0.12506616946E+03 0.  0.
          5    1    3    3  502    0  0.43009121473E+02  0.11311707891E+01 -0.26670699487E+02  0.50792348719E+02  0.41800000000E+01 0. -1.
         -5    1    3    3    0  502 -0.70912967275E+02 -0.20331112528E+02  0.27330671811E+02  0.78780969060E+02  0.41800000000E+01 0. -1.
        -11    1    1    2    0    0 -0.22970494316E+02  0.13892433805E+02  0.55556510291E+02  0.61702262211E+02  0.00000000000E+00 0.  1.
         11    1    1    2    0    0  0.50874340118E+02  0.53075079333E+01  0.19014688329E+01  0.51185776410E+02  0.00000000000E+00 0. -1.
</event>
<event>
 7    1  0.2412631E-010  0.1180505E+03  0.7561462E-02  0.1246348E+00
          1   -1    0    0  501    0  0.00000000000E+00  0.00000000000E+00  0.55198619374E+02  0.55198619374E+02  0.00000000000E+00 0. -1.
         -1   -1    0    0    0  501 -0.00000000000E+00 -0.00000000000E+00 -0.34769639925E+03  0.34769639925E+03  0.00000000000E+00 0.  1.
         25    2    1    2    0    0  0.14677856007E+02 -0.67276846264E+02 -0.86624876869E+02  0.16698783183E+03  0.12505779938E+03 0.  0.
          5    1    3    3  502    0  0.55357320433E+02 -0.81842613997E+02 -0.53937800191E+02  0.11264725954E+03  0.41800000000E+01 0.  1.
         -5    1    3    3    0  502 -0.40679464426E+02  0.14565767733E+02 -0.32687076679E+02  0.54340572296E+02  0.41800000000E+01 0.  1.
        -11    1    1    2    0    0 -0.20055098197E+02  0.78676304334E+02 -0.20785347801E+03  0.22314846213E+03  0.00000000000E+00 0.  1.
         11    1    1    2    0    0  0.53772421905E+01 -0.11399458069E+02  0.19805750031E+01  0.12758724670E+02  0.00000000000E+00 0. -1.
</event>
<event>
 7    1  0.2412631E-010  0.2123580E+03  0.7561462E-02  0.1139712E+00
          1   -1    0    0  501    0  0.00000000000E+00  0.00000000000E+00  0.76187515063E+03  0.76187515063E+03  0.00000000000E+00 0. -1.
         -1   -1    0    0    0  501 -0.00000000000E+00 -0.00000000000E+00 -0.88077954408E+02  0.88077954408E+02  0.00000000000E+00 0.  1.
         25    2    1    2    0    0 -0.17830699535E+03 -0.63743957902E+02  0.11584501934E+03  0.25478622537E+03  0.12505708845E+03 0.  0.
          5    1    3    3  502    0 -0.79398472205E+02  0.30834650969E+02  0.70226295267E+02  0.11047215955E+03  0.41800000000E+01 0. -1.
         -5    1    3    3    0  502 -0.98908523149E+02 -0.94578608872E+02  0.45618724073E+02  0.14431406582E+03  0.41800000000E+01 0. -1.
        -11    1    1    2    0    0  0.70525686644E+02 -0.10977050009E+02  0.14036964045E+03  0.15747382025E+03  0.00000000000E+00 0.  1.
         11    1    1    2    0    0  0.10778130871E+03  0.74721007911E+02  0.41758253643E+03  0.43769305942E+03  0.00000000000E+00 0. -1.
</event>
<event>
 7    1  0.2412631E-010  0.1121599E+03  0.7561462E-02  0.1256622E+00
          3   -1    0    0  501    0  0.00000000000E+00  0.00000000000E+00  0.14027154768E+03  0.14027154768E+03  0.00000000000E+00 0. -1.
         -3   -1    0    0    0  501 -0.00000000000E+00 -0.00000000000E+00 -0.18590798531E+03  0.18590798531E+03  0.00000000000E+00 0.  1.
         25    2    1    2    0    0  0.41229234594E+02 -0.34019782114E+02  0.82581677715E+02  0.15910837522E+03  0.12505417310E+03 0.  0.
          5    1    3    3  502    0  0.64076039429E+02  0.12899989982E+02  0.84268224661E+02  0.10672747846E+03  0.41800000000E+01 0. -1.
         -5    1    3    3    0  502 -0.22846804836E+02 -0.46919772096E+02 -0.16865469460E+01  0.52380896759E+02  0.41800000000E+01 0. -1.
        -11    1    1    2    0    0 -0.66924481906E+02  0.42656585095E+02 -0.87233956128E+02  0.11793317443E+03  0.00000000000E+00 0. -1.
         11    1    1    2    0    0  0.25695247312E+02 -0.86368029815E+01 -0.40984159217E+02  0.49137983342E+02  0.00000000000E+00 0.  1.
</event>
<event>
 7    1  0.2412631E-010  0.1920527E+03  0.7561462E-02  0.1156623E+00
          2   -1    0    0  501    0  0.00000000000E+00  0.00000000000E+00  0.60403443236E+03  0.60403443236E+03  0.00000000000E+00 0. -1.
         -2   -1    0    0    0  501 -0.00000000000E+00 -0.00000000000E+00 -0.81656773994E+02  0.81656773994E+02  0.00000000000E+00 0.  1.
         25    2    1    2    0    0 -0.20680918223E+02  0.18796204581E+03  0.20784251498E+03  0.30755784522E+03  0.12504353673E+03 0.  0.
          5    1    3    3  502    0 -0.50277472419E+01  0.76293172688E+02  0.66220035641E+01  0.76858634989E+02  0.41800000000E+01 0.  1.
         -5    1    3    3    0  502 -0.15653170981E+02  0.11166887312E+03  0.20122051142E+03  0.23069921023E+03  0.41800000000E+01 0.  1.
        -11    1    1    2    0    0 -0.11455476932E+02 -0.10663063618E+03  0.10071742959E+03  0.14712348945E+03  0.00000000000E+00 0.  1.
         11    1    1    2    0    0  0.32136395155E+02 -0.81331409632E+02  0.21381771378E+03  0.23100987168E+03  0.00000000000E+00 0. -1.
</event>
<event>
 7    1  0.2412631E-010  0.1083220E+03  0.7561462E-02  0.1263709E+00
         -2   -1    0    0    0  501 -0.00000000000E+00  0.00000000000E+00  0.27708325684E+03  0.27708325684E+03  0.00000000000E+00 0.  1.
          2   -1    0    0  501    0  0.00000000000E+00 -0.00000000000E+00 -0.55964203021E+02  0.55964203021E+02  0.00000000000E+00 0. -1.
         25    2    1    2    0    0 -0.31899163993E+02  0.57755884342E+01  0.52250589164E+02  0.13936548901E+03  0.12506678765E+03 0.  0.
          5    1    3    3  502    0  0.39628750094E+02  0.33088035881E+02  0.13884421831E+02  0.53623740284E+02  0.41800000000E+01 0.  1.
         -5    1    3    3    0  502 -0.71527914087E+02 -0.27312447446E+02  0.38366167333E+02  0.85741748728E+02  0.41800000000E+01 0.  1.
        -11    1    1    2    0    0 -0.45718464548E+01  0.33941443321E+02  0.33235067008E+02  0.47723087010E+02  0.00000000000E+00 0. -1.
         11    1    1    2    0    0  0.36471010448E+02 -0.39717031755E+02  0.13563339764E+03  0.14595888384E+03  0.00000000000E+00 0.  1.
</event>
<event>
 7    1  0.2412631E-010  0.1481051E+03  0.7561462E-02  0.1202821E+00
         -2   -1    0    0    0  501 -0.00000000000E+00  0.00000000000E+00  0.17748975638E+03  0.17748975638E+03  0.00000000000E+00 0.  1.
          2   -1    0    0  501    0  0.00000000000E+00 -0.00000000000E+00 -0.16438692842E+03  0.16438692842E+03  0.00000000000E+00 0. -1.
         25    2    1    2    0    0 -0.10847897978E+03  0.22728212740E+02  0.81428842098E+02  0.18588634594E+03  0.12505525409E+03 0.  0.
          5    1    3    3  502    0 -0.52738381982E+02 -0.47850314064E+02  0.12323216450E+02  0.72390079111E+02  0.41800000000E+01 0.  1.
         -5    1    3    3    0  502 -0.55740597799E+02  0.70578526804E+02  0.69105625648E+02  0.11349626683E+03  0.41800000000E+01 0.  1.
        -11    1    1    2    0    0  0.11029039311E+02 -0.34933467765E+02 -0.50378231415E+00  0.36636602937E+02  0.00000000000E+00 0.  1.
         11    1    1    2    0    0  0.97449940470E+02  0.12205255024E+02 -0.67822231823E+02  0.11935373592E+03  0.00000000000E+00 0. -1.
</event>
<event>
 6    1  0.2412631E-010  0.1356296E+03  0.7561462E-02  0.1219334E+00
         -2   -1    0    0    0  501 -0.00000000000E+00  0.00000000000E+00  0.44700987904E+02  0.44700987904E+02  0.00000000000E+00 0.  1.
          2   -1    0    0  501    0  0.00000000000E+00 -0.00000000000E+00 -0.43416647420E+03  0.43416647420E+03  0.00000000000E+00 0. -1.
          5    1    1    2  502    0 -0.51849415551E+02 -0.51408714876E+02 -0.10498758466E+03  0.12794953377E+03  0.41800000000E+01 0. -1.
         -5    1    1    2    0  502  0.69777190862E+02 -0.31108939809E+02 -0.78844398793E+02  0.10986598255E+03  0.41800000000E+01 0. -1.
        -11    1    1    2    0    0  0.24184946357E+01  0.96751429111E+02 -0.13444163329E+03  0.16565397947E+03  0.00000000000E+00 0.  1.
         11    1    1    2    0    0 -0.20346269946E+02 -0.14233774426E+02 -0.71191869553E+02  0.75397966323E+02  0.00000000000E+00 0. -1.
</event>
<event>
 6    1  0.2412631E-010  0.1206063E+03  0.7561462E-02  0.1242100E+00
         -2   -1    0    0    0  501 -0.00000000000E+00  0.00000000000E+00  0.22330207293E+02  0.22330207293E+02  0.00000000000E+00 0. -1.
          2   -1    0    0  501    0  0.00000000000E+00 -0.00000000000E+00 -0.18844825438E+04  0.18844825438E+04  0.00000000000E+00 0.  1.
          5    1    1    2  502    0  0.29879642148E+02  0.77861626561E+02 -0.14924780030E+04  0.14948121246E+04  0.41800000000E+01 0. -1.
         -5    1    1    2    0  502 -0.12974630294E+02  0.33198240282E+02 -0.94876436277E+02  0.10143704821E+03  0.41800000000E+01 0. -1.
        -11    1    1    2    0    0 -0.30066946237E+02 -0.42803533573E+02 -0.20683447022E+03  0.21334634239E+03  0.00000000000E+00 0.  1.
         11    1    1    2    0    0  0.13161934383E+02 -0.68256333269E+02 -0.67963426985E+02  0.97217235897E+02  0.00000000000E+00 0. -1.
</event>
<event>
 6    1  0.2412631E-010  0.7902309E+02  0.7561462E-02  0.1331847E+00
          2   -1    0    0  501    0  0.00000000000E+00  0.00000000000E+00  0.78733306780E+03  0.78733306780E+03  0.00000000000E+00 0. -1.
         -2   -1    0    0    0  501 -0.00000000000E+00 -0.00000000000E+00 -0.18305175913E+02  0.18305175913E+02  0.00000000000E+00 0.  1.
          5    1    1    2  502    0 -0.90153391511E+01 -0.44193593792E+02  0.46768035168E+02  0.65108152990E+02  0.41800000000E+01 0. -1.
         -5    1    1    2    0  502 -0.21650344089E+02  0.17815929516E+01  0.42912558387E+03  0.42969541608E+03  0.41800000000E+01 0. -1.
        -11    1    1    2    0    0  0.23690517450E+02 -0.18038014428E+02  0.17931136240E+03  0.18176681564E+03  0.00000000000E+00 0. -1.
         11    1    1    2    0    0  0.69751657896E+01  0.60450015268E+02  0.11382291045E+03  0.12906785900E+03  0.00000000000E+00 0.  1.
</event>
<event>
 7    1  0.2412631E-010  0.1565328E+03  0.7561462E-02  0.1192668E+00
          2   -1    0    0  501    0  0.00000000000E+00  0.00000000000E+00  0.17274707994E+03  0.17274707994E+03  0.00000000000E+00 0. -1.
         -2   -1    0    0    0  501 -0.00000000000E+00 -0.00000000000E+00 -0.16700549795E+03  0.16700549795E+03  0.00000000000E+00 0.  1.
         25    2    1    2    0    0  0.11350904036E+03 -0.49746859042E+02  0.40692055044E+02  0.18071309780E+03  0.12506929338E+03 0.  0.
          5    1    3    3  502    0  0.65065475599E+02 -0.78151882723E+02 -0.13367745046E+02  0.10265184799E+03  0.41800000000E+01 0. -1.
         -5    1    3    3    0  502  0.48443564758E+02  0.28405023682E+02  0.54059800090E+02  0.78061249814E+02  0.41800000000E+01 0. -1.
        -11    1    1    2    0    0 -0.10291365970E+03  0.75163126109E+02 -0.31613744508E+02  0.13130173541E+03  0.00000000000E+00 0.  1.
         11    1    1    2    0    0 -0.10595380659E+02 -0.25416267068E+02 -0.33367285451E+01  0.27737744688E+02  0.00000000000E+00 0. -1.
</event>
<event>
 7    1  0.2412631E-010  0.2765640E+03  0.7561462E-02  0.1097581E+00
         -1   -1    0    0    0  501 -0.00000000000E+00  0.00000000000E+00  0.10795979273E+03  0.10795979273E+03  0.00000000000E+00 0.  1.
          1   -1    0    0  501    0  0.00000000000E+00 -0.00000000000E+00 -0.94489355801E+03  0.94489355801E+03  0.00000000000E+00 0. -1.
         25    2    1    2    0    0 -0.32448627701E+02  0.25811557618E+03 -0.67372314074E+03  0.73296352905E+03  0.12512433994E+03 0.  0.
          5    1    3    3  502    0  0.19771101325E+02  0.20443045308E+03 -0.56225323617E+03  0.59860578061E+03  0.41800000000E+01 0. -1.
         -5    1    3    3    0  502 -0.52219729026E+02  0.53685123099E+02 -0.11146990457E+03  0.13435774844E+03  0.41800000000E+01 0. -1.
        -11    1    1    2    0    0 -0.27163508535E+02 -0.10281426365E+03 -0.84664048691E+02  0.13592876865E+03  0.00000000000E+00 0. -1.
         11    1    1    2    0    0  0.59612136236E+02 -0.15530131252E+03 -0.78546575844E+02  0.18396105304E+03  0.00000000000E+00 0.  1.
</event>
<event>
 7    1  0.2412631E-010  0.1105668E+03  0.7561462E-02  0.1259524E+00
         -1   -1    0    0    0  501 -0.00000000000E+00  0.00000000000E+00  0.37288368688E+03  0.37288368688E+03  0.00000000000E+00 0.  1.
          1   -1    0    0  501    0  0.00000000000E+00 -0.00000000000E+00 -0.49080838271E+02  0.49080838271E+02  0.00000000000E+00 0. -1.
         25    2    1    2    0    0 -0.45146152747E+02 -0.63012943895E+02  0.20596312662E+03  0.25315376410E+03  0.12512878383E+03 0.  0.
          5    1    3    3  502    0  0.20754539858E+02 -0.49682101510E+02  0.16659231277E+03  0.17512719152E+03  0.41800000000E+01 0. -1.
         -5    1    3    3    0  502 -0.65900692605E+02 -0.13330842385E+02  0.39370813847E+02  0.78026572573E+02  0.41800000000E+01 0. -1.
        -11    1    1    2    0    0  0.34041238405E+02  0.75640498092E+02  0.12541801709E+03  0.15036611944E+03  0.00000000000E+00 0.  1.
         11    1    1    2    0    0  0.11104914342E+02 -0.12627554198E+02 -0.75782951064E+01  0.18444641614E+02  0.00000000000E+00 0. -1.
</event>
<event>
 6    1  0.2412631E-010  0.1025706E+03  0.7561462E-02  0.1274981E+00
         -1   -1    0    0    0  501 -0.00000000000E+00  0.00000000000E+00  0.57440013940E+02  0.57440013940E+02  0.00000000000E+00 0.  1.
          1   -1    0    0  501    0  0.00000000000E+00 -0.00000000000E+00 -0.23911592220E+03  0.23911592220E+03  0.00000000000E+00 0. -1.
          5    1    1    2  502    0 -0.19863430186E+02  0.50048290850E+02 -0.26517754143E+02  0.60166859321E+02  0.41800000000E+01 0.  1.
         -5    1    1    2    0  502  0.61826005125E+02 -0.43636093181E+02 -0.72308972880E+02  0.10475029115E+03  0.41800000000E+01 0.  1.
        -11    1    1    2    0    0  0.16268014543E+02  0.24205088561E+01  0.11743281469E+02  0.20209201368E+02  0.00000000000E+00 0.  1.
         11    1    1    2    0    0 -0.58230589482E+02 -0.88327065252E+01 -0.94592462706E+02  0.11142958430E+03  0.00000000000E+00 0. -1.
</event>
<event>
 6    1  0.2412631E-010  0.1018963E+03  0.7561462E-02  0.1276358E+00
         -1   -1    0    0    0  501 -0.00000000000E+00  0.00000000000E+00  0.11707274481E+03  0.11707274481E+03  0.00000000000E+00 0.  1.
          1   -1    0    0  501    0  0.00000000000E+00 -0.00000000000E+00 -0.17783953493E+03  0.17783953493E+03  0.00000000000E+00 0. -1.
          5    1    1    2  502    0 -0.41036074669E+01 -0.52316265148E+01  0.36234692407E+02  0.37076068347E+02  0.41800000000E+01 0. -1.
         -5    1    1    2    0  502 -0.81553182949E+02  0.38741871089E+02 -0.89406291384E+02  0.12713304670E+03  0.41800000000E+01 0. -1.
        -11    1    1    2    0    0  0.23251102496E+02 -0.36275687517E+02 -0.41333374327E+02  0.59707512973E+02  0.00000000000E+00 0. -1.
         11    1    1    2    0    0  0.62405687920E+02  0.27654429425E+01  0.33738183184E+02  0.70995651726E+02  0.00000000000E+00 0.  1.
</event>
<event>
 7    1  0.2412631E-010  0.1172454E+03  0.7561462E-02  0.1247712E+00
         -1   -1    0    0    0  501 -0.00000000000E+00  0.00000000000E+00  0.40703215229E+03  0.40703215229E+03  0.00000000000E+00 0.  1.
          1   -1    0    0  501    0  0.00000000000E+00 -0.00000000000E+00 -0.40219410201E+02  0.40219410201E+02  0.00000000000E+00 0. -1.
         25    2    1    2    0    0 -0.50306251964E+02  0.43186498644E+02  0.18132312156E+03  0.23007219744E+03  0.12513732047E+03 0.  0.
          5    1    3    3  502    0 -0.77495728336E+02  0.51081315257E+02  0.73362197493E+02  0.11838231751E+03  0.41800000000E+01 0. -1.
         -5    1    3    3    0  502  0.27189476371E+02 -0.78948166127E+01  0.10796092406E+03  0.11168987993E+03  0.41800000000E+01 0. -1.
        -11    1    1    2    0    0  0.75315614766E+02 -0.45255199293E+02  0.14470995181E+03  0.16929691386E+03  0.00000000000E+00 0.  1.
         11    1    1    2    0    0 -0.25009362802E+02  0.20687006483E+01  0.40779668724E+02  0.47882451184E+02  0.00000000000E+00 0. -1.
</event>
<event>
 7    1  0.2412631E-010  0.1915006E+03  0.7561462E-02  0.1157115E+00
         -1   -1    0    0    0  501 -0.00000000000E+00  0.00000000000E+00  0.54656113817E+03  0.54656113817E+03  0.00000000000E+00 0.  1.
          1   -1    0    0  501    0  0.00000000000E+00 -0.00000000000E+00 -0.78770192173E+02  0.78770192173E+02  0.00000000000E+00 0. -1.
         25    2    1    2    0    0 -0.15512454130E+03  0.83882780783E+02  0.25439992141E+03  0.33387704195E+03  0.12511840353E+03 0.  0.
          5    1    3    3  502    0 -0.10189763501E+03  0.10576215286E+02  0.20824878432E+03  0.23212068612E+03  0.41800000000E+01 0. -1.
         -5    1    3    3    0  502 -0.53226906289E+02  0.73306565497E+02  0.46151137084E+02  0.10175635583E+03  0.41800000000E+01 0. -1.
        -11    1    1    2    0    0  0.13884473746E+03 -0.42329658513E+02  0.19521518473E+03  0.24326658105E+03  0.00000000000E+00 0.  1.
         11    1    1    2    0    0  0.16279803846E+02 -0.41553122271E+02  0.18175839857E+02  0.48187707335E+02  0.00000000000E+00 0. -1.
</event>
<event>
 7    1  0.2412631E-010  0.1089331E+03  0.7561462E-02  0.1262558E+00
          2   -1    0    0  501    0  0.00000000000E+00  0.00000000000E+00  0.41297603217E+03  0.41297603217E+03  0.00000000000E+00 0. -1.
         -2   -1    0    0    0  501 -0.00000000000E+00 -0.00000000000E+00 -0.44423630199E+02  0.44423630199E+02  0.00000000000E+00 0.  1.
         25    2    1    2    0    0  0.59538070049E+02 -0.35528273743E+01  0.29469782586E+03  0.32566780925E+03  0.12512117747E+03 0.  0.
          5    1    3    3  502    0  0.92689046115E+02 -0.14224471802E+02  0.15138511561E+03  0.17812501367E+03  0.41800000000E+01 0.  1.
         -5    1    3    3    0  502 -0.33150976067E+02  0.10671644428E+02  0.14331271025E+03  0.14754279558E+03  0.41800000000E+01 0.  1.
        -11    1    1    2    0    0 -0.61547725015E+02  0.25690341464E+02  0.14363143399E+02  0.68223280391E+02  0.00000000000E+00 0.  1.
         11    1    1    2    0    0  0.20096549657E+01 -0.22137514090E+02  0.59491432716E+02  0.63508572727E+02  0.00000000000E+00 0. -1.
</event>
<event>
 7    1  0.2412631E-010  0.1228038E+03  0.7561462E-02  0.1238542E+00
          1   -1    0    0  501    0  0.00000000000E+00  0.00000000000E+00  0.12019175098E+04  0.12019175098E+04  0.00000000000E+00 0. -1.
         -1   -1    0    0    0  501 -0.00000000000E+00 -0.00000000000E+00 -0.17170679479E+02  0.17170679479E+02  0.00000000000E+00 0.  1.
         25    2    1    2    0    0 -0.29717022226E+02  0.50507135050E+02  0.95475966161E+03  0.96470633364E+03  0.12513283597E+03 0.  0.
          5    1    3    3  502    0 -0.35726586609E+02 -0.35632636579E+02  0.41309298396E+03  0.41618428560E+03  0.41800000000E+01 0.  1.
         -5    1    3    3    0  502  0.60095643825E+01  0.86139771629E+02  0.54166667765E+03  0.54852204805E+03  0.41800000000E+01 0.  1.
        -11    1    1    2    0    0  0.47934482812E+02  0.67802350423E+01  0.10982079596E+03  0.12001788807E+03  0.00000000000E+00 0. -1.
         11    1    1    2    0    0 -0.18217460586E+02 -0.57287370093E+02  0.12016637278E+03  0.13436396761E+03  0.00000000000E+00 0.  1.
</event>
<event>
 7    1  0.2412631E-010  0.1293973E+03  0.7561462E-02  0.1228353E+00
         -2   -1    0    0    0  501 -0.00000000000E+00  0.00000000000E+00  0.41542919335E+02  0.41542919335E+02  0.00000000000E+00 0.  1.
          2   -1    0    0  501    0  0.00000000000E+00 -0.00000000000E+00 -0.46630987413E+03  0.46630987413E+03  0.00000000000E+00 0. -1.
         25    2    1    2    0    0 -0.83148319524E+01  0.81146728112E+02 -0.18196619542E+03  0.23538329178E+03  0.12505866568E+03 0.  0.
          5    1    3    3  502    0  0.21528785215E+02  0.10638501460E+03 -0.11868535461E+03  0.16088799123E+03  0.41800000000E+01 0. -1.
         -5    1    3    3    0  502 -0.29843617168E+02 -0.25238286485E+02 -0.63280840813E+02  0.74495300553E+02  0.41800000000E+01 0. -1.
        -11    1    1    2    0    0 -0.27146146760E+02 -0.67700765253E+02 -0.21007311089E+03  0.22237585035E+03  0.00000000000E+00 0. -1.
         11    1    1    2    0    0  0.35460978713E+02 -0.13445962860E+02 -0.32727648485E+02  0.50093651333E+02  0.00000000000E+00 0.  1.
</event>
<event>
 7    1  0.2412631E-010  0.9590863E+02  0.7561462E-02  0.1289143E+00
         -2   -1    0    0    0  501 -0.00000000000E+00  0.00000000000E+00  0.69641861598E+01  0.69641861598E+01  0.00000000000E+00 0.  1.
          2   -1    0    0  501    0  0.00000000000E+00 -0.00000000000E+00 -0.21967091665E+04  0.21967091665E+04  0.00000000000E+00 0. -1.
         25    2    1    2    0    0  0.19528732693E+02 -0.13628955687E+02 -0.16905697487E+04  0.16953625387E+04  0.12514368807E+03 0.  0.
          5    1    3    3  502    0  0.18564376933E+02 -0.53000268424E+02 -0.37573646134E+03  0.37993292214E+03  0.41800000000E+01 0.  1.
         -5    1    3    3    0  502  0.96435576011E+00  0.39371312737E+02 -0.13148332873E+04  0.13154296165E+04  0.41800000000E+01 0.  1.
        -11    1    1    2    0    0 -0.54974912422E+02 -0.61351792301E+01 -0.29489668410E+03  0.30003989021E+03  0.00000000000E+00 0.  1.
         11    1    1    2    0    0  0.35446179729E+02  0.19764134917E+02 -0.20427854756E+03  0.20827092375E+03  0.00000000000E+00 0. -1.
</event>
<event>
 7    1  0.2412631E-010  0.1193998E+03  0.7561462E-02  0.1244091E+00
          1   -1    0    0  501    0  0.00000000000E+00  0.00000000000E+00  0.32007817378E+03  0.32007817378E+03  0.00000000000E+00 0. -1.
         -1   -1    0    0    0  501 -0.00000000000E+00 -0.00000000000E+00 -0.54007003688E+02  0.54007003688E+02  0.00000000000E+00 0.  1.
         25    2    1    2    0    0  0.38166599990E+02 -0.46575529205E+02  0.86967063961E+02  0.16385943953E+03  0.12514262436E+03 0.  0.
          5    1    3    3  502    0  0.77787134113E+02 -0.58278250126E+02  0.58618254453E+02  0.11358153383E+03  0.41800000000E+01 0.  1.
         -5    1    3    3    0  502 -0.39620534123E+02  0.11702720921E+02  0.28348809508E+02  0.50277905701E+02  0.41800000000E+01 0.  1.
        -11    1    1    2    0    0  0.24603793853E+02  0.62610393900E+01  0.92499371177E+02  0.95920180120E+02  0.00000000000E+00 0. -1.
         11    1    1    2    0    0 -0.62770393844E+02  0.40314489815E+02  0.86604734957E+02  0.11430555782E+03  0.00000000000E+00 0.  1.
</event>
<event>
 6    1  0.2412631E-010  0.1261426E+03  0.7561462E-02  0.1233294E+00
         -2   -1    0    0    0  501 -0.00000000000E+00  0.00000000000E+00  0.41535893807E+03  0.41535893807E+03  0.00000000000E+00 0. -1.
          2   -1    0    0  501    0  0.00000000000E+00 -0.00000000000E+00 -0.47298593179E+02  0.47298593179E+02  0.00000000000E+00 0.  1.
          5    1    1    2  502    0 -0.40558488887E+02 -0.10608044362E+03  0.12402068784E+03  0.16821609600E+03  0.41800000000E+01 0.  1.
         -5    1    1    2    0  502 -0.77963190548E+01  0.36137063183E+02  0.33084533424E+02  0.49786832378E+02  0.41800000000E+01 0.  1.
        -11    1    1    2    0    0 -0.40535083968E+01  0.41707618618E+02  0.23651132447E+02  0.48117901524E+02  0.00000000000E+00 0.  1.
         11    1    1    2    0    0  0.52408316339E+02  0.28235761817E+02  0.18730399118E+03  0.19653670135E+03  0.00000000000E+00 0. -1.
</event>
<event>
 6    1  0.2412631E-010  0.1088972E+03  0.7561462E-02  0.1262626E+00
         -2   -1    0    0    0  501 -0.00000000000E+00  0.00000000000E+00  0.42284314711E+02  0.42284314711E+02  0.00000000000E+00 0. -1.
          2   -1    0    0  501    0  0.00000000000E+00 -0.00000000000E+00 -0.30841297785E+03  0.30841297785E+03  0.00000000000E+00 0.  1.
          5    1    1    2  502    0 -0.48425130334E+02  0.11840021819E+02 -0.29063010763E+02  0.57855944890E+02  0.41800000000E+01 0.  1.
         -5    1    1    2    0  502  0.72407736824E+02 -0.20935386806E+02 -0.81687687907E+02  0.11122734164E+03  0.41800000000E+01 0.  1.
        -11    1    1    2    0    0  0.29435189823E+02  0.22681404894E+02 -0.80243351593E+02  0.88430040160E+02  0.00000000000E+00 0. -1.
         11    1    1    2    0    0 -0.53417796313E+02 -0.13586039907E+02 -0.75134612881E+02  0.93183965874E+02  0.00000000000E+00 0.  1.
</event>
<event>
 7    1  0.2412631E-010  0.9464890E+02  0.7561462E-02  0.1291969E+00
          2   -1    0    0  501    0  0.00000000000E+00  0.00000000000E+00  0.24689538414E+03  0.24689538414E+03  0.00000000000E+00 0. -1.
         -2   -1    0    0    0  501 -0.00000000000E+00 -0.00000000000E+00 -0.58766283772E+02  0.58766283772E+02  0.00000000000E+00 0.  1.
         25    2    1    2    0    0 -0.52073265563E+02  0.13171282841E+02  0.11140857755E+03  0.17593641345E+03  0.12512650697E+03 0.  0.
          5    1    3    3  502    0 -0.69479949744E+01 -0.42489626434E+02  0.91875810757E+02  0.10154939680E+03  0.41800000000E+01 0. -1.
         -5    1    3    3    0  502 -0.45125270589E+02  0.55660909275E+02  0.19532766792E+02  0.74387016646E+02  0.41800000000E+01 0. -1.
        -11    1    1    2    0    0  0.62097124605E+02 -0.69927301918E+01  0.11610526760E+02  0.63559070882E+02  0.00000000000E+00 0.  1.
         11    1    1    2    0    0 -0.10023859042E+02 -0.61785526491E+01  0.65109996061E+02  0.66166183584E+02  0.00000000000E+00 0. -1.
</event>
<event>
 7    1  0.2412631E-010  0.1173837E+03  0.7561462E-02  0.1247477E+00
          1   -1    0    0  501    0  0.00000000000E+00  0.00000000000E+00  0.11718172040E+03  0.11718172040E+03  0.00000000000E+00 0. -1.
         -1   -1    0    0    0  501 -0.00000000000E+00 -0.00000000000E+00 -0.14182307381E+03  0.14182307381E+03  0.00000000000E+00 0.  1.
         25    2    1    2    0    0 -0.64472571411E+02  0.20860182732E+02 -0.37653426902E+00  0.14228647719E+03  0.12511370878E+03 0.  0.
          5    1    3    3  502    0 -0.89182036519E+02  0.32541441479E+02  0.31480297125E+02  0.10010425844E+03  0.41800000000E+01 0. -1.
         -5    1    3    3    0  502  0.24709465109E+02 -0.11681258747E+02 -0.31856831394E+02  0.42182218746E+02  0.41800000000E+01 0. -1.
        -11    1    1    2    0    0  0.17226488107E+02 -0.52484519673E+02 -0.23040681930E+02  0.59851898229E+02  0.00000000000E+00 0.  1.
         11    1    1    2    0    0  0.47246083304E+02  0.31624336941E+02 -0.12241372039E+01  0.56866418793E+02  0.00000000000E+00 0. -1.
</event>
<event>
 7    1  0.2412631E-010  0.1299247E+03  0.7561462E-02  0.1227568E+00
         -1   -1    0    0    0  501 -0.00000000000E+00  0.00000000000E+00  0.39285499344E+02  0.39285499344E+02  0.00000000000E+00 0.  1.
          1   -1    0    0  501    0  0.00000000000E+00 -0.00000000000E+00 -0.63471660931E+03  0.63471660931E+03  0.00000000000E+00 0. -1.
         25    2    1    2    0    0 -0.56882878094E+02  0.44492549039E+02 -0.13045998906E+03  0.19460451037E+03  0.12504342434E+03 0.  0.
          5    1    3    3  502    0  0.20591883878E+02  0.61474759896E+02 -0.57653936662E+02  0.86859775492E+02  0.41800000000E+01 0. -1.
         -5    1    3    3    0  502 -0.77474761972E+02 -0.16982210857E+02 -0.72806052398E+02  0.10774473488E+03  0.41800000000E+01 0. -1.
        -11    1    1    2    0    0  0.72658081238E+02 -0.59328286004E+02 -0.34699155243E+03  0.35944704721E+03  0.00000000000E+00 0. -1.
         11    1    1    2    0    0 -0.15775203144E+02  0.14835736965E+02 -0.11797956848E+03  0.11995055107E+03  0.00000000000E+00 0.  1.
</event>
<event>
 7    1  0.2412631E-010  0.8653514E+02  0.7561462E-02  0.1311466E+00
          3   -1    0    0  501    0  0.00000000000E+00  0.00000000000E+00  0.36240970842E+03  0.36240970842E+03  0.00000000000E+00 0. -1.
         -3   -1    0    0    0  501 -0.00000000000E+00 -0.00000000000E+00 -0.50383061226E+02  0.50383061226E+02  0.00000000000E+00 0.  1.
         25    2    1    2    0    0  0.46327230657E+02  0.31525972331E+02  0.84675602407E+02  0.16109064401E+03  0.12506054019E+03 0.  0.
          5    1    3    3  502    0  0.16223390158E+01  0.57699172573E+02  0.91915307875E+02  0.10861732238E+03  0.41800000000E+01 0.  1.
         -5    1    3    3    0  502  0.44704891641E+02 -0.26173200242E+02 -0.72397054674E+01  0.52473321629E+02  0.41800000000E+01 0.  1.
        -11    1    1    2    0    0  0.44380780656E-01 -0.13458544609E+02 -0.47906120190E+01  0.14285809608E+02  0.00000000000E+00 0.  1.
         11    1    1    2    0    0 -0.46371611438E+02 -0.18067427723E+02  0.23214165680E+03  0.23741631602E+03  0.00000000000E+00 0. -1.
</event>
<event>
 7    1  0.2412631E-010  0.1469431E+03  0.7561462E-02  0.1204280E+00
         -2   -1    0    0    0  501 -0.00000000000E+00  0.00000000000E+00  0.30550621561E+03  0.30550621561E+03  0.00000000000E+00 0.  1.
          2   -1    0    0  501    0  0.00000000000E+00 -0.00000000000E+00 -0.95795967098E+02  0.95795967098E+02  0.00000000000E+00 0. -1.
         25    2    1    2    0    0 -0.13014433818E+03 -0.15374932625E+01  0.12533201519E+03  0.21975060021E+03  0.12506917932E+03 0.  0.
          5    1    3    3  502    0 -0.32411920703E+02 -0.44744337573E+02  0.54565545022E+00  0.55410815627E+02  0.41800000000E+01 0.  1.
         -5    1    3    3    0  502 -0.97732417477E+02  0.43206844311E+02  0.12478635974E+03  0.16433978459E+03  0.41800000000E+01 0.  1.
        -11    1    1    2    0    0  0.10257944300E+03  0.90241031074E+01  0.11915836388E+02  0.10366274027E+03  0.00000000000E+00 0. -1.
         11    1    1    2    0    0  0.27564895178E+02 -0.74866098449E+01  0.72462396937E+02  0.77888842224E+02  0.00000000000E+00 0.  1.
</event>
<event>
 6    1  0.2412631E-010  0.8831098E+02  0.7561462E-02  0.1306994E+00
         -3   -1    0    0    0  501 -0.00000000000E+00  0.00000000000E+00  0.24232507199E+03  0.24232507199E+03  0.00000000000E+00 0.  1.
          3   -1    0    0  501    0  0.00000000000E+00 -0.00000000000E+00 -0.60269548287E+02  0.60269548287E+02  0.00000000000E+00 0. -1.
          5    1    1    2  502    0  0.41349691354E+02  0.36086053668E+02  0.16072418837E+03  0.16988742559E+03  0.41800000000E+01 0. -1.
         -5    1    1    2    0  502 -0.27330967213E+02 -0.27853157871E+02  0.69086031503E+01  0.39849483933E+02  0.41800000000E+01 0. -1.
        -11    1    1    2    0    0 -0.56359419061E+01 -0.44630424909E+02  0.28147783758E+02  0.53065397381E+02  0.00000000000E+00 0.  1.
         11    1    1    2    0    0 -0.83827822349E+01  0.36397529112E+02 -0.13725051574E+02  0.39792313380E+02  0.00000000000E+00 0. -1.
</event>
<event>
 7    1  0.2412631E-010  0.8915583E+02  0.7561462E-02  0.1304909E+00
         -1   -1    0    0    0  501 -0.00000000000E+00  0.00000000000E+00  0.65917799770E+02  0.65917799770E+02  0.00000000000E+00 0.  1.
          1   -1    0    0  501    0  0.00000000000E+00 -0.00000000000E+00 -0.23218056971E+03  0.23218056971E+03  0.00000000000E+00 0. -1.
         25    2    1    2    0    0  0.22966916544E+02  0.17638132492E+02 -0.29136505218E+02  0.13163619370E+03  0.12506225882E+03 0.  0.
          5    1    3    3  502    0 -0.29484405836E+02  0.70123120967E+00 -0.60963733972E+02  0.67851832492E+02  0.41800000000E+01 0.  1.
         -5    1    3    3    0  502  0.52451322380E+02  0.16936901283E+02  0.31827228754E+02  0.63784361207E+02  0.41800000000E+01 0.  1.
        -11    1    1    2    0    0  0.24362400506E+02  0.20988925627E+02 -0.59982790646E+02  0.68058774093E+02  0.00000000000E+00 0. -1.
         11    1    1    2    0    0 -0.47329317049E+02 -0.38627058119E+02 -0.77143474076E+02  0.98403401688E+02  0.00000000000E+00 0.  1.
</event>
<event>
 6    1  0.2412631E-010  0.9979963E+02  0.7561462E-02  0.1280718E+00
         -2   -1    0    0    0  501 -0.00000000000E+00  0.00000000000E+00  0.12179089797E+03  0.12179089797E+03  0.00000000000E+00 0. -1.
          2   -1    0    0  501    0  0.00000000000E+00 -0.00000000000E+00 -0.13862708872E+03  0.13862708872E+03  0.00000000000E+00 0.  1.
          5    1    1    2  502    0  0.45618878749E+02 -0.87671387198E+01 -0.11438943149E+02  0.48023605029E+02  0.41800000000E+01 0. -1.
         -5    1    1    2    0  502 -0.81216238069E+02 -0.91564560855E+01 -0.58524507200E+02  0.10061067715E+03  0.41800000000E+01 0. -1.
        -11    1    1    2    0    0  0.16142171538E+02 -0.21660339819E+02 -0.14792920542E+02  0.30798872077E+02  0.00000000000E+00 0.  1.
         11    1    1    2    0    0  0.19455187782E+02  0.39583934625E+02  0.67920180141E+02  0.80984832422E+02  0.00000000000E+00 0. -1.
</event>
<event>
 6    1  0.2412631E-010  0.1294905E+03  0.7561462E-02  0.1228214E+00
          1   -1    0    0  501    0  0.00000000000E+00  0.00000000000E+00  0.80251297581E+03  0.80251297581E+03  0.00000000000E+00 0. -1.
         -1   -1    0    0    0  501 -0.00000000000E+00 -0.00000000000E+00 -0.22562144989E+02  0.22562144989E+02  0.00000000000E+00 0.  1.
          5    1    1    2  502    0 -0.18626082057E+02  0.28433134296E+02  0.52801723199E+02  0.62935430653E+02  0.41800000000E+01 0. -1.
         -5    1    1    2    0  502  0.56765241365E+02 -0.91958258920E+02  0.28708216921E+03  0.30677721280E+03  0.41800000000E+01 0. -1.
        -11    1    1    2    0    0 -0.47771150079E+02 -0.44070688727E+01  0.20089542058E+03  0.20654412372E+03  0.00000000000E+00 0. -1.
         11    1    1    2    0    0  0.96319907708E+01  0.67932193497E+02  0.23917151783E+03  0.24881835363E+03  0.00000000000E+00 0.  1.
</event>
<event>
 7    1  0.2412631E-010  0.1151666E+03  0.7561462E-02  0.1251291E+00
          4   -1    0    0  501    0  0.00000000000E+00  0.00000000000E+00  0.18334046143E+03  0.18334046143E+03  0.00000000000E+00 0. -1.
         -4   -1    0    0    0  501 -0.00000000000E+00 -0.00000000000E+00 -0.91561073953E+02  0.91561073953E+02  0.00000000000E+00 0.  1.
         25    2    1    2    0    0 -0.22165797428E+00 -0.54214559263E+02  0.99747633958E+02  0.16890293472E+03  0.12505736007E+03 0.  0.
          5    1    3    3  502    0  0.55122445036E+02 -0.89718169285E+01  0.15046178939E+02  0.57989976258E+02  0.41800000000E+01 0. -1.
         -5    1    3    3    0  502 -0.55344103010E+02 -0.45242742335E+02  0.84701455019E+02  0.11091295846E+03  0.41800000000E+01 0. -1.
        -11    1    1    2    0    0 -0.11789394384E+02  0.76502379048E+02 -0.16756703877E+02  0.79198427666E+02  0.00000000000E+00 0.  1.
         11    1    1    2    0    0  0.12011052358E+02 -0.22287819785E+02  0.87884574002E+01  0.26800173003E+02  0.00000000000E+00 0. -1.
</event>
<event>
 6    1  0.2412631E-010  0.2150959E+03  0.7561462E-02  0.1137593E+00
          1   -1    0    0  501    0  0.00000000000E+00  0.00000000000E+00  0.12764140604E+04  0.12764140604E+04  0.00000000000E+00 0.  1.
         -1   -1    0    0    0  501 -0.00000000000E+00 -0.00000000000E+00 -0.44424096787E+02  0.44424096787E+02  0.00000000000E+00 0. -1.
          5    1    1    2  502    0 -0.14203988461E+03  0.54088827496E+02  0.30743525253E+03  0.34297935357E+03  0.41800000000E+01 0.  1.
         -5    1    1    2    0  502 -0.55340248765E+02  0.16517537529E+02  0.42887896372E+03  0.43277015851E+03  0.41800000000E+01 0.  1.
        -11    1    1    2    0    0  0.10554521532E+03 -0.19232257278E+01  0.30306740083E+03  0.32092575578E+03  0.00000000000E+00 0. -1.
         11    1    1    2    0    0  0.91834918051E+02 -0.68683139297E+02  0.19260834658E+03  0.22416288937E+03  0.00000000000E+00 0.  1.
</event>
<event>
 6    1  0.2412631E-010  0.1665181E+03  0.7561462E-02  0.1181528E+00
         -1   -1    0    0    0  501 -0.00000000000E+00  0.00000000000E+00  0.15393805364E+04  0.15393805364E+04  0.00000000000E+00 0.  1.
          1   -1    0    0  501    0  0.00000000000E+00 -0.00000000000E+00 -0.33246436329E+02  0.33246436329E+02  0.00000000000E+00 0. -1.
          5    1    1    2  502    0 -0.13038143407E+03 -0.46529897781E+02  0.64064691380E+03  0.65544663421E+03  0.41800000000E+01 0. -1.
         -5    1    1    2    0  502 -0.26964983825E+01 -0.20492170759E+02  0.59801114610E+03  0.59838282347E+03  0.41800000000E+01 0. -1.
        -11    1    1    2    0    0  0.11100046514E+03  0.89936995379E+01  0.17334116506E+03  0.20603191354E+03  0.00000000000E+00 0.  1.
         11    1    1    2    0    0  0.22077467317E+02  0.58028369001E+02  0.94134875155E+02  0.11276560155E+03  0.00000000000E+00 0. -1.
</event>
<event>
 7    1  0.2412631E-010  0.1189652E+03  0.7561462E-02  0.1244814E+00
          2   -1    0    0  501    0  0.00000000000E+00  0.00000000000E+00  0.12550571923E+03  0.12550571923E+03  0.00000000000E+00 0. -1.
         -2   -1    0    0    0  501 -0.00000000000E+00 -0.00000000000E+00 -0.18660889571E+03  0.18660889571E+03  0.00000000000E+00 0.  1.
         25    2    1    2    0    0 -0.88226656195E+02 -0.43417749664E+02 -0.26423929326E+02  0.16127160958E+03  0.12506503974E+03 0.  0.
          5    1    3    3  502    0 -0.83149297401E+02 -0.63318499529E+02  0.23431830435E+02  0.10718937036E+03  0.41800000000E+01 0. -1.
         -5    1    3    3    0  502 -0.50773587932E+01  0.19900749865E+02 -0.49855759761E+02  0.54082239218E+02  0.41800000000E+01 0. -1.
        -11    1    1    2    0    0  0.54307505665E+02  0.54255578553E+02 -0.67645315702E+02  0.10231745556E+03  0.00000000000E+00 0.  1.
         11    1    1    2    0    0  0.33919150529E+02 -0.10837828889E+02  0.32966068552E+02  0.48525549801E+02  0.00000000000E+00 0. -1.
</event>
<event>
 6    1  0.2412631E-010  0.9659050E+02  0.7561462E-02  0.1287634E+00
         -3   -1    0    0    0  501 -0.00000000000E+00  0.00000000000E+00  0.90149670835E+02  0.90149670835E+02  0.00000000000E+00 0.  1.
          3   -1    0    0  501    0  0.00000000000E+00 -0.00000000000E+00 -0.18135319750E+03  0.18135319750E+03  0.00000000000E+00 0. -1.
          5    1    1    2  502    0 -0.24226915139E+02 -0.13702830845E+02 -0.85246291929E+02  0.89772566399E+02  0.41800000000E+01 0.  1.
         -5    1    1    2    0  502  0.78611060172E+02  0.39966656815E+01 -0.16745838453E+02  0.80582675703E+02  0.41800000000E+01 0.  1.
        -11    1    1    2    0    0  0.70767470383E+01  0.22367455393E+02 -0.20385048820E+02  0.31079472724E+02  0.00000000000E+00 0. -1.
         11    1    1    2    0    0 -0.61460892072E+02 -0.12661290230E+02  0.31173652532E+02  0.70068153513E+02  0.00000000000E+00 0.  1.
</event>
<event>
 6    1  0.2412631E-010  0.1461534E+03  0.7561462E-02  0.1205281E+00
         -2   -1    0    0    0  501 -0.00000000000E+00  0.00000000000E+00  0.98093420432E+03  0.98093420432E+03  0.00000000000E+00 0. -1.
          2   -1    0    0  501    0  0.00000000000E+00 -0.00000000000E+00 -0.24118834941E+02  0.24118834941E+02  0.00000000000E+00 0.  1.
          5    1    1    2  502    0 -0.10259480317E+02 -0.24592432738E+02  0.52622837054E+02  0.59132732593E+02  0.41800000000E+01 0.  1.
         -5    1    1    2    0  502  0.25332426474E+02  0.12664200634E+03  0.56339588979E+03  0.57802450695E+03  0.41800000000E+01 0.  1.
        -11    1    1    2    0    0  0.33837953188E+02 -0.16675617864E+02  0.66067094882E+02  0.76078540556E+02  0.00000000000E+00 0. -1.
         11    1    1    2    0    0 -0.48910899345E+02 -0.85373955735E+02  0.27472954765E+03  0.29181725916E+03  0.00000000000E+00 0.  1.
</event>
<event>
 7    1  0.2412631E-010  0.1047652E+03  0.7561462E-02  0.1270583E+00
         -2   -1    0    0    0  501 -0.00000000000E+00  0.00000000000E+00  0.85164357123E+03  0.85164357123E+03  0.00000000000E+00 0.  1.
          2   -1    0    0  501    0  0.00000000000E+00 -0.00000000000E+00 -0.15937905772E+02  0.15937905772E+02  0.00000000000E+00 0. -1.
         25    2    1    2    0    0 -0.11549505456E+02  0.21258295598E+02  0.60489671545E+03  0.61816043379E+03  0.12504790814E+03 0.  0.
          5    1    3    3  502    0  0.40966536655E+01  0.66727405960E+02  0.47280659843E+03  0.47752788525E+03  0.41800000000E+01 0.  1.
         -5    1    3    3    0  502 -0.15646159121E+02 -0.45469110362E+02  0.13209011702E+03  0.14063254853E+03  0.41800000000E+01 0.  1.
        -11    1    1    2    0    0  0.51135171681E+02 -0.46334661181E+01  0.11640328615E+03  0.12722421082E+03  0.00000000000E+00 0. -1.
         11    1    1    2    0    0 -0.39585666225E+02 -0.16624829480E+02  0.11440566385E+03  0.12219683239E+03  0.00000000000E+00 0.  1.
</event>
<event>
 7    1  0.2412631E-010  0.1415984E+03  0.7561462E-02  0.1211194E+00
         -1   -1    0    0    0  501 -0.00000000000E+00  0.00000000000E+00  0.57652168951E+03  0.57652168951E+03  0.00000000000E+00 0.  1.
          1   -1    0    0  501    0  0.00000000000E+00 -0.00000000000E+00 -0.52582891143E+02  0.52582891143E+02  0.00000000000E+00 0. -1.
         25    2    1    2    0    0  0.94472477608E+01 -0.12657744235E+03  0.36769973578E+03  0.40861969282E+03  0.12512337219E+03 0.  0.
          5    1    3    3  502    0 -0.31905053710E+02 -0.60216538825E+02  0.29139587581E+03  0.29928747524E+03  0.41800000000E+01 0.  1.
         -5    1    3    3    0  502  0.41352301471E+02 -0.66360903528E+02  0.76303859971E+02  0.10933221758E+03  0.41800000000E+01 0.  1.
        -11    1    1    2    0    0 -0.29980164471E+02  0.87211483002E+02  0.49026441320E+02  0.10444254391E+03  0.00000000000E+00 0. -1.
         11    1    1    2    0    0  0.20532916711E+02  0.39365959351E+02  0.10721262126E+03  0.11604234392E+03  0.00000000000E+00 0.  1.
</event>
<event>
 7    1  0.2412631E-010  0.1915368E+03  0.7561462E-02  0.1157083E+00
          2   -1    0    0  501    0  0.00000000000E+00  0.00000000000E+00  0.40581569539E+03  0.40581569539E+03  0.00000000000E+00 0. -1.
         -2   -1    0    0    0  501 -0.00000000000E+00 -0.00000000000E+00 -0.11205411865E+03  0.11205411865E+03  0.00000000000E+00 0.  1.
         25    2    1    2    0    0 -0.14426264076E+03 -0.82406471852E+02  0.24677481883E+03  0.32271032297E+03  0.12506640323E+03 0.  0.
          5    1    3    3  502    0  0.69431127499E+00  0.26327762277E+02  0.33552485053E+02  0.42858777256E+02  0.41800000000E+01 0.  1.
         -5    1    3    3    0  502 -0.14495695204E+03 -0.10873423413E+03  0.21322233378E+03  0.27985154571E+03  0.41800000000E+01 0.  1.
        -11    1    1    2    0    0  0.13130256177E+03  0.50437558618E+02  0.49001316601E+01  0.14074203827E+03  0.00000000000E+00 0.  1.
         11    1    1    2    0    0  0.12960078989E+02  0.31968913234E+02  0.42086626248E+02  0.54417452804E+02  0.00000000000E+00 0. -1.
</event>
<event>
 7    1  0.2412631E-010  0.9614772E+02  0.7561462E-02  0.1288612E+00
          1   -1    0    0  501    0  0.00000000000E+00  0.00000000000E+00  0.13262871864E+03  0.13262871864E+03  0.00000000000E+00 0. -1.
         -1   -1    0    0    0  501 -0.00000000000E+00 -0.00000000000E+00 -0.10796253941E+03  0.10796253941E+03  0.00000000000E+00 0.  1.
         25    2    1    2    0    0  0.96654060713E+01  0.24600193247E+02  0.55990613437E+02  0.13959921232E+03  0.12511755155E+03 0.  0.
          5    1    3    3  502    0  0.61390408560E+02  0.25054387549E+02  0.57230642018E+02  0.87688787108E+02  0.41800000000E+01 0. -1.
         -5    1    3    3    0  502 -0.51725002489E+02 -0.45419430199E+00 -0.12400285810E+01  0.51910425213E+02  0.41800000000E+01 0. -1.
        -11    1    1    2    0    0  0.28767264930E+02 -0.20472538565E+02 -0.47419781069E+02  0.59121197582E+02  0.00000000000E+00 0.  1.
         11    1    1    2    0    0 -0.38432671001E+02 -0.41276546817E+01  0.16095346861E+02  0.41870848141E+02  0.00000000000E+00 0. -1.
</event>
<event>
 7    1  0.2412631E-010  0.1101132E+03  0.7561462E-02  0.1260360E+00
          2   -1    0    0  501    0  0.00000000000E+00  0.00000000000E+00  0.83729850442E+03  0.83729850442E+03  0.00000000000E+00 0.  1.
         -2   -1    0    0    0  501 -0.00000000000E+00 -0.00000000000E+00 -0.31226177359E+02  0.31226177359E+02  0.00000000000E+00 0. -1.
         25    2    1    2    0    0  0.38679485810E+01  0.51914200213E+02  0.72323709305E+03  0.73581414371E+03  0.12506204904E+03 0.  0.
          5    1    3    3  502    0  0.23642324224E+02  0.84570437535E+02  0.36114792108E+03  0.37169397587E+03  0.41800000000E+01 0.  1.
         -5    1    3    3    0  502 -0.19774375643E+02 -0.32656237322E+02  0.36208917197E+03  0.36412016784E+03  0.41800000000E+01 0.  1.
        -11    1    1    2    0    0  0.35261199183E+02 -0.10181573382E+02  0.64282898676E+01  0.37260428271E+02  0.00000000000E+00 0. -1.
         11    1    1    2    0    0 -0.39129147764E+02 -0.41732626830E+02  0.76406944138E+02  0.95450109792E+02  0.00000000000E+00 0.  1.
</event>
<event>
 7    1  0.2412631E-010  0.1495042E+03  0.7561462E-02  0.1201084E+00
         -1   -1    0    0    0  501 -0.00000000000E+00  0.00000000000E+00  0.25571198167E+02  0.25571198167E+02  0.00000000000E+00 0.  1.
          1   -1    0    0  501    0  0.00000000000E+00 -0.00000000000E+00 -0.12291219527E+04  0.12291219527E+04  0.00000000000E+00 0. -1.
         25    2    1    2    0    0  0.83758259434E+02 -0.83132890816E+02 -0.90369870983E+03  0.91991941267E+03  0.12511532322E+03 0.  0.
          5    1    3    3  502    0  0.11467903740E+03 -0.66706620104E+02 -0.62080139027E+03  0.63483296492E+03  0.41800000000E+01 0.  1.
         -5    1    3    3    0  502 -0.30920777963E+02 -0.16426270712E+02 -0.28289731955E+03  0.28508644775E+03  0.41800000000E+01 0.  1.
        -11    1    1    2    0    0 -0.46439225548E+02  0.80030843604E+01 -0.40313433502E+02  0.62014707526E+02  0.00000000000E+00 0. -1.
         11    1    1    2    0    0 -0.37319033886E+02  0.75129806455E+02 -0.25953861122E+03  0.27275903069E+03  0.00000000000E+00 0.  1.
</event>
<event>
 7    1  0.2412631E-010  0.9993334E+02  0.7561462E-02  0.1280436E+00
         -3   -1    0    0    0  501 -0.00000000000E+00  0.00000000000E+00  0.35426360542E+03  0.35426360542E+03  0.00000000000E+00 0.  1.
          3   -1    0    0  501    0  0.00000000000E+00 -0.00000000000E+00 -0.52537052145E+02  0.52537052145E+02  0.00000000000E+00 0. -1.
         25    2    1    2    0    0  0.11646677791E+02 -0.14768403178E+02  0.53436216867E+02  0.13728295887E+03  0.12504971286E+03 0.  0.
          5    1    3    3  502    0 -0.59776343269E+01  0.45534766545E+02  0.58063463639E+02  0.74148400430E+02  0.41800000000E+01 0.  1.
         -5    1    3    3    0  502  0.17624312118E+02 -0.60303169723E+02 -0.46272467725E+01  0.63134558437E+02  0.41800000000E+01 0.  1.
        -11    1    1    2    0    0 -0.50394263916E+02  0.12772530242E+02  0.20453182678E+03  0.21103551248E+03  0.00000000000E+00 0.  1.
         11    1    1    2    0    0  0.38747586125E+02  0.19958729355E+01  0.43758509631E+02  0.58482186214E+02  0.00000000000E+00 0. -1.
</event>
<event>
 7    1  0.2412631E-010  0.1032699E+03  0.7561462E-02  0.1273566E+00
         -2   -1    0    0    0  501 -0.00000000000E+00  0.00000000000E+00  0.18460638448E+03  0.18460638448E+03  0.00000000000E+00 0.  1.
          2   -1    0    0  501    0  0.00000000000E+00 -0.00000000000E+00 -0.79109760692E+02  0.79109760692E+02  0.00000000000E+00 0. -1.
         25    2    1    2    0    0 -0.72424384496E+01 -0.31373750436E+02  0.14222698064E+02  0.12999172167E+03  0.12513511670E+03 0.  0.
          5    1    3    3  502    0 -0.91969827395E+01  0.41632008198E+02  0.33453680788E+02  0.54354666372E+02  0.41800000000E+01 0.  1.
         -5    1    3    3    0  502  0.19545442900E+01 -0.73005758634E+02 -0.19230982725E+02  0.75637055295E+02  0.41800000000E+01 0.  1.
        -11    1    1    2    0    0 -0.31245627496E+02 -0.11166450117E+02  0.59548901630E+02  0.68169278499E+02  0.00000000000E+00 0.  1.
         11    1    1    2    0    0  0.38488065945E+02  0.42540200553E+02  0.31725024099E+02  0.65555145011E+02  0.00000000000E+00 0. -1.
</event>
<event>
 7    1  0.2412631E-010  0.1767083E+03  0.7561462E-02  0.1171027E+00
         -2   -1    0    0    0  501 -0.00000000000E+00  0.00000000000E+00  0.27865581716E+03  0.27865581716E+03  0.00000000000E+00 0.  1.
          2   -1    0    0  501    0  0.00000000000E+00 -0.00000000000E+00 -0.18190598690E+03  0.18190598690E+03  0.00000000000E+00 0. -1.
         25    2    1    2    0    0  0.32471818196E+02  0.15691190791E+03 -0.66556123448E+02  0.21391569704E+03  0.12511771279E+03 0.  0.
          5    1    3    3  502    0  0.26109709577E+02  0.24101536929E+02 -0.72401248961E+02  0.80758988773E+02  0.41800000000E+01 0. -1.
         -5    1    3    3    0  502  0.63621086184E+01  0.13281037098E+03  0.58451255129E+01  0.13315670827E+03  0.41800000000E+01 0. -1.
        -11    1    1    2    0    0 -0.64125495236E+02 -0.89124045758E+02  0.10311145192E+03  0.15062252882E+03  0.00000000000E+00 0. -1.
         11    1    1    2    0    0  0.31653677040E+02 -0.67787862149E+02  0.60194501782E+02  0.96023578197E+02  0.00000000000E+00 0.  1.
</event>
<event>
 6    1  0.2412631E-010  0.1262693E+03  0.7561462E-02  0.1233099E+00
         -1   -1    0    0    0  501 -0.00000000000E+00  0.00000000000E+00  0.17887880138E+03  0.17887880138E+03  0.00000000000E+00 0.  1.
          1   -1    0    0  501    0  0.00000000000E+00 -0.00000000000E+00 -0.12594650018E+03  0.12594650018E+03  0.00000000000E+00 0. -1.
          5    1    1    2  502    0  0.24181416197E+02  0.11658893585E+03  0.51200874990E+02  0.12967930773E+03  0.41800000000E+01 0.  1.
         -5    1    1    2    0  502  0.11705132334E+02 -0.19817794641E+02 -0.25295612423E+02  0.34454252499E+02  0.41800000000E+01 0.  1.
        -11    1    1    2    0    0 -0.11611513451E+02 -0.79171469847E+02  0.57040080424E+02  0.98267592100E+02  0.00000000000E+00 0.  1.
         11    1    1    2    0    0 -0.24275035080E+02 -0.17599671366E+02 -0.30013041792E+02  0.42424149230E+02  0.00000000000E+00 0. -1.
</event>
<event>
 7    1  0.2412631E-010  0.3211392E+03  0.7561462E-02  0.1075126E+00
          3   -1    0    0  501    0  0.00000000000E+00  0.00000000000E+00  0.48840527547E+03  0.48840527547E+03  0.00000000000E+00 0. -1.
         -3   -1    0    0    0  501 -0.00000000000E+00 -0.00000000000E+00 -0.25130275355E+03  0.25130275355E+03  0.00000000000E+00 0.  1.
         25    2    1    2    0    0  0.12062474915E+03 -0.28550500199E+03  0.24963925762E+03  0.41716297762E+03  0.12506700078E+03 0.  0.
          5    1    3    3  502    0  0.75295982641E+02 -0.78845173543E+02  0.14394936141E+03  0.18062374551E+03  0.41800000000E+01 0.  1.
         -5    1    3    3    0  502  0.45328766510E+02 -0.20665982844E+03  0.10568989621E+03  0.23653923211E+03  0.41800000000E+01 0.  1.
        -11    1    1    2    0    0 -0.31840674190E+02  0.18387776586E+03 -0.18052336026E+02  0.18748532782E+03  0.00000000000E+00 0. -1.
         11    1    1    2    0    0 -0.88784074962E+02  0.10162723613E+03  0.55156003230E+01  0.13505972359E+03  0.00000000000E+00 0.  1.
</event>
<event>
 7    1  0.2412631E-010  0.6761252E+02  0.7561462E-02  0.1368405E+00
          2   -1    0    0  501    0  0.00000000000E+00  0.00000000000E+00  0.41225975489E+03  0.41225975489E+03  0.00000000000E+00 0. -1.
         -2   -1    0    0    0  501 -0.00000000000E+00 -0.00000000000E+00 -0.35642639098E+02  0.35642639098E+02  0.00000000000E+00 0.  1.
         25    2    1    2    0    0 -0.47036955711E+02  0.20627119604E+02  0.23924046363E+03  0.27482176825E+03  0.12511215610E+03 0.  0.
          5    1    3    3  502    0 -0.42175982215E+02 -0.69615176261E+01  0.10342699765E+02  0.44178275678E+02  0.41800000000E+01 0.  1.
         -5    1    3    3    0  502 -0.48609734963E+01  0.27588637230E+02  0.22889776386E+03  0.23064349258E+03  0.41800000000E+01 0.  1.
        -11    1    1    2    0    0  0.13017175178E+02  0.11343352643E+02 -0.89777885620E+01  0.19460708781E+02  0.00000000000E+00 0.  1.
         11    1    1    2    0    0  0.34019780533E+02 -0.31970472247E+02  0.14635444073E+03  0.15361991695E+03  0.00000000000E+00 0. -1.
</event>
<event>
 7    1  0.2412631E-010  0.1101554E+03  0.7561462E-02  0.1260282E+00
          2   -1    0    0  501    0  0.00000000000E+00  0.00000000000E+00  0.27953133868E+03  0.27953133868E+03  0.00000000000E+00 0.  1.
         -2   -1    0    0    0  501 -0.00000000000E+00 -0.00000000000E+00 -0.55208093860E+02  0.55208093860E+02  0.00000000000E+00 0. -1.
         25    2    1    2    0    0  0.53501645103E+02  0.11116006857E+02  0.92019004187E+02  0.16459310576E+03  0.12504959694E+03 0.  0.
          5    1    3    3  502    0  0.68958681641E+02 -0.41591787307E+02  0.62997524770E+02  0.10232955131E+03  0.41800000000E+01 0.  1.
         -5    1    3    3    0  502 -0.15457036538E+02  0.52707794164E+02  0.29021479418E+02  0.62263554442E+02  0.41800000000E+01 0.  1.
        -11    1    1    2    0    0 -0.16601980971E+02  0.26897126537E+02  0.10674371582E+03  0.11132520853E+03  0.00000000000E+00 0.  1.
         11    1    1    2    0    0 -0.36899664131E+02 -0.38013133394E+02  0.25560524813E+02  0.58821118249E+02  0.00000000000E+00 0. -1.
</event>
<event>
 7    1  0.2412631E-010  0.1067616E+03  0.7561462E-02  0.1266687E+00
          2   -1    0    0  501    0  0.00000000000E+00  0.00000000000E+00  0.63834237419E+03  0.63834237419E+03  0.00000000000E+00 0. -1.
         -2   -1    0    0    0  501 -0.00000000000E+00 -0.00000000000E+00 -0.22868626295E+02  0.22868626295E+02  0.00000000000E+00 0.  1.
         25    2    1    2    0    0 -0.47405122078E+02  0.24944854647E+02  0.34139090074E+03  0.36752529052E+03  0.12513033480E+03 0.  0.
          5    1    3    3  502    0 -0.17978162242E+01 -0.37305092561E+02  0.22298913415E+03  0.22613387279E+03  0.41800000000E+01 0.  1.
         -5    1    3    3    0  502 -0.45607305854E+02  0.62249947208E+02  0.11840176659E+03  0.14139141772E+03  0.41800000000E+01 0.  1.
        -11    1    1    2    0    0  0.48700009871E+02  0.20756988223E+02  0.19769902566E+03  0.20466423300E+03  0.00000000000E+00 0. -1.
         11    1    1    2    0    0 -0.12948877934E+01 -0.45701842870E+02  0.76383821495E+02  0.89021476972E+02  0.00000000000E+00 0.  1.
</event>
<event>
 7    1  0.2412631E-010  0.1261237E+03  0.7561462E-02  0.1233324E+00
         -2   -1    0    0    0  501 -0.00000000000E+00  0.00000000000E+00  0.22756971693E+02  0.22756971693E+02  0.00000000000E+00 0.  1.
          2   -1    0    0  501    0  0.00000000000E+00 -0.00000000000E+00 -0.89464265827E+03  0.89464265827E+03  0.00000000000E+00 0. -1.
         25    2    1    2    0    0  0.87239532928E+02 -0.12238624598E+02 -0.54028568653E+03  0.56153555992E+03  0.12511211748E+03 0.  0.
          5    1    3    3  502    0  0.92361207665E+02  0.32222867503E+02 -0.26307593606E+03  0.28070505234E+03  0.41800000000E+01 0. -1.
         -5    1    3    3    0  502 -0.51216747370E+01 -0.44461492101E+02 -0.27720975047E+03  0.28083050758E+03  0.41800000000E+01 0. -1.
        -11    1    1    2    0    0  0.99146148961E+01 -0.43497814940E+01 -0.98589711976E+00  0.10871622727E+02  0.00000000000E+00 0.  1.
         11    1    1    2    0    0 -0.97154147825E+02  0.16588406092E+02 -0.33061410292E+03  0.34499244732E+03  0.00000000000E+00 0. -1.
</event>
<event>
 7    1  0.2412631E-010  0.2258350E+03  0.7561462E-02  0.1129606E+00
          2   -1    0    0  501    0  0.00000000000E+00  0.00000000000E+00  0.69269479017E+03  0.69269479017E+03  0.00000000000E+00 0. -1.
         -2   -1    0    0    0  501 -0.00000000000E+00 -0.00000000000E+00 -0.85170760028E+02  0.85170760028E+02  0.00000000000E+00 0.  1.
         25    2    1    2    0    0  0.15198871713E+03 -0.14367823651E+03  0.40372098252E+03  0.47158524140E+03  0.12513193996E+03 0.  0.
          5    1    3    3  502    0  0.13816513438E+03 -0.16593008038E+03  0.34304419254E+03  0.40536303034E+03  0.41800000000E+01 0. -1.
         -5    1    3    3    0  502  0.13823582753E+02  0.22251843863E+02  0.60676789978E+02  0.66222211058E+02  0.41800000000E+01 0. -1.
        -11    1    1    2    0    0 -0.41925210481E+02  0.37501263842E+02  0.64642186266E+01  0.56620263034E+02  0.00000000000E+00 0.  1.
         11    1    1    2    0    0 -0.11006350665E+03  0.10617697267E+03  0.19733882900E+03  0.24966004577E+03  0.00000000000E+00 0. -1.
</event>
<event>
 7    1  0.2412631E-010  0.1535366E+03  0.7561462E-02  0.1196193E+00
          2   -1    0    0  501    0  0.00000000000E+00  0.00000000000E+00  0.70397420185E+02  0.70397420185E+02  0.00000000000E+00 0. -1.
         -2   -1    0    0    0  501 -0.00000000000E+00 -0.00000000000E+00 -0.46710964959E+03  0.46710964959E+03  0.00000000000E+00 0.  1.
         25    2    1    2    0    0 -0.12578403435E+03  0.44886046418E+02 -0.12699550516E+03  0.22271508653E+03  0.12505107347E+03 0.  0.
          5    1    3    3  502    0 -0.13921250432E+03  0.60964885243E+02 -0.81608253247E+02  0.17255207327E+03  0.41800000000E+01 0.  1.
         -5    1    3    3    0  502  0.13428469963E+02 -0.16078838824E+02 -0.45387251914E+02  0.50163013264E+02  0.41800000000E+01 0.  1.
        -11    1    1    2    0    0  0.29101326919E+02 -0.78256164566E+01 -0.50019069957E+01  0.30547447929E+02  0.00000000000E+00 0. -1.
         11    1    1    2    0    0  0.96682707433E+02 -0.37060429962E+02 -0.26471481725E+03  0.28424453532E+03  0.00000000000E+00 0.  1.
</event>
<event>
 6    1  0.2412631E-010  0.1155418E+03  0.7561462E-02  0.1250638E+00
          2   -1    0    0  501    0  0.00000000000E+00  0.00000000000E+00  0.40756587122E+02  0.40756587122E+02  0.00000000000E+00 0. -1.
         -2   -1    0    0    0  501 -0.00000000000E+00 -0.00000000000E+00 -0.55064179036E+03  0.55064179036E+03  0.00000000000E+00 0.  1.
          5    1    1    2  502    0 -0.80029221862E+02  0.12547271105E+00 -0.61381101184E+02  0.10094455943E+03  0.41800000000E+01 0. -1.
         -5    1    1    2    0  502 -0.23413354661E+02 -0.10087291960E+02 -0.24131423196E+03  0.24269315932E+03  0.41800000000E+01 0. -1.
        -11    1    1    2    0    0  0.87323290524E+02 -0.21348336583E+02 -0.18619859096E+03  0.20676320712E+03  0.00000000000E+00 0.  1.
         11    1    1    2    0    0  0.16119286000E+02  0.31310155832E+02 -0.20991279141E+02  0.40997451620E+02  0.00000000000E+00 0. -1.
</event>
<event>
 7    1  0.2699775E-010  0.8521667E+02  0.7561462E-02  0.1314867E+00
          1   -1    0    0  501    0  0.00000000000E+00  0.00000000000E+00  0.43478418993E+03  0.43478418993E+03  0.00000000000E+00 0. -1.
         -1   -1    0    0    0  501 -0.00000000000E+00 -0.00000000000E+00 -0.37788951673E+02  0.37788951673E+02  0.00000000000E+00 0.  1.
         25    2    1    2    0    0 -0.36828145430E+02 -0.43796520018E+02  0.28681435259E+03  0.31808665803E+03  0.12506878789E+03 0.  0.
          5    1    3    3  502    0 -0.52649121423E+02 -0.55102387249E+02  0.28821260306E+03  0.29814791636E+03  0.41800000000E+01 0.  1.
         -5    1    3    3    0  502  0.15820975993E+02  0.11305867231E+02 -0.13982504677E+01  0.19938741675E+02  0.41800000000E+01 0.  1.
        -11    1    1    2    0    0 -0.71456631094E+01  0.25684216976E+02 -0.73867876031E+01  0.27664130820E+02  0.00000000000E+00 0.  1.
         11    1    1    2    0    0  0.43973808540E+02  0.18112303042E+02  0.11756767327E+03  0.12682235275E+03  0.00000000000E+00 0. -1.
</event>
<event>
 7    1  0.2412631E-010  0.1126845E+03  0.7561462E-02  0.1255678E+00
          1   -1    0    0  501    0  0.00000000000E+00  0.00000000000E+00  0.13327422894E+03  0.13327422894E+03  0.00000000000E+00 0. -1.
         -1   -1    0    0    0  501 -0.00000000000E+00 -0.00000000000E+00 -0.14578765182E+03  0.14578765182E+03  0.00000000000E+00 0.  1.
         25    2    1    2    0    0  0.51052290811E+02 -0.72112814881E+02  0.12853922207E+02  0.15365450958E+03  0.12505155149E+03 0.  0.
          5    1    3    3  502    0 -0.11204518030E+02 -0.78316178816E+01 -0.44863857541E+02  0.47086235530E+02  0.41800000000E+01 0. -1.
         -5    1    3    3    0  502  0.62256808840E+02 -0.64281197000E+02  0.57717779747E+02  0.10656827405E+03  0.41800000000E+01 0. -1.
        -11    1    1    2    0    0  0.14772576986E+02  0.49863305667E+02 -0.19993449090E+02  0.55716391568E+02  0.00000000000E+00 0.  1.
         11    1    1    2    0    0 -0.65824867797E+02  0.22249509214E+02 -0.53738960026E+01  0.69690979610E+02  0.00000000000E+00 0. -1.
</event>
<event>
 7    1  0.2412631E-010  0.1094362E+03  0.7561462E-02  0.1261618E+00
          2   -1    0    0  501    0  0.00000000000E+00  0.00000000000E+00  0.65379474657E+03  0.65379474657E+03  0.00000000000E+00 0. -1.
         -2   -1    0    0    0  501 -0.00000000000E+00 -0.00000000000E+00 -0.33790979769E+02  0.33790979769E+02  0.00000000000E+00 0.  1.
         25    2    1    2    0    0  0.43399458342E+02  0.77664521835E+02  0.22743796930E+03  0.27436578871E+03  0.12503305641E+03 0.  0.
          5    1    3    3  502    0  0.36527919181E+02  0.70597386083E+02  0.44651755081E+02  0.91266266677E+02  0.41800000000E+01 0. -1.
         -5    1    3    3    0  502  0.68715391613E+01  0.70671357521E+01  0.18278621422E+03  0.18309952203E+03  0.41800000000E+01 0. -1.
        -11    1    1    2    0    0 -0.66178603977E+02 -0.24219560536E+02  0.19809722180E+03  0.21025865980E+03  0.00000000000E+00 0.  1.
         11    1    1    2    0    0  0.22779145635E+02 -0.53444961299E+02  0.19446857570E+03  0.20296127783E+03  0.00000000000E+00 0. -1.
</event>
<event>
 6    1  0.2412631E-010  0.1257246E+03  0.7561462E-02  0.1233941E+00
          1   -1    0    0  501    0  0.00000000000E+00  0.00000000000E+00  0.11312505254E+04  0.11312505254E+04  0.00000000000E+00 0. -1.
         -1   -1    0    0    0  501 -0.00000000000E+00 -0.00000000000E+00 -0.14662536408E+02  0.14662536408E+02  0.00000000000E+00 0.  1.
          5    1    1    2  502    0  0.31471758214E+02  0.38436519434E+02  0.16619126142E+03  0.17350747927E+03  0.41800000000E+01 0.  1.
         -5    1    1    2    0  502  0.15688792460E+02 -0.86554388539E+02  0.45650498547E+03  0.46492157892E+03  0.41800000000E+01 0.  1.
        -11    1    1    2    0    0 -0.53123293862E+02 -0.10886537216E+02  0.17812590969E+03  0.18619731670E+03  0.00000000000E+00 0. -1.
         11    1    1    2    0    0  0.59627431880E+01  0.59004406321E+02  0.31576583239E+03  0.32128668690E+03  0.00000000000E+00 0.  1.
</event>
<event>
 7    1  0.2412631E-010  0.7793587E+02  0.7561462E-02  0.1335013E+00
         -1   -1    0    0    0  501 -0.00000000000E+00  0.00000000000E+00  0.24616275364E+03  0.24616275364E+03  0.00000000000E+00 0.  1.
          1   -1    0    0  501    0  0.00000000000E+00 -0.00000000000E+00 -0.52307054790E+02  0.52307054790E+02  0.00000000000E+00 0. -1.
         25    2    1    2    0    0 -0.46246153834E+01  0.24692021650E+02  0.10705842581E+03  0.16653472661E+03  0.12506488568E+03 0.  0.
          5    1    3    3  502    0 -0.30544701396E+02  0.74582231464E+01 -0.18763136443E+02  0.36852836595E+02  0.41800000000E+01 0. -1.
         -5    1    3    3    0  502  0.25920086013E+02  0.17233798504E+02  0.12582156226E+03  0.12968189002E+03  0.41800000000E+01 0. -1.
        -11    1    1    2    0    0  0.16653254587E+02  0.31312474065E+02  0.57596324425E+02  0.67639770162E+02  0.00000000000E+00 0.  1.
         11    1    1    2    0    0 -0.12028639203E+02 -0.56004495715E+02  0.29200948617E+02  0.64295311660E+02  0.00000000000E+00 0. -1.
</event>
<event>
 7    1  0.2412631E-010  0.1157555E+03  0.7561462E-02  0.1250268E+00
         -1   -1    0    0    0  501 -0.00000000000E+00  0.00000000000E+00  0.91712438874E+02  0.91712438874E+02  0.00000000000E+00 0.  1.
          1   -1    0    0  501    0  0.00000000000E+00 -0.00000000000E+00 -0.27716049830E+03  0.27716049830E+03  0.00000000000E+00 0. -1.
         25    2    1    2    0    0  0.50960227984E+02  0.84174829563E+02 -0.27119004635E+02  0.16141186905E+03  0.12504400941E+03 0.  0.
          5    1    3    3  502    0  0.16730635089E+02  0.31877689317E+02 -0.74513401810E+02  0.82860247863E+02  0.41800000000E+01 0.  1.
         -5    1    3    3    0  502  0.34229592895E+02  0.52297140246E+02  0.47394397175E+02  0.78551621188E+02  0.41800000000E+01 0.  1.
        -11    1    1    2    0    0 -0.85168193802E+01 -0.89450276539E+02 -0.92499434677E+02  0.12895748757E+03  0.00000000000E+00 0.  1.
         11    1    1    2    0    0 -0.42443408604E+02  0.52754469757E+01 -0.65829620109E+02  0.78503580545E+02  0.00000000000E+00 0. -1.
</event>
<event>
 6    1  0.2412631E-010  0.1254043E+03  0.7561462E-02  0.1234439E+00
          1   -1    0    0  501    0  0.00000000000E+00  0.00000000000E+00  0.34667129594E+03  0.34667129594E+03  0.00000000000E+00 0. -1.
         -1   -1    0    0    0  501 -0.00000000000E+00 -0.00000000000E+00 -0.60191941091E+02  0.60191941091E+02  0.00000000000E+00 0.  1.
          5    1    1    2  502    0 -0.91918326902E+02 -0.36101865548E+02  0.40087274527E+02  0.10666201524E+03  0.41800000000E+01 0. -1.
         -5    1    1    2    0  502 -0.21838803122E+01  0.22819285575E+02  0.10398216159E+03  0.10656102221E+03  0.41800000000E+01 0. -1.
        -11    1    1    2    0    0  0.10133416287E+03 -0.12301603793E+02  0.95857649607E+02  0.14003082164E+03  0.00000000000E+00 0. -1.
         11    1    1    2    0    0 -0.72319556570E+01  0.25584183766E+02  0.46552269127E+02  0.53609377934E+02  0.00000000000E+00 0.  1.
</event>
<event>
 6    1  0.2412631E-010  0.9928752E+02  0.7561462E-02  0.1281801E+00
          2   -1    0    0  501    0  0.00000000000E+00  0.00000000000E+00  0.51811418336E+03  0.51811418336E+03  0.00000000000E+00 0. -1.
         -2   -1    0    0    0  501 -0.00000000000E+00 -0.00000000000E+00 -0.21189152069E+02  0.21189152069E+02  0.00000000000E+00 0.  1.
          5    1    1    2  502    0  0.39914959947E+02  0.24309228723E+02  0.57708949635E+02  0.74376998438E+02  0.41800000000E+01 0. -1.
         -5    1    1    2    0  502 -0.29746899031E+02 -0.76328531451E+02  0.22051035263E+03  0.23527263065E+03  0.41800000000E+01 0. -1.
        -11    1    1    2    0    0  0.12398497272E+02 -0.55826606177E+00  0.30036275689E+02  0.32499419270E+02  0.00000000000E+00 0.  1.
         11    1    1    2    0    0 -0.22566558189E+02  0.52577568790E+02  0.18866945333E+03  0.19715428707E+03  0.00000000000E+00 0. -1.
</event>
<event>
 7    1  0.2412631E-010  0.1310920E+03  0.7561462E-02  0.1225844E+00
         -2   -1    0    0    0  501 -0.00000000000E+00  0.00000000000E+00  0.20875815617E+02  0.20875815617E+02  0.00000000000E+00 0.  1.
          2   -1    0    0  501    0  0.00000000000E+00 -0.00000000000E+00 -0.10940390426E+04  0.10940390426E+04  0.00000000000E+00 0. -1.
         25    2    1    2    0    0  0.72721994163E+02  0.62909865557E+02 -0.67180932108E+03  0.69008192464E+03  0.12505662398E+03 0.  0.
          5    1    3    3  502    0  0.19492894305E+02  0.66509814829E+02 -0.57740637417E+03  0.58156609403E+03  0.41800000000E+01 0.  1.
         -5    1    3    3    0  502  0.53229099858E+02 -0.35999492711E+01 -0.94402946908E+02  0.10851583060E+03  0.41800000000E+01 0.  1.
        -11    1    1    2    0    0  0.81934078378E+01 -0.57564435355E+02 -0.16256828848E+03  0.17265353911E+03  0.00000000000E+00 0.  1.
         11    1    1    2    0    0 -0.80915402001E+02 -0.53454302028E+01 -0.23878561744E+03  0.25217939449E+03  0.00000000000E+00 0. -1.
</event>
<event>
 7    1  0.2412631E-010  0.1304934E+03  0.7561462E-02  0.1226726E+00
          1   -1    0    0  501    0  0.00000000000E+00  0.00000000000E+00  0.17176399101E+04  0.17176399101E+04  0.00000000000E+00 0. -1.
         -1   -1    0    0    0  501 -0.00000000000E+00 -0.00000000000E+00 -0.11498757783E+02  0.11498757783E+02  0.00000000000E+00 0.  1.
         25    2    1    2    0    0 -0.37716889792E+02 -0.72107996218E+02  0.11698930610E+04  0.11793682585E+04  0.12505034222E+03 0.  0.
          5    1    3    3  502    0 -0.82708888145E+02 -0.32941642420E+02  0.73472001360E+03  0.74010599428E+03  0.41800000000E+01 0. -1.
         -5    1    3    3    0  502  0.44991998353E+02 -0.39166353798E+02  0.43517304741E+03  0.43926226423E+03  0.41800000000E+01 0. -1.
        -11    1    1    2    0    0 -0.15613052947E+02 -0.66319184350E+01  0.28284727736E+02  0.32981443079E+02  0.00000000000E+00 0.  1.
         11    1    1    2    0    0  0.53329942739E+02  0.78739914653E+02  0.50796336358E+03  0.51678896630E+03  0.00000000000E+00 0. -1.
</event>
<event>
 7    1  0.2412631E-010  0.9886932E+02  0.7561462E-02  0.1282692E+00
         -2   -1    0    0    0  501 -0.00000000000E+00  0.00000000000E+00  0.43442085576E+02  0.43442085576E+02  0.00000000000E+00 0.  1.
          2   -1    0    0  501    0  0.00000000000E+00 -0.00000000000E+00 -0.32445027683E+03  0.32445027683E+03  0.00000000000E+00 0. -1.
         25    2    1    2    0    0 -0.41897182366E+02 -0.17353913266E+02 -0.13504435705E+03  0.18954333171E+03  0.12503265184E+03 0.  0.
          5    1    3    3  502    0  0.11229177771E+02 -0.50743202046E+02 -0.11022836648E+03  0.12193741085E+03  0.41800000000E+01 0.  1.
         -5    1    3    3    0  502 -0.53126360137E+02  0.33389288780E+02 -0.24815990572E+02  0.67605920855E+02  0.41800000000E+01 0.  1.
        -11    1    1    2    0    0 -0.13238045549E+02 -0.14015397216E+02 -0.95117379751E+02  0.97051497360E+02  0.00000000000E+00 0. -1.
         11    1    1    2    0    0  0.55135227915E+02  0.31369310482E+02 -0.50846454447E+02  0.81297533340E+02  0.00000000000E+00 0.  1.
</event>
<event>
 7    1  0.2412631E-010  0.1231916E+03  0.7561462E-02  0.1237923E+00
         -1   -1    0    0    0  501 -0.00000000000E+00  0.00000000000E+00  0.12922002503E+03  0.12922002503E+03  0.00000000000E+00 0.  1.
          1   -1    0    0  501    0  0.00000000000E+00 -0.00000000000E+00 -0.30269457628E+03  0.30269457628E+03  0.00000000000E+00 0. -1.
         25    2    1    2    0    0 -0.10128885636E+03 -0.24461712227E+02 -0.23193708386E+03  0.28338196908E+03  0.12511083782E+03 0.  0.
          5    1    3    3  502    0 -0.79325800416E+02 -0.35132608795E+01 -0.39986774966E+02  0.89001911136E+02  0.41800000000E+01 0.  1.
         -5    1    3    3    0  502 -0.21963055945E+02 -0.20948451347E+02 -0.19195030890E+03  0.19438005794E+03  0.41800000000E+01 0.  1.
        -11    1    1    2    0    0  0.89274185968E+01 -0.28429410914E+02  0.87125471771E+01  0.31045751498E+02  0.00000000000E+00 0.  1.
         11    1    1    2    0    0  0.92361437765E+02  0.52891123141E+02  0.49749985432E+02  0.11748688073E+03  0.00000000000E+00 0. -1.
</event>
<event>
 6    1  0.2412631E-010  0.1330755E+03  0.7561462E-02  0.1222962E+00
         -1   -1    0    0    0  501 -0.00000000000E+00  0.00000000000E+00  0.12132584604E+03  0.12132584604E+03  0.00000000000E+00 0.  1.
          1   -1    0    0  501    0  0.00000000000E+00 -0.00000000000E+00 -0.33833280880E+03  0.33833280880E+03  0.00000000000E+00 0. -1.
          5    1    1    2  502    0 -0.72180503727E+02 -0.66892961127E+02 -0.80718312592E+02  0.12734838733E+03  0.41800000000E+01 0. -1.
         -5    1    1    2    0  502 -0.22352975255E+02  0.11562273495E+02 -0.18128852267E+03  0.18307469110E+03  0.41800000000E+01 0. -1.
        -11    1    1    2    0    0 -0.15108074436E+02 -0.62946956695E+01  0.30351409412E+01  0.16645996134E+02  0.00000000000E+00 0. -1.
         11    1    1    2    0    0  0.10964155342E+03  0.61625383302E+02  0.41964731561E+02  0.13258958028E+03  0.00000000000E+00 0.  1.
</event>
<event>
 7    1  0.2412631E-010  0.1902792E+03  0.7561462E-02  0.1158210E+00
          1   -1    0    0  501    0  0.00000000000E+00  0.00000000000E+00  0.21337458836E+03  0.21337458836E+03  0.00000000000E+00 0. -1.
         -1   -1    0    0    0  501 -0.00000000000E+00 -0.00000000000E+00 -0.24743504698E+03  0.24743504698E+03  0.00000000000E+00 0.  1.
         25    2    1    2    0    0  0.91489885257E+02  0.14041734490E+03 -0.13209574069E+03  0.24736578383E+03  0.12511241525E+03 0.  0.
          5    1    3    3  502    0  0.54873191746E+02  0.15836651554E+03 -0.11271131549E+03  0.20202062631E+03  0.41800000000E+01 0.  1.
         -5    1    3    3    0  502  0.36616693511E+02 -0.17949170639E+02 -0.19384425203E+02  0.45345157522E+02  0.41800000000E+01 0.  1.
        -11    1    1    2    0    0 -0.22605127665E+02 -0.10641382225E+02  0.54900078397E+02  0.60317902985E+02  0.00000000000E+00 0. -1.
         11    1    1    2    0    0 -0.68884757592E+02 -0.12977596267E+03  0.43135203678E+02  0.15312594853E+03  0.00000000000E+00 0.  1.
</event>
<event>
 7    1  0.2412631E-010  0.1055852E+03  0.7561462E-02  0.1268971E+00
          1   -1    0    0  501    0  0.00000000000E+00  0.00000000000E+00  0.81128827911E+03  0.81128827911E+03  0.00000000000E+00 0. -1.
         -1   -1    0    0    0  501 -0.00000000000E+00 -0.00000000000E+00 -0.18792720535E+02  0.18792720535E+02  0.00000000000E+00 0.  1.
         25    2    1    2    0    0 -0.12243840272E+02  0.40584236361E+02  0.57309139730E+03  0.58810524942E+03  0.12504816224E+03 0.  0.
          5    1    3    3  502    0  0.43220770026E+02  0.38944638010E+02  0.43999889698E+03  0.44384819650E+03  0.41800000000E+01 0.  1.
         -5    1    3    3    0  502 -0.55464610298E+02  0.16395983510E+01  0.13309250031E+03  0.14425705292E+03  0.41800000000E+01 0.  1.
        -11    1    1    2    0    0 -0.37987805681E+02 -0.19748764510E+02  0.13448969372E+03  0.14114023097E+03  0.00000000000E+00 0.  1.
         11    1    1    2    0    0  0.50231645954E+02 -0.20835471851E+02  0.84914467558E+02  0.10083551925E+03  0.00000000000E+00 0. -1.
</event>
<event>
 7    1  0.2412631E-010  0.1611371E+03  0.7561462E-02  0.1187419E+00
         -1   -1    0    0    0  501 -0.00000000000E+00  0.00000000000E+00  0.11874448795E+03  0.11874448795E+03  0.00000000000E+00 0.  1.
          1   -1    0    0  501    0  0.00000000000E+00 -0.00000000000E+00 -0.27271987763E+03  0.27271987763E+03  0.00000000000E+00 0. -1.
         25    2    1    2    0    0  0.99287022997E+01  0.14183496889E+03 -0.66207242662E+02  0.20059265058E+03  0.12505308856E+03 0.  0.
          5    1    3    3  502    0  0.41470816080E+02  0.92728515603E+02 -0.91564757429E+02  0.13682099033E+03  0.41800000000E+01 0. -1.
         -5    1    3    3    0  502 -0.31542113781E+02  0.49106453283E+02  0.25357514767E+02  0.63771660249E+02  0.41800000000E+01 0. -1.
        -11    1    1    2    0    0 -0.43866970631E+02 -0.69362766718E+02 -0.16500414263E+02  0.83712413595E+02  0.00000000000E+00 0.  1.
         11    1    1    2    0    0  0.33938268331E+02 -0.72472202168E+02 -0.71267732762E+02  0.10715930140E+03  0.00000000000E+00 0. -1.
</event>
<event>
 7    1  0.2412631E-010  0.6405800E+02  0.7561462E-02  0.1381550E+00
         -1   -1    0    0    0  501 -0.00000000000E+00  0.00000000000E+00  0.23647564391E+02  0.23647564391E+02  0.00000000000E+00 0.  1.
          1   -1    0    0  501    0  0.00000000000E+00 -0.00000000000E+00 -0.48497224128E+03  0.48497224128E+03  0.00000000000E+00 0. -1.
         25    2    1    2    0    0 -0.81608700984E+01 -0.50462311128E+01 -0.26756761827E+03  0.29550871029E+03  0.12506359687E+03 0.  0.
          5    1    3    3  502    0  0.16213240815E+02  0.81311712063E+00  0.81380740918E+01  0.18634134997E+02  0.41800000000E+01 0.  1.
         -5    1    3    3    0  502 -0.24374110913E+02 -0.58593482335E+01 -0.27570569236E+03  0.27687457530E+03  0.41800000000E+01 0.  1.
        -11    1    1    2    0    0 -0.38720571030E+02  0.51136952197E+01 -0.62151649758E+02  0.73404768696E+02  0.00000000000E+00 0.  1.
         11    1    1    2    0    0  0.46881441128E+02 -0.67464106908E-01 -0.13160540886E+03  0.13970632668E+03  0.00000000000E+00 0. -1.
</event>
<event>
 7    1  0.2412631E-010  0.1090219E+03  0.7561462E-02  0.1262392E+00
          2   -1    0    0  501    0  0.00000000000E+00  0.00000000000E+00  0.84997979141E+03  0.84997979141E+03  0.00000000000E+00 0. -1.
         -2   -1    0    0    0  501 -0.00000000000E+00 -0.00000000000E+00 -0.14391893639E+02  0.14391893639E+02  0.00000000000E+00 0.  1.
         25    2    1    2    0    0 -0.74901605112E+01  0.51239346367E+01  0.54637100403E+03  0.56058676852E+03  0.12511552176E+03 0.  0.
          5    1    3    3  502    0  0.56674028018E+02 -0.13245650028E+02  0.27122636111E+03  0.27743216118E+03  0.41800000000E+01 0.  1.
         -5    1    3    3    0  502 -0.64164188529E+02  0.18369584665E+02  0.27514464292E+03  0.28315460734E+03  0.41800000000E+01 0.  1.
        -11    1    1    2    0    0 -0.38714080566E+02 -0.20901631033E+02  0.12922647172E+03  0.13651058276E+03  0.00000000000E+00 0. -1.
         11    1    1    2    0    0  0.46204241077E+02  0.15777696396E+02  0.15999042202E+03  0.16727433376E+03  0.00000000000E+00 0.  1.
</event>
<event>
 6    1  0.2412631E-010  0.7591481E+02  0.7561462E-02  0.1341061E+00
          2   -1    0    0  501    0  0.00000000000E+00  0.00000000000E+00  0.13377113032E+03  0.13377113032E+03  0.00000000000E+00 0. -1.
         -2   -1    0    0    0  501 -0.00000000000E+00 -0.00000000000E+00 -0.47754512540E+02  0.47754512540E+02  0.00000000000E+00 0.  1.
          5    1    1    2  502    0 -0.54834648015E+02 -0.43953072315E+02  0.13497895377E+02  0.71682471836E+02  0.41800000000E+01 0. -1.
         -5    1    1    2    0  502  0.37350738372E+02  0.32780412259E+02  0.47755628834E+02  0.69048573990E+02  0.41800000000E+01 0. -1.
        -11    1    1    2    0    0  0.85709173354E+01  0.18259824199E+02  0.11153912192E+02  0.23049762709E+02  0.00000000000E+00 0.  1.
         11    1    1    2    0    0  0.89129923074E+01 -0.70871641425E+01  0.13609181375E+02  0.17744834323E+02  0.00000000000E+00 0. -1.
</event>
<event>
 7    1  0.2412631E-010  0.3288694E+03  0.7561462E-02  0.1071638E+00
          1   -1    0    0  501    0  0.00000000000E+00  0.00000000000E+00  0.90473245698E+03  0.90473245698E+03  0.00000000000E+00 0. -1.
         -1   -1    0    0    0  501 -0.00000000000E+00 -0.00000000000E+00 -0.13413226874E+03  0.13413226874E+03  0.00000000000E+00 0.  1.
         25    2    1    2    0    0  0.15038451920E+03 -0.28138088300E+03  0.26100368705E+03  0.43078199670E+03  0.12513792031E+03 0.  0.
          5    1    3    3  502    0  0.99301722252E+01 -0.13119088194E+03  0.65554861376E+02  0.14705294310E+03  0.41800000000E+01 0. -1.
         -5    1    3    3    0  502  0.14045434697E+03 -0.15019000106E+03  0.19544882567E+03  0.28372905360E+03  0.41800000000E+01 0. -1.
        -11    1    1    2    0    0 -0.62467176929E+02  0.14845367121E+03  0.17722416041E+03  0.23947660371E+03  0.00000000000E+00 0.  1.
         11    1    1    2    0    0 -0.87917342269E+02  0.13292721178E+03  0.33237234077E+03  0.36860612530E+03  0.00000000000E+00 0. -1.
</event>
<event>
 7    1  0.2412631E-010  0.8943637E+02  0.7561462E-02  0.1304222E+00
         -3   -1    0    0    0  501 -0.00000000000E+00  0.00000000000E+00  0.25987009674E+03  0.25987009674E+03  0.00000000000E+00 0.  1.
          3   -1    0    0  501    0  0.00000000000E+00 -0.00000000000E+00 -0.62314480342E+02  0.62314480342E+02  0.00000000000E+00 0. -1.
         25    2    1    2    0    0  0.31567122415E+02 -0.14110390258E+02  0.18564000790E+03  0.22653870676E+03  0.12514785974E+03 0.  0.
          5    1    3    3  502    0  0.18054126292E+02 -0.45758198885E+02  0.13833410946E+02  0.51269873218E+02  0.41800000000E+01 0.  1.
         -5    1    3    3    0  502  0.13512996123E+02  0.31647808627E+02  0.17180659695E+03  0.17526883355E+03  0.41800000000E+01 0.  1.
        -11    1    1    2    0    0 -0.50443060659E+02  0.38886619269E+02  0.96140504647E+01  0.64413519491E+02  0.00000000000E+00 0. -1.
         11    1    1    2    0    0  0.18875938244E+02 -0.24776229011E+02  0.23015580279E+01  0.31232350824E+02  0.00000000000E+00 0.  1.
</event>
<event>
 6    1  0.2412631E-010  0.1329948E+03  0.7561462E-02  0.1223078E+00
         -2   -1    0    0    0  501 -0.00000000000E+00  0.00000000000E+00  0.33846178057E+02  0.33846178057E+02  0.00000000000E+00 0.  1.
          2   -1    0    0  501    0  0.00000000000E+00 -0.00000000000E+00 -0.79262025154E+03  0.79262025154E+03  0.00000000000E+00 0. -1.
          5    1    1    2  502    0 -0.23913739279E+02 -0.22294661530E+02 -0.11511218774E+03  0.11973807676E+03  0.41800000000E+01 0.  1.
         -5    1    1    2    0  502  0.78978318616E+02  0.86896182836E+02 -0.51169563396E+03  0.52501277662E+03  0.41800000000E+01 0.  1.
        -11    1    1    2    0    0 -0.40839481583E+02 -0.82864028458E+02 -0.71032944550E+02  0.11653321278E+03  0.00000000000E+00 0.  1.
         11    1    1    2    0    0 -0.14225097754E+02  0.18262507152E+02 -0.60933307228E+02  0.65182363438E+02  0.00000000000E+00 0. -1.
</event>
<event>
 6    1  0.2412631E-010  0.1742604E+03  0.7561462E-02  0.1173476E+00
         -1   -1    0    0    0  501 -0.00000000000E+00  0.00000000000E+00  0.67338345649E+02  0.67338345649E+02  0.00000000000E+00 0.  1.
          1   -1    0    0  501    0  0.00000000000E+00 -0.00000000000E+00 -0.55416320996E+03  0.55416320996E+03  0.00000000000E+00 0. -1.
          5    1    1    2  502    0  0.65884073375E+02 -0.41382969359E+02 -0.13777459350E+03  0.15828004389E+03  0.41800000000E+01 0. -1.
         -5    1    1    2    0  502 -0.71249422199E+01 -0.99851420993E+02 -0.41072437562E+02  0.10828429527E+03  0.41800000000E+01 0. -1.
        -11    1    1    2    0    0 -0.57477350844E+02  0.42040793548E+02 -0.17578841032E+03  0.18966454435E+03  0.00000000000E+00 0. -1.
         11    1    1    2    0    0 -0.12817803120E+01  0.99193596804E+02 -0.13218942293E+03  0.16527267210E+03  0.00000000000E+00 0.  1.
</event>
<event>
 7    1  0.2412631E-010  0.1929078E+03  0.7561462E-02  0.1155865E+00
          2   -1    0    0  501    0  0.00000000000E+00  0.00000000000E+00  0.35777897069E+03  0.35777897069E+03  0.00000000000E+00 0.  1.
         -2   -1    0    0    0  501 -0.00000000000E+00 -0.00000000000E+00 -0.12191857100E+03  0.12191857100E+03  0.00000000000E+00 0. -1.
         25    2    1    2    0    0 -0.17162615178E+03 -0.17244519048E+02  0.17152436445E+03  0.27354864512E+03  0.12512131808E+03 0.  0.
          5    1    3    3  502    0 -0.51329287337E+02  0.31465676163E+02  0.11909148331E+03  0.13351044271E+03  0.41800000000E+01 0. -1.
         -5    1    3    3    0  502 -0.12029686444E+03 -0.48710195212E+02  0.52432881139E+02  0.14003820242E+03  0.41800000000E+01 0. -1.
        -11    1    1    2    0    0  0.61751199952E+02  0.51620860400E+02  0.21464461629E+02  0.83298541626E+02  0.00000000000E+00 0. -1.
         11    1    1    2    0    0  0.10987495182E+03 -0.34376341352E+02  0.42871573612E+02  0.12285035493E+03  0.00000000000E+00 0.  1.
</event>
<event>
 6    1  0.2412631E-010  0.1321960E+03  0.7561462E-02  0.1224233E+00
          2   -1    0    0  501    0  0.00000000000E+00  0.00000000000E+00  0.22126247621E+04  0.22126247621E+04  0.00000000000E+00 0. -1.
         -2   -1    0    0    0  501 -0.00000000000E+00 -0.00000000000E+00 -0.13585695746E+02  0.13585695746E+02  0.00000000000E+00 0.  1.
          5    1    1    2  502    0  0.11945486201E+03 -0.91824554479E+01  0.86816340127E+03  0.87640113262E+03  0.41800000000E+01 0.  1.
         -5    1    1    2    0  502 -0.11228124702E+02 -0.13926052384E+02  0.77584235785E+03  0.77605981880E+03  0.41800000000E+01 0.  1.
        -11    1    1    2    0    0 -0.20869309303E+02  0.32136883368E+02  0.61481785109E+02  0.72445270678E+02  0.00000000000E+00 0.  1.
         11    1    1    2    0    0 -0.87357428005E+02 -0.90283755362E+01  0.49355152212E+03  0.50130423575E+03  0.00000000000E+00 0. -1.
</event>
<event>
 7    1  0.2412631E-010  0.1202550E+03  0.7561462E-02  0.1242677E+00
          1   -1    0    0  501    0  0.00000000000E+00  0.00000000000E+00  0.51925735385E+02  0.51925735385E+02  0.00000000000E+00 0. -1.
         -1   -1    0    0    0  501 -0.00000000000E+00 -0.00000000000E+00 -0.34751622206E+03  0.34751622206E+03  0.00000000000E+00 0.  1.
         25    2    1    2    0    0 -0.29359960074E+02 -0.64133547674E+02 -0.10969635767E+03  0.18073691007E+03  0.12512961512E+03 0.  0.
          5    1    3    3  502    0  0.16569495527E+02  0.30075847730E+02 -0.47601433135E+02  0.58842787453E+02  0.41800000000E+01 0. -1.
         -5    1    3    3    0  502 -0.45929455601E+02 -0.94209395404E+02 -0.62094924539E+02  0.12189412261E+03  0.41800000000E+01 0. -1.
        -11    1    1    2    0    0  0.35355549616E+02 -0.12408535803E+01 -0.20803899283E+02  0.41040916555E+02  0.00000000000E+00 0. -1.
         11    1    1    2    0    0 -0.59955895423E+01  0.65374401254E+02 -0.16509022972E+03  0.17766413082E+03  0.00000000000E+00 0.  1.
</event>
<event>
 7    1  0.2412631E-010  0.1062727E+03  0.7561462E-02  0.1267632E+00
          1   -1    0    0  501    0  0.00000000000E+00  0.00000000000E+00  0.14386586857E+03  0.14386586857E+03  0.00000000000E+00 0. -1.
         -1   -1    0    0    0  501 -0.00000000000E+00 -0.00000000000E+00 -0.10732686115E+03  0.10732686115E+03  0.00000000000E+00 0.  1.
         25    2    1    2    0    0  0.16350553244E+02  0.59409226119E+02  0.30516485585E+02  0.14276440662E+03  0.12511444027E+03 0.  0.
          5    1    3    3  502    0 -0.34870212277E+02  0.20281739419E+01 -0.28863369919E+02  0.45503974737E+02  0.41800000000E+01 0. -1.
         -5    1    3    3    0  502  0.51220765522E+02  0.57381052177E+02  0.59379855504E+02  0.97260431879E+02  0.41800000000E+01 0. -1.
        -11    1    1    2    0    0 -0.33653574438E+01  0.19793187161E+02 -0.15463877151E+02  0.25342205611E+02  0.00000000000E+00 0.  1.
         11    1    1    2    0    0 -0.12985195801E+02 -0.79202413280E+02  0.21486398990E+02  0.83086117498E+02  0.00000000000E+00 0. -1.
</event>
<event>
 7    1  0.2412631E-010  0.2072803E+03  0.7561462E-02  0.1143738E+00
         -1   -1    0    0    0  501 -0.00000000000E+00  0.00000000000E+00  0.13566233149E+03  0.13566233149E+03  0.00000000000E+00 0.  1.
          1   -1    0    0  501    0  0.00000000000E+00 -0.00000000000E+00 -0.44977698983E+03  0.44977698983E+03  0.00000000000E+00 0. -1.
         25    2    1    2    0    0  0.71243753806E+02  0.17615152826E+03 -0.29106220278E+02  0.22936138584E+03  0.12511770415E+03 0.  0.
          5    1    3    3  502    0  0.53694225278E+02  0.47289332703E+02 -0.62423404103E+02  0.95044750489E+02  0.41800000000E+01 0.  1.
         -5    1    3    3    0  502  0.17549528528E+02  0.12886219555E+03  0.33317183826E+02  0.13431663535E+03  0.41800000000E+01 0.  1.
        -11    1    1    2    0    0 -0.34631621809E+02 -0.18675042914E+01 -0.36537774288E+02  0.50377035952E+02  0.00000000000E+00 0.  1.
         11    1    1    2    0    0 -0.36612131996E+02 -0.17428402397E+03 -0.24847066377E+03  0.30570089953E+03  0.00000000000E+00 0. -1.
</event>
<event>
 7    1  0.2412631E-010  0.1708166E+03  0.7561462E-02  0.1176999E+00
          2   -1    0    0  501    0  0.00000000000E+00  0.00000000000E+00  0.31463145943E+03  0.31463145943E+03  0.00000000000E+00 0.  1.
         -2   -1    0    0    0  501 -0.00000000000E+00 -0.00000000000E+00 -0.11295909065E+03  0.11295909065E+03  0.00000000000E+00 0. -1.
         25    2    1    2    0    0 -0.13506150691E+03 -0.28932743040E+02  0.32649296145E+02  0.18917191997E+03  0.12506528095E+03 0.  0.
          5    1    3    3  502    0 -0.94444521067E+02  0.41382717602E+02  0.31335660633E+02  0.10785032639E+03  0.41800000000E+01 0.  1.
         -5    1    3    3    0  502 -0.40616985845E+02 -0.70315460642E+02  0.13136355122E+01  0.81321593582E+02  0.41800000000E+01 0.  1.
        -11    1    1    2    0    0  0.51279616475E+02  0.49050055619E+02  0.35089156717E+02  0.79162844449E+02  0.00000000000E+00 0. -1.
         11    1    1    2    0    0  0.83781890437E+02 -0.20117312579E+02  0.13393391592E+03  0.15925578565E+03  0.00000000000E+00 0.  1.
</event>
<event>
 7    1  0.2412631E-010  0.1045276E+03  0.7561462E-02  0.1271053E+00
          4   -1    0    0  501    0  0.00000000000E+00  0.00000000000E+00  0.14276738385E+04  0.14276738385E+04  0.00000000000E+00 0. -1.
         -4   -1    0    0    0  501 -0.00000000000E+00 -0.00000000000E+00 -0.11148392633E+02  0.11148392633E+02  0.00000000000E+00 0.  1.
         25    2    1    2    0    0 -0.30131542110E+02 -0.43987372741E+01  0.11229540551E+04  0.11303162283E+04  0.12514674360E+03 0.  0.
          5    1    3    3  502    0  0.19588685453E+02  0.44801601878E+02  0.68856033165E+03  0.69030696277E+03  0.41800000000E+01 0. -1.
         -5    1    3    3    0  502 -0.49720227563E+02 -0.49200339152E+02  0.43439372348E+03  0.44000926558E+03  0.41800000000E+01 0. -1.
        -11    1    1    2    0    0 -0.28027620039E+02  0.13381230190E+02  0.59118303333E+02  0.66780076335E+02  0.00000000000E+00 0.  1.
         11    1    1    2    0    0  0.58159162149E+02 -0.89824929158E+01  0.23445308741E+03  0.24172592645E+03  0.00000000000E+00 0. -1.
</event>
<event>
 7    1  0.2412631E-010  0.1667812E+03  0.7561462E-02  0.1181247E+00
          2   -1    0    0  501    0  0.00000000000E+00  0.00000000000E+00  0.42912570244E+03  0.42912570244E+03  0.00000000000E+00 0. -1.
         -2   -1    0    0    0  501 -0.00000000000E+00 -0.00000000000E+00 -0.74534658351E+02  0.74534658351E+02  0.00000000000E+00 0.  1.
         25    2    1    2    0    0 -0.13279289912E+03 -0.51098943708E+02  0.19326322732E+03  0.27065666413E+03  0.12513711958E+03 0.  0.
          5    1    3    3  502    0 -0.13811013638E+03 -0.79760713263E+02  0.16989886198E+03  0.23306496273E+03  0.41800000000E+01 0. -1.
         -5    1    3    3    0  502  0.53172372576E+01  0.28661769555E+02  0.23364365336E+02  0.37591701393E+02  0.41800000000E+01 0. -1.
        -11    1    1    2    0    0  0.76690619051E+02  0.42897169789E+02  0.15195823933E+03  0.17553610661E+03  0.00000000000E+00 0.  1.
         11    1    1    2    0    0  0.56102280071E+02  0.82017739191E+01  0.93695774455E+01  0.57467590050E+02  0.00000000000E+00 0. -1.
</event>
<event>
 6    1  0.2412631E-010  0.1527460E+03  0.7561462E-02  0.1197139E+00
         -3   -1    0    0    0  501 -0.00000000000E+00  0.00000000000E+00  0.54357635678E+03  0.54357635678E+03  0.00000000000E+00 0.  1.
          3   -1    0    0  501    0  0.00000000000E+00 -0.00000000000E+00 -0.49517669675E+02  0.49517669675E+02  0.00000000000E+00 0. -1.
          5    1    1    2  502    0 -0.39063134359E+02 -0.32006299761E+02  0.80317299539E+02  0.94966692559E+02  0.41800000000E+01 0. -1.
         -5    1    1    2    0  502 -0.51349098820E+02  0.10839901299E+03  0.13265151038E+03  0.17888815381E+03  0.41800000000E+01 0. -1.
        -11    1    1    2    0    0  0.26092209791E+02 -0.64246501512E+02  0.21628506823E+03  0.22712914191E+03  0.00000000000E+00 0.  1.
         11    1    1    2    0    0  0.64320023387E+02 -0.12146211721E+02  0.64804808958E+02  0.92110038171E+02  0.00000000000E+00 0. -1.
</event>
<event>
 7    1  0.2412631E-010  0.9514711E+02  0.7561462E-02  0.1290845E+00
         -3   -1    0    0    0  501 -0.00000000000E+00  0.00000000000E+00  0.10772739890E+03  0.10772739890E+03  0.00000000000E+00 0.  1.
          3   -1    0    0  501    0  0.00000000000E+00 -0.00000000000E+00 -0.14635288126E+03  0.14635288126E+03  0.00000000000E+00 0. -1.
         25    2    1    2    0    0  0.26228420962E+02  0.40695305259E+02  0.19153530441E+02  0.13552135997E+03  0.12512051527E+03 0.  0.
          5    1    3    3  502    0 -0.80052563259E+01 -0.34417107085E+02 -0.23371673659E+02  0.42571456618E+02  0.41800000000E+01 0.  1.
         -5    1    3    3    0  502  0.34233677288E+02  0.75112412344E+02  0.42525204100E+02  0.92949903349E+02  0.41800000000E+01 0.  1.
        -11    1    1    2    0    0 -0.42763854350E+02 -0.26853251127E+02 -0.75375259179E+02  0.90726368996E+02  0.00000000000E+00 0. -1.
         11    1    1    2    0    0  0.16535433388E+02 -0.13842054132E+02  0.17596246375E+02  0.27832551202E+02  0.00000000000E+00 0.  1.
</event>
<event>
 7    1  0.2412631E-010  0.1087225E+03  0.7561462E-02  0.1262954E+00
         -2   -1    0    0    0  501 -0.00000000000E+00  0.00000000000E+00  0.37730214103E+02  0.37730214103E+02  0.00000000000E+00 0.  1.
          2   -1    0    0  501    0  0.00000000000E+00 -0.00000000000E+00 -0.49534776731E+03  0.49534776731E+03  0.00000000000E+00 0. -1.
         25    2    1    2    0    0 -0.65915784755E+02 -0.51007212728E+02 -0.21108397671E+03  0.25912061687E+03  0.12506167451E+03 0.  0.
          5    1    3    3  502    0 -0.79657954304E+02 -0.72165367847E+02 -0.20692183899E+03  0.23321095569E+03  0.41800000000E+01 0.  1.
         -5    1    3    3    0  502  0.13742169549E+02  0.21158155119E+02 -0.41621377181E+01  0.25909661178E+02  0.41800000000E+01 0.  1.
        -11    1    1    2    0    0  0.28819082634E+02  0.14516470457E+02 -0.13153561953E+02  0.34846572722E+02  0.00000000000E+00 0.  1.
         11    1    1    2    0    0  0.37096702120E+02  0.36490742271E+02 -0.23338001455E+03  0.23911079183E+03  0.00000000000E+00 0. -1.
</event>
<event>
 7    1  0.2412631E-010  0.1015578E+03  0.7561462E-02  0.1277054E+00
          2   -1    0    0  501    0  0.00000000000E+00  0.00000000000E+00  0.63432838178E+02  0.63432838178E+02  0.00000000000E+00 0. -1.
         -2   -1    0    0    0  501 -0.00000000000E+00 -0.00000000000E+00 -0.28054111935E+03  0.28054111935E+03  0.00000000000E+00 0.  1.
         25    2    1    2    0    0 -0.53503685430E+01 -0.77049876354E+02 -0.14345780199E+03  0.20542982762E+03  0.12512379164E+03 0.  0.
          5    1    3    3  502    0  0.29642687733E+02 -0.64162240290E+02 -0.16033127819E+02  0.72594873116E+02  0.41800000000E+01 0.  1.
         -5    1    3    3    0  502 -0.34993056276E+02 -0.12887636064E+02 -0.12742467417E+03  0.13283495450E+03  0.41800000000E+01 0.  1.
        -11    1    1    2    0    0  0.30165503099E+02  0.37936195754E+02 -0.78197830762E+02  0.92000072073E+02  0.00000000000E+00 0.  1.
         11    1    1    2    0    0 -0.24815134556E+02  0.39113680600E+02  0.45473515811E+01  0.46544057832E+02  0.00000000000E+00 0. -1.
</event>
<event>
 7    1  0.2412631E-010  0.1143610E+03  0.7561462E-02  0.1252701E+00
         -1   -1    0    0    0  501 -0.00000000000E+00  0.00000000000E+00  0.11757080824E+03  0.11757080824E+03  0.00000000000E+00 0.  1.
          1   -1    0    0  501    0  0.00000000000E+00 -0.00000000000E+00 -0.19396142411E+03  0.19396142411E+03  0.00000000000E+00 0. -1.
         25    2    1    2    0    0  0.85959549993E+02  0.64394854707E+02 -0.61086176516E+02  0.17580871019E+03  0.12506574299E+03 0.  0.
          5    1    3    3  502    0  0.48901200605E+02  0.64470633048E+02  0.22659097975E+02  0.84134993120E+02  0.41800000000E+01 0.  1.
         -5    1    3    3    0  502  0.37058349388E+02 -0.75778340769E-01 -0.83745274491E+02  0.91673717069E+02  0.41800000000E+01 0.  1.
        -11    1    1    2    0    0 -0.96398608601E+01 -0.19766597756E+02  0.29350732843E+02  0.36675752517E+02  0.00000000000E+00 0.  1.
         11    1    1    2    0    0 -0.76319689133E+02 -0.44628256951E+02 -0.44655172191E+02  0.99047769643E+02  0.00000000000E+00 0. -1.
</event>
<event>
 6    1  0.2412631E-010  0.1099899E+03  0.7561462E-02  0.1260589E+00
         -1   -1    0    0    0  501 -0.00000000000E+00  0.00000000000E+00  0.34654493602E+03  0.34654493602E+03  0.00000000000E+00 0.  1.
          1   -1    0    0  501    0  0.00000000000E+00 -0.00000000000E+00 -0.60260580462E+02  0.60260580462E+02  0.00000000000E+00 0. -1.
          5    1    1    2  502    0  0.97993856353E+02 -0.35379038135E+02  0.76615517209E+02  0.12939042507E+03  0.41800000000E+01 0.  1.
         -5    1    1    2    0  502 -0.80302259555E+01  0.11581714599E+02  0.12339039247E+03  0.12426295504E+03  0.41800000000E+01 0.  1.
        -11    1    1    2    0    0 -0.70281252472E+02  0.34839691350E+02  0.16963860450E+02  0.80256034687E+02  0.00000000000E+00 0. -1.
         11    1    1    2    0    0 -0.19682377925E+02 -0.11042367814E+02  0.69314585435E+02  0.72896101691E+02  0.00000000000E+00 0.  1.
</event>
<event>
 7    1  0.2412631E-010  0.4673508E+02  0.7561462E-02  0.1463792E+00
         -1   -1    0    0    0  501 -0.00000000000E+00  0.00000000000E+00  0.18399679883E+03  0.18399679883E+03  0.00000000000E+00 0.  1.
          1   -1    0    0  501    0  0.00000000000E+00 -0.00000000000E+00 -0.65505492330E+02  0.65505492330E+02  0.00000000000E+00 0. -1.
         25    2    1    2    0    0  0.18307279190E+02  0.13090048772E+02  0.74911585089E+02  0.14755852819E+03  0.12512101267E+03 0.  0.
          5    1    3    3  502    0  0.43635662003E+01  0.12591997299E+02 -0.34480084939E+02  0.37201448404E+02  0.41800000000E+01 0. -1.
         -5    1    3    3    0  502  0.13943712990E+02  0.49805147328E+00  0.10939167003E+03  0.11035707978E+03  0.41800000000E+01 0. -1.
        -11    1    1    2    0    0 -0.34417597509E+01  0.24382703991E+02 -0.16464448466E+02  0.29621614192E+02  0.00000000000E+00 0. -1.
         11    1    1    2    0    0 -0.14865519439E+02 -0.37472752763E+02  0.60044169880E+02  0.72322148781E+02  0.00000000000E+00 0.  1.
</event>
<event>
 6    1  0.2412631E-010  0.8209426E+02  0.7561462E-02  0.1323211E+00
          1   -1    0    0  501    0  0.00000000000E+00  0.00000000000E+00  0.21108961217E+03  0.21108961217E+03  0.00000000000E+00 0. -1.
         -1   -1    0    0    0  501 -0.00000000000E+00 -0.00000000000E+00 -0.75920561388E+02  0.75920561388E+02  0.00000000000E+00 0.  1.
          5    1    1    2  502    0 -0.25027826977E+01 -0.52825714765E+02 -0.19213345241E+02  0.56422026701E+02  0.41800000000E+01 0. -1.
         -5    1    1    2    0  502 -0.28417736392E+02 -0.44022308705E+01  0.10407799296E+03  0.10805854152E+03  0.41800000000E+01 0. -1.
        -11    1    1    2    0    0  0.13377778116E+02  0.62378186177E+02  0.70639599904E+02  0.95183801840E+02  0.00000000000E+00 0.  1.
         11    1    1    2    0    0  0.17542740974E+02 -0.51502405410E+01 -0.20335196835E+02  0.27345803496E+02  0.00000000000E+00 0. -1.
</event>
<event>
 7    1  0.2412631E-010  0.9673180E+02  0.7561462E-02  0.1287323E+00
          1   -1    0    0  501    0  0.00000000000E+00  0.00000000000E+00  0.13345128785E+04  0.13345128785E+04  0.00000000000E+00 0. -1.
         -1   -1    0    0    0  501 -0.00000000000E+00 -0.00000000000E+00 -0.13029867165E+02  0.13029867165E+02  0.00000000000E+00 0.  1.
         25    2    1    2    0    0  0.52130753524E+02 -0.50272844055E+02  0.92071725109E+03  0.93199048296E+03  0.12506410180E+03 0.  0.
          5    1    3    3  502    0  0.56036206016E+02 -0.19502256217E+02  0.87238014632E+03  0.87440550460E+03  0.41800000000E+01 0.  1.
         -5    1    3    3    0  502 -0.39054524926E+01 -0.30770587838E+02  0.48337104769E+02  0.57584978358E+02  0.41800000000E+01 0.  1.
        -11    1    1    2    0    0 -0.17241232776E+02  0.63176272154E+02  0.17721524374E+03  0.18892788065E+03  0.00000000000E+00 0.  1.
         11    1    1    2    0    0 -0.34889520748E+02 -0.12903428100E+02  0.22355051651E+03  0.22662438206E+03  0.00000000000E+00 0. -1.
</event>
<event>
 7    1  0.2412631E-010  0.1508490E+03  0.7561462E-02  0.1199434E+00
         -2   -1    0    0    0  501 -0.00000000000E+00  0.00000000000E+00  0.46624797565E+03  0.46624797565E+03  0.00000000000E+00 0.  1.
          2   -1    0    0  501    0  0.00000000000E+00 -0.00000000000E+00 -0.80231856103E+02  0.80231856103E+02  0.00000000000E+00 0. -1.
         25    2    1    2    0    0  0.10391868538E+03  0.12132427215E+02  0.35160677903E+02  0.16678293070E+03  0.12503592981E+03 0.  0.
          5    1    3    3  502    0  0.37835485599E+02  0.63654684018E+02 -0.38291298584E+01  0.74266933446E+02  0.41800000000E+01 0.  1.
         -5    1    3    3    0  502  0.66083199780E+02 -0.51522256803E+02  0.38989807761E+02  0.92515997257E+02  0.41800000000E+01 0.  1.
        -11    1    1    2    0    0 -0.60976792315E+02  0.42364151235E+02  0.20867714128E+03  0.22149275339E+03  0.00000000000E+00 0. -1.
         11    1    1    2    0    0 -0.42941893063E+02 -0.54496578450E+02  0.14217830036E+03  0.15820414766E+03  0.00000000000E+00 0.  1.
</event>
<event>
 7    1  0.2412631E-010  0.1120203E+03  0.7561462E-02  0.1256874E+00
          2   -1    0    0  501    0  0.00000000000E+00  0.00000000000E+00  0.27626622433E+03  0.27626622433E+03  0.00000000000E+00 0.  1.
         -2   -1    0    0    0  501 -0.00000000000E+00 -0.00000000000E+00 -0.59082821610E+02  0.59082821610E+02  0.00000000000E+00 0. -1.
         25    2    1    2    0    0 -0.22797781121E+02  0.43170283291E+02  0.18187237456E+03  0.22609185220E+03  0.12512614762E+03 0.  0.
          5    1    3    3  502    0 -0.28385565742E+02  0.81747903951E+02  0.15799328184E+03  0.18018826169E+03  0.41800000000E+01 0.  1.
         -5    1    3    3    0  502  0.55877846207E+01 -0.38577620660E+02  0.23879092718E+02  0.45903590511E+02  0.41800000000E+01 0.  1.
        -11    1    1    2    0    0  0.47179319168E+02  0.16163936706E+01 -0.43154288537E-01  0.47207020113E+02  0.00000000000E+00 0. -1.
         11    1    1    2    0    0 -0.24381538047E+02 -0.44786676962E+02  0.35354182448E+02  0.62050173629E+02  0.00000000000E+00 0.  1.
</event>
<event>
 6    1  0.2412631E-010  0.2757830E+03  0.7561462E-02  0.1098015E+00
          2   -1    0    0  501    0  0.00000000000E+00  0.00000000000E+00  0.73180578408E+02  0.73180578408E+02  0.00000000000E+00 0.  1.
         -2   -1    0    0    0  501 -0.00000000000E+00 -0.00000000000E+00 -0.12467699842E+04  0.12467699842E+04  0.00000000000E+00 0. -1.
          5    1    1    2  502    0 -0.96381467787E+02 -0.30076104539E+02 -0.36487416040E+03  0.37860874888E+03  0.41800000000E+01 0.  1.
         -5    1    1    2    0  502 -0.14972632211E+03  0.10330585843E+03 -0.48892453637E+03  0.52168452783E+03  0.41800000000E+01 0.  1.
        -11    1    1    2    0    0  0.13004731453E+03 -0.79339183788E+02 -0.14914122380E+03  0.21319032515E+03  0.00000000000E+00 0.  1.
         11    1    1    2    0    0  0.11606047537E+03  0.61094298970E+01 -0.17064948525E+03  0.20646696078E+03  0.00000000000E+00 0. -1.
</event>
<event>
 6    1  0.2412631E-010  0.1390167E+03  0.7561462E-02  0.1214658E+00
          2   -1    0    0  501    0  0.00000000000E+00  0.00000000000E+00  0.11317028012E+04  0.11317028012E+04  0.00000000000E+00 0. -1.
         -2   -1    0    0    0  501 -0.00000000000E+00 -0.00000000000E+00 -0.24896212579E+02  0.24896212579E+02  0.00000000000E+00 0.  1.
          5    1    1    2  502    0 -0.22159187041E+02  0.64506949337E+01  0.29966832817E+03  0.30058479726E+03  0.41800000000E+01 0.  1.
         -5    1    1    2    0  502  0.96252221590E+02  0.89957276251E+02  0.43469208542E+03  0.45423725435E+03  0.41800000000E+01 0.  1.
        -11    1    1    2    0    0 -0.27294492602E+02 -0.49382624453E+02  0.29248014866E+03  0.29787290962E+03  0.00000000000E+00 0. -1.
         11    1    1    2    0    0 -0.46798541947E+02 -0.47025346731E+02  0.79966026382E+02  0.10390405256E+03  0.00000000000E+00 0.  1.
</event>
<event>
 6    1  0.2412631E-010  0.2212049E+03  0.7561462E-02  0.1132988E+00
          3   -1    0    0  501    0  0.00000000000E+00  0.00000000000E+00  0.51489736352E+03  0.51489736352E+03  0.00000000000E+00 0. -1.
         -3   -1    0    0    0  501 -0.00000000000E+00 -0.00000000000E+00 -0.10390787256E+03  0.10390787256E+03  0.00000000000E+00 0.  1.
          5    1    1    2  502    0 -0.44179571320E+02  0.92335252316E+01  0.81966260017E+02  0.93664468671E+02  0.41800000000E+01 0. -1.
         -5    1    1    2    0  502 -0.10949518192E+03 -0.13835099388E+03  0.85624883779E+02  0.19616137615E+03  0.41800000000E+01 0. -1.
        -11    1    1    2    0    0  0.18135678300E+02  0.70724934957E+02  0.93394519080E+02  0.11854727094E+03  0.00000000000E+00 0. -1.
         11    1    1    2    0    0  0.13553907494E+03  0.58392533687E+02  0.15000382809E+03  0.21043212033E+03  0.00000000000E+00 0.  1.
</event>
<event>
 6    1  0.2412631E-010  0.1263852E+03  0.7561462E-02  0.1232920E+00
          2   -1    0    0  501    0  0.00000000000E+00  0.00000000000E+00  0.88416381531E+03  0.88416381531E+03  0.00000000000E+00 0. -1.
         -2   -1    0    0    0  501 -0.00000000000E+00 -0.00000000000E+00 -0.19163046616E+02  0.19163046616E+02  0.00000000000E+00 0.  1.
          5    1    1    2  502    0  0.27615674199E+02 -0.70956315943E+02  0.25947342356E+03  0.27044658284E+03  0.41800000000E+01 0. -1.
         -5    1    1    2    0  502 -0.62275040821E+02  0.13331291423E+02  0.14984116057E+03  0.16286727677E+03  0.41800000000E+01 0. -1.
        -11    1    1    2    0    0  0.64965197962E+02  0.48402113577E+02  0.36710326958E+03  0.37593623406E+03  0.00000000000E+00 0. -1.
         11    1    1    2    0    0 -0.30305831340E+02  0.92229109432E+01  0.88582914986E+02  0.94076768264E+02  0.00000000000E+00 0.  1.
</event>
<event>
 7    1  0.2412631E-010  0.1548279E+03  0.7561462E-02  0.1194663E+00
          1   -1    0    0  501    0  0.00000000000E+00  0.00000000000E+00  0.45190668282E+03  0.45190668282E+03  0.00000000000E+00 0. -1.
         -1   -1    0    0    0  501 -0.00000000000E+00 -0.00000000000E+00 -0.67103811331E+02  0.67103811331E+02  0.00000000000E+00 0.  1.
         25    2    1    2    0    0 -0.62801093808E+02 -0.91471267772E+02  0.32084950384E+03  0.36182157165E+03  0.12513782556E+03 0.  0.
          5    1    3    3  502    0  0.15889491218E+02 -0.86754810389E+02  0.16811601465E+03  0.18989296943E+03  0.41800000000E+01 0.  1.
         -5    1    3    3    0  502 -0.78690585026E+02 -0.47164573832E+01  0.15273348919E+03  0.17192860222E+03  0.41800000000E+01 0.  1.
        -11    1    1    2    0    0 -0.12312661121E+02  0.59535764367E+02  0.17451631521E+02  0.63250836400E+02  0.00000000000E+00 0.  1.
         11    1    1    2    0    0  0.75113754928E+02  0.31935503406E+02  0.46501736128E+02  0.93938086100E+02  0.00000000000E+00 0. -1.
</event>
<event>
 6    1  0.2412631E-010  0.1226213E+03  0.7561462E-02  0.1238834E+00
         -2   -1    0    0    0  501 -0.00000000000E+00  0.00000000000E+00  0.95343284572E+02  0.95343284572E+02  0.00000000000E+00 0.  1.
          2   -1    0    0  501    0  0.00000000000E+00 -0.00000000000E+00 -0.34809704995E+03  0.34809704995E+03  0.00000000000E+00 0. -1.
          5    1    1    2  502    0 -0.55580470752E+00  0.12108539041E+02  0.81319228559E+01  0.15183089472E+02  0.41800000000E+01 0.  1.
         -5    1    1    2    0  502 -0.47040640830E+02 -0.10960656909E+03 -0.26113989522E+03  0.28712007793E+03  0.41800000000E+01 0.  1.
        -11    1    1    2    0    0 -0.25308246213E+01  0.23853469280E+02 -0.37391152405E+02  0.44423995185E+02  0.00000000000E+00 0. -1.
         11    1    1    2    0    0  0.50127270159E+02  0.73644560764E+02  0.37645359383E+02  0.96713171941E+02  0.00000000000E+00 0.  1.
</event>
<event>
 6    1  0.2412631E-010  0.2358798E+03  0.7561462E-02  0.1122568E+00
          2   -1    0    0  501    0  0.00000000000E+00  0.00000000000E+00  0.19352121002E+04  0.19352121002E+04  0.00000000000E+00 0. -1.
         -2   -1    0    0    0  501 -0.00000000000E+00 -0.00000000000E+00 -0.32830254146E+02  0.32830254146E+02  0.00000000000E+00 0.  1.
          5    1    1    2  502    0 -0.34969863572E+02  0.70773438513E+02  0.13437841789E+03  0.15590639035E+03  0.41800000000E+01 0. -1.
         -5    1    1    2    0  502  0.63978147772E+02  0.14419521737E+03  0.58091984060E+03  0.60197242271E+03  0.41800000000E+01 0. -1.
        -11    1    1    2    0    0 -0.61685673424E+02 -0.13096616023E+03  0.76185344646E+03  0.77548560999E+03  0.00000000000E+00 0.  1.
         11    1    1    2    0    0  0.32677389224E+02 -0.84002495654E+02  0.42523014111E+03  0.43467793129E+03  0.00000000000E+00 0. -1.
</event>
<event>
 7    1  0.2412631E-010  0.1455370E+03  0.7561462E-02  0.1206067E+00
         -2   -1    0    0    0  501 -0.00000000000E+00  0.00000000000E+00  0.28751973392E+02  0.28751973392E+02  0.00000000000E+00 0.  1.
          2   -1    0    0  501    0  0.00000000000E+00 -0.00000000000E+00 -0.77524689180E+03  0.77524689180E+03  0.00000000000E+00 0. -1.
         25    2    1    2    0    0 -0.99715210927E+02 -0.11660454979E+02 -0.34854309550E+03  0.38365834566E+03  0.12502938564E+03 0.  0.
          5    1    3    3  502    0 -0.12958302895E+03 -0.72173068705E+01 -0.28412114399E+03  0.31238781630E+03  0.41800000000E+01 0. -1.
         -5    1    3    3    0  502  0.29867818027E+02 -0.44431481085E+01 -0.64421951515E+02  0.71270529364E+02  0.41800000000E+01 0. -1.
        -11    1    1    2    0    0  0.80932932506E+02  0.44904354130E+02 -0.22635279679E+03  0.24454473864E+03  0.00000000000E+00 0.  1.
         11    1    1    2    0    0  0.18782278421E+02 -0.33243899151E+02 -0.17159902612E+03  0.17579578089E+03  0.00000000000E+00 0. -1.
</event>
<event>
 6    1  0.2412631E-010  0.1421372E+03  0.7561462E-02  0.1210482E+00
         -1   -1    0    0    0  501 -0.00000000000E+00  0.00000000000E+00  0.70274309078E+02  0.70274309078E+02  0.00000000000E+00 0.  1.
          1   -1    0    0  501    0  0.00000000000E+00 -0.00000000000E+00 -0.40351395137E+03  0.40351395137E+03  0.00000000000E+00 0. -1.
          5    1    1    2  502    0 -0.38563933354E+02 -0.10678707479E+02  0.67741567337E+01  0.40799183186E+02  0.41800000000E+01 0. -1.
         -5    1    1    2    0  502 -0.50154188162E+02 -0.79954274894E+02 -0.20517585621E+03  0.22588212199E+03  0.41800000000E+01 0. -1.
        -11    1    1    2    0    0  0.64765842411E+02  0.10371359687E+03 -0.13157821154E+03  0.17962168653E+03  0.00000000000E+00 0. -1.
         11    1    1    2    0    0  0.23952279106E+02 -0.13080614497E+02 -0.32597312788E+01  0.27485268745E+02  0.00000000000E+00 0.  1.
</event>
<event>
 6    1  0.2412631E-010  0.1006129E+03  0.7561462E-02  0.1279012E+00
         -4   -1    0    0    0  501 -0.00000000000E+00  0.00000000000E+00  0.41445307927E+02  0.41445307927E+02  0.00000000000E+00 0.  1.
          4   -1    0    0  501    0  0.00000000000E+00 -0.00000000000E+00 -0.32411850842E+03  0.32411850842E+03  0.00000000000E+00 0. -1.
          5    1    1    2  502    0 -0.12175058817E+02  0.72008260848E+02 -0.16533357405E+03  0.18079293348E+03  0.41800000000E+01 0. -1.
         -5    1    1    2    0  502 -0.90207015722E+01 -0.39869533317E+02 -0.19375790033E+02  0.45429576084E+02  0.41800000000E+01 0. -1.
        -11    1    1    2    0    0  0.40743698525E+02 -0.47167381826E+02 -0.96192746060E+02  0.11462048365E+03  0.00000000000E+00 0. -1.
         11    1    1    2    0    0 -0.19547938135E+02  0.15028654295E+02 -0.17710903463E+01  0.24720823131E+02  0.00000000000E+00 0.  1.
</event>
<event>
 6    1  0.2412631E-010  0.1194142E+03  0.7561462E-02  0.1244067E+00
          1   -1    0    0  501    0  0.00000000000E+00  0.00000000000E+00  0.63028394424E+02  0.63028394424E+02  0.00000000000E+00 0. -1.
         -1   -1    0    0    0  501 -0.00000000000E+00 -0.00000000000E+00 -0.27529054566E+03  0.27529054566E+03  0.00000000000E+00 0.  1.
          5    1    1    2  502    0 -0.12783817981E+02  0.37177726297E+02 -0.20339539375E+02  0.44460978361E+02  0.41800000000E+01 0.  1.
         -5    1    1    2    0  502  0.59569435025E+02 -0.67819982480E+02 -0.13873937752E+03  0.16557220445E+03  0.41800000000E+01 0.  1.
        -11    1    1    2    0    0 -0.40950323292E+02  0.63499020138E+02 -0.57070123332E+02  0.94689247084E+02  0.00000000000E+00 0.  1.
         11    1    1    2    0    0 -0.58352937518E+01 -0.32856763955E+02  0.38868889886E+01  0.33596510188E+02  0.00000000000E+00 0. -1.
</event>
<event>
 6    1  0.2412631E-010  0.1016753E+03  0.7561462E-02  0.1276812E+00
         -2   -1    0    0    0  501 -0.00000000000E+00  0.00000000000E+00  0.33322503188E+02  0.33322503188E+02  0.00000000000E+00 0.  1.
          2   -1    0    0  501    0  0.00000000000E+00 -0.00000000000E+00 -0.43870028416E+03  0.43870028416E+03  0.00000000000E+00 0. -1.
          5    1    1    2  502    0  0.32455453427E+02 -0.34908698316E+02 -0.37245794377E+02  0.60635759038E+02  0.41800000000E+01 0.  1.
         -5    1    1    2    0  502 -0.69180448341E+02  0.44350027744E+01 -0.20183693524E+03  0.21345075430E+03  0.41800000000E+01 0.  1.
        -11    1    1    2    0    0 -0.17160964929E+02  0.27081990650E+02 -0.11609658899E+02  0.34098638017E+02  0.00000000000E+00 0.  1.
         11    1    1    2    0    0  0.53885959843E+02  0.33917048924E+01 -0.15468539245E+03  0.16383763600E+03  0.00000000000E+00 0. -1.
</event>
<event>
 7    1  0.2412631E-010  0.1160310E+03  0.7561462E-02  0.1249792E+00
         -4   -1    0    0    0  501 -0.00000000000E+00  0.00000000000E+00  0.15166357537E+03  0.15166357537E+03  0.00000000000E+00 0.  1.
          4   -1    0    0  501    0  0.00000000000E+00 -0.00000000000E+00 -0.99549916592E+02  0.99549916592E+02  0.00000000000E+00 0. -1.
         25    2    1    2    0    0  0.10136105854E+02  0.55026451246E+02  0.40798699644E+02  0.14302917540E+03  0.12514855230E+03 0.  0.
          5    1    3    3  502    0 -0.57045871893E+02  0.26283722358E+02  0.27251015715E+02  0.68594138368E+02  0.41800000000E+01 0. -1.
         -5    1    3    3    0  502  0.67181977747E+02  0.28742728888E+02  0.13547683930E+02  0.74435037031E+02  0.41800000000E+01 0. -1.
        -11    1    1    2    0    0 -0.16004650719E+02 -0.74181167704E+02  0.29216445904E+02  0.81317865182E+02  0.00000000000E+00 0.  1.
         11    1    1    2    0    0  0.58685448649E+01  0.19154716458E+02 -0.17901486768E+02  0.26866451383E+02  0.00000000000E+00 0. -1.
</event>
<event>
 6    1  0.2412631E-010  0.9421822E+02  0.7561462E-02  0.1292947E+00
          1   -1    0    0  501    0  0.00000000000E+00  0.00000000000E+00  0.16232655454E+03  0.16232655454E+03  0.00000000000E+00 0. -1.
         -1   -1    0    0    0  501 -0.00000000000E+00 -0.00000000000E+00 -0.89061475147E+02  0.89061475147E+02  0.00000000000E+00 0.  1.
          5    1    1    2  502    0  0.55530512186E+02  0.49637541187E+02 -0.22825009985E+02  0.78012670507E+02  0.41800000000E+01 0.  1.
         -5    1    1    2    0  502 -0.34594078456E+02 -0.18502450459E+02  0.36051017402E+02  0.53443794709E+02  0.41800000000E+01 0.  1.
        -11    1    1    2    0    0 -0.13624833333E+02 -0.51224568923E+02 -0.32738764119E+01  0.53106598568E+02  0.00000000000E+00 0.  1.
         11    1    1    2    0    0 -0.73116003972E+01  0.20089478195E+02  0.63312948387E+02  0.66824965903E+02  0.00000000000E+00 0. -1.
</event>
<event>
 7    1  0.2412631E-010  0.7041990E+02  0.7561462E-02  0.1358671E+00
          2   -1    0    0  501    0  0.00000000000E+00  0.00000000000E+00  0.31071783669E+02  0.31071783669E+02  0.00000000000E+00 0. -1.
         -2   -1    0    0    0  501 -0.00000000000E+00 -0.00000000000E+00 -0.38112740509E+03  0.38112740509E+03  0.00000000000E+00 0.  1.
         25    2    1    2    0    0 -0.10059811286E+02  0.49984227779E+01 -0.21691153237E+03  0.25063730601E+03  0.12506902997E+03 0.  0.
          5    1    3    3  502    0  0.30100843582E+02 -0.24754947074E+02 -0.18943663360E+03  0.19344916319E+03  0.41800000000E+01 0. -1.
         -5    1    3    3    0  502 -0.40160654868E+02  0.29753369852E+02 -0.27474898767E+02  0.57188142820E+02  0.41800000000E+01 0. -1.
        -11    1    1    2    0    0 -0.11018935773E+02 -0.21869565235E+02  0.12132127614E+01  0.24518701318E+02  0.00000000000E+00 0. -1.
         11    1    1    2    0    0  0.21078747059E+02  0.16871142457E+02 -0.13435730181E+03  0.13704318143E+03  0.00000000000E+00 0.  1.
</event>
<event>
 6    1  0.2412631E-010  0.1102385E+03  0.7561462E-02  0.1260129E+00
          2   -1    0    0  501    0  0.00000000000E+00  0.00000000000E+00  0.54380317182E+03  0.54380317182E+03  0.00000000000E+00 0. -1.
         -2   -1    0    0    0  501 -0.00000000000E+00 -0.00000000000E+00 -0.35768639387E+02  0.35768639387E+02  0.00000000000E+00 0.  1.
          5    1    1    2  502    0  0.45749595835E+02  0.14420275216E+02  0.11049834574E+03  0.12053350848E+03  0.41800000000E+01 0. -1.
         -5    1    1    2    0  502 -0.41603166045E+02 -0.79822654768E+02  0.29491633455E+03  0.30837573903E+03  0.41800000000E+01 0. -1.
        -11    1    1    2    0    0 -0.26982996276E+02  0.35343584713E+02  0.35073174212E+01  0.44604398257E+02  0.00000000000E+00 0.  1.
         11    1    1    2    0    0  0.22836566487E+02  0.30058794839E+02  0.99112534720E+02  0.10605816543E+03  0.00000000000E+00 0. -1.
</event>
<event>
 7    1  0.2412631E-010  0.8313382E+02  0.7561462E-02  0.1320386E+00
         -1   -1    0    0    0  501 -0.00000000000E+00  0.00000000000E+00  0.10117003204E+03  0.10117003204E+03  0.00000000000E+00 0.  1.
          1   -1    0    0  501    0  0.00000000000E+00 -0.00000000000E+00 -0.18416668775E+03  0.18416668775E+03  0.00000000000E+00 0. -1.
         25    2    1    2    0    0 -0.62616255516E+02  0.27181160725E+02  0.29135330157E+01  0.14256677940E+03  0.12512868161E+03 0.  0.
          5    1    3    3  502    0 -0.61155343603E+02  0.44122692473E+02 -0.47484466679E+02  0.89213423979E+02  0.41800000000E+01 0. -1.
         -5    1    3    3    0  502 -0.14609119130E+01 -0.16941531748E+02  0.50397999695E+02  0.53353355423E+02  0.41800000000E+01 0. -1.
        -11    1    1    2    0    0  0.41255863637E+02 -0.30905266161E+02  0.26286034259E+01  0.51614836209E+02  0.00000000000E+00 0.  1.
         11    1    1    2    0    0  0.21360391880E+02  0.37241054356E+01 -0.88538792148E+02  0.91155104177E+02  0.00000000000E+00 0. -1.
</event>
<event>
 7    1  0.2412631E-010  0.1045969E+03  0.7561462E-02  0.1270916E+00
          2   -1    0    0  501    0  0.00000000000E+00  0.00000000000E+00  0.13683380355E+03  0.13683380355E+03  0.00000000000E+00 0.  1.
         -2   -1    0    0    0  501 -0.00000000000E+00 -0.00000000000E+00 -0.11031852833E+03  0.11031852833E+03  0.00000000000E+00 0. -1.
         25    2    1    2    0    0  0.26244350462E+02  0.33484102313E+02 -0.26809776041E+02  0.13477438061E+03  0.12504166721E+03 0.  0.
          5    1    3    3  502    0  0.72906739201E+02  0.42268574643E+02 -0.18684704578E+02  0.86421152552E+02  0.41800000000E+01 0. -1.
         -5    1    3    3    0  502 -0.46662388739E+02 -0.87844723304E+01 -0.81250714638E+01  0.48353228054E+02  0.41800000000E+01 0. -1.
        -11    1    1    2    0    0  0.11363715737E+02 -0.37636325458E+02 -0.81896300903E+01  0.40158399748E+02  0.00000000000E+00 0. -1.
         11    1    1    2    0    0 -0.37608066199E+02  0.41522231446E+01  0.61514681357E+02  0.72219551527E+02  0.00000000000E+00 0.  1.
</event>
<event>
 7    1  0.2412631E-010  0.1200173E+03  0.7561462E-02  0.1243069E+00
         -1   -1    0    0    0  501 -0.00000000000E+00  0.00000000000E+00  0.10857985790E+02  0.10857985790E+02  0.00000000000E+00 0.  1.
          1   -1    0    0  501    0  0.00000000000E+00 -0.00000000000E+00 -0.14236407894E+04  0.14236407894E+04  0.00000000000E+00 0. -1.
         25    2    1    2    0    0 -0.30347672808E+02 -0.46799030251E+02 -0.92945753368E+03  0.93950104532E+03  0.12513902980E+03 0.  0.
          5    1    3    3  502    0 -0.30937528923E+02  0.37508042831E+02 -0.24126598870E+03  0.24615185085E+03  0.41800000000E+01 0. -1.
         -5    1    3    3    0  502  0.58985611563E+00 -0.84307073082E+02 -0.68819154498E+03  0.69334919448E+03  0.41800000000E+01 0. -1.
        -11    1    1    2    0    0  0.37926296067E+02  0.71526177748E+02 -0.36040881100E+03  0.36938991470E+03  0.00000000000E+00 0. -1.
         11    1    1    2    0    0 -0.75786232596E+01 -0.24727147498E+02 -0.12291645894E+03  0.12560781518E+03  0.00000000000E+00 0.  1.
</event>
<event>
 7    1  0.2412631E-010  0.1066171E+03  0.7561462E-02  0.1266966E+00
          1   -1    0    0  501    0  0.00000000000E+00  0.00000000000E+00  0.87692175586E+02  0.87692175586E+02  0.00000000000E+00 0. -1.
         -1   -1    0    0    0  501 -0.00000000000E+00 -0.00000000000E+00 -0.17355113933E+03  0.17355113933E+03  0.00000000000E+00 0.  1.
         25    2    1    2    0    0  0.23373378689E+02 -0.52954380458E+02 -0.77050205744E+02  0.15793112155E+03  0.12512003720E+03 0.  0.
          5    1    3    3  502    0 -0.40115360654E+02  0.13927315362E+02 -0.99649107667E+01  0.43817623397E+02  0.41800000000E+01 0.  1.
         -5    1    3    3    0  502  0.63488739343E+02 -0.66881695820E+02 -0.67085294978E+02  0.11411349816E+03  0.41800000000E+01 0.  1.
        -11    1    1    2    0    0  0.76342814909E+01  0.45798257999E+02 -0.38099722602E+02  0.60061231689E+02  0.00000000000E+00 0.  1.
         11    1    1    2    0    0 -0.31007660180E+02  0.71561224590E+01  0.29290964602E+02  0.43250961675E+02  0.00000000000E+00 0. -1.
</event>
<event>
 7    1  0.2412631E-010  0.1579449E+03  0.7561462E-02  0.1191037E+00
          1   -1    0    0  501    0  0.00000000000E+00  0.00000000000E+00  0.11468734724E+03  0.11468734724E+03  0.00000000000E+00 0. -1.
         -1   -1    0    0    0  501 -0.00000000000E+00 -0.00000000000E+00 -0.25384008654E+03  0.25384008654E+03  0.00000000000E+00 0.  1.
         25    2    1    2    0    0  0.81417165578E+02 -0.94132881591E+02 -0.11472809165E+03  0.21049254276E+03  0.12511922833E+03 0.  0.
          5    1    3    3  502    0  0.73724070152E+02 -0.12101520104E+03 -0.71333329742E+02  0.15870045285E+03  0.41800000000E+01 0.  1.
         -5    1    3    3    0  502  0.76930954262E+01  0.26882319450E+02 -0.43394761909E+02  0.51792089912E+02  0.41800000000E+01 0.  1.
        -11    1    1    2    0    0 -0.35282418467E+02  0.93258195901E+02  0.10364893446E+02  0.10024655192E+03  0.00000000000E+00 0.  1.
         11    1    1    2    0    0 -0.46134747111E+02  0.87468568949E+00 -0.34789541100E+02  0.57788339100E+02  0.00000000000E+00 0. -1.
</event>
<event>
 7    1  0.2412631E-010  0.4482910E+03  0.7561462E-02  0.1028233E+00
          1   -1    0    0  501    0  0.00000000000E+00  0.00000000000E+00  0.61035530939E+03  0.61035530939E+03  0.00000000000E+00 0. -1.
         -1   -1    0    0    0  501 -0.00000000000E+00 -0.00000000000E+00 -0.34141170392E+03  0.34141170392E+03  0.00000000000E+00 0.  1.
         25    2    1    2    0    0 -0.16308178313E+03 -0.40882965468E+03  0.80166009835E+02  0.46456340499E+03  0.12512079599E+03 0.  0.
          5    1    3    3  502    0 -0.69295846108E+02 -0.31657329396E+03  0.37811022568E+02  0.32629390212E+03  0.41800000000E+01 0.  1.
         -5    1    3    3    0  502 -0.93785937022E+02 -0.92256360725E+02  0.42354987267E+02  0.13826950287E+03  0.41800000000E+01 0.  1.
        -11    1    1    2    0    0  0.54953554262E+02  0.10770824686E+03  0.95072576055E+02  0.15381727564E+03  0.00000000000E+00 0. -1.
         11    1    1    2    0    0  0.10812822887E+03  0.30112140782E+03  0.93705019579E+02  0.33338633268E+03  0.00000000000E+00 0.  1.
</event>
