<event>
 7    1  0.1758121E-005  0.2572789E+03  0.7561462E-02  0.1108789E+00
         -2   -1    0    0    0  501 -0.00000000000E+00  0.00000000000E+00  0.10438812152E+03  0.10438812152E+03  0.00000000000E+00 0.  1.
          2   -1    0    0  501    0  0.00000000000E+00 -0.00000000000E+00 -0.91634090033E+03  0.91634090033E+03  0.00000000000E+00 0. -1.
         23    2    1    2    0    0 -0.68687116325E+02  0.23818227160E+03 -0.64534513145E+03  0.69691226311E+03  0.88134268832E+02 0.  0.
          5    1    1    2  502    0  0.86334460085E+02 -0.12658016681E+03 -0.49589412434E+02  0.16109860289E+03  0.41800000000E+01 0. -1.
         -5    1    1    2    0  502 -0.17647343760E+02 -0.11160210479E+03 -0.11701823493E+03  0.16271815584E+03  0.41800000000E+01 0. -1.
        -11    1    3    3    0    0 -0.44668380300E+02  0.13209106596E+03 -0.24343436995E+03  0.28054163038E+03  0.00000000000E+00 0. -1.
         11    1    3    3    0    0 -0.24018736025E+02  0.10609120564E+03 -0.40191076149E+03  0.41637063273E+03  0.00000000000E+00 0.  1.
</event>
<event>
 7    1  0.1758121E-005  0.1433524E+03  0.7561462E-02  0.1208888E+00
          1   -1    0    0  501    0  0.00000000000E+00  0.00000000000E+00  0.64917500401E+03  0.64917500401E+03  0.00000000000E+00 0. -1.
         -1   -1    0    0    0  501 -0.00000000000E+00 -0.00000000000E+00 -0.53444065475E+02  0.53444065475E+02  0.00000000000E+00 0.  1.
         23    2    1    2    0    0  0.73964536131E+02 -0.91505511479E+02  0.45877960207E+03  0.48296323584E+03  0.94502659533E+02 0.  0.
          5    1    1    2  502    0  0.22028075636E+02 -0.13216402108E+02  0.66984076587E+01  0.26874717972E+02  0.41800000000E+01 0.  1.
         -5    1    1    2    0  502 -0.95992611767E+02  0.10472191359E+03  0.13025292881E+03  0.19278111568E+03  0.41800000000E+01 0.  1.
        -11    1    3    3    0    0  0.47151767282E+02 -0.68878330795E+02  0.42869669492E+03  0.43674748980E+03  0.00000000000E+00 0.  1.
         11    1    3    3    0    0  0.26812768849E+02 -0.22627180684E+02  0.30082907144E+02  0.46215746032E+02  0.00000000000E+00 0. -1.
</event>
<event>
 7    1  0.1758121E-005  0.8886615E+02  0.7561462E-02  0.1305621E+00
          2   -1    0    0  501    0  0.00000000000E+00  0.00000000000E+00  0.20573120485E+02  0.20573120485E+02  0.00000000000E+00 0. -1.
         -2   -1    0    0    0  501 -0.00000000000E+00 -0.00000000000E+00 -0.10527411161E+04  0.10527411161E+04  0.00000000000E+00 0.  1.
         23    2    1    2    0    0  0.42670563844E+01  0.55375471484E+02 -0.17338415690E+03  0.20369257086E+03  0.91345207592E+02 0.  0.
          5    1    1    2  502    0 -0.48278959453E+02 -0.53040863584E+02 -0.72823569439E+03  0.73177106400E+03  0.41800000000E+01 0. -1.
         -5    1    1    2    0  502  0.44011903068E+02 -0.23346079009E+01 -0.13054814437E+03  0.13785060175E+03  0.41800000000E+01 0. -1.
        -11    1    3    3    0    0  0.15415440856E+02  0.37554198446E+02 -0.17766181479E+03  0.18224070367E+03  0.00000000000E+00 0.  1.
         11    1    3    3    0    0 -0.11148384471E+02  0.17821273038E+02  0.42776578986E+01  0.21451867194E+02  0.00000000000E+00 0. -1.
</event>
<event>
 7    1  0.1758121E-005  0.9781315E+02  0.7561462E-02  0.1284963E+00
         -1   -1    0    0    0  501 -0.00000000000E+00  0.00000000000E+00  0.22943575487E+02  0.22943575487E+02  0.00000000000E+00 0.  1.
          1   -1    0    0  501    0  0.00000000000E+00 -0.00000000000E+00 -0.59859769421E+03  0.59859769421E+03  0.00000000000E+00 0. -1.
         23    2    1    2    0    0 -0.41639700753E+02  0.15608625803E+02 -0.25567791956E+03  0.27511724705E+03  0.91328019775E+02 0.  0.
          5    1    1    2  502    0  0.86221439812E+02 -0.36041803136E+01 -0.20917852022E+03  0.22631891772E+03  0.41800000000E+01 0.  1.
         -5    1    1    2    0  502 -0.44581739059E+02 -0.12004445489E+02 -0.11079767894E+03  0.12010510492E+03  0.41800000000E+01 0.  1.
        -11    1    3    3    0    0 -0.12665874403E+02 -0.15726237202E+02 -0.49597548513E+01  0.20792741020E+02  0.00000000000E+00 0.  1.
         11    1    3    3    0    0 -0.28973826350E+02  0.31334863005E+02 -0.25071816471E+03  0.25432450603E+03  0.00000000000E+00 0. -1.
</event>
<event>
 7    1  0.1758121E-005  0.5811352E+02  0.7561462E-02  0.1405923E+00
         -1   -1    0    0    0  501 -0.00000000000E+00  0.00000000000E+00  0.29007761663E+03  0.29007761663E+03  0.00000000000E+00 0.  1.
          1   -1    0    0  501    0  0.00000000000E+00 -0.00000000000E+00 -0.13236115224E+03  0.13236115224E+03  0.00000000000E+00 0. -1.
         23    2    1    2    0    0 -0.28041211272E+02 -0.33322231217E+02 -0.93206651530E+02  0.13870229923E+03  0.93027777038E+02 0.  0.
          5    1    1    2  502    0 -0.45688077020E+01 -0.55031663849E+01  0.22763278096E+03  0.22778348099E+03  0.41800000000E+01 0. -1.
         -5    1    1    2    0  502  0.32610018974E+02  0.38825397601E+02  0.23290334957E+02  0.55952988649E+02  0.41800000000E+01 0. -1.
        -11    1    3    3    0    0 -0.33169363722E+02 -0.12216544420E+02 -0.10719178970E+03  0.11286952833E+03  0.00000000000E+00 0. -1.
         11    1    3    3    0    0  0.51281524502E+01 -0.21105686797E+02  0.13985138171E+02  0.25832770900E+02  0.00000000000E+00 0.  1.
</event>
<event>
 7    1  0.1758121E-005  0.1129557E+03  0.7561462E-02  0.1255192E+00
         -2   -1    0    0    0  501 -0.00000000000E+00  0.00000000000E+00  0.45780320464E+02  0.45780320464E+02  0.00000000000E+00 0.  1.
          2   -1    0    0  501    0  0.00000000000E+00 -0.00000000000E+00 -0.51828909092E+03  0.51828909092E+03  0.00000000000E+00 0. -1.
         23    2    1    2    0    0  0.10679907062E+03 -0.17711051238E+01 -0.26041560118E+03  0.29566660657E+03  0.90516731055E+02 0.  0.
          5    1    1    2  502    0 -0.10329157414E+03 -0.12203373764E+02 -0.22544713239E+03  0.24831825048E+03  0.41800000000E+01 0. -1.
         -5    1    1    2    0  502 -0.35074964811E+01  0.13974478888E+02  0.13353963117E+02  0.20084554331E+02  0.41800000000E+01 0. -1.
        -11    1    3    3    0    0  0.41785264222E+02 -0.39816113659E+00 -0.20796514977E+03  0.21212182905E+03  0.00000000000E+00 0. -1.
         11    1    3    3    0    0  0.65013806401E+02 -0.13729439873E+01 -0.52450451411E+02  0.83544777522E+02  0.00000000000E+00 0.  1.
</event>
<event>
 7    1  0.1758121E-005  0.1299669E+03  0.7561462E-02  0.1227505E+00
         -3   -1    0    0    0  501 -0.00000000000E+00  0.00000000000E+00  0.27966142672E+03  0.27966142672E+03  0.00000000000E+00 0.  1.
          3   -1    0    0  501    0  0.00000000000E+00 -0.00000000000E+00 -0.11397564475E+03  0.11397564475E+03  0.00000000000E+00 0. -1.
         23    2    1    2    0    0 -0.10691151527E+03 -0.58613610541E+02 -0.82999918476E+00  0.15230436570E+03  0.91270496189E+02 0.  0.
          5    1    1    2  502    0  0.73325326300E+02  0.13703624838E+02  0.10443511056E+02  0.75438267039E+02  0.41800000000E+01 0.  1.
         -5    1    1    2    0  502  0.33586188973E+02  0.44909985704E+02  0.15607227010E+03  0.16589443873E+03  0.41800000000E+01 0.  1.
        -11    1    3    3    0    0 -0.48154390986E+02 -0.50317179935E+02 -0.40838444685E+02  0.80736872197E+02  0.00000000000E+00 0. -1.
         11    1    3    3    0    0 -0.58757124286E+02 -0.82964306069E+01  0.40008445501E+02  0.71567493505E+02  0.00000000000E+00 0.  1.
</event>
<event>
 7    1  0.1758121E-005  0.2590912E+03  0.7561462E-02  0.1107690E+00
         -1   -1    0    0    0  501 -0.00000000000E+00  0.00000000000E+00  0.21791022553E+03  0.21791022553E+03  0.00000000000E+00 0.  1.
          1   -1    0    0  501    0  0.00000000000E+00 -0.00000000000E+00 -0.34047654109E+03  0.34047654109E+03  0.00000000000E+00 0. -1.
         23    2    1    2    0    0 -0.20654629192E+03  0.12167743803E+03 -0.14050138542E+03  0.28739587522E+03  0.73409673458E+02 0.  0.
          5    1    1    2  502    0 -0.90146471667E+00 -0.50884953198E+02  0.53211526983E+00  0.51067079878E+02  0.41800000000E+01 0.  1.
         -5    1    1    2    0  502  0.20744775664E+03 -0.70792484836E+02  0.17402954593E+02  0.21992381152E+03  0.41800000000E+01 0.  1.
        -11    1    3    3    0    0 -0.64769324203E+02  0.62669840615E+01 -0.56627518797E+02  0.86261325819E+02  0.00000000000E+00 0.  1.
         11    1    3    3    0    0 -0.14177696772E+03  0.11541045397E+03 -0.83873866620E+02  0.20113454941E+03  0.00000000000E+00 0. -1.
</event>
<event>
 7    1  0.1758121E-005  0.9626957E+02  0.7561462E-02  0.1288342E+00
          3   -1    0    0  501    0  0.00000000000E+00  0.00000000000E+00  0.56709592776E+03  0.56709592776E+03  0.00000000000E+00 0.  1.
         -3   -1    0    0    0  501 -0.00000000000E+00 -0.00000000000E+00 -0.21895070422E+02  0.21895070422E+02  0.00000000000E+00 0. -1.
         23    2    1    2    0    0 -0.68954099652E+01 -0.22480476968E+02  0.25585172738E+03  0.27288476073E+03  0.91940566208E+02 0.  0.
          5    1    1    2  502    0 -0.19948362380E+02 -0.34958552092E+02  0.21284151750E+03  0.21665415181E+03  0.41800000000E+01 0.  1.
         -5    1    1    2    0  502  0.26843772345E+02  0.57439029060E+02  0.76507612458E+02  0.99452085635E+02  0.41800000000E+01 0.  1.
        -11    1    3    3    0    0 -0.99387643090E+01 -0.54990313027E+02  0.10949949228E+03  0.12293434171E+03  0.00000000000E+00 0. -1.
         11    1    3    3    0    0  0.30433543438E+01  0.32509836059E+02  0.14635223509E+03  0.14995041902E+03  0.00000000000E+00 0.  1.
</event>
<event>
 7    1  0.1758121E-005  0.1363891E+03  0.7561462E-02  0.1218272E+00
         -2   -1    0    0    0  501 -0.00000000000E+00  0.00000000000E+00  0.19220841381E+02  0.19220841381E+02  0.00000000000E+00 0.  1.
          2   -1    0    0  501    0  0.00000000000E+00 -0.00000000000E+00 -0.10825314728E+04  0.10825314728E+04  0.00000000000E+00 0. -1.
         23    2    1    2    0    0 -0.72448187389E+02 -0.50332541912E+02 -0.64521492673E+03  0.65651759016E+03  0.83252266522E+02 0.  0.
          5    1    1    2  502    0 -0.26110604212E+02  0.45616719317E+02 -0.17727019056E+03  0.18494550980E+03  0.41800000000E+01 0. -1.
         -5    1    1    2    0  502  0.98558791601E+02  0.47158225948E+01 -0.24082551410E+03  0.26028921419E+03  0.41800000000E+01 0. -1.
        -11    1    3    3    0    0 -0.41404532787E+02  0.18827069167E+02 -0.23881290599E+03  0.24310573406E+03  0.00000000000E+00 0.  1.
         11    1    3    3    0    0 -0.31043654601E+02 -0.69159611079E+02 -0.40640202075E+03  0.41341185610E+03  0.00000000000E+00 0. -1.
</event>
<event>
 7    1  0.1758121E-005  0.1656774E+03  0.7561462E-02  0.1182432E+00
          2   -1    0    0  501    0  0.00000000000E+00  0.00000000000E+00  0.12689425774E+04  0.12689425774E+04  0.00000000000E+00 0. -1.
         -2   -1    0    0    0  501 -0.00000000000E+00 -0.00000000000E+00 -0.24781727256E+02  0.24781727256E+02  0.00000000000E+00 0.  1.
         23    2    1    2    0    0  0.31058069497E+02  0.13401912036E+03  0.67965243909E+03  0.69938069318E+03  0.90995536840E+02 0.  0.
          5    1    1    2  502    0 -0.64650264342E+02 -0.90705309643E+02  0.48524512793E+03  0.49788293449E+03  0.41800000000E+01 0.  1.
         -5    1    1    2    0  502  0.33592194845E+02 -0.43313810720E+02  0.79263283129E+02  0.96460676993E+02  0.41800000000E+01 0.  1.
        -11    1    3    3    0    0  0.58000916227E+02  0.49648509640E+02  0.32079724727E+03  0.32975741788E+03  0.00000000000E+00 0. -1.
         11    1    3    3    0    0 -0.26942846730E+02  0.84370610722E+02  0.35885519182E+03  0.36962327530E+03  0.00000000000E+00 0.  1.
</event>
<event>
 7    1  0.1758121E-005  0.2308299E+03  0.7561462E-02  0.1126057E+00
         -3   -1    0    0    0  501 -0.00000000000E+00  0.00000000000E+00  0.13962852785E+03  0.13962852785E+03  0.00000000000E+00 0.  1.
          3   -1    0    0  501    0  0.00000000000E+00 -0.00000000000E+00 -0.46849764724E+03  0.46849764724E+03  0.00000000000E+00 0. -1.
         23    2    1    2    0    0 -0.41254721175E+02 -0.22588194729E+03 -0.19106703749E+03  0.31255506687E+03  0.91975273196E+02 0.  0.
          5    1    1    2  502    0  0.28250901094E+02  0.77981677012E+02 -0.12006314174E+03  0.14598590948E+03  0.41800000000E+01 0. -1.
         -5    1    1    2    0  502  0.13003820080E+02  0.14790027028E+03 -0.17738940161E+02  0.14958519875E+03  0.41800000000E+01 0. -1.
        -11    1    3    3    0    0 -0.21583352770E+02 -0.79193186276E+02 -0.12714705311E+03  0.15133993189E+03  0.00000000000E+00 0. -1.
         11    1    3    3    0    0 -0.19671368405E+02 -0.14668876102E+03 -0.63919984373E+02  0.16121513498E+03  0.00000000000E+00 0.  1.
</event>
<event>
 7    1  0.1758121E-005  0.1580954E+03  0.7561462E-02  0.1190864E+00
          2   -1    0    0  501    0  0.00000000000E+00  0.00000000000E+00  0.33794240766E+03  0.33794240766E+03  0.00000000000E+00 0. -1.
         -2   -1    0    0    0  501 -0.00000000000E+00 -0.00000000000E+00 -0.10845939802E+03  0.10845939802E+03  0.00000000000E+00 0.  1.
         23    2    1    2    0    0 -0.64126533377E+02  0.14165751790E+03  0.80573168591E+02  0.19744899250E+03  0.91186646416E+02 0.  0.
          5    1    1    2  502    0 -0.39344999757E+01 -0.18290845409E+02  0.96786160497E+02  0.98666451135E+02  0.41800000000E+01 0.  1.
         -5    1    1    2    0  502  0.68061033353E+02 -0.12336667249E+03  0.52123680558E+02  0.15028636204E+03  0.41800000000E+01 0.  1.
        -11    1    3    3    0    0 -0.18674298169E+02  0.56911791292E+02 -0.15128482601E+02  0.61778251723E+02  0.00000000000E+00 0.  1.
         11    1    3    3    0    0 -0.45452235208E+02  0.84745726604E+02  0.95701651192E+02  0.13567074078E+03  0.00000000000E+00 0. -1.
</event>
<event>
 7    1  0.1758121E-005  0.1161365E+03  0.7561462E-02  0.1249610E+00
         -2   -1    0    0    0  501 -0.00000000000E+00  0.00000000000E+00  0.44395108890E+03  0.44395108890E+03  0.00000000000E+00 0. -1.
          2   -1    0    0  501    0  0.00000000000E+00 -0.00000000000E+00 -0.63326597114E+02  0.63326597114E+02  0.00000000000E+00 0.  1.
         23    2    1    2    0    0 -0.27606284933E+02  0.58854272200E+02  0.16900217528E+02  0.11718869464E+03  0.96029372981E+02 0.  0.
          5    1    1    2  502    0  0.67086292198E+02 -0.18227266339E+02  0.11084215640E+03  0.13090553798E+03  0.41800000000E+01 0. -1.
         -5    1    1    2    0  502 -0.39480007265E+02 -0.40627005861E+02  0.25288211786E+03  0.25918345340E+03  0.41800000000E+01 0. -1.
        -11    1    3    3    0    0 -0.48340668458E+02  0.55844116863E+01 -0.16011073768E+02  0.51228511242E+02  0.00000000000E+00 0.  1.
         11    1    3    3    0    0  0.20734383525E+02  0.53269860513E+02  0.32911291296E+02  0.65960183399E+02  0.00000000000E+00 0. -1.
</event>
<event>
 6    1  0.1758121E-005  0.1301625E+03  0.7561462E-02  0.1227215E+00
         -2   -1    0    0    0  501 -0.00000000000E+00  0.00000000000E+00  0.27997564743E+03  0.27997564743E+03  0.00000000000E+00 0. -1.
          2   -1    0    0  501    0  0.00000000000E+00 -0.00000000000E+00 -0.13443877109E+03  0.13443877109E+03  0.00000000000E+00 0.  1.
          5    1    1    2  502    0  0.51021635511E+02  0.66303213876E+00  0.69303750914E+02  0.86163386613E+02  0.41800000000E+01 0. -1.
         -5    1    1    2    0  502 -0.60030729662E+02  0.70654189041E+02  0.10650696624E+03  0.14126892507E+03  0.41800000000E+01 0. -1.
        -11    1    1    2    0    0 -0.22828921713E+02  0.12945418556E+02  0.56256418736E+02  0.62076792581E+02  0.00000000000E+00 0. -1.
         11    1    1    2    0    0  0.31838015864E+02 -0.84262639735E+02 -0.86530259550E+02  0.12490531425E+03  0.00000000000E+00 0.  1.
</event>
<event>
 7    1  0.1758121E-005  0.1101411E+03  0.7561462E-02  0.1260309E+00
         -3   -1    0    0    0  501 -0.00000000000E+00  0.00000000000E+00  0.19021322548E+03  0.19021322548E+03  0.00000000000E+00 0.  1.
          3   -1    0    0  501    0  0.00000000000E+00 -0.00000000000E+00 -0.10699697304E+03  0.10699697304E+03  0.00000000000E+00 0. -1.
         23    2    1    2    0    0 -0.76769003081E+02 -0.10078772105E+02 -0.17526700268E+02  0.11891439327E+03  0.88534661139E+02 0.  0.
          5    1    1    2  502    0 -0.27371274895E+02 -0.18428932264E+02  0.44398497179E+01  0.33555877269E+02  0.41800000000E+01 0.  1.
         -5    1    1    2    0  502  0.10414027798E+03  0.28507704369E+02  0.96303102996E+02  0.14473992798E+03  0.41800000000E+01 0.  1.
        -11    1    3    3    0    0 -0.10093330103E+02  0.39403962707E+01  0.32583425540E+02  0.34337758449E+02  0.00000000000E+00 0.  1.
         11    1    3    3    0    0 -0.66675672978E+02 -0.14019168375E+02 -0.50110125809E+02  0.84576634821E+02  0.00000000000E+00 0. -1.
</event>
<event>
 7    1  0.1758121E-005  0.8628924E+02  0.7561462E-02  0.1312095E+00
          1   -1    0    0  501    0  0.00000000000E+00  0.00000000000E+00  0.31284034901E+03  0.31284034901E+03  0.00000000000E+00 0. -1.
         -1   -1    0    0    0  501 -0.00000000000E+00 -0.00000000000E+00 -0.56264635008E+02  0.56264635008E+02  0.00000000000E+00 0.  1.
         23    2    1    2    0    0  0.47747544679E+02 -0.51187979813E+02  0.13952532172E+03  0.18375206160E+03  0.96940535600E+02 0.  0.
          5    1    1    2  502    0 -0.28616829914E+02  0.66433408722E+02  0.72892410367E+01  0.72821193232E+02  0.41800000000E+01 0.  1.
         -5    1    1    2    0  502 -0.19130714764E+02 -0.15245428909E+02  0.10976115125E+03  0.11253172918E+03  0.41800000000E+01 0.  1.
        -11    1    3    3    0    0  0.21656587683E+02 -0.42684975622E+02  0.69500100289E+01  0.48366492258E+02  0.00000000000E+00 0.  1.
         11    1    3    3    0    0  0.26090956995E+02 -0.85030041916E+01  0.13257531169E+03  0.13538556935E+03  0.00000000000E+00 0. -1.
</event>
<event>
 7    1  0.1758121E-005  0.1852808E+03  0.7561462E-02  0.1162788E+00
         -2   -1    0    0    0  501 -0.00000000000E+00  0.00000000000E+00  0.12251368188E+03  0.12251368188E+03  0.00000000000E+00 0.  1.
          2   -1    0    0  501    0  0.00000000000E+00 -0.00000000000E+00 -0.34706254344E+03  0.34706254344E+03  0.00000000000E+00 0. -1.
         23    2    1    2    0    0 -0.29609914920E+02 -0.16369589296E+03 -0.16900502218E+03  0.25416782311E+03  0.91463065476E+02 0.  0.
          5    1    1    2  502    0  0.70186733056E+02  0.12827396128E+03 -0.13404792101E+02  0.14689297972E+03  0.41800000000E+01 0. -1.
         -5    1    1    2    0  502 -0.40576818136E+02  0.35421931684E+02 -0.42139047269E+02  0.68515422490E+02  0.41800000000E+01 0. -1.
        -11    1    3    3    0    0  0.56049824269E+01 -0.68964486863E+02 -0.16363120035E+02  0.71100407689E+02  0.00000000000E+00 0.  1.
         11    1    3    3    0    0 -0.35214897347E+02 -0.94731406100E+02 -0.15264190215E+03  0.18306741542E+03  0.00000000000E+00 0. -1.
</event>
<event>
 7    1  0.1758121E-005  0.1004057E+03  0.7561462E-02  0.1279445E+00
         -1   -1    0    0    0  501 -0.00000000000E+00  0.00000000000E+00  0.34433881921E+03  0.34433881921E+03  0.00000000000E+00 0.  1.
          1   -1    0    0  501    0  0.00000000000E+00 -0.00000000000E+00 -0.65863664105E+02  0.65863664105E+02  0.00000000000E+00 0. -1.
         23    2    1    2    0    0  0.57598424434E+02  0.21482506761E+02  0.96676651511E+01  0.10747539464E+03  0.87626594767E+02 0.  0.
          5    1    1    2  502    0 -0.72504524264E+02 -0.61310782957E+02  0.20462671452E+03  0.22562243426E+03  0.41800000000E+01 0. -1.
         -5    1    1    2    0  502  0.14906099830E+02  0.39828276196E+02  0.64180775440E+02  0.77104654418E+02  0.41800000000E+01 0. -1.
        -11    1    3    3    0    0  0.12565213052E+02  0.11226085046E+02 -0.37714327424E+02  0.41307142936E+02  0.00000000000E+00 0. -1.
         11    1    3    3    0    0  0.45033211381E+02  0.10256421715E+02  0.47381992575E+02  0.66168251708E+02  0.00000000000E+00 0.  1.
</event>
<event>
 7    1  0.1758121E-005  0.1042157E+03  0.7561462E-02  0.1271673E+00
          2   -1    0    0  501    0  0.00000000000E+00  0.00000000000E+00  0.55006503916E+02  0.55006503916E+02  0.00000000000E+00 0.  1.
         -2   -1    0    0    0  501 -0.00000000000E+00 -0.00000000000E+00 -0.22666520250E+03  0.22666520250E+03  0.00000000000E+00 0. -1.
         23    2    1    2    0    0 -0.86944811647E+01  0.22833097158E+02 -0.65304338914E+02  0.11567119329E+03  0.92294224890E+02 0.  0.
          5    1    1    2  502    0  0.37198781281E+02 -0.60796741359E+02 -0.91546605042E+02  0.11609584998E+03  0.41800000000E+01 0. -1.
         -5    1    1    2    0  502 -0.28504300116E+02  0.37963644202E+02 -0.14807754631E+02  0.49904663143E+02  0.41800000000E+01 0. -1.
        -11    1    3    3    0    0 -0.19037914882E+02  0.53620125048E+02 -0.20812979798E+02  0.60586633355E+02  0.00000000000E+00 0.  1.
         11    1    3    3    0    0  0.10343433717E+02 -0.30787027891E+02 -0.44491359117E+02  0.55084559937E+02  0.00000000000E+00 0. -1.
</event>
<event>
 7    1  0.1758121E-005  0.1067305E+03  0.7561462E-02  0.1266747E+00
         -3   -1    0    0    0  501 -0.00000000000E+00  0.00000000000E+00  0.26128842111E+02  0.26128842111E+02  0.00000000000E+00 0.  1.
          3   -1    0    0  501    0  0.00000000000E+00 -0.00000000000E+00 -0.54505931319E+03  0.54505931319E+03  0.00000000000E+00 0. -1.
         23    2    1    2    0    0  0.60531777200E+01 -0.27649241193E+02 -0.24233918180E+03  0.26079594823E+03  0.92114744098E+02 0.  0.
          5    1    1    2  502    0  0.32002392294E+02 -0.32605409576E+02 -0.20199922357E+03  0.20714348787E+03  0.41800000000E+01 0. -1.
         -5    1    1    2    0  502 -0.38055570014E+02  0.60254650769E+02 -0.74592065711E+02  0.10324871920E+03  0.41800000000E+01 0.  1.
        -11    1    3    3    0    0 -0.21911959191E+02 -0.53686111609E+02 -0.13841412792E+03  0.15006932846E+03  0.00000000000E+00 0. -1.
         11    1    3    3    0    0  0.27965136910E+02  0.26036870415E+02 -0.10392505388E+03  0.11072661978E+03  0.00000000000E+00 0.  1.
</event>
<event>
 7    1  0.1758121E-005  0.2239011E+03  0.7561462E-02  0.1131008E+00
          2   -1    0    0  501    0  0.00000000000E+00  0.00000000000E+00  0.58628128730E+03  0.58628128730E+03  0.00000000000E+00 0. -1.
         -2   -1    0    0    0  501 -0.00000000000E+00 -0.00000000000E+00 -0.10002988212E+03  0.10002988212E+03  0.00000000000E+00 0.  1.
         23    2    1    2    0    0  0.21254999285E+03  0.27678075919E+02  0.27336328111E+03  0.35933683679E+03  0.91934234486E+02 0.  0.
          5    1    1    2  502    0 -0.15304781464E+03  0.14279964127E+02  0.20101706192E+03  0.25308670950E+03  0.41800000000E+01 0.  1.
         -5    1    1    2    0  502 -0.59502178207E+02 -0.41958040046E+02  0.11871062151E+02  0.73887623134E+02  0.41800000000E+01 0.  1.
        -11    1    3    3    0    0  0.86895644528E+02  0.38383474402E+02  0.62733658818E+02  0.11384048530E+03  0.00000000000E+00 0. -1.
         11    1    3    3    0    0  0.12565434832E+03 -0.10705398483E+02  0.21062962229E+03  0.24549635149E+03  0.00000000000E+00 0.  1.
</event>
<event>
 7    1  0.1758121E-005  0.1190750E+03  0.7561462E-02  0.1244631E+00
         -1   -1    0    0    0  501 -0.00000000000E+00  0.00000000000E+00  0.36885706771E+02  0.36885706771E+02  0.00000000000E+00 0.  1.
          1   -1    0    0  501    0  0.00000000000E+00 -0.00000000000E+00 -0.70143348124E+03  0.70143348124E+03  0.00000000000E+00 0. -1.
         23    2    1    2    0    0 -0.49515374786E+02 -0.10709431991E+03 -0.28172032275E+03  0.31864659363E+03  0.90820403450E+02 0.  0.
          5    1    1    2  502    0  0.41298911374E+02  0.66978576109E+02 -0.36733596664E+03  0.37569257981E+03  0.41800000000E+01 0. -1.
         -5    1    1    2    0  502  0.82164634114E+01  0.40115743802E+02 -0.15491485080E+02  0.43980014572E+02  0.41800000000E+01 0. -1.
        -11    1    3    3    0    0 -0.18653711449E+02 -0.32662962758E+02 -0.20137576315E+03  0.20485855626E+03  0.00000000000E+00 0. -1.
         11    1    3    3    0    0 -0.30861663337E+02 -0.74431357153E+02 -0.80344559600E+02  0.11378803737E+03  0.00000000000E+00 0.  1.
</event>
<event>
 7    1  0.1758121E-005  0.1704673E+03  0.7561462E-02  0.1177361E+00
          2   -1    0    0  501    0  0.00000000000E+00  0.00000000000E+00  0.10708517675E+04  0.10708517675E+04  0.00000000000E+00 0.  1.
         -2   -1    0    0    0  501 -0.00000000000E+00 -0.00000000000E+00 -0.32392813577E+02  0.32392813577E+02  0.00000000000E+00 0. -1.
         23    2    1    2    0    0  0.11737519986E+03  0.86151529555E+02  0.56844891375E+03  0.59554691152E+03  0.10170020988E+03 0.  0.
          5    1    1    2  502    0 -0.83559952680E+02 -0.14997253040E+02  0.37348218920E+03  0.38303211529E+03  0.41800000000E+01 0. -1.
         -5    1    1    2    0  502 -0.33815247180E+02 -0.71154276515E+02  0.96527850959E+02  0.12466555426E+03  0.41800000000E+01 0. -1.
        -11    1    3    3    0    0  0.79409913767E+02 -0.37060853746E+01  0.27883540076E+03  0.28994628846E+03  0.00000000000E+00 0.  1.
         11    1    3    3    0    0  0.37965286093E+02  0.89857614929E+02  0.28961351299E+03  0.30560062306E+03  0.00000000000E+00 0. -1.
</event>
<event>
 7    1  0.1758121E-005  0.1048763E+03  0.7561462E-02  0.1270363E+00
         -4   -1    0    0    0  501 -0.00000000000E+00  0.00000000000E+00  0.70477375414E+02  0.70477375414E+02  0.00000000000E+00 0.  1.
          4   -1    0    0  501    0  0.00000000000E+00 -0.00000000000E+00 -0.31040388660E+03  0.31040388660E+03  0.00000000000E+00 0. -1.
         23    2    1    2    0    0  0.42422873877E+02  0.35224956749E+02 -0.21803193539E+03  0.24248041226E+03  0.90654992536E+02 0.  0.
          5    1    1    2  502    0 -0.75389985269E+02 -0.11170334586E+02  0.20881753095E+02  0.79132460255E+02  0.41800000000E+01 0. -1.
         -5    1    1    2    0  502  0.32967111392E+02 -0.24054622163E+02 -0.42776328888E+02  0.59268389501E+02  0.41800000000E+01 0. -1.
        -11    1    3    3    0    0 -0.82015162232E+01 -0.17488302784E+02 -0.95274959163E+01  0.21537845320E+02  0.00000000000E+00 0.  1.
         11    1    3    3    0    0  0.50624390100E+02  0.52713259532E+02 -0.20850443947E+03  0.22094256694E+03  0.00000000000E+00 0. -1.
</event>
<event>
 7    1  0.1758121E-005  0.8020215E+02  0.7561462E-02  0.1328479E+00
         -1   -1    0    0    0  501 -0.00000000000E+00  0.00000000000E+00  0.21626414524E+02  0.21626414524E+02  0.00000000000E+00 0.  1.
          1   -1    0    0  501    0  0.00000000000E+00 -0.00000000000E+00 -0.56557506240E+03  0.56557506240E+03  0.00000000000E+00 0. -1.
         23    2    1    2    0    0  0.69228684087E+01  0.22510346968E+01 -0.29216493052E+03  0.30597051925E+03  0.90579350645E+02 0.  0.
          5    1    1    2  502    0 -0.86154237965E+01 -0.36282789046E+02 -0.12581920138E+02  0.39578320108E+02  0.41800000000E+01 0.  1.
         -5    1    1    2    0  502  0.16925553879E+01  0.34031754350E+02 -0.23920179722E+03  0.24165263756E+03  0.41800000000E+01 0.  1.
        -11    1    3    3    0    0  0.41660874393E+01  0.45260654456E+02 -0.18411817542E+03  0.18964542084E+03  0.00000000000E+00 0. -1.
         11    1    3    3    0    0  0.27567809694E+01 -0.43009619760E+02 -0.10804675510E+03  0.11632509841E+03  0.00000000000E+00 0.  1.
</event>
<event>
 6    1  0.1758121E-005  0.6969852E+02  0.7561462E-02  0.1361121E+00
         -2   -1    0    0    0  501 -0.00000000000E+00  0.00000000000E+00  0.32330596803E+02  0.32330596803E+02  0.00000000000E+00 0.  1.
          2   -1    0    0  501    0  0.00000000000E+00 -0.00000000000E+00 -0.37488209138E+03  0.37488209138E+03  0.00000000000E+00 0. -1.
          5    1    1    2  502    0  0.17133509317E+02 -0.52493603676E+02 -0.19720490618E+03  0.20483257307E+03  0.41800000000E+01 0.  1.
         -5    1    1    2    0  502  0.60070734686E+01 -0.12756209873E+02  0.18749746590E+02  0.23829209370E+02  0.41800000000E+01 0.  1.
        -11    1    1    2    0    0 -0.24958296825E+01  0.10719303336E+02 -0.16290699785E+02  0.19660099931E+02  0.00000000000E+00 0.  1.
         11    1    1    2    0    0 -0.20644753103E+02  0.54530510213E+02 -0.14780563520E+03  0.15889080581E+03  0.00000000000E+00 0. -1.
</event>
<event>
 7    1  0.1758121E-005  0.2097632E+03  0.7561462E-02  0.1141754E+00
          2   -1    0    0  501    0  0.00000000000E+00  0.00000000000E+00  0.25700745361E+03  0.25700745361E+03  0.00000000000E+00 0. -1.
         -2   -1    0    0    0  501 -0.00000000000E+00 -0.00000000000E+00 -0.19962731397E+03  0.19962731397E+03  0.00000000000E+00 0.  1.
         23    2    1    2    0    0  0.39577732051E+02  0.19275814706E+03  0.66327479918E+02  0.22329010233E+03  0.82079443677E+02 0.  0.
          5    1    1    2  502    0 -0.61327409110E+02 -0.18916218767E+03 -0.31677054885E+02  0.20140579077E+03  0.41800000000E+01 0.  1.
         -5    1    1    2    0  502  0.21749677060E+02 -0.35959593944E+01  0.22729714609E+02  0.31938874470E+02  0.41800000000E+01 0.  1.
        -11    1    3    3    0    0  0.76683336276E+01  0.95996664264E+02 -0.87941614469E+01  0.96703154891E+02  0.00000000000E+00 0.  1.
         11    1    3    3    0    0  0.31909398423E+02  0.96761482797E+02  0.75121641365E+02  0.12658694744E+03  0.00000000000E+00 0. -1.
</event>
<event>
 7    1  0.1758121E-005  0.1225150E+03  0.7561462E-02  0.1239005E+00
          2   -1    0    0  501    0  0.00000000000E+00  0.00000000000E+00  0.23049443116E+03  0.23049443116E+03  0.00000000000E+00 0.  1.
         -2   -1    0    0    0  501 -0.00000000000E+00 -0.00000000000E+00 -0.85169805957E+02  0.85169805957E+02  0.00000000000E+00 0. -1.
         23    2    1    2    0    0 -0.69333193736E+02 -0.19633009040E+02  0.12192953760E+03  0.16942055330E+03  0.92972925867E+02 0.  0.
          5    1    1    2  502    0  0.10243019622E+03  0.15863123612E+00  0.30523679305E+02  0.10696325378E+03  0.41800000000E+01 0.  1.
         -5    1    1    2    0  502 -0.33097002482E+02  0.19474377804E+02 -0.71285917007E+01  0.39280430036E+02  0.41800000000E+01 0.  1.
        -11    1    3    3    0    0  0.91822704367E+01 -0.23546297527E+02  0.11360456799E+01  0.25298869884E+02  0.00000000000E+00 0.  1.
         11    1    3    3    0    0 -0.78515464173E+02  0.39132884868E+01  0.12079349192E+03  0.14412168342E+03  0.00000000000E+00 0. -1.
</event>
<event>
 7    1  0.1787284E-005  0.1628877E+03  0.7561462E-02  0.1185475E+00
          1   -1    0    0  501    0  0.00000000000E+00  0.00000000000E+00  0.18204540228E+04  0.18204540228E+04  0.00000000000E+00 0. -1.
         -1   -1    0    0    0  501 -0.00000000000E+00 -0.00000000000E+00 -0.16218192340E+02  0.16218192340E+02  0.00000000000E+00 0.  1.
         23    2    1    2    0    0 -0.69474105463E+02  0.10508346386E+03  0.95143479723E+03  0.96558927192E+03  0.10613803731E+03 0.  0.
          5    1    1    2  502    0  0.31248158891E+02  0.15242548418E+02  0.38293207768E+03  0.38452988340E+03  0.41800000000E+01 0.  1.
         -5    1    1    2    0  502  0.38225946571E+02 -0.12032601228E+03  0.46986895552E+03  0.48655305978E+03  0.41800000000E+01 0.  1.
        -11    1    3    3    0    0  0.28431028836E+02  0.20457725138E+02  0.18018515256E+03  0.18355797755E+03  0.00000000000E+00 0.  1.
         11    1    3    3    0    0 -0.97905134299E+02  0.84625738721E+02  0.77124964467E+03  0.78203129437E+03  0.00000000000E+00 0. -1.
</event>
<event>
 7    1  0.1758121E-005  0.1071333E+03  0.7561462E-02  0.1265973E+00
         -1   -1    0    0    0  501 -0.00000000000E+00  0.00000000000E+00  0.19039564726E+03  0.19039564726E+03  0.00000000000E+00 0.  1.
          1   -1    0    0  501    0  0.00000000000E+00 -0.00000000000E+00 -0.72044310237E+02  0.72044310237E+02  0.00000000000E+00 0. -1.
         23    2    1    2    0    0 -0.13733921118E+02 -0.30695296989E+02  0.38826917061E+02  0.11045440919E+03  0.97784585571E+02 0.  0.
          5    1    1    2  502    0  0.52347062359E+02  0.60467069024E+02  0.55739457129E+02  0.97574796208E+02  0.41800000000E+01 0. -1.
         -5    1    1    2    0  502 -0.38613141241E+02 -0.29771772035E+02  0.23784962832E+02  0.54410752096E+02  0.41800000000E+01 0. -1.
        -11    1    3    3    0    0 -0.13420314145E+02 -0.57191328590E+02 -0.52993917822E+01  0.58983357406E+02  0.00000000000E+00 0. -1.
         11    1    3    3    0    0 -0.31360697217E+00  0.26496031601E+02  0.44126308843E+02  0.51471051787E+02  0.00000000000E+00 0.  1.
</event>
<event>
 7    1  0.1758121E-005  0.1054296E+03  0.7561462E-02  0.1269276E+00
          1   -1    0    0  501    0  0.00000000000E+00  0.00000000000E+00  0.11096135385E+03  0.11096135385E+03  0.00000000000E+00 0. -1.
         -1   -1    0    0    0  501 -0.00000000000E+00 -0.00000000000E+00 -0.14606174032E+03  0.14606174032E+03  0.00000000000E+00 0.  1.
         23    2    1    2    0    0  0.19114282430E+02 -0.48762553194E+02  0.26829525103E+02  0.10794503981E+03  0.90494009830E+02 0.  0.
          5    1    1    2  502    0 -0.25453292311E+01  0.75944434180E+02  0.35134152546E+01  0.76183018256E+02  0.41800000000E+01 0. -1.
         -5    1    1    2    0  502 -0.16568953198E+02 -0.27181880986E+02 -0.65443326826E+02  0.72895036114E+02  0.41800000000E+01 0. -1.
        -11    1    3    3    0    0 -0.32829624088E+02 -0.36859573621E+02  0.23174682267E+02  0.54529609236E+02  0.00000000000E+00 0. -1.
         11    1    3    3    0    0  0.51943906517E+02 -0.11902979573E+02  0.36548428361E+01  0.53415430572E+02  0.00000000000E+00 0.  1.
</event>
<event>
 7    1  0.1758121E-005  0.9052346E+02  0.7561462E-02  0.1301589E+00
          3   -1    0    0  501    0  0.00000000000E+00  0.00000000000E+00  0.11091571423E+03  0.11091571423E+03  0.00000000000E+00 0. -1.
         -3   -1    0    0    0  501 -0.00000000000E+00 -0.00000000000E+00 -0.20557603060E+03  0.20557603060E+03  0.00000000000E+00 0.  1.
         23    2    1    2    0    0  0.49267639263E+02 -0.35341081682E+02  0.44334018769E+02  0.11991440992E+03  0.93475494935E+02 0.  0.
          5    1    1    2  502    0  0.49081241919E+01 -0.32705448720E+02 -0.91510700473E+02  0.97393104274E+02  0.41800000000E+01 0.  1.
         -5    1    1    2    0  502 -0.54175763455E+02  0.68046530402E+02 -0.47483634660E+02  0.99184230632E+02  0.41800000000E+01 0.  1.
        -11    1    3    3    0    0  0.18304985663E+02 -0.13013769042E+02  0.70264668690E+02  0.73766891970E+02  0.00000000000E+00 0. -1.
         11    1    3    3    0    0  0.30962653599E+02 -0.22327312640E+02 -0.25930649921E+02  0.46147517950E+02  0.00000000000E+00 0.  1.
</event>
<event>
 7    1  0.1758121E-005  0.8781379E+02  0.7561462E-02  0.1308234E+00
          1   -1    0    0  501    0  0.00000000000E+00  0.00000000000E+00  0.34626908490E+03  0.34626908490E+03  0.00000000000E+00 0. -1.
         -1   -1    0    0    0  501 -0.00000000000E+00 -0.00000000000E+00 -0.50215147015E+02  0.50215147015E+02  0.00000000000E+00 0.  1.
         23    2    1    2    0    0 -0.13641110808E+02 -0.38523429603E+02  0.19225693887E+03  0.22888040952E+03  0.11727479177E+03 0.  0.
          5    1    1    2  502    0  0.22298650283E+02 -0.21918565198E+02 -0.14265365982E+02  0.34621183853E+02  0.41800000000E+01 0. -1.
         -5    1    1    2    0  502 -0.86575394753E+01  0.60441994801E+02  0.11806236500E+03  0.13298263854E+03  0.41800000000E+01 0. -1.
        -11    1    3    3    0    0  0.35501949659E+01 -0.57307180863E+02  0.19499299445E+03  0.20327071788E+03  0.00000000000E+00 0. -1.
         11    1    3    3    0    0 -0.17191305774E+02  0.18783751260E+02 -0.27360555803E+01  0.25609691637E+02  0.00000000000E+00 0.  1.
</event>
<event>
 7    1  0.1758121E-005  0.1124139E+03  0.7561462E-02  0.1256164E+00
         -2   -1    0    0    0  501 -0.00000000000E+00  0.00000000000E+00  0.91438558854E+02  0.91438558854E+02  0.00000000000E+00 0.  1.
          2   -1    0    0  501    0  0.00000000000E+00 -0.00000000000E+00 -0.16848667501E+03  0.16848667501E+03  0.00000000000E+00 0. -1.
         23    2    1    2    0    0  0.33774026739E+02 -0.15258730068E+02 -0.82462467594E+02  0.12934974042E+03  0.92508286443E+02 0.  0.
          5    1    1    2  502    0 -0.77446499478E+02  0.28265360562E+02  0.14794719020E+02  0.83864456118E+02  0.41800000000E+01 0. -1.
         -5    1    1    2    0  502  0.43672472739E+02 -0.13006630493E+02 -0.93803675859E+01  0.46711037325E+02  0.41800000000E+01 0. -1.
        -11    1    3    3    0    0  0.57860221084E+02 -0.32995309821E+02 -0.70903265691E+02  0.97281903454E+02  0.00000000000E+00 0.  1.
         11    1    3    3    0    0 -0.24086194344E+02  0.17736579753E+02 -0.11559201903E+02  0.32067836970E+02  0.00000000000E+00 0. -1.
</event>
<event>
 7    1  0.1758121E-005  0.6354727E+02  0.7561462E-02  0.1383521E+00
          3   -1    0    0  501    0  0.00000000000E+00  0.00000000000E+00  0.32517741542E+03  0.32517741542E+03  0.00000000000E+00 0. -1.
         -3   -1    0    0    0  501 -0.00000000000E+00 -0.00000000000E+00 -0.41402255656E+02  0.41402255656E+02  0.00000000000E+00 0.  1.
         23    2    1    2    0    0  0.13813760911E+02  0.18205720757E+02  0.17774200279E+03  0.20101126110E+03  0.91055144142E+02 0.  0.
          5    1    1    2  502    0 -0.32409461659E+02 -0.41608561608E+02 -0.24514517201E+01  0.52963455511E+02  0.41800000000E+01 0. -1.
         -5    1    1    2    0  502  0.18595700749E+02  0.23402840852E+02  0.10848460869E+03  0.11260495446E+03  0.41800000000E+01 0. -1.
        -11    1    3    3    0    0 -0.38455498539E+01 -0.10007791555E+02 -0.73187775074E+01  0.12981088155E+02  0.00000000000E+00 0.  1.
         11    1    3    3    0    0  0.17659310764E+02  0.28213512311E+02  0.18506078030E+03  0.18803017295E+03  0.00000000000E+00 0. -1.
</event>
<event>
 7    1  0.1758121E-005  0.9371494E+02  0.7561462E-02  0.1294097E+00
         -2   -1    0    0    0  501 -0.00000000000E+00  0.00000000000E+00  0.35146233366E+02  0.35146233366E+02  0.00000000000E+00 0.  1.
          2   -1    0    0  501    0  0.00000000000E+00 -0.00000000000E+00 -0.34702803062E+03  0.34702803062E+03  0.00000000000E+00 0. -1.
         23    2    1    2    0    0  0.19429512871E+02 -0.28135494875E+01 -0.16433407273E+03  0.18774325524E+03  0.88636450731E+02 0.  0.
          5    1    1    2  502    0  0.34679862838E+02 -0.17305401285E+02 -0.12726297381E+03  0.13309961196E+03  0.41800000000E+01 0. -1.
         -5    1    1    2    0  502 -0.54109375708E+02  0.20118950773E+02 -0.20284750708E+02  0.61331396780E+02  0.41800000000E+01 0. -1.
        -11    1    3    3    0    0 -0.35376659066E+02 -0.49410915016E+01 -0.71238871060E+02  0.79692528770E+02  0.00000000000E+00 0.  1.
         11    1    3    3    0    0  0.54806171937E+02  0.21275420140E+01 -0.93095201671E+02  0.10805072647E+03  0.00000000000E+00 0. -1.
</event>
<event>
 7    1  0.1758121E-005  0.1313629E+03  0.7561462E-02  0.1225447E+00
         -2   -1    0    0    0  501 -0.00000000000E+00  0.00000000000E+00  0.50294961522E+03  0.50294961522E+03  0.00000000000E+00 0.  1.
          2   -1    0    0  501    0  0.00000000000E+00 -0.00000000000E+00 -0.55572482324E+02  0.55572482324E+02  0.00000000000E+00 0. -1.
         23    2    1    2    0    0  0.79872944229E+02  0.70901949595E+02  0.10641621389E+03  0.17996241439E+03  0.98261316582E+02 0.  0.
          5    1    1    2  502    0 -0.73414698912E+02 -0.80805398752E+02  0.14181880353E+03  0.17902311559E+03  0.41800000000E+01 0. -1.
         -5    1    1    2    0  502 -0.64582453172E+01  0.99034491568E+01  0.19914211548E+03  0.19953656756E+03  0.41800000000E+01 0. -1.
        -11    1    3    3    0    0  0.73295681998E+02  0.92691779315E+02  0.70987008644E+02  0.13785201612E+03  0.00000000000E+00 0. -1.
         11    1    3    3    0    0  0.65772622315E+01 -0.21789829720E+02  0.35429205246E+02  0.42110398265E+02  0.00000000000E+00 0.  1.
</event>
<event>
 7    1  0.1758121E-005  0.2774183E+03  0.7561462E-02  0.1097107E+00
         -1   -1    0    0    0  501 -0.00000000000E+00  0.00000000000E+00  0.30275111605E+03  0.30275111605E+03  0.00000000000E+00 0.  1.
          1   -1    0    0  501    0  0.00000000000E+00 -0.00000000000E+00 -0.30708118963E+03  0.30708118963E+03  0.00000000000E+00 0. -1.
         23    2    1    2    0    0 -0.26714191756E+03  0.50545788603E+02 -0.86622534512E+02  0.29944717638E+03  0.90804554362E+02 0.  0.
          5    1    1    2  502    0  0.47624925194E+01  0.70785636918E+01 -0.20604628168E+02  0.22689435887E+02  0.41800000000E+01 0. -1.
         -5    1    1    2    0  502  0.26237942504E+03 -0.57624352294E+02  0.10289708910E+03  0.28769569341E+03  0.41800000000E+01 0. -1.
        -11    1    3    3    0    0 -0.12959097603E+03 -0.15085445552E+01 -0.16842407950E+01  0.12961069957E+03  0.00000000000E+00 0.  1.
         11    1    3    3    0    0 -0.13755094153E+03  0.52054333158E+02 -0.84938293717E+02  0.16983647681E+03  0.00000000000E+00 0. -1.
</event>
<event>
 7    1  0.1758121E-005  0.1483043E+03  0.7561462E-02  0.1202572E+00
         -1   -1    0    0    0  501 -0.00000000000E+00  0.00000000000E+00  0.37276856439E+03  0.37276856439E+03  0.00000000000E+00 0.  1.
          1   -1    0    0  501    0  0.00000000000E+00 -0.00000000000E+00 -0.92649149655E+02  0.92649149655E+02  0.00000000000E+00 0. -1.
         23    2    1    2    0    0  0.12197337448E+03 -0.60353735132E+02  0.56081492158E+02  0.17496772083E+03  0.94596470030E+02 0.  0.
          5    1    1    2  502    0 -0.88749991933E+02  0.81382076244E+02  0.89140450706E+02  0.14987693536E+03  0.41800000000E+01 0. -1.
         -5    1    1    2    0  502 -0.33223382546E+02 -0.21028341113E+02  0.13489747187E+03  0.14057305786E+03  0.41800000000E+01 0. -1.
        -11    1    3    3    0    0  0.40396675858E+02 -0.13995813613E+02 -0.26225135343E+02  0.50155078934E+02  0.00000000000E+00 0. -1.
         11    1    3    3    0    0  0.81576698621E+02 -0.46357921518E+02  0.82306627501E+02  0.12481264189E+03  0.00000000000E+00 0.  1.
</event>
<event>
 7    1  0.1758121E-005  0.1147219E+03  0.7561462E-02  0.1252067E+00
          1   -1    0    0  501    0  0.00000000000E+00  0.00000000000E+00  0.42651894856E+02  0.42651894856E+02  0.00000000000E+00 0. -1.
         -1   -1    0    0    0  501 -0.00000000000E+00 -0.00000000000E+00 -0.51617180943E+03  0.51617180943E+03  0.00000000000E+00 0.  1.
         23    2    1    2    0    0 -0.42060085528E+01 -0.67470332336E+02 -0.81949525925E+02  0.14223573092E+03  0.94579818662E+02 0.  0.
          5    1    1    2  502    0  0.15621476919E+02 -0.19747890786E+02 -0.14466980870E+02  0.29338978632E+02  0.41800000000E+01 0. -1.
         -5    1    1    2    0  502 -0.11415468367E+02  0.87218223122E+02 -0.37710340778E+03  0.38724899473E+03  0.41800000000E+01 0. -1.
        -11    1    3    3    0    0  0.12325628351E+02 -0.88361701988E+02 -0.58005768179E+02  0.10641607320E+03  0.00000000000E+00 0.  1.
         11    1    3    3    0    0 -0.16531636903E+02  0.20891369652E+02 -0.23943757746E+02  0.35819657726E+02  0.00000000000E+00 0. -1.
</event>
<event>
 7    1  0.1758121E-005  0.8157041E+02  0.7561462E-02  0.1324653E+00
          2   -1    0    0  501    0  0.00000000000E+00  0.00000000000E+00  0.56085719700E+03  0.56085719700E+03  0.00000000000E+00 0. -1.
         -2   -1    0    0    0  501 -0.00000000000E+00 -0.00000000000E+00 -0.26761826178E+02  0.26761826178E+02  0.00000000000E+00 0.  1.
         23    2    1    2    0    0  0.46780342020E+02  0.15228129317E+02  0.20632146736E+03  0.23334887394E+03  0.97277195426E+02 0.  0.
          5    1    1    2  502    0 -0.43767414009E+02  0.35569233850E+02  0.27532497348E+03  0.28107306941E+03  0.41800000000E+01 0.  1.
         -5    1    1    2    0  502 -0.30129280114E+01 -0.50797363167E+02  0.52448929976E+02  0.73197079830E+02  0.41800000000E+01 0.  1.
        -11    1    3    3    0    0  0.37156110064E+02  0.22526477495E+02  0.21443838681E+03  0.21879634467E+03  0.00000000000E+00 0. -1.
         11    1    3    3    0    0  0.96242319559E+01 -0.72983481778E+01 -0.81169194432E+01  0.14552529269E+02  0.00000000000E+00 0.  1.
</event>
<event>
 7    1  0.1758121E-005  0.1118076E+03  0.7561462E-02  0.1257259E+00
         -2   -1    0    0    0  501 -0.00000000000E+00  0.00000000000E+00  0.74729946852E+02  0.74729946852E+02  0.00000000000E+00 0.  1.
          2   -1    0    0  501    0  0.00000000000E+00 -0.00000000000E+00 -0.23630588027E+03  0.23630588027E+03  0.00000000000E+00 0. -1.
         23    2    1    2    0    0 -0.62956563924E+02 -0.45434723258E+02 -0.79134418804E+02  0.14230044796E+03  0.89215011250E+02 0.  0.
          5    1    1    2  502    0  0.85530572708E+02  0.71252425466E+02 -0.53097017208E+02  0.12340645299E+03  0.41800000000E+01 0. -1.
         -5    1    1    2    0  502 -0.22574008784E+02 -0.25817702208E+02 -0.29344497407E+02  0.45328926173E+02  0.41800000000E+01 0. -1.
        -11    1    3    3    0    0 -0.43346176434E+02 -0.32459731456E+02  0.55271008455E+01  0.54434125523E+02  0.00000000000E+00 0.  1.
         11    1    3    3    0    0 -0.19610387490E+02 -0.12974991802E+02 -0.84661519650E+02  0.87866322440E+02  0.00000000000E+00 0. -1.
</event>
<event>
 7    1  0.4432087E-005  0.1563848E+03  0.7561462E-02  0.1192840E+00
          2   -1    0    0  501    0  0.00000000000E+00  0.00000000000E+00  0.27861926914E+03  0.27861926914E+03  0.00000000000E+00 0. -1.
         -2   -1    0    0    0  501 -0.00000000000E+00 -0.00000000000E+00 -0.10721357340E+03  0.10721357340E+03  0.00000000000E+00 0.  1.
         23    2    1    2    0    0 -0.21666863489E+02 -0.11367204351E+03  0.14201612890E+03  0.21291089340E+03  0.10849737883E+03 0.  0.
          5    1    1    2  502    0 -0.17744070687E+02  0.12523049468E+03  0.34895411923E+02  0.13127334465E+03  0.41800000000E+01 0.  1.
         -5    1    1    2    0  502  0.39410934175E+02 -0.11558451163E+02 -0.55058450834E+01  0.41648604490E+02  0.41800000000E+01 0.  1.
        -11    1    3    3    0    0  0.30784249455E+02 -0.17552272385E+02  0.24567799418E+01  0.35521656043E+02  0.00000000000E+00 0.  1.
         11    1    3    3    0    0 -0.52451112944E+02 -0.96119771128E+02  0.13955934895E+03  0.17738923736E+03  0.00000000000E+00 0. -1.
</event>
<event>
 7    1  0.1758121E-005  0.1172496E+03  0.7561462E-02  0.1247705E+00
         -3   -1    0    0    0  501 -0.00000000000E+00  0.00000000000E+00  0.96859177435E+02  0.96859177435E+02  0.00000000000E+00 0.  1.
          3   -1    0    0  501    0  0.00000000000E+00 -0.00000000000E+00 -0.22815394888E+03  0.22815394888E+03  0.00000000000E+00 0. -1.
         23    2    1    2    0    0  0.55620657295E+02  0.11152903777E+02 -0.15103915702E+03  0.18625552484E+03  0.93060457762E+02 0.  0.
          5    1    1    2  502    0  0.36360158724E+02 -0.18721590343E+02 -0.88412633398E+01  0.42049963435E+02  0.41800000000E+01 0.  1.
         -5    1    1    2    0  502 -0.91980816019E+02  0.75686865665E+01  0.28585648914E+02  0.96707638042E+02  0.41800000000E+01 0.  1.
        -11    1    3    3    0    0  0.31700776325E+02  0.47730307366E+02 -0.49533342251E+02  0.75740830834E+02  0.00000000000E+00 0.  1.
         11    1    3    3    0    0  0.23919880970E+02 -0.36577403589E+02 -0.10150581477E+03  0.11051469400E+03  0.00000000000E+00 0. -1.
</event>
<event>
 7    1  0.1758121E-005  0.4780450E+03  0.7561462E-02  0.1019674E+00
         -2   -1    0    0    0  501 -0.00000000000E+00  0.00000000000E+00  0.58333494325E+03  0.58333494325E+03  0.00000000000E+00 0.  1.
          2   -1    0    0  501    0  0.00000000000E+00 -0.00000000000E+00 -0.42771382845E+03  0.42771382845E+03  0.00000000000E+00 0. -1.
         23    2    1    2    0    0 -0.43130974968E+03 -0.19764753957E+03 -0.34615260464E+02  0.48478705562E+03  0.93421747838E+02 0.  0.
          5    1    1    2  502    0  0.37104947577E+03  0.16204635418E+03  0.10975998643E+03  0.41952528100E+03  0.41800000000E+01 0. -1.
         -5    1    1    2    0  502  0.60260273912E+02  0.35601185391E+02  0.80476388835E+02  0.10673643508E+03  0.41800000000E+01 0. -1.
        -11    1    3    3    0    0 -0.28857425970E+03 -0.89996741740E+02  0.20372850144E+01  0.30228904614E+03  0.00000000000E+00 0.  1.
         11    1    3    3    0    0 -0.14273548999E+03 -0.10765079784E+03 -0.36652545478E+02  0.18249800949E+03  0.00000000000E+00 0. -1.
</event>
<event>
 7    1  0.1758121E-005  0.1800277E+03  0.7561462E-02  0.1167776E+00
          1   -1    0    0  501    0  0.00000000000E+00  0.00000000000E+00  0.69853373812E+03  0.69853373812E+03  0.00000000000E+00 0. -1.
         -1   -1    0    0    0  501 -0.00000000000E+00 -0.00000000000E+00 -0.65379354484E+02  0.65379354484E+02  0.00000000000E+00 0.  1.
         23    2    1    2    0    0  0.52378536292E+02 -0.15275205621E+03  0.46152834895E+03  0.49711851195E+03  0.89675505615E+02 0.  0.
          5    1    1    2  502    0 -0.69162899662E+02  0.11294603786E+03  0.17906489730E+03  0.22276001437E+03  0.41800000000E+01 0. -1.
         -5    1    1    2    0  502  0.16784363370E+02  0.39806018347E+02 -0.74388626086E+01  0.44034566278E+02  0.41800000000E+01 0. -1.
        -11    1    3    3    0    0  0.63807191431E+02 -0.50806637624E+02  0.18530519249E+03  0.20246156788E+03  0.00000000000E+00 0.  1.
         11    1    3    3    0    0 -0.11428655139E+02 -0.10194541858E+03  0.27622315646E+03  0.29465694408E+03  0.00000000000E+00 0. -1.
</event>
<event>
 7    1  0.1758121E-005  0.1261471E+03  0.7561462E-02  0.1233287E+00
          1   -1    0    0  501    0  0.00000000000E+00  0.00000000000E+00  0.24175886317E+03  0.24175886317E+03  0.00000000000E+00 0. -1.
         -1   -1    0    0    0  501 -0.00000000000E+00 -0.00000000000E+00 -0.12865565548E+03  0.12865565548E+03  0.00000000000E+00 0.  1.
         23    2    1    2    0    0  0.57841539375E+02 -0.91285960243E+02  0.14326393485E+03  0.20237742839E+03  0.93559063032E+02 0.  0.
          5    1    1    2  502    0 -0.29004086799E+01  0.63028888165E+01 -0.61488972100E+02  0.62020197257E+02  0.41800000000E+01 0.  1.
         -5    1    1    2    0  502 -0.54941130695E+02  0.84983071426E+02  0.31328244936E+02  0.10601689300E+03  0.41800000000E+01 0.  1.
        -11    1    3    3    0    0 -0.63107887033E+01 -0.76909873328E+02  0.79389480467E+02  0.11071424605E+03  0.00000000000E+00 0. -1.
         11    1    3    3    0    0  0.64152328078E+02 -0.14376086915E+02  0.63874454386E+02  0.91663182336E+02  0.00000000000E+00 0.  1.
</event>
<event>
 7    1  0.1758121E-005  0.9592223E+02  0.7561462E-02  0.1289112E+00
          1   -1    0    0  501    0  0.00000000000E+00  0.00000000000E+00  0.41975068858E+02  0.41975068858E+02  0.00000000000E+00 0. -1.
         -1   -1    0    0    0  501 -0.00000000000E+00 -0.00000000000E+00 -0.34939003414E+03  0.34939003414E+03  0.00000000000E+00 0.  1.
         23    2    1    2    0    0 -0.83306923255E+01  0.20840294204E+02 -0.69135581031E+02  0.12131256541E+03  0.97125134047E+02 0.  0.
          5    1    1    2  502    0  0.35717581737E+02 -0.64720898933E+02 -0.15758095962E+03  0.17410850536E+03  0.41800000000E+01 0.  1.
         -5    1    1    2    0  502 -0.27386889411E+02  0.43880604730E+02 -0.80698424637E+02  0.95944032237E+02  0.41800000000E+01 0.  1.
        -11    1    3    3    0    0 -0.70631595412E+00  0.42726993426E+02 -0.83673277053E+02  0.93953776626E+02  0.00000000000E+00 0.  1.
         11    1    3    3    0    0 -0.76243763714E+01 -0.21886699222E+02  0.14537696022E+02  0.27358788780E+02  0.00000000000E+00 0. -1.
</event>
<event>
 7    1  0.1758121E-005  0.1176853E+03  0.7561462E-02  0.1246965E+00
          2   -1    0    0  501    0  0.00000000000E+00  0.00000000000E+00  0.33115106426E+03  0.33115106426E+03  0.00000000000E+00 0. -1.
         -2   -1    0    0    0  501 -0.00000000000E+00 -0.00000000000E+00 -0.74163946634E+02  0.74163946634E+02  0.00000000000E+00 0.  1.
         23    2    1    2    0    0 -0.82328216294E+02 -0.40720868485E+02  0.20262570455E+03  0.24088091292E+03  0.92359697577E+02 0.  0.
          5    1    1    2  502    0  0.22066428017E+02  0.62764856931E+02 -0.16573554420E+02  0.68691408612E+02  0.41800000000E+01 0.  1.
         -5    1    1    2    0  502  0.60261788277E+02 -0.22043988446E+02  0.70934967505E+02  0.95742689371E+02  0.41800000000E+01 0.  1.
        -11    1    3    3    0    0 -0.21895753795E+02 -0.38066833805E+02  0.19548727329E+02  0.48069331286E+02  0.00000000000E+00 0.  1.
         11    1    3    3    0    0 -0.60432462499E+02 -0.26540346800E+01  0.18307697722E+03  0.19281158163E+03  0.00000000000E+00 0. -1.
</event>
<event>
 7    1  0.1758121E-005  0.1091872E+03  0.7561462E-02  0.1262083E+00
          1   -1    0    0  501    0  0.00000000000E+00  0.00000000000E+00  0.27255317400E+03  0.27255317400E+03  0.00000000000E+00 0. -1.
         -1   -1    0    0    0  501 -0.00000000000E+00 -0.00000000000E+00 -0.92729840125E+02  0.92729840125E+02  0.00000000000E+00 0.  1.
         23    2    1    2    0    0 -0.71325572288E+02  0.55408457576E+01  0.18674002650E+03  0.22101267907E+03  0.94110193797E+02 0.  0.
          5    1    1    2  502    0  0.31441243285E+02 -0.51862911964E+02  0.34892783309E+02  0.70094879583E+02  0.41800000000E+01 0. -1.
         -5    1    1    2    0  502  0.39884329003E+02  0.46322066207E+02 -0.41809475932E+02  0.74175455478E+02  0.41800000000E+01 0. -1.
        -11    1    3    3    0    0  0.30043617169E-02  0.22901019657E+02  0.11880185974E+03  0.12098900193E+03  0.00000000000E+00 0. -1.
         11    1    3    3    0    0 -0.71328576650E+02 -0.17360173900E+02  0.67938166757E+02  0.10002367713E+03  0.00000000000E+00 0.  1.
</event>
<event>
 7    1  0.1758121E-005  0.1092682E+03  0.7561462E-02  0.1261931E+00
         -2   -1    0    0    0  501 -0.00000000000E+00  0.00000000000E+00  0.23839260162E+02  0.23839260162E+02  0.00000000000E+00 0.  1.
          2   -1    0    0  501    0  0.00000000000E+00 -0.00000000000E+00 -0.52559265414E+03  0.52559265414E+03  0.00000000000E+00 0. -1.
         23    2    1    2    0    0  0.48644753835E+02  0.26204758017E+02 -0.15678497083E+03  0.17834838776E+03  0.64603551912E+02 0.  0.
          5    1    1    2  502    0 -0.72692532383E+02  0.26517725130E+02 -0.22058533114E+03  0.23380067306E+03  0.41800000000E+01 0.  1.
         -5    1    1    2    0  502  0.24047778548E+02 -0.52722483147E+02 -0.12438309202E+03  0.13728285349E+03  0.41800000000E+01 0.  1.
        -11    1    3    3    0    0  0.58796315508E+02  0.44792278484E+01 -0.92078679869E+02  0.10934145365E+03  0.00000000000E+00 0.  1.
         11    1    3    3    0    0 -0.10151561673E+02  0.21725530169E+02 -0.64706290958E+02  0.69006934108E+02  0.00000000000E+00 0. -1.
</event>
<event>
 7    1  0.1758121E-005  0.9065722E+02  0.7561462E-02  0.1301268E+00
         -1   -1    0    0    0  501 -0.00000000000E+00  0.00000000000E+00  0.62289420407E+02  0.62289420407E+02  0.00000000000E+00 0.  1.
          1   -1    0    0  501    0  0.00000000000E+00 -0.00000000000E+00 -0.20711600719E+03  0.20711600719E+03  0.00000000000E+00 0. -1.
         23    2    1    2    0    0  0.28463757373E+02 -0.30350547434E+02 -0.87374614821E+02  0.13329647869E+03  0.91663988041E+02 0.  0.
          5    1    1    2  502    0 -0.30625980126E+02 -0.40762713225E+02 -0.15705145699E+02  0.53513301613E+02  0.41800000000E+01 0. -1.
         -5    1    1    2    0  502  0.21622227533E+01  0.71113260658E+02 -0.41746826266E+02  0.82595647294E+02  0.41800000000E+01 0.  1.
        -11    1    3    3    0    0  0.12415572269E+02  0.96916583283E+01  0.15281141405E+02  0.21945112407E+02  0.00000000000E+00 0.  1.
         11    1    3    3    0    0  0.16048185103E+02 -0.40042205762E+02 -0.10265575623E+03  0.11135136629E+03  0.00000000000E+00 0. -1.
</event>
<event>
 7    1  0.1758121E-005  0.1035652E+03  0.7561462E-02  0.1272973E+00
          1   -1    0    0  501    0  0.00000000000E+00  0.00000000000E+00  0.19850356583E+03  0.19850356583E+03  0.00000000000E+00 0. -1.
         -1   -1    0    0    0  501 -0.00000000000E+00 -0.00000000000E+00 -0.77763131735E+02  0.77763131735E+02  0.00000000000E+00 0.  1.
         23    2    1    2    0    0  0.18978362022E+02  0.53447984746E+02  0.76761190280E+02  0.13204986060E+03  0.91257986244E+02 0.  0.
          5    1    1    2  502    0 -0.60646499060E+02 -0.18775388650E+02 -0.13561989393E+02  0.65053155369E+02  0.41800000000E+01 0. -1.
         -5    1    1    2    0  502  0.41668137038E+02 -0.34672596096E+02  0.57541233205E+02  0.79163681591E+02  0.41800000000E+01 0. -1.
        -11    1    3    3    0    0  0.31009854123E+02 -0.32484664157E+01  0.66146684395E+02  0.73126926937E+02  0.00000000000E+00 0. -1.
         11    1    3    3    0    0 -0.12031492101E+02  0.56696451161E+02  0.10614505885E+02  0.58922933665E+02  0.00000000000E+00 0.  1.
</event>
<event>
 7    1  0.1758121E-005  0.1344755E+03  0.7561462E-02  0.1220962E+00
          2   -1    0    0  501    0  0.00000000000E+00  0.00000000000E+00  0.10797025023E+04  0.10797025023E+04  0.00000000000E+00 0. -1.
         -2   -1    0    0    0  501 -0.00000000000E+00 -0.00000000000E+00 -0.21814677174E+02  0.21814677174E+02  0.00000000000E+00 0.  1.
         23    2    1    2    0    0 -0.65803122354E+02  0.18199835525E+02  0.59403989877E+03  0.60484727115E+03  0.91079828513E+02 0.  0.
          5    1    1    2  502    0  0.72244408799E+02 -0.72321822478E+02  0.39874435633E+03  0.41166033901E+03  0.41800000000E+01 0. -1.
         -5    1    1    2    0  502 -0.64412864448E+01  0.54121986952E+02  0.65103569979E+02  0.85009569266E+02  0.41800000000E+01 0.  1.
        -11    1    3    3    0    0  0.13507824100E+02 -0.19851362007E+02  0.87925317938E+02  0.91144936337E+02  0.00000000000E+00 0. -1.
         11    1    3    3    0    0 -0.79310946454E+02  0.38051197532E+02  0.50611458084E+03  0.51370233482E+03  0.00000000000E+00 0.  1.
</event>
<event>
 7    1  0.1758121E-005  0.1525435E+03  0.7561462E-02  0.1197382E+00
          1   -1    0    0  501    0  0.00000000000E+00  0.00000000000E+00  0.80365597347E+02  0.80365597347E+02  0.00000000000E+00 0. -1.
         -1   -1    0    0    0  501 -0.00000000000E+00 -0.00000000000E+00 -0.31605146412E+03  0.31605146412E+03  0.00000000000E+00 0.  1.
         23    2    1    2    0    0  0.45644270127E+02  0.10253254226E+03 -0.72847115476E+02  0.16236124272E+03  0.91968197156E+02 0.  0.
          5    1    1    2  502    0  0.31867620363E+02 -0.69602917829E+02 -0.44166224909E+02  0.88477337328E+02  0.41800000000E+01 0. -1.
         -5    1    1    2    0  502 -0.77511890489E+02 -0.32929624428E+02 -0.11867252639E+03  0.14557848142E+03  0.41800000000E+01 0. -1.
        -11    1    3    3    0    0 -0.27274344939E+01  0.95126749471E+02 -0.38927974235E+02  0.10281986453E+03  0.00000000000E+00 0.  1.
         11    1    3    3    0    0  0.48371704620E+02  0.74057927869E+01 -0.33919141240E+02  0.59541378193E+02  0.00000000000E+00 0. -1.
</event>
<event>
 7    1  0.1758121E-005  0.9723353E+02  0.7561462E-02  0.1286223E+00
          1   -1    0    0  501    0  0.00000000000E+00  0.00000000000E+00  0.41296416069E+03  0.41296416069E+03  0.00000000000E+00 0. -1.
         -1   -1    0    0    0  501 -0.00000000000E+00 -0.00000000000E+00 -0.49673561505E+02  0.49673561505E+02  0.00000000000E+00 0.  1.
         23    2    1    2    0    0 -0.21356133845E+02  0.87428426188E+02  0.14138283001E+03  0.19228777843E+03  0.94263836937E+02 0.  0.
          5    1    1    2  502    0 -0.10660332184E+02 -0.44282009737E+01 -0.13745097903E+02  0.18429643580E+02  0.41800000000E+01 0.  1.
         -5    1    1    2    0  502  0.32016466029E+02 -0.83000225215E+02  0.23565286708E+03  0.25192030018E+03  0.41800000000E+01 0.  1.
        -11    1    3    3    0    0  0.11349214290E+01  0.45808592511E+02  0.13736855541E+03  0.14480965165E+03  0.00000000000E+00 0. -1.
         11    1    3    3    0    0 -0.22491055274E+02  0.41619833678E+02  0.40142746029E+01  0.47478126788E+02  0.00000000000E+00 0.  1.
</event>
<event>
 7    1  0.1758121E-005  0.1983724E+03  0.7561462E-02  0.1151120E+00
          2   -1    0    0  501    0  0.00000000000E+00  0.00000000000E+00  0.25978988314E+03  0.25978988314E+03  0.00000000000E+00 0. -1.
         -2   -1    0    0    0  501 -0.00000000000E+00 -0.00000000000E+00 -0.25887614763E+03  0.25887614763E+03  0.00000000000E+00 0.  1.
         23    2    1    2    0    0  0.13171840261E+03 -0.11344177090E+03  0.15757407408E+03  0.25335073783E+03  0.95594113653E+02 0.  0.
          5    1    1    2  502    0  0.61594875546E+01  0.66264631478E+02 -0.64929579046E+02  0.93071280785E+02  0.41800000000E+01 0.  1.
         -5    1    1    2    0  502 -0.13787789017E+03  0.47177139424E+02 -0.91730759517E+02  0.17224401215E+03  0.41800000000E+01 0.  1.
        -11    1    3    3    0    0  0.70045748362E+02 -0.20953001163E+02  0.11079515588E+03  0.13274412110E+03  0.00000000000E+00 0. -1.
         11    1    3    3    0    0  0.61672654251E+02 -0.92488769739E+02  0.46778918197E+02  0.12060661673E+03  0.00000000000E+00 0.  1.
</event>
<event>
 7    1  0.1758121E-005  0.1252430E+03  0.7561462E-02  0.1234690E+00
          1   -1    0    0  501    0  0.00000000000E+00  0.00000000000E+00  0.51706122508E+03  0.51706122508E+03  0.00000000000E+00 0. -1.
         -1   -1    0    0    0  501 -0.00000000000E+00 -0.00000000000E+00 -0.49511178464E+02  0.49511178464E+02  0.00000000000E+00 0.  1.
         23    2    1    2    0    0  0.57006710393E+02  0.49875156534E+02  0.37591861530E+03  0.39399692073E+03  0.90451489494E+02 0.  0.
          5    1    1    2  502    0  0.92833088001E+01  0.34297069718E+02  0.39688326821E+02  0.53433177890E+02  0.41800000000E+01 0.  1.
         -5    1    1    2    0  502 -0.66290019193E+02 -0.84172226252E+02  0.51943104496E+02  0.11914230492E+03  0.41800000000E+01 0.  1.
        -11    1    3    3    0    0 -0.39734811649E+01 -0.16722402746E+02  0.18101436446E+02  0.24961756901E+02  0.00000000000E+00 0.  1.
         11    1    3    3    0    0  0.60980191558E+02  0.66597559280E+02  0.35781717885E+03  0.36903516383E+03  0.00000000000E+00 0. -1.
</event>
<event>
 7    1  0.1758121E-005  0.1291384E+03  0.7561462E-02  0.1228740E+00
          3   -1    0    0  501    0  0.00000000000E+00  0.00000000000E+00  0.40757206825E+03  0.40757206825E+03  0.00000000000E+00 0. -1.
         -3   -1    0    0    0  501 -0.00000000000E+00 -0.00000000000E+00 -0.43675937318E+02  0.43675937318E+02  0.00000000000E+00 0.  1.
         23    2    1    2    0    0  0.43060951527E+02 -0.52219196820E+02  0.14289582273E+03  0.18189331543E+03  0.89915916186E+02 0.  0.
          5    1    1    2  502    0 -0.66131123811E+02  0.85211599106E+02  0.18941842412E+03  0.21801640754E+03  0.41800000000E+01 0. -1.
         -5    1    1    2    0  502  0.23070172284E+02 -0.32992402287E+02  0.31581884082E+02  0.51338282597E+02  0.41800000000E+01 0.  1.
        -11    1    3    3    0    0 -0.22603854750E+02  0.45489579871E+01  0.48218594782E+02  0.53447732890E+02  0.00000000000E+00 0. -1.
         11    1    3    3    0    0  0.65664806277E+02 -0.56768154807E+02  0.94677227947E+02  0.12844558254E+03  0.00000000000E+00 0.  1.
</event>
<event>
 7    1  0.1758121E-005  0.1125968E+03  0.7561462E-02  0.1255835E+00
         -1   -1    0    0    0  501 -0.00000000000E+00  0.00000000000E+00  0.14427932024E+03  0.14427932024E+03  0.00000000000E+00 0.  1.
          1   -1    0    0  501    0  0.00000000000E+00 -0.00000000000E+00 -0.11237629831E+03  0.11237629831E+03  0.00000000000E+00 0. -1.
         23    2    1    2    0    0 -0.14018410671E+02 -0.67655183101E+02  0.56725344267E+01  0.11136763583E+03  0.87159813129E+02 0.  0.
          5    1    1    2  502    0 -0.16317929265E+02 -0.29870748408E+02 -0.11734067546E+02  0.36244960576E+02  0.41800000000E+01 0.  1.
         -5    1    1    2    0  502  0.30336339937E+02  0.97525931509E+02  0.37964555055E+02  0.10904302214E+03  0.41800000000E+01 0.  1.
        -11    1    3    3    0    0 -0.31144679332E+02 -0.17594822445E+02 -0.30719457064E+02  0.47151393085E+02  0.00000000000E+00 0. -1.
         11    1    3    3    0    0  0.17126268661E+02 -0.50060360656E+02  0.36391991490E+02  0.64216242742E+02  0.00000000000E+00 0.  1.
</event>
<event>
 7    1  0.1758121E-005  0.3618412E+03  0.7561462E-02  0.1057857E+00
          1   -1    0    0  501    0  0.00000000000E+00  0.00000000000E+00  0.13437369217E+03  0.13437369217E+03  0.00000000000E+00 0. -1.
         -1   -1    0    0    0  501 -0.00000000000E+00 -0.00000000000E+00 -0.16541137338E+04  0.16541137338E+04  0.00000000000E+00 0.  1.
         23    2    1    2    0    0 -0.16277614467E+03  0.31979757274E+03 -0.20997533836E+03  0.42470682383E+03  0.86716103974E+02 0.  0.
          5    1    1    2  502    0  0.15709072633E+03 -0.31892311726E+03 -0.13092336535E+04  0.13566501697E+04  0.41800000000E+01 0.  1.
         -5    1    1    2    0  502  0.56854183384E+01 -0.87445547102E+00 -0.53104982648E+00  0.71304325235E+01  0.41800000000E+01 0.  1.
        -11    1    3    3    0    0 -0.11764397963E+03  0.18852686722E+03 -0.84997014270E+02  0.23792221007E+03  0.00000000000E+00 0.  1.
         11    1    3    3    0    0 -0.45132165035E+02  0.13127070551E+03 -0.12497832409E+03  0.18678461376E+03  0.00000000000E+00 0. -1.
</event>
<event>
 7    1  0.1758121E-005  0.1335701E+03  0.7561462E-02  0.1222252E+00
          1   -1    0    0  501    0  0.00000000000E+00  0.00000000000E+00  0.41368103623E+03  0.41368103623E+03  0.00000000000E+00 0. -1.
         -1   -1    0    0    0  501 -0.00000000000E+00 -0.00000000000E+00 -0.81744486895E+02  0.81744486895E+02  0.00000000000E+00 0.  1.
         23    2    1    2    0    0  0.87527594980E+02  0.33078712687E+02  0.32308156917E+03  0.34835173903E+03  0.90619824706E+02 0.  0.
          5    1    1    2  502    0  0.24711605296E+02  0.90695727093E+01 -0.12615255561E+01  0.26683036412E+02  0.41800000000E+01 0. -1.
         -5    1    1    2    0  502 -0.11223920028E+03 -0.42148285396E+02  0.10116505721E+02  0.12039074769E+03  0.41800000000E+01 0.  1.
        -11    1    3    3    0    0  0.91682461599E+02  0.46595865958E+01  0.17611307840E+03  0.19860312660E+03  0.00000000000E+00 0.  1.
         11    1    3    3    0    0 -0.41548666182E+01  0.28419126091E+02  0.14696849077E+03  0.14974861243E+03  0.00000000000E+00 0. -1.
</event>
<event>
 7    1  0.1758121E-005  0.8991122E+02  0.7561462E-02  0.1303067E+00
          1   -1    0    0  501    0  0.00000000000E+00  0.00000000000E+00  0.38285717480E+02  0.38285717480E+02  0.00000000000E+00 0. -1.
         -1   -1    0    0    0  501 -0.00000000000E+00 -0.00000000000E+00 -0.38277755553E+03  0.38277755553E+03  0.00000000000E+00 0.  1.
         23    2    1    2    0    0  0.12399636369E+02 -0.38224111594E+02 -0.88782866049E+02  0.13357501819E+03  0.91351269784E+02 0.  0.
          5    1    1    2  502    0  0.24397084968E+02  0.46701235811E+02 -0.34677831679E+02  0.63215880846E+02  0.41800000000E+01 0. -1.
         -5    1    1    2    0  502 -0.36796721337E+02 -0.84771242166E+01 -0.22103114033E+03  0.22427237398E+03  0.41800000000E+01 0. -1.
        -11    1    3    3    0    0  0.45752612177E+02 -0.29712209081E+02 -0.82003029296E+02  0.98491693574E+02  0.00000000000E+00 0.  1.
         11    1    3    3    0    0 -0.33352975807E+02 -0.85119025136E+01 -0.67798367529E+01  0.35083324615E+02  0.00000000000E+00 0. -1.
</event>
<event>
 7    1  0.1758121E-005  0.8688887E+02  0.7561462E-02  0.1310566E+00
          4   -1    0    0  501    0  0.00000000000E+00  0.00000000000E+00  0.66977853022E+02  0.66977853022E+02  0.00000000000E+00 0. -1.
         -4   -1    0    0    0  501 -0.00000000000E+00 -0.00000000000E+00 -0.20305545196E+03  0.20305545196E+03  0.00000000000E+00 0.  1.
         23    2    1    2    0    0 -0.86862808330E+01 -0.12840115691E+02 -0.11978426087E+02  0.93150183956E+02  0.91066755921E+02 0.  0.
          5    1    1    2  502    0 -0.40478876602E+02 -0.23507481465E+01 -0.11806526954E+03  0.12490374590E+03  0.41800000000E+01 0. -1.
         -5    1    1    2    0  502  0.49165157435E+02  0.15190863837E+02 -0.60339033128E+01  0.51979375130E+02  0.41800000000E+01 0. -1.
        -11    1    3    3    0    0 -0.43569020549E+02  0.16854044648E+01  0.15666732481E+02  0.46330839043E+02  0.00000000000E+00 0. -1.
         11    1    3    3    0    0  0.34882739716E+02 -0.14525520155E+02 -0.27645158568E+02  0.46819344913E+02  0.00000000000E+00 0.  1.
</event>
<event>
 7    1  0.1758121E-005  0.1434835E+03  0.7561462E-02  0.1208717E+00
         -1   -1    0    0    0  501 -0.00000000000E+00  0.00000000000E+00  0.66100050325E+02  0.66100050325E+02  0.00000000000E+00 0.  1.
          1   -1    0    0  501    0  0.00000000000E+00 -0.00000000000E+00 -0.41897649758E+03  0.41897649758E+03  0.00000000000E+00 0. -1.
         23    2    1    2    0    0 -0.61422530174E+02 -0.98812455828E+02 -0.23493678106E+03  0.27748422436E+03  0.90915207935E+02 0.  0.
          5    1    1    2  502    0  0.82018180133E+02  0.15239543623E+02 -0.46122276644E+02  0.95414686317E+02  0.41800000000E+01 0.  1.
         -5    1    1    2    0  502 -0.20595649959E+02  0.83572912205E+02 -0.71817389545E+02  0.11217763722E+03  0.41800000000E+01 0.  1.
        -11    1    3    3    0    0 -0.49537099929E+02 -0.67142594906E+02 -0.69405190655E+02  0.10853171338E+03  0.00000000000E+00 0.  1.
         11    1    3    3    0    0 -0.11885430245E+02 -0.31669860922E+02 -0.16553159041E+03  0.16895251098E+03  0.00000000000E+00 0. -1.
</event>
<event>
 7    1  0.1758121E-005  0.1358945E+03  0.7561462E-02  0.1218963E+00
         -3   -1    0    0    0  501 -0.00000000000E+00  0.00000000000E+00  0.13688567464E+03  0.13688567464E+03  0.00000000000E+00 0.  1.
          3   -1    0    0  501    0  0.00000000000E+00 -0.00000000000E+00 -0.18073693182E+03  0.18073693182E+03  0.00000000000E+00 0. -1.
         23    2    1    2    0    0  0.15504882446E+02 -0.10479301934E+03 -0.65883321750E+02  0.15222799886E+03  0.87239745924E+02 0.  0.
          5    1    1    2  502    0  0.30086712588E+02  0.73759262466E+02  0.58695505815E+02  0.99036729938E+02  0.41800000000E+01 0.  1.
         -5    1    1    2    0  502 -0.45591595034E+02  0.31033756879E+02 -0.36663441243E+02  0.66357877660E+02  0.41800000000E+01 0.  1.
        -11    1    3    3    0    0  0.31568442441E+02 -0.11393485192E+03 -0.52236699164E+02  0.12925320026E+03  0.00000000000E+00 0.  1.
         11    1    3    3    0    0 -0.16063559995E+02  0.91418325704E+01 -0.13646622586E+02  0.22974798595E+02  0.00000000000E+00 0. -1.
</event>
<event>
 7    1  0.1758121E-005  0.2414316E+03  0.7561462E-02  0.1118843E+00
          2   -1    0    0  501    0  0.00000000000E+00  0.00000000000E+00  0.58770529624E+03  0.58770529624E+03  0.00000000000E+00 0.  1.
         -2   -1    0    0    0  501 -0.00000000000E+00 -0.00000000000E+00 -0.13097263862E+03  0.13097263862E+03  0.00000000000E+00 0. -1.
         23    2    1    2    0    0  0.39604093084E+00  0.22009400593E+03  0.39018233384E+03  0.45691819516E+03  0.89946957363E+02 0.  0.
          5    1    1    2  502    0 -0.58508707808E+02 -0.94437287395E+02  0.82320320661E+01  0.11147604627E+03  0.41800000000E+01 0. -1.
         -5    1    1    2    0  502  0.58112666877E+02 -0.12565671853E+03  0.58318291712E+02  0.15028369343E+03  0.41800000000E+01 0. -1.
        -11    1    3    3    0    0 -0.34467303954E+02  0.16034782606E+03  0.31232937993E+03  0.35277338609E+03  0.00000000000E+00 0. -1.
         11    1    3    3    0    0  0.34863344885E+02  0.59746179869E+02  0.77852953905E+02  0.10414480907E+03  0.00000000000E+00 0.  1.
</event>
<event>
 7    1  0.1758121E-005  0.1033626E+03  0.7561462E-02  0.1273380E+00
         -2   -1    0    0    0  501 -0.00000000000E+00  0.00000000000E+00  0.20809766774E+02  0.20809766774E+02  0.00000000000E+00 0.  1.
          2   -1    0    0  501    0  0.00000000000E+00 -0.00000000000E+00 -0.54874819886E+03  0.54874819886E+03  0.00000000000E+00 0. -1.
         23    2    1    2    0    0  0.88124604754E+01 -0.14885505579E+02 -0.20739280244E+03  0.22503572822E+03  0.85615808910E+02 0.  0.
          5    1    1    2  502    0  0.55508431114E+02 -0.11458989800E+01 -0.10329368142E+03  0.11734375157E+03  0.41800000000E+01 0. -1.
         -5    1    1    2    0  502 -0.64320891589E+02  0.16031404559E+02 -0.21725194822E+03  0.22717848585E+03  0.41800000000E+01 0. -1.
        -11    1    3    3    0    0 -0.36306482782E+02  0.22213642670E+01 -0.62439115554E+02  0.72261596317E+02  0.00000000000E+00 0.  1.
         11    1    3    3    0    0  0.45118943257E+02 -0.17106869846E+02 -0.14495368689E+03  0.15277413190E+03  0.00000000000E+00 0. -1.
</event>
<event>
 7    1  0.1758121E-005  0.6534075E+02  0.7561462E-02  0.1376694E+00
          1   -1    0    0  501    0  0.00000000000E+00  0.00000000000E+00  0.46406022195E+02  0.46406022195E+02  0.00000000000E+00 0. -1.
         -1   -1    0    0    0  501 -0.00000000000E+00 -0.00000000000E+00 -0.25787452275E+03  0.25787452275E+03  0.00000000000E+00 0.  1.
         23    2    1    2    0    0  0.10550802264E+02 -0.10494174896E+02 -0.77829196501E+02  0.12062954242E+03  0.90954139767E+02 0.  0.
          5    1    1    2  502    0  0.31953548827E+02  0.29741129896E+02 -0.19702748167E+01  0.43896679522E+02  0.41800000000E+01 0.  1.
         -5    1    1    2    0  502 -0.42504351091E+02 -0.19246955000E+02 -0.13166902924E+03  0.13975432301E+03  0.41800000000E+01 0.  1.
        -11    1    3    3    0    0  0.14718860639E+02  0.10818320753E+02 -0.92588011453E+02  0.94372775668E+02  0.00000000000E+00 0.  1.
         11    1    3    3    0    0 -0.41680583757E+01 -0.21312495649E+02  0.14758814952E+02  0.26256766750E+02  0.00000000000E+00 0. -1.
</event>
<event>
 7    1  0.1758121E-005  0.1184736E+03  0.7561462E-02  0.1245637E+00
         -1   -1    0    0    0  501 -0.00000000000E+00  0.00000000000E+00  0.50609152438E+03  0.50609152438E+03  0.00000000000E+00 0.  1.
          1   -1    0    0  501    0  0.00000000000E+00 -0.00000000000E+00 -0.37716417358E+02  0.37716417358E+02  0.00000000000E+00 0. -1.
         23    2    1    2    0    0  0.53108145679E+02  0.57533799932E+02  0.14473843529E+03  0.18811372009E+03  0.91142436686E+02 0.  0.
          5    1    1    2  502    0 -0.75241133457E+02  0.61331780147E+01  0.12720819757E+03  0.14798054590E+03  0.41800000000E+01 0.  1.
         -5    1    1    2    0  502  0.22132987777E+02 -0.63666977947E+02  0.19642847417E+03  0.20771367575E+03  0.41800000000E+01 0.  1.
        -11    1    3    3    0    0  0.41116452789E+02  0.67997030787E+01  0.12600497959E+03  0.13271794729E+03  0.00000000000E+00 0.  1.
         11    1    3    3    0    0  0.11991692891E+02  0.50734096853E+02  0.18733455701E+02  0.55395772803E+02  0.00000000000E+00 0. -1.
</event>
<event>
 7    1  0.1758121E-005  0.1322263E+03  0.7561462E-02  0.1224189E+00
         -1   -1    0    0    0  501 -0.00000000000E+00  0.00000000000E+00  0.12675803880E+03  0.12675803880E+03  0.00000000000E+00 0.  1.
          1   -1    0    0  501    0  0.00000000000E+00 -0.00000000000E+00 -0.22196343267E+03  0.22196343267E+03  0.00000000000E+00 0. -1.
         23    2    1    2    0    0 -0.83746744537E+02  0.36976469109E+02 -0.13595605099E+03  0.18846575285E+03  0.93029649616E+02 0.  0.
          5    1    1    2  502    0  0.50319868887E+02  0.30247283895E+02  0.58511613559E+02  0.82994389625E+02  0.41800000000E+01 0.  1.
         -5    1    1    2    0  502  0.33426875649E+02 -0.67223753005E+02 -0.17760956438E+02  0.77261328990E+02  0.41800000000E+01 0.  1.
        -11    1    3    3    0    0 -0.15965197329E+02 -0.30709037874E+02 -0.39689119738E+02  0.52660789573E+02  0.00000000000E+00 0. -1.
         11    1    3    3    0    0 -0.67781547208E+02  0.67685506983E+02 -0.96266931253E+02  0.13580496328E+03  0.00000000000E+00 0.  1.
</event>
<event>
 7    1  0.1758121E-005  0.9258257E+02  0.7561462E-02  0.1296715E+00
         -1   -1    0    0    0  501 -0.00000000000E+00  0.00000000000E+00  0.31200886939E+03  0.31200886939E+03  0.00000000000E+00 0.  1.
          1   -1    0    0  501    0  0.00000000000E+00 -0.00000000000E+00 -0.39805578452E+02  0.39805578452E+02  0.00000000000E+00 0. -1.
         23    2    1    2    0    0 -0.17386479909E+02  0.18209389699E+02  0.91630079989E+02  0.13070683224E+03  0.89745935162E+02 0.  0.
          5    1    1    2  502    0  0.63661482799E+02 -0.73750074782E+01  0.47906503526E+02  0.80122909380E+02  0.41800000000E+01 0. -1.
         -5    1    1    2    0  502 -0.46275002889E+02 -0.10834382221E+02  0.13266670742E+03  0.14098470623E+03  0.41800000000E+01 0. -1.
        -11    1    3    3    0    0 -0.32080899484E+02 -0.16110173870E+02  0.85687768539E+02  0.92903796968E+02  0.00000000000E+00 0.  1.
         11    1    3    3    0    0  0.14694419575E+02  0.34319563569E+02  0.59423114493E+01  0.37803035270E+02  0.00000000000E+00 0. -1.
</event>
<event>
 7    1  0.1758121E-005  0.1326399E+03  0.7561462E-02  0.1223590E+00
         -2   -1    0    0    0  501 -0.00000000000E+00  0.00000000000E+00  0.54755752280E+02  0.54755752280E+02  0.00000000000E+00 0.  1.
          2   -1    0    0  501    0  0.00000000000E+00 -0.00000000000E+00 -0.38035377353E+03  0.38035377353E+03  0.00000000000E+00 0. -1.
         23    2    1    2    0    0 -0.19680000462E+02 -0.80541425885E+02 -0.17234172258E+03  0.22061298933E+03  0.10997362419E+03 0.  0.
          5    1    1    2  502    0  0.33243018540E+02  0.10644311120E+03 -0.14656682629E+03  0.18421330346E+03  0.41800000000E+01 0. -1.
         -5    1    1    2    0  502 -0.13563018078E+02 -0.25901685315E+02 -0.66894723868E+01  0.30283233023E+02  0.41800000000E+01 0. -1.
        -11    1    3    3    0    0  0.32980200911E+02 -0.58313537352E+02 -0.44089616456E+02  0.80200103304E+02  0.00000000000E+00 0.  1.
         11    1    3    3    0    0 -0.52660201373E+02 -0.22227888533E+02 -0.12825210612E+03  0.14041288603E+03  0.00000000000E+00 0. -1.
</event>
<event>
 7    1  0.1758121E-005  0.1431277E+03  0.7561462E-02  0.1209181E+00
         -1   -1    0    0    0  501 -0.00000000000E+00  0.00000000000E+00  0.91083944689E+03  0.91083944689E+03  0.00000000000E+00 0.  1.
          1   -1    0    0  501    0  0.00000000000E+00 -0.00000000000E+00 -0.25479222703E+02  0.25479222703E+02  0.00000000000E+00 0. -1.
         23    2    1    2    0    0  0.95129446863E+02  0.26579724800E+02  0.47674671425E+03  0.49870337273E+03  0.10798856880E+03 0.  0.
          5    1    1    2  502    0  0.24006231882E+02  0.20384414030E+01  0.25349347660E+02  0.35220963066E+02  0.41800000000E+01 0. -1.
         -5    1    1    2    0  502 -0.11913567874E+03 -0.28618166203E+02  0.38326416228E+03  0.40239433380E+03  0.41800000000E+01 0.  1.
        -11    1    3    3    0    0  0.39525834404E+02 -0.37417917353E+02  0.11608309198E+03  0.12820950186E+03  0.00000000000E+00 0. -1.
         11    1    3    3    0    0  0.55603612459E+02  0.63997642153E+02  0.36066362227E+03  0.37049387087E+03  0.00000000000E+00 0.  1.
</event>
<event>
 7    1  0.1758121E-005  0.1338618E+03  0.7561462E-02  0.1221836E+00
          2   -1    0    0  501    0  0.00000000000E+00  0.00000000000E+00  0.54284658468E+03  0.54284658468E+03  0.00000000000E+00 0. -1.
         -2   -1    0    0    0  501 -0.00000000000E+00 -0.00000000000E+00 -0.39329363874E+02  0.39329363874E+02  0.00000000000E+00 0.  1.
         23    2    1    2    0    0 -0.96807471088E+02 -0.27603696917E+01  0.25845485912E+03  0.29048537616E+03  0.90573359562E+02 0.  0.
          5    1    1    2  502    0 -0.17347677085E+02  0.18509595906E+02  0.61947379395E+01  0.26446062447E+02  0.41800000000E+01 0. -1.
         -5    1    1    2    0  502  0.11415514817E+03 -0.15749226214E+02  0.23886762374E+03  0.26524450994E+03  0.41800000000E+01 0. -1.
        -11    1    3    3    0    0 -0.12916697147E+02 -0.34630121245E+02  0.40778259516E+02  0.55035922921E+02  0.00000000000E+00 0.  1.
         11    1    3    3    0    0 -0.83890773941E+02  0.31869751553E+02  0.21767659961E+03  0.23544945324E+03  0.00000000000E+00 0. -1.
</event>
<event>
 7    1  0.1758121E-005  0.1066517E+03  0.7561462E-02  0.1266899E+00
          1   -1    0    0  501    0  0.00000000000E+00  0.00000000000E+00  0.29981883133E+02  0.29981883133E+02  0.00000000000E+00 0. -1.
         -1   -1    0    0    0  501 -0.00000000000E+00 -0.00000000000E+00 -0.45187105819E+03  0.45187105819E+03  0.00000000000E+00 0.  1.
         23    2    1    2    0    0 -0.19069554633E+02  0.38359259111E+02 -0.18533325286E+03  0.21085508671E+03  0.90974569533E+02 0.  0.
          5    1    1    2  502    0  0.60541544171E+02 -0.47018460727E+01 -0.56171479691E+02  0.82825681149E+02  0.41800000000E+01 0.  1.
         -5    1    1    2    0  502 -0.41471989537E+02 -0.33657413038E+02 -0.18038444250E+03  0.18817217346E+03  0.41800000000E+01 0.  1.
        -11    1    3    3    0    0  0.35874860065E+02  0.19077651855E+02 -0.57748960830E+02  0.70610940101E+02  0.00000000000E+00 0. -1.
         11    1    3    3    0    0 -0.54944414698E+02  0.19281607256E+02 -0.12758429203E+03  0.14024414661E+03  0.00000000000E+00 0.  1.
</event>
<event>
 7    1  0.1758121E-005  0.1487824E+03  0.7561462E-02  0.1201977E+00
         -1   -1    0    0    0  501 -0.00000000000E+00  0.00000000000E+00  0.20816448688E+03  0.20816448688E+03  0.00000000000E+00 0.  1.
          1   -1    0    0  501    0  0.00000000000E+00 -0.00000000000E+00 -0.10864527274E+03  0.10864527274E+03  0.00000000000E+00 0. -1.
         23    2    1    2    0    0  0.86630828264E+02  0.55213349934E+02  0.38243198568E+02  0.14373301901E+03  0.92968941594E+02 0.  0.
          5    1    1    2  502    0  0.27375476925E+02  0.76922160250E+01  0.24346084264E+02  0.37666844083E+02  0.41800000000E+01 0. -1.
         -5    1    1    2    0  502 -0.11400630519E+03 -0.62905565959E+02  0.36929931310E+02  0.13540989653E+03  0.41800000000E+01 0. -1.
        -11    1    3    3    0    0  0.68874519341E+02  0.81575403559E+02  0.29983689094E+02  0.11089304528E+03  0.00000000000E+00 0.  1.
         11    1    3    3    0    0  0.17756308922E+02 -0.26362053625E+02  0.82595094738E+01  0.32839973730E+02  0.00000000000E+00 0. -1.
</event>
<event>
 7    1  0.1758121E-005  0.1335890E+03  0.7561462E-02  0.1222225E+00
         -1   -1    0    0    0  501 -0.00000000000E+00  0.00000000000E+00  0.13458220458E+03  0.13458220458E+03  0.00000000000E+00 0.  1.
          1   -1    0    0  501    0  0.00000000000E+00 -0.00000000000E+00 -0.17915191250E+03  0.17915191250E+03  0.00000000000E+00 0. -1.
         23    2    1    2    0    0 -0.75753261233E+02  0.37295431518E+02 -0.95096556806E+02  0.15457668037E+03  0.87869728558E+02 0.  0.
          5    1    1    2  502    0  0.94407369577E+02  0.14594840984E+02  0.32595649087E+02  0.10102331193E+03  0.41800000000E+01 0.  1.
         -5    1    1    2    0  502 -0.18654108344E+02 -0.51890272503E+02  0.17931199797E+02  0.58134124786E+02  0.41800000000E+01 0.  1.
        -11    1    3    3    0    0 -0.25353070428E+01 -0.21935643002E+02 -0.39392694633E+02  0.45159546124E+02  0.00000000000E+00 0. -1.
         11    1    3    3    0    0 -0.73217954190E+02  0.59231074520E+02 -0.55703862173E+02  0.10941713424E+03  0.00000000000E+00 0.  1.
</event>
<event>
 7    1  0.1758121E-005  0.1676672E+03  0.7561462E-02  0.1180303E+00
         -2   -1    0    0    0  501 -0.00000000000E+00  0.00000000000E+00  0.54413707634E+02  0.54413707634E+02  0.00000000000E+00 0.  1.
          2   -1    0    0  501    0  0.00000000000E+00 -0.00000000000E+00 -0.69666056537E+03  0.69666056537E+03  0.00000000000E+00 0. -1.
         23    2    1    2    0    0  0.59094328863E+02 -0.12716069643E+03 -0.45898689598E+03  0.48859872287E+03  0.91639286801E+02 0.  0.
          5    1    1    2  502    0 -0.51109513120E+02  0.14768090628E+03 -0.18214787361E+03  0.24003573207E+03  0.41800000000E+01 0. -1.
         -5    1    1    2    0  502 -0.79848157424E+01 -0.20520209843E+02 -0.11120881377E+01  0.22439818057E+02  0.41800000000E+01 0. -1.
        -11    1    3    3    0    0 -0.16136040262E+02 -0.23641670302E+02 -0.17211509830E+03  0.17447895985E+03  0.00000000000E+00 0. -1.
         11    1    3    3    0    0  0.75230369125E+02 -0.10351902613E+03 -0.28687179768E+03  0.31411976302E+03  0.00000000000E+00 0.  1.
</event>
<event>
 7    1  0.1758121E-005  0.1058318E+03  0.7561462E-02  0.1268489E+00
          1   -1    0    0  501    0  0.00000000000E+00  0.00000000000E+00  0.34576435437E+03  0.34576435437E+03  0.00000000000E+00 0. -1.
         -1   -1    0    0    0  501 -0.00000000000E+00 -0.00000000000E+00 -0.39893913487E+02  0.39893913487E+02  0.00000000000E+00 0.  1.
         23    2    1    2    0    0  0.29710351566E+02 -0.92787344253E+01  0.18977356029E+03  0.21218010143E+03  0.89652614870E+02 0.  0.
          5    1    1    2  502    0  0.30807126926E+02  0.46628541382E+02  0.64918130338E+02  0.85762089453E+02  0.41800000000E+01 0.  1.
         -5    1    1    2    0  502 -0.60517478492E+02 -0.37349806956E+02  0.51178750254E+02  0.87716076977E+02  0.41800000000E+01 0.  1.
        -11    1    3    3    0    0  0.56772832207E+02 -0.74388882598E+01  0.16770994536E+03  0.17721489020E+03  0.00000000000E+00 0.  1.
         11    1    3    3    0    0 -0.27062480641E+02 -0.18398461655E+01  0.22063614931E+02  0.34965211227E+02  0.00000000000E+00 0. -1.
</event>
<event>
 7    1  0.1758121E-005  0.1163764E+03  0.7561462E-02  0.1249197E+00
         -3   -1    0    0    0  501 -0.00000000000E+00  0.00000000000E+00  0.11960515064E+03  0.11960515064E+03  0.00000000000E+00 0.  1.
          3   -1    0    0  501    0  0.00000000000E+00 -0.00000000000E+00 -0.12188615241E+03  0.12188615241E+03  0.00000000000E+00 0. -1.
         23    2    1    2    0    0  0.43252599028E+02  0.14821673737E+02 -0.25901734646E+02  0.10622795452E+03  0.92320144762E+02 0.  0.
          5    1    1    2  502    0 -0.82652009948E+02  0.10300389703E+02  0.28417574636E+02  0.88104958571E+02  0.41800000000E+01 0.  1.
         -5    1    1    2    0  502  0.39399410921E+02 -0.25122063440E+02 -0.47968417648E+01  0.47158389957E+02  0.41800000000E+01 0.  1.
        -11    1    3    3    0    0  0.54015680903E+02 -0.26198681734E+02 -0.96137491219E+01  0.60798757226E+02  0.00000000000E+00 0. -1.
         11    1    3    3    0    0 -0.10763081876E+02  0.41020355471E+02 -0.16287985524E+02  0.45429197295E+02  0.00000000000E+00 0.  1.
</event>
<event>
 7    1  0.1758121E-005  0.9561272E+02  0.7561462E-02  0.1289802E+00
          2   -1    0    0  501    0  0.00000000000E+00  0.00000000000E+00  0.42681008738E+03  0.42681008738E+03  0.00000000000E+00 0. -1.
         -2   -1    0    0    0  501 -0.00000000000E+00 -0.00000000000E+00 -0.31199812441E+02  0.31199812441E+02  0.00000000000E+00 0.  1.
         23    2    1    2    0    0  0.71801611759E+01 -0.21858192232E+02  0.23686456839E+03  0.25458773234E+03  0.90447523004E+02 0.  0.
          5    1    1    2  502    0 -0.54315706044E+02 -0.10907589384E+02  0.31744626251E+02  0.63987226264E+02  0.41800000000E+01 0.  1.
         -5    1    1    2    0  502  0.47135544868E+02  0.32765781617E+02  0.12700108029E+03  0.13943494121E+03  0.41800000000E+01 0.  1.
        -11    1    3    3    0    0 -0.33327119662E+02 -0.31002008893E+01  0.37405446806E+02  0.50194378184E+02  0.00000000000E+00 0.  1.
         11    1    3    3    0    0  0.40507280838E+02 -0.18757991343E+02  0.19945912158E+03  0.20439335416E+03  0.00000000000E+00 0. -1.
</event>
<event>
 7    1  0.1758121E-005  0.1315712E+03  0.7561462E-02  0.1225143E+00
         -1   -1    0    0    0  501 -0.00000000000E+00  0.00000000000E+00  0.10649670751E+03  0.10649670751E+03  0.00000000000E+00 0.  1.
          1   -1    0    0  501    0  0.00000000000E+00 -0.00000000000E+00 -0.26025750221E+03  0.26025750221E+03  0.00000000000E+00 0. -1.
         23    2    1    2    0    0 -0.10318560202E+03 -0.16215714781E+02 -0.14763930711E+03  0.20367405405E+03  0.93677838473E+02 0.  0.
          5    1    1    2  502    0  0.10597491958E+03 -0.31518783759E+02  0.13021457113E+02  0.11140533225E+03  0.41800000000E+01 0. -1.
         -5    1    1    2    0  502 -0.27893175553E+01  0.47734498540E+02 -0.19142944705E+02  0.51674823418E+02  0.41800000000E+01 0. -1.
        -11    1    3    3    0    0 -0.14864454894E+02 -0.34968553531E+01  0.12908349705E+02  0.19995137128E+02  0.00000000000E+00 0.  1.
         11    1    3    3    0    0 -0.88321147127E+02 -0.12718859428E+02 -0.16054765681E+03  0.18367891692E+03  0.00000000000E+00 0. -1.
</event>
<event>
 7    1  0.1758121E-005  0.8180465E+02  0.7561462E-02  0.1324007E+00
         -1   -1    0    0    0  501 -0.00000000000E+00  0.00000000000E+00  0.46625736102E+02  0.46625736102E+02  0.00000000000E+00 0.  1.
          1   -1    0    0  501    0  0.00000000000E+00 -0.00000000000E+00 -0.27216674386E+03  0.27216674386E+03  0.00000000000E+00 0. -1.
         23    2    1    2    0    0  0.10774575479E+02 -0.27258094480E+02 -0.78232720262E+02  0.12332755688E+03  0.90720629273E+02 0.  0.
          5    1    1    2  502    0  0.10083756227E+02 -0.39673148077E+02 -0.11746980432E+02  0.42791409970E+02  0.41800000000E+01 0.  1.
         -5    1    1    2    0  502 -0.20858331706E+02  0.66931242557E+02 -0.13556130706E+03  0.15267351310E+03  0.41800000000E+01 0.  1.
        -11    1    3    3    0    0 -0.16524251029E+02 -0.14959938555E+02  0.14023361717E+02  0.26334488935E+02  0.00000000000E+00 0.  1.
         11    1    3    3    0    0  0.27298826508E+02 -0.12298155925E+02 -0.92256081979E+02  0.96993067948E+02  0.00000000000E+00 0. -1.
</event>
<event>
 7    1  0.1758121E-005  0.1026003E+03  0.7561462E-02  0.1274921E+00
          1   -1    0    0  501    0  0.00000000000E+00  0.00000000000E+00  0.32882846389E+03  0.32882846389E+03  0.00000000000E+00 0. -1.
         -1   -1    0    0    0  501 -0.00000000000E+00 -0.00000000000E+00 -0.49823068545E+02  0.49823068545E+02  0.00000000000E+00 0.  1.
         23    2    1    2    0    0  0.64254266520E+02 -0.70018692959E+01  0.15801177329E+03  0.19300517147E+03  0.90031321084E+02 0.  0.
          5    1    1    2  502    0 -0.16011023599E+02  0.34879631640E+02 -0.12785027919E+02  0.40667811828E+02  0.41800000000E+01 0. -1.
         -5    1    1    2    0  502 -0.48243242921E+02 -0.27877762344E+02  0.13377864997E+03  0.14497854913E+03  0.41800000000E+01 0. -1.
        -11    1    3    3    0    0 -0.23119667936E+02 -0.10734355187E+01  0.36628152273E+02  0.43327737631E+02  0.00000000000E+00 0.  1.
         11    1    3    3    0    0  0.87373934456E+02 -0.59284337772E+01  0.12138362102E+03  0.14967743384E+03  0.00000000000E+00 0. -1.
</event>
<event>
 7    1  0.1758121E-005  0.1022079E+03  0.7561462E-02  0.1275720E+00
         -2   -1    0    0    0  501 -0.00000000000E+00  0.00000000000E+00  0.38041021588E+02  0.38041021588E+02  0.00000000000E+00 0.  1.
          2   -1    0    0  501    0  0.00000000000E+00 -0.00000000000E+00 -0.43028733888E+03  0.43028733888E+03  0.00000000000E+00 0. -1.
         23    2    1    2    0    0  0.33212469242E+02  0.40641256618E+02 -0.24687321809E+03  0.26948539339E+03  0.94452165602E+02 0.  0.
          5    1    1    2  502    0 -0.24963903757E+02  0.21805911066E+02  0.68010321387E+01  0.34094291111E+02  0.41800000000E+01 0. -1.
         -5    1    1    2    0  502 -0.82485654852E+01 -0.62447167684E+02 -0.15217413134E+03  0.16474867597E+03  0.41800000000E+01 0. -1.
        -11    1    3    3    0    0  0.38642091952E+02 -0.22359176444E+02 -0.10982771616E+03  0.11855492938E+03  0.00000000000E+00 0.  1.
         11    1    3    3    0    0 -0.54296227098E+01  0.63000433061E+02 -0.13704550192E+03  0.15093046401E+03  0.00000000000E+00 0. -1.
</event>
<event>
 7    1  0.1758121E-005  0.8179038E+02  0.7561462E-02  0.1324046E+00
          1   -1    0    0  501    0  0.00000000000E+00  0.00000000000E+00  0.61242751668E+02  0.61242751668E+02  0.00000000000E+00 0. -1.
         -1   -1    0    0    0  501 -0.00000000000E+00 -0.00000000000E+00 -0.20046034661E+03  0.20046034661E+03  0.00000000000E+00 0.  1.
         23    2    1    2    0    0  0.38222969522E+01  0.99836282075E+01 -0.27928142693E+02  0.93931995598E+02  0.89044684606E+02 0.  0.
          5    1    1    2  502    0 -0.26671456008E+02 -0.33566892027E+02  0.81403880675E+01  0.43838808422E+02  0.41800000000E+01 0. -1.
         -5    1    1    2    0  502  0.22849159056E+02  0.23583263820E+02 -0.11942984032E+03  0.12393229426E+03  0.41800000000E+01 0. -1.
        -11    1    3    3    0    0  0.44846613520E+02  0.11681992068E+02 -0.25273729933E+02  0.52786827027E+02  0.00000000000E+00 0. -1.
         11    1    3    3    0    0 -0.41024316568E+02 -0.16983638601E+01 -0.26544127603E+01  0.41145168571E+02  0.00000000000E+00 0.  1.
</event>
<event>
 7    1  0.1758121E-005  0.9650856E+02  0.7561462E-02  0.1287814E+00
         -2   -1    0    0    0  501 -0.00000000000E+00  0.00000000000E+00  0.16664856993E+04  0.16664856993E+04  0.00000000000E+00 0.  1.
          2   -1    0    0  501    0  0.00000000000E+00 -0.00000000000E+00 -0.97244678266E+01  0.97244678266E+01  0.00000000000E+00 0. -1.
         23    2    1    2    0    0 -0.58842333173E+02  0.65823876669E+01  0.56469311333E+03  0.57540759537E+03  0.93326526585E+02 0.  0.
          5    1    1    2  502    0  0.57882050148E+02  0.15470362676E+02  0.20924996172E+03  0.21769860525E+03  0.41800000000E+01 0.  1.
         -5    1    1    2    0  502  0.96028302480E+00 -0.22052750343E+02  0.88281815641E+03  0.88310396649E+03  0.41800000000E+01 0.  1.
        -11    1    3    3    0    0 -0.78032809345E+02  0.26904443641E+02  0.42781913475E+03  0.43570882534E+03  0.00000000000E+00 0. -1.
         11    1    3    3    0    0  0.19190476172E+02 -0.20322055974E+02  0.13687397858E+03  0.13969877002E+03  0.00000000000E+00 0.  1.
</event>
<event>
 7    1  0.1758121E-005  0.1229325E+03  0.7561462E-02  0.1238336E+00
         -2   -1    0    0    0  501 -0.00000000000E+00  0.00000000000E+00  0.10081398141E+03  0.10081398141E+03  0.00000000000E+00 0.  1.
          2   -1    0    0  501    0  0.00000000000E+00 -0.00000000000E+00 -0.16414014091E+03  0.16414014091E+03  0.00000000000E+00 0. -1.
         23    2    1    2    0    0 -0.61752810101E+02  0.21513156336E+02 -0.52408014673E+02  0.12338061130E+03  0.90553574151E+02 0.  0.
          5    1    1    2  502    0 -0.36848891203E+02 -0.23406473436E+01 -0.16981729273E+02  0.40855488517E+02  0.41800000000E+01 0.  1.
         -5    1    1    2    0  502  0.98601701304E+02 -0.19172508992E+02  0.60635844482E+01  0.10071802251E+03  0.41800000000E+01 0.  1.
        -11    1    3    3    0    0 -0.65571504743E+02 -0.18377159553E+02 -0.47457381404E+02  0.83003284737E+02  0.00000000000E+00 0. -1.
         11    1    3    3    0    0  0.38186946418E+01  0.39890315888E+02 -0.49506332682E+01  0.40377326561E+02  0.00000000000E+00 0.  1.
</event>
<event>
 7    1  0.1758121E-005  0.1047655E+03  0.7561462E-02  0.1270582E+00
         -2   -1    0    0    0  501 -0.00000000000E+00  0.00000000000E+00  0.42157190697E+02  0.42157190697E+02  0.00000000000E+00 0.  1.
          2   -1    0    0  501    0  0.00000000000E+00 -0.00000000000E+00 -0.62168900692E+03  0.62168900692E+03  0.00000000000E+00 0. -1.
         23    2    1    2    0    0  0.27016860979E+02  0.71824794662E+02 -0.45817475686E+03  0.47341614951E+03  0.91159370816E+02 0.  0.
          5    1    1    2  502    0 -0.42236336282E+02 -0.31075128295E+02 -0.13480790770E+03  0.14470734633E+03  0.41800000000E+01 0. -1.
         -5    1    1    2    0  502  0.15219475303E+02 -0.40749666367E+02  0.13450848338E+02  0.45722701785E+02  0.41800000000E+01 0. -1.
        -11    1    3    3    0    0 -0.21773092098E+02  0.58841881244E+02 -0.32482276676E+03  0.33082663788E+03  0.00000000000E+00 0.  1.
         11    1    3    3    0    0  0.48789953077E+02  0.12982913418E+02 -0.13335199010E+03  0.14258951162E+03  0.00000000000E+00 0. -1.
</event>
<event>
 7    1  0.1758121E-005  0.1656495E+03  0.7561462E-02  0.1182462E+00
         -2   -1    0    0    0  501 -0.00000000000E+00  0.00000000000E+00  0.54838235053E+02  0.54838235053E+02  0.00000000000E+00 0.  1.
          2   -1    0    0  501    0  0.00000000000E+00 -0.00000000000E+00 -0.52848026839E+03  0.52848026839E+03  0.00000000000E+00 0. -1.
         23    2    1    2    0    0 -0.11623333819E+03  0.49111401351E+02 -0.26923047053E+03  0.31247998639E+03  0.96107112011E+02 0.  0.
          5    1    1    2  502    0  0.82612114329E+02  0.31318752318E+02 -0.12290582174E+03  0.15142304679E+03  0.41800000000E+01 0.  1.
         -5    1    1    2    0  502  0.33621223861E+02 -0.80430153670E+02 -0.81505741062E+02  0.11941547027E+03  0.41800000000E+01 0.  1.
        -11    1    3    3    0    0 -0.70276256455E+02 -0.19558009459E+02 -0.15693638468E+03  0.17306154048E+03  0.00000000000E+00 0. -1.
         11    1    3    3    0    0 -0.45957081735E+02  0.68669410810E+02 -0.11229408585E+03  0.13941844591E+03  0.00000000000E+00 0.  1.
</event>
<event>
 7    1  0.1918367E-005  0.1031281E+03  0.7561462E-02  0.1273852E+00
          1   -1    0    0  501    0  0.00000000000E+00  0.00000000000E+00  0.16560514694E+03  0.16560514694E+03  0.00000000000E+00 0. -1.
         -1   -1    0    0    0  501 -0.00000000000E+00 -0.00000000000E+00 -0.68923036195E+02  0.68923036195E+02  0.00000000000E+00 0.  1.
         23    2    1    2    0    0  0.28239208578E+02 -0.39161918862E+02  0.54743793178E+02  0.94035655002E+02  0.59285012693E+02 0.  0.
          5    1    1    2  502    0 -0.39535416195E+02  0.81156941411E+02  0.29602411177E+02  0.95096127263E+02  0.41800000000E+01 0.  1.
         -5    1    1    2    0  502  0.11296207617E+02 -0.41995022549E+02  0.12335906387E+02  0.45396400868E+02  0.41800000000E+01 0.  1.
        -11    1    3    3    0    0  0.30451344082E+02  0.24280329837E+01  0.83059491158E+01  0.31657044892E+02  0.00000000000E+00 0.  1.
         11    1    3    3    0    0 -0.22121355041E+01 -0.41589951846E+02  0.46437844063E+02  0.62378610110E+02  0.00000000000E+00 0. -1.
</event>
<event>
 7    1  0.1758121E-005  0.7429844E+02  0.7561462E-02  0.1346057E+00
          2   -1    0    0  501    0  0.00000000000E+00  0.00000000000E+00  0.26327406240E+02  0.26327406240E+02  0.00000000000E+00 0. -1.
         -2   -1    0    0    0  501 -0.00000000000E+00 -0.00000000000E+00 -0.56802600388E+03  0.56802600388E+03  0.00000000000E+00 0.  1.
         23    2    1    2    0    0  0.26923064409E+02 -0.12023062150E+02 -0.11860282679E+03  0.15216430063E+03  0.90652845753E+02 0.  0.
          5    1    1    2  502    0  0.74432036614E+01 -0.12942617628E+02  0.13865950265E+01  0.15566235177E+02  0.41800000000E+01 0. -1.
         -5    1    1    2    0  502 -0.34366268070E+02  0.24965679778E+02 -0.42448236588E+03  0.42662287432E+03  0.41800000000E+01 0. -1.
        -11    1    3    3    0    0  0.34909010647E+02  0.30979017246E+02 -0.85142435918E+02  0.97095689543E+02  0.00000000000E+00 0. -1.
         11    1    3    3    0    0 -0.79859462383E+01 -0.43002079396E+02 -0.33460390875E+02  0.55068611088E+02  0.00000000000E+00 0.  1.
</event>
<event>
 7    1  0.1758121E-005  0.1057314E+03  0.7561462E-02  0.1268685E+00
         -1   -1    0    0    0  501 -0.00000000000E+00  0.00000000000E+00  0.11740377874E+04  0.11740377874E+04  0.00000000000E+00 0.  1.
          1   -1    0    0  501    0  0.00000000000E+00 -0.00000000000E+00 -0.11357786269E+02  0.11357786269E+02  0.00000000000E+00 0. -1.
         23    2    1    2    0    0  0.16340940797E+02  0.11171200122E+02  0.32399099572E+03  0.33719817068E+03  0.91326989110E+02 0.  0.
          5    1    1    2  502    0  0.41098885916E+02  0.30164822659E+02  0.46830222832E+03  0.47108755492E+03  0.41800000000E+01 0.  1.
         -5    1    1    2    0  502 -0.57439826713E+02 -0.41336022781E+02  0.37038677712E+03  0.37710984810E+03  0.41800000000E+01 0.  1.
        -11    1    3    3    0    0 -0.51925694067E+01 -0.36628216036E+02  0.18468669048E+03  0.18835541571E+03  0.00000000000E+00 0.  1.
         11    1    3    3    0    0  0.21533510204E+02  0.47799416158E+02  0.13930430524E+03  0.14884275497E+03  0.00000000000E+00 0. -1.
</event>
<event>
 7    1  0.1758121E-005  0.9846079E+02  0.7561462E-02  0.1283566E+00
          1   -1    0    0  501    0  0.00000000000E+00  0.00000000000E+00  0.38696029564E+03  0.38696029564E+03  0.00000000000E+00 0. -1.
         -1   -1    0    0    0  501 -0.00000000000E+00 -0.00000000000E+00 -0.32644224861E+02  0.32644224861E+02  0.00000000000E+00 0.  1.
         23    2    1    2    0    0  0.24516471855E+01  0.25673007474E+02  0.14906190660E+03  0.17785889801E+03  0.93537274465E+02 0.  0.
          5    1    1    2  502    0  0.55055719708E+02  0.10816356347E+02  0.66404757970E+02  0.87035568121E+02  0.41800000000E+01 0.  1.
         -5    1    1    2    0  502 -0.57507366894E+02 -0.36489363821E+02  0.13884940621E+03  0.15471005437E+03  0.41800000000E+01 0.  1.
        -11    1    3    3    0    0  0.35083649348E+02  0.12908655921E+02  0.13503820334E+03  0.14011713747E+03  0.00000000000E+00 0. -1.
         11    1    3    3    0    0 -0.32632002163E+02  0.12764351553E+02  0.14023703256E+02  0.37741760541E+02  0.00000000000E+00 0.  1.
</event>
<event>
 7    1  0.1758121E-005  0.1032499E+03  0.7561462E-02  0.1273607E+00
         -2   -1    0    0    0  501 -0.00000000000E+00  0.00000000000E+00  0.26877109854E+02  0.26877109854E+02  0.00000000000E+00 0.  1.
          2   -1    0    0  501    0  0.00000000000E+00 -0.00000000000E+00 -0.55165503071E+03  0.55165503071E+03  0.00000000000E+00 0. -1.
         23    2    1    2    0    0  0.37657254521E+02 -0.82015662607E+01 -0.32118055224E+03  0.33648855860E+03  0.92640533370E+02 0.  0.
          5    1    1    2  502    0 -0.61017543639E+02  0.47604338818E+02 -0.16383572690E+03  0.18124274197E+03  0.41800000000E+01 0.  1.
         -5    1    1    2    0  502  0.23360289118E+02 -0.39402772557E+02 -0.39761641713E+02  0.60800839999E+02  0.41800000000E+01 0.  1.
        -11    1    3    3    0    0  0.27920228453E+01  0.30661675711E+02 -0.39870759298E+02  0.50374707900E+02  0.00000000000E+00 0.  1.
         11    1    3    3    0    0  0.34865231676E+02 -0.38863241972E+02 -0.28130979295E+03  0.28611385070E+03  0.00000000000E+00 0. -1.
</event>
<event>
 7    1  0.1758121E-005  0.1017153E+03  0.7561462E-02  0.1276730E+00
          1   -1    0    0  501    0  0.00000000000E+00  0.00000000000E+00  0.53299313739E+03  0.53299313739E+03  0.00000000000E+00 0. -1.
         -1   -1    0    0    0  501 -0.00000000000E+00 -0.00000000000E+00 -0.22958160569E+02  0.22958160569E+02  0.00000000000E+00 0.  1.
         23    2    1    2    0    0  0.10340553622E+02 -0.85187106680E+01  0.26108336833E+03  0.27701833668E+03  0.91624986522E+02 0.  0.
          5    1    1    2  502    0 -0.87742914873E+01  0.61845392546E+02  0.79252942227E+02  0.10099674263E+03  0.41800000000E+01 0. -1.
         -5    1    1    2    0  502 -0.15662621349E+01 -0.53326681878E+02  0.16969866626E+03  0.17793621865E+03  0.41800000000E+01 0. -1.
        -11    1    3    3    0    0 -0.31418069392E+01  0.38383303999E+02  0.16270748919E+03  0.16720309811E+03  0.00000000000E+00 0. -1.
         11    1    3    3    0    0  0.13482360561E+02 -0.46902014667E+02  0.98375879138E+02  0.10981523857E+03  0.00000000000E+00 0.  1.
</event>
<event>
 7    1  0.1758121E-005  0.8486131E+02  0.7561462E-02  0.1315796E+00
          2   -1    0    0  501    0  0.00000000000E+00  0.00000000000E+00  0.35547715452E+03  0.35547715452E+03  0.00000000000E+00 0.  1.
         -2   -1    0    0    0  501 -0.00000000000E+00 -0.00000000000E+00 -0.42712867850E+02  0.42712867850E+02  0.00000000000E+00 0. -1.
         23    2    1    2    0    0 -0.19894472769E+02 -0.46580105164E+02  0.18888271902E+03  0.21499567277E+03  0.89336227388E+02 0.  0.
          5    1    1    2  502    0  0.32378782215E+02 -0.18943734813E+01  0.12864683773E+03  0.13273829683E+03  0.41800000000E+01 0.  1.
         -5    1    1    2    0  502 -0.12484309445E+02  0.48474478645E+02 -0.47652700691E+01  0.50456052770E+02  0.41800000000E+01 0.  1.
        -11    1    3    3    0    0  0.20855625364E+02 -0.40545908311E+02  0.15527580197E+03  0.16183171032E+03  0.00000000000E+00 0.  1.
         11    1    3    3    0    0 -0.40750098134E+02 -0.60341968531E+01  0.33606917050E+02  0.53163962448E+02  0.00000000000E+00 0. -1.
</event>
<event>
 7    1  0.1758121E-005  0.1101970E+03  0.7561462E-02  0.1260206E+00
          1   -1    0    0  501    0  0.00000000000E+00  0.00000000000E+00  0.61496855193E+02  0.61496855193E+02  0.00000000000E+00 0. -1.
         -1   -1    0    0    0  501 -0.00000000000E+00 -0.00000000000E+00 -0.29323436215E+03  0.29323436215E+03  0.00000000000E+00 0.  1.
         23    2    1    2    0    0  0.34948003067E+02  0.22994447907E+02 -0.15937052729E+02  0.10180897767E+03  0.91438343876E+02 0.  0.
          5    1    1    2  502    0 -0.33874567408E+02  0.42819728708E+02 -0.15031689750E+03  0.15998017864E+03  0.41800000000E+01 0. -1.
         -5    1    1    2    0  502 -0.10734356590E+01 -0.65814176616E+02 -0.65483556723E+02  0.92942061032E+02  0.41800000000E+01 0. -1.
        -11    1    3    3    0    0 -0.29890370210E+02 -0.25326724693E+01  0.13020641102E+01  0.30025722840E+02  0.00000000000E+00 0. -1.
         11    1    3    3    0    0  0.64838373277E+02  0.25527120377E+02 -0.17239116839E+02  0.71783254826E+02  0.00000000000E+00 0.  1.
</event>
<event>
 7    1  0.1758121E-005  0.2076936E+03  0.7561462E-02  0.1143406E+00
          1   -1    0    0  501    0  0.00000000000E+00  0.00000000000E+00  0.14000988394E+03  0.14000988394E+03  0.00000000000E+00 0. -1.
         -1   -1    0    0    0  501 -0.00000000000E+00 -0.00000000000E+00 -0.33010534768E+03  0.33010534768E+03  0.00000000000E+00 0.  1.
         23    2    1    2    0    0 -0.17020544140E+03 -0.72729895715E+02 -0.89796483248E+02  0.22506052687E+03  0.91265011586E+02 0.  0.
          5    1    1    2  502    0 -0.71693626983E+00  0.42805387668E+02 -0.46480057393E+02  0.63329956152E+02  0.41800000000E+01 0.  1.
         -5    1    1    2    0  502  0.17092237767E+03  0.29924508047E+02 -0.53818923101E+02  0.18172474860E+03  0.41800000000E+01 0.  1.
        -11    1    3    3    0    0 -0.11525868843E+03 -0.10427955623E+02 -0.21923129632E+02  0.11778765271E+03  0.00000000000E+00 0. -1.
         11    1    3    3    0    0 -0.54946752972E+02 -0.62301940092E+02 -0.67873353616E+02  0.10727287417E+03  0.00000000000E+00 0.  1.
</event>
<event>
 7    1  0.1758121E-005  0.1153802E+03  0.7561462E-02  0.1250919E+00
          1   -1    0    0  501    0  0.00000000000E+00  0.00000000000E+00  0.25304493236E+03  0.25304493236E+03  0.00000000000E+00 0. -1.
         -1   -1    0    0    0  501 -0.00000000000E+00 -0.00000000000E+00 -0.79261143299E+02  0.79261143299E+02  0.00000000000E+00 0.  1.
         23    2    1    2    0    0  0.66977134517E+02  0.26926993869E+02  0.14781679433E+03  0.18556600815E+03  0.85871643443E+02 0.  0.
          5    1    1    2  502    0  0.35929759306E+02 -0.11064889336E+02 -0.46942771932E+01  0.38116768202E+02  0.41800000000E+01 0.  1.
         -5    1    1    2    0  502 -0.10290689382E+03 -0.15862104534E+02  0.30661271927E+02  0.10862329931E+03  0.41800000000E+01 0.  1.
        -11    1    3    3    0    0  0.36236979040E+02  0.41171879436E+02  0.29058914348E+02  0.62069822050E+02  0.00000000000E+00 0.  1.
         11    1    3    3    0    0  0.30740155477E+02 -0.14244885566E+02  0.11875787998E+03  0.12349618610E+03  0.00000000000E+00 0. -1.
</event>
<event>
 7    1  0.1758121E-005  0.1195109E+03  0.7561462E-02  0.1243906E+00
          1   -1    0    0  501    0  0.00000000000E+00  0.00000000000E+00  0.39246333278E+03  0.39246333278E+03  0.00000000000E+00 0. -1.
         -1   -1    0    0    0  501 -0.00000000000E+00 -0.00000000000E+00 -0.38210833240E+02  0.38210833240E+02  0.00000000000E+00 0.  1.
         23    2    1    2    0    0  0.20523578579E+02 -0.53936400800E+02  0.14755949810E+03  0.18228614337E+03  0.90133678370E+02 0.  0.
          5    1    1    2  502    0 -0.64170135420E+02 -0.38445460858E+01  0.11058524393E+03  0.12798107434E+03  0.41800000000E+01 0. -1.
         -5    1    1    2    0  502  0.43646556842E+02  0.57780946885E+02  0.96107757504E+02  0.12040694830E+03  0.41800000000E+01 0. -1.
        -11    1    3    3    0    0 -0.32887820524E+02 -0.25076609408E+02  0.88025061439E+02  0.97256652829E+02  0.00000000000E+00 0. -1.
         11    1    3    3    0    0  0.53411399103E+02 -0.28859791391E+02  0.59534436666E+02  0.85029490545E+02  0.00000000000E+00 0.  1.
</event>
<event>
 7    1  0.1758121E-005  0.9467732E+02  0.7561462E-02  0.1291904E+00
          1   -1    0    0  501    0  0.00000000000E+00  0.00000000000E+00  0.24202028932E+03  0.24202028932E+03  0.00000000000E+00 0. -1.
         -1   -1    0    0    0  501 -0.00000000000E+00 -0.00000000000E+00 -0.55641775081E+02  0.55641775081E+02  0.00000000000E+00 0.  1.
         23    2    1    2    0    0 -0.26218795407E+02  0.20606397305E+02  0.11385894434E+03  0.14927640351E+03  0.90595455716E+02 0.  0.
          5    1    1    2  502    0  0.60317734624E+02  0.16541652400E+02  0.34681071023E+01  0.62780216161E+02  0.41800000000E+01 0.  1.
         -5    1    1    2    0  502 -0.34098939218E+02 -0.37148049705E+02  0.69051462788E+02  0.85605444721E+02  0.41800000000E+01 0.  1.
        -11    1    3    3    0    0 -0.10299234760E+02  0.45429703209E+02  0.19645704488E+02  0.50555769949E+02  0.00000000000E+00 0.  1.
         11    1    3    3    0    0 -0.15919560647E+02 -0.24823305904E+02  0.94213239857E+02  0.98720633565E+02  0.00000000000E+00 0. -1.
</event>
<event>
 7    1  0.1758121E-005  0.1156980E+03  0.7561462E-02  0.1250368E+00
         -1   -1    0    0    0  501 -0.00000000000E+00  0.00000000000E+00  0.15410202532E+02  0.15410202532E+02  0.00000000000E+00 0.  1.
          1   -1    0    0  501    0  0.00000000000E+00 -0.00000000000E+00 -0.99247081942E+03  0.99247081942E+03  0.00000000000E+00 0. -1.
         23    2    1    2    0    0 -0.13836881504E+02 -0.56805029557E+02 -0.41618879430E+03  0.43026177737E+03  0.92161889577E+02 0.  0.
          5    1    1    2  502    0 -0.50915912134E+02  0.36755024845E+02 -0.36303828236E+03  0.36845302118E+03  0.41800000000E+01 0.  1.
         -5    1    1    2    0  502  0.64752793638E+02  0.20050004712E+02 -0.19783354022E+03  0.20916622340E+03  0.41800000000E+01 0.  1.
        -11    1    3    3    0    0  0.29689884725E+02 -0.91187341814E+00 -0.58322702028E+02  0.65451190516E+02  0.00000000000E+00 0.  1.
         11    1    3    3    0    0 -0.43526766229E+02 -0.55893156139E+02 -0.35786609227E+03  0.36481058686E+03  0.00000000000E+00 0. -1.
</event>
<event>
 7    1  0.1758121E-005  0.2646670E+03  0.7561462E-02  0.1104371E+00
         -2   -1    0    0    0  501 -0.00000000000E+00  0.00000000000E+00  0.30822531692E+03  0.30822531692E+03  0.00000000000E+00 0.  1.
          2   -1    0    0  501    0  0.00000000000E+00 -0.00000000000E+00 -0.33526812740E+03  0.33526812740E+03  0.00000000000E+00 0. -1.
         23    2    1    2    0    0  0.16708111807E+03 -0.19098314438E+03 -0.17761536046E+03  0.32300933039E+03  0.91635963430E+02 0.  0.
          5    1    1    2  502    0 -0.16415502998E+03  0.13830747262E+03  0.15864661923E+03  0.26694953277E+03  0.41800000000E+01 0.  1.
         -5    1    1    2    0  502 -0.29260880898E+01  0.52675671753E+02 -0.80740692439E+01  0.53534581163E+02  0.41800000000E+01 0.  1.
        -11    1    3    3    0    0  0.63202881860E+02 -0.12085637257E+03 -0.13151864004E+03  0.18946772744E+03  0.00000000000E+00 0. -1.
         11    1    3    3    0    0  0.10387823622E+03 -0.70126771807E+02 -0.46096720427E+02  0.13354160295E+03  0.00000000000E+00 0.  1.
</event>
<event>
 7    1  0.1758121E-005  0.1157900E+03  0.7561462E-02  0.1250208E+00
         -2   -1    0    0    0  501 -0.00000000000E+00  0.00000000000E+00  0.54838208280E+02  0.54838208280E+02  0.00000000000E+00 0. -1.
          2   -1    0    0  501    0  0.00000000000E+00 -0.00000000000E+00 -0.27879391816E+03  0.27879391816E+03  0.00000000000E+00 0.  1.
         23    2    1    2    0    0 -0.38213525471E+01  0.51882572346E+02 -0.13708346665E+03  0.17269736407E+03  0.91247458481E+02 0.  0.
          5    1    1    2  502    0 -0.45026503569E+01  0.40156064839E+02 -0.40849426463E+02  0.57610167904E+02  0.41800000000E+01 0.  1.
         -5    1    1    2    0  502  0.83240029040E+01 -0.92038637185E+02 -0.46022816775E+02  0.10332459447E+03  0.41800000000E+01 0.  1.
        -11    1    3    3    0    0 -0.37100502583E+02  0.53527671280E+02 -0.11668253897E+03  0.13362811750E+03  0.00000000000E+00 0.  1.
         11    1    3    3    0    0  0.33279150036E+02 -0.16450989344E+01 -0.20400927674E+02  0.39069246570E+02  0.00000000000E+00 0. -1.
</event>
<event>
 7    1  0.1758121E-005  0.1336637E+03  0.7561462E-02  0.1222118E+00
         -1   -1    0    0    0  501 -0.00000000000E+00  0.00000000000E+00  0.40315584032E+03  0.40315584032E+03  0.00000000000E+00 0.  1.
          1   -1    0    0  501    0  0.00000000000E+00 -0.00000000000E+00 -0.10814471335E+03  0.10814471335E+03  0.00000000000E+00 0. -1.
         23    2    1    2    0    0  0.88308035460E+02  0.74028045747E+02 -0.24247517976E+02  0.14956607629E+03  0.92215011607E+02 0.  0.
          5    1    1    2  502    0 -0.98000247735E+02 -0.83107937979E+02  0.32272172333E+03  0.34738704786E+03  0.41800000000E+01 0.  1.
         -5    1    1    2    0  502  0.96922122749E+01  0.90798922319E+01 -0.34630783821E+01  0.14347429512E+02  0.41800000000E+01 0.  1.
        -11    1    3    3    0    0  0.25167510940E+02  0.52345620447E+02 -0.51339078826E+02  0.77518827401E+02  0.00000000000E+00 0. -1.
         11    1    3    3    0    0  0.63140524520E+02  0.21682425299E+02  0.27091560850E+02  0.72047248892E+02  0.00000000000E+00 0.  1.
</event>
<event>
 7    1  0.1758121E-005  0.1061354E+03  0.7561462E-02  0.1267899E+00
         -1   -1    0    0    0  501 -0.00000000000E+00  0.00000000000E+00  0.90763762061E+03  0.90763762061E+03  0.00000000000E+00 0.  1.
          1   -1    0    0  501    0  0.00000000000E+00 -0.00000000000E+00 -0.15960713345E+02  0.15960713345E+02  0.00000000000E+00 0. -1.
         23    2    1    2    0    0  0.20620687598E+02 -0.26106697429E+02  0.22943588212E+03  0.24882502406E+03  0.90367561573E+02 0.  0.
          5    1    1    2  502    0  0.35636830839E+02 -0.29642353801E+02  0.17327199556E+03  0.17941379461E+03  0.41800000000E+01 0.  1.
         -5    1    1    2    0  502 -0.56257518437E+02  0.55749051230E+02  0.48896902959E+03  0.49535951529E+03  0.41800000000E+01 0.  1.
        -11    1    3    3    0    0  0.16511545699E+01  0.28531933633E+02  0.13573439786E+03  0.13871057750E+03  0.00000000000E+00 0.  1.
         11    1    3    3    0    0  0.18969533028E+02 -0.54638631063E+02  0.93701484264E+02  0.11011444656E+03  0.00000000000E+00 0. -1.
</event>
<event>
 7    1  0.1758121E-005  0.1042338E+03  0.7561462E-02  0.1271637E+00
         -1   -1    0    0    0  501 -0.00000000000E+00  0.00000000000E+00  0.11886944086E+03  0.11886944086E+03  0.00000000000E+00 0.  1.
          1   -1    0    0  501    0  0.00000000000E+00 -0.00000000000E+00 -0.12464928840E+03  0.12464928840E+03  0.00000000000E+00 0. -1.
         23    2    1    2    0    0  0.33735058263E+02 -0.35399170878E+01 -0.54246997383E+02  0.99721911496E+02  0.76492729971E+02 0.  0.
          5    1    1    2  502    0 -0.74815655438E+02 -0.30573675566E+02  0.21032309315E+02  0.83617954838E+02  0.41800000000E+01 0. -1.
         -5    1    1    2    0  502  0.41080597175E+02  0.34113592654E+02  0.27434840536E+02  0.60178862928E+02  0.41800000000E+01 0.  1.
        -11    1    3    3    0    0  0.51722831018E+02 -0.13445406639E+02 -0.15129632960E+02  0.55542200188E+02  0.00000000000E+00 0.  1.
         11    1    3    3    0    0 -0.17987772755E+02  0.99054895509E+01 -0.39117364422E+02  0.44179711308E+02  0.00000000000E+00 0. -1.
</event>
<event>
 7    1  0.1758121E-005  0.1264858E+03  0.7561462E-02  0.1232765E+00
         -2   -1    0    0    0  501 -0.00000000000E+00  0.00000000000E+00  0.34016289795E+03  0.34016289795E+03  0.00000000000E+00 0.  1.
          2   -1    0    0  501    0  0.00000000000E+00 -0.00000000000E+00 -0.72232855681E+02  0.72232855681E+02  0.00000000000E+00 0. -1.
         23    2    1    2    0    0  0.29063187520E+02 -0.85333136470E+02  0.34506519206E+02  0.13264556355E+03  0.90982045550E+02 0.  0.
          5    1    1    2  502    0 -0.15651036159E+02  0.10629647404E+03  0.11018636570E+03  0.15395584728E+03  0.41800000000E+01 0. -1.
         -5    1    1    2    0  502 -0.13412151362E+02 -0.20963337569E+02  0.12323715736E+03  0.12579434280E+03  0.41800000000E+01 0. -1.
        -11    1    3    3    0    0  0.43171916317E+02 -0.10998591312E+02  0.35519207333E+02  0.56977166119E+02  0.00000000000E+00 0.  1.
         11    1    3    3    0    0 -0.14108728797E+02 -0.74334545158E+02 -0.10126881274E+01  0.75668397429E+02  0.00000000000E+00 0. -1.
</event>
<event>
 7    1  0.1758121E-005  0.5206426E+02  0.7561462E-02  0.1434515E+00
         -1   -1    0    0    0  501 -0.00000000000E+00  0.00000000000E+00  0.43020870546E+02  0.43020870546E+02  0.00000000000E+00 0.  1.
          1   -1    0    0  501    0  0.00000000000E+00 -0.00000000000E+00 -0.32896299461E+03  0.32896299461E+03  0.00000000000E+00 0. -1.
         23    2    1    2    0    0 -0.18705603464E+02  0.22501882974E+02 -0.18928978990E+03  0.21122006910E+03  0.89034031075E+02 0.  0.
          5    1    1    2  502    0  0.85868274359E+01 -0.52519357498E+01 -0.12519162973E+03  0.12566516219E+03  0.41800000000E+01 0. -1.
         -5    1    1    2    0  502  0.10118776029E+02 -0.17249947224E+02  0.28539295570E+02  0.35098633865E+02  0.41800000000E+01 0. -1.
        -11    1    3    3    0    0  0.25263913758E+02  0.82969779614E+01 -0.14219482387E+02  0.30154582753E+02  0.00000000000E+00 0. -1.
         11    1    3    3    0    0 -0.43969517222E+02  0.14204905013E+02 -0.17507030752E+03  0.18106548635E+03  0.00000000000E+00 0.  1.
</event>
<event>
 7    1  0.1758121E-005  0.8413395E+02  0.7561462E-02  0.1317713E+00
         -1   -1    0    0    0  501 -0.00000000000E+00  0.00000000000E+00  0.35299385921E+02  0.35299385921E+02  0.00000000000E+00 0.  1.
          1   -1    0    0  501    0  0.00000000000E+00 -0.00000000000E+00 -0.35786869480E+03  0.35786869480E+03  0.00000000000E+00 0. -1.
         23    2    1    2    0    0 -0.74978939433E+01 -0.30748481388E+02 -0.14325720873E+03  0.17146774819E+03  0.88751750945E+02 0.  0.
          5    1    1    2  502    0 -0.58443490123E+02  0.13378141687E+02 -0.64990190574E+02  0.88520130386E+02  0.41800000000E+01 0. -1.
         -5    1    1    2    0  502  0.65941384066E+02  0.17370339700E+02 -0.11432190957E+03  0.13318020214E+03  0.41800000000E+01 0.  1.
        -11    1    3    3    0    0 -0.99729194165E+01 -0.10288276676E+01  0.10691578732E+02  0.14656993684E+02  0.00000000000E+00 0.  1.
         11    1    3    3    0    0  0.24750254732E+01 -0.29719653720E+02 -0.15394878747E+03  0.15681075451E+03  0.00000000000E+00 0. -1.
</event>
<event>
 7    1  0.1758121E-005  0.1727493E+03  0.7561462E-02  0.1175011E+00
          1   -1    0    0  501    0  0.00000000000E+00  0.00000000000E+00  0.14369773034E+03  0.14369773034E+03  0.00000000000E+00 0. -1.
         -1   -1    0    0    0  501 -0.00000000000E+00 -0.00000000000E+00 -0.22447199003E+03  0.22447199003E+03  0.00000000000E+00 0.  1.
         23    2    1    2    0    0  0.60568994109E+02 -0.10695206411E+02 -0.32694857313E+02  0.11409154899E+03  0.90360042988E+02 0.  0.
          5    1    1    2  502    0 -0.11772721087E+03 -0.77247622275E+02 -0.60264238315E+01  0.14099887060E+03  0.41800000000E+01 0. -1.
         -5    1    1    2    0  502  0.57158216762E+02  0.87942828686E+02 -0.42052978541E+02  0.11307930078E+03  0.41800000000E+01 0.  1.
        -11    1    3    3    0    0  0.37606385526E+02  0.33171981894E+02 -0.39865157998E+02  0.64061309988E+02  0.00000000000E+00 0.  1.
         11    1    3    3    0    0  0.22962608582E+02 -0.43867188305E+02  0.71703006852E+01  0.50030239002E+02  0.00000000000E+00 0. -1.
</event>
<event>
 7    1  0.1758121E-005  0.1609645E+03  0.7561462E-02  0.1187612E+00
         -2   -1    0    0    0  501 -0.00000000000E+00  0.00000000000E+00  0.38773182139E+02  0.38773182139E+02  0.00000000000E+00 0.  1.
          2   -1    0    0  501    0  0.00000000000E+00 -0.00000000000E+00 -0.89557178287E+03  0.89557178287E+03  0.00000000000E+00 0. -1.
         23    2    1    2    0    0 -0.37167723997E+02 -0.14081055057E+03 -0.51074618347E+03  0.53860598461E+03  0.89586225924E+02 0.  0.
          5    1    1    2  502    0  0.23923100316E+02  0.13336350922E+03 -0.16296478769E+03  0.21197437286E+03  0.41800000000E+01 0.  1.
         -5    1    1    2    0  502  0.13244623681E+02  0.74470413438E+01 -0.18308762957E+03  0.18376460754E+03  0.41800000000E+01 0.  1.
        -11    1    3    3    0    0  0.29540678312E+02 -0.39863463872E+02 -0.13293264582E+03  0.14189022430E+03  0.00000000000E+00 0.  1.
         11    1    3    3    0    0 -0.66708402309E+02 -0.10094708670E+03 -0.37781353765E+03  0.39671576032E+03  0.00000000000E+00 0. -1.
</event>
<event>
 7    1  0.1758121E-005  0.1122068E+03  0.7561462E-02  0.1256537E+00
         -1   -1    0    0    0  501 -0.00000000000E+00  0.00000000000E+00  0.37283672590E+02  0.37283672590E+02  0.00000000000E+00 0.  1.
          1   -1    0    0  501    0  0.00000000000E+00 -0.00000000000E+00 -0.37342453749E+03  0.37342453749E+03  0.00000000000E+00 0. -1.
         23    2    1    2    0    0 -0.43996271391E+02  0.39230189602E+01 -0.18936733038E+03  0.21286485319E+03  0.86604837840E+02 0.  0.
          5    1    1    2  502    0  0.38841755366E+02  0.58240198913E+02 -0.75981765074E+02  0.10339876089E+03  0.41800000000E+01 0.  1.
         -5    1    1    2    0  502  0.51545160249E+01 -0.62163217873E+02 -0.70791769452E+02  0.94444596002E+02  0.41800000000E+01 0.  1.
        -11    1    3    3    0    0  0.47950761304E+01  0.34075798171E+02 -0.39445984087E+02  0.52346331645E+02  0.00000000000E+00 0.  1.
         11    1    3    3    0    0 -0.48791347521E+02 -0.30152779211E+02 -0.14992134629E+03  0.16051852155E+03  0.00000000000E+00 0. -1.
</event>
<event>
 7    1  0.1758121E-005  0.1300494E+03  0.7561462E-02  0.1227383E+00
         -3   -1    0    0    0  501 -0.00000000000E+00  0.00000000000E+00  0.74176400612E+02  0.74176400612E+02  0.00000000000E+00 0.  1.
          3   -1    0    0  501    0  0.00000000000E+00 -0.00000000000E+00 -0.23233643664E+03  0.23233643664E+03  0.00000000000E+00 0. -1.
         23    2    1    2    0    0 -0.64596755106E+02 -0.33046142843E+02 -0.70965076123E+02  0.13683877841E+03  0.91782465211E+02 0.  0.
          5    1    1    2  502    0  0.64174915474E+02 -0.37742550150E+02 -0.41988693500E+02  0.85577115222E+02  0.41800000000E+01 0. -1.
         -5    1    1    2    0  502  0.42183963162E+00  0.70788692994E+02 -0.45206266406E+02  0.84096943623E+02  0.41800000000E+01 0.  1.
        -11    1    3    3    0    0 -0.47981689893E+02 -0.63700636436E+02 -0.36132610512E+02  0.87553293426E+02  0.00000000000E+00 0. -1.
         11    1    3    3    0    0 -0.16615065212E+02  0.30654493593E+02 -0.34832465611E+02  0.49285484983E+02  0.00000000000E+00 0.  1.
</event>
<event>
 7    1  0.1758121E-005  0.1187067E+03  0.7561462E-02  0.1245246E+00
          1   -1    0    0  501    0  0.00000000000E+00  0.00000000000E+00  0.39584676087E+03  0.39584676087E+03  0.00000000000E+00 0. -1.
         -1   -1    0    0    0  501 -0.00000000000E+00 -0.00000000000E+00 -0.40342242559E+02  0.40342242559E+02  0.00000000000E+00 0.  1.
         23    2    1    2    0    0  0.59266069204E+02  0.24083713268E+02  0.17664373523E+03  0.20874147827E+03  0.90980785613E+02 0.  0.
          5    1    1    2  502    0  0.11486337552E+02 -0.57545372378E+02  0.10153136508E+03  0.11734349716E+03  0.41800000000E+01 0.  1.
         -5    1    1    2    0  502 -0.70752406755E+02  0.33461659109E+02  0.77329418008E+02  0.11010402800E+03  0.41800000000E+01 0.  1.
        -11    1    3    3    0    0 -0.15135441144E+02  0.20811179722E+02  0.12744995445E+02  0.28716226928E+02  0.00000000000E+00 0.  1.
         11    1    3    3    0    0  0.74401510348E+02  0.32725335463E+01  0.16389873978E+03  0.18002525134E+03  0.00000000000E+00 0. -1.
</event>
<event>
 7    1  0.1758121E-005  0.3688154E+03  0.7561462E-02  0.1055147E+00
          2   -1    0    0  501    0  0.00000000000E+00  0.00000000000E+00  0.61053428147E+03  0.61053428147E+03  0.00000000000E+00 0. -1.
         -2   -1    0    0    0  501 -0.00000000000E+00 -0.00000000000E+00 -0.25180193141E+03  0.25180193141E+03  0.00000000000E+00 0.  1.
         23    2    1    2    0    0  0.29633929390E+03  0.19233946828E+03  0.32060765389E+03  0.48564884709E+03  0.90852004847E+02 0.  0.
          5    1    1    2  502    0 -0.15959214131E+03 -0.17491658221E+03  0.25911060259E+02  0.23823164724E+03  0.41800000000E+01 0.  1.
         -5    1    1    2    0  502 -0.13674715258E+03 -0.17422886067E+02  0.12213635907E+02  0.13845571855E+03  0.41800000000E+01 0.  1.
        -11    1    3    3    0    0  0.17861664592E+03  0.16244354802E+03  0.18947282999E+03  0.30690677053E+03  0.00000000000E+00 0.  1.
         11    1    3    3    0    0  0.11772264797E+03  0.29895920261E+02  0.13113482390E+03  0.17874207656E+03  0.00000000000E+00 0. -1.
</event>
<event>
 7    1  0.1758121E-005  0.8591755E+02  0.7561462E-02  0.1313050E+00
          1   -1    0    0  501    0  0.00000000000E+00  0.00000000000E+00  0.21230733573E+03  0.21230733573E+03  0.00000000000E+00 0. -1.
         -1   -1    0    0    0  501 -0.00000000000E+00 -0.00000000000E+00 -0.76758809748E+02  0.76758809748E+02  0.00000000000E+00 0.  1.
         23    2    1    2    0    0  0.27262140817E+02  0.52062310227E+02  0.96802651435E+02  0.14553170321E+03  0.91405770309E+02 0.  0.
          5    1    1    2  502    0  0.33839894097E+01 -0.30774857569E+02  0.81114296672E+02  0.86922636679E+02  0.41800000000E+01 0. -1.
         -5    1    1    2    0  502 -0.30646130227E+02 -0.21287452658E+02 -0.42368422126E+02  0.56611805589E+02  0.41800000000E+01 0. -1.
        -11    1    3    3    0    0 -0.11501353024E+02  0.61976885922E+02  0.35549183975E+02  0.72368225011E+02  0.00000000000E+00 0.  1.
         11    1    3    3    0    0  0.38763493842E+02 -0.99145756948E+01  0.61253467461E+02  0.73163478198E+02  0.00000000000E+00 0. -1.
</event>
<event>
 7    1  0.1758121E-005  0.1027355E+03  0.7561462E-02  0.1274646E+00
         -2   -1    0    0    0  501 -0.00000000000E+00  0.00000000000E+00  0.59594140767E+02  0.59594140767E+02  0.00000000000E+00 0.  1.
          2   -1    0    0  501    0  0.00000000000E+00 -0.00000000000E+00 -0.35335826940E+03  0.35335826940E+03  0.00000000000E+00 0. -1.
         23    2    1    2    0    0  0.34756137059E+02 -0.33065513880E+02 -0.25314244942E+03  0.27295491483E+03  0.90121964898E+02 0.  0.
          5    1    1    2  502    0 -0.22018693007E+02 -0.35128721955E+02  0.21404166086E+02  0.46845070965E+02  0.41800000000E+01 0. -1.
         -5    1    1    2    0  502 -0.12737444052E+02  0.68194235835E+02 -0.62025845297E+02  0.93152424375E+02  0.41800000000E+01 0. -1.
        -11    1    3    3    0    0 -0.52799139494E+01 -0.50399297919E+02 -0.82472595391E+02  0.96797188557E+02  0.00000000000E+00 0.  1.
         11    1    3    3    0    0  0.40036051008E+02  0.17333784038E+02 -0.17066985403E+03  0.17615772627E+03  0.00000000000E+00 0. -1.
</event>
<event>
 7    1  0.1758121E-005  0.1029451E+03  0.7561462E-02  0.1274222E+00
         -2   -1    0    0    0  501 -0.00000000000E+00  0.00000000000E+00  0.59968305281E+03  0.59968305281E+03  0.00000000000E+00 0.  1.
          2   -1    0    0  501    0  0.00000000000E+00 -0.00000000000E+00 -0.22601545188E+02  0.22601545188E+02  0.00000000000E+00 0. -1.
         23    2    1    2    0    0 -0.28373077453E+02 -0.25347164155E+02  0.19871795786E+03  0.22196566864E+03  0.91282095866E+02 0.  0.
          5    1    1    2  502    0  0.11200164501E+02 -0.50616725515E+02  0.13081522064E+03  0.14077496559E+03  0.41800000000E+01 0. -1.
         -5    1    1    2    0  502  0.17172912952E+02  0.75963889670E+02  0.24754832912E+03  0.25954396376E+03  0.41800000000E+01 0. -1.
        -11    1    3    3    0    0  0.16141082629E+02  0.10051219810E+02  0.44291112174E+01  0.19523795592E+02  0.00000000000E+00 0. -1.
         11    1    3    3    0    0 -0.44514160082E+02 -0.35398383965E+02  0.19428884664E+03  0.20244187305E+03  0.00000000000E+00 0.  1.
</event>
<event>
 7    1  0.1844444E-005  0.1731079E+03  0.7561462E-02  0.1174645E+00
          2   -1    0    0  501    0  0.00000000000E+00  0.00000000000E+00  0.69749378641E+02  0.69749378641E+02  0.00000000000E+00 0. -1.
         -2   -1    0    0    0  501 -0.00000000000E+00 -0.00000000000E+00 -0.44079246057E+03  0.44079246057E+03  0.00000000000E+00 0.  1.
         23    2    1    2    0    0  0.76215203843E+02 -0.11188754155E+03 -0.14143334442E+03  0.21610049083E+03  0.91479243405E+02 0.  0.
          5    1    1    2  502    0  0.34494845842E+02  0.30782166356E+02 -0.68698084567E+02  0.82911611843E+02  0.41800000000E+01 0. -1.
         -5    1    1    2    0  502 -0.11071004969E+03  0.81105375191E+02 -0.16091165294E+03  0.21152973653E+03  0.41800000000E+01 0. -1.
        -11    1    3    3    0    0  0.54346699953E+02 -0.63552486801E+01 -0.37180024690E+02  0.66153663674E+02  0.00000000000E+00 0.  1.
         11    1    3    3    0    0  0.21868503890E+02 -0.10553229287E+03 -0.10425331973E+03  0.14994682716E+03  0.00000000000E+00 0. -1.
</event>
<event>
 7    1  0.1758121E-005  0.1562260E+03  0.7561462E-02  0.1193025E+00
          1   -1    0    0  501    0  0.00000000000E+00  0.00000000000E+00  0.30003353329E+03  0.30003353329E+03  0.00000000000E+00 0. -1.
         -1   -1    0    0    0  501 -0.00000000000E+00 -0.00000000000E+00 -0.85765288102E+02  0.85765288102E+02  0.00000000000E+00 0.  1.
         23    2    1    2    0    0 -0.11605278424E+03  0.10783087045E+02  0.11968112016E+03  0.19040937814E+03  0.91365404096E+02 0.  0.
          5    1    1    2  502    0  0.17262717592E+02  0.51121446149E+02  0.25710903877E+02  0.59915996639E+02  0.41800000000E+01 0.  1.
         -5    1    1    2    0  502  0.98790066644E+02 -0.61904533194E+02  0.68876221152E+02  0.13547344661E+03  0.41800000000E+01 0.  1.
        -11    1    3    3    0    0 -0.81167549019E+02 -0.31316816231E+02  0.45275736698E+02  0.98075513387E+02  0.00000000000E+00 0.  1.
         11    1    3    3    0    0 -0.34885235217E+02  0.42099903276E+02  0.74405383463E+02  0.92333864753E+02  0.00000000000E+00 0. -1.
</event>
<event>
 7    1  0.3271899E-005  0.1045079E+03  0.7561462E-02  0.1271092E+00
          2   -1    0    0  501    0  0.00000000000E+00  0.00000000000E+00  0.10646937784E+04  0.10646937784E+04  0.00000000000E+00 0. -1.
         -2   -1    0    0    0  501 -0.00000000000E+00 -0.00000000000E+00 -0.11603049596E+02  0.11603049596E+02  0.00000000000E+00 0.  1.
         23    2    1    2    0    0  0.14565444432E+02  0.14425450737E+02  0.48809721932E+03  0.49725895596E+03  0.92775686282E+02 0.  0.
          5    1    1    2  502    0 -0.63713763418E+02 -0.13142418150E+02  0.19133165276E+03  0.20213223531E+03  0.41800000000E+01 0. -1.
         -5    1    1    2    0  502  0.49148318986E+02 -0.12830325870E+01  0.37366185675E+03  0.37690563676E+03  0.41800000000E+01 0. -1.
        -11    1    3    3    0    0 -0.20604422586E+02 -0.30884279877E+02  0.21798247489E+03  0.22112155104E+03  0.00000000000E+00 0. -1.
         11    1    3    3    0    0  0.35169867019E+02  0.45309730614E+02  0.27011474443E+03  0.27613740492E+03  0.00000000000E+00 0.  1.
</event>
<event>
 7    1  0.1758121E-005  0.1394869E+03  0.7561462E-02  0.1214021E+00
         -2   -1    0    0    0  501 -0.00000000000E+00  0.00000000000E+00  0.57048557992E+02  0.57048557992E+02  0.00000000000E+00 0. -1.
          2   -1    0    0  501    0  0.00000000000E+00 -0.00000000000E+00 -0.47330505696E+03  0.47330505696E+03  0.00000000000E+00 0.  1.
         23    2    1    2    0    0 -0.77112931346E+02  0.79309276190E+02 -0.28072115517E+03  0.31528764651E+03  0.91463476927E+02 0.  0.
          5    1    1    2  502    0 -0.24013786276E+02 -0.53652297248E+02 -0.71195348105E+02  0.92420132672E+02  0.41800000000E+01 0. -1.
         -5    1    1    2    0  502  0.10112671762E+03 -0.25656978941E+02 -0.64339995689E+02  0.12264583577E+03  0.41800000000E+01 0. -1.
        -11    1    3    3    0    0 -0.12786594046E+02  0.35683851875E+02 -0.19258987892E+02  0.42517559743E+02  0.00000000000E+00 0. -1.
         11    1    3    3    0    0 -0.64326337300E+02  0.43625424315E+02 -0.26146216728E+03  0.27277008677E+03  0.00000000000E+00 0.  1.
</event>
<event>
 7    1  0.1758121E-005  0.1149907E+03  0.7561462E-02  0.1251597E+00
         -1   -1    0    0    0  501 -0.00000000000E+00  0.00000000000E+00  0.69195591813E+02  0.69195591813E+02  0.00000000000E+00 0.  1.
          1   -1    0    0  501    0  0.00000000000E+00 -0.00000000000E+00 -0.25888607834E+03  0.25888607834E+03  0.00000000000E+00 0. -1.
         23    2    1    2    0    0  0.17055984701E+00  0.79353307591E+02 -0.81091019689E+02  0.14440088053E+03  0.89324600796E+02 0.  0.
          5    1    1    2  502    0 -0.28297237091E+02 -0.10555907417E+03 -0.83194419658E+02  0.13741264727E+03  0.41800000000E+01 0. -1.
         -5    1    1    2    0  502  0.28126677244E+02  0.26205766578E+02 -0.25405047175E+02  0.46268142352E+02  0.41800000000E+01 0. -1.
        -11    1    3    3    0    0 -0.63629311293E+01  0.71265099328E+02 -0.99918101512E+02  0.12289356486E+03  0.00000000000E+00 0. -1.
         11    1    3    3    0    0  0.65334909763E+01  0.80882082630E+01  0.18827081823E+02  0.21507315668E+02  0.00000000000E+00 0.  1.
</event>
<event>
 7    1  0.1758121E-005  0.1862078E+03  0.7561462E-02  0.1161927E+00
         -2   -1    0    0    0  501 -0.00000000000E+00  0.00000000000E+00  0.41986801176E+02  0.41986801176E+02  0.00000000000E+00 0.  1.
          2   -1    0    0  501    0  0.00000000000E+00 -0.00000000000E+00 -0.94186438736E+03  0.94186438736E+03  0.00000000000E+00 0. -1.
         23    2    1    2    0    0 -0.11701331534E+03  0.11441572460E+03 -0.49500801521E+03  0.52959221325E+03  0.93015607334E+02 0.  0.
          5    1    1    2  502    0  0.11750185953E+03 -0.13290206790E+03 -0.39468032246E+03  0.43273511064E+03  0.41800000000E+01 0. -1.
         -5    1    1    2    0  502 -0.48854418491E+00  0.18486343301E+02 -0.10189248517E+02  0.21523864649E+02  0.41800000000E+01 0. -1.
        -11    1    3    3    0    0 -0.58339911646E+02  0.14458204701E+02 -0.89229665954E+02  0.10758493510E+03  0.00000000000E+00 0.  1.
         11    1    3    3    0    0 -0.58673403697E+02  0.99957519899E+02 -0.40577834925E+03  0.42200727815E+03  0.00000000000E+00 0. -1.
</event>
<event>
 7    1  0.1758121E-005  0.9724871E+02  0.7561462E-02  0.1286190E+00
          1   -1    0    0  501    0  0.00000000000E+00  0.00000000000E+00  0.16128750662E+03  0.16128750662E+03  0.00000000000E+00 0. -1.
         -1   -1    0    0    0  501 -0.00000000000E+00 -0.00000000000E+00 -0.10319823992E+03  0.10319823992E+03  0.00000000000E+00 0.  1.
         23    2    1    2    0    0  0.45291131117E+02  0.36843544561E+02  0.66903329348E+02  0.12615925829E+03  0.89617909157E+02 0.  0.
          5    1    1    2  502    0 -0.54412834941E+02  0.33678377890E+02  0.93714210187E+01  0.64809610981E+02  0.41800000000E+01 0. -1.
         -5    1    1    2    0  502  0.91217038242E+01 -0.70521922451E+02 -0.18185483674E+02  0.73516877268E+02  0.41800000000E+01 0. -1.
        -11    1    3    3    0    0  0.22488288150E+02  0.24309905651E+02 -0.17766653304E+02  0.37581226514E+02  0.00000000000E+00 0.  1.
         11    1    3    3    0    0  0.22802842967E+02  0.12533638910E+02  0.84669982652E+02  0.88578031780E+02  0.00000000000E+00 0. -1.
</event>
<event>
 7    1  0.1758121E-005  0.1300463E+03  0.7561462E-02  0.1227387E+00
         -2   -1    0    0    0  501 -0.00000000000E+00  0.00000000000E+00  0.14792600074E+02  0.14792600074E+02  0.00000000000E+00 0.  1.
          2   -1    0    0  501    0  0.00000000000E+00 -0.00000000000E+00 -0.13847680294E+04  0.13847680294E+04  0.00000000000E+00 0. -1.
         23    2    1    2    0    0 -0.41470842869E+02  0.81417706197E+02 -0.57138982057E+03  0.58609043542E+03  0.93096711846E+02 0.  0.
          5    1    1    2  502    0  0.29480528439E+02 -0.10159763660E+03 -0.38776045783E+03  0.40195376149E+03  0.41800000000E+01 0.  1.
         -5    1    1    2    0  502  0.11990314430E+02  0.20179930401E+02 -0.41082515096E+03  0.41151643259E+03  0.41800000000E+01 0.  1.
        -11    1    3    3    0    0 -0.71165361818E+02  0.65337861107E+02 -0.43137490685E+03  0.44206091784E+03  0.00000000000E+00 0. -1.
         11    1    3    3    0    0  0.29694518949E+02  0.16079845090E+02 -0.14001491372E+03  0.14402951759E+03  0.00000000000E+00 0.  1.
</event>
<event>
 7    1  0.1758121E-005  0.1004709E+03  0.7561462E-02  0.1279309E+00
         -1   -1    0    0    0  501 -0.00000000000E+00  0.00000000000E+00  0.51656834731E+02  0.51656834731E+02  0.00000000000E+00 0.  1.
          1   -1    0    0  501    0  0.00000000000E+00 -0.00000000000E+00 -0.24656325480E+03  0.24656325480E+03  0.00000000000E+00 0. -1.
         23    2    1    2    0    0  0.56941701353E+01  0.12892119642E+02 -0.12075662215E+03  0.15211270010E+03  0.91419261735E+02 0.  0.
          5    1    1    2  502    0  0.15232137972E+02  0.51056710807E+02 -0.53450130143E+02  0.75585676936E+02  0.41800000000E+01 0.  1.
         -5    1    1    2    0  502 -0.20926308107E+02 -0.63948830449E+02 -0.20699667772E+02  0.70521712491E+02  0.41800000000E+01 0.  1.
        -11    1    3    3    0    0 -0.20983678586E+02 -0.25692713928E+02 -0.14974419362E+02  0.36395927673E+02  0.00000000000E+00 0.  1.
         11    1    3    3    0    0  0.26677848721E+02  0.38584833570E+02 -0.10578220279E+03  0.11571677243E+03  0.00000000000E+00 0. -1.
</event>
<event>
 7    1  0.1758121E-005  0.9680458E+02  0.7561462E-02  0.1287163E+00
         -4   -1    0    0    0  501 -0.00000000000E+00  0.00000000000E+00  0.90635766034E+03  0.90635766034E+03  0.00000000000E+00 0.  1.
          4   -1    0    0  501    0  0.00000000000E+00 -0.00000000000E+00 -0.21369601447E+02  0.21369601447E+02  0.00000000000E+00 0. -1.
         23    2    1    2    0    0  0.55284051832E+02 -0.63673578946E+02  0.43523309265E+03  0.45334671324E+03  0.94787902319E+02 0.  0.
          5    1    1    2  502    0 -0.25960196099E+02  0.30402358935E+02  0.25085885961E+02  0.47381528941E+02  0.41800000000E+01 0. -1.
         -5    1    1    2    0  502 -0.29323855733E+02  0.33271220011E+02  0.42466908028E+03  0.42699901960E+03  0.41800000000E+01 0. -1.
        -11    1    3    3    0    0  0.50977195006E+02 -0.63372936515E+01  0.92346103488E+02  0.10567231677E+03  0.00000000000E+00 0.  1.
         11    1    3    3    0    0  0.43068568264E+01 -0.57336285294E+02  0.34288698917E+03  0.34767439648E+03  0.00000000000E+00 0. -1.
</event>
<event>
 7    1  0.1758121E-005  0.1027510E+03  0.7561462E-02  0.1274615E+00
          1   -1    0    0  501    0  0.00000000000E+00  0.00000000000E+00  0.62369173307E+03  0.62369173307E+03  0.00000000000E+00 0. -1.
         -1   -1    0    0    0  501 -0.00000000000E+00 -0.00000000000E+00 -0.19583404555E+02  0.19583404555E+02  0.00000000000E+00 0.  1.
         23    2    1    2    0    0 -0.79404205400E+01 -0.37590566237E+02  0.30078463575E+03  0.31724421907E+03  0.93254471617E+02 0.  0.
          5    1    1    2  502    0  0.51309391806E+02  0.51946138788E+02  0.17106348449E+03  0.18604097169E+03  0.41800000000E+01 0. -1.
         -5    1    1    2    0  502 -0.43368971266E+02 -0.14355572551E+02  0.13226020827E+03  0.13998994686E+03  0.41800000000E+01 0.  1.
        -11    1    3    3    0    0  0.75043156997E+01  0.22881771764E+02  0.25909118420E+02  0.35371918954E+02  0.00000000000E+00 0. -1.
         11    1    3    3    0    0 -0.15444736240E+02 -0.60472338001E+02  0.27487551733E+03  0.28187230011E+03  0.00000000000E+00 0.  1.
</event>
<event>
 7    1  0.1963829E-005  0.3525549E+03  0.7561462E-02  0.1061571E+00
          1   -1    0    0  501    0  0.00000000000E+00  0.00000000000E+00  0.55069183091E+03  0.55069183091E+03  0.00000000000E+00 0. -1.
         -1   -1    0    0    0  501 -0.00000000000E+00 -0.00000000000E+00 -0.26392393991E+03  0.26392393991E+03  0.00000000000E+00 0.  1.
         23    2    1    2    0    0 -0.13651125361E+03  0.30753227126E+03  0.29386052515E+03  0.45557687762E+03  0.89358060406E+02 0.  0.
          5    1    1    2  502    0 -0.20539699395E+02 -0.78355921480E+02 -0.12123350518E+01  0.81120107486E+02  0.41800000000E+01 0. -1.
         -5    1    1    2    0  502  0.15705095300E+03 -0.22917634978E+03 -0.58802990921E+01  0.27791878571E+03  0.41800000000E+01 0. -1.
        -11    1    3    3    0    0 -0.14373302391E+03  0.25172901161E+03  0.22692598948E+03  0.36813323967E+03  0.00000000000E+00 0.  1.
         11    1    3    3    0    0  0.72217703027E+01  0.55803259648E+02  0.66934535670E+02  0.87443637956E+02  0.00000000000E+00 0. -1.
</event>
<event>
 7    1  0.1758121E-005  0.1750503E+03  0.7561462E-02  0.1172681E+00
         -1   -1    0    0    0  501 -0.00000000000E+00  0.00000000000E+00  0.19692080820E+03  0.19692080820E+03  0.00000000000E+00 0.  1.
          1   -1    0    0  501    0  0.00000000000E+00 -0.00000000000E+00 -0.17604234037E+03  0.17604234037E+03  0.00000000000E+00 0. -1.
         23    2    1    2    0    0  0.13608828300E+03 -0.27925942804E+02 -0.51980016086E+02  0.17232416601E+03  0.87714406267E+02 0.  0.
          5    1    1    2  502    0 -0.45931494884E+02  0.72384736866E+02  0.26221246569E+02  0.89745632345E+02  0.41800000000E+01 0. -1.
         -5    1    1    2    0  502 -0.90156788121E+02 -0.44458794061E+02  0.46637237349E+02  0.11089335021E+03  0.41800000000E+01 0. -1.
        -11    1    3    3    0    0  0.20802894230E+01  0.20924069861E+02 -0.11921964670E+02  0.24171833717E+02  0.00000000000E+00 0.  1.
         11    1    3    3    0    0  0.13400799358E+03 -0.48850012666E+02 -0.40058051416E+02  0.14815233229E+03  0.00000000000E+00 0. -1.
</event>
<event>
 7    1  0.1758121E-005  0.1098154E+03  0.7561462E-02  0.1260912E+00
          3   -1    0    0  501    0  0.00000000000E+00  0.00000000000E+00  0.25234361008E+02  0.25234361008E+02  0.00000000000E+00 0. -1.
         -3   -1    0    0    0  501 -0.00000000000E+00 -0.00000000000E+00 -0.48201114687E+03  0.48201114687E+03  0.00000000000E+00 0.  1.
         23    2    1    2    0    0 -0.19581187367E+02 -0.16868043407E+01 -0.18079015170E+03  0.20360813733E+03  0.91569243906E+02 0.  0.
          5    1    1    2  502    0 -0.17453893966E+02 -0.55397388007E+02 -0.13550377425E+03  0.14748645446E+03  0.41800000000E+01 0. -1.
         -5    1    1    2    0  502  0.37035081334E+02  0.57084192348E+02 -0.14048285991E+03  0.15615091608E+03  0.41800000000E+01 0. -1.
        -11    1    3    3    0    0  0.36615968550E+02 -0.48652447968E+01 -0.62272028920E+02  0.72403075526E+02  0.00000000000E+00 0. -1.
         11    1    3    3    0    0 -0.56197155917E+02  0.31784404561E+01 -0.11851812278E+03  0.13120506180E+03  0.00000000000E+00 0.  1.
</event>
<event>
 7    1  0.1758121E-005  0.1547290E+03  0.7561462E-02  0.1194780E+00
         -1   -1    0    0    0  501 -0.00000000000E+00  0.00000000000E+00  0.23723788445E+03  0.23723788445E+03  0.00000000000E+00 0.  1.
          1   -1    0    0  501    0  0.00000000000E+00 -0.00000000000E+00 -0.10554282259E+03  0.10554282259E+03  0.00000000000E+00 0. -1.
         23    2    1    2    0    0 -0.11455188674E+03  0.13398642972E+01  0.80299881605E+02  0.16554838379E+03  0.88511391352E+02 0.  0.
          5    1    1    2  502    0  0.54366687304E+02  0.59906495466E+02  0.93884169850E+01  0.81548388463E+02  0.41800000000E+01 0.  1.
         -5    1    1    2    0  502  0.60185199435E+02 -0.61246359763E+02  0.42006763271E+02  0.95683934784E+02  0.41800000000E+01 0.  1.
        -11    1    3    3    0    0 -0.86478108335E+02 -0.37747439993E+02  0.66658842007E+02  0.11552806440E+03  0.00000000000E+00 0.  1.
         11    1    3    3    0    0 -0.28073778403E+02  0.39087304290E+02  0.13641039598E+02  0.50020319389E+02  0.00000000000E+00 0. -1.
</event>
<event>
 7    1  0.1758121E-005  0.1073793E+03  0.7561462E-02  0.1265501E+00
         -2   -1    0    0    0  501 -0.00000000000E+00  0.00000000000E+00  0.24886565871E+02  0.24886565871E+02  0.00000000000E+00 0.  1.
          2   -1    0    0  501    0  0.00000000000E+00 -0.00000000000E+00 -0.54230517157E+03  0.54230517157E+03  0.00000000000E+00 0. -1.
         23    2    1    2    0    0  0.69201477526E+01  0.12222117558E+02 -0.32066813808E+03  0.33361932749E+03  0.90975448868E+02 0.  0.
          5    1    1    2  502    0 -0.57189359252E+02 -0.35283600486E+02 -0.13300622170E+03  0.14907609696E+03  0.41800000000E+01 0. -1.
         -5    1    1    2    0  502  0.50269211500E+02  0.23061482928E+02 -0.63744245924E+02  0.84496312985E+02  0.41800000000E+01 0. -1.
        -11    1    3    3    0    0 -0.34489505560E+02 -0.19665307984E+02 -0.13129826927E+03  0.13716955145E+03  0.00000000000E+00 0. -1.
         11    1    3    3    0    0  0.41409653313E+02  0.31887425542E+02 -0.18936986881E+03  0.19644977604E+03  0.00000000000E+00 0.  1.
</event>
<event>
 7    1  0.1758121E-005  0.2219490E+03  0.7561462E-02  0.1132438E+00
          3   -1    0    0  501    0  0.00000000000E+00  0.00000000000E+00  0.59937981354E+02  0.59937981354E+02  0.00000000000E+00 0. -1.
         -3   -1    0    0    0  501 -0.00000000000E+00 -0.00000000000E+00 -0.97794301092E+03  0.97794301092E+03  0.00000000000E+00 0.  1.
         23    2    1    2    0    0 -0.20040561577E+03 -0.81636384430E+02 -0.42199182880E+03  0.48244920155E+03  0.88618386378E+02 0.  0.
          5    1    1    2  502    0  0.15927410091E+03  0.31318734533E+02 -0.44180211374E+03  0.47069701768E+03  0.41800000000E+01 0.  1.
         -5    1    1    2    0  502  0.41131514865E+02  0.50317649897E+02 -0.54211087032E+02  0.84734773047E+02  0.41800000000E+01 0.  1.
        -11    1    3    3    0    0 -0.16685792222E+03 -0.67738641448E+02 -0.40314262809E+03  0.44153603288E+03  0.00000000000E+00 0.  1.
         11    1    3    3    0    0 -0.33547693552E+02 -0.13897742982E+02 -0.18849200712E+02  0.40913168664E+02  0.00000000000E+00 0. -1.
</event>
<event>
 7    1  0.1758121E-005  0.1702193E+03  0.7561462E-02  0.1177619E+00
          2   -1    0    0  501    0  0.00000000000E+00  0.00000000000E+00  0.77160028074E+03  0.77160028074E+03  0.00000000000E+00 0. -1.
         -2   -1    0    0    0  501 -0.00000000000E+00 -0.00000000000E+00 -0.49160152878E+02  0.49160152878E+02  0.00000000000E+00 0.  1.
         23    2    1    2    0    0 -0.67773233151E+02 -0.13337941343E+03  0.46098758266E+03  0.49458858778E+03  0.98615621183E+02 0.  0.
          5    1    1    2  502    0  0.78305221554E+02  0.12447394352E+03  0.13744853991E+03  0.20133316632E+03  0.41800000000E+01 0.  1.
         -5    1    1    2    0  502 -0.10531988403E+02  0.89054699133E+01  0.12400400529E+03  0.12483867951E+03  0.41800000000E+01 0.  1.
        -11    1    3    3    0    0 -0.77095453250E+01  0.16081005919E+02  0.38268191327E+02  0.42219548884E+02  0.00000000000E+00 0.  1.
         11    1    3    3    0    0 -0.60063687826E+02 -0.14946041935E+03  0.42271939133E+03  0.45236903890E+03  0.00000000000E+00 0. -1.
</event>
<event>
 7    1  0.1758121E-005  0.9664655E+02  0.7561462E-02  0.1287510E+00
         -1   -1    0    0    0  501 -0.00000000000E+00  0.00000000000E+00  0.10405260326E+03  0.10405260326E+03  0.00000000000E+00 0.  1.
          1   -1    0    0  501    0  0.00000000000E+00 -0.00000000000E+00 -0.15266043222E+03  0.15266043222E+03  0.00000000000E+00 0. -1.
         23    2    1    2    0    0  0.96271303460E+01  0.56880988879E+02 -0.50702549701E+02  0.11894347499E+03  0.90822206332E+02 0.  0.
          5    1    1    2  502    0  0.14825925569E+02 -0.88887284888E+02 -0.18877735661E+02  0.92166147730E+02  0.41800000000E+01 0. -1.
         -5    1    1    2    0  502 -0.24453055915E+02  0.32006296009E+02  0.20972456403E+02  0.45603412760E+02  0.41800000000E+01 0. -1.
        -11    1    3    3    0    0  0.17824482195E+02  0.41243304672E+02  0.17706054107E+02  0.48293133030E+02  0.00000000000E+00 0.  1.
         11    1    3    3    0    0 -0.81973518488E+01  0.15637684206E+02 -0.68408603808E+02  0.70650341964E+02  0.00000000000E+00 0. -1.
</event>
<event>
 7    1  0.1758121E-005  0.1096630E+03  0.7561462E-02  0.1261195E+00
          1   -1    0    0  501    0  0.00000000000E+00  0.00000000000E+00  0.32591713404E+03  0.32591713404E+03  0.00000000000E+00 0. -1.
         -1   -1    0    0    0  501 -0.00000000000E+00 -0.00000000000E+00 -0.77423176332E+02  0.77423176332E+02  0.00000000000E+00 0.  1.
         23    2    1    2    0    0 -0.18017635045E+02 -0.32640744814E+02  0.25620914203E+03  0.27493792436E+03  0.92507753164E+02 0.  0.
          5    1    1    2  502    0 -0.39542948750E+02  0.53594452710E+02 -0.55732804390E+01  0.66966738102E+02  0.41800000000E+01 0. -1.
         -5    1    1    2    0  502  0.57560583795E+02 -0.20953707896E+02 -0.21419038903E+01  0.61435647907E+02  0.41800000000E+01 0.  1.
        -11    1    3    3    0    0  0.33317273989E+02 -0.80676229208E+01  0.47305262442E+02  0.58420160393E+02  0.00000000000E+00 0.  1.
         11    1    3    3    0    0 -0.51334909034E+02 -0.24573121893E+02  0.20890387959E+03  0.21651776397E+03  0.00000000000E+00 0. -1.
</event>
<event>
 7    1  0.1758121E-005  0.9315790E+02  0.7561462E-02  0.1295380E+00
         -1   -1    0    0    0  501 -0.00000000000E+00  0.00000000000E+00  0.12362629372E+03  0.12362629372E+03  0.00000000000E+00 0.  1.
          1   -1    0    0  501    0  0.00000000000E+00 -0.00000000000E+00 -0.18612306519E+03  0.18612306519E+03  0.00000000000E+00 0. -1.
         23    2    1    2    0    0  0.83217037718E+02  0.34740704878E+02 -0.80913296692E+02  0.15444599561E+03  0.95784195136E+02 0.  0.
          5    1    1    2  502    0 -0.48323094287E+02 -0.27274131291E+01  0.69967476990E+02  0.85179108121E+02  0.41800000000E+01 0. -1.
         -5    1    1    2    0  502 -0.34893943431E+02 -0.32013291749E+02 -0.51550951767E+02  0.70124255182E+02  0.41800000000E+01 0. -1.
        -11    1    3    3    0    0  0.29993993596E+02  0.13501249330E+02 -0.90547946670E+02  0.96337189244E+02  0.00000000000E+00 0. -1.
         11    1    3    3    0    0  0.53223044122E+02  0.21239455548E+02  0.96346499780E+01  0.58108806371E+02  0.00000000000E+00 0.  1.
</event>
<event>
 7    1  0.1758121E-005  0.1044261E+03  0.7561462E-02  0.1271254E+00
         -1   -1    0    0    0  501 -0.00000000000E+00  0.00000000000E+00  0.58482602808E+03  0.58482602808E+03  0.00000000000E+00 0.  1.
          1   -1    0    0  501    0  0.00000000000E+00 -0.00000000000E+00 -0.24974399677E+02  0.24974399677E+02  0.00000000000E+00 0. -1.
         23    2    1    2    0    0  0.35739140380E+02  0.25175227892E+02  0.17897377970E+03  0.20653107513E+03  0.93340199901E+02 0.  0.
          5    1    1    2  502    0 -0.97393716505E+01  0.42441256973E+02  0.24837993544E+03  0.25220265736E+03  0.41800000000E+01 0. -1.
         -5    1    1    2    0  502 -0.25999768729E+02 -0.67616484865E+02  0.13249791327E+03  0.15106669527E+03  0.41800000000E+01 0. -1.
        -11    1    3    3    0    0 -0.25801812907E+02  0.15901906085E+02  0.21371572756E+02  0.37085688459E+02  0.00000000000E+00 0.  1.
         11    1    3    3    0    0  0.61540953286E+02  0.92733218079E+01  0.15760220694E+03  0.16944538667E+03  0.00000000000E+00 0. -1.
</event>
<event>
 7    1  0.1758121E-005  0.1096577E+03  0.7561462E-02  0.1261205E+00
         -3   -1    0    0    0  501 -0.00000000000E+00  0.00000000000E+00  0.33587954422E+03  0.33587954422E+03  0.00000000000E+00 0.  1.
          3   -1    0    0  501    0  0.00000000000E+00 -0.00000000000E+00 -0.59490365384E+02  0.59490365384E+02  0.00000000000E+00 0. -1.
         23    2    1    2    0    0 -0.46493079859E+02 -0.15025811395E+02  0.16196198828E+02  0.10266155791E+03  0.88823967106E+02 0.  0.
          5    1    1    2  502    0  0.76797305974E+02  0.31776985317E+02  0.10676189795E+03  0.13536313477E+03  0.41800000000E+01 0. -1.
         -5    1    1    2    0  502 -0.30304226115E+02 -0.16751173922E+02  0.15343108206E+03  0.15734521693E+03  0.41800000000E+01 0. -1.
        -11    1    3    3    0    0 -0.73256153643E+02 -0.12795402303E+02  0.14392785684E+02  0.75745221937E+02  0.00000000000E+00 0.  1.
         11    1    3    3    0    0  0.26763073783E+02 -0.22304090918E+01  0.18034131444E+01  0.26916335970E+02  0.00000000000E+00 0. -1.
</event>
<event>
 7    1  0.1758121E-005  0.8277266E+02  0.7561462E-02  0.1321362E+00
         -1   -1    0    0    0  501 -0.00000000000E+00  0.00000000000E+00  0.51900005452E+03  0.51900005452E+03  0.00000000000E+00 0.  1.
          1   -1    0    0  501    0  0.00000000000E+00 -0.00000000000E+00 -0.33423452780E+02  0.33423452780E+02  0.00000000000E+00 0. -1.
         23    2    1    2    0    0 -0.49253955345E+02 -0.28794206501E+02  0.11750781499E+03  0.15953022635E+03  0.91579190268E+02 0.  0.
          5    1    1    2  502    0  0.87221255069E+00  0.19695851417E+02 -0.13373952969E+01  0.20197731159E+02  0.41800000000E+01 0.  1.
         -5    1    1    2    0  502  0.48381742795E+02  0.90983550839E+01  0.36940618205E+03  0.37269554979E+03  0.41800000000E+01 0.  1.
        -11    1    3    3    0    0 -0.40344662841E+02 -0.55054455105E+02  0.11214975596E+03  0.13128690951E+03  0.00000000000E+00 0. -1.
         11    1    3    3    0    0 -0.89092925046E+01  0.26260248604E+02  0.53580590335E+01  0.28243316843E+02  0.00000000000E+00 0.  1.
</event>
<event>
 7    1  0.1758121E-005  0.9187268E+02  0.7561462E-02  0.1298379E+00
         -1   -1    0    0    0  501 -0.00000000000E+00  0.00000000000E+00  0.22483349185E+02  0.22483349185E+02  0.00000000000E+00 0. -1.
          1   -1    0    0  501    0  0.00000000000E+00 -0.00000000000E+00 -0.64472526238E+03  0.64472526238E+03  0.00000000000E+00 0.  1.
         23    2    1    2    0    0  0.37792989950E+02  0.17743001889E+01 -0.37057906904E+03  0.38363535320E+03  0.91737558179E+02 0.  0.
          5    1    1    2  502    0  0.10857119909E+02 -0.28046937206E+02 -0.21492296771E+03  0.21705727858E+03  0.41800000000E+01 0.  1.
         -5    1    1    2    0  502 -0.48650109859E+02  0.26272637017E+02 -0.36739876451E+02  0.66515979785E+02  0.41800000000E+01 0.  1.
        -11    1    3    3    0    0  0.40833904482E+02 -0.39342713046E+02 -0.24438067206E+03  0.25087281579E+03  0.00000000000E+00 0. -1.
         11    1    3    3    0    0 -0.30409145315E+01  0.41117013235E+02 -0.12619839698E+03  0.13276253741E+03  0.00000000000E+00 0.  1.
</event>
<event>
 7    1  0.1758121E-005  0.1838128E+03  0.7561462E-02  0.1164163E+00
          1   -1    0    0  501    0  0.00000000000E+00  0.00000000000E+00  0.26590946860E+03  0.26590946860E+03  0.00000000000E+00 0. -1.
         -1   -1    0    0    0  501 -0.00000000000E+00 -0.00000000000E+00 -0.17208867412E+03  0.17208867412E+03  0.00000000000E+00 0.  1.
         23    2    1    2    0    0 -0.14639722798E+03 -0.76958415090E+02  0.12827845712E+03  0.22778368299E+03  0.89862660005E+02 0.  0.
          5    1    1    2  502    0  0.87531480717E+02  0.10350910106E+03  0.25927019014E+01  0.13564692633E+03  0.41800000000E+01 0.  1.
         -5    1    1    2    0  502  0.58865747263E+02 -0.26550685972E+02 -0.37050364537E+02  0.74567533409E+02  0.41800000000E+01 0.  1.
        -11    1    3    3    0    0 -0.87362579302E+02 -0.59606747635E+02  0.26792391862E+02  0.10910094815E+03  0.00000000000E+00 0.  1.
         11    1    3    3    0    0 -0.59034648678E+02 -0.17351667454E+02  0.10148606525E+03  0.11868273484E+03  0.00000000000E+00 0. -1.
</event>
<event>
 7    1  0.1758121E-005  0.6436615E+02  0.7561462E-02  0.1380372E+00
          2   -1    0    0  501    0  0.00000000000E+00  0.00000000000E+00  0.82549386942E+02  0.82549386942E+02  0.00000000000E+00 0. -1.
         -2   -1    0    0    0  501 -0.00000000000E+00 -0.00000000000E+00 -0.20560652834E+03  0.20560652834E+03  0.00000000000E+00 0.  1.
         23    2    1    2    0    0  0.98555217553E+01  0.38088416754E+02  0.12869829012E+02  0.99270600457E+02  0.90228381435E+02 0.  0.
          5    1    1    2  502    0 -0.32290701547E+02 -0.52480094819E+02 -0.13105488298E+02  0.63135378214E+02  0.41800000000E+01 0.  1.
         -5    1    1    2    0  502  0.22435179792E+02  0.14391678065E+02 -0.12282148211E+03  0.12574993661E+03  0.41800000000E+01 0.  1.
        -11    1    3    3    0    0  0.19122961273E+01  0.21657019423E+02 -0.38797891478E+02  0.44474259408E+02  0.00000000000E+00 0.  1.
         11    1    3    3    0    0  0.79432256281E+01  0.16431397331E+02  0.51667720491E+02  0.54796341049E+02  0.00000000000E+00 0. -1.
</event>
<event>
 7    1  0.1758121E-005  0.1238752E+03  0.7561462E-02  0.1236838E+00
          2   -1    0    0  501    0  0.00000000000E+00  0.00000000000E+00  0.81769904806E+03  0.81769904806E+03  0.00000000000E+00 0. -1.
         -2   -1    0    0    0  501 -0.00000000000E+00 -0.00000000000E+00 -0.19009914838E+02  0.19009914838E+02  0.00000000000E+00 0.  1.
         23    2    1    2    0    0  0.32367956466E+02 -0.52348021765E+02  0.38432736894E+03  0.39952387702E+03  0.90132135224E+02 0.  0.
          5    1    1    2  502    0 -0.42124787559E+02 -0.32522776971E+02  0.14165799742E+03  0.15138259273E+03  0.41800000000E+01 0.  1.
         -5    1    1    2    0  502  0.97568310934E+01  0.84870798736E+02  0.27270376686E+03  0.28580249315E+03  0.41800000000E+01 0.  1.
        -11    1    3    3    0    0 -0.17298842813E+02 -0.56410340732E+02  0.19338525585E+03  0.20218613623E+03  0.00000000000E+00 0.  1.
         11    1    3    3    0    0  0.49666799279E+02  0.40623189669E+01  0.19094211309E+03  0.19733774079E+03  0.00000000000E+00 0. -1.
</event>
<event>
 7    1  0.1758121E-005  0.5706845E+02  0.7561462E-02  0.1410563E+00
         -1   -1    0    0    0  501 -0.00000000000E+00  0.00000000000E+00  0.12538944607E+03  0.12538944607E+03  0.00000000000E+00 0.  1.
          1   -1    0    0  501    0  0.00000000000E+00 -0.00000000000E+00 -0.11048286197E+03  0.11048286197E+03  0.00000000000E+00 0. -1.
         23    2    1    2    0    0 -0.14161440310E+02 -0.37905696692E+02 -0.15570141063E+02  0.10091305529E+03  0.91124240472E+02 0.  0.
          5    1    1    2  502    0 -0.20533744456E+02  0.27552582488E+02 -0.41643794855E+02  0.54152169975E+02  0.41800000000E+01 0.  1.
         -5    1    1    2    0  502  0.34695184766E+02  0.10353114204E+02  0.72120520021E+02  0.80807082782E+02  0.41800000000E+01 0.  1.
        -11    1    3    3    0    0 -0.15814192039E+02 -0.22064278589E+02  0.37052602725E+02  0.45932738087E+02  0.00000000000E+00 0.  1.
         11    1    3    3    0    0  0.16527517297E+01 -0.15841418103E+02 -0.52622743788E+02  0.54980317201E+02  0.00000000000E+00 0. -1.
</event>
<event>
 7    1  0.1758121E-005  0.1616955E+03  0.7561462E-02  0.1186796E+00
         -1   -1    0    0    0  501 -0.00000000000E+00  0.00000000000E+00  0.94632716880E+03  0.94632716880E+03  0.00000000000E+00 0.  1.
          1   -1    0    0  501    0  0.00000000000E+00 -0.00000000000E+00 -0.35280999290E+02  0.35280999290E+02  0.00000000000E+00 0. -1.
         23    2    1    2    0    0 -0.52674615792E+02 -0.13931991868E+03  0.32131367868E+03  0.36062857627E+03  0.68013491524E+02 0.  0.
          5    1    1    2  502    0  0.76176412516E+01 -0.12937007323E+02  0.71761430219E+01  0.17157040695E+02  0.41800000000E+01 0. -1.
         -5    1    1    2    0  502  0.45056974541E+02  0.15225692600E+03  0.58255634781E+03  0.60382255112E+03  0.41800000000E+01 0. -1.
        -11    1    3    3    0    0 -0.34889609396E+02 -0.95704738947E+02  0.28007595345E+03  0.29802553851E+03  0.00000000000E+00 0.  1.
         11    1    3    3    0    0 -0.17785006396E+02 -0.43615179731E+02  0.41237725224E+02  0.62603037763E+02  0.00000000000E+00 0. -1.
</event>
<event>
 7    1  0.1758121E-005  0.2307503E+03  0.7561462E-02  0.1126113E+00
         -1   -1    0    0    0  501 -0.00000000000E+00  0.00000000000E+00  0.36822066172E+03  0.36822066172E+03  0.00000000000E+00 0.  1.
          1   -1    0    0  501    0  0.00000000000E+00 -0.00000000000E+00 -0.21030344700E+03  0.21030344700E+03  0.00000000000E+00 0. -1.
         23    2    1    2    0    0 -0.22784286779E+03  0.24165618513E+01 -0.44900366942E+02  0.24882887152E+03  0.89339533118E+02 0.  0.
          5    1    1    2  502    0  0.18868626735E+02  0.11719671695E+02  0.87886146631E+02  0.90745925249E+02  0.41800000000E+01 0. -1.
         -5    1    1    2    0  502  0.20897424105E+03 -0.14136233547E+02  0.11493143503E+03  0.23894931195E+03  0.41800000000E+01 0. -1.
        -11    1    3    3    0    0 -0.19406680928E+03  0.11567871732E+02 -0.32622991880E+01  0.19443863998E+03  0.00000000000E+00 0.  1.
         11    1    3    3    0    0 -0.33776058504E+02 -0.91513098807E+01 -0.41638067754E+02  0.54390231539E+02  0.00000000000E+00 0. -1.
</event>
<event>
 7    1  0.1758121E-005  0.1280284E+03  0.7561462E-02  0.1230411E+00
         -1   -1    0    0    0  501 -0.00000000000E+00  0.00000000000E+00  0.73778338851E+03  0.73778338851E+03  0.00000000000E+00 0.  1.
          1   -1    0    0  501    0  0.00000000000E+00 -0.00000000000E+00 -0.25425752623E+02  0.25425752623E+02  0.00000000000E+00 0. -1.
         23    2    1    2    0    0 -0.68215249683E+02 -0.47979381215E+02  0.29394034956E+03  0.31860266067E+03  0.90285020765E+02 0.  0.
          5    1    1    2  502    0  0.86134681289E+02  0.75211383894E+02  0.28299881349E+03  0.30525683682E+03  0.41800000000E+01 0.  1.
         -5    1    1    2    0  502 -0.17919431606E+02 -0.27232002679E+02  0.13541847283E+03  0.13934964364E+03  0.41800000000E+01 0.  1.
        -11    1    3    3    0    0 -0.58532087598E+02  0.12962784941E+01  0.22980701039E+03  0.23714752295E+03  0.00000000000E+00 0.  1.
         11    1    3    3    0    0 -0.96831620848E+01 -0.49275659709E+02  0.64133339169E+02  0.81455137718E+02  0.00000000000E+00 0. -1.
</event>
<event>
 7    1  0.1758121E-005  0.1201321E+03  0.7561462E-02  0.1242879E+00
         -1   -1    0    0    0  501 -0.00000000000E+00  0.00000000000E+00  0.90587776892E+03  0.90587776892E+03  0.00000000000E+00 0.  1.
          1   -1    0    0  501    0  0.00000000000E+00 -0.00000000000E+00 -0.26395297720E+02  0.26395297720E+02  0.00000000000E+00 0. -1.
         23    2    1    2    0    0 -0.94597682736E+02  0.20699552684E+02  0.25147595910E+03  0.28464975655E+03  0.91695871429E+02 0.  0.
          5    1    1    2  502    0  0.32744678047E+02  0.34789246270E+02  0.79519719497E+02  0.92862068604E+02  0.41800000000E+01 0.  1.
         -5    1    1    2    0  502  0.61853004689E+02 -0.55488798954E+02  0.54848679260E+03  0.55476124149E+03  0.41800000000E+01 0.  1.
        -11    1    3    3    0    0 -0.62812105761E+02 -0.11505100506E+02  0.59048773065E+02  0.86974051121E+02  0.00000000000E+00 0. -1.
         11    1    3    3    0    0 -0.31785576974E+02  0.32204653190E+02  0.19242718604E+03  0.19767570543E+03  0.00000000000E+00 0.  1.
</event>
<event>
 7    1  0.1758121E-005  0.1159891E+03  0.7561462E-02  0.1249864E+00
          2   -1    0    0  501    0  0.00000000000E+00  0.00000000000E+00  0.54332650645E+02  0.54332650645E+02  0.00000000000E+00 0. -1.
         -2   -1    0    0    0  501 -0.00000000000E+00 -0.00000000000E+00 -0.33441855350E+03  0.33441855350E+03  0.00000000000E+00 0.  1.
         23    2    1    2    0    0  0.64431650787E+02 -0.46364971430E+02 -0.13834756351E+03  0.18371008578E+03  0.91149323033E+02 0.  0.
          5    1    1    2  502    0 -0.23129246975E+02  0.66265785188E+02 -0.14260482134E+03  0.15899598681E+03  0.41800000000E+01 0. -1.
         -5    1    1    2    0  502 -0.41302403813E+02 -0.19900813758E+02  0.86648199369E+00  0.46045131555E+02  0.41800000000E+01 0. -1.
        -11    1    3    3    0    0  0.28149781337E+02  0.23654867581E+02 -0.71202601291E+02  0.80135968080E+02  0.00000000000E+00 0. -1.
         11    1    3    3    0    0  0.36281869451E+02 -0.70019839011E+02 -0.67144962217E+02  0.10357411770E+03  0.00000000000E+00 0.  1.
</event>
<event>
 7    1  0.1758121E-005  0.1650740E+03  0.7561462E-02  0.1183084E+00
          1   -1    0    0  501    0  0.00000000000E+00  0.00000000000E+00  0.74112870394E+02  0.74112870394E+02  0.00000000000E+00 0. -1.
         -1   -1    0    0    0  501 -0.00000000000E+00 -0.00000000000E+00 -0.46608963204E+03  0.46608963204E+03  0.00000000000E+00 0.  1.
         23    2    1    2    0    0  0.13058541391E+03  0.73652529128E+02 -0.18605160997E+03  0.25642642073E+03  0.93070200931E+02 0.  0.
          5    1    1    2  502    0 -0.13056433067E+03 -0.92829511888E+02 -0.20956226521E+03  0.26381466624E+03  0.41800000000E+01 0.  1.
         -5    1    1    2    0  502 -0.21083241069E-01  0.19176982760E+02  0.36371135422E+01  0.19961415461E+02  0.41800000000E+01 0.  1.
        -11    1    3    3    0    0  0.24722468513E+02  0.95235784794E+01  0.67274534907E+01  0.27334184219E+02  0.00000000000E+00 0. -1.
         11    1    3    3    0    0  0.10586294540E+03  0.64128950648E+02 -0.19277906346E+03  0.22909223651E+03  0.00000000000E+00 0.  1.
</event>
<event>
 7    1  0.1758121E-005  0.1764025E+03  0.7561462E-02  0.1171331E+00
          2   -1    0    0  501    0  0.00000000000E+00  0.00000000000E+00  0.43775226402E+03  0.43775226402E+03  0.00000000000E+00 0. -1.
         -2   -1    0    0    0  501 -0.00000000000E+00 -0.00000000000E+00 -0.73316550453E+02  0.73316550453E+02  0.00000000000E+00 0.  1.
         23    2    1    2    0    0  0.44579252282E+02 -0.13235799281E+03  0.21180489270E+03  0.26930389537E+03  0.90317924556E+02 0.  0.
          5    1    1    2  502    0  0.18122350508E+02 -0.17061456384E+02  0.17248953686E+02  0.30569783858E+02  0.41800000000E+01 0. -1.
         -5    1    1    2    0  502 -0.62701602790E+02  0.14941944919E+03  0.13538186718E+03  0.21119513524E+03  0.41800000000E+01 0. -1.
        -11    1    3    3    0    0 -0.20148795002E+02 -0.79167356616E+02  0.11819356037E+03  0.14367728424E+03  0.00000000000E+00 0.  1.
         11    1    3    3    0    0  0.64728047284E+02 -0.53190636191E+02  0.93611332327E+02  0.12562661113E+03  0.00000000000E+00 0. -1.
</event>
<event>
 7    1  0.1758121E-005  0.9929296E+02  0.7561462E-02  0.1281790E+00
          2   -1    0    0  501    0  0.00000000000E+00  0.00000000000E+00  0.49683913803E+02  0.49683913803E+02  0.00000000000E+00 0. -1.
         -2   -1    0    0    0  501 -0.00000000000E+00 -0.00000000000E+00 -0.26242444545E+03  0.26242444545E+03  0.00000000000E+00 0.  1.
         23    2    1    2    0    0  0.24730756811E+02  0.23182264352E+02 -0.76606936497E+02  0.12414713742E+03  0.91623475689E+02 0.  0.
          5    1    1    2  502    0 -0.19264604425E+02 -0.70005711520E+02 -0.11514350995E+03  0.13618893094E+03  0.41800000000E+01 0.  1.
         -5    1    1    2    0  502 -0.54661523856E+01  0.46823447168E+02 -0.20990085199E+02  0.51772290883E+02  0.41800000000E+01 0.  1.
        -11    1    3    3    0    0 -0.27048610806E+01 -0.23892481540E+02 -0.63793433336E+02  0.68174548655E+02  0.00000000000E+00 0.  1.
         11    1    3    3    0    0  0.27435617891E+02  0.47074745891E+02 -0.12813503162E+02  0.55972588765E+02  0.00000000000E+00 0. -1.
</event>
<event>
 7    1  0.1758121E-005  0.1043479E+03  0.7561462E-02  0.1271410E+00
          1   -1    0    0  501    0  0.00000000000E+00  0.00000000000E+00  0.11423562626E+03  0.11423562626E+03  0.00000000000E+00 0. -1.
         -1   -1    0    0    0  501 -0.00000000000E+00 -0.00000000000E+00 -0.13333437338E+03  0.13333437338E+03  0.00000000000E+00 0.  1.
         23    2    1    2    0    0 -0.43117008038E+02 -0.34230469013E+02  0.84302123370E+01  0.10815636871E+03  0.92714239587E+02 0.  0.
          5    1    1    2  502    0  0.49962131766E+01  0.61036200009E+02 -0.57287773342E+02  0.83962737165E+02  0.41800000000E+01 0. -1.
         -5    1    1    2    0  502  0.38120794861E+02 -0.26805730996E+02  0.29758813883E+02  0.55450893760E+02  0.41800000000E+01 0. -1.
        -11    1    3    3    0    0 -0.34053944966E+02 -0.62315155833E+02 -0.12329135177E+02  0.72075359093E+02  0.00000000000E+00 0.  1.
         11    1    3    3    0    0 -0.90630630721E+01  0.28084686820E+02  0.20759347514E+02  0.36081009620E+02  0.00000000000E+00 0. -1.
</event>
<event>
 7    1  0.1758121E-005  0.2509784E+03  0.7561462E-02  0.1112688E+00
          2   -1    0    0  501    0  0.00000000000E+00  0.00000000000E+00  0.64539197397E+03  0.64539197397E+03  0.00000000000E+00 0. -1.
         -2   -1    0    0    0  501 -0.00000000000E+00 -0.00000000000E+00 -0.10957976256E+03  0.10957976256E+03  0.00000000000E+00 0.  1.
         23    2    1    2    0    0  0.29739640539E+02  0.23974807123E+03  0.26603731827E+03  0.37183772366E+03  0.95518868034E+02 0.  0.
          5    1    1    2  502    0 -0.51327575485E+01 -0.15333825191E+03  0.24625236320E+03  0.29016661331E+03  0.41800000000E+01 0.  1.
         -5    1    1    2    0  502 -0.24606882991E+02 -0.86409819316E+02  0.23522529944E+02  0.92967399553E+02  0.41800000000E+01 0.  1.
        -11    1    3    3    0    0 -0.14895063026E+02  0.19416793276E+03  0.21547701805E+03  0.29043655817E+03  0.00000000000E+00 0.  1.
         11    1    3    3    0    0  0.44634703566E+02  0.45580138468E+02  0.50560300218E+02  0.81401165491E+02  0.00000000000E+00 0. -1.
</event>
<event>
 7    1  0.1758121E-005  0.1609828E+03  0.7561462E-02  0.1187592E+00
         -1   -1    0    0    0  501 -0.00000000000E+00  0.00000000000E+00  0.83677572652E+02  0.83677572652E+02  0.00000000000E+00 0.  1.
          1   -1    0    0  501    0  0.00000000000E+00 -0.00000000000E+00 -0.44393394675E+03  0.44393394675E+03  0.00000000000E+00 0. -1.
         23    2    1    2    0    0  0.12632325966E+03 -0.96595217025E+02 -0.15704706419E+03  0.24085311660E+03  0.89767708681E+02 0.  0.
          5    1    1    2  502    0 -0.10289627756E+03  0.64433795703E+02 -0.55189127551E+02  0.13342664713E+03  0.41800000000E+01 0.  1.
         -5    1    1    2    0  502 -0.23426982097E+02  0.32161421322E+02 -0.14802018236E+03  0.15333175567E+03  0.41800000000E+01 0.  1.
        -11    1    3    3    0    0  0.62970296289E+02 -0.61665286713E+02 -0.27242311016E+02  0.92249711705E+02  0.00000000000E+00 0.  1.
         11    1    3    3    0    0  0.63352963372E+02 -0.34929930312E+02 -0.12980475318E+03  0.14860340490E+03  0.00000000000E+00 0. -1.
</event>
<event>
 7    1  0.1758121E-005  0.1069879E+03  0.7561462E-02  0.1266252E+00
          2   -1    0    0  501    0  0.00000000000E+00  0.00000000000E+00  0.30602525778E+03  0.30602525778E+03  0.00000000000E+00 0. -1.
         -2   -1    0    0    0  501 -0.00000000000E+00 -0.00000000000E+00 -0.57694772554E+02  0.57694772554E+02  0.00000000000E+00 0.  1.
         23    2    1    2    0    0  0.67624568026E+02 -0.15016109955E+02  0.15053848967E+03  0.19048889860E+03  0.93944759603E+02 0.  0.
          5    1    1    2  502    0 -0.95138186782E+02 -0.94939518366E+01  0.96817906967E+02  0.13613445271E+03  0.41800000000E+01 0.  1.
         -5    1    1    2    0  502  0.27513618756E+02  0.24510061791E+02  0.97408858523E+00  0.37096679024E+02  0.41800000000E+01 0.  1.
        -11    1    3    3    0    0  0.59286884988E+02  0.50093042489E+01  0.27487794063E+02  0.65540877955E+02  0.00000000000E+00 0.  1.
         11    1    3    3    0    0  0.83376830383E+01 -0.20025414204E+02  0.12305069561E+03  0.12494802064E+03  0.00000000000E+00 0. -1.
</event>
<event>
 7    1  0.1758121E-005  0.1423662E+03  0.7561462E-02  0.1210180E+00
          4   -1    0    0  501    0  0.00000000000E+00  0.00000000000E+00  0.20953373570E+03  0.20953373570E+03  0.00000000000E+00 0. -1.
         -4   -1    0    0    0  501 -0.00000000000E+00 -0.00000000000E+00 -0.10746839245E+03  0.10746839245E+03  0.00000000000E+00 0.  1.
         23    2    1    2    0    0  0.62194068489E+02 -0.82991926644E+02  0.26581089062E+02  0.13783278000E+03  0.86807597032E+02 0.  0.
          5    1    1    2  502    0 -0.26939089272E+01  0.10020623589E+03  0.49381711757E+02  0.11182384680E+03  0.41800000000E+01 0.  1.
         -5    1    1    2    0  502 -0.59500159562E+02 -0.17214309247E+02  0.26102542432E+02  0.67345501350E+02  0.41800000000E+01 0.  1.
        -11    1    3    3    0    0  0.52805155641E+02 -0.16721397544E+02 -0.17027476455E+02  0.57947601784E+02  0.00000000000E+00 0.  1.
         11    1    3    3    0    0  0.93889128485E+01 -0.66270529100E+02  0.43608565517E+02  0.79885178213E+02  0.00000000000E+00 0. -1.
</event>
<event>
 7    1  0.1758121E-005  0.6222216E+02  0.7561462E-02  0.1388736E+00
          2   -1    0    0  501    0  0.00000000000E+00  0.00000000000E+00  0.28683831846E+02  0.28683831846E+02  0.00000000000E+00 0. -1.
         -2   -1    0    0    0  501 -0.00000000000E+00 -0.00000000000E+00 -0.40954092861E+03  0.40954092861E+03  0.00000000000E+00 0.  1.
         23    2    1    2    0    0  0.95051814538E+01  0.64072038745E+01 -0.14181748132E+03  0.16819058915E+03  0.89691000294E+02 0.  0.
          5    1    1    2  502    0 -0.15353700495E+02  0.14486716567E+02  0.72862809093E+01  0.22719228977E+02  0.41800000000E+01 0.  1.
         -5    1    1    2    0  502  0.58485190415E+01 -0.20893920442E+02 -0.24632589636E+03  0.24731494233E+03  0.41800000000E+01 0.  1.
        -11    1    3    3    0    0  0.37610834444E+02 -0.19709652049E+02 -0.11143398677E+03  0.11925006775E+03  0.00000000000E+00 0.  1.
         11    1    3    3    0    0 -0.28105652990E+02  0.26116855923E+02 -0.30383494549E+02  0.48940521394E+02  0.00000000000E+00 0. -1.
</event>
<event>
 7    1  0.1758121E-005  0.8186799E+02  0.7561462E-02  0.1323832E+00
         -1   -1    0    0    0  501 -0.00000000000E+00  0.00000000000E+00  0.19341316406E+03  0.19341316406E+03  0.00000000000E+00 0.  1.
          1   -1    0    0  501    0  0.00000000000E+00 -0.00000000000E+00 -0.93233157241E+02  0.93233157241E+02  0.00000000000E+00 0. -1.
         23    2    1    2    0    0 -0.53409890866E+02  0.16299919265E+02 -0.14418491344E+02  0.10804515751E+03  0.91364978845E+02 0.  0.
          5    1    1    2  502    0  0.72120811421E+02 -0.12772426047E+02  0.12207489352E+02  0.74370972182E+02  0.41800000000E+01 0.  1.
         -5    1    1    2    0  502 -0.18710920555E+02 -0.35274932184E+01  0.10239100881E+03  0.10423019160E+03  0.41800000000E+01 0.  1.
        -11    1    3    3    0    0  0.61822102488E+01  0.88906771460E+01  0.30945550063E+02  0.32785529314E+02  0.00000000000E+00 0.  1.
         11    1    3    3    0    0 -0.59592101115E+02  0.74092421191E+01 -0.45364041407E+02  0.75259628200E+02  0.00000000000E+00 0. -1.
</event>
<event>
 7    1  0.1758121E-005  0.1530400E+03  0.7561462E-02  0.1196787E+00
          3   -1    0    0  501    0  0.00000000000E+00  0.00000000000E+00  0.61352028787E+03  0.61352028787E+03  0.00000000000E+00 0. -1.
         -3   -1    0    0    0  501 -0.00000000000E+00 -0.00000000000E+00 -0.10124814694E+03  0.10124814694E+03  0.00000000000E+00 0.  1.
         23    2    1    2    0    0 -0.18363967148E+01  0.10623455560E+03  0.52892137787E+03  0.54702884344E+03  0.90518387262E+02 0.  0.
          5    1    1    2  502    0  0.45831139654E+02  0.58849581523E+01 -0.44514860385E+01  0.46609164575E+02  0.41800000000E+01 0. -1.
         -5    1    1    2    0  502 -0.43994742939E+02 -0.11211951375E+03 -0.12197750899E+02  0.12113042680E+03  0.41800000000E+01 0.  1.
        -11    1    3    3    0    0 -0.32538076727E+02  0.10332810842E+03  0.39339470367E+03  0.40803776455E+03  0.00000000000E+00 0. -1.
         11    1    3    3    0    0  0.30701680012E+02  0.29064471830E+01  0.13552667420E+03  0.13899107888E+03  0.00000000000E+00 0.  1.
</event>
<event>
 7    1  0.1758121E-005  0.1058023E+03  0.7561462E-02  0.1268547E+00
         -1   -1    0    0    0  501 -0.00000000000E+00  0.00000000000E+00  0.49220011544E+02  0.49220011544E+02  0.00000000000E+00 0.  1.
          1   -1    0    0  501    0  0.00000000000E+00 -0.00000000000E+00 -0.31496052454E+03  0.31496052454E+03  0.00000000000E+00 0. -1.
         23    2    1    2    0    0  0.54004398068E+02 -0.14660082612E+02 -0.15011508846E+03  0.18488187890E+03  0.92278796738E+02 0.  0.
          5    1    1    2  502    0 -0.42863538555E+02  0.64674096740E+02 -0.38777446646E+02  0.86839993637E+02  0.41800000000E+01 0.  1.
         -5    1    1    2    0  502 -0.11140859513E+02 -0.50014014128E+02 -0.76847977885E+02  0.92458663547E+02  0.41800000000E+01 0.  1.
        -11    1    3    3    0    0  0.55607273644E+02  0.11082472015E+02 -0.34384553811E+02  0.66312047238E+02  0.00000000000E+00 0.  1.
         11    1    3    3    0    0 -0.16028755764E+01 -0.25742554627E+02 -0.11573053465E+03  0.11856983166E+03  0.00000000000E+00 0. -1.
</event>
<event>
 7    1  0.1758121E-005  0.1174260E+03  0.7561462E-02  0.1247405E+00
         -1   -1    0    0    0  501 -0.00000000000E+00  0.00000000000E+00  0.77317257436E+02  0.77317257436E+02  0.00000000000E+00 0.  1.
          1   -1    0    0  501    0  0.00000000000E+00 -0.00000000000E+00 -0.21883802318E+03  0.21883802318E+03  0.00000000000E+00 0. -1.
         23    2    1    2    0    0  0.33375516951E+02  0.62508108274E+02 -0.66205187933E+02  0.13389851192E+03  0.92328196414E+02 0.  0.
          5    1    1    2  502    0 -0.48106013741E+02  0.25050877792E+02 -0.34746196792E+02  0.64548475022E+02  0.41800000000E+01 0. -1.
         -5    1    1    2    0  502  0.14730496789E+02 -0.87558986066E+02 -0.40569381019E+02  0.97708293675E+02  0.41800000000E+01 0. -1.
        -11    1    3    3    0    0  0.41868855795E+02  0.69113204211E+02 -0.15772756034E+02  0.82331135756E+02  0.00000000000E+00 0.  1.
         11    1    3    3    0    0 -0.84933388438E+01 -0.66050959376E+01 -0.50432431899E+02  0.51567376163E+02  0.00000000000E+00 0. -1.
</event>
<event>
 7    1  0.1758121E-005  0.1145279E+03  0.7561462E-02  0.1252407E+00
          3   -1    0    0  501    0  0.00000000000E+00  0.00000000000E+00  0.74832695067E+02  0.74832695067E+02  0.00000000000E+00 0. -1.
         -3   -1    0    0    0  501 -0.00000000000E+00 -0.00000000000E+00 -0.24008073235E+03  0.24008073235E+03  0.00000000000E+00 0.  1.
         23    2    1    2    0    0  0.58864973753E+02 -0.44096394149E+02 -0.39299093541E+02  0.12276534937E+03  0.90096254866E+02 0.  0.
          5    1    1    2  502    0 -0.78596040985E+02  0.56950011580E+02 -0.13521701696E+03  0.16649851516E+03  0.41800000000E+01 0. -1.
         -5    1    1    2    0  502  0.19731067232E+02 -0.12853617431E+02  0.92680732125E+01  0.25649562886E+02  0.41800000000E+01 0. -1.
        -11    1    3    3    0    0 -0.23389261801E+01 -0.46672636701E+02 -0.39985786498E+02  0.61503404086E+02  0.00000000000E+00 0.  1.
         11    1    3    3    0    0  0.61203899933E+02  0.25762425527E+01  0.68669295654E+00  0.61261945284E+02  0.00000000000E+00 0. -1.
</event>
<event>
 7    1  0.1758121E-005  0.9531595E+02  0.7561462E-02  0.1290466E+00
          1   -1    0    0  501    0  0.00000000000E+00  0.00000000000E+00  0.61926120372E+03  0.61926120372E+03  0.00000000000E+00 0. -1.
         -1   -1    0    0    0  501 -0.00000000000E+00 -0.00000000000E+00 -0.26725761296E+02  0.26725761296E+02  0.00000000000E+00 0.  1.
         23    2    1    2    0    0 -0.62066935216E+02 -0.24868217739E+02  0.29963747791E+03  0.32055213665E+03  0.92197187803E+02 0.  0.
          5    1    1    2  502    0  0.36605996479E+01  0.16747761816E+02  0.25412726072E+03  0.25473913040E+03  0.41800000000E+01 0. -1.
         -5    1    1    2    0  502  0.58406335568E+02  0.81204559237E+01  0.38770703791E+02  0.70695697969E+02  0.41800000000E+01 0. -1.
        -11    1    3    3    0    0 -0.10707186915E+02 -0.53845676486E+02  0.14145246537E+03  0.15173266190E+03  0.00000000000E+00 0. -1.
         11    1    3    3    0    0 -0.51359748301E+02  0.28977458747E+02  0.15818501255E+03  0.16881947475E+03  0.00000000000E+00 0.  1.
</event>
<event>
 7    1  0.1758121E-005  0.9432280E+02  0.7561462E-02  0.1292709E+00
          2   -1    0    0  501    0  0.00000000000E+00  0.00000000000E+00  0.30755345755E+03  0.30755345755E+03  0.00000000000E+00 0. -1.
         -2   -1    0    0    0  501 -0.00000000000E+00 -0.00000000000E+00 -0.45694931866E+02  0.45694931866E+02  0.00000000000E+00 0.  1.
         23    2    1    2    0    0 -0.55151736633E+00  0.39098426156E+02  0.68872219986E+02  0.11995630407E+03  0.90095178012E+02 0.  0.
          5    1    1    2  502    0  0.39783969320E+02 -0.63145132770E+01  0.79427660586E+01  0.41269810097E+02  0.41800000000E+01 0.  1.
         -5    1    1    2    0  502 -0.39232451954E+02 -0.32783912879E+02  0.18504353964E+03  0.19202227525E+03  0.41800000000E+01 0.  1.
        -11    1    3    3    0    0 -0.39313331119E+02  0.42553905524E+02  0.50787972376E+02  0.77044084894E+02  0.00000000000E+00 0. -1.
         11    1    3    3    0    0  0.38761813752E+02 -0.34554793680E+01  0.18084247610E+02  0.42912219176E+02  0.00000000000E+00 0.  1.
</event>
<event>
 7    1  0.1758121E-005  0.1622393E+03  0.7561462E-02  0.1186192E+00
         -2   -1    0    0    0  501 -0.00000000000E+00  0.00000000000E+00  0.15160187130E+03  0.15160187130E+03  0.00000000000E+00 0.  1.
          2   -1    0    0  501    0  0.00000000000E+00 -0.00000000000E+00 -0.77238899360E+03  0.77238899360E+03  0.00000000000E+00 0. -1.
         23    2    1    2    0    0  0.12499932703E+03 -0.20147640274E+01 -0.71158515834E+03  0.72835808849E+03  0.92321051076E+02 0.  0.
          5    1    1    2  502    0  0.13628825115E+02 -0.26922032194E+02  0.78470264059E+01  0.31457732196E+02  0.41800000000E+01 0. -1.
         -5    1    1    2    0  502 -0.13862815215E+03  0.28936796222E+02  0.82951009639E+02  0.16417504422E+03  0.41800000000E+01 0.  1.
        -11    1    3    3    0    0 -0.18847037120E+01 -0.23561842925E+02 -0.66925877789E+02  0.70977360249E+02  0.00000000000E+00 0.  1.
         11    1    3    3    0    0  0.12688403074E+03  0.21547078897E+02 -0.64465928055E+03  0.65738072824E+03  0.00000000000E+00 0. -1.
</event>
<event>
 7    1  0.1758121E-005  0.1134016E+03  0.7561462E-02  0.1254397E+00
         -1   -1    0    0    0  501 -0.00000000000E+00  0.00000000000E+00  0.72653106570E+03  0.72653106570E+03  0.00000000000E+00 0.  1.
          1   -1    0    0  501    0  0.00000000000E+00 -0.00000000000E+00 -0.48178155096E+02  0.48178155096E+02  0.00000000000E+00 0. -1.
         23    2    1    2    0    0 -0.81668425303E+02 -0.73439152842E+02  0.10823791609E+03  0.18078774375E+03  0.94370127422E+02 0.  0.
          5    1    1    2  502    0  0.26557381900E+02  0.33799510715E+02  0.47517053740E+03  0.47712913710E+03  0.41800000000E+01 0. -1.
         -5    1    1    2    0  502  0.55111043403E+02  0.39639642127E+02  0.94944457112E+02  0.11679233994E+03  0.41800000000E+01 0. -1.
        -11    1    3    3    0    0 -0.54899434436E+02 -0.69462555368E+02  0.12175005964E+03  0.15053926904E+03  0.00000000000E+00 0.  1.
         11    1    3    3    0    0 -0.26768990867E+02 -0.39765974742E+01 -0.13512143546E+02  0.30248474717E+02  0.00000000000E+00 0. -1.
</event>
<event>
 7    1  0.1758121E-005  0.1295218E+03  0.7561462E-02  0.1228167E+00
          4   -1    0    0  501    0  0.00000000000E+00  0.00000000000E+00  0.14413972880E+03  0.14413972880E+03  0.00000000000E+00 0. -1.
         -4   -1    0    0    0  501 -0.00000000000E+00 -0.00000000000E+00 -0.14592128963E+03  0.14592128963E+03  0.00000000000E+00 0.  1.
         23    2    1    2    0    0  0.50900292470E+01 -0.95661704559E+02  0.62666127284E+01  0.13243130894E+03  0.91223412758E+02 0.  0.
          5    1    1    2  502    0  0.96522383702E+01  0.11912541291E+03 -0.28497981338E+02  0.12293753311E+03  0.41800000000E+01 0.  1.
         -5    1    1    2    0  502 -0.14742267617E+02 -0.23463708352E+02  0.20449807783E+02  0.34692176387E+02  0.41800000000E+01 0.  1.
        -11    1    3    3    0    0 -0.67366077026E+01 -0.98931192899E+02 -0.22039593373E+02  0.10158004965E+03  0.00000000000E+00 0.  1.
         11    1    3    3    0    0  0.11826636950E+02  0.32694883399E+01  0.28306206102E+02  0.30851259284E+02  0.00000000000E+00 0. -1.
</event>
<event>
 7    1  0.1758121E-005  0.1102475E+03  0.7561462E-02  0.1260112E+00
          1   -1    0    0  501    0  0.00000000000E+00  0.00000000000E+00  0.36541439124E+03  0.36541439124E+03  0.00000000000E+00 0. -1.
         -1   -1    0    0    0  501 -0.00000000000E+00 -0.00000000000E+00 -0.41657123162E+02  0.41657123162E+02  0.00000000000E+00 0.  1.
         23    2    1    2    0    0  0.29554525055E+02  0.23756663980E+02  0.21754004487E+03  0.23864432667E+03  0.90496378351E+02 0.  0.
          5    1    1    2  502    0 -0.36914049531E+02  0.45547784745E+02  0.63731329039E+02  0.86697188242E+02  0.41800000000E+01 0. -1.
         -5    1    1    2    0  502  0.73595244759E+01 -0.69304448724E+02  0.42485894169E+02  0.81729999491E+02  0.41800000000E+01 0. -1.
        -11    1    3    3    0    0 -0.26354621446E+02  0.24501515841E+02  0.47138727567E+02  0.59303878345E+02  0.00000000000E+00 0.  1.
         11    1    3    3    0    0  0.55909146501E+02 -0.74485186120E+00  0.17040131730E+03  0.17934044832E+03  0.00000000000E+00 0. -1.
</event>
<event>
 7    1  0.1758121E-005  0.1134348E+03  0.7561462E-02  0.1254338E+00
          1   -1    0    0  501    0  0.00000000000E+00  0.00000000000E+00  0.51902139718E+02  0.51902139718E+02  0.00000000000E+00 0. -1.
         -1   -1    0    0    0  501 -0.00000000000E+00 -0.00000000000E+00 -0.30702723077E+03  0.30702723077E+03  0.00000000000E+00 0.  1.
         23    2    1    2    0    0  0.28479190211E+02 -0.27894289087E+01 -0.37294249003E+02  0.10052441874E+03  0.88856359173E+02 0.  0.
          5    1    1    2  502    0  0.52453144181E+02 -0.31661327835E+01 -0.53641380437E+02  0.75207890719E+02  0.41800000000E+01 0. -1.
         -5    1    1    2    0  502 -0.80932334392E+02  0.59555616922E+01 -0.16418946161E+03  0.18319706103E+03  0.41800000000E+01 0.  1.
        -11    1    3    3    0    0 -0.30510700893E+02 -0.12756676119E+02 -0.85840806234E+01  0.34166095691E+02  0.00000000000E+00 0.  1.
         11    1    3    3    0    0  0.58989891104E+02  0.99672472106E+01 -0.28710168379E+02  0.66358323048E+02  0.00000000000E+00 0. -1.
</event>
<event>
 7    1  0.1758121E-005  0.1149267E+03  0.7561462E-02  0.1251709E+00
         -2   -1    0    0    0  501 -0.00000000000E+00  0.00000000000E+00  0.22070033807E+03  0.22070033807E+03  0.00000000000E+00 0.  1.
          2   -1    0    0  501    0  0.00000000000E+00 -0.00000000000E+00 -0.46166976995E+03  0.46166976995E+03  0.00000000000E+00 0. -1.
         23    2    1    2    0    0  0.73594994626E+02 -0.39419616329E+01 -0.43321897586E+03  0.44881958008E+03  0.91261010956E+02 0.  0.
          5    1    1    2  502    0  0.64892924847E+01 -0.26084002779E+02  0.50104498420E+01  0.27659774503E+02  0.41800000000E+01 0. -1.
         -5    1    1    2    0  502 -0.80084287111E+02  0.30025964412E+02  0.18723909413E+03  0.20589075344E+03  0.41800000000E+01 0.  1.
        -11    1    3    3    0    0  0.11164761572E+01 -0.37242056921E+02 -0.15284193507E+03  0.15731774992E+03  0.00000000000E+00 0.  1.
         11    1    3    3    0    0  0.72478518469E+02  0.33300095288E+02 -0.28037704079E+03  0.29150183016E+03  0.00000000000E+00 0. -1.
</event>
<event>
 7    1  0.1758121E-005  0.1525954E+03  0.7561462E-02  0.1197320E+00
         -1   -1    0    0    0  501 -0.00000000000E+00  0.00000000000E+00  0.10661399791E+03  0.10661399791E+03  0.00000000000E+00 0.  1.
          1   -1    0    0  501    0  0.00000000000E+00 -0.00000000000E+00 -0.25669016710E+03  0.25669016710E+03  0.00000000000E+00 0. -1.
         23    2    1    2    0    0  0.10986379502E+03  0.60442351094E+02 -0.83959057051E+02  0.17425063109E+03  0.87125357465E+02 0.  0.
          5    1    1    2  502    0  0.28063296251E+02 -0.12530413256E+02 -0.10334578688E+02  0.32693053841E+02  0.41800000000E+01 0.  1.
         -5    1    1    2    0  502 -0.13792709127E+03 -0.47911937838E+02 -0.55782533454E+02  0.15636048008E+03  0.41800000000E+01 0.  1.
        -11    1    3    3    0    0  0.70385157865E+01  0.13167080538E+02  0.16975478721E+02  0.22607069518E+02  0.00000000000E+00 0.  1.
         11    1    3    3    0    0  0.10282527923E+03  0.47275270556E+02 -0.10093453577E+03  0.15164356157E+03  0.00000000000E+00 0. -1.
</event>
<event>
 7    1  0.1758121E-005  0.8801733E+02  0.7561462E-02  0.1307725E+00
          2   -1    0    0  501    0  0.00000000000E+00  0.00000000000E+00  0.11894700371E+03  0.11894700371E+03  0.00000000000E+00 0. -1.
         -2   -1    0    0    0  501 -0.00000000000E+00 -0.00000000000E+00 -0.19629364123E+03  0.19629364123E+03  0.00000000000E+00 0.  1.
         23    2    1    2    0    0  0.16971930570E+02  0.60515544594E+02  0.49344062766E+02  0.12643287858E+03  0.97980909835E+02 0.  0.
          5    1    1    2  502    0 -0.53314310713E+02 -0.52524696917E+02 -0.22759895994E+02  0.78337377916E+02  0.41800000000E+01 0.  1.
         -5    1    1    2    0  502  0.36342380143E+02 -0.79908476763E+01 -0.10393080429E+03  0.11047038844E+03  0.41800000000E+01 0.  1.
        -11    1    3    3    0    0  0.11614716997E+02  0.23317772636E+02  0.76011247669E+02  0.80351290866E+02  0.00000000000E+00 0. -1.
         11    1    3    3    0    0  0.53572135730E+01  0.37197771958E+02 -0.26667184904E+02  0.46081587718E+02  0.00000000000E+00 0.  1.
</event>
<event>
 7    1  0.1758121E-005  0.1196820E+03  0.7561462E-02  0.1243623E+00
          2   -1    0    0  501    0  0.00000000000E+00  0.00000000000E+00  0.59696812053E+03  0.59696812053E+03  0.00000000000E+00 0. -1.
         -2   -1    0    0    0  501 -0.00000000000E+00 -0.00000000000E+00 -0.32292945265E+02  0.32292945265E+02  0.00000000000E+00 0.  1.
         23    2    1    2    0    0 -0.66206355991E+02  0.22441076183E+02  0.37111393269E+03  0.38842839939E+03  0.90907573608E+02 0.  0.
          5    1    1    2  502    0  0.81338200319E+02  0.22203844119E+02  0.16557218442E+03  0.18585083852E+03  0.41800000000E+01 0. -1.
         -5    1    1    2    0  502 -0.15131844328E+02 -0.44644920302E+02  0.27989058153E+02  0.54981827887E+02  0.41800000000E+01 0. -1.
        -11    1    3    3    0    0 -0.68670828094E+02 -0.14842495439E+02  0.17124486912E+03  0.18509669771E+03  0.00000000000E+00 0.  1.
         11    1    3    3    0    0  0.24644721026E+01  0.37283571622E+02  0.19986906357E+03  0.20333170168E+03  0.00000000000E+00 0. -1.
</event>
<event>
 7    1  0.1758121E-005  0.1083521E+03  0.7561462E-02  0.1263652E+00
         -3   -1    0    0    0  501 -0.00000000000E+00  0.00000000000E+00  0.10583140857E+03  0.10583140857E+03  0.00000000000E+00 0.  1.
          3   -1    0    0  501    0  0.00000000000E+00 -0.00000000000E+00 -0.13200084966E+03  0.13200084966E+03  0.00000000000E+00 0. -1.
         23    2    1    2    0    0 -0.61532916459E+01  0.39781394930E+01 -0.44243530559E+02  0.11121604384E+03  0.10177342393E+03 0.  0.
          5    1    1    2  502    0 -0.51380334348E+02  0.16687770751E+02 -0.16009388132E+02  0.56499498747E+02  0.41800000000E+01 0. -1.
         -5    1    1    2    0  502  0.57533625994E+02 -0.20665910244E+02  0.34083477602E+02  0.70116715637E+02  0.41800000000E+01 0. -1.
        -11    1    3    3    0    0  0.46026523050E+02 -0.10262607330E+02 -0.27529197979E+02  0.54604200156E+02  0.00000000000E+00 0. -1.
         11    1    3    3    0    0 -0.52179814696E+02  0.14240746823E+02 -0.16714332580E+02  0.56611843684E+02  0.00000000000E+00 0.  1.
</event>
<event>
 7    1  0.1758121E-005  0.1121897E+03  0.7561462E-02  0.1256568E+00
          1   -1    0    0  501    0  0.00000000000E+00  0.00000000000E+00  0.31260835297E+03  0.31260835297E+03  0.00000000000E+00 0. -1.
         -1   -1    0    0    0  501 -0.00000000000E+00 -0.00000000000E+00 -0.60749377554E+02  0.60749377554E+02  0.00000000000E+00 0.  1.
         23    2    1    2    0    0  0.33764252613E+02  0.29688415554E+02  0.21108333118E+03  0.23431840504E+03  0.91255221591E+02 0.  0.
          5    1    1    2  502    0  0.36997634727E+02  0.15912525424E+02 -0.85460031972E+01  0.41382846826E+02  0.41800000000E+01 0. -1.
         -5    1    1    2    0  502 -0.70761887340E+02 -0.45600940977E+02  0.49321647437E+02  0.97656478657E+02  0.41800000000E+01 0. -1.
        -11    1    3    3    0    0  0.10503009601E+02  0.60270620173E+02  0.10542520651E+03  0.12189066836E+03  0.00000000000E+00 0.  1.
         11    1    3    3    0    0  0.23261243011E+02 -0.30582204620E+02  0.10565812467E+03  0.11242773668E+03  0.00000000000E+00 0. -1.
</event>
<event>
 7    1  0.1758121E-005  0.9528655E+02  0.7561462E-02  0.1290532E+00
         -1   -1    0    0    0  501 -0.00000000000E+00  0.00000000000E+00  0.41938635149E+02  0.41938635149E+02  0.00000000000E+00 0.  1.
          1   -1    0    0  501    0  0.00000000000E+00 -0.00000000000E+00 -0.30101927012E+03  0.30101927012E+03  0.00000000000E+00 0. -1.
         23    2    1    2    0    0  0.26443855025E+02  0.91106888942E+01 -0.11042212877E+03  0.14666895177E+03  0.92392925975E+02 0.  0.
          5    1    1    2  502    0  0.21929542268E+02 -0.51545160566E+02 -0.36731543331E+02  0.67115475692E+02  0.41800000000E+01 0.  1.
         -5    1    1    2    0  502 -0.48373397293E+02  0.42434471672E+02 -0.11192696287E+03  0.12917347781E+03  0.41800000000E+01 0.  1.
        -11    1    3    3    0    0 -0.32806183843E+01  0.32145459053E+02 -0.10350695016E+03  0.10843330543E+03  0.00000000000E+00 0. -1.
         11    1    3    3    0    0  0.29724473409E+02 -0.23034770159E+02 -0.69151786085E+01  0.38235646339E+02  0.00000000000E+00 0.  1.
</event>
<event>
 7    1  0.1758121E-005  0.1804572E+03  0.7561462E-02  0.1167361E+00
         -2   -1    0    0    0  501 -0.00000000000E+00  0.00000000000E+00  0.10788506954E+03  0.10788506954E+03  0.00000000000E+00 0.  1.
          2   -1    0    0  501    0  0.00000000000E+00 -0.00000000000E+00 -0.43814777936E+03  0.43814777936E+03  0.00000000000E+00 0. -1.
         23    2    1    2    0    0 -0.43453049141E+02  0.16837447274E+03 -0.24502072971E+03  0.31548522382E+03  0.96216619744E+02 0.  0.
          5    1    1    2  502    0 -0.13811527163E+02 -0.17289881974E+02 -0.63610782808E+02  0.67479644269E+02  0.41800000000E+01 0. -1.
         -5    1    1    2    0  502  0.57264576304E+02 -0.15108459077E+03 -0.21631197307E+02  0.16306798080E+03  0.41800000000E+01 0. -1.
        -11    1    3    3    0    0 -0.21834585904E+02  0.13661000177E+03 -0.11498155733E+03  0.17988829937E+03  0.00000000000E+00 0.  1.
         11    1    3    3    0    0 -0.21618463237E+02  0.31764470971E+02 -0.13003917237E+03  0.13559692445E+03  0.00000000000E+00 0. -1.
</event>
<event>
 7    1  0.1758121E-005  0.1065902E+03  0.7561462E-02  0.1267018E+00
          2   -1    0    0  501    0  0.00000000000E+00  0.00000000000E+00  0.26997878409E+03  0.26997878409E+03  0.00000000000E+00 0. -1.
         -2   -1    0    0    0  501 -0.00000000000E+00 -0.00000000000E+00 -0.51986470582E+02  0.51986470582E+02  0.00000000000E+00 0.  1.
         23    2    1    2    0    0 -0.37964240234E+02  0.37643034633E+02  0.14205219341E+03  0.17769665388E+03  0.92406674834E+02 0.  0.
          5    1    1    2  502    0 -0.16372877811E+02  0.22449122795E+02  0.52961015370E+02  0.59953113273E+02  0.41800000000E+01 0. -1.
         -5    1    1    2    0  502  0.54337118045E+02 -0.60092157429E+02  0.22979104727E+02  0.84315487521E+02  0.41800000000E+01 0.  1.
        -11    1    3    3    0    0 -0.16994352606E+02  0.66302942191E+02  0.73135191015E+02  0.10016808039E+03  0.00000000000E+00 0. -1.
         11    1    3    3    0    0 -0.20969887628E+02 -0.28659907558E+02  0.68917002397E+02  0.77528573492E+02  0.00000000000E+00 0.  1.
</event>
<event>
 7    1  0.1758121E-005  0.2070532E+03  0.7561462E-02  0.1143921E+00
          2   -1    0    0  501    0  0.00000000000E+00  0.00000000000E+00  0.78236752885E+03  0.78236752885E+03  0.00000000000E+00 0. -1.
         -2   -1    0    0    0  501 -0.00000000000E+00 -0.00000000000E+00 -0.58340444697E+02  0.58340444697E+02  0.00000000000E+00 0.  1.
         23    2    1    2    0    0 -0.11951417772E+03 -0.13905447007E+03  0.37298442331E+03  0.42537966568E+03  0.90612888828E+02 0.  0.
          5    1    1    2  502    0  0.43164597340E+02  0.12968013508E+03  0.16717612412E+03  0.21597557448E+03  0.41800000000E+01 0.  1.
         -5    1    1    2    0  502  0.76349580379E+02  0.93743349860E+01  0.18386653673E+03  0.19935273338E+03  0.41800000000E+01 0.  1.
        -11    1    3    3    0    0 -0.74450494656E+02 -0.26391756660E+02  0.10674353698E+03  0.13279150448E+03  0.00000000000E+00 0.  1.
         11    1    3    3    0    0 -0.45063683063E+02 -0.11266271341E+03  0.26624088633E+03  0.29258816121E+03  0.00000000000E+00 0. -1.
</event>
<event>
 7    1  0.1758121E-005  0.6891310E+02  0.7561462E-02  0.1363829E+00
         -1   -1    0    0    0  501 -0.00000000000E+00  0.00000000000E+00  0.13356876140E+02  0.13356876140E+02  0.00000000000E+00 0.  1.
          1   -1    0    0  501    0  0.00000000000E+00 -0.00000000000E+00 -0.96966578669E+03  0.96966578669E+03  0.00000000000E+00 0. -1.
         23    2    1    2    0    0  0.42401775159E+02  0.11958759913E+02 -0.30394720460E+03  0.31731665068E+03  0.79781145267E+02 0.  0.
          5    1    1    2  502    0 -0.40515763235E+02 -0.90761800014E+01 -0.65715171285E+03  0.65847532241E+03  0.41800000000E+01 0.  1.
         -5    1    1    2    0  502 -0.18860119238E+01 -0.28825799119E+01  0.47900069063E+01  0.72306897380E+01  0.41800000000E+01 0.  1.
        -11    1    3    3    0    0  0.65673901051E+02  0.14542538783E+02 -0.23864069822E+03  0.24793936670E+03  0.00000000000E+00 0. -1.
         11    1    3    3    0    0 -0.23272125893E+02 -0.25837788694E+01 -0.65306506384E+02  0.69377283983E+02  0.00000000000E+00 0.  1.
</event>
<event>
 7    1  0.1758121E-005  0.6979517E+02  0.7561462E-02  0.1360791E+00
         -2   -1    0    0    0  501 -0.00000000000E+00  0.00000000000E+00  0.49914571834E+02  0.49914571834E+02  0.00000000000E+00 0. -1.
          2   -1    0    0  501    0  0.00000000000E+00 -0.00000000000E+00 -0.28280899472E+03  0.28280899472E+03  0.00000000000E+00 0.  1.
         23    2    1    2    0    0 -0.15293395531E+02  0.44143044193E+02 -0.10832339019E+03  0.15011857919E+03  0.92839294801E+02 0.  0.
          5    1    1    2  502    0  0.83209687636E+01 -0.36442602223E+02 -0.15009323021E+03  0.15473445619E+03  0.41800000000E+01 0. -1.
         -5    1    1    2    0  502  0.69724267672E+01 -0.77004419703E+01  0.25522197516E+02  0.27870531169E+02  0.41800000000E+01 0. -1.
        -11    1    3    3    0    0  0.20951606785E+02  0.49862862825E+02 -0.26047569865E+02  0.60031248628E+02  0.00000000000E+00 0. -1.
         11    1    3    3    0    0 -0.36245002316E+02 -0.57198186316E+01 -0.82275820327E+02  0.90087330566E+02  0.00000000000E+00 0.  1.
</event>
<event>
 7    1  0.1758121E-005  0.6324848E+02  0.7561462E-02  0.1384684E+00
         -1   -1    0    0    0  501 -0.00000000000E+00  0.00000000000E+00  0.14612487282E+03  0.14612487282E+03  0.00000000000E+00 0.  1.
          1   -1    0    0  501    0  0.00000000000E+00 -0.00000000000E+00 -0.90292301195E+02  0.90292301195E+02  0.00000000000E+00 0. -1.
         23    2    1    2    0    0  0.33204670552E+02 -0.33901336267E+01  0.36878835244E+01  0.96843856143E+02  0.90835504266E+02 0.  0.
          5    1    1    2  502    0 -0.44236917393E+02 -0.11536846139E+02  0.87846308732E+02  0.99118363774E+02  0.41800000000E+01 0.  1.
         -5    1    1    2    0  502  0.11032246841E+02  0.14926979765E+02 -0.35701620632E+02  0.40454954098E+02  0.41800000000E+01 0.  1.
        -11    1    3    3    0    0  0.88047295524E+01 -0.26519650015E+02  0.39071073196E+02  0.48035027429E+02  0.00000000000E+00 0.  1.
         11    1    3    3    0    0  0.24399941000E+02  0.23129516388E+02 -0.35383189671E+02  0.48808828714E+02  0.00000000000E+00 0. -1.
</event>
<event>
 7    1  0.1758121E-005  0.1993643E+03  0.7561462E-02  0.1150276E+00
          2   -1    0    0  501    0  0.00000000000E+00  0.00000000000E+00  0.67993643115E+03  0.67993643115E+03  0.00000000000E+00 0. -1.
         -2   -1    0    0    0  501 -0.00000000000E+00 -0.00000000000E+00 -0.75786121351E+02  0.75786121351E+02  0.00000000000E+00 0.  1.
         23    2    1    2    0    0 -0.25934560268E+02  0.19695028829E+03  0.27207336493E+03  0.34903743300E+03  0.91330149774E+02 0.  0.
          5    1    1    2  502    0  0.19977502418E+02 -0.18452290472E+03  0.34203935861E+03  0.38917373782E+03  0.41800000000E+01 0. -1.
         -5    1    1    2    0  502  0.59570578499E+01 -0.12427383569E+02 -0.99624137447E+01  0.17511381677E+02  0.41800000000E+01 0. -1.
        -11    1    3    3    0    0 -0.14906352695E+02  0.10033438690E+03  0.21124428441E+03  0.23433594739E+03  0.00000000000E+00 0. -1.
         11    1    3    3    0    0 -0.11028207573E+02  0.96615901390E+02  0.60829080523E+02  0.11470148561E+03  0.00000000000E+00 0.  1.
</event>
<event>
 7    1  0.1758121E-005  0.8306101E+02  0.7561462E-02  0.1320582E+00
          1   -1    0    0  501    0  0.00000000000E+00  0.00000000000E+00  0.95897533749E+02  0.95897533749E+02  0.00000000000E+00 0. -1.
         -1   -1    0    0    0  501 -0.00000000000E+00 -0.00000000000E+00 -0.17813006515E+03  0.17813006515E+03  0.00000000000E+00 0.  1.
         23    2    1    2    0    0 -0.37722392720E+02  0.24387888067E+02  0.15865013881E+02  0.10883659621E+03  0.97856824048E+02 0.  0.
          5    1    1    2  502    0  0.29992938850E+02  0.16726177496E+02 -0.11483977595E+03  0.11993743341E+03  0.41800000000E+01 0. -1.
         -5    1    1    2    0  502  0.77294538698E+01 -0.41114065564E+02  0.16742230663E+02  0.45253569272E+02  0.41800000000E+01 0. -1.
        -11    1    3    3    0    0 -0.25435427124E+02 -0.26737472441E+02 -0.22970764097E+02  0.43468487307E+02  0.00000000000E+00 0.  1.
         11    1    3    3    0    0 -0.12286965596E+02  0.51125360509E+02  0.38835777979E+02  0.65368108906E+02  0.00000000000E+00 0. -1.
</event>
<event>
 7    1  0.1758121E-005  0.1016421E+03  0.7561462E-02  0.1276880E+00
         -1   -1    0    0    0  501 -0.00000000000E+00  0.00000000000E+00  0.81936992808E+02  0.81936992808E+02  0.00000000000E+00 0.  1.
          1   -1    0    0  501    0  0.00000000000E+00 -0.00000000000E+00 -0.31611370551E+03  0.31611370551E+03  0.00000000000E+00 0. -1.
         23    2    1    2    0    0  0.44804894447E+02  0.55668236560E+02 -0.22230998978E+03  0.25091808297E+03  0.91824406764E+02 0.  0.
          5    1    1    2  502    0 -0.95748154704E+01 -0.55421455351E+02 -0.63217449693E+02  0.84717962382E+02  0.41800000000E+01 0. -1.
         -5    1    1    2    0  502 -0.35230078977E+02 -0.24678120886E+00  0.51350726767E+02  0.62414652969E+02  0.41800000000E+01 0.  1.
        -11    1    3    3    0    0  0.64384316601E+02  0.14757576152E+02 -0.94479754202E+02  0.11528031155E+03  0.00000000000E+00 0. -1.
         11    1    3    3    0    0 -0.19579422154E+02  0.40910660408E+02 -0.12783023557E+03  0.13563777141E+03  0.00000000000E+00 0.  1.
</event>
<event>
 7    1  0.1758121E-005  0.1681996E+03  0.7561462E-02  0.1179738E+00
         -1   -1    0    0    0  501 -0.00000000000E+00  0.00000000000E+00  0.45432891253E+02  0.45432891253E+02  0.00000000000E+00 0.  1.
          1   -1    0    0  501    0  0.00000000000E+00 -0.00000000000E+00 -0.85325168607E+03  0.85325168607E+03  0.00000000000E+00 0. -1.
         23    2    1    2    0    0 -0.16008545242E+03  0.31707713494E+01 -0.45781301403E+03  0.49397765786E+03  0.93721741237E+02 0.  0.
          5    1    1    2  502    0  0.79328799247E+02 -0.15722196199E+02 -0.29547125318E+03  0.30636739334E+03  0.41800000000E+01 0. -1.
         -5    1    1    2    0  502  0.80756653174E+02  0.12551424850E+02 -0.54534527602E+02  0.98339526124E+02  0.41800000000E+01 0. -1.
        -11    1    3    3    0    0 -0.12678671558E+03  0.30620707647E+02 -0.40659290342E+03  0.42700150830E+03  0.00000000000E+00 0. -1.
         11    1    3    3    0    0 -0.33298736845E+02 -0.27449936297E+02 -0.51220110612E+02  0.66976149556E+02  0.00000000000E+00 0.  1.
</event>
<event>
 7    1  0.1758121E-005  0.1956693E+03  0.7561462E-02  0.1153445E+00
         -2   -1    0    0    0  501 -0.00000000000E+00  0.00000000000E+00  0.52639364339E+02  0.52639364339E+02  0.00000000000E+00 0.  1.
          2   -1    0    0  501    0  0.00000000000E+00 -0.00000000000E+00 -0.85544528072E+03  0.85544528072E+03  0.00000000000E+00 0. -1.
         23    2    1    2    0    0  0.13178084129E+02  0.15179269967E+03 -0.28732533407E+03  0.33801840791E+03  0.92119004088E+02 0.  0.
          5    1    1    2  502    0 -0.81651154645E+02 -0.23876017015E+02 -0.28705502039E+03  0.29942450196E+03  0.41800000000E+01 0. -1.
         -5    1    1    2    0  502  0.68473070515E+02 -0.12791668265E+03 -0.22842556192E+03  0.27064173518E+03  0.41800000000E+01 0.  1.
        -11    1    3    3    0    0  0.17937700671E+02  0.13030205737E+02 -0.11301507716E+03  0.11516924517E+03  0.00000000000E+00 0.  1.
         11    1    3    3    0    0 -0.47596165419E+01  0.13876249393E+03 -0.17431025691E+03  0.22284916275E+03  0.00000000000E+00 0. -1.
</event>
<event>
 7    1  0.1758121E-005  0.1033159E+03  0.7561462E-02  0.1273474E+00
         -3   -1    0    0    0  501 -0.00000000000E+00  0.00000000000E+00  0.25705786297E+02  0.25705786297E+02  0.00000000000E+00 0.  1.
          3   -1    0    0  501    0  0.00000000000E+00 -0.00000000000E+00 -0.43812916180E+03  0.43812916180E+03  0.00000000000E+00 0. -1.
         23    2    1    2    0    0 -0.31062621574E+01  0.36565436612E+02 -0.18188266854E+03  0.19898744536E+03  0.71888930154E+02 0.  0.
          5    1    1    2  502    0  0.53335871957E+02  0.14748927559E+02 -0.73315939113E+02  0.91950777210E+02  0.41800000000E+01 0. -1.
         -5    1    1    2    0  502 -0.50229609799E+02 -0.51314364171E+02 -0.15722476785E+03  0.17289672553E+03  0.41800000000E+01 0. -1.
        -11    1    3    3    0    0  0.33575646798E+02  0.16963566279E+02 -0.10565011987E+03  0.11214737834E+03  0.00000000000E+00 0.  1.
         11    1    3    3    0    0 -0.36681908955E+02  0.19601870332E+02 -0.76232548663E+02  0.86840067024E+02  0.00000000000E+00 0. -1.
</event>
<event>
 7    1  0.1758121E-005  0.1333609E+03  0.7561462E-02  0.1222552E+00
         -1   -1    0    0    0  501 -0.00000000000E+00  0.00000000000E+00  0.23204737060E+03  0.23204737060E+03  0.00000000000E+00 0.  1.
          1   -1    0    0  501    0  0.00000000000E+00 -0.00000000000E+00 -0.10112930296E+03  0.10112930296E+03  0.00000000000E+00 0. -1.
         23    2    1    2    0    0  0.10193484719E+03  0.21576164933E+02  0.37428242443E+02  0.14544216467E+03  0.94320230961E+02 0.  0.
          5    1    1    2  502    0  0.13980709253E+02 -0.34944741991E+02  0.50918779465E+02  0.63456991153E+02  0.41800000000E+01 0. -1.
         -5    1    1    2    0  502 -0.11591555644E+03  0.13368577058E+02  0.42571045736E+02  0.12427751773E+03  0.41800000000E+01 0. -1.
        -11    1    3    3    0    0  0.71971977763E+02 -0.48600675304E+01 -0.20570310318E+02  0.75011489160E+02  0.00000000000E+00 0. -1.
         11    1    3    3    0    0  0.29962869425E+02  0.26436232464E+02  0.57998552761E+02  0.70430675514E+02  0.00000000000E+00 0.  1.
</event>
<event>
 7    1  0.1758121E-005  0.9821578E+02  0.7561462E-02  0.1284093E+00
         -2   -1    0    0    0  501 -0.00000000000E+00  0.00000000000E+00  0.50029565811E+03  0.50029565811E+03  0.00000000000E+00 0.  1.
          2   -1    0    0  501    0  0.00000000000E+00 -0.00000000000E+00 -0.38444134237E+02  0.38444134237E+02  0.00000000000E+00 0. -1.
         23    2    1    2    0    0 -0.73059503743E+02  0.24076237162E+02  0.12987852506E+03  0.17573784267E+03  0.89988898155E+02 0.  0.
          5    1    1    2  502    0  0.81874465267E+02 -0.18504123235E+02  0.99442879558E+02  0.13020057348E+03  0.41800000000E+01 0. -1.
         -5    1    1    2    0  502 -0.88149615238E+01 -0.55721139276E+01  0.23253011926E+03  0.23280137620E+03  0.41800000000E+01 0. -1.
        -11    1    3    3    0    0 -0.83976032472E+02  0.29443955191E+02  0.13568114525E+03  0.16225995718E+03  0.00000000000E+00 0.  1.
         11    1    3    3    0    0  0.10916528729E+02 -0.53677180291E+01 -0.58026201873E+01  0.13477885493E+02  0.00000000000E+00 0. -1.
</event>
<event>
 7    1  0.1758121E-005  0.8248176E+02  0.7561462E-02  0.1322153E+00
          1   -1    0    0  501    0  0.00000000000E+00  0.00000000000E+00  0.11806766805E+03  0.11806766805E+03  0.00000000000E+00 0. -1.
         -1   -1    0    0    0  501 -0.00000000000E+00 -0.00000000000E+00 -0.11684295166E+03  0.11684295166E+03  0.00000000000E+00 0.  1.
         23    2    1    2    0    0  0.37017358447E+02  0.98078432832E+00  0.34238051057E+02  0.10034670650E+03  0.86752352130E+02 0.  0.
          5    1    1    2  502    0  0.20307778372E+02 -0.29469266777E+02 -0.55854812236E+02  0.66468609108E+02  0.41800000000E+01 0. -1.
         -5    1    1    2    0  502 -0.57325136820E+02  0.28488482448E+02  0.22841477563E+02  0.68095304103E+02  0.41800000000E+01 0. -1.
        -11    1    3    3    0    0  0.25203805586E+02 -0.25457655456E+02 -0.18397378623E+02  0.40271423833E+02  0.00000000000E+00 0.  1.
         11    1    3    3    0    0  0.11813552862E+02  0.26438439784E+02  0.52635429680E+02  0.60075282663E+02  0.00000000000E+00 0. -1.
</event>
<event>
 7    1  0.1758121E-005  0.1669899E+03  0.7561462E-02  0.1181024E+00
         -1   -1    0    0    0  501 -0.00000000000E+00  0.00000000000E+00  0.62258420009E+02  0.62258420009E+02  0.00000000000E+00 0.  1.
          1   -1    0    0  501    0  0.00000000000E+00 -0.00000000000E+00 -0.47691484189E+03  0.47691484189E+03  0.00000000000E+00 0. -1.
         23    2    1    2    0    0  0.88195062262E+01 -0.11892202498E+02 -0.14487516416E+03  0.17232528655E+03  0.92130250309E+02 0.  0.
          5    1    1    2  502    0  0.78536802658E+02  0.93960539558E+02 -0.95810418952E+02  0.15554330955E+03  0.41800000000E+01 0. -1.
         -5    1    1    2    0  502 -0.87356308884E+02 -0.82068337060E+02 -0.17397083877E+03  0.21130466580E+03  0.41800000000E+01 0.  1.
        -11    1    3    3    0    0  0.31499132646E+02 -0.42823233164E+02 -0.10032519669E+03  0.11353928724E+03  0.00000000000E+00 0. -1.
         11    1    3    3    0    0 -0.22679626420E+02  0.30931030667E+02 -0.44549967471E+02  0.58785999305E+02  0.00000000000E+00 0.  1.
</event>
<event>
 7    1  0.1758121E-005  0.1323840E+03  0.7561462E-02  0.1223961E+00
         -2   -1    0    0    0  501 -0.00000000000E+00  0.00000000000E+00  0.53024459327E+02  0.53024459327E+02  0.00000000000E+00 0.  1.
          2   -1    0    0  501    0  0.00000000000E+00 -0.00000000000E+00 -0.49618968704E+03  0.49618968704E+03  0.00000000000E+00 0. -1.
         23    2    1    2    0    0  0.64488879720E+02  0.81110913301E+02 -0.30796456202E+03  0.33787356649E+03  0.92620621946E+02 0.  0.
          5    1    1    2  502    0 -0.25748781142E+02 -0.10932972825E+03 -0.10894410005E+03  0.15653203680E+03  0.41800000000E+01 0.  1.
         -5    1    1    2    0  502 -0.38740098577E+02  0.28218814944E+02 -0.26256565640E+02  0.54808543073E+02  0.41800000000E+01 0.  1.
        -11    1    3    3    0    0  0.15422098028E+02  0.12197562615E+02 -0.12456789665E+01  0.19702115557E+02  0.00000000000E+00 0.  1.
         11    1    3    3    0    0  0.49066781692E+02  0.68913350686E+02 -0.30671888305E+03  0.31817145093E+03  0.00000000000E+00 0. -1.
</event>
<event>
 7    1  0.1758121E-005  0.7950472E+02  0.7561462E-02  0.1330463E+00
          4   -1    0    0  501    0  0.00000000000E+00  0.00000000000E+00  0.45778051932E+02  0.45778051932E+02  0.00000000000E+00 0. -1.
         -4   -1    0    0    0  501 -0.00000000000E+00 -0.00000000000E+00 -0.30941008467E+03  0.30941008467E+03  0.00000000000E+00 0.  1.
         23    2    1    2    0    0  0.27277018864E+02 -0.36809727227E+02 -0.89367990026E+02  0.13581868813E+03  0.91438977618E+02 0.  0.
          5    1    1    2  502    0  0.38273575783E+02  0.26386361879E+02 -0.18876344982E+02  0.50347745692E+02  0.41800000000E+01 0. -1.
         -5    1    1    2    0  502 -0.65550594647E+02  0.10423365348E+02 -0.15538769773E+03  0.16902170278E+03  0.41800000000E+01 0. -1.
        -11    1    3    3    0    0  0.15542598845E+02 -0.21904808361E+02 -0.10675761322E+03  0.11008442664E+03  0.00000000000E+00 0.  1.
         11    1    3    3    0    0  0.11734420019E+02 -0.14904918866E+02  0.17389623195E+02  0.25734261490E+02  0.00000000000E+00 0. -1.
</event>
<event>
 7    1  0.1758121E-005  0.2844941E+03  0.7561462E-02  0.1093259E+00
          2   -1    0    0  501    0  0.00000000000E+00  0.00000000000E+00  0.11336026691E+04  0.11336026691E+04  0.00000000000E+00 0. -1.
         -2   -1    0    0    0  501 -0.00000000000E+00 -0.00000000000E+00 -0.98007292454E+02  0.98007292454E+02  0.00000000000E+00 0.  1.
         23    2    1    2    0    0 -0.12173429232E+03  0.23585973386E+03  0.82258367142E+03  0.86902220389E+03  0.90036894598E+02 0.  0.
          5    1    1    2  502    0 -0.10430717005E+02 -0.99033714802E+02  0.47557410531E+02  0.11043394506E+03  0.41800000000E+01 0.  1.
         -5    1    1    2    0  502  0.13216500933E+03 -0.13682601906E+03  0.16545429471E+03  0.25215381262E+03  0.41800000000E+01 0.  1.
        -11    1    3    3    0    0 -0.13111510634E+03  0.18166560318E+03  0.62570232837E+03  0.66460286353E+03  0.00000000000E+00 0.  1.
         11    1    3    3    0    0  0.93808140196E+01  0.54194130682E+02  0.19688134305E+03  0.20441934036E+03  0.00000000000E+00 0. -1.
</event>
<event>
 7    1  0.1758121E-005  0.6786302E+02  0.7561462E-02  0.1367514E+00
         -3   -1    0    0    0  501 -0.00000000000E+00  0.00000000000E+00  0.23405961831E+03  0.23405961831E+03  0.00000000000E+00 0.  1.
          3   -1    0    0  501    0  0.00000000000E+00 -0.00000000000E+00 -0.80639917595E+02  0.80639917595E+02  0.00000000000E+00 0. -1.
         23    2    1    2    0    0  0.23290179479E+02 -0.63520382955E+01 -0.25306869817E+02  0.95213740387E+02  0.88557539757E+02 0.  0.
          5    1    1    2  502    0  0.56356869059E+00 -0.13623650377E+02  0.18658112801E+03  0.18712538895E+03  0.41800000000E+01 0. -1.
         -5    1    1    2    0  502 -0.23853748170E+02  0.19975688673E+02 -0.78545574843E+01  0.32360406564E+02  0.41800000000E+01 0. -1.
        -11    1    3    3    0    0  0.41710511074E+02  0.28592307929E+02 -0.50517249261E+01  0.50821321623E+02  0.00000000000E+00 0. -1.
         11    1    3    3    0    0 -0.18420331595E+02 -0.34944346224E+02 -0.20255144891E+02  0.44392418764E+02  0.00000000000E+00 0.  1.
</event>
<event>
 7    1  0.1758121E-005  0.1251044E+03  0.7561462E-02  0.1234906E+00
          4   -1    0    0  501    0  0.00000000000E+00  0.00000000000E+00  0.28720743467E+02  0.28720743467E+02  0.00000000000E+00 0. -1.
         -4   -1    0    0    0  501 -0.00000000000E+00 -0.00000000000E+00 -0.75502056483E+03  0.75502056483E+03  0.00000000000E+00 0.  1.
         23    2    1    2    0    0 -0.99931747088E+02 -0.35337867482E+01 -0.31512602042E+03  0.34248117327E+03  0.89387379255E+02 0.  0.
          5    1    1    2  502    0  0.34865900605E+01 -0.22058943375E+02 -0.25417344146E+03  0.25518691980E+03  0.41800000000E+01 0.  1.
         -5    1    1    2    0  502  0.96445157027E+02  0.25592730123E+02 -0.15700035948E+03  0.18607321523E+03  0.41800000000E+01 0.  1.
        -11    1    3    3    0    0 -0.64004025532E+02  0.36617750580E+02 -0.23186436667E+03  0.24330733543E+03  0.00000000000E+00 0.  1.
         11    1    3    3    0    0 -0.35927721556E+02 -0.40151537328E+02 -0.83261653747E+02  0.99173837834E+02  0.00000000000E+00 0. -1.
</event>
<event>
 7    1  0.1758121E-005  0.8720340E+02  0.7561462E-02  0.1309769E+00
          1   -1    0    0  501    0  0.00000000000E+00  0.00000000000E+00  0.34184901051E+02  0.34184901051E+02  0.00000000000E+00 0. -1.
         -1   -1    0    0    0  501 -0.00000000000E+00 -0.00000000000E+00 -0.46145929428E+03  0.46145929428E+03  0.00000000000E+00 0.  1.
         23    2    1    2    0    0  0.91258878374E+01  0.40203252969E+02 -0.90229642899E+02  0.13583845503E+03  0.92796088439E+02 0.  0.
          5    1    1    2  502    0  0.37586749480E+02 -0.53465011830E+02 -0.11375796529E+03  0.13126164060E+03  0.41800000000E+01 0. -1.
         -5    1    1    2    0  502 -0.46712637317E+02  0.13261758861E+02 -0.22328678504E+03  0.22854409970E+03  0.41800000000E+01 0.  1.
        -11    1    3    3    0    0  0.26369026930E+02  0.17404655631E+02  0.87740571200E+01  0.32790725781E+02  0.00000000000E+00 0. -1.
         11    1    3    3    0    0 -0.17243139093E+02  0.22798597338E+02 -0.99003700019E+02  0.10304772925E+03  0.00000000000E+00 0.  1.
</event>
<event>
 7    1  0.1758121E-005  0.1038165E+03  0.7561462E-02  0.1272469E+00
          2   -1    0    0  501    0  0.00000000000E+00  0.00000000000E+00  0.22062549462E+03  0.22062549462E+03  0.00000000000E+00 0. -1.
         -2   -1    0    0    0  501 -0.00000000000E+00 -0.00000000000E+00 -0.65842926878E+02  0.65842926878E+02  0.00000000000E+00 0.  1.
         23    2    1    2    0    0  0.51443753574E+01  0.34557408932E+02  0.11400536895E+03  0.15034105399E+03  0.91567075176E+02 0.  0.
          5    1    1    2  502    0  0.53444708028E+02 -0.13243378772E+02  0.48078050677E+02  0.73216768943E+02  0.41800000000E+01 0. -1.
         -5    1    1    2    0  502 -0.58589083385E+02 -0.21314030160E+02 -0.73008518829E+01  0.62910598565E+02  0.41800000000E+01 0. -1.
        -11    1    3    3    0    0 -0.17972309188E+02  0.55744973387E+02  0.10023560358E+03  0.11609342005E+03  0.00000000000E+00 0. -1.
         11    1    3    3    0    0  0.23116684545E+02 -0.21187564455E+02  0.13769765372E+02  0.34247633937E+02  0.00000000000E+00 0.  1.
</event>
<event>
 7    1  0.1758121E-005  0.1832640E+03  0.7561462E-02  0.1164681E+00
         -1   -1    0    0    0  501 -0.00000000000E+00  0.00000000000E+00  0.20868605446E+03  0.20868605446E+03  0.00000000000E+00 0.  1.
          1   -1    0    0  501    0  0.00000000000E+00 -0.00000000000E+00 -0.20194810323E+03  0.20194810323E+03  0.00000000000E+00 0. -1.
         23    2    1    2    0    0 -0.24361275172E+02 -0.41348742734E+02 -0.76547824524E+02  0.12856924855E+03  0.91472902986E+02 0.  0.
          5    1    1    2  502    0  0.93192005600E+02 -0.83912818390E+02  0.26671745650E+02  0.12827690912E+03  0.41800000000E+01 0. -1.
         -5    1    1    2    0  502 -0.68830730428E+02  0.12526156112E+03  0.56614030103E+02  0.15378800002E+03  0.41800000000E+01 0.  1.
        -11    1    3    3    0    0  0.30941044778E+02 -0.36916869129E+01 -0.67494666697E+01  0.31883100611E+02  0.00000000000E+00 0. -1.
         11    1    3    3    0    0 -0.55302319950E+02 -0.37657055821E+02 -0.69798357855E+02  0.96686147943E+02  0.00000000000E+00 0.  1.
</event>
<event>
 7    1  0.1758121E-005  0.6903383E+02  0.7561462E-02  0.1363410E+00
         -2   -1    0    0    0  501 -0.00000000000E+00  0.00000000000E+00  0.40278955959E+03  0.40278955959E+03  0.00000000000E+00 0.  1.
          2   -1    0    0  501    0  0.00000000000E+00 -0.00000000000E+00 -0.33787682941E+02  0.33787682941E+02  0.00000000000E+00 0. -1.
         23    2    1    2    0    0 -0.10750537882E+02  0.12118054073E+02  0.84697738805E+02  0.12554999496E+03  0.91250605353E+02 0.  0.
          5    1    1    2  502    0 -0.21597829077E+02 -0.14680932144E+02  0.16640264111E+01  0.26499761760E+02  0.41800000000E+01 0. -1.
         -5    1    1    2    0  502  0.32348366959E+02  0.25628780704E+01  0.28264011143E+03  0.28452748581E+03  0.41800000000E+01 0. -1.
        -11    1    3    3    0    0  0.31168587757E+02 -0.83290389438E+01  0.69286795890E+02  0.76429796788E+02  0.00000000000E+00 0.  1.
         11    1    3    3    0    0 -0.41919125639E+02  0.20447093017E+02  0.15410942915E+02  0.49120198175E+02  0.00000000000E+00 0. -1.
</event>
<event>
 7    1  0.1758121E-005  0.1137813E+03  0.7561462E-02  0.1253724E+00
          2   -1    0    0  501    0  0.00000000000E+00  0.00000000000E+00  0.65370347153E+03  0.65370347153E+03  0.00000000000E+00 0. -1.
         -2   -1    0    0    0  501 -0.00000000000E+00 -0.00000000000E+00 -0.62204935737E+02  0.62204935737E+02  0.00000000000E+00 0.  1.
         23    2    1    2    0    0  0.37699333492E+02 -0.29389349302E+02  0.21967410815E+03  0.24192331911E+03  0.89359973924E+02 0.  0.
          5    1    1    2  502    0  0.39693830527E+02  0.45791923615E+02  0.38833753142E+03  0.39305980608E+03  0.41800000000E+01 0. -1.
         -5    1    1    2    0  502 -0.77393164019E+02 -0.16402574313E+02 -0.16513103782E+02  0.80925282066E+02  0.41800000000E+01 0.  1.
        -11    1    3    3    0    0  0.18047998022E+02  0.24387804909E+02  0.25976616951E+02  0.39940955035E+02  0.00000000000E+00 0.  1.
         11    1    3    3    0    0  0.19651335470E+02 -0.53777154211E+02  0.19369749120E+03  0.20198236408E+03  0.00000000000E+00 0. -1.
</event>
<event>
 7    1  0.1758121E-005  0.1436475E+03  0.7561462E-02  0.1208504E+00
         -2   -1    0    0    0  501 -0.00000000000E+00  0.00000000000E+00  0.61243257910E+02  0.61243257910E+02  0.00000000000E+00 0.  1.
          2   -1    0    0  501    0  0.00000000000E+00 -0.00000000000E+00 -0.44648955888E+03  0.44648955888E+03  0.00000000000E+00 0. -1.
         23    2    1    2    0    0 -0.49296886531E+02  0.11267974383E+03 -0.15079514997E+03  0.21491647819E+03  0.91230519297E+02 0.  0.
          5    1    1    2  502    0  0.96505523496E+01 -0.10247396797E+03 -0.73134629373E+02  0.12633366015E+03  0.41800000000E+01 0. -1.
         -5    1    1    2    0  502  0.39646334181E+02 -0.10205775858E+02 -0.16131652163E+03  0.16648267845E+03  0.41800000000E+01 0. -1.
        -11    1    3    3    0    0 -0.64926109125E+02  0.60805282167E+02 -0.12860352698E+03  0.15636991123E+03  0.00000000000E+00 0. -1.
         11    1    3    3    0    0  0.15629222594E+02  0.51874461664E+02 -0.22191622983E+02  0.58546566957E+02  0.00000000000E+00 0.  1.
</event>
<event>
 7    1  0.1758121E-005  0.1602138E+03  0.7561462E-02  0.1188456E+00
          4   -1    0    0  501    0  0.00000000000E+00  0.00000000000E+00  0.37158031034E+03  0.37158031034E+03  0.00000000000E+00 0. -1.
         -4   -1    0    0    0  501 -0.00000000000E+00 -0.00000000000E+00 -0.78910155586E+02  0.78910155586E+02  0.00000000000E+00 0.  1.
         23    2    1    2    0    0  0.75903946382E+02  0.10571359442E+03  0.15829104205E+03  0.22545417118E+03  0.94004022182E+02 0.  0.
          5    1    1    2  502    0 -0.57676244868E+02 -0.13202687889E+03  0.89183613675E+02  0.16949582685E+03  0.41800000000E+01 0. -1.
         -5    1    1    2    0  502 -0.18227701514E+02  0.26313284469E+02  0.45195499025E+02  0.55540467896E+02  0.41800000000E+01 0. -1.
        -11    1    3    3    0    0  0.53660639411E+02  0.23042315515E+02  0.18009918205E+02  0.61112762007E+02  0.00000000000E+00 0.  1.
         11    1    3    3    0    0  0.22243306970E+02  0.82671278905E+02  0.14028112385E+03  0.16434140917E+03  0.00000000000E+00 0. -1.
</event>
<event>
 7    1  0.1758121E-005  0.1253014E+03  0.7561462E-02  0.1234599E+00
         -4   -1    0    0    0  501 -0.00000000000E+00  0.00000000000E+00  0.11949019897E+03  0.11949019897E+03  0.00000000000E+00 0. -1.
          4   -1    0    0  501    0  0.00000000000E+00 -0.00000000000E+00 -0.23866072061E+03  0.23866072061E+03  0.00000000000E+00 0.  1.
         23    2    1    2    0    0  0.30114896848E+02  0.80176654529E+02 -0.15757386259E+03  0.20177056042E+03  0.92448006659E+02 0.  0.
          5    1    1    2  502    0 -0.18142414703E+02  0.20306530588E+02 -0.24741115764E+02  0.37028335164E+02  0.41800000000E+01 0.  1.
         -5    1    1    2    0  502 -0.11972482145E+02 -0.10048318512E+03  0.63144456716E+02  0.11935202400E+03  0.41800000000E+01 0.  1.
        -11    1    3    3    0    0  0.12104703450E+02  0.96626211288E+02 -0.14405763357E+03  0.17388430160E+03  0.00000000000E+00 0.  1.
         11    1    3    3    0    0  0.18010193399E+02 -0.16449556759E+02 -0.13516229023E+02  0.27886258817E+02  0.00000000000E+00 0. -1.
</event>
<event>
 7    1  0.1758121E-005  0.8143465E+02  0.7561462E-02  0.1325029E+00
         -2   -1    0    0    0  501 -0.00000000000E+00  0.00000000000E+00  0.33639271877E+02  0.33639271877E+02  0.00000000000E+00 0.  1.
          2   -1    0    0  501    0  0.00000000000E+00 -0.00000000000E+00 -0.55095472983E+03  0.55095472983E+03  0.00000000000E+00 0. -1.
         23    2    1    2    0    0 -0.29149419784E+01 -0.23116012475E+02 -0.33626727999E+03  0.35248138738E+03  0.10307569036E+03 0.  0.
          5    1    1    2  502    0 -0.13781988103E+02  0.39896797468E+02 -0.19813217521E+03  0.20262163976E+03  0.41800000000E+01 0. -1.
         -5    1    1    2    0  502  0.16696930081E+02 -0.16780784992E+02  0.17083997243E+02  0.29490974567E+02  0.41800000000E+01 0.  1.
        -11    1    3    3    0    0 -0.36338246396E+01 -0.59706268071E+02 -0.27222851544E+03  0.27872281526E+03  0.00000000000E+00 0.  1.
         11    1    3    3    0    0  0.71888266127E+00  0.36590255596E+02 -0.64038764545E+02  0.73758572121E+02  0.00000000000E+00 0. -1.
</event>
<event>
 7    1  0.1758121E-005  0.1352905E+03  0.7561462E-02  0.1219810E+00
         -2   -1    0    0    0  501 -0.00000000000E+00  0.00000000000E+00  0.46303488923E+03  0.46303488923E+03  0.00000000000E+00 0.  1.
          2   -1    0    0  501    0  0.00000000000E+00 -0.00000000000E+00 -0.65107818979E+02  0.65107818979E+02  0.00000000000E+00 0. -1.
         23    2    1    2    0    0  0.70800631183E+02  0.55223307755E+02  0.14300005269E+03  0.19324843492E+03  0.93987230175E+02 0.  0.
          5    1    1    2  502    0 -0.28387210041E+02  0.39388799383E+02 -0.10547373011E+02  0.49860111193E+02  0.41800000000E+01 0. -1.
         -5    1    1    2    0  502 -0.42413421142E+02 -0.94612107138E+02  0.26547439057E+03  0.28503416209E+03  0.41800000000E+01 0.  1.
        -11    1    3    3    0    0 -0.12196456319E+02  0.28316600771E+02  0.79698572477E+02  0.85454349689E+02  0.00000000000E+00 0.  1.
         11    1    3    3    0    0  0.82997087501E+02  0.26906706985E+02  0.63301480213E+02  0.10779408523E+03  0.00000000000E+00 0. -1.
</event>
<event>
 7    1  0.1758121E-005  0.8579391E+02  0.7561462E-02  0.1313369E+00
          2   -1    0    0  501    0  0.00000000000E+00  0.00000000000E+00  0.88304945404E+02  0.88304945404E+02  0.00000000000E+00 0. -1.
         -2   -1    0    0    0  501 -0.00000000000E+00 -0.00000000000E+00 -0.16871361014E+03  0.16871361014E+03  0.00000000000E+00 0.  1.
         23    2    1    2    0    0  0.44810569063E+02  0.34134471746E+02 -0.38988128191E+02  0.11371089374E+03  0.90757610996E+02 0.  0.
          5    1    1    2  502    0 -0.58431447636E+02 -0.42982055382E+02 -0.75834817949E+02  0.10502420279E+03  0.41800000000E+01 0.  1.
         -5    1    1    2    0  502  0.13620878573E+02  0.88475836367E+01  0.34414281409E+02  0.38283459015E+02  0.41800000000E+01 0.  1.
        -11    1    3    3    0    0  0.91857372681E+01  0.44195719566E+02  0.15595562798E+02  0.47758360275E+02  0.00000000000E+00 0. -1.
         11    1    3    3    0    0  0.35624831795E+02 -0.10061247821E+02 -0.54583690990E+02  0.65952533463E+02  0.00000000000E+00 0.  1.
</event>
<event>
 7    1  0.1758121E-005  0.1091136E+03  0.7561462E-02  0.1262220E+00
         -2   -1    0    0    0  501 -0.00000000000E+00  0.00000000000E+00  0.54963637925E+02  0.54963637925E+02  0.00000000000E+00 0.  1.
          2   -1    0    0  501    0  0.00000000000E+00 -0.00000000000E+00 -0.34331863887E+03  0.34331863887E+03  0.00000000000E+00 0. -1.
         23    2    1    2    0    0  0.80685640128E+02 -0.11373223290E+02 -0.16274464882E+03  0.20318504472E+03  0.90326180836E+02 0.  0.
          5    1    1    2  502    0  0.26117052767E+02 -0.24381357876E+01 -0.67758123882E+02  0.72778298299E+02  0.41800000000E+01 0.  1.
         -5    1    1    2    0  502 -0.10680269290E+03  0.13811359077E+02 -0.57852228242E+02  0.12231893378E+03  0.41800000000E+01 0.  1.
        -11    1    3    3    0    0  0.29849164246E+02 -0.14039738461E+02 -0.33895489088E+00  0.32987903126E+02  0.00000000000E+00 0.  1.
         11    1    3    3    0    0  0.50836475882E+02  0.26665151712E+01 -0.16240569393E+03  0.17019714159E+03  0.00000000000E+00 0. -1.
</event>
<event>
 7    1  0.1758121E-005  0.7990920E+02  0.7561462E-02  0.1329309E+00
         -2   -1    0    0    0  501 -0.00000000000E+00  0.00000000000E+00  0.19991328606E+03  0.19991328606E+03  0.00000000000E+00 0.  1.
          2   -1    0    0  501    0  0.00000000000E+00 -0.00000000000E+00 -0.87472363907E+02  0.87472363907E+02  0.00000000000E+00 0. -1.
         23    2    1    2    0    0 -0.27097141962E+02  0.71825870992E+01 -0.25923100096E+02  0.98761945576E+02  0.91082765194E+02 0.  0.
          5    1    1    2  502    0 -0.36151749735E+02 -0.22992891441E+02  0.94075194203E+01  0.44063543745E+02  0.41800000000E+01 0. -1.
         -5    1    1    2    0  502  0.63248891697E+02  0.15810304341E+02  0.12895650283E+03  0.14456016065E+03  0.41800000000E+01 0. -1.
        -11    1    3    3    0    0 -0.33900473392E+02 -0.79764615907E+01  0.26504235630E+02  0.43764603757E+02  0.00000000000E+00 0.  1.
         11    1    3    3    0    0  0.68033314298E+01  0.15159048690E+02 -0.52427335726E+02  0.54997341818E+02  0.00000000000E+00 0. -1.
</event>
<event>
 7    1  0.1758121E-005  0.3087867E+03  0.7561462E-02  0.1080929E+00
          1   -1    0    0  501    0  0.00000000000E+00  0.00000000000E+00  0.87699039201E+03  0.87699039201E+03  0.00000000000E+00 0. -1.
         -1   -1    0    0    0  501 -0.00000000000E+00 -0.00000000000E+00 -0.18820640437E+03  0.18820640437E+03  0.00000000000E+00 0.  1.
         23    2    1    2    0    0  0.11452879858E+03 -0.17260046142E+02  0.51007001993E+03  0.53138286235E+03  0.93710011609E+02 0.  0.
          5    1    1    2  502    0  0.17009327554E+03  0.62376659727E+02 -0.22079028836E+02  0.18255828104E+03  0.41800000000E+01 0. -1.
         -5    1    1    2    0  502 -0.28462207411E+03 -0.45116613585E+02  0.20079299655E+03  0.35125565299E+03  0.41800000000E+01 0.  1.
        -11    1    3    3    0    0  0.89912048956E+02  0.30064241215E+02  0.29862881136E+03  0.31331645683E+03  0.00000000000E+00 0.  1.
         11    1    3    3    0    0  0.24616749619E+02 -0.47324287357E+02  0.21144120857E+03  0.21806640553E+03  0.00000000000E+00 0. -1.
</event>
<event>
 7    1  0.1758121E-005  0.6129374E+02  0.7561462E-02  0.1392481E+00
         -3   -1    0    0    0  501 -0.00000000000E+00  0.00000000000E+00  0.10118687289E+03  0.10118687289E+03  0.00000000000E+00 0.  1.
          3   -1    0    0  501    0  0.00000000000E+00 -0.00000000000E+00 -0.13510207031E+03  0.13510207031E+03  0.00000000000E+00 0. -1.
         23    2    1    2    0    0 -0.11755787980E+02  0.41793120756E+02 -0.69416307415E+01  0.10115974715E+03  0.91105678815E+02 0.  0.
          5    1    1    2  502    0 -0.17943085345E+02 -0.13288681040E+02  0.45965103335E+02  0.51271887815E+02  0.41800000000E+01 0.  1.
         -5    1    1    2    0  502  0.29698873324E+02 -0.28504439717E+02 -0.72938670016E+02  0.83857308233E+02  0.41800000000E+01 0.  1.
        -11    1    3    3    0    0 -0.26241581079E+02  0.29633484417E+02  0.36460610740E+02  0.53815797976E+02  0.00000000000E+00 0.  1.
         11    1    3    3    0    0  0.14485793100E+02  0.12159636340E+02 -0.43402241482E+02  0.47343949173E+02  0.00000000000E+00 0. -1.
</event>
<event>
 7    1  0.1758121E-005  0.1032493E+03  0.7561462E-02  0.1273608E+00
          2   -1    0    0  501    0  0.00000000000E+00  0.00000000000E+00  0.43368384447E+03  0.43368384447E+03  0.00000000000E+00 0.  1.
         -2   -1    0    0    0  501 -0.00000000000E+00 -0.00000000000E+00 -0.46190532821E+02  0.46190532821E+02  0.00000000000E+00 0. -1.
         23    2    1    2    0    0 -0.33355042585E+02 -0.80553934615E+02  0.21475950589E+03  0.24945799804E+03  0.92228803370E+02 0.  0.
          5    1    1    2  502    0 -0.16487778080E+02  0.32780715392E+02 -0.72179839511E+01  0.37629693328E+02  0.41800000000E+01 0. -1.
         -5    1    1    2    0  502  0.49842820665E+02  0.47773219223E+02  0.17995178971E+03  0.19278668592E+03  0.41800000000E+01 0. -1.
        -11    1    3    3    0    0  0.72053349686E+01 -0.47595960350E+02  0.18087715226E+03  0.18717327936E+03  0.00000000000E+00 0.  1.
         11    1    3    3    0    0 -0.40560377554E+02 -0.32957974265E+02  0.33882353623E+02  0.62284718687E+02  0.00000000000E+00 0. -1.
</event>
<event>
 7    1  0.1758121E-005  0.8722487E+02  0.7561462E-02  0.1309715E+00
          3   -1    0    0  501    0  0.00000000000E+00  0.00000000000E+00  0.24290766558E+03  0.24290766558E+03  0.00000000000E+00 0. -1.
         -3   -1    0    0    0  501 -0.00000000000E+00 -0.00000000000E+00 -0.54834549491E+02  0.54834549491E+02  0.00000000000E+00 0.  1.
         23    2    1    2    0    0  0.29692052069E+02 -0.53994606977E+01  0.11438790860E+03  0.14945860187E+03  0.91337330301E+02 0.  0.
          5    1    1    2  502    0 -0.33749473337E+02 -0.53096209558E+02  0.14159205906E+02  0.64623447230E+02  0.41800000000E+01 0. -1.
         -5    1    1    2    0  502  0.40574212684E+01  0.58495670256E+02  0.59526001579E+02  0.83660165969E+02  0.41800000000E+01 0. -1.
        -11    1    3    3    0    0  0.17199645574E+02 -0.24411697449E+02 -0.28833323917E+01  0.30001206408E+02  0.00000000000E+00 0.  1.
         11    1    3    3    0    0  0.12492406495E+02  0.19012236751E+02  0.11727124099E+03  0.11945739546E+03  0.00000000000E+00 0. -1.
</event>
<event>
 7    1  0.1758121E-005  0.1775349E+03  0.7561462E-02  0.1170210E+00
          2   -1    0    0  501    0  0.00000000000E+00  0.00000000000E+00  0.29568447537E+02  0.29568447537E+02  0.00000000000E+00 0. -1.
         -2   -1    0    0    0  501 -0.00000000000E+00 -0.00000000000E+00 -0.13832617036E+04  0.13832617036E+04  0.00000000000E+00 0.  1.
         23    2    1    2    0    0 -0.13522316662E+03 -0.83711393909E+02 -0.45383440544E+03  0.48947795492E+03  0.91269373424E+02 0.  0.
          5    1    1    2  502    0 -0.53871187446E+01  0.21420844417E+02 -0.19828295942E+02  0.29975112075E+02  0.41800000000E+01 0. -1.
         -5    1    1    2    0  502  0.14061028537E+03  0.62290549492E+02 -0.88003055468E+03  0.89337708415E+03  0.41800000000E+01 0.  1.
        -11    1    3    3    0    0 -0.74657926973E+02 -0.91038598046E+02 -0.34727865965E+03  0.36669374121E+03  0.00000000000E+00 0.  1.
         11    1    3    3    0    0 -0.60565239650E+02  0.73272041373E+01 -0.10655574579E+03  0.12278421370E+03  0.00000000000E+00 0. -1.
</event>
<event>
 7    1  0.1758121E-005  0.1624954E+03  0.7561462E-02  0.1185908E+00
         -2   -1    0    0    0  501 -0.00000000000E+00  0.00000000000E+00  0.65005851898E+02  0.65005851898E+02  0.00000000000E+00 0.  1.
          2   -1    0    0  501    0  0.00000000000E+00 -0.00000000000E+00 -0.45758626174E+03  0.45758626174E+03  0.00000000000E+00 0. -1.
         23    2    1    2    0    0 -0.12190651310E+03 -0.38795056496E+02 -0.24225299914E+03  0.28889858039E+03  0.91703979274E+02 0.  0.
          5    1    1    2  502    0  0.10476807230E+03  0.76490573206E+02 -0.81478744089E+02  0.15324299299E+03  0.41800000000E+01 0. -1.
         -5    1    1    2    0  502  0.17138440800E+02 -0.37695516710E+02 -0.68848666617E+02  0.80450540260E+02  0.41800000000E+01 0. -1.
        -11    1    3    3    0    0 -0.12738583970E+03 -0.53294283921E+02 -0.23300811264E+03  0.27085090624E+03  0.00000000000E+00 0. -1.
         11    1    3    3    0    0  0.54793265951E+01  0.14499227426E+02 -0.92448864942E+01  0.18047674148E+02  0.00000000000E+00 0.  1.
</event>
<event>
 7    1  0.1758121E-005  0.2280711E+03  0.7561462E-02  0.1128005E+00
          2   -1    0    0  501    0  0.00000000000E+00  0.00000000000E+00  0.82535283326E+03  0.82535283326E+03  0.00000000000E+00 0.  1.
         -2   -1    0    0    0  501 -0.00000000000E+00 -0.00000000000E+00 -0.64236298208E+02  0.64236298208E+02  0.00000000000E+00 0. -1.
         23    2    1    2    0    0  0.17184665884E+03  0.10293765953E+03  0.42825627316E+03  0.48145582426E+03  0.90933158472E+02 0.  0.
          5    1    1    2  502    0 -0.89404670511E+02  0.16456292332E+02  0.13063649089E+03  0.15920857332E+03  0.41800000000E+01 0. -1.
         -5    1    1    2    0  502 -0.82441988332E+02 -0.11939395186E+03  0.20222377100E+03  0.24892473389E+03  0.41800000000E+01 0. -1.
        -11    1    3    3    0    0  0.12963884234E+03  0.25981452909E+02  0.25601253618E+03  0.28813830710E+03  0.00000000000E+00 0. -1.
         11    1    3    3    0    0  0.42207816501E+02  0.76956206624E+02  0.17224373698E+03  0.19331751716E+03  0.00000000000E+00 0.  1.
</event>
<event>
 7    1  0.1758121E-005  0.6770112E+02  0.7561462E-02  0.1368090E+00
          2   -1    0    0  501    0  0.00000000000E+00  0.00000000000E+00  0.43794152671E+02  0.43794152671E+02  0.00000000000E+00 0. -1.
         -2   -1    0    0    0  501 -0.00000000000E+00 -0.00000000000E+00 -0.57843459285E+03  0.57843459285E+03  0.00000000000E+00 0.  1.
         23    2    1    2    0    0  0.40652455638E+02  0.20544063252E+02 -0.38038517294E+02  0.10842537958E+03  0.90743889348E+02 0.  0.
          5    1    1    2  502    0  0.46808462503E+01 -0.57868488368E+01  0.50203972332E+01  0.99032686250E+01  0.41800000000E+01 0. -1.
         -5    1    1    2    0  502 -0.45333301888E+02 -0.14757214415E+02 -0.50162232012E+03  0.50390009732E+03  0.41800000000E+01 0.  1.
        -11    1    3    3    0    0 -0.17751216530E+02  0.28163175796E+01 -0.43578645050E+02  0.47139533699E+02  0.00000000000E+00 0. -1.
         11    1    3    3    0    0  0.58403672168E+02  0.17727745672E+02  0.55401277556E+01  0.61285845877E+02  0.00000000000E+00 0.  1.
</event>
<event>
 7    1  0.1758121E-005  0.1080974E+03  0.7561462E-02  0.1264134E+00
          3   -1    0    0  501    0  0.00000000000E+00  0.00000000000E+00  0.13568420705E+03  0.13568420705E+03  0.00000000000E+00 0. -1.
         -3   -1    0    0    0  501 -0.00000000000E+00 -0.00000000000E+00 -0.26485272888E+03  0.26485272888E+03  0.00000000000E+00 0.  1.
         23    2    1    2    0    0  0.37723702388E+02  0.42735885762E+02  0.82656508885E+02  0.13430935611E+03  0.89204658090E+02 0.  0.
          5    1    1    2  502    0  0.36530027481E+02 -0.13298221427E+01  0.12142622215E+01  0.36812472987E+02  0.41800000000E+01 0. -1.
         -5    1    1    2    0  502 -0.74253729869E+02 -0.41406063619E+02 -0.21303929294E+03  0.22941510683E+03  0.41800000000E+01 0.  1.
        -11    1    3    3    0    0  0.33509646016E+02  0.64193878654E+02  0.32067805030E+02  0.79196556441E+02  0.00000000000E+00 0. -1.
         11    1    3    3    0    0  0.42140563725E+01 -0.21457992892E+02  0.50588703855E+02  0.55112799673E+02  0.00000000000E+00 0.  1.
</event>
<event>
 7    1  0.1758121E-005  0.9191147E+02  0.7561462E-02  0.1298288E+00
          2   -1    0    0  501    0  0.00000000000E+00  0.00000000000E+00  0.51643712368E+02  0.51643712368E+02  0.00000000000E+00 0. -1.
         -2   -1    0    0    0  501 -0.00000000000E+00 -0.00000000000E+00 -0.29664206530E+03  0.29664206530E+03  0.00000000000E+00 0.  1.
         23    2    1    2    0    0  0.20741691236E+02  0.43024059938E+02 -0.69418685384E+02  0.12747546160E+03  0.95654335718E+02 0.  0.
          5    1    1    2  502    0 -0.24899136757E+02  0.27339966593E+02 -0.67663464636E+01  0.37824550612E+02  0.41800000000E+01 0.  1.
         -5    1    1    2    0  502  0.41574455213E+01 -0.70364026531E+02 -0.16881332109E+03  0.18298576546E+03  0.41800000000E+01 0.  1.
        -11    1    3    3    0    0  0.11499054810E+02  0.57601109638E+02 -0.85601171187E+02  0.10381558940E+03  0.00000000000E+00 0.  1.
         11    1    3    3    0    0  0.92426364257E+01 -0.14577049700E+02  0.16182485804E+02  0.23659872207E+02  0.00000000000E+00 0. -1.
</event>
<event>
 7    1  0.1758121E-005  0.1149346E+03  0.7561462E-02  0.1251695E+00
          3   -1    0    0  501    0  0.00000000000E+00  0.00000000000E+00  0.11299869361E+03  0.11299869361E+03  0.00000000000E+00 0. -1.
         -3   -1    0    0    0  501 -0.00000000000E+00 -0.00000000000E+00 -0.14563867982E+03  0.14563867982E+03  0.00000000000E+00 0.  1.
         23    2    1    2    0    0  0.48874952065E+02  0.21787757801E+01  0.32635733248E+02  0.10929656158E+03  0.92125671156E+02 0.  0.
          5    1    1    2  502    0 -0.56489171672E+02  0.48394823820E+02 -0.63669044459E+02  0.98001556677E+02  0.41800000000E+01 0.  1.
         -5    1    1    2    0  502  0.76142196070E+01 -0.50573599600E+02 -0.16066749951E+01  0.51339255169E+02  0.41800000000E+01 0.  1.
        -11    1    3    3    0    0 -0.26723103673E+02  0.88766580917E+01  0.54578042816E+01  0.28682868691E+02  0.00000000000E+00 0.  1.
         11    1    3    3    0    0  0.75598055738E+02 -0.66978823116E+01  0.27177928967E+02  0.80613692892E+02  0.00000000000E+00 0. -1.
</event>
<event>
 7    1  0.1758121E-005  0.9762274E+02  0.7561462E-02  0.1285376E+00
         -2   -1    0    0    0  501 -0.00000000000E+00  0.00000000000E+00  0.12363116562E+03  0.12363116562E+03  0.00000000000E+00 0.  1.
          2   -1    0    0  501    0  0.00000000000E+00 -0.00000000000E+00 -0.17055595003E+03  0.17055595003E+03  0.00000000000E+00 0. -1.
         23    2    1    2    0    0 -0.26472192990E+02  0.80580553147E+02 -0.67686704425E+02  0.14163376191E+03  0.91019942927E+02 0.  0.
          5    1    1    2  502    0 -0.41000579591E+01 -0.20937499251E+02 -0.50290693264E+02  0.54788827137E+02  0.41800000000E+01 0.  1.
         -5    1    1    2    0  502  0.30572250949E+02 -0.59643053896E+02  0.71052613285E+02  0.97764526597E+02  0.41800000000E+01 0.  1.
        -11    1    3    3    0    0 -0.40892222430E+02  0.22839932985E+02  0.56601098138E+01  0.47179161047E+02  0.00000000000E+00 0.  1.
         11    1    3    3    0    0  0.14420029440E+02  0.57740620162E+02 -0.73346814239E+02  0.94454600866E+02  0.00000000000E+00 0. -1.
</event>
<event>
 7    1  0.1758121E-005  0.1489771E+03  0.7561462E-02  0.1201736E+00
         -1   -1    0    0    0  501 -0.00000000000E+00  0.00000000000E+00  0.18502416781E+03  0.18502416781E+03  0.00000000000E+00 0.  1.
          1   -1    0    0  501    0  0.00000000000E+00 -0.00000000000E+00 -0.12881808187E+03  0.12881808187E+03  0.00000000000E+00 0. -1.
         23    2    1    2    0    0 -0.55614130855E+02 -0.93660512322E+02  0.19246129440E+02  0.14390425953E+03  0.92047809831E+02 0.  0.
          5    1    1    2  502    0  0.31953693038E+02 -0.27462441136E+02  0.11202499415E+02  0.43797175310E+02  0.41800000000E+01 0.  1.
         -5    1    1    2    0  502  0.23660437816E+02  0.12112295346E+03  0.25757457078E+02  0.12614081484E+03  0.41800000000E+01 0.  1.
        -11    1    3    3    0    0 -0.20863022208E+02 -0.95088728200E+02  0.37863269901E+02  0.10445457929E+03  0.00000000000E+00 0.  1.
         11    1    3    3    0    0 -0.34751108646E+02  0.14282158774E+01 -0.18617140461E+02  0.39449680248E+02  0.00000000000E+00 0. -1.
</event>
<event>
 7    1  0.1758121E-005  0.1493652E+03  0.7561462E-02  0.1201255E+00
         -1   -1    0    0    0  501 -0.00000000000E+00  0.00000000000E+00  0.49572295091E+02  0.49572295091E+02  0.00000000000E+00 0.  1.
          1   -1    0    0  501    0  0.00000000000E+00 -0.00000000000E+00 -0.75326611158E+03  0.75326611158E+03  0.00000000000E+00 0. -1.
         23    2    1    2    0    0  0.12364723331E+03  0.67760816124E+02 -0.49401431552E+03  0.52089292551E+03  0.86018192262E+02 0.  0.
          5    1    1    2  502    0 -0.58858667281E+02 -0.55402458438E+01 -0.63341652452E+01  0.59603951945E+02  0.41800000000E+01 0.  1.
         -5    1    1    2    0  502 -0.64788566030E+02 -0.62220570280E+02 -0.20334533573E+03  0.22234152922E+03  0.41800000000E+01 0.  1.
        -11    1    3    3    0    0  0.89929553025E+02  0.21795118488E+02 -0.18712312191E+03  0.20875204059E+03  0.00000000000E+00 0.  1.
         11    1    3    3    0    0  0.33717680286E+02  0.45965697636E+02 -0.30689119361E+03  0.31214088492E+03  0.00000000000E+00 0. -1.
</event>
<event>
 7    1  0.1758121E-005  0.1192280E+03  0.7561462E-02  0.1244376E+00
          2   -1    0    0  501    0  0.00000000000E+00  0.00000000000E+00  0.49780778785E+03  0.49780778785E+03  0.00000000000E+00 0. -1.
         -2   -1    0    0    0  501 -0.00000000000E+00 -0.00000000000E+00 -0.31319772043E+02  0.31319772043E+02  0.00000000000E+00 0.  1.
         23    2    1    2    0    0  0.35426611338E+02 -0.43529342768E+02  0.14655097442E+03  0.18105142497E+03  0.90291649146E+02 0.  0.
          5    1    1    2  502    0  0.29695675602E+02  0.60511392577E+02  0.12946848860E+03  0.14602405186E+03  0.41800000000E+01 0.  1.
         -5    1    1    2    0  502 -0.65122286940E+02 -0.16982049809E+02  0.19046855278E+03  0.20205208307E+03  0.41800000000E+01 0.  1.
        -11    1    3    3    0    0  0.39525074751E+02  0.16854624076E+02  0.81929623095E+02  0.92513636980E+02  0.00000000000E+00 0. -1.
         11    1    3    3    0    0 -0.40984634127E+01 -0.60383966844E+02  0.64621351327E+02  0.88537787986E+02  0.00000000000E+00 0.  1.
</event>
<event>
 7    1  0.1758121E-005  0.1362520E+03  0.7561462E-02  0.1218463E+00
          2   -1    0    0  501    0  0.00000000000E+00  0.00000000000E+00  0.32136802052E+03  0.32136802052E+03  0.00000000000E+00 0. -1.
         -2   -1    0    0    0  501 -0.00000000000E+00 -0.00000000000E+00 -0.61623224796E+02  0.61623224796E+02  0.00000000000E+00 0.  1.
         23    2    1    2    0    0  0.30619866296E+02  0.78083304795E+02  0.15680370255E+03  0.20054195225E+03  0.92709733987E+02 0.  0.
          5    1    1    2  502    0  0.40634734986E+02 -0.66612360426E+02  0.58184171944E+02  0.97423090250E+02  0.41800000000E+01 0. -1.
         -5    1    1    2    0  502 -0.71254601282E+02 -0.11470944368E+02  0.44756921222E+02  0.85026202819E+02  0.41800000000E+01 0. -1.
        -11    1    3    3    0    0 -0.16540574200E+01  0.88225479793E+02  0.13120757175E+03  0.15811988514E+03  0.00000000000E+00 0. -1.
         11    1    3    3    0    0  0.32273923716E+02 -0.10142174998E+02  0.25596130803E+02  0.42422067109E+02  0.00000000000E+00 0.  1.
</event>
<event>
 7    1  0.1758121E-005  0.9018727E+02  0.7561462E-02  0.1302399E+00
          1   -1    0    0  501    0  0.00000000000E+00  0.00000000000E+00  0.50218733039E+03  0.50218733039E+03  0.00000000000E+00 0. -1.
         -1   -1    0    0    0  501 -0.00000000000E+00 -0.00000000000E+00 -0.31168857387E+02  0.31168857387E+02  0.00000000000E+00 0.  1.
         23    2    1    2    0    0 -0.55030392269E+02 -0.10696051141E+02  0.26345325573E+03  0.28461217397E+03  0.91944124530E+02 0.  0.
          5    1    1    2  502    0  0.15158135600E+02 -0.18810115827E+02  0.19614656311E+03  0.19767280073E+03  0.41800000000E+01 0. -1.
         -5    1    1    2    0  502  0.39872256668E+02  0.29506166968E+02  0.11418654162E+02  0.51071213064E+02  0.41800000000E+01 0. -1.
        -11    1    3    3    0    0  0.15688027824E+02  0.22922595135E+02  0.49212767263E+02  0.56510671969E+02  0.00000000000E+00 0. -1.
         11    1    3    3    0    0 -0.70718420093E+02 -0.33618646276E+02  0.21424048847E+03  0.22810150201E+03  0.00000000000E+00 0.  1.
</event>
<event>
 7    1  0.1758121E-005  0.1203731E+03  0.7561462E-02  0.1242483E+00
         -1   -1    0    0    0  501 -0.00000000000E+00  0.00000000000E+00  0.16393777677E+03  0.16393777677E+03  0.00000000000E+00 0.  1.
          1   -1    0    0  501    0  0.00000000000E+00 -0.00000000000E+00 -0.14257829276E+03  0.14257829276E+03  0.00000000000E+00 0. -1.
         23    2    1    2    0    0  0.64936155368E+02 -0.58846887738E+02 -0.38696976188E+02  0.14240802754E+03  0.10537044116E+03 0.  0.
          5    1    1    2  502    0  0.97179570622E+01 -0.21845607662E+01  0.66504277948E+02  0.67375829350E+02  0.41800000000E+01 0. -1.
         -5    1    1    2    0  502 -0.74654112430E+02  0.61031448504E+02 -0.64478177588E+01  0.96732212644E+02  0.41800000000E+01 0. -1.
        -11    1    3    3    0    0  0.19623408155E+02  0.28747530292E+02  0.38146218540E+01  0.35014996579E+02  0.00000000000E+00 0.  1.
         11    1    3    3    0    0  0.45312747212E+02 -0.87594418030E+02 -0.42511598042E+02  0.10739303096E+03  0.00000000000E+00 0. -1.
</event>
<event>
 7    1  0.1758121E-005  0.9743328E+02  0.7561462E-02  0.1285788E+00
         -1   -1    0    0    0  501 -0.00000000000E+00  0.00000000000E+00  0.22842496660E+03  0.22842496660E+03  0.00000000000E+00 0.  1.
          1   -1    0    0  501    0  0.00000000000E+00 -0.00000000000E+00 -0.71269369254E+02  0.71269369254E+02  0.00000000000E+00 0. -1.
         23    2    1    2    0    0  0.51143035651E+01 -0.11986852254E+02 -0.23810648513E+01  0.90366681617E+02  0.89390306794E+02 0.  0.
          5    1    1    2  502    0 -0.40176650050E+02  0.42126868087E+02  0.15131486808E+03  0.16218044866E+03  0.41800000000E+01 0. -1.
         -5    1    1    2    0  502  0.35062346485E+02 -0.30140015833E+02  0.82217941147E+01  0.47147205579E+02  0.41800000000E+01 0.  1.
        -11    1    3    3    0    0 -0.24249614198E+02  0.30166981614E+02 -0.43970755188E+01  0.38954137669E+02  0.00000000000E+00 0. -1.
         11    1    3    3    0    0  0.29363917763E+02 -0.42153833868E+02  0.20160106675E+01  0.51412543947E+02  0.00000000000E+00 0.  1.
</event>
<event>
 7    1  0.1758121E-005  0.1072207E+03  0.7561462E-02  0.1265805E+00
          1   -1    0    0  501    0  0.00000000000E+00  0.00000000000E+00  0.54202594961E+02  0.54202594961E+02  0.00000000000E+00 0. -1.
         -1   -1    0    0    0  501 -0.00000000000E+00 -0.00000000000E+00 -0.48593656633E+03  0.48593656633E+03  0.00000000000E+00 0.  1.
         23    2    1    2    0    0 -0.20032272238E+02  0.67928223867E+02 -0.38700274451E+02  0.12164093032E+03  0.91012467047E+02 0.  0.
          5    1    1    2  502    0  0.27791644629E+02  0.24827937516E+01 -0.11575490515E+02  0.30495969515E+02  0.41800000000E+01 0. -1.
         -5    1    1    2    0  502 -0.77593723917E+01 -0.70411017618E+02 -0.38145820640E+03  0.38800226146E+03  0.41800000000E+01 0. -1.
        -11    1    3    3    0    0 -0.56023445819E+02  0.49848844642E+02 -0.26935683995E+02  0.79681019483E+02  0.00000000000E+00 0.  1.
         11    1    3    3    0    0  0.35991173581E+02  0.18079379225E+02 -0.11764590456E+02  0.41959910838E+02  0.00000000000E+00 0. -1.
</event>
<event>
 7    1  0.1758121E-005  0.1384797E+03  0.7561462E-02  0.1215389E+00
          2   -1    0    0  501    0  0.00000000000E+00  0.00000000000E+00  0.22785672484E+03  0.22785672484E+03  0.00000000000E+00 0. -1.
         -2   -1    0    0    0  501 -0.00000000000E+00 -0.00000000000E+00 -0.84274514981E+02  0.84274514981E+02  0.00000000000E+00 0.  1.
         23    2    1    2    0    0 -0.81799951081E+02  0.20172395978E+02  0.67357588725E+02  0.14314668614E+03  0.94105108461E+02 0.  0.
          5    1    1    2  502    0  0.62072807971E+02  0.48626772361E+02  0.43839082374E+02  0.90315746263E+02  0.41800000000E+01 0. -1.
         -5    1    1    2    0  502  0.19727143110E+02 -0.68799168339E+02  0.32385538762E+02  0.78668807417E+02  0.41800000000E+01 0. -1.
        -11    1    3    3    0    0  0.11163265586E+02  0.30775380539E+02  0.16877274306E+02  0.36831846734E+02  0.00000000000E+00 0. -1.
         11    1    3    3    0    0 -0.92963216667E+02 -0.10602984561E+02  0.50480314419E+02  0.10631483941E+03  0.00000000000E+00 0.  1.
</event>
<event>
 7    1  0.1758121E-005  0.8292387E+02  0.7561462E-02  0.1320953E+00
         -1   -1    0    0    0  501 -0.00000000000E+00  0.00000000000E+00  0.38598192241E+03  0.38598192241E+03  0.00000000000E+00 0.  1.
          1   -1    0    0  501    0  0.00000000000E+00 -0.00000000000E+00 -0.38921366485E+02  0.38921366485E+02  0.00000000000E+00 0. -1.
         23    2    1    2    0    0  0.67486169086E+01 -0.33089716692E+02  0.80750721992E+02  0.12874642398E+03  0.94416573778E+02 0.  0.
          5    1    1    2  502    0 -0.31069051863E+01  0.50201135590E+02  0.29085462447E+02  0.58251552770E+02  0.41800000000E+01 0.  1.
         -5    1    1    2    0  502 -0.36417117223E+01 -0.17111418897E+02  0.23722437149E+03  0.23790531215E+03  0.41800000000E+01 0.  1.
        -11    1    3    3    0    0  0.37900207186E+02 -0.49370634458E+02  0.36211127179E+02  0.72007853621E+02  0.00000000000E+00 0.  1.
         11    1    3    3    0    0 -0.31151590277E+02  0.16280917766E+02  0.44539594813E+02  0.56738570357E+02  0.00000000000E+00 0. -1.
</event>
<event>
 7    1  0.1758121E-005  0.2126951E+03  0.7561462E-02  0.1139449E+00
          1   -1    0    0  501    0  0.00000000000E+00  0.00000000000E+00  0.12188612273E+03  0.12188612273E+03  0.00000000000E+00 0.  1.
         -1   -1    0    0    0  501 -0.00000000000E+00 -0.00000000000E+00 -0.41380092909E+03  0.41380092909E+03  0.00000000000E+00 0. -1.
         23    2    1    2    0    0  0.19594684739E+03 -0.12964898682E+02 -0.12265396975E+03  0.24783316298E+03  0.88396972668E+02 0.  0.
          5    1    1    2  502    0 -0.16495042185E+02  0.29411731683E+02  0.81463219995E+01  0.34942400310E+02  0.41800000000E+01 0. -1.
         -5    1    1    2    0  502 -0.17945180520E+03 -0.16446833001E+02 -0.17740715862E+03  0.25291148854E+03  0.41800000000E+01 0. -1.
        -11    1    3    3    0    0  0.15738706234E+03 -0.41993601305E+02 -0.11394052463E+03  0.19878780922E+03  0.00000000000E+00 0.  1.
         11    1    3    3    0    0  0.38559785049E+02  0.29028702623E+02 -0.87134451161E+01  0.49045353753E+02  0.00000000000E+00 0. -1.
</event>
<event>
 7    1  0.1758121E-005  0.1639149E+03  0.7561462E-02  0.1184346E+00
         -3   -1    0    0    0  501 -0.00000000000E+00  0.00000000000E+00  0.24017392501E+03  0.24017392501E+03  0.00000000000E+00 0.  1.
          3   -1    0    0  501    0  0.00000000000E+00 -0.00000000000E+00 -0.13077309020E+03  0.13077309020E+03  0.00000000000E+00 0. -1.
         23    2    1    2    0    0  0.13143194909E+03 -0.45326210115E+02  0.38272151494E+02  0.17085816346E+03  0.91645686614E+02 0.  0.
          5    1    1    2  502    0 -0.57722212331E+02  0.83168221286E+02  0.55970309563E+02  0.11575385428E+03  0.41800000000E+01 0.  1.
         -5    1    1    2    0  502 -0.73709736762E+02 -0.37842011171E+02  0.15158373759E+02  0.84334997469E+02  0.41800000000E+01 0.  1.
        -11    1    3    3    0    0  0.10158565225E+02 -0.15709933161E+02  0.41986167981E+02  0.45965603978E+02  0.00000000000E+00 0.  1.
         11    1    3    3    0    0  0.12127338387E+03 -0.29616276954E+02 -0.37140164869E+01  0.12489255948E+03  0.00000000000E+00 0. -1.
</event>
<event>
 7    1  0.1758121E-005  0.1562124E+03  0.7561462E-02  0.1193040E+00
          1   -1    0    0  501    0  0.00000000000E+00  0.00000000000E+00  0.20218023394E+03  0.20218023394E+03  0.00000000000E+00 0. -1.
         -1   -1    0    0    0  501 -0.00000000000E+00 -0.00000000000E+00 -0.22194350253E+03  0.22194350253E+03  0.00000000000E+00 0.  1.
         23    2    1    2    0    0 -0.52955958557E+02 -0.12625647823E+03  0.11536514969E+03  0.20199219466E+03  0.93523778254E+02 0.  0.
          5    1    1    2  502    0  0.52032036204E+02  0.47373947382E+02 -0.59895056783E+01  0.70745814438E+02  0.41800000000E+01 0. -1.
         -5    1    1    2    0  502  0.92392235280E+00  0.78882530851E+02 -0.12913891260E+03  0.15138572738E+03  0.41800000000E+01 0.  1.
        -11    1    3    3    0    0 -0.27218072638E+02  0.62707247303E+01  0.35368604470E+02  0.45067545406E+02  0.00000000000E+00 0.  1.
         11    1    3    3    0    0 -0.25737885919E+02 -0.13252720296E+03  0.79996545217E+02  0.15692464925E+03  0.00000000000E+00 0. -1.
</event>
<event>
 7    1  0.1758121E-005  0.1362392E+03  0.7561462E-02  0.1218481E+00
         -1   -1    0    0    0  501 -0.00000000000E+00  0.00000000000E+00  0.81706713274E+02  0.81706713274E+02  0.00000000000E+00 0.  1.
          1   -1    0    0  501    0  0.00000000000E+00 -0.00000000000E+00 -0.36078466348E+03  0.36078466348E+03  0.00000000000E+00 0. -1.
         23    2    1    2    0    0  0.21335617365E+02 -0.96021385234E+02 -0.23127318684E+03  0.26988799089E+03  0.98371366171E+02 0.  0.
          5    1    1    2  502    0 -0.66975855685E+02  0.74966188130E+02  0.34787724754E+01  0.10067407246E+03  0.41800000000E+01 0. -1.
         -5    1    1    2    0  502  0.45640238320E+02  0.21055197104E+02 -0.51283535834E+02  0.71929313404E+02  0.41800000000E+01 0.  1.
        -11    1    3    3    0    0  0.46789145232E+02 -0.47725586190E+02 -0.19010852838E+03  0.20151478420E+03  0.00000000000E+00 0. -1.
         11    1    3    3    0    0 -0.25453527868E+02 -0.48295799044E+02 -0.41164658462E+02  0.68373206686E+02  0.00000000000E+00 0.  1.
</event>
<event>
 7    1  0.1758121E-005  0.1584577E+03  0.7561462E-02  0.1190449E+00
          2   -1    0    0  501    0  0.00000000000E+00  0.00000000000E+00  0.11252606293E+03  0.11252606293E+03  0.00000000000E+00 0. -1.
         -2   -1    0    0    0  501 -0.00000000000E+00 -0.00000000000E+00 -0.24816727110E+03  0.24816727110E+03  0.00000000000E+00 0.  1.
         23    2    1    2    0    0 -0.27537693382E+02  0.11984617689E+03 -0.14043368201E+02  0.14725760146E+03  0.79788184122E+02 0.  0.
          5    1    1    2  502    0  0.74390744241E+02 -0.48360252254E+02 -0.73351388256E+02  0.11519807023E+03  0.41800000000E+01 0. -1.
         -5    1    1    2    0  502 -0.46853050858E+02 -0.71485924641E+02 -0.48246451715E+02  0.98237662328E+02  0.41800000000E+01 0. -1.
        -11    1    3    3    0    0 -0.30610369279E+02  0.93933485652E+01 -0.17922547587E+02  0.36693969759E+02  0.00000000000E+00 0.  1.
         11    1    3    3    0    0  0.30726758969E+01  0.11045282833E+03  0.38791793855E+01  0.11056363171E+03  0.00000000000E+00 0. -1.
</event>
<event>
 7    1  0.1758121E-005  0.1456043E+03  0.7561462E-02  0.1205981E+00
          1   -1    0    0  501    0  0.00000000000E+00  0.00000000000E+00  0.73824473330E+03  0.73824473330E+03  0.00000000000E+00 0. -1.
         -1   -1    0    0    0  501 -0.00000000000E+00 -0.00000000000E+00 -0.41203820346E+02  0.41203820346E+02  0.00000000000E+00 0.  1.
         23    2    1    2    0    0  0.12200805761E+03  0.60177608210E+02  0.35359633396E+03  0.38943305771E+03  0.90113419615E+02 0.  0.
          5    1    1    2  502    0 -0.18571007928E+02  0.17166646060E+02  0.17922737283E+03  0.18105109678E+03  0.41800000000E+01 0.  1.
         -5    1    1    2    0  502 -0.10343704968E+03 -0.77344254270E+02  0.16421720616E+03  0.20896439916E+03  0.41800000000E+01 0.  1.
        -11    1    3    3    0    0  0.44690884505E+02  0.17151766259E+02  0.36427869116E+02  0.60153535989E+02  0.00000000000E+00 0.  1.
         11    1    3    3    0    0  0.77317173108E+02  0.43025841951E+02  0.31716846484E+03  0.32927952172E+03  0.00000000000E+00 0. -1.
</event>
<event>
 7    1  0.1758121E-005  0.1773764E+03  0.7561462E-02  0.1170367E+00
          1   -1    0    0  501    0  0.00000000000E+00  0.00000000000E+00  0.35268367546E+03  0.35268367546E+03  0.00000000000E+00 0. -1.
         -1   -1    0    0    0  501 -0.00000000000E+00 -0.00000000000E+00 -0.91550200834E+02  0.91550200834E+02  0.00000000000E+00 0.  1.
         23    2    1    2    0    0  0.84080781347E+02 -0.11566498018E+03  0.13840669324E+03  0.21805216390E+03  0.89119964179E+02 0.  0.
          5    1    1    2  502    0 -0.40621690595E+02  0.13470842212E+03  0.78439590192E+02  0.16114193262E+03  0.41800000000E+01 0. -1.
         -5    1    1    2    0  502 -0.43459090752E+02 -0.19043441941E+02  0.44287191194E+02  0.65039779780E+02  0.41800000000E+01 0. -1.
        -11    1    3    3    0    0  0.76328353719E+02 -0.12960321889E+03  0.11330036367E+03  0.18830821633E+03  0.00000000000E+00 0. -1.
         11    1    3    3    0    0  0.77524276275E+01  0.13938238714E+02  0.25106329571E+02  0.29743947571E+02  0.00000000000E+00 0.  1.
</event>
<event>
 7    1  0.1758121E-005  0.1118950E+03  0.7561462E-02  0.1257100E+00
          2   -1    0    0  501    0  0.00000000000E+00  0.00000000000E+00  0.18746610439E+03  0.18746610439E+03  0.00000000000E+00 0. -1.
         -2   -1    0    0    0  501 -0.00000000000E+00 -0.00000000000E+00 -0.71089752113E+02  0.71089752113E+02  0.00000000000E+00 0.  1.
         23    2    1    2    0    0 -0.12554967056E+02  0.37385964218E+02  0.51194155872E+02  0.11129114562E+03  0.90606511796E+02 0.  0.
          5    1    1    2  502    0 -0.54557092152E+02 -0.34254503436E+02  0.28026807504E+02  0.70376286124E+02  0.41800000000E+01 0. -1.
         -5    1    1    2    0  502  0.67112059208E+02 -0.31314607815E+01  0.37155388905E+02  0.76888424763E+02  0.41800000000E+01 0. -1.
        -11    1    3    3    0    0  0.32773227410E+02  0.32788968743E+02  0.53656715890E+01  0.46668954752E+02  0.00000000000E+00 0.  1.
         11    1    3    3    0    0 -0.45328194466E+02  0.45969954749E+01  0.45828484283E+02  0.64622190868E+02  0.00000000000E+00 0. -1.
</event>
<event>
 7    1  0.1758121E-005  0.1506637E+03  0.7561462E-02  0.1199660E+00
         -2   -1    0    0    0  501 -0.00000000000E+00  0.00000000000E+00  0.18540321075E+03  0.18540321075E+03  0.00000000000E+00 0.  1.
          2   -1    0    0  501    0  0.00000000000E+00 -0.00000000000E+00 -0.13823323601E+03  0.13823323601E+03  0.00000000000E+00 0. -1.
         23    2    1    2    0    0  0.11030847684E+03 -0.48838966289E+01  0.44568827187E+01  0.15140328846E+03  0.10349531122E+03 0.  0.
          5    1    1    2  502    0 -0.78646356353E+02 -0.56288228670E+02  0.34363772057E+02  0.10272271066E+03  0.41800000000E+01 0.  1.
         -5    1    1    2    0  502 -0.31662120489E+02  0.61172125299E+02  0.83493199591E+01  0.69510447641E+02  0.41800000000E+01 0.  1.
        -11    1    3    3    0    0  0.58168705426E+02 -0.41800382583E+02 -0.31324320487E+02  0.78179814077E+02  0.00000000000E+00 0.  1.
         11    1    3    3    0    0  0.52139771415E+02  0.36916485954E+02  0.35781203206E+02  0.73223474387E+02  0.00000000000E+00 0. -1.
</event>
<event>
 7    1  0.1758121E-005  0.1217645E+03  0.7561462E-02  0.1240214E+00
         -4   -1    0    0    0  501 -0.00000000000E+00  0.00000000000E+00  0.38978092871E+03  0.38978092871E+03  0.00000000000E+00 0.  1.
          4   -1    0    0  501    0  0.00000000000E+00 -0.00000000000E+00 -0.53305728789E+02  0.53305728789E+02  0.00000000000E+00 0. -1.
         23    2    1    2    0    0  0.71202500287E+02  0.53696040767E+02  0.10560978132E+03  0.16577833739E+03  0.91520327770E+02 0.  0.
          5    1    1    2  502    0  0.22021546491E+02 -0.55863434705E+02  0.95196406775E+02  0.11262992546E+03  0.41800000000E+01 0. -1.
         -5    1    1    2    0  502 -0.93224046778E+02  0.21673939378E+01  0.13566901182E+03  0.16467839465E+03  0.41800000000E+01 0. -1.
        -11    1    3    3    0    0  0.38042498426E+02  0.36143282253E+02 -0.12851168072E+01  0.52490190166E+02  0.00000000000E+00 0. -1.
         11    1    3    3    0    0  0.33160001861E+02  0.17552758514E+02  0.10689489813E+03  0.11328814722E+03  0.00000000000E+00 0.  1.
</event>
<event>
 7    1  0.1758121E-005  0.9178712E+02  0.7561462E-02  0.1298581E+00
         -2   -1    0    0    0  501 -0.00000000000E+00  0.00000000000E+00  0.21977288814E+03  0.21977288814E+03  0.00000000000E+00 0. -1.
          2   -1    0    0  501    0  0.00000000000E+00 -0.00000000000E+00 -0.66892934570E+02  0.66892934570E+02  0.00000000000E+00 0.  1.
         23    2    1    2    0    0 -0.15182486724E+02  0.17901415392E+02  0.10017426946E+02  0.95332850100E+02  0.91853333578E+02 0.  0.
          5    1    1    2  502    0  0.33111551283E+02  0.43529646816E+02  0.10043838774E+03  0.11444014642E+03  0.41800000000E+01 0. -1.
         -5    1    1    2    0  502 -0.17929064559E+02 -0.61431062208E+02  0.42424138887E+02  0.76892826195E+02  0.41800000000E+01 0. -1.
        -11    1    3    3    0    0  0.94451949035E+01 -0.18424947022E+02 -0.29657692992E+02  0.36170003223E+02  0.00000000000E+00 0.  1.
         11    1    3    3    0    0 -0.24627681627E+02  0.36326362415E+02  0.39675119937E+02  0.59162846877E+02  0.00000000000E+00 0. -1.
</event>
<event>
 7    1  0.1758121E-005  0.1039545E+03  0.7561462E-02  0.1272193E+00
          1   -1    0    0  501    0  0.00000000000E+00  0.00000000000E+00  0.31069217637E+02  0.31069217637E+02  0.00000000000E+00 0. -1.
         -1   -1    0    0    0  501 -0.00000000000E+00 -0.00000000000E+00 -0.81738648116E+03  0.81738648116E+03  0.00000000000E+00 0.  1.
         23    2    1    2    0    0  0.23187192632E+02  0.84103001159E+02 -0.19283181406E+03  0.23568915790E+03  0.10370298903E+03 0.  0.
          5    1    1    2  502    0 -0.40571856292E+01 -0.58229319553E+02 -0.84713869700E+02  0.10296128656E+03  0.41800000000E+01 0.  1.
         -5    1    1    2    0  502 -0.19130007003E+02 -0.25873681605E+02 -0.50877157977E+03  0.50980525434E+03  0.41800000000E+01 0.  1.
        -11    1    3    3    0    0 -0.27199975015E+02  0.13951914154E+02 -0.11642700962E+03  0.12037334888E+03  0.00000000000E+00 0. -1.
         11    1    3    3    0    0  0.50387167647E+02  0.70151087005E+02 -0.76404804433E+02  0.11531580903E+03  0.00000000000E+00 0.  1.
</event>
<event>
 7    1  0.1758121E-005  0.1581288E+03  0.7561462E-02  0.1190826E+00
          1   -1    0    0  501    0  0.00000000000E+00  0.00000000000E+00  0.12541104026E+03  0.12541104026E+03  0.00000000000E+00 0. -1.
         -1   -1    0    0    0  501 -0.00000000000E+00 -0.00000000000E+00 -0.23971173280E+03  0.23971173280E+03  0.00000000000E+00 0.  1.
         23    2    1    2    0    0  0.34968709275E+02 -0.12213311049E+03 -0.16121505024E+02  0.16158932007E+03  0.98548963099E+02 0.  0.
          5    1    1    2  502    0  0.30829597512E+02  0.71676957304E+02 -0.91381110633E+02  0.12023323198E+03  0.41800000000E+01 0.  1.
         -5    1    1    2    0  502 -0.65798306787E+02  0.50456153191E+02 -0.67980768812E+01  0.83300221009E+02  0.41800000000E+01 0.  1.
        -11    1    3    3    0    0  0.59000720388E+02 -0.44701974935E+02  0.13555665321E+02  0.75253622050E+02  0.00000000000E+00 0.  1.
         11    1    3    3    0    0 -0.24032011113E+02 -0.77431135560E+02 -0.29677170345E+02  0.86335698016E+02  0.00000000000E+00 0. -1.
</event>
<event>
 7    1  0.1758121E-005  0.9176581E+02  0.7561462E-02  0.1298631E+00
         -1   -1    0    0    0  501 -0.00000000000E+00  0.00000000000E+00  0.59594402312E+02  0.59594402312E+02  0.00000000000E+00 0.  1.
          1   -1    0    0  501    0  0.00000000000E+00 -0.00000000000E+00 -0.24392347361E+03  0.24392347361E+03  0.00000000000E+00 0. -1.
         23    2    1    2    0    0  0.51244642512E+02 -0.33253567532E+01 -0.10653545226E+03  0.14751724237E+03  0.88172914336E+02 0.  0.
          5    1    1    2  502    0 -0.84445314314E+02  0.10681888683E+02 -0.85677086763E+02  0.12084349156E+03  0.41800000000E+01 0.  1.
         -5    1    1    2    0  502  0.33200671802E+02 -0.73565319302E+01  0.78834677281E+01  0.35157141999E+02  0.41800000000E+01 0.  1.
        -11    1    3    3    0    0  0.43544760230E+02 -0.18281821658E+02 -0.84217165900E+01  0.47971829827E+02  0.00000000000E+00 0.  1.
         11    1    3    3    0    0  0.76998822817E+01  0.14956464905E+02 -0.98113735674E+02  0.99545412539E+02  0.00000000000E+00 0. -1.
</event>
<event>
 7    1  0.1758121E-005  0.1045131E+03  0.7561462E-02  0.1271082E+00
         -1   -1    0    0    0  501 -0.00000000000E+00  0.00000000000E+00  0.15087987240E+03  0.15087987240E+03  0.00000000000E+00 0.  1.
          1   -1    0    0  501    0  0.00000000000E+00 -0.00000000000E+00 -0.11934898475E+03  0.11934898475E+03  0.00000000000E+00 0. -1.
         23    2    1    2    0    0 -0.23065647741E+02  0.67333705520E+02 -0.25604050204E+02  0.11538236721E+03  0.87130197237E+02 0.  0.
          5    1    1    2  502    0 -0.25754443374E+02  0.15783014843E+02 -0.15377220897E+02  0.34151518759E+02  0.41800000000E+01 0. -1.
         -5    1    1    2    0  502  0.48820091114E+02 -0.83116720363E+02  0.72512158752E+02  0.12069497118E+03  0.41800000000E+01 0. -1.
        -11    1    3    3    0    0 -0.12192936894E+02 -0.15683079042E+01 -0.41970177940E+02  0.43733547033E+02  0.00000000000E+00 0. -1.
         11    1    3    3    0    0 -0.10872710847E+02  0.68902013424E+02  0.16366127736E+02  0.71648820173E+02  0.00000000000E+00 0.  1.
</event>
<event>
 7    1  0.1758121E-005  0.1143636E+03  0.7561462E-02  0.1252696E+00
         -2   -1    0    0    0  501 -0.00000000000E+00  0.00000000000E+00  0.70493706422E+02  0.70493706422E+02  0.00000000000E+00 0. -1.
          2   -1    0    0  501    0  0.00000000000E+00 -0.00000000000E+00 -0.32582236728E+03  0.32582236728E+03  0.00000000000E+00 0.  1.
         23    2    1    2    0    0 -0.16701907809E+02  0.51661405637E+02 -0.23503822444E+03  0.25845072813E+03  0.92768299384E+02 0.  0.
          5    1    1    2  502    0  0.20888957694E+02  0.39492907268E+02 -0.36956717931E+01  0.45024089863E+02  0.41800000000E+01 0.  1.
         -5    1    1    2    0  502 -0.41870498843E+01 -0.91154312905E+02 -0.16594764632E+02  0.92841255707E+02  0.41800000000E+01 0.  1.
        -11    1    3    3    0    0  0.25580909667E+02  0.41935467673E+02 -0.57205608427E+02  0.75401909948E+02  0.00000000000E+00 0. -1.
         11    1    3    3    0    0 -0.42282817476E+02  0.97259379643E+01 -0.17783261601E+03  0.18304881819E+03  0.00000000000E+00 0.  1.
</event>
<event>
 7    1  0.1758121E-005  0.1105743E+03  0.7561462E-02  0.1259510E+00
          2   -1    0    0  501    0  0.00000000000E+00  0.00000000000E+00  0.28452092151E+03  0.28452092151E+03  0.00000000000E+00 0. -1.
         -2   -1    0    0    0  501 -0.00000000000E+00 -0.00000000000E+00 -0.53320714333E+02  0.53320714333E+02  0.00000000000E+00 0.  1.
         23    2    1    2    0    0 -0.53303247143E+02 -0.33275327633E+02  0.10374143628E+03  0.14852347897E+03  0.85723127671E+02 0.  0.
          5    1    1    2  502    0  0.68580928347E+02 -0.29832380545E+02  0.66867360163E+02  0.10040931688E+03  0.41800000000E+01 0.  1.
         -5    1    1    2    0  502 -0.15277681204E+02  0.63107708178E+02  0.60591410737E+02  0.88908839997E+02  0.41800000000E+01 0.  1.
        -11    1    3    3    0    0 -0.40463119092E+02  0.50334580378E+01  0.99944462288E+02  0.10794209211E+03  0.00000000000E+00 0.  1.
         11    1    3    3    0    0 -0.12840128051E+02 -0.38308785671E+02  0.37969739931E+01  0.40581386860E+02  0.00000000000E+00 0. -1.
</event>
<event>
 7    1  0.1758121E-005  0.1069168E+03  0.7561462E-02  0.1266388E+00
         -1   -1    0    0    0  501 -0.00000000000E+00  0.00000000000E+00  0.99896348658E+02  0.99896348658E+02  0.00000000000E+00 0.  1.
          1   -1    0    0  501    0  0.00000000000E+00 -0.00000000000E+00 -0.17462764608E+03  0.17462764608E+03  0.00000000000E+00 0. -1.
         23    2    1    2    0    0  0.19795761907E+02 -0.61029503134E+02 -0.73716472612E+02  0.13393611454E+03  0.91587619262E+02 0.  0.
          5    1    1    2  502    0  0.12019902431E+02  0.93690075163E+02 -0.45904144380E+01  0.94661779738E+02  0.41800000000E+01 0. -1.
         -5    1    1    2    0  502 -0.31815664338E+02 -0.32660572029E+02  0.35755896247E+01  0.45926100462E+02  0.41800000000E+01 0. -1.
        -11    1    3    3    0    0  0.20928929452E+02 -0.11358277806E+02  0.17849172748E+02  0.29759427590E+02  0.00000000000E+00 0.  1.
         11    1    3    3    0    0 -0.11331675443E+01 -0.49671225327E+02 -0.91565645360E+02  0.10417668695E+03  0.00000000000E+00 0. -1.
</event>
<event>
 7    1  0.1758121E-005  0.1101209E+03  0.7561462E-02  0.1260346E+00
         -3   -1    0    0    0  501 -0.00000000000E+00  0.00000000000E+00  0.38583926954E+03  0.38583926954E+03  0.00000000000E+00 0.  1.
          3   -1    0    0  501    0  0.00000000000E+00 -0.00000000000E+00 -0.46361706682E+02  0.46361706682E+02  0.00000000000E+00 0. -1.
         23    2    1    2    0    0 -0.22820023684E+02 -0.53598294249E+02  0.69462083080E+02  0.13313802988E+03  0.97504991595E+02 0.  0.
          5    1    1    2  502    0 -0.24570451577E+02 -0.22725148436E+02  0.41444693781E+02  0.53434768688E+02  0.41800000000E+01 0. -1.
         -5    1    1    2    0  502  0.47390475261E+02  0.76323442684E+02  0.22857078599E+03  0.24562817765E+03  0.41800000000E+01 0.  1.
        -11    1    3    3    0    0 -0.50597831939E+02 -0.44397192036E+02  0.11612723310E+02  0.68308905717E+02  0.00000000000E+00 0. -1.
         11    1    3    3    0    0  0.27777808255E+02 -0.92011022127E+01  0.57849359770E+02  0.64829124159E+02  0.00000000000E+00 0.  1.
</event>
<event>
 7    1  0.1758121E-005  0.1014680E+03  0.7561462E-02  0.1277239E+00
         -3   -1    0    0    0  501 -0.00000000000E+00  0.00000000000E+00  0.18592626600E+03  0.18592626600E+03  0.00000000000E+00 0.  1.
          3   -1    0    0  501    0  0.00000000000E+00 -0.00000000000E+00 -0.71091576356E+02  0.71091576356E+02  0.00000000000E+00 0. -1.
         23    2    1    2    0    0 -0.16966145706E+02  0.31713485863E+02  0.31336711094E+02  0.10238023720E+03  0.90587682507E+02 0.  0.
          5    1    1    2  502    0  0.21368726360E+01  0.43774158356E+02  0.59353645267E+02  0.73899057984E+02  0.41800000000E+01 0. -1.
         -5    1    1    2    0  502  0.14829273070E+02 -0.75487644219E+02  0.24144333286E+02  0.80738547172E+02  0.41800000000E+01 0. -1.
        -11    1    3    3    0    0 -0.36322522366E+02 -0.84410748940E+01 -0.13016855317E+02  0.39497036582E+02  0.00000000000E+00 0. -1.
         11    1    3    3    0    0  0.19356376661E+02  0.40154560757E+02  0.44353566411E+02  0.62883200622E+02  0.00000000000E+00 0.  1.
</event>
<event>
 7    1  0.1758121E-005  0.1385306E+03  0.7561462E-02  0.1215320E+00
         -1   -1    0    0    0  501 -0.00000000000E+00  0.00000000000E+00  0.51098365721E+02  0.51098365721E+02  0.00000000000E+00 0.  1.
          1   -1    0    0  501    0  0.00000000000E+00 -0.00000000000E+00 -0.55831015100E+03  0.55831015100E+03  0.00000000000E+00 0. -1.
         23    2    1    2    0    0 -0.12113036736E+03 -0.13752648523E+02 -0.31808446808E+03  0.35196520002E+03  0.88544180781E+02 0.  0.
          5    1    1    2  502    0  0.17156032937E+02  0.21347640414E+02 -0.13892171794E+03  0.14165721773E+03  0.41800000000E+01 0. -1.
         -5    1    1    2    0  502  0.10397433442E+03 -0.75949918906E+01 -0.50205599257E+02  0.11578609898E+03  0.41800000000E+01 0. -1.
        -11    1    3    3    0    0 -0.13186341909E+03 -0.18736722765E+02 -0.31062965349E+03  0.33797900482E+03  0.00000000000E+00 0. -1.
         11    1    3    3    0    0  0.10733051728E+02  0.49840742422E+01 -0.74548145944E+01  0.13986195197E+02  0.00000000000E+00 0.  1.
</event>
<event>
 7    1  0.1758121E-005  0.6992542E+02  0.7561462E-02  0.1360347E+00
          1   -1    0    0  501    0  0.00000000000E+00  0.00000000000E+00  0.19161472861E+03  0.19161472861E+03  0.00000000000E+00 0. -1.
         -1   -1    0    0    0  501 -0.00000000000E+00 -0.00000000000E+00 -0.11342739094E+03  0.11342739094E+03  0.00000000000E+00 0.  1.
         23    2    1    2    0    0  0.84295654671E+01  0.58662121146E+02  0.11946269270E+03  0.16059866127E+03  0.89489066506E+02 0.  0.
          5    1    1    2  502    0  0.13605428971E+02 -0.40731369223E+02 -0.83145006613E+02  0.93673457612E+02  0.41800000000E+01 0.  1.
         -5    1    1    2    0  502 -0.22034994438E+02 -0.17930751923E+02  0.41869651581E+02  0.50770000669E+02  0.41800000000E+01 0.  1.
        -11    1    3    3    0    0 -0.77110751150E+01  0.48068640368E+02  0.12984931737E+03  0.13867552087E+03  0.00000000000E+00 0. -1.
         11    1    3    3    0    0  0.16140640582E+02  0.10593480778E+02 -0.10386624667E+02  0.21923140408E+02  0.00000000000E+00 0.  1.
</event>
<event>
 7    1  0.1758121E-005  0.9011999E+02  0.7561462E-02  0.1302561E+00
         -2   -1    0    0    0  501 -0.00000000000E+00  0.00000000000E+00  0.10049857925E+03  0.10049857925E+03  0.00000000000E+00 0.  1.
          2   -1    0    0  501    0  0.00000000000E+00 -0.00000000000E+00 -0.14954344577E+03  0.14954344577E+03  0.00000000000E+00 0. -1.
         23    2    1    2    0    0  0.29176527233E+01 -0.57541566337E+02 -0.30386735159E+02  0.11106249729E+03  0.89955433834E+02 0.  0.
          5    1    1    2  502    0 -0.20005104355E+02 -0.95222827506E+00 -0.61209088394E+02  0.64537863622E+02  0.41800000000E+01 0. -1.
         -5    1    1    2    0  502  0.17087451631E+02  0.58493794612E+02  0.42550957037E+02  0.74441664114E+02  0.41800000000E+01 0. -1.
        -11    1    3    3    0    0 -0.34417469102E+02 -0.58139593291E+01 -0.31849259151E+02  0.47251874153E+02  0.00000000000E+00 0.  1.
         11    1    3    3    0    0  0.37335121825E+02 -0.51727607008E+02  0.14625239925E+01  0.63810623135E+02  0.00000000000E+00 0. -1.
</event>
<event>
 6    1  0.1758121E-005  0.8330627E+02  0.7561462E-02  0.1319922E+00
          1   -1    0    0  501    0  0.00000000000E+00  0.00000000000E+00  0.63484158853E+02  0.63484158853E+02  0.00000000000E+00 0. -1.
         -1   -1    0    0    0  501 -0.00000000000E+00 -0.00000000000E+00 -0.19548598229E+03  0.19548598229E+03  0.00000000000E+00 0.  1.
          5    1    1    2  502    0  0.45840599977E+02 -0.55446372572E+02 -0.12422877577E+03  0.14361727601E+03  0.41800000000E+01 0. -1.
         -5    1    1    2    0  502 -0.29878249372E+02  0.38280019073E+02 -0.33916068117E+02  0.59378798592E+02  0.41800000000E+01 0. -1.
        -11    1    1    2    0    0 -0.22235850382E+02  0.26481476954E+02  0.94361643852E+01  0.35843309866E+02  0.00000000000E+00 0.  1.
         11    1    1    2    0    0  0.62734997761E+01 -0.93151234542E+01  0.16706856072E+02  0.20130756673E+02  0.00000000000E+00 0. -1.
</event>
<event>
 7    1  0.2203714E-005  0.1141293E+03  0.7561462E-02  0.1253109E+00
         -1   -1    0    0    0  501 -0.00000000000E+00  0.00000000000E+00  0.11266646932E+03  0.11266646932E+03  0.00000000000E+00 0.  1.
          1   -1    0    0  501    0  0.00000000000E+00 -0.00000000000E+00 -0.14074223910E+03  0.14074223910E+03  0.00000000000E+00 0. -1.
         23    2    1    2    0    0  0.28932500663E+02  0.46542430251E+02 -0.41245383818E+02  0.11620616564E+03  0.93805137584E+02 0.  0.
          5    1    1    2  502    0 -0.15264902232E+02 -0.89016539400E+02 -0.28157004754E+00  0.90413014597E+02  0.41800000000E+01 0.  1.
         -5    1    1    2    0  502 -0.13667598431E+02  0.42474109149E+02  0.13451184085E+02  0.46789528189E+02  0.41800000000E+01 0.  1.
        -11    1    3    3    0    0  0.36957458600E+01  0.62866911965E+02  0.26217153747E+01  0.63029997216E+02  0.00000000000E+00 0.  1.
         11    1    3    3    0    0  0.25236754803E+02 -0.16324481715E+02 -0.43867099193E+02  0.53176168420E+02  0.00000000000E+00 0. -1.
</event>
<event>
 7    1  0.1758121E-005  0.1076874E+03  0.7561462E-02  0.1264913E+00
          1   -1    0    0  501    0  0.00000000000E+00  0.00000000000E+00  0.21074065795E+03  0.21074065795E+03  0.00000000000E+00 0.  1.
         -1   -1    0    0    0  501 -0.00000000000E+00 -0.00000000000E+00 -0.60518341742E+02  0.60518341742E+02  0.00000000000E+00 0. -1.
         23    2    1    2    0    0  0.74953229800E-01 -0.29580308424E+02  0.79279643708E+02  0.12444225823E+03  0.91244799644E+02 0.  0.
          5    1    1    2  502    0 -0.61275820240E+02  0.23689264647E+02  0.27108588429E+02  0.71191680499E+02  0.41800000000E+01 0. -1.
         -5    1    1    2    0  502  0.61200867011E+02  0.58910437775E+01  0.43834084071E+02  0.75625060965E+02  0.41800000000E+01 0. -1.
        -11    1    3    3    0    0  0.14035530092E+02 -0.56165632448E+02  0.73997614208E+02  0.93953293086E+02  0.00000000000E+00 0.  1.
         11    1    3    3    0    0 -0.13960576862E+02  0.26585324024E+02  0.52820294996E+01  0.30488965142E+02  0.00000000000E+00 0. -1.
</event>
<event>
 7    1  0.1758121E-005  0.1206208E+03  0.7561462E-02  0.1242076E+00
         -2   -1    0    0    0  501 -0.00000000000E+00  0.00000000000E+00  0.22362106232E+02  0.22362106232E+02  0.00000000000E+00 0. -1.
          2   -1    0    0  501    0  0.00000000000E+00 -0.00000000000E+00 -0.68058467453E+03  0.68058467453E+03  0.00000000000E+00 0.  1.
         23    2    1    2    0    0 -0.33188405470E+02  0.46296894750E+02 -0.33116664097E+03  0.34818077010E+03  0.91179119610E+02 0.  0.
          5    1    1    2  502    0 -0.47625438041E+02 -0.12058997452E+02 -0.10687814683E+03  0.11770306894E+03  0.41800000000E+01 0. -1.
         -5    1    1    2    0  502  0.80813843511E+02 -0.34237897298E+02 -0.22017778050E+03  0.23706294172E+03  0.41800000000E+01 0. -1.
        -11    1    3    3    0    0  0.88231291286E+01  0.59407541470E+02 -0.23271679453E+03  0.24034186079E+03  0.00000000000E+00 0.  1.
         11    1    3    3    0    0 -0.42011534598E+02 -0.13110646721E+02 -0.98449846444E+02  0.10783890931E+03  0.00000000000E+00 0. -1.
</event>
<event>
 7    1  0.1758121E-005  0.1049752E+03  0.7561462E-02  0.1270169E+00
          2   -1    0    0  501    0  0.00000000000E+00  0.00000000000E+00  0.82704108920E+02  0.82704108920E+02  0.00000000000E+00 0. -1.
         -2   -1    0    0    0  501 -0.00000000000E+00 -0.00000000000E+00 -0.35662467341E+03  0.35662467341E+03  0.00000000000E+00 0.  1.
         23    2    1    2    0    0 -0.10062278985E+03 -0.13329447157E+02 -0.15079958849E+02  0.13445325389E+03  0.86877225575E+02 0.  0.
          5    1    1    2  502    0  0.10175380434E+02 -0.81520489731E+01  0.12179095819E+02  0.18324765876E+02  0.41800000000E+01 0.  1.
         -5    1    1    2    0  502  0.90447409420E+02  0.21481496130E+02 -0.27101970146E+03  0.28655076257E+03  0.41800000000E+01 0.  1.
        -11    1    3    3    0    0 -0.61761876231E+02 -0.17297118406E+02 -0.50569513279E+02  0.81676161357E+02  0.00000000000E+00 0.  1.
         11    1    3    3    0    0 -0.38860913623E+02  0.39676712486E+01  0.35489554430E+02  0.52777092534E+02  0.00000000000E+00 0. -1.
</event>
<event>
 7    1  0.1758121E-005  0.2177724E+03  0.7561462E-02  0.1135555E+00
         -2   -1    0    0    0  501 -0.00000000000E+00  0.00000000000E+00  0.71277678750E+02  0.71277678750E+02  0.00000000000E+00 0.  1.
          2   -1    0    0  501    0  0.00000000000E+00 -0.00000000000E+00 -0.87718020554E+03  0.87718020554E+03  0.00000000000E+00 0. -1.
         23    2    1    2    0    0  0.17477051294E+03 -0.93278240855E+02 -0.59285336411E+03  0.63178407244E+03  0.91817429996E+02 0.  0.
          5    1    1    2  502    0 -0.15122335956E+03  0.12352298253E+03 -0.17054375784E+03  0.25928570618E+03  0.41800000000E+01 0. -1.
         -5    1    1    2    0  502 -0.23547153382E+02 -0.30244741672E+02 -0.42505404839E+02  0.57388105664E+02  0.41800000000E+01 0. -1.
        -11    1    3    3    0    0  0.12267326326E+03 -0.45033981761E+02 -0.25482021258E+03  0.28637410807E+03  0.00000000000E+00 0.  1.
         11    1    3    3    0    0  0.52097249682E+02 -0.48244259093E+02 -0.33803315152E+03  0.34540996437E+03  0.00000000000E+00 0. -1.
</event>
<event>
 7    1  0.1758121E-005  0.1060285E+03  0.7561462E-02  0.1268106E+00
         -1   -1    0    0    0  501 -0.00000000000E+00  0.00000000000E+00  0.44758350338E+02  0.44758350338E+02  0.00000000000E+00 0. -1.
          1   -1    0    0  501    0  0.00000000000E+00 -0.00000000000E+00 -0.36189377527E+03  0.36189377527E+03  0.00000000000E+00 0.  1.
         23    2    1    2    0    0  0.30875852117E+02  0.57834605255E+02 -0.14892949221E+03  0.18700711569E+03  0.92160229275E+02 0.  0.
          5    1    1    2  502    0  0.39621656466E+02 -0.47027728551E+02 -0.11531640888E+03  0.13075484492E+03  0.41800000000E+01 0. -1.
         -5    1    1    2    0  502 -0.70497508583E+02 -0.10806876704E+02 -0.52889523843E+02  0.88890164995E+02  0.41800000000E+01 0. -1.
        -11    1    3    3    0    0 -0.94393017412E+01  0.25839243487E+02  0.19619365611E+01  0.27579269686E+02  0.00000000000E+00 0. -1.
         11    1    3    3    0    0  0.40315153858E+02  0.31995361769E+02 -0.15089142877E+03  0.15942784600E+03  0.00000000000E+00 0.  1.
</event>
<event>
 7    1  0.1758121E-005  0.1338554E+03  0.7561462E-02  0.1221845E+00
         -2   -1    0    0    0  501 -0.00000000000E+00  0.00000000000E+00  0.59790447461E+03  0.59790447461E+03  0.00000000000E+00 0.  1.
          2   -1    0    0  501    0  0.00000000000E+00 -0.00000000000E+00 -0.34608273101E+02  0.34608273101E+02  0.00000000000E+00 0. -1.
         23    2    1    2    0    0 -0.91317226270E+02 -0.51430975107E+01  0.19543967460E+03  0.23334675939E+03  0.88818671699E+02 0.  0.
          5    1    1    2  502    0 -0.24129929469E+02 -0.16718757903E+01  0.17374825971E+02  0.30073337732E+02  0.41800000000E+01 0.  1.
         -5    1    1    2    0  502  0.11544715574E+03  0.68149733011E+01  0.35048170093E+03  0.36909265059E+03  0.41800000000E+01 0.  1.
        -11    1    3    3    0    0 -0.55792414433E+01  0.33095333201E+02  0.54399590246E+02  0.63919828173E+02  0.00000000000E+00 0.  1.
         11    1    3    3    0    0 -0.85737984827E+02 -0.38238430712E+02  0.14104008435E+03  0.16942693121E+03  0.00000000000E+00 0. -1.
</event>
<event>
 7    1  0.1758121E-005  0.1727583E+03  0.7561462E-02  0.1175002E+00
         -1   -1    0    0    0  501 -0.00000000000E+00  0.00000000000E+00  0.22487226556E+03  0.22487226556E+03  0.00000000000E+00 0.  1.
          1   -1    0    0  501    0  0.00000000000E+00 -0.00000000000E+00 -0.14481762780E+03  0.14481762780E+03  0.00000000000E+00 0. -1.
         23    2    1    2    0    0  0.45676154661E+02 -0.13095516661E+03 -0.58089422356E+01  0.16412693548E+03  0.87569060597E+02 0.  0.
          5    1    1    2  502    0  0.82981310466E+01 -0.19795457788E+02 -0.34979538555E+01  0.22145591189E+02  0.41800000000E+01 0.  1.
         -5    1    1    2    0  502 -0.53974285708E+02  0.15075062439E+03  0.89361533848E+02  0.18341736669E+03  0.41800000000E+01 0.  1.
        -11    1    3    3    0    0 -0.25225437444E+02 -0.21954908794E+02 -0.66336737868E+01  0.34093200823E+02  0.00000000000E+00 0.  1.
         11    1    3    3    0    0  0.70901592106E+02 -0.10900025781E+03  0.82473155123E+00  0.13003373465E+03  0.00000000000E+00 0. -1.
</event>
<event>
 7    1  0.1758121E-005  0.1457829E+03  0.7561462E-02  0.1205753E+00
          2   -1    0    0  501    0  0.00000000000E+00  0.00000000000E+00  0.18926807383E+03  0.18926807383E+03  0.00000000000E+00 0. -1.
         -2   -1    0    0    0  501 -0.00000000000E+00 -0.00000000000E+00 -0.14039914853E+03  0.14039914853E+03  0.00000000000E+00 0.  1.
         23    2    1    2    0    0  0.80376608823E+02 -0.81249783632E+02  0.64849720573E+02  0.15947980495E+03  0.90368110207E+02 0.  0.
          5    1    1    2  502    0 -0.11265541000E+03  0.76786073847E+02 -0.97386496742E+01  0.13674668638E+03  0.41800000000E+01 0.  1.
         -5    1    1    2    0  502  0.32278801173E+02  0.44637097845E+01 -0.62421456011E+01  0.33440731031E+02  0.41800000000E+01 0.  1.
        -11    1    3    3    0    0  0.23889167090E+02 -0.55122110595E+02 -0.11302619810E+02  0.61130095659E+02  0.00000000000E+00 0.  1.
         11    1    3    3    0    0  0.56487441733E+02 -0.26127673037E+02  0.76152340383E+02  0.98349709291E+02  0.00000000000E+00 0. -1.
</event>
<event>
 7    1  0.1758121E-005  0.1200878E+03  0.7561462E-02  0.1242952E+00
          2   -1    0    0  501    0  0.00000000000E+00  0.00000000000E+00  0.43289596827E+03  0.43289596827E+03  0.00000000000E+00 0. -1.
         -2   -1    0    0    0  501 -0.00000000000E+00 -0.00000000000E+00 -0.52055601484E+02  0.52055601484E+02  0.00000000000E+00 0.  1.
         23    2    1    2    0    0 -0.60749226151E+02  0.44142277218E+01  0.30993644337E+03  0.32877265356E+03  0.91218994287E+02 0.  0.
          5    1    1    2  502    0  0.80031380204E+02  0.39236229683E+02  0.58499235648E+02  0.10669646905E+03  0.41800000000E+01 0.  1.
         -5    1    1    2    0  502 -0.19282154053E+02 -0.43650457405E+02  0.12404687777E+02  0.49482447144E+02  0.41800000000E+01 0.  1.
        -11    1    3    3    0    0 -0.28019349255E+01 -0.33615039263E+02  0.54454425016E+02  0.64055492409E+02  0.00000000000E+00 0. -1.
         11    1    3    3    0    0 -0.57947291225E+02  0.38029266985E+02  0.25548201835E+03  0.26471716115E+03  0.00000000000E+00 0.  1.
</event>
<event>
 7    1  0.1758121E-005  0.1252598E+03  0.7561462E-02  0.1234664E+00
         -3   -1    0    0    0  501 -0.00000000000E+00  0.00000000000E+00  0.61670565872E+02  0.61670565872E+02  0.00000000000E+00 0.  1.
          3   -1    0    0  501    0  0.00000000000E+00 -0.00000000000E+00 -0.27615113840E+03  0.27615113840E+03  0.00000000000E+00 0. -1.
         23    2    1    2    0    0 -0.25648001272E+02 -0.67708438555E+02 -0.87899656961E+02  0.14569903146E+03  0.90882371519E+02 0.  0.
          5    1    1    2  502    0  0.39797750223E+02 -0.20828615368E+02 -0.77883058943E+02  0.90005196579E+02  0.41800000000E+01 0.  1.
         -5    1    1    2    0  502 -0.14149748951E+02  0.88537053922E+02 -0.48697856621E+02  0.10211747623E+03  0.41800000000E+01 0.  1.
        -11    1    3    3    0    0 -0.59398251037E+02 -0.36733463842E+02 -0.59914060548E+02  0.92017358381E+02  0.00000000000E+00 0. -1.
         11    1    3    3    0    0  0.33750249765E+02 -0.30974974713E+02 -0.27985596414E+02  0.53681673077E+02  0.00000000000E+00 0.  1.
</event>
<event>
 7    1  0.1758121E-005  0.6142779E+02  0.7561462E-02  0.1391936E+00
          2   -1    0    0  501    0  0.00000000000E+00  0.00000000000E+00  0.24426324102E+03  0.24426324102E+03  0.00000000000E+00 0. -1.
         -2   -1    0    0    0  501 -0.00000000000E+00 -0.00000000000E+00 -0.76547047807E+02  0.76547047807E+02  0.00000000000E+00 0.  1.
         23    2    1    2    0    0  0.30939391567E+02  0.12844605864E+02  0.16448205390E+03  0.19127005246E+03  0.91693277070E+02 0.  0.
          5    1    1    2  502    0 -0.12555571932E+02  0.13653501650E+02 -0.57546517251E+02  0.60606390270E+02  0.41800000000E+01 0. -1.
         -5    1    1    2    0  502 -0.18383819635E+02 -0.26498107514E+02  0.60780656557E+02  0.68933846097E+02  0.41800000000E+01 0. -1.
        -11    1    3    3    0    0 -0.60700199087E+00  0.33570055680E+02  0.14491610407E+03  0.14875481272E+03  0.00000000000E+00 0. -1.
         11    1    3    3    0    0  0.31546393558E+02 -0.20725449816E+02  0.19565949834E+02  0.42515239732E+02  0.00000000000E+00 0.  1.
</event>
<event>
 7    1  0.1758121E-005  0.9011408E+02  0.7561462E-02  0.1302576E+00
         -2   -1    0    0    0  501 -0.00000000000E+00  0.00000000000E+00  0.52620184582E+03  0.52620184582E+03  0.00000000000E+00 0.  1.
          2   -1    0    0  501    0  0.00000000000E+00 -0.00000000000E+00 -0.28697265663E+02  0.28697265663E+02  0.00000000000E+00 0. -1.
         23    2    1    2    0    0 -0.11501206017E+01  0.29707749010E+02  0.10727194642E+03  0.14403132206E+03  0.91399552069E+02 0.  0.
          5    1    1    2  502    0  0.45726922182E+02  0.31651970524E+01  0.30931503841E+03  0.31272069850E+03  0.41800000000E+01 0. -1.
         -5    1    1    2    0  502 -0.44576801580E+02 -0.32872946062E+02  0.80917595335E+02  0.98147090923E+02  0.41800000000E+01 0. -1.
        -11    1    3    3    0    0  0.32019288487E+02 -0.28918924722E+01  0.61573544103E+01  0.32733940958E+02  0.00000000000E+00 0. -1.
         11    1    3    3    0    0 -0.33169409089E+02  0.32599641482E+02  0.10111459201E+03  0.11129738111E+03  0.00000000000E+00 0.  1.
</event>
<event>
 7    1  0.1758121E-005  0.1434809E+03  0.7561462E-02  0.1208720E+00
          2   -1    0    0  501    0  0.00000000000E+00  0.00000000000E+00  0.99777897157E+03  0.99777897157E+03  0.00000000000E+00 0. -1.
         -2   -1    0    0    0  501 -0.00000000000E+00 -0.00000000000E+00 -0.28742964340E+02  0.28742964340E+02  0.00000000000E+00 0.  1.
         23    2    1    2    0    0 -0.81846510230E+02 -0.95391055832E+02  0.33574417814E+03  0.36887041988E+03  0.86850035938E+02 0.  0.
          5    1    1    2  502    0  0.80043250306E+02  0.53701408457E+02  0.19707870917E+03  0.21942710224E+03  0.41800000000E+01 0. -1.
         -5    1    1    2    0  502  0.18032599242E+01  0.41689647375E+02  0.43621311993E+03  0.43822441379E+03  0.41800000000E+01 0. -1.
        -11    1    3    3    0    0 -0.69659763906E+02 -0.20421520240E+02  0.20738578128E+03  0.21972342495E+03  0.00000000000E+00 0.  1.
         11    1    3    3    0    0 -0.12186746324E+02 -0.74969535592E+02  0.12835839686E+03  0.14914699493E+03  0.00000000000E+00 0. -1.
</event>
<event>
 7    1  0.1758121E-005  0.1600033E+03  0.7561462E-02  0.1188693E+00
         -1   -1    0    0    0  501 -0.00000000000E+00  0.00000000000E+00  0.25704490485E+02  0.25704490485E+02  0.00000000000E+00 0.  1.
          1   -1    0    0  501    0  0.00000000000E+00 -0.00000000000E+00 -0.10219350832E+04  0.10219350832E+04  0.00000000000E+00 0. -1.
         23    2    1    2    0    0 -0.11974832588E+03  0.11644919913E+02 -0.49195920624E+03  0.51433634228E+03  0.89681361931E+02 0.  0.
          5    1    1    2  502    0  0.14197239525E+03 -0.24977641041E+02 -0.45721594428E+03  0.47942041640E+03  0.41800000000E+01 0. -1.
         -5    1    1    2    0  502 -0.22224069369E+02  0.13332721128E+02 -0.47055442217E+02  0.53882815018E+02  0.41800000000E+01 0. -1.
        -11    1    3    3    0    0 -0.13433737266E+03  0.12563789073E+02 -0.45527075560E+03  0.47484296288E+03  0.00000000000E+00 0. -1.
         11    1    3    3    0    0  0.14589046781E+02 -0.91886916040E+00 -0.36688450638E+02  0.39493379404E+02  0.00000000000E+00 0.  1.
</event>
<event>
 7    1  0.1758121E-005  0.1043244E+03  0.7561462E-02  0.1271456E+00
         -1   -1    0    0    0  501 -0.00000000000E+00  0.00000000000E+00  0.59370303710E+03  0.59370303710E+03  0.00000000000E+00 0.  1.
          1   -1    0    0  501    0  0.00000000000E+00 -0.00000000000E+00 -0.24909544878E+02  0.24909544878E+02  0.00000000000E+00 0. -1.
         23    2    1    2    0    0  0.90098810370E+00  0.15278570708E+01  0.10928996769E+03  0.14238346932E+03  0.91244776123E+02 0.  0.
          5    1    1    2  502    0 -0.42698093124E+02  0.40177416474E+02  0.14978418741E+03  0.16090409302E+03  0.41800000000E+01 0.  1.
         -5    1    1    2    0  502  0.41797105020E+02 -0.41705273545E+02  0.30971933712E+03  0.31532501964E+03  0.41800000000E+01 0.  1.
        -11    1    3    3    0    0 -0.10202232775E+02 -0.43305133172E+02  0.61674523913E+02  0.76047136781E+02  0.00000000000E+00 0.  1.
         11    1    3    3    0    0  0.11103220879E+02  0.44832990243E+02  0.47615443779E+02  0.66336332536E+02  0.00000000000E+00 0. -1.
</event>
<event>
 7    1  0.1758121E-005  0.7938173E+02  0.7561462E-02  0.1330815E+00
          2   -1    0    0  501    0  0.00000000000E+00  0.00000000000E+00  0.11156180121E+03  0.11156180121E+03  0.00000000000E+00 0. -1.
         -2   -1    0    0    0  501 -0.00000000000E+00 -0.00000000000E+00 -0.10971827837E+03  0.10971827837E+03  0.00000000000E+00 0.  1.
         23    2    1    2    0    0  0.11812490146E+02  0.20889934958E+01  0.15613092447E+02  0.94865035948E+02  0.92799286487E+02 0.  0.
          5    1    1    2  502    0 -0.65810599997E+02  0.16280381996E+02 -0.15864117154E+01  0.67941703041E+02  0.41800000000E+01 0.  1.
         -5    1    1    2    0  502  0.53998109851E+02 -0.18369375492E+02 -0.12183157890E+02  0.58473340589E+02  0.41800000000E+01 0.  1.
        -11    1    3    3    0    0  0.22548523847E+02  0.35116851033E+01  0.52060622464E+02  0.56842556868E+02  0.00000000000E+00 0. -1.
         11    1    3    3    0    0 -0.10736033701E+02 -0.14226916074E+01 -0.36447530017E+02  0.38022479080E+02  0.00000000000E+00 0.  1.
</event>
<event>
 7    1  0.1758121E-005  0.1026865E+03  0.7561462E-02  0.1274746E+00
         -1   -1    0    0    0  501 -0.00000000000E+00  0.00000000000E+00  0.28231413091E+02  0.28231413091E+02  0.00000000000E+00 0.  1.
          1   -1    0    0  501    0  0.00000000000E+00 -0.00000000000E+00 -0.44462117628E+03  0.44462117628E+03  0.00000000000E+00 0. -1.
         23    2    1    2    0    0 -0.89136083049E+00 -0.24968846238E+02 -0.21148020209E+03  0.23148168289E+03  0.90750514221E+02 0.  0.
          5    1    1    2  502    0 -0.27524394028E+02  0.59881942767E+02 -0.17530673001E+03  0.18733222180E+03  0.41800000000E+01 0.  1.
         -5    1    1    2    0  502  0.28415754859E+02 -0.34913096529E+02 -0.29602831078E+02  0.54038684674E+02  0.41800000000E+01 0.  1.
        -11    1    3    3    0    0 -0.16652094508E+02  0.31429146994E+02 -0.79690860689E+02  0.87268074401E+02  0.00000000000E+00 0. -1.
         11    1    3    3    0    0  0.15760733678E+02 -0.56397993233E+02 -0.13178934140E+03  0.14421360849E+03  0.00000000000E+00 0.  1.
</event>
<event>
 7    1  0.1758121E-005  0.2152398E+03  0.7561462E-02  0.1137483E+00
          1   -1    0    0  501    0  0.00000000000E+00  0.00000000000E+00  0.15953844617E+03  0.15953844617E+03  0.00000000000E+00 0. -1.
         -1   -1    0    0    0  501 -0.00000000000E+00 -0.00000000000E+00 -0.34012878508E+03  0.34012878508E+03  0.00000000000E+00 0.  1.
         23    2    1    2    0    0  0.19383044860E+03  0.48194485189E+02 -0.33621795925E+02  0.22192485267E+03  0.90704265976E+02 0.  0.
          5    1    1    2  502    0 -0.14552757922E+03 -0.68997636963E+02 -0.15595041787E+03  0.22422523376E+03  0.41800000000E+01 0. -1.
         -5    1    1    2    0  502 -0.48302869376E+02  0.20803151773E+02  0.89818748800E+01  0.53517144823E+02  0.41800000000E+01 0. -1.
        -11    1    3    3    0    0  0.14792866158E+03 -0.28601085741E+01 -0.64766423569E+01  0.14809799470E+03  0.00000000000E+00 0.  1.
         11    1    3    3    0    0  0.45901787016E+02  0.51054593764E+02 -0.27145153568E+02  0.73826857971E+02  0.00000000000E+00 0. -1.
</event>
<event>
 7    1  0.1758121E-005  0.1068385E+03  0.7561462E-02  0.1266539E+00
          2   -1    0    0  501    0  0.00000000000E+00  0.00000000000E+00  0.44971174239E+02  0.44971174239E+02  0.00000000000E+00 0. -1.
         -2   -1    0    0    0  501 -0.00000000000E+00 -0.00000000000E+00 -0.48681451931E+03  0.48681451931E+03  0.00000000000E+00 0.  1.
         23    2    1    2    0    0  0.42596225918E+02 -0.33633553005E+02 -0.51816956284E+02  0.11861035268E+03  0.91857304852E+02 0.  0.
          5    1    1    2  502    0  0.35400682486E+02  0.12883704526E+02 -0.45124339199E+02  0.58931117001E+02  0.41800000000E+01 0.  1.
         -5    1    1    2    0  502 -0.77996908405E+02  0.20749848478E+02 -0.34490204959E+03  0.35424422387E+03  0.41800000000E+01 0.  1.
        -11    1    3    3    0    0  0.65067069886E+02 -0.17771756695E+02 -0.59616739212E+02  0.90020633823E+02  0.00000000000E+00 0.  1.
         11    1    3    3    0    0 -0.22470843967E+02 -0.15861796309E+02  0.77997829286E+01  0.28589718860E+02  0.00000000000E+00 0. -1.
</event>
<event>
 7    1  0.1758121E-005  0.1320206E+03  0.7561462E-02  0.1224488E+00
          2   -1    0    0  501    0  0.00000000000E+00  0.00000000000E+00  0.24753686730E+03  0.24753686730E+03  0.00000000000E+00 0. -1.
         -2   -1    0    0    0  501 -0.00000000000E+00 -0.00000000000E+00 -0.12099563059E+03  0.12099563059E+03  0.00000000000E+00 0.  1.
         23    2    1    2    0    0  0.86717598924E+02  0.35370778279E+02  0.16074487905E+03  0.20855363988E+03  0.94258530900E+02 0.  0.
          5    1    1    2  502    0 -0.73991421849E+02  0.22134201689E+02 -0.57633122533E+02  0.96455702810E+02  0.41800000000E+01 0.  1.
         -5    1    1    2    0  502 -0.12726177075E+02 -0.57504979968E+02  0.23429480194E+02  0.63523155197E+02  0.41800000000E+01 0.  1.
        -11    1    3    3    0    0  0.52288955130E+02  0.64163333742E+02  0.74645465083E+02  0.11145857384E+03  0.00000000000E+00 0.  1.
         11    1    3    3    0    0  0.34428643794E+02 -0.28792555463E+02  0.86099413964E+02  0.97095066036E+02  0.00000000000E+00 0. -1.
</event>
<event>
 7    1  0.1758121E-005  0.9961374E+02  0.7561462E-02  0.1281110E+00
          1   -1    0    0  501    0  0.00000000000E+00  0.00000000000E+00  0.86662710659E+02  0.86662710659E+02  0.00000000000E+00 0. -1.
         -1   -1    0    0    0  501 -0.00000000000E+00 -0.00000000000E+00 -0.18615542698E+03  0.18615542698E+03  0.00000000000E+00 0.  1.
         23    2    1    2    0    0 -0.57362247080E+02  0.39097711999E+02 -0.21858054685E+02  0.11806898805E+03  0.92970172163E+02 0.  0.
          5    1    1    2  502    0 -0.94270338715E+01 -0.36737314251E+02 -0.79044803542E+02  0.87772732628E+02  0.41800000000E+01 0. -1.
         -5    1    1    2    0  502  0.66789280951E+02 -0.23603977485E+01  0.14101419098E+01  0.66976416952E+02  0.41800000000E+01 0.  1.
        -11    1    3    3    0    0  0.13908801415E+02  0.99811510898E+01 -0.35933967877E+02  0.39803620203E+02  0.00000000000E+00 0.  1.
         11    1    3    3    0    0 -0.71271048495E+02  0.29116560910E+02  0.14075913192E+02  0.78265367851E+02  0.00000000000E+00 0. -1.
</event>
<event>
 7    1  0.1758121E-005  0.1027446E+03  0.7561462E-02  0.1274628E+00
          2   -1    0    0  501    0  0.00000000000E+00  0.00000000000E+00  0.59651577993E+03  0.59651577993E+03  0.00000000000E+00 0. -1.
         -2   -1    0    0    0  501 -0.00000000000E+00 -0.00000000000E+00 -0.25333818124E+02  0.25333818124E+02  0.00000000000E+00 0.  1.
         23    2    1    2    0    0 -0.26288837636E+02  0.44073251625E+02  0.26183609918E+03  0.28424578115E+03  0.97999830476E+02 0.  0.
          5    1    1    2  502    0  0.49305137194E+02  0.28109649190E+02  0.10187286450E+03  0.11669062452E+03  0.41800000000E+01 0. -1.
         -5    1    1    2    0  502 -0.23016299558E+02 -0.72182900815E+02  0.20747299812E+03  0.22091319238E+03  0.41800000000E+01 0. -1.
        -11    1    3    3    0    0 -0.39696321361E+02  0.44045140257E+02  0.26407736759E+03  0.27065222775E+03  0.00000000000E+00 0. -1.
         11    1    3    3    0    0  0.13407483725E+02  0.28111368261E-01 -0.22412684084E+01  0.13593553404E+02  0.00000000000E+00 0.  1.
</event>
<event>
 7    1  0.1758121E-005  0.8824167E+02  0.7561462E-02  0.1307166E+00
         -1   -1    0    0    0  501 -0.00000000000E+00  0.00000000000E+00  0.67932507824E+02  0.67932507824E+02  0.00000000000E+00 0.  1.
          1   -1    0    0  501    0  0.00000000000E+00 -0.00000000000E+00 -0.18144407010E+03  0.18144407010E+03  0.00000000000E+00 0. -1.
         23    2    1    2    0    0 -0.95481788758E+01 -0.23604580218E+02 -0.61108920497E+02  0.11138369541E+03  0.89575016112E+02 0.  0.
          5    1    1    2  502    0  0.47501173505E+02 -0.30866445325E+02 -0.65039777564E+01  0.57174059310E+02  0.41800000000E+01 0.  1.
         -5    1    1    2    0  502 -0.37952994629E+02  0.54471025544E+02 -0.45898664021E+02  0.80818823204E+02  0.41800000000E+01 0.  1.
        -11    1    3    3    0    0  0.13343824317E+02 -0.26903876335E+02  0.13752858758E+02  0.33030551514E+02  0.00000000000E+00 0.  1.
         11    1    3    3    0    0 -0.22892003193E+02  0.32992961169E+01 -0.74861779255E+02  0.78353143895E+02  0.00000000000E+00 0. -1.
</event>
<event>
 7    1  0.1758121E-005  0.1900314E+03  0.7561462E-02  0.1158433E+00
          2   -1    0    0  501    0  0.00000000000E+00  0.00000000000E+00  0.86881629180E+03  0.86881629180E+03  0.00000000000E+00 0. -1.
         -2   -1    0    0    0  501 -0.00000000000E+00 -0.00000000000E+00 -0.47792491633E+02  0.47792491633E+02  0.00000000000E+00 0.  1.
         23    2    1    2    0    0 -0.15065945413E+03  0.50877160302E+02  0.54037488159E+03  0.57063463922E+03  0.91280459390E+02 0.  0.
          5    1    1    2  502    0  0.82562334013E+01 -0.58105388971E+02  0.96741386171E+02  0.11322883827E+03  0.41800000000E+01 0. -1.
         -5    1    1    2    0  502  0.14240322073E+03  0.72282286685E+01  0.18390753241E+03  0.23274530594E+03  0.41800000000E+01 0. -1.
        -11    1    3    3    0    0 -0.15735609938E+03  0.58996930607E+02  0.52938046433E+03  0.55541449013E+03  0.00000000000E+00 0. -1.
         11    1    3    3    0    0  0.66966452509E+01 -0.81197703041E+01  0.10994417256E+02  0.15220149086E+02  0.00000000000E+00 0.  1.
</event>
<event>
 7    1  0.1758121E-005  0.1609998E+03  0.7561462E-02  0.1187573E+00
         -1   -1    0    0    0  501 -0.00000000000E+00  0.00000000000E+00  0.18074078089E+02  0.18074078089E+02  0.00000000000E+00 0.  1.
          1   -1    0    0  501    0  0.00000000000E+00 -0.00000000000E+00 -0.17032391957E+04  0.17032391957E+04  0.00000000000E+00 0. -1.
         23    2    1    2    0    0  0.12949186638E+03 -0.95609992179E+00 -0.56466025564E+03  0.58643572374E+03  0.91085653077E+02 0.  0.
          5    1    1    2  502    0 -0.64657949814E+02 -0.52479064977E+02 -0.35001313421E+03  0.35980740578E+03  0.41800000000E+01 0.  1.
         -5    1    1    2    0  502 -0.64833916562E+02  0.53435164899E+02 -0.77049172776E+03  0.77507014427E+03  0.41800000000E+01 0.  1.
        -11    1    3    3    0    0 -0.12037108683E+02  0.45379628657E+01 -0.20984336248E+02  0.24613562526E+02  0.00000000000E+00 0.  1.
         11    1    3    3    0    0  0.14152897506E+03 -0.54940627875E+01 -0.54367591939E+03  0.56182216122E+03  0.00000000000E+00 0. -1.
</event>
<event>
 7    1  0.1758121E-005  0.1410895E+03  0.7561462E-02  0.1211870E+00
         -1   -1    0    0    0  501 -0.00000000000E+00  0.00000000000E+00  0.51051184862E+02  0.51051184862E+02  0.00000000000E+00 0.  1.
          1   -1    0    0  501    0  0.00000000000E+00 -0.00000000000E+00 -0.63574546755E+03  0.63574546755E+03  0.00000000000E+00 0. -1.
         23    2    1    2    0    0  0.12380181399E+00 -0.13403468267E+03 -0.37338997698E+03  0.40704238142E+03  0.91093983759E+02 0.  0.
          5    1    1    2  502    0  0.30043928674E+02  0.55443724211E+02 -0.17841699812E+03  0.18927953355E+03  0.41800000000E+01 0.  1.
         -5    1    1    2    0  502 -0.30167730488E+02  0.78590958459E+02 -0.32887307588E+02  0.90474737439E+02  0.41800000000E+01 0.  1.
        -11    1    3    3    0    0 -0.60701777953E+01 -0.40245060703E+02 -0.28790501378E+02  0.49853835750E+02  0.00000000000E+00 0.  1.
         11    1    3    3    0    0  0.61939796093E+01 -0.93789621967E+02 -0.34459947560E+03  0.35718854567E+03  0.00000000000E+00 0. -1.
</event>
<event>
 7    1  0.1758121E-005  0.1290520E+03  0.7561462E-02  0.1228869E+00
         -1   -1    0    0    0  501 -0.00000000000E+00  0.00000000000E+00  0.43438495385E+02  0.43438495385E+02  0.00000000000E+00 0.  1.
          1   -1    0    0  501    0  0.00000000000E+00 -0.00000000000E+00 -0.74145362091E+03  0.74145362091E+03  0.00000000000E+00 0. -1.
         23    2    1    2    0    0 -0.10854720763E+03  0.85156387882E+01 -0.53000457956E+03  0.54881558218E+03  0.91862269204E+02 0.  0.
          5    1    1    2  502    0  0.17748000100E+02 -0.17593231783E+02 -0.13742999262E+03  0.13974615767E+03  0.41800000000E+01 0. -1.
         -5    1    1    2    0  502  0.90799207526E+02  0.90775929947E+01 -0.30580553340E+02  0.96330376437E+02  0.41800000000E+01 0. -1.
        -11    1    3    3    0    0  0.43207420514E+01  0.26742145359E+02 -0.77768702560E+02  0.82351577083E+02  0.00000000000E+00 0.  1.
         11    1    3    3    0    0 -0.11286794968E+03 -0.18226506571E+02 -0.45223587700E+03  0.46646400510E+03  0.00000000000E+00 0. -1.
</event>
<event>
 7    1  0.1758121E-005  0.6556309E+02  0.7561462E-02  0.1375866E+00
          2   -1    0    0  501    0  0.00000000000E+00  0.00000000000E+00  0.60965005254E+03  0.60965005254E+03  0.00000000000E+00 0. -1.
         -2   -1    0    0    0  501 -0.00000000000E+00 -0.00000000000E+00 -0.37073628264E+02  0.37073628264E+02  0.00000000000E+00 0.  1.
         23    2    1    2    0    0 -0.55835358875E+01  0.21197348389E+02  0.48552155156E+03  0.49275396576E+03  0.81208314198E+02 0.  0.
          5    1    1    2  502    0  0.21394482670E+02 -0.20502486592E+01  0.11458636905E+03  0.11665948646E+03  0.41800000000E+01 0. -1.
         -5    1    1    2    0  502 -0.15810946782E+02 -0.19147099729E+02 -0.27531496337E+02  0.37310228581E+02  0.41800000000E+01 0. -1.
        -11    1    3    3    0    0 -0.43404972707E+02  0.13474553280E+02  0.25288773488E+03  0.25693921790E+03  0.00000000000E+00 0. -1.
         11    1    3    3    0    0  0.37821436820E+02  0.77227951084E+01  0.23263381668E+03  0.23581474787E+03  0.00000000000E+00 0.  1.
</event>
<event>
 7    1  0.1758121E-005  0.1991843E+03  0.7561462E-02  0.1150429E+00
          1   -1    0    0  501    0  0.00000000000E+00  0.00000000000E+00  0.35911997353E+03  0.35911997353E+03  0.00000000000E+00 0. -1.
         -1   -1    0    0    0  501 -0.00000000000E+00 -0.00000000000E+00 -0.13785040695E+03  0.13785040695E+03  0.00000000000E+00 0.  1.
         23    2    1    2    0    0  0.79865760344E+02  0.17320292766E+03  0.14477782276E+03  0.25639564254E+03  0.91653225384E+02 0.  0.
          5    1    1    2  502    0 -0.84536995931E+02 -0.15447907782E+03  0.10561923104E+03  0.20538545112E+03  0.41800000000E+01 0.  1.
         -5    1    1    2    0  502  0.46712355870E+01 -0.18723849845E+02 -0.29127487223E+02  0.35189286819E+02  0.41800000000E+01 0.  1.
        -11    1    3    3    0    0  0.91557675420E+02  0.14005322978E+03  0.14474599820E+03  0.22124447811E+03  0.00000000000E+00 0.  1.
         11    1    3    3    0    0 -0.11691915077E+02  0.33149697882E+02  0.31824562993E-01  0.35151164427E+02  0.00000000000E+00 0. -1.
</event>
<event>
 7    1  0.1758121E-005  0.7429004E+02  0.7561462E-02  0.1346084E+00
         -2   -1    0    0    0  501 -0.00000000000E+00  0.00000000000E+00  0.39571666400E+02  0.39571666400E+02  0.00000000000E+00 0.  1.
          2   -1    0    0  501    0  0.00000000000E+00 -0.00000000000E+00 -0.49791376849E+03  0.49791376849E+03  0.00000000000E+00 0. -1.
         23    2    1    2    0    0  0.40072528994E+02 -0.55735989498E+00 -0.35506501038E+03  0.37039413625E+03  0.97542484810E+02 0.  0.
          5    1    1    2  502    0 -0.19453659776E+02  0.96658462914E+01  0.26947461642E+02  0.34864187243E+02  0.41800000000E+01 0. -1.
         -5    1    1    2    0  502 -0.20618869218E+02 -0.91084863964E+01 -0.13022455335E+03  0.13222711139E+03  0.41800000000E+01 0. -1.
        -11    1    3    3    0    0 -0.31287511210E+02  0.60540562411E+01 -0.14433938656E+03  0.14781548792E+03  0.00000000000E+00 0.  1.
         11    1    3    3    0    0  0.71360040204E+02 -0.66114161361E+01 -0.21072562381E+03  0.22257864833E+03  0.00000000000E+00 0. -1.
</event>
<event>
 7    1  0.1758121E-005  0.8833372E+02  0.7561462E-02  0.1306938E+00
          1   -1    0    0  501    0  0.00000000000E+00  0.00000000000E+00  0.63257689244E+02  0.63257689244E+02  0.00000000000E+00 0. -1.
         -1   -1    0    0    0  501 -0.00000000000E+00 -0.00000000000E+00 -0.26185627235E+03  0.26185627235E+03  0.00000000000E+00 0.  1.
         23    2    1    2    0    0 -0.21206741732E+02  0.60681777914E+02 -0.60936804251E+02  0.12831418320E+03  0.92839815987E+02 0.  0.
          5    1    1    2  502    0  0.16645960705E+02 -0.18274120424E+02 -0.15009648069E+03  0.15217574511E+03  0.41800000000E+01 0.  1.
         -5    1    1    2    0  502  0.45607810261E+01 -0.42407657490E+02  0.12434701827E+02  0.44624033288E+02  0.41800000000E+01 0.  1.
        -11    1    3    3    0    0  0.30418784846E+02  0.45857407448E+02 -0.13516643950E+02  0.56664838772E+02  0.00000000000E+00 0.  1.
         11    1    3    3    0    0 -0.51625526577E+02  0.14824370466E+02 -0.47420160301E+02  0.71649344429E+02  0.00000000000E+00 0. -1.
</event>
<event>
 7    1  0.1758121E-005  0.1210805E+03  0.7561462E-02  0.1241325E+00
          1   -1    0    0  501    0  0.00000000000E+00  0.00000000000E+00  0.31189306234E+03  0.31189306234E+03  0.00000000000E+00 0. -1.
         -1   -1    0    0    0  501 -0.00000000000E+00 -0.00000000000E+00 -0.80977052067E+02  0.80977052067E+02  0.00000000000E+00 0.  1.
         23    2    1    2    0    0  0.70190972768E+02  0.74664220256E+02  0.19380288059E+03  0.23471571387E+03  0.83847429105E+02 0.  0.
          5    1    1    2  502    0 -0.65673101075E+02 -0.44745168786E+02  0.75093567131E+02  0.10941481874E+03  0.41800000000E+01 0. -1.
         -5    1    1    2    0  502 -0.45178716931E+01 -0.29919051470E+02 -0.37980437448E+02  0.48739581802E+02  0.41800000000E+01 0.  1.
        -11    1    3    3    0    0  0.49930071954E+02 -0.46789575189E+01  0.65224946643E+02  0.82275138367E+02  0.00000000000E+00 0. -1.
         11    1    3    3    0    0  0.20260900814E+02  0.79343177775E+02  0.12857793395E+03  0.15244057550E+03  0.00000000000E+00 0.  1.
</event>
<event>
 7    1  0.1758121E-005  0.8957415E+02  0.7561462E-02  0.1303886E+00
          1   -1    0    0  501    0  0.00000000000E+00  0.00000000000E+00  0.19588786654E+03  0.19588786654E+03  0.00000000000E+00 0. -1.
         -1   -1    0    0    0  501 -0.00000000000E+00 -0.00000000000E+00 -0.63912251602E+02  0.63912251602E+02  0.00000000000E+00 0.  1.
         23    2    1    2    0    0  0.21616520607E+01  0.24403316932E+02  0.75962257041E+02  0.12057893727E+03  0.90381530195E+02 0.  0.
          5    1    1    2  502    0 -0.28800347370E+02 -0.67349615590E+02  0.48520103745E+02  0.87960807160E+02  0.41800000000E+01 0.  1.
         -5    1    1    2    0  502  0.26638695309E+02  0.42946298659E+02  0.74932541558E+01  0.51260373722E+02  0.41800000000E+01 0.  1.
        -11    1    3    3    0    0 -0.18397938473E+02  0.28676915115E+02 -0.71853298991E+01  0.34820662922E+02  0.00000000000E+00 0.  1.
         11    1    3    3    0    0  0.20559590534E+02 -0.42735981834E+01  0.83147586940E+02  0.85758274343E+02  0.00000000000E+00 0. -1.
</event>
<event>
 7    1  0.1758121E-005  0.8820363E+02  0.7561462E-02  0.1307261E+00
          1   -1    0    0  501    0  0.00000000000E+00  0.00000000000E+00  0.72237907532E+03  0.72237907532E+03  0.00000000000E+00 0. -1.
         -1   -1    0    0    0  501 -0.00000000000E+00 -0.00000000000E+00 -0.19843519778E+02  0.19843519778E+02  0.00000000000E+00 0.  1.
         23    2    1    2    0    0 -0.72280308781E+01  0.35818112219E+02  0.41821956207E+03  0.42946403614E+03  0.90534936046E+02 0.  0.
          5    1    1    2  502    0 -0.25552674491E+02  0.48844033987E+01  0.24701153069E+03  0.24841289271E+03  0.41800000000E+01 0. -1.
         -5    1    1    2    0  502  0.32780705369E+02 -0.40702515618E+02  0.37304462788E+02  0.64345666256E+02  0.41800000000E+01 0. -1.
        -11    1    3    3    0    0 -0.43284096490E+02 -0.45279393196E+01  0.18733319237E+03  0.19232197016E+03  0.00000000000E+00 0. -1.
         11    1    3    3    0    0  0.36056065612E+02  0.40346051539E+02  0.23088636970E+03  0.23714206598E+03  0.00000000000E+00 0.  1.
</event>
<event>
 6    1  0.1758121E-005  0.9881771E+02  0.7561462E-02  0.1282802E+00
          3   -1    0    0  501    0  0.00000000000E+00  0.00000000000E+00  0.28008840576E+02  0.28008840576E+02  0.00000000000E+00 0. -1.
         -3   -1    0    0    0  501 -0.00000000000E+00 -0.00000000000E+00 -0.47648321240E+03  0.47648321240E+03  0.00000000000E+00 0.  1.
          5    1    1    2  502    0 -0.34809480599E+02 -0.42709814663E+02 -0.93999704541E+02  0.10903781483E+03  0.41800000000E+01 0. -1.
         -5    1    1    2    0  502 -0.10813875205E+02  0.69304923763E+02 -0.28557062376E+03  0.29408870415E+03  0.41800000000E+01 0. -1.
        -11    1    1    2    0    0  0.28389293880E+02  0.11241592650E+02 -0.17293141576E+02  0.35090998245E+02  0.00000000000E+00 0.  1.
         11    1    1    2    0    0  0.17234061923E+02 -0.37836701749E+02 -0.51610901951E+02  0.66274535757E+02  0.00000000000E+00 0. -1.
</event>
<event>
 7    1  0.1758121E-005  0.8081253E+02  0.7561462E-02  0.1326761E+00
          2   -1    0    0  501    0  0.00000000000E+00  0.00000000000E+00  0.38743908356E+03  0.38743908356E+03  0.00000000000E+00 0. -1.
         -2   -1    0    0    0  501 -0.00000000000E+00 -0.00000000000E+00 -0.31227442033E+02  0.31227442033E+02  0.00000000000E+00 0.  1.
         23    2    1    2    0    0  0.17017134617E+02  0.51559447491E+01  0.17892947897E+03  0.20096790510E+03  0.89756190863E+02 0.  0.
          5    1    1    2  502    0 -0.54869001939E+02 -0.29228073755E+01  0.24642900692E+02  0.60364684471E+02  0.41800000000E+01 0. -1.
         -5    1    1    2    0  502  0.37851867322E+02 -0.22331373736E+01  0.15263926186E+03  0.15733393602E+03  0.41800000000E+01 0. -1.
        -11    1    3    3    0    0 -0.16812177157E+02  0.24263989413E+02  0.14907523457E+03  0.15196978662E+03  0.00000000000E+00 0. -1.
         11    1    3    3    0    0  0.33829311774E+02 -0.19108044664E+02  0.29854244406E+02  0.48998118485E+02  0.00000000000E+00 0.  1.
</event>
<event>
 7    1  0.1758121E-005  0.1033931E+03  0.7561462E-02  0.1273318E+00
          1   -1    0    0  501    0  0.00000000000E+00  0.00000000000E+00  0.39315809877E+03  0.39315809877E+03  0.00000000000E+00 0. -1.
         -1   -1    0    0    0  501 -0.00000000000E+00 -0.00000000000E+00 -0.39360067300E+02  0.39360067300E+02  0.00000000000E+00 0.  1.
         23    2    1    2    0    0  0.15661613227E+02  0.41873427056E+02  0.20554018185E+03  0.23345282497E+03  0.10126591285E+03 0.  0.
          5    1    1    2  502    0 -0.45926151730E+02  0.10338279946E+01  0.13786456967E+03  0.14537672504E+03  0.41800000000E+01 0.  1.
         -5    1    1    2    0  502  0.30264538503E+02 -0.42907255050E+02  0.10393279945E+02  0.53688616063E+02  0.41800000000E+01 0.  1.
        -11    1    3    3    0    0 -0.40638487526E+02  0.56261239805E+01  0.10423765461E+03  0.11202066139E+03  0.00000000000E+00 0.  1.
         11    1    3    3    0    0  0.56300100753E+02  0.36247303075E+02  0.10130252725E+03  0.12143216358E+03  0.00000000000E+00 0. -1.
</event>
<event>
 7    1  0.1758121E-005  0.8034003E+02  0.7561462E-02  0.1328089E+00
         -1   -1    0    0    0  501 -0.00000000000E+00  0.00000000000E+00  0.39563110468E+02  0.39563110468E+02  0.00000000000E+00 0.  1.
          1   -1    0    0  501    0  0.00000000000E+00 -0.00000000000E+00 -0.36799840718E+03  0.36799840718E+03  0.00000000000E+00 0. -1.
         23    2    1    2    0    0 -0.15323468976E+02 -0.13797928861E+02 -0.20309550744E+03  0.22928258682E+03  0.10439122535E+03 0.  0.
          5    1    1    2  502    0  0.24467043251E+02  0.46268523273E+02 -0.13338596014E+03  0.14334817479E+03  0.41800000000E+01 0.  1.
         -5    1    1    2    0  502 -0.91435742754E+01 -0.32470594412E+02  0.80461708781E+01  0.34930756044E+02  0.41800000000E+01 0.  1.
        -11    1    3    3    0    0 -0.43680347705E+02 -0.13857022247E+02 -0.32095707828E+02  0.55947513816E+02  0.00000000000E+00 0.  1.
         11    1    3    3    0    0  0.28356878728E+02  0.59093386461E-01 -0.17099979962E+03  0.17333507300E+03  0.00000000000E+00 0. -1.
</event>
<event>
 7    1  0.1893960E-005  0.2517748E+03  0.7561462E-02  0.1112188E+00
          2   -1    0    0  501    0  0.00000000000E+00  0.00000000000E+00  0.47896363767E+03  0.47896363767E+03  0.00000000000E+00 0. -1.
         -2   -1    0    0    0  501 -0.00000000000E+00 -0.00000000000E+00 -0.15769797077E+03  0.15769797077E+03  0.00000000000E+00 0.  1.
         23    2    1    2    0    0 -0.22799114687E+03  0.77954192109E+02  0.24280003437E+03  0.35406553214E+03  0.91398715744E+02 0.  0.
          5    1    1    2  502    0  0.47778788453E+02  0.21697252552E+02  0.53603572599E+02  0.75129213957E+02  0.41800000000E+01 0.  1.
         -5    1    1    2    0  502  0.18021235841E+03 -0.99651444661E+02  0.24862059921E+02  0.20746686235E+03  0.41800000000E+01 0.  1.
        -11    1    3    3    0    0 -0.46077644521E+02  0.35417258688E+02  0.16099341425E+02  0.60305226406E+02  0.00000000000E+00 0.  1.
         11    1    3    3    0    0 -0.18191350235E+03  0.42536933421E+02  0.22670069295E+03  0.29376030573E+03  0.00000000000E+00 0. -1.
</event>
<event>
 7    1  0.1758121E-005  0.9453496E+02  0.7561462E-02  0.1292227E+00
         -2   -1    0    0    0  501 -0.00000000000E+00  0.00000000000E+00  0.25747133693E+02  0.25747133693E+02  0.00000000000E+00 0.  1.
          2   -1    0    0  501    0  0.00000000000E+00 -0.00000000000E+00 -0.50713107594E+03  0.50713107594E+03  0.00000000000E+00 0. -1.
         23    2    1    2    0    0 -0.33342998806E+02  0.78646614609E+01 -0.22164109565E+03  0.23980832776E+03  0.84909659702E+02 0.  0.
          5    1    1    2  502    0  0.34239485634E+02  0.39998207989E+02 -0.23124821334E+03  0.23720330435E+03  0.41800000000E+01 0. -1.
         -5    1    1    2    0  502 -0.89648682831E+00 -0.47862869450E+02 -0.28494633251E+02  0.55866577528E+02  0.41800000000E+01 0.  1.
        -11    1    3    3    0    0 -0.38241639388E+02  0.40206412474E+02 -0.16855481618E+03  0.17745338725E+03  0.00000000000E+00 0. -1.
         11    1    3    3    0    0  0.48986405817E+01 -0.32341751013E+02 -0.53086279471E+02  0.62354940511E+02  0.00000000000E+00 0.  1.
</event>
<event>
 7    1  0.1758121E-005  0.1084273E+03  0.7561462E-02  0.1263510E+00
         -2   -1    0    0    0  501 -0.00000000000E+00  0.00000000000E+00  0.63350697889E+02  0.63350697889E+02  0.00000000000E+00 0.  1.
          2   -1    0    0  501    0  0.00000000000E+00 -0.00000000000E+00 -0.24056499895E+03  0.24056499895E+03  0.00000000000E+00 0. -1.
         23    2    1    2    0    0 -0.36327107786E+02  0.33042381839E+02 -0.11234215703E+03  0.15469628184E+03  0.94333035628E+02 0.  0.
          5    1    1    2  502    0  0.81944627840E+02 -0.12681282345E+02 -0.30558564145E+02  0.88470532927E+02  0.41800000000E+01 0. -1.
         -5    1    1    2    0  502 -0.45617520054E+02 -0.20361099494E+02 -0.34313579882E+02  0.60748882071E+02  0.41800000000E+01 0. -1.
        -11    1    3    3    0    0 -0.24169759280E+02  0.54173485175E+02 -0.11576466028E+03  0.13007843914E+03  0.00000000000E+00 0. -1.
         11    1    3    3    0    0 -0.12157348507E+02 -0.21131103336E+02  0.34225032429E+01  0.24617842703E+02  0.00000000000E+00 0.  1.
</event>
<event>
 7    1  0.1758121E-005  0.1866134E+03  0.7561462E-02  0.1161552E+00
          1   -1    0    0  501    0  0.00000000000E+00  0.00000000000E+00  0.29482382030E+03  0.29482382030E+03  0.00000000000E+00 0.  1.
         -1   -1    0    0    0  501 -0.00000000000E+00 -0.00000000000E+00 -0.18853430160E+03  0.18853430160E+03  0.00000000000E+00 0. -1.
         23    2    1    2    0    0  0.42451391294E+02  0.15445914013E+03  0.18916986613E+03  0.26386526303E+03  0.90442756425E+02 0.  0.
          5    1    1    2  502    0 -0.84665914036E+02 -0.88489037305E+02 -0.34361630339E+02  0.12726673078E+03  0.41800000000E+01 0. -1.
         -5    1    1    2    0  502  0.42214522742E+02 -0.65970102823E+02 -0.48518717084E+02  0.92226128100E+02  0.41800000000E+01 0. -1.
        -11    1    3    3    0    0  0.45162057550E+02  0.48538557284E+02  0.12070552752E+03  0.13771502227E+03  0.00000000000E+00 0.  1.
         11    1    3    3    0    0 -0.27106662556E+01  0.10592058284E+03  0.68464338605E+02  0.12615024075E+03  0.00000000000E+00 0. -1.
</event>
<event>
 7    1  0.1758121E-005  0.7821601E+02  0.7561462E-02  0.1334192E+00
         -1   -1    0    0    0  501 -0.00000000000E+00  0.00000000000E+00  0.73406693058E+03  0.73406693058E+03  0.00000000000E+00 0.  1.
          1   -1    0    0  501    0  0.00000000000E+00 -0.00000000000E+00 -0.19020697940E+02  0.19020697940E+02  0.00000000000E+00 0. -1.
         23    2    1    2    0    0 -0.37497984110E+02 -0.18728412644E+01  0.21755541310E+03  0.23873940700E+03  0.90865506884E+02 0.  0.
          5    1    1    2  502    0  0.33762893651E+02 -0.17835934730E+02  0.49150165091E+03  0.49300040447E+03  0.41800000000E+01 0.  1.
         -5    1    1    2    0  502  0.37350904589E+01  0.19708775995E+02  0.59891686303E+01  0.21347817051E+02  0.41800000000E+01 0.  1.
        -11    1    3    3    0    0 -0.27533986195E+02  0.43276610267E+02  0.99269289722E+02  0.11173798492E+03  0.00000000000E+00 0.  1.
         11    1    3    3    0    0 -0.99639979155E+01 -0.45149451531E+02  0.11828612337E+03  0.12700142208E+03  0.00000000000E+00 0. -1.
</event>
<event>
 7    1  0.1758121E-005  0.1602030E+03  0.7561462E-02  0.1188468E+00
         -1   -1    0    0    0  501 -0.00000000000E+00  0.00000000000E+00  0.52019069434E+02  0.52019069434E+02  0.00000000000E+00 0.  1.
          1   -1    0    0  501    0  0.00000000000E+00 -0.00000000000E+00 -0.70361218416E+03  0.70361218416E+03  0.00000000000E+00 0. -1.
         23    2    1    2    0    0 -0.87053566829E+02  0.60557467058E+02 -0.43575388617E+03  0.45760768702E+03  0.90982501571E+02 0.  0.
          5    1    1    2  502    0  0.82543846333E+02  0.43966066586E+02 -0.14129502902E+03  0.16949412735E+03  0.41800000000E+01 0. -1.
         -5    1    1    2    0  502  0.45097204961E+01 -0.10452353364E+03 -0.74544199533E+02  0.12852943923E+03  0.41800000000E+01 0.  1.
        -11    1    3    3    0    0 -0.15579670717E+01  0.31866253573E+02 -0.37334399442E+02  0.49109497655E+02  0.00000000000E+00 0.  1.
         11    1    3    3    0    0 -0.85495599758E+02  0.28691213485E+02 -0.39841948673E+03  0.40849818936E+03  0.00000000000E+00 0. -1.
</event>
<event>
 7    1  0.1758121E-005  0.8965553E+02  0.7561462E-02  0.1303688E+00
         -3   -1    0    0    0  501 -0.00000000000E+00  0.00000000000E+00  0.31243582325E+03  0.31243582325E+03  0.00000000000E+00 0.  1.
          3   -1    0    0  501    0  0.00000000000E+00 -0.00000000000E+00 -0.49650613249E+02  0.49650613249E+02  0.00000000000E+00 0. -1.
         23    2    1    2    0    0 -0.11211639296E+02  0.10864571466E+02  0.30204820557E+02  0.97538821778E+02  0.91420735066E+02 0.  0.
          5    1    1    2  502    0 -0.16049556583E+02 -0.42974676677E+02  0.24438371836E+02  0.52145158164E+02  0.41800000000E+01 0.  1.
         -5    1    1    2    0  502  0.27261195879E+02  0.32110105211E+02  0.20814201760E+03  0.21240245655E+03  0.41800000000E+01 0.  1.
        -11    1    3    3    0    0 -0.27193877356E+01 -0.39625826322E+02  0.37149422863E+01  0.39892379943E+02  0.00000000000E+00 0.  1.
         11    1    3    3    0    0 -0.84922515608E+01  0.50490397788E+02  0.26489878271E+02  0.57646441834E+02  0.00000000000E+00 0. -1.
</event>
<event>
 7    1  0.1758121E-005  0.1187822E+03  0.7561462E-02  0.1245120E+00
          2   -1    0    0  501    0  0.00000000000E+00  0.00000000000E+00  0.13699605106E+04  0.13699605106E+04  0.00000000000E+00 0. -1.
         -2   -1    0    0    0  501 -0.00000000000E+00 -0.00000000000E+00 -0.12736980390E+02  0.12736980390E+02  0.00000000000E+00 0.  1.
         23    2    1    2    0    0  0.58321147285E+02  0.65279431675E+02  0.64711574630E+03  0.65876759753E+03  0.86909136593E+02 0.  0.
          5    1    1    2  502    0 -0.18333001624E+02 -0.72250331997E+02  0.62610606165E+03  0.63054141993E+03  0.41800000000E+01 0. -1.
         -5    1    1    2    0  502 -0.39988145661E+02  0.69709003219E+01  0.84001722272E+02  0.93388473536E+02  0.41800000000E+01 0.  1.
        -11    1    3    3    0    0  0.74960287466E+01 -0.20815365540E+02  0.85116365517E+02  0.87944673337E+02  0.00000000000E+00 0.  1.
         11    1    3    3    0    0  0.50825118539E+02  0.86094797214E+02  0.56199938078E+03  0.57082292419E+03  0.00000000000E+00 0. -1.
</event>
<event>
 7    1  0.1758121E-005  0.7397693E+02  0.7561462E-02  0.1347069E+00
          1   -1    0    0  501    0  0.00000000000E+00  0.00000000000E+00  0.12343309166E+02  0.12343309166E+02  0.00000000000E+00 0. -1.
         -1   -1    0    0    0  501 -0.00000000000E+00 -0.00000000000E+00 -0.11789139999E+04  0.11789139999E+04  0.00000000000E+00 0.  1.
         23    2    1    2    0    0  0.12472573544E+02 -0.41498021789E+02 -0.35395632029E+03  0.36792889339E+03  0.90603217472E+02 0.  0.
          5    1    1    2  502    0  0.13110854684E+02  0.12412242495E+02 -0.12700490792E+02  0.22466266728E+02  0.41800000000E+01 0.  1.
         -5    1    1    2    0  502 -0.25583428228E+02  0.29085779294E+02 -0.79991387961E+03  0.80086214891E+03  0.41800000000E+01 0.  1.
        -11    1    3    3    0    0 -0.30495912932E+02 -0.35939478895E+02 -0.26287971584E+03  0.26707188517E+03  0.00000000000E+00 0.  1.
         11    1    3    3    0    0  0.42968486476E+02 -0.55585428945E+01 -0.91076604453E+02  0.10085700822E+03  0.00000000000E+00 0. -1.
</event>
<event>
 7    1  0.1758121E-005  0.7075733E+02  0.7561462E-02  0.1357536E+00
          2   -1    0    0  501    0  0.00000000000E+00  0.00000000000E+00  0.24326843946E+03  0.24326843946E+03  0.00000000000E+00 0. -1.
         -2   -1    0    0    0  501 -0.00000000000E+00 -0.00000000000E+00 -0.60631190789E+02  0.60631190789E+02  0.00000000000E+00 0.  1.
         23    2    1    2    0    0  0.29563406847E+02  0.45194284947E+02  0.70644888877E+02  0.12752826999E+03  0.91412476754E+02 0.  0.
          5    1    1    2  502    0 -0.15906631948E+02 -0.12858374698E+02  0.13341408274E+03  0.13503758223E+03  0.41800000000E+01 0.  1.
         -5    1    1    2    0  502 -0.13656774899E+02 -0.32335910249E+02 -0.21421722948E+02  0.41333778031E+02  0.41800000000E+01 0.  1.
        -11    1    3    3    0    0 -0.21097210698E+02  0.85488584098E+01  0.59909321113E+02  0.64088236327E+02  0.00000000000E+00 0. -1.
         11    1    3    3    0    0  0.50660617544E+02  0.36645426537E+02  0.10735567764E+02  0.63440033664E+02  0.00000000000E+00 0.  1.
</event>
<event>
 7    1  0.1758121E-005  0.1051974E+03  0.7561462E-02  0.1269731E+00
          1   -1    0    0  501    0  0.00000000000E+00  0.00000000000E+00  0.84549664995E+02  0.84549664995E+02  0.00000000000E+00 0. -1.
         -1   -1    0    0    0  501 -0.00000000000E+00 -0.00000000000E+00 -0.23404201551E+03  0.23404201551E+03  0.00000000000E+00 0.  1.
         23    2    1    2    0    0 -0.14909333019E+02  0.47287639092E+02  0.16133743917E+02  0.10519613808E+03  0.91364767564E+02 0.  0.
          5    1    1    2  502    0 -0.43748253482E+02 -0.59870516966E+02 -0.96525127016E+02  0.12179064426E+03  0.41800000000E+01 0.  1.
         -5    1    1    2    0  502  0.58657586501E+02  0.12582877874E+02 -0.69100967416E+02  0.91604898163E+02  0.41800000000E+01 0.  1.
        -11    1    3    3    0    0 -0.47451412106E+01 -0.13524469581E+02  0.37339338960E+02  0.39995673223E+02  0.00000000000E+00 0. -1.
         11    1    3    3    0    0 -0.10164191808E+02  0.60812108673E+02 -0.21205595043E+02  0.65200464856E+02  0.00000000000E+00 0.  1.
</event>
<event>
 7    1  0.3873872E-005  0.1643871E+03  0.7561462E-02  0.1183831E+00
          2   -1    0    0  501    0  0.00000000000E+00  0.00000000000E+00  0.67261981560E+03  0.67261981560E+03  0.00000000000E+00 0. -1.
         -2   -1    0    0    0  501 -0.00000000000E+00 -0.00000000000E+00 -0.46887685158E+02  0.46887685158E+02  0.00000000000E+00 0.  1.
         23    2    1    2    0    0 -0.94731454703E+02  0.10252339969E+03  0.27035534058E+03  0.31772989087E+03  0.91515995221E+02 0.  0.
          5    1    1    2  502    0 -0.27462925942E+02 -0.38974575722E+02  0.11748099193E+03  0.12685616154E+03  0.41800000000E+01 0. -1.
         -5    1    1    2    0  502  0.12219438065E+03 -0.63548823967E+02  0.23789579793E+03  0.27492144835E+03  0.41800000000E+01 0. -1.
        -11    1    3    3    0    0 -0.46959723499E+01  0.21456508722E+02  0.13204975792E+03  0.13386400745E+03  0.00000000000E+00 0. -1.
         11    1    3    3    0    0 -0.90035482353E+02  0.81066890967E+02  0.13830558265E+03  0.18386588342E+03  0.00000000000E+00 0.  1.
</event>
<event>
 7    1  0.1758121E-005  0.1157743E+03  0.7561462E-02  0.1250236E+00
          4   -1    0    0  501    0  0.00000000000E+00  0.00000000000E+00  0.50032696342E+03  0.50032696342E+03  0.00000000000E+00 0.  1.
         -4   -1    0    0    0  501 -0.00000000000E+00 -0.00000000000E+00 -0.37007028172E+02  0.37007028172E+02  0.00000000000E+00 0. -1.
         23    2    1    2    0    0 -0.94418594658E+01  0.72240227853E+02  0.28261241489E+03  0.30579448702E+03  0.91283580172E+02 0.  0.
          5    1    1    2  502    0 -0.42035891112E+02 -0.16450392925E+02  0.13596831689E+03  0.14332650546E+03  0.41800000000E+01 0. -1.
         -5    1    1    2    0  502  0.51477750578E+02 -0.55789834928E+02  0.44739203462E+02  0.88212999112E+02  0.41800000000E+01 0. -1.
        -11    1    3    3    0    0 -0.23347992340E+02  0.86900809338E+02  0.26159732627E+03  0.27664063426E+03  0.00000000000E+00 0.  1.
         11    1    3    3    0    0  0.13906132874E+02 -0.14660581485E+02  0.21015088617E+02  0.29153852757E+02  0.00000000000E+00 0. -1.
</event>
<event>
 7    1  0.1758121E-005  0.1255652E+03  0.7561462E-02  0.1234189E+00
          1   -1    0    0  501    0  0.00000000000E+00  0.00000000000E+00  0.63618678972E+03  0.63618678972E+03  0.00000000000E+00 0. -1.
         -1   -1    0    0    0  501 -0.00000000000E+00 -0.00000000000E+00 -0.29065450820E+02  0.29065450820E+02  0.00000000000E+00 0.  1.
         23    2    1    2    0    0  0.76792908883E+02 -0.30707993386E+02  0.29753754799E+03  0.32123979675E+03  0.88466280818E+02 0.  0.
          5    1    1    2  502    0  0.21529350339E+02  0.41337199303E+02  0.14048258411E+03  0.14807128624E+03  0.41800000000E+01 0.  1.
         -5    1    1    2    0  502 -0.98322259222E+02 -0.10629205917E+02  0.16910120680E+03  0.19594115754E+03  0.41800000000E+01 0.  1.
        -11    1    3    3    0    0  0.66221352666E+02  0.66243386319E+01  0.25553276780E+03  0.26405708631E+03  0.00000000000E+00 0. -1.
         11    1    3    3    0    0  0.10571556218E+02 -0.37332332018E+02  0.42004780187E+02  0.57182710441E+02  0.00000000000E+00 0.  1.
</event>
<event>
 7    1  0.1758121E-005  0.1436905E+03  0.7561462E-02  0.1208448E+00
          2   -1    0    0  501    0  0.00000000000E+00  0.00000000000E+00  0.69732825043E+02  0.69732825043E+02  0.00000000000E+00 0. -1.
         -2   -1    0    0    0  501 -0.00000000000E+00 -0.00000000000E+00 -0.35654908362E+03  0.35654908362E+03  0.00000000000E+00 0.  1.
         23    2    1    2    0    0  0.86546817276E+02  0.64250308370E+02 -0.81946322629E+02  0.16318356378E+03  0.91078109278E+02 0.  0.
          5    1    1    2  502    0 -0.78108215367E+02  0.11998659968E+02 -0.14687944721E+03  0.16684095889E+03  0.41800000000E+01 0.  1.
         -5    1    1    2    0  502 -0.84386019096E+01 -0.76248968338E+02 -0.57990488733E+02  0.96257385994E+02  0.41800000000E+01 0.  1.
        -11    1    3    3    0    0  0.19927129971E+02 -0.17108221777E+02 -0.44287439166E+02  0.51489406960E+02  0.00000000000E+00 0.  1.
         11    1    3    3    0    0  0.66619687306E+02  0.81358530146E+02 -0.37658883463E+02  0.11169415682E+03  0.00000000000E+00 0. -1.
</event>
<event>
 7    1  0.1758121E-005  0.2210608E+03  0.7561462E-02  0.1133095E+00
          2   -1    0    0  501    0  0.00000000000E+00  0.00000000000E+00  0.37246205903E+03  0.37246205903E+03  0.00000000000E+00 0. -1.
         -2   -1    0    0    0  501 -0.00000000000E+00 -0.00000000000E+00 -0.16297341481E+03  0.16297341481E+03  0.00000000000E+00 0.  1.
         23    2    1    2    0    0 -0.21935365798E+03  0.64196461923E+00  0.74296849775E+02  0.24900792811E+03  0.91479434767E+02 0.  0.
          5    1    1    2  502    0  0.43619533712E+02 -0.50669339852E+01  0.96898672807E+02  0.10646672125E+03  0.41800000000E+01 0. -1.
         -5    1    1    2    0  502  0.17573412427E+03  0.44249693659E+01  0.38293121643E+02  0.17996082449E+03  0.41800000000E+01 0. -1.
        -11    1    3    3    0    0 -0.65431289455E+02 -0.15977174458E+02 -0.16747426246E+02  0.69404611009E+02  0.00000000000E+00 0.  1.
         11    1    3    3    0    0 -0.15392236852E+03  0.16619139077E+02  0.91044276021E+02  0.17960331710E+03  0.00000000000E+00 0. -1.
</event>
<event>
 7    1  0.1758121E-005  0.9039886E+02  0.7561462E-02  0.1301889E+00
          3   -1    0    0  501    0  0.00000000000E+00  0.00000000000E+00  0.16354853670E+02  0.16354853670E+02  0.00000000000E+00 0. -1.
         -3   -1    0    0    0  501 -0.00000000000E+00 -0.00000000000E+00 -0.89078082900E+03  0.89078082900E+03  0.00000000000E+00 0.  1.
         23    2    1    2    0    0 -0.74061626275E+01  0.28129620777E+01 -0.17992577131E+03  0.20141587743E+03  0.90179313017E+02 0.  0.
          5    1    1    2  502    0 -0.39446117582E+02  0.26462979682E+02 -0.52998141339E+03  0.53212221945E+03  0.41800000000E+01 0.  1.
         -5    1    1    2    0  502  0.46852280210E+02 -0.29275941760E+02 -0.16451879062E+03  0.17359758580E+03  0.41800000000E+01 0.  1.
        -11    1    3    3    0    0  0.25662223918E+02  0.26610027251E+02 -0.35129883406E+02  0.50997568519E+02  0.00000000000E+00 0. -1.
         11    1    3    3    0    0 -0.33068386546E+02 -0.23797065174E+02 -0.14479588791E+03  0.15041830891E+03  0.00000000000E+00 0.  1.
</event>
<event>
 7    1  0.1758121E-005  0.9353505E+02  0.7561462E-02  0.1294510E+00
         -2   -1    0    0    0  501 -0.00000000000E+00  0.00000000000E+00  0.17511681716E+03  0.17511681716E+03  0.00000000000E+00 0.  1.
          2   -1    0    0  501    0  0.00000000000E+00 -0.00000000000E+00 -0.10283515738E+03  0.10283515738E+03  0.00000000000E+00 0. -1.
         23    2    1    2    0    0  0.44796169220E+02 -0.55185263655E+02 -0.49323626915E+01  0.11466684219E+03  0.89844567973E+02 0.  0.
          5    1    1    2  502    0 -0.40502801451E+02  0.55376609280E+02  0.11013437616E+03  0.12982333763E+03  0.41800000000E+01 0.  1.
         -5    1    1    2    0  502 -0.42933677695E+01 -0.19134562543E+00 -0.32920353684E+02  0.33461794731E+02  0.41800000000E+01 0.  1.
        -11    1    3    3    0    0  0.70798749137E+02 -0.47383988337E+02 -0.13377244307E+02  0.86236047540E+02  0.00000000000E+00 0. -1.
         11    1    3    3    0    0 -0.26002579916E+02 -0.78012753177E+01  0.84448816151E+01  0.28430794649E+02  0.00000000000E+00 0.  1.
</event>
<event>
 7    1  0.1758121E-005  0.2230858E+03  0.7561462E-02  0.1131603E+00
         -1   -1    0    0    0  501 -0.00000000000E+00  0.00000000000E+00  0.42555352049E+03  0.42555352049E+03  0.00000000000E+00 0.  1.
          1   -1    0    0  501    0  0.00000000000E+00 -0.00000000000E+00 -0.13798740338E+03  0.13798740338E+03  0.00000000000E+00 0. -1.
         23    2    1    2    0    0 -0.59980278343E+02  0.20008838412E+03  0.71922247191E+02  0.23829809994E+03  0.89331850669E+02 0.  0.
          5    1    1    2  502    0  0.36523473356E+02 -0.28760525146E+02 -0.26173604387E+01  0.46748849059E+02  0.41800000000E+01 0. -1.
         -5    1    1    2    0  502  0.23456804987E+02 -0.17132785897E+03  0.21826123036E+03  0.27849397487E+03  0.41800000000E+01 0. -1.
        -11    1    3    3    0    0 -0.24128302386E+02  0.91568008138E+00  0.13485216570E+02  0.27656183973E+02  0.00000000000E+00 0.  1.
         11    1    3    3    0    0 -0.35851975958E+02  0.19917270404E+03  0.58437030621E+02  0.21064191597E+03  0.00000000000E+00 0. -1.
</event>
<event>
 7    1  0.1758121E-005  0.1440387E+03  0.7561462E-02  0.1207996E+00
          2   -1    0    0  501    0  0.00000000000E+00  0.00000000000E+00  0.22132974186E+03  0.22132974186E+03  0.00000000000E+00 0. -1.
         -2   -1    0    0    0  501 -0.00000000000E+00 -0.00000000000E+00 -0.15152702025E+03  0.15152702025E+03  0.00000000000E+00 0.  1.
         23    2    1    2    0    0 -0.59508889301E+02  0.10133037078E+03  0.12397802565E+03  0.19287947354E+03  0.89570020226E+02 0.  0.
          5    1    1    2  502    0  0.71998079899E+02 -0.12206903029E+03 -0.28836889571E+02  0.14468451979E+03  0.41800000000E+01 0.  1.
         -5    1    1    2    0  502 -0.12489190597E+02  0.20738659514E+02 -0.25338414472E+02  0.35292768780E+02  0.41800000000E+01 0.  1.
        -11    1    3    3    0    0 -0.55684095444E+02  0.66703570325E+02  0.28821811403E+02  0.91546608850E+02  0.00000000000E+00 0. -1.
         11    1    3    3    0    0 -0.38247938578E+01  0.34626800454E+02  0.95156214245E+02  0.10133286469E+03  0.00000000000E+00 0.  1.
</event>
<event>
 7    1  0.1758121E-005  0.1997388E+03  0.7561462E-02  0.1149960E+00
          2   -1    0    0  501    0  0.00000000000E+00  0.00000000000E+00  0.26044656131E+03  0.26044656131E+03  0.00000000000E+00 0. -1.
         -2   -1    0    0    0  501 -0.00000000000E+00 -0.00000000000E+00 -0.28890093732E+03  0.28890093732E+03  0.00000000000E+00 0.  1.
         23    2    1    2    0    0  0.93674807514E+02  0.10799891050E+03  0.14083588961E+03  0.22001674905E+03  0.90188069204E+02 0.  0.
          5    1    1    2  502    0 -0.12478476677E+02 -0.14849998168E+03 -0.14406055287E+02  0.14977637920E+03  0.41800000000E+01 0. -1.
         -5    1    1    2    0  502 -0.81196330837E+02  0.40501071178E+02 -0.15488421034E+03  0.17955437038E+03  0.41800000000E+01 0.  1.
        -11    1    3    3    0    0  0.10534148410E+03  0.92690508359E+02  0.92689547740E+02  0.16816572443E+03  0.00000000000E+00 0. -1.
         11    1    3    3    0    0 -0.11666676583E+02  0.15308402142E+02  0.48146341873E+02  0.51851024623E+02  0.00000000000E+00 0.  1.
</event>
<event>
 7    1  0.1758121E-005  0.1084567E+03  0.7561462E-02  0.1263455E+00
          1   -1    0    0  501    0  0.00000000000E+00  0.00000000000E+00  0.17458062676E+03  0.17458062676E+03  0.00000000000E+00 0. -1.
         -1   -1    0    0    0  501 -0.00000000000E+00 -0.00000000000E+00 -0.77846485659E+02  0.77846485659E+02  0.00000000000E+00 0.  1.
         23    2    1    2    0    0  0.21803229604E+02 -0.33120476630E+02  0.31325321114E+02  0.10579126199E+03  0.92941748303E+02 0.  0.
          5    1    1    2  502    0 -0.67956316305E+02  0.91839258375E+01  0.81518809206E+01  0.69183314333E+02  0.41800000000E+01 0.  1.
         -5    1    1    2    0  502  0.46153086701E+02  0.23936550793E+02  0.57256939062E+02  0.77452536089E+02  0.41800000000E+01 0.  1.
        -11    1    3    3    0    0  0.51184796522E+00  0.29709448048E+02 -0.50401766941E+01  0.30138292466E+02  0.00000000000E+00 0.  1.
         11    1    3    3    0    0  0.21291381639E+02 -0.62829924679E+02  0.36365497808E+02  0.75652969526E+02  0.00000000000E+00 0. -1.
</event>
<event>
 7    1  0.1758121E-005  0.9163395E+02  0.7561462E-02  0.1298942E+00
          2   -1    0    0  501    0  0.00000000000E+00  0.00000000000E+00  0.20072590270E+03  0.20072590270E+03  0.00000000000E+00 0. -1.
         -2   -1    0    0    0  501 -0.00000000000E+00 -0.00000000000E+00 -0.13225676454E+03  0.13225676454E+03  0.00000000000E+00 0.  1.
         23    2    1    2    0    0  0.55328101340E+02  0.30073578127E+02  0.70934682083E+02  0.13049601347E+03  0.89620653369E+02 0.  0.
          5    1    1    2  502    0 -0.28443075754E+02  0.87127468783E+01  0.92014041569E+02  0.96793474792E+02  0.41800000000E+01 0. -1.
         -5    1    1    2    0  502 -0.26885025587E+02 -0.38786325006E+02 -0.94479585487E+02  0.10569317898E+03  0.41800000000E+01 0.  1.
        -11    1    3    3    0    0  0.35733696266E+02  0.60144352226E+02  0.62072593937E+02  0.93526718490E+02  0.00000000000E+00 0.  1.
         11    1    3    3    0    0  0.19594405074E+02 -0.30070774098E+02  0.88620881457E+01  0.36969294981E+02  0.00000000000E+00 0. -1.
</event>
<event>
 7    1  0.1758121E-005  0.8229757E+02  0.7561462E-02  0.1322655E+00
         -4   -1    0    0    0  501 -0.00000000000E+00  0.00000000000E+00  0.22024266753E+02  0.22024266753E+02  0.00000000000E+00 0. -1.
          4   -1    0    0  501    0  0.00000000000E+00 -0.00000000000E+00 -0.52155913045E+03  0.52155913045E+03  0.00000000000E+00 0.  1.
         23    2    1    2    0    0 -0.39138487038E+01 -0.13591502034E+02 -0.23241425465E+03  0.24828948302E+03  0.86204608186E+02 0.  0.
          5    1    1    2  502    0 -0.19764492564E+02  0.43980483133E+02 -0.34421893449E+02  0.59390716543E+02  0.41800000000E+01 0.  1.
         -5    1    1    2    0  502  0.23678341268E+02 -0.30388981099E+02 -0.23269871559E+03  0.23590319764E+03  0.41800000000E+01 0.  1.
        -11    1    3    3    0    0  0.23433963731E+01 -0.45181542305E+02 -0.74792402774E+02  0.87411479706E+02  0.00000000000E+00 0. -1.
         11    1    3    3    0    0 -0.62572450769E+01  0.31590040271E+02 -0.15762185188E+03  0.16087800331E+03  0.00000000000E+00 0.  1.
</event>
<event>
 7    1  0.1758121E-005  0.9387466E+02  0.7561462E-02  0.1293731E+00
          3   -1    0    0  501    0  0.00000000000E+00  0.00000000000E+00  0.74451950718E+02  0.74451950718E+02  0.00000000000E+00 0. -1.
         -3   -1    0    0    0  501 -0.00000000000E+00 -0.00000000000E+00 -0.24060660383E+03  0.24060660383E+03  0.00000000000E+00 0.  1.
         23    2    1    2    0    0  0.78586964670E+02 -0.64579722605E+01 -0.51317297999E+02  0.12783558702E+03  0.86549730284E+02 0.  0.
          5    1    1    2  502    0  0.33400602088E+01 -0.17138280308E+02  0.20477787999E+02  0.27233965107E+02  0.41800000000E+01 0. -1.
         -5    1    1    2    0  502 -0.81927024879E+02  0.23596252569E+02 -0.13531514311E+03  0.15998900242E+03  0.41800000000E+01 0. -1.
        -11    1    3    3    0    0  0.18426468566E+02 -0.14885142069E+02 -0.61805214546E+02  0.66189022831E+02  0.00000000000E+00 0.  1.
         11    1    3    3    0    0  0.60160496104E+02  0.84271698084E+01  0.10487916547E+02  0.61646564186E+02  0.00000000000E+00 0. -1.
</event>
<event>
 7    1  0.1758121E-005  0.9648323E+02  0.7561462E-02  0.1287870E+00
          1   -1    0    0  501    0  0.00000000000E+00  0.00000000000E+00  0.75681426886E+03  0.75681426886E+03  0.00000000000E+00 0. -1.
         -1   -1    0    0    0  501 -0.00000000000E+00 -0.00000000000E+00 -0.22140211081E+02  0.22140211081E+02  0.00000000000E+00 0.  1.
         23    2    1    2    0    0  0.66871457902E+02 -0.14171474101E+02  0.40350715289E+03  0.41841191029E+03  0.87051029159E+02 0.  0.
          5    1    1    2  502    0  0.38959379044E+01  0.12030554970E+02 -0.69808290518E+01  0.15037185883E+02  0.41800000000E+01 0. -1.
         -5    1    1    2    0  502 -0.70767395806E+02  0.21409191313E+01  0.33814773394E+03  0.34550538377E+03  0.41800000000E+01 0. -1.
        -11    1    3    3    0    0 -0.18411098519E+02 -0.14509953916E+02  0.58536113893E+02  0.63055403742E+02  0.00000000000E+00 0.  1.
         11    1    3    3    0    0  0.85282556421E+02  0.33847981537E+00  0.34497103900E+03  0.35535650655E+03  0.00000000000E+00 0. -1.
</event>
<event>
 7    1  0.1758121E-005  0.7985042E+02  0.7561462E-02  0.1329476E+00
          2   -1    0    0  501    0  0.00000000000E+00  0.00000000000E+00  0.29915876146E+03  0.29915876146E+03  0.00000000000E+00 0. -1.
         -2   -1    0    0    0  501 -0.00000000000E+00 -0.00000000000E+00 -0.39167758546E+02  0.39167758546E+02  0.00000000000E+00 0.  1.
         23    2    1    2    0    0  0.59125370728E+01 -0.10751980541E+02  0.14020280235E+03  0.16923322958E+03  0.93981365318E+02 0.  0.
          5    1    1    2  502    0 -0.11674780800E+01 -0.27704922685E+02  0.12647837089E+03  0.12954989946E+03  0.41800000000E+01 0. -1.
         -5    1    1    2    0  502 -0.47450589928E+01  0.38456903226E+02 -0.66901703238E+01  0.39543390971E+02  0.41800000000E+01 0.  1.
        -11    1    3    3    0    0 -0.43055553647E+02 -0.37502662993E+01  0.83233914177E+02  0.93785551480E+02  0.00000000000E+00 0. -1.
         11    1    3    3    0    0  0.48968090720E+02 -0.70017142417E+01  0.56968888172E+02  0.75447678099E+02  0.00000000000E+00 0.  1.
</event>
<event>
 7    1  0.1758121E-005  0.1194827E+03  0.7561462E-02  0.1243953E+00
          2   -1    0    0  501    0  0.00000000000E+00  0.00000000000E+00  0.18949311531E+03  0.18949311531E+03  0.00000000000E+00 0. -1.
         -2   -1    0    0    0  501 -0.00000000000E+00 -0.00000000000E+00 -0.98574764526E+02  0.98574764526E+02  0.00000000000E+00 0.  1.
         23    2    1    2    0    0 -0.18189387926E+01 -0.84596599456E+02  0.56281784014E+02  0.13312227107E+03  0.85988410066E+02 0.  0.
          5    1    1    2  502    0 -0.53142983532E+02  0.75581933469E+02  0.73423658823E+01  0.92780321741E+02  0.41800000000E+01 0. -1.
         -5    1    1    2    0  502  0.54961922325E+02  0.90146659870E+01  0.27294200886E+02  0.62165287021E+02  0.41800000000E+01 0. -1.
        -11    1    3    3    0    0  0.15217584324E+02 -0.34440698350E+02 -0.18123634816E+02  0.41787590436E+02  0.00000000000E+00 0.  1.
         11    1    3    3    0    0 -0.17036523116E+02 -0.50155901105E+02  0.74405418830E+02  0.91334680636E+02  0.00000000000E+00 0. -1.
</event>
<event>
 7    1  0.1804018E-005  0.1966515E+03  0.7561462E-02  0.1152595E+00
          1   -1    0    0  501    0  0.00000000000E+00  0.00000000000E+00  0.10285558545E+04  0.10285558545E+04  0.00000000000E+00 0. -1.
         -1   -1    0    0    0  501 -0.00000000000E+00 -0.00000000000E+00 -0.45878062446E+02  0.45878062446E+02  0.00000000000E+00 0.  1.
         23    2    1    2    0    0  0.63501202750E+02  0.17693201410E+03  0.50829419464E+03  0.54905345141E+03  0.88087251273E+02 0.  0.
          5    1    1    2  502    0  0.12693826222E+02 -0.11449856654E+02  0.43244129907E+00  0.17603745256E+02  0.41800000000E+01 0.  1.
         -5    1    1    2    0  502 -0.76195028972E+02 -0.16548215745E+03  0.47395115610E+03  0.50777672027E+03  0.41800000000E+01 0.  1.
        -11    1    3    3    0    0  0.70067998075E+02  0.14718609017E+03  0.32878562225E+03  0.36697854828E+03  0.00000000000E+00 0.  1.
         11    1    3    3    0    0 -0.65667953252E+01  0.29745923930E+02  0.17950857238E+03  0.18207490313E+03  0.00000000000E+00 0. -1.
</event>
<event>
 7    1  0.1758121E-005  0.6942666E+02  0.7561462E-02  0.1362054E+00
          2   -1    0    0  501    0  0.00000000000E+00  0.00000000000E+00  0.43709838062E+03  0.43709838062E+03  0.00000000000E+00 0. -1.
         -2   -1    0    0    0  501 -0.00000000000E+00 -0.00000000000E+00 -0.37499845710E+02  0.37499845710E+02  0.00000000000E+00 0.  1.
         23    2    1    2    0    0 -0.55146302040E+01 -0.56592452393E+02  0.23030971807E+03  0.25656334552E+03  0.97719328761E+02 0.  0.
          5    1    1    2  502    0 -0.73075304550E+01  0.22137094709E+02  0.17837046829E+03  0.17993595339E+03  0.41800000000E+01 0. -1.
         -5    1    1    2    0  502  0.12822160659E+02  0.34455357684E+02 -0.90816514555E+01  0.38098927417E+02  0.41800000000E+01 0. -1.
        -11    1    3    3    0    0  0.23572520347E+02 -0.33835715724E+02  0.21079958591E+03  0.21479521595E+03  0.00000000000E+00 0. -1.
         11    1    3    3    0    0 -0.29087150551E+02 -0.22756736669E+02  0.19510132156E+02  0.41768129570E+02  0.00000000000E+00 0.  1.
</event>
<event>
 7    1  0.1758121E-005  0.1096485E+03  0.7561462E-02  0.1261222E+00
          2   -1    0    0  501    0  0.00000000000E+00  0.00000000000E+00  0.33297777914E+03  0.33297777914E+03  0.00000000000E+00 0. -1.
         -2   -1    0    0    0  501 -0.00000000000E+00 -0.00000000000E+00 -0.46100918233E+02  0.46100918233E+02  0.00000000000E+00 0.  1.
         23    2    1    2    0    0 -0.45670968579E+02 -0.14508759585E+02  0.18153251666E+03  0.20866310601E+03  0.91048864511E+02 0.  0.
          5    1    1    2  502    0 -0.17288233076E+02 -0.32971004555E+02  0.78552125606E+02  0.87028035606E+02  0.41800000000E+01 0.  1.
         -5    1    1    2    0  502  0.62959201654E+02  0.47479764141E+02  0.26792218643E+02  0.83387555760E+02  0.41800000000E+01 0.  1.
        -11    1    3    3    0    0 -0.40460365564E+02  0.34749875929E+02  0.92000709916E+02  0.10634249237E+03  0.00000000000E+00 0.  1.
         11    1    3    3    0    0 -0.52106030149E+01 -0.49258635514E+02  0.89531806741E+02  0.10232061364E+03  0.00000000000E+00 0. -1.
</event>
<event>
 7    1  0.1758121E-005  0.1194389E+03  0.7561462E-02  0.1244026E+00
         -1   -1    0    0    0  501 -0.00000000000E+00  0.00000000000E+00  0.15722812350E+03  0.15722812350E+03  0.00000000000E+00 0.  1.
          1   -1    0    0  501    0  0.00000000000E+00 -0.00000000000E+00 -0.91451259408E+02  0.91451259408E+02  0.00000000000E+00 0. -1.
         23    2    1    2    0    0  0.51067033037E+02 -0.24802197704E+02  0.26602369785E+02  0.10583390932E+03  0.85265112499E+02 0.  0.
          5    1    1    2  502    0  0.26727518661E+02  0.48839225474E+02  0.16639172464E+02  0.58257743339E+02  0.41800000000E+01 0. -1.
         -5    1    1    2    0  502 -0.77794551699E+02 -0.24037027770E+02  0.22535321842E+02  0.84587730248E+02  0.41800000000E+01 0. -1.
        -11    1    3    3    0    0 -0.19330448459E+02 -0.24384962875E+02  0.14781114686E+02  0.34449586404E+02  0.00000000000E+00 0.  1.
         11    1    3    3    0    0  0.70397481497E+02 -0.41723482920E+00  0.11821255099E+02  0.71384322915E+02  0.00000000000E+00 0. -1.
</event>
<event>
 7    1  0.1758121E-005  0.1509389E+03  0.7561462E-02  0.1199324E+00
          2   -1    0    0  501    0  0.00000000000E+00  0.00000000000E+00  0.93388340691E+02  0.93388340691E+02  0.00000000000E+00 0. -1.
         -2   -1    0    0    0  501 -0.00000000000E+00 -0.00000000000E+00 -0.25880970874E+03  0.25880970874E+03  0.00000000000E+00 0.  1.
         23    2    1    2    0    0 -0.10323074061E+03 -0.40583906161E+02 -0.81810867277E+02  0.16526921260E+03  0.91198987845E+02 0.  0.
          5    1    1    2  502    0  0.69523212103E+02  0.85358247893E+02 -0.63983556138E+02  0.12740045275E+03  0.41800000000E+01 0. -1.
         -5    1    1    2    0  502  0.33707528508E+02 -0.44774341731E+02 -0.19626944638E+02  0.59528384082E+02  0.41800000000E+01 0. -1.
        -11    1    3    3    0    0 -0.11424298458E+03 -0.25876553418E+02 -0.87303785375E+02  0.14609245868E+03  0.00000000000E+00 0.  1.
         11    1    3    3    0    0  0.11012243967E+02 -0.14707352744E+02  0.54929180978E+01  0.19176753926E+02  0.00000000000E+00 0. -1.
</event>
<event>
 7    1  0.1758121E-005  0.9572871E+02  0.7561462E-02  0.1289543E+00
          2   -1    0    0  501    0  0.00000000000E+00  0.00000000000E+00  0.52480430200E+03  0.52480430200E+03  0.00000000000E+00 0. -1.
         -2   -1    0    0    0  501 -0.00000000000E+00 -0.00000000000E+00 -0.26401718586E+02  0.26401718586E+02  0.00000000000E+00 0.  1.
         23    2    1    2    0    0  0.20795330256E+02  0.38217059281E+02  0.23507225463E+03  0.25644653838E+03  0.92805564323E+02 0.  0.
          5    1    1    2  502    0 -0.74825913394E+01  0.25187793080E+02  0.20730588858E+03  0.20900626290E+03  0.41800000000E+01 0. -1.
         -5    1    1    2    0  502 -0.13312738916E+02 -0.63404852361E+02  0.56024440202E+02  0.85753219301E+02  0.41800000000E+01 0. -1.
        -11    1    3    3    0    0  0.44001051652E+02  0.55621905468E+02  0.19042823432E+03  0.20320630241E+03  0.00000000000E+00 0. -1.
         11    1    3    3    0    0 -0.23205721396E+02 -0.17404846186E+02  0.44644020316E+02  0.53240235971E+02  0.00000000000E+00 0.  1.
</event>
<event>
 7    1  0.1758121E-005  0.8744758E+02  0.7561462E-02  0.1309153E+00
          2   -1    0    0  501    0  0.00000000000E+00  0.00000000000E+00  0.64399778887E+03  0.64399778887E+03  0.00000000000E+00 0. -1.
         -2   -1    0    0    0  501 -0.00000000000E+00 -0.00000000000E+00 -0.21157222768E+02  0.21157222768E+02  0.00000000000E+00 0.  1.
         23    2    1    2    0    0  0.38886372274E+01 -0.54077714199E+02  0.28197918515E+03  0.29959812459E+03  0.85482481975E+02 0.  0.
          5    1    1    2  502    0  0.18199737946E+01 -0.12607154701E+02  0.26070136388E+03  0.26104583157E+03  0.41800000000E+01 0. -1.
         -5    1    1    2    0  502 -0.57086110221E+01  0.66684868900E+02  0.80160017075E+02  0.10451105548E+03  0.41800000000E+01 0.  1.
        -11    1    3    3    0    0 -0.27827649224E+02 -0.56127665456E+02  0.12969784643E+03  0.14403549653E+03  0.00000000000E+00 0.  1.
         11    1    3    3    0    0  0.31716286451E+02  0.20499512570E+01  0.15228133872E+03  0.15556262806E+03  0.00000000000E+00 0. -1.
</event>
<event>
 7    1  0.1758121E-005  0.1095642E+03  0.7561462E-02  0.1261379E+00
         -2   -1    0    0    0  501 -0.00000000000E+00  0.00000000000E+00  0.15255264710E+03  0.15255264710E+03  0.00000000000E+00 0.  1.
          2   -1    0    0  501    0  0.00000000000E+00 -0.00000000000E+00 -0.11927965465E+03  0.11927965465E+03  0.00000000000E+00 0. -1.
         23    2    1    2    0    0 -0.66110331684E+02 -0.13949102543E+02 -0.27415299579E+02  0.11724900179E+03  0.91818170054E+02 0.  0.
          5    1    1    2  502    0  0.59915099063E+01  0.43187819928E+02 -0.21305189239E+02  0.48708002110E+02  0.41800000000E+01 0. -1.
         -5    1    1    2    0  502  0.60118821778E+02 -0.29238717385E+02  0.81993481259E+02  0.10587529785E+03  0.41800000000E+01 0. -1.
        -11    1    3    3    0    0 -0.61594780287E+02  0.26924454029E+02  0.10591486600E+01  0.67230684805E+02  0.00000000000E+00 0.  1.
         11    1    3    3    0    0 -0.45155513972E+01 -0.40873556572E+02 -0.28474448239E+02  0.50018316983E+02  0.00000000000E+00 0. -1.
</event>
<event>
 7    1  0.1758121E-005  0.1027429E+03  0.7561462E-02  0.1274631E+00
         -3   -1    0    0    0  501 -0.00000000000E+00  0.00000000000E+00  0.17826116014E+04  0.17826116014E+04  0.00000000000E+00 0.  1.
          3   -1    0    0  501    0  0.00000000000E+00 -0.00000000000E+00 -0.14872008118E+02  0.14872008118E+02  0.00000000000E+00 0. -1.
         23    2    1    2    0    0 -0.65528597432E+02 -0.23586760654E+02  0.27705837028E+03  0.29994279515E+03  0.91400259626E+02 0.  0.
          5    1    1    2  502    0  0.41398045154E+02  0.59189245363E+02  0.43501722043E+03  0.44099276568E+03  0.41800000000E+01 0.  1.
         -5    1    1    2    0  502  0.24130552278E+02 -0.35602484709E+02  0.10556640026E+04  0.10565480487E+04  0.41800000000E+01 0.  1.
        -11    1    3    3    0    0 -0.54208229711E+02  0.94272960853E+01  0.24943912334E+03  0.25543547587E+03  0.00000000000E+00 0.  1.
         11    1    3    3    0    0 -0.11320367721E+02 -0.33014056740E+02  0.27619246935E+02  0.44507319275E+02  0.00000000000E+00 0. -1.
</event>
<event>
 7    1  0.1758121E-005  0.1390335E+03  0.7561462E-02  0.1214635E+00
         -2   -1    0    0    0  501 -0.00000000000E+00  0.00000000000E+00  0.52971604744E+02  0.52971604744E+02  0.00000000000E+00 0.  1.
          2   -1    0    0  501    0  0.00000000000E+00 -0.00000000000E+00 -0.39630365552E+03  0.39630365552E+03  0.00000000000E+00 0. -1.
         23    2    1    2    0    0  0.72962971745E+02 -0.46323329469E+02 -0.21830726810E+03  0.25242820682E+03  0.92695685935E+02 0.  0.
          5    1    1    2  502    0 -0.73113300628E+02 -0.27218015100E+02 -0.70066904813E+02  0.10494388322E+03  0.41800000000E+01 0. -1.
         -5    1    1    2    0  502  0.15032888261E+00  0.73541344570E+02 -0.54957877865E+02  0.91903170235E+02  0.41800000000E+01 0. -1.
        -11    1    3    3    0    0  0.94515966182E+02 -0.29737507417E+02 -0.17965515651E+03  0.20516715739E+03  0.00000000000E+00 0. -1.
         11    1    3    3    0    0 -0.21552994437E+02 -0.16585822052E+02 -0.38652111596E+02  0.47261049429E+02  0.00000000000E+00 0.  1.
</event>
<event>
 7    1  0.1758121E-005  0.1227806E+03  0.7561462E-02  0.1238579E+00
          1   -1    0    0  501    0  0.00000000000E+00  0.00000000000E+00  0.70066702863E+03  0.70066702863E+03  0.00000000000E+00 0. -1.
         -1   -1    0    0    0  501 -0.00000000000E+00 -0.00000000000E+00 -0.28132891789E+02  0.28132891789E+02  0.00000000000E+00 0.  1.
         23    2    1    2    0    0  0.64052402725E+02  0.43343583233E+02  0.41381207740E+03  0.43119828912E+03  0.93328198484E+02 0.  0.
          5    1    1    2  502    0 -0.86955352581E+02 -0.15079622014E+02  0.24146425024E+03  0.25712075935E+03  0.41800000000E+01 0. -1.
         -5    1    1    2    0  502  0.22902949855E+02 -0.28263961219E+02  0.17257809198E+02  0.40480871954E+02  0.41800000000E+01 0. -1.
        -11    1    3    3    0    0  0.73963549391E+02 -0.21853835119E+01  0.27461417211E+03  0.28440873064E+03  0.00000000000E+00 0.  1.
         11    1    3    3    0    0 -0.99111466652E+01  0.45528966745E+02  0.13919790529E+03  0.14678955848E+03  0.00000000000E+00 0. -1.
</event>
<event>
 7    1  0.1758121E-005  0.9224042E+02  0.7561462E-02  0.1297515E+00
          2   -1    0    0  501    0  0.00000000000E+00  0.00000000000E+00  0.17643564005E+03  0.17643564005E+03  0.00000000000E+00 0. -1.
         -2   -1    0    0    0  501 -0.00000000000E+00 -0.00000000000E+00 -0.11714490171E+03  0.11714490171E+03  0.00000000000E+00 0.  1.
         23    2    1    2    0    0  0.28884142505E+01 -0.39333027408E+02  0.11409091952E+03  0.15143298817E+03  0.91431843506E+02 0.  0.
          5    1    1    2  502    0  0.46955517691E+02 -0.84674122873E+01 -0.55038758975E+02  0.72960640773E+02  0.41800000000E+01 0.  1.
         -5    1    1    2    0  502 -0.49843931942E+02  0.47800439695E+02  0.23857779417E+00  0.69186912822E+02  0.41800000000E+01 0.  1.
        -11    1    3    3    0    0  0.76835987384E+01 -0.52669176216E+02  0.12345932415E+03  0.13444435478E+03  0.00000000000E+00 0. -1.
         11    1    3    3    0    0 -0.47951844878E+01  0.13336148808E+02 -0.93684046253E+01  0.16988633392E+02  0.00000000000E+00 0.  1.
</event>
<event>
 7    1  0.1758121E-005  0.1163547E+03  0.7561462E-02  0.1249235E+00
         -2   -1    0    0    0  501 -0.00000000000E+00  0.00000000000E+00  0.59401790359E+02  0.59401790359E+02  0.00000000000E+00 0.  1.
          2   -1    0    0  501    0  0.00000000000E+00 -0.00000000000E+00 -0.34494607822E+03  0.34494607822E+03  0.00000000000E+00 0. -1.
         23    2    1    2    0    0  0.55922946744E+02  0.74443633108E+02 -0.13045256260E+03  0.18441585406E+03  0.91225575672E+02 0.  0.
          5    1    1    2  502    0 -0.30617497746E+02  0.21839497071E+02 -0.28043929592E+01  0.37943798182E+02  0.41800000000E+01 0. -1.
         -5    1    1    2    0  502 -0.25305448998E+02 -0.96283130180E+02 -0.15228733231E+03  0.18198821634E+03  0.41800000000E+01 0. -1.
        -11    1    3    3    0    0  0.50524018987E+02  0.53441334841E+02 -0.26416790923E+02  0.78144095150E+02  0.00000000000E+00 0.  1.
         11    1    3    3    0    0  0.53989277574E+01  0.21002298267E+02 -0.10403577167E+03  0.10627175891E+03  0.00000000000E+00 0. -1.
</event>
<event>
 7    1  0.1758121E-005  0.1110089E+03  0.7561462E-02  0.1258713E+00
         -1   -1    0    0    0  501 -0.00000000000E+00  0.00000000000E+00  0.13770349273E+03  0.13770349273E+03  0.00000000000E+00 0.  1.
          1   -1    0    0  501    0  0.00000000000E+00 -0.00000000000E+00 -0.14671247283E+03  0.14671247283E+03  0.00000000000E+00 0. -1.
         23    2    1    2    0    0  0.82239654421E+01 -0.66927444012E+02 -0.65360952168E+02  0.13154346474E+03  0.92112500125E+02 0.  0.
          5    1    1    2  502    0  0.34655456029E+02  0.79617382385E+02  0.63148723783E+02  0.10744841519E+03  0.41800000000E+01 0. -1.
         -5    1    1    2    0  502 -0.42879421471E+02 -0.12689938373E+02 -0.67967517160E+01  0.45424085632E+02  0.41800000000E+01 0. -1.
        -11    1    3    3    0    0  0.11182772018E+02  0.88966494495E+01  0.15206689135E+02  0.20867394564E+02  0.00000000000E+00 0.  1.
         11    1    3    3    0    0 -0.29588065760E+01 -0.75824093461E+02 -0.80567641303E+02  0.11067607018E+03  0.00000000000E+00 0. -1.
</event>
<event>
 7    1  0.1758121E-005  0.1069035E+03  0.7561462E-02  0.1266414E+00
          4   -1    0    0  501    0  0.00000000000E+00  0.00000000000E+00  0.46623347761E+02  0.46623347761E+02  0.00000000000E+00 0. -1.
         -4   -1    0    0    0  501 -0.00000000000E+00 -0.00000000000E+00 -0.35952865098E+03  0.35952865098E+03  0.00000000000E+00 0.  1.
         23    2    1    2    0    0 -0.62025313876E+02  0.81582161636E+01 -0.87254603555E+02  0.14067281338E+03  0.90894326175E+02 0.  0.
          5    1    1    2  502    0 -0.75489134726E+01  0.48976220495E+02 -0.81382369383E+02  0.95374098763E+02  0.41800000000E+01 0.  1.
         -5    1    1    2    0  502  0.69574227348E+02 -0.57134436658E+02 -0.14426833028E+03  0.17010508660E+03  0.41800000000E+01 0.  1.
        -11    1    3    3    0    0 -0.10391558921E+02  0.18569341912E+02 -0.85353024183E+02  0.87965582434E+02  0.00000000000E+00 0.  1.
         11    1    3    3    0    0 -0.51633754954E+02 -0.10411125748E+02 -0.19015793721E+01  0.52707230947E+02  0.00000000000E+00 0. -1.
</event>
<event>
 7    1  0.1758121E-005  0.1187578E+03  0.7561462E-02  0.1245160E+00
          1   -1    0    0  501    0  0.00000000000E+00  0.00000000000E+00  0.22996161137E+03  0.22996161137E+03  0.00000000000E+00 0. -1.
         -1   -1    0    0    0  501 -0.00000000000E+00 -0.00000000000E+00 -0.13204080960E+03  0.13204080960E+03  0.00000000000E+00 0.  1.
         23    2    1    2    0    0  0.55354017376E+02 -0.66181954738E+02  0.15605787021E+03  0.19930157478E+03  0.89010900916E+02 0.  0.
          5    1    1    2  502    0  0.67099866322E+01 -0.32986183999E+02 -0.55604173414E+01  0.34372996617E+02  0.41800000000E+01 0. -1.
         -5    1    1    2    0  502 -0.62064004008E+02  0.99168138736E+02 -0.52576651099E+02  0.12832784957E+03  0.41800000000E+01 0. -1.
        -11    1    3    3    0    0  0.16424956430E+02 -0.24523095017E+02  0.13552244792E+03  0.13869929802E+03  0.00000000000E+00 0. -1.
         11    1    3    3    0    0  0.38929060945E+02 -0.41658859720E+02  0.20535422298E+02  0.60602276758E+02  0.00000000000E+00 0.  1.
</event>
<event>
 7    1  0.1758121E-005  0.1234058E+03  0.7561462E-02  0.1237582E+00
          2   -1    0    0  501    0  0.00000000000E+00  0.00000000000E+00  0.59655063922E+02  0.59655063922E+02  0.00000000000E+00 0. -1.
         -2   -1    0    0    0  501 -0.00000000000E+00 -0.00000000000E+00 -0.29998428695E+03  0.29998428695E+03  0.00000000000E+00 0.  1.
         23    2    1    2    0    0 -0.75778889921E+02 -0.15173611897E+02 -0.11645228516E+03  0.16737487538E+03  0.92089823185E+02 0.  0.
          5    1    1    2  502    0  0.63522380362E+02  0.66521671529E+02 -0.93452894914E+02  0.13119124040E+03  0.41800000000E+01 0.  1.
         -5    1    1    2    0  502  0.12256509559E+02 -0.51348059632E+02 -0.30424042950E+02  0.61073235087E+02  0.41800000000E+01 0.  1.
        -11    1    3    3    0    0 -0.27069280262E+01  0.20352086603E+02 -0.71770013632E+02  0.74648976853E+02  0.00000000000E+00 0.  1.
         11    1    3    3    0    0 -0.73071961895E+02 -0.35525698500E+02 -0.44682271529E+02  0.92725898529E+02  0.00000000000E+00 0. -1.
</event>
<event>
 7    1  0.1758121E-005  0.1150387E+03  0.7561462E-02  0.1251513E+00
          1   -1    0    0  501    0  0.00000000000E+00  0.00000000000E+00  0.19548750545E+03  0.19548750545E+03  0.00000000000E+00 0. -1.
         -1   -1    0    0    0  501 -0.00000000000E+00 -0.00000000000E+00 -0.14284962979E+03  0.14284962979E+03  0.00000000000E+00 0.  1.
         23    2    1    2    0    0 -0.79693514229E+02 -0.56144196267E+02  0.10728838416E+03  0.17059535567E+03  0.89937483938E+02 0.  0.
          5    1    1    2  502    0  0.26790852286E+02  0.75147838618E+01  0.39954357592E+02  0.48867625615E+02  0.41800000000E+01 0. -1.
         -5    1    1    2    0  502  0.52902661943E+02  0.48629412405E+02 -0.94604866090E+02  0.11887415396E+03  0.41800000000E+01 0. -1.
        -11    1    3    3    0    0 -0.76969920990E+02 -0.32932909654E+01  0.46447353810E+02  0.89958719302E+02  0.00000000000E+00 0.  1.
         11    1    3    3    0    0 -0.27235932394E+01 -0.52850905302E+02  0.60841030347E+02  0.80636636370E+02  0.00000000000E+00 0. -1.
</event>
<event>
 7    1  0.1758121E-005  0.1151018E+03  0.7561462E-02  0.1251403E+00
          4   -1    0    0  501    0  0.00000000000E+00  0.00000000000E+00  0.16299587277E+03  0.16299587277E+03  0.00000000000E+00 0. -1.
         -4   -1    0    0    0  501 -0.00000000000E+00 -0.00000000000E+00 -0.88780353461E+02  0.88780353461E+02  0.00000000000E+00 0.  1.
         23    2    1    2    0    0 -0.32368433070E+02 -0.25935951157E+02  0.64559934375E+02  0.11963671806E+03  0.91785457240E+02 0.  0.
          5    1    1    2  502    0  0.29499161142E+02 -0.47672704480E+02  0.14937114018E+02  0.58167663144E+02  0.41800000000E+01 0.  1.
         -5    1    1    2    0  502  0.28692719284E+01  0.73608655637E+02 -0.52815290870E+01  0.73971845019E+02  0.41800000000E+01 0.  1.
        -11    1    3    3    0    0  0.30755299360E+02 -0.20252045908E+02  0.29661893797E+02  0.47284899766E+02  0.00000000000E+00 0.  1.
         11    1    3    3    0    0 -0.63123732431E+02 -0.56839052492E+01  0.34898040577E+02  0.72351818298E+02  0.00000000000E+00 0. -1.
</event>
<event>
 7    1  0.1758121E-005  0.1126972E+03  0.7561462E-02  0.1255655E+00
          3   -1    0    0  501    0  0.00000000000E+00  0.00000000000E+00  0.58992810475E+02  0.58992810475E+02  0.00000000000E+00 0. -1.
         -3   -1    0    0    0  501 -0.00000000000E+00 -0.00000000000E+00 -0.23449216425E+03  0.23449216425E+03  0.00000000000E+00 0.  1.
         23    2    1    2    0    0 -0.27629068786E+02 -0.36533640605E+02 -0.86763733224E+02  0.13342421243E+03  0.90421251498E+02 0.  0.
          5    1    1    2  502    0 -0.35613586556E+02 -0.25857141570E+02 -0.31867200011E+02  0.54496882059E+02  0.41800000000E+01 0. -1.
         -5    1    1    2    0  502  0.63242655343E+02  0.62390782175E+02 -0.56868420537E+02  0.10556388023E+03  0.41800000000E+01 0. -1.
        -11    1    3    3    0    0 -0.39840731030E+01  0.25527467611E+02 -0.22443669454E+01  0.25933793092E+02  0.00000000000E+00 0. -1.
         11    1    3    3    0    0 -0.23644995683E+02 -0.62061108216E+02 -0.84519366279E+02  0.10749041934E+03  0.00000000000E+00 0.  1.
</event>
<event>
 7    1  0.1758121E-005  0.1000393E+03  0.7561462E-02  0.1280213E+00
          1   -1    0    0  501    0  0.00000000000E+00  0.00000000000E+00  0.29067862998E+02  0.29067862998E+02  0.00000000000E+00 0. -1.
         -1   -1    0    0    0  501 -0.00000000000E+00 -0.00000000000E+00 -0.49686405301E+03  0.49686405301E+03  0.00000000000E+00 0.  1.
         23    2    1    2    0    0  0.50206786630E+02  0.57256616042E+01 -0.17607810055E+03  0.20451502672E+03  0.90936208611E+02 0.  0.
          5    1    1    2  502    0 -0.75497670934E+02  0.12301124940E+02 -0.94151653745E+02  0.12138048564E+03  0.41800000000E+01 0. -1.
         -5    1    1    2    0  502  0.25290884304E+02 -0.18026786545E+02 -0.19756643572E+03  0.20003640365E+03  0.41800000000E+01 0. -1.
        -11    1    3    3    0    0  0.34233135699E+02  0.40998826064E+02 -0.14606360401E+03  0.15552294922E+03  0.00000000000E+00 0.  1.
         11    1    3    3    0    0  0.15973650931E+02 -0.35273164460E+02 -0.30014496541E+02  0.48992077499E+02  0.00000000000E+00 0. -1.
</event>
<event>
 7    1  0.1758121E-005  0.1268458E+03  0.7561462E-02  0.1232213E+00
          1   -1    0    0  501    0  0.00000000000E+00  0.00000000000E+00  0.87109724206E+02  0.87109724206E+02  0.00000000000E+00 0. -1.
         -1   -1    0    0    0  501 -0.00000000000E+00 -0.00000000000E+00 -0.25370554423E+03  0.25370554423E+03  0.00000000000E+00 0.  1.
         23    2    1    2    0    0  0.62560982649E+02  0.79166196010E+02 -0.85951519150E+02  0.16100592456E+03  0.91400661690E+02 0.  0.
          5    1    1    2  502    0 -0.88299892601E+02 -0.81118526507E+02 -0.31344918254E+02  0.12400428491E+03  0.41800000000E+01 0. -1.
         -5    1    1    2    0  502  0.25738909951E+02  0.19523304964E+01 -0.49299382621E+02  0.55805058970E+02  0.41800000000E+01 0. -1.
        -11    1    3    3    0    0  0.23220541225E+02  0.58898861374E+02  0.11340670011E+01  0.63321051112E+02  0.00000000000E+00 0. -1.
         11    1    3    3    0    0  0.39340441425E+02  0.20267334637E+02 -0.87085586151E+02  0.97684873445E+02  0.00000000000E+00 0.  1.
</event>
<event>
 7    1  0.1758121E-005  0.2783857E+03  0.7561462E-02  0.1096574E+00
         -2   -1    0    0    0  501 -0.00000000000E+00  0.00000000000E+00  0.56280308082E+02  0.56280308082E+02  0.00000000000E+00 0. -1.
          2   -1    0    0  501    0  0.00000000000E+00 -0.00000000000E+00 -0.18433336151E+04  0.18433336151E+04  0.00000000000E+00 0.  1.
         23    2    1    2    0    0 -0.24910480478E+03  0.71887134626E+02 -0.13412748401E+04  0.13689662834E+04  0.88484600036E+02 0.  0.
          5    1    1    2  502    0  0.97169350402E+02 -0.90200922862E+02 -0.23929939601E+03  0.27360512143E+03  0.41800000000E+01 0. -1.
         -5    1    1    2    0  502  0.15193545438E+03  0.18313788236E+02 -0.20647907097E+03  0.25704251844E+03  0.41800000000E+01 0. -1.
        -11    1    3    3    0    0 -0.18371444136E+03  0.87972241968E+02 -0.10873514160E+04  0.11062654352E+04  0.00000000000E+00 0.  1.
         11    1    3    3    0    0 -0.65390363417E+02 -0.16085107342E+02 -0.25392342409E+03  0.26270084813E+03  0.00000000000E+00 0. -1.
</event>
<event>
 7    1  0.2079369E-005  0.3339119E+03  0.7561462E-02  0.1069419E+00
          2   -1    0    0  501    0  0.00000000000E+00  0.00000000000E+00  0.51477242309E+03  0.51477242309E+03  0.00000000000E+00 0. -1.
         -2   -1    0    0    0  501 -0.00000000000E+00 -0.00000000000E+00 -0.24123937944E+03  0.24123937944E+03  0.00000000000E+00 0.  1.
         23    2    1    2    0    0  0.19976631559E+03  0.26025885189E+03  0.20456936806E+03  0.39817889748E+03  0.95165945678E+02 0.  0.
          5    1    1    2  502    0 -0.15609573101E+03 -0.19791409552E+03  0.10551680471E+03  0.27328947093E+03  0.41800000000E+01 0. -1.
         -5    1    1    2    0  502 -0.43670584580E+02 -0.62344756372E+02 -0.36553129122E+02  0.84543434123E+02  0.41800000000E+01 0. -1.
        -11    1    3    3    0    0  0.11177370623E+03  0.21068036476E+03  0.12293716151E+03  0.26831534280E+03  0.00000000000E+00 0. -1.
         11    1    3    3    0    0  0.87992609358E+02  0.49578487130E+02  0.81632206552E+02  0.12986355468E+03  0.00000000000E+00 0.  1.
</event>
<event>
 7    1  0.1758121E-005  0.9620763E+02  0.7561462E-02  0.1288479E+00
         -1   -1    0    0    0  501 -0.00000000000E+00  0.00000000000E+00  0.59700115286E+02  0.59700115286E+02  0.00000000000E+00 0.  1.
          1   -1    0    0  501    0  0.00000000000E+00 -0.00000000000E+00 -0.28215571402E+03  0.28215571402E+03  0.00000000000E+00 0. -1.
         23    2    1    2    0    0 -0.49503204451E+02 -0.47797970505E+02 -0.12622047792E+03  0.16968347332E+03  0.90142436381E+02 0.  0.
          5    1    1    2  502    0  0.68771870583E+02  0.37185744822E+02 -0.11756395186E+03  0.14124838045E+03  0.41800000000E+01 0. -1.
         -5    1    1    2    0  502 -0.19268666132E+02  0.10612225683E+02  0.21328831056E+02  0.30923975532E+02  0.41800000000E+01 0. -1.
        -11    1    3    3    0    0 -0.45665410421E+02 -0.19338849766E+01 -0.13081577671E+02  0.47541532310E+02  0.00000000000E+00 0.  1.
         11    1    3    3    0    0 -0.38377940303E+01 -0.45864085528E+02 -0.11313890025E+03  0.12214194101E+03  0.00000000000E+00 0. -1.
</event>
<event>
 7    1  0.1758121E-005  0.2845620E+03  0.7561462E-02  0.1093223E+00
         -1   -1    0    0    0  501 -0.00000000000E+00  0.00000000000E+00  0.13915447713E+03  0.13915447713E+03  0.00000000000E+00 0.  1.
          1   -1    0    0  501    0  0.00000000000E+00 -0.00000000000E+00 -0.60414747353E+03  0.60414747353E+03  0.00000000000E+00 0. -1.
         23    2    1    2    0    0 -0.61010468769E+02  0.25905974505E+03 -0.17505537410E+03  0.33032967980E+03  0.87401856685E+02 0.  0.
          5    1    1    2  502    0  0.33834494188E+02 -0.17162630047E+01 -0.22944520739E+02  0.41129575583E+02  0.41800000000E+01 0.  1.
         -5    1    1    2    0  502  0.27175974580E+02 -0.25734348204E+03 -0.26699310157E+03  0.37184269528E+03  0.41800000000E+01 0.  1.
        -11    1    3    3    0    0 -0.77521030577E+02  0.19067272278E+03 -0.10506974959E+03  0.23109575866E+03  0.00000000000E+00 0.  1.
         11    1    3    3    0    0  0.16510561808E+02  0.68387022273E+02 -0.69985624511E+02  0.99233921140E+02  0.00000000000E+00 0. -1.
</event>
<event>
 7    1  0.1758121E-005  0.1072742E+03  0.7561462E-02  0.1265702E+00
         -4   -1    0    0    0  501 -0.00000000000E+00  0.00000000000E+00  0.87646233511E+02  0.87646233511E+02  0.00000000000E+00 0.  1.
          4   -1    0    0  501    0  0.00000000000E+00 -0.00000000000E+00 -0.25498302340E+03  0.25498302340E+03  0.00000000000E+00 0. -1.
         23    2    1    2    0    0 -0.75855295840E+02  0.18876277342E+02 -0.15291543208E+03  0.19441843240E+03  0.91132089500E+02 0.  0.
          5    1    1    2  502    0  0.22296442740E+02 -0.49254087615E+02 -0.52676611224E+02  0.75600226691E+02  0.41800000000E+01 0.  1.
         -5    1    1    2    0  502  0.53558853099E+02  0.30377810273E+02  0.38255253412E+02  0.72610597821E+02  0.41800000000E+01 0.  1.
        -11    1    3    3    0    0 -0.65718614919E+02 -0.11379923630E+02 -0.41569402659E+02  0.78590420829E+02  0.00000000000E+00 0.  1.
         11    1    3    3    0    0 -0.10136680921E+02  0.30256200972E+02 -0.11134602942E+03  0.11582801158E+03  0.00000000000E+00 0. -1.
</event>
<event>
 7    1  0.1758121E-005  0.1021409E+03  0.7561462E-02  0.1275857E+00
         -1   -1    0    0    0  501 -0.00000000000E+00  0.00000000000E+00  0.11205682644E+03  0.11205682644E+03  0.00000000000E+00 0.  1.
          1   -1    0    0  501    0  0.00000000000E+00 -0.00000000000E+00 -0.29265031852E+03  0.29265031852E+03  0.00000000000E+00 0. -1.
         23    2    1    2    0    0  0.47257686733E+02  0.30230775698E+02 -0.23959529684E+03  0.26221412499E+03  0.90571255497E+02 0.  0.
          5    1    1    2  502    0  0.17911607705E+02 -0.51591323127E+02  0.48044174066E+01  0.54982225665E+02  0.41800000000E+01 0. -1.
         -5    1    1    2    0  502 -0.65169294438E+02  0.21360547428E+02  0.54197387357E+02  0.87510794307E+02  0.41800000000E+01 0.  1.
        -11    1    3    3    0    0  0.10276764430E+02  0.41013240506E+02 -0.20840049236E+03  0.21264633315E+03  0.00000000000E+00 0. -1.
         11    1    3    3    0    0  0.36980922303E+02 -0.10782464808E+02 -0.31194804470E+02  0.49567791837E+02  0.00000000000E+00 0.  1.
</event>
<event>
 7    1  0.1758121E-005  0.1045844E+03  0.7561462E-02  0.1270941E+00
         -1   -1    0    0    0  501 -0.00000000000E+00  0.00000000000E+00  0.13391306665E+03  0.13391306665E+03  0.00000000000E+00 0.  1.
          1   -1    0    0  501    0  0.00000000000E+00 -0.00000000000E+00 -0.13003710451E+03  0.13003710451E+03  0.00000000000E+00 0. -1.
         23    2    1    2    0    0  0.81101514396E+01 -0.69843471682E+02 -0.28282563834E+02  0.11687088976E+03  0.88966377710E+02 0.  0.
          5    1    1    2  502    0 -0.62171935217E+02  0.20828366492E+02  0.33970033243E+02  0.73963544654E+02  0.41800000000E+01 0. -1.
         -5    1    1    2    0  502  0.54061783777E+02  0.49015105189E+02 -0.18115072748E+01  0.73115736750E+02  0.41800000000E+01 0. -1.
        -11    1    3    3    0    0  0.41521227266E+01 -0.23666338148E+02  0.32510573661E+02  0.40426143574E+02  0.00000000000E+00 0.  1.
         11    1    3    3    0    0  0.39580287129E+01 -0.46177133534E+02 -0.60793137495E+02  0.76444746184E+02  0.00000000000E+00 0. -1.
</event>
<event>
 7    1  0.1758121E-005  0.1511080E+03  0.7561462E-02  0.1199118E+00
         -2   -1    0    0    0  501 -0.00000000000E+00  0.00000000000E+00  0.88448212969E+02  0.88448212969E+02  0.00000000000E+00 0.  1.
          2   -1    0    0  501    0  0.00000000000E+00 -0.00000000000E+00 -0.27704558736E+03  0.27704558736E+03  0.00000000000E+00 0. -1.
         23    2    1    2    0    0  0.10883420438E+03  0.22179493823E+02 -0.10651287112E+03  0.17915938601E+03  0.91740284994E+02 0.  0.
          5    1    1    2  502    0 -0.11730314466E+03  0.22479514609E+02 -0.72209351605E+02  0.13963172699E+03  0.41800000000E+01 0. -1.
         -5    1    1    2    0  502  0.84689402730E+01 -0.44659008432E+02 -0.98751516664E+01  0.46702687331E+02  0.41800000000E+01 0. -1.
        -11    1    3    3    0    0  0.64274104439E+02 -0.27861709324E+02 -0.81908115473E+02  0.10777928710E+03  0.00000000000E+00 0. -1.
         11    1    3    3    0    0  0.44560099943E+02  0.50041203146E+02 -0.24604755645E+02  0.71380098904E+02  0.00000000000E+00 0.  1.
</event>
<event>
 7    1  0.1758121E-005  0.8444896E+02  0.7561462E-02  0.1316880E+00
         -2   -1    0    0    0  501 -0.00000000000E+00  0.00000000000E+00  0.43611311340E+02  0.43611311340E+02  0.00000000000E+00 0.  1.
          2   -1    0    0  501    0  0.00000000000E+00 -0.00000000000E+00 -0.38262210710E+03  0.38262210710E+03  0.00000000000E+00 0. -1.
         23    2    1    2    0    0  0.55637124057E+02  0.42115025186E+02 -0.15518049200E+03  0.19318666457E+03  0.91492826778E+02 0.  0.
          5    1    1    2  502    0 -0.24386946158E+01 -0.42370381301E+02 -0.17353683526E+03  0.17870003367E+03  0.41800000000E+01 0.  1.
         -5    1    1    2    0  502 -0.53198429441E+02  0.25535611499E+00 -0.10293468499E+02  0.54346720191E+02  0.41800000000E+01 0.  1.
        -11    1    3    3    0    0  0.43128039735E+02  0.20130363136E+02 -0.16044054416E+03  0.16735121016E+03  0.00000000000E+00 0. -1.
         11    1    3    3    0    0  0.12509084322E+02  0.21984662050E+02  0.52600521611E+01  0.25835454413E+02  0.00000000000E+00 0.  1.
</event>
<event>
 7    1  0.1758121E-005  0.6736152E+02  0.7561462E-02  0.1369302E+00
          3   -1    0    0  501    0  0.00000000000E+00  0.00000000000E+00  0.19854213085E+03  0.19854213085E+03  0.00000000000E+00 0. -1.
         -3   -1    0    0    0  501 -0.00000000000E+00 -0.00000000000E+00 -0.75198757095E+02  0.75198757095E+02  0.00000000000E+00 0.  1.
         23    2    1    2    0    0  0.32931256688E+02  0.21223783368E+01  0.10566322953E+03  0.14317093830E+03  0.90797727637E+02 0.  0.
          5    1    1    2  502    0  0.19119461371E+01 -0.10515963483E+02  0.67826755721E+02  0.68790858532E+02  0.41800000000E+01 0. -1.
         -5    1    1    2    0  502 -0.34843202825E+02  0.83935851461E+01 -0.50146611489E+02  0.61779091112E+02  0.41800000000E+01 0. -1.
        -11    1    3    3    0    0  0.21969986812E+02 -0.38914462310E+02  0.84786039299E+02  0.95841995792E+02  0.00000000000E+00 0. -1.
         11    1    3    3    0    0  0.10961269876E+02  0.41036840647E+02  0.20877190228E+02  0.47328942513E+02  0.00000000000E+00 0.  1.
</event>
<event>
 7    1  0.1758121E-005  0.1038277E+03  0.7561462E-02  0.1272447E+00
         -1   -1    0    0    0  501 -0.00000000000E+00  0.00000000000E+00  0.16943262428E+03  0.16943262428E+03  0.00000000000E+00 0.  1.
          1   -1    0    0  501    0  0.00000000000E+00 -0.00000000000E+00 -0.84709646661E+02  0.84709646661E+02  0.00000000000E+00 0. -1.
         23    2    1    2    0    0 -0.51364892336E+02  0.29165069865E+01  0.11508353242E+02  0.10558123789E+03  0.91477305508E+02 0.  0.
          5    1    1    2  502    0  0.72467749617E+02 -0.37132593569E+02  0.24237786838E+02  0.85060842640E+02  0.41800000000E+01 0. -1.
         -5    1    1    2    0  502 -0.21102857282E+02  0.34216086583E+02  0.48976837537E+02  0.63500190406E+02  0.41800000000E+01 0.  1.
        -11    1    3    3    0    0 -0.46604396797E+02 -0.28035930251E+02 -0.22938674752E+02  0.59026824286E+02  0.00000000000E+00 0. -1.
         11    1    3    3    0    0 -0.47604955382E+01  0.30952437238E+02  0.34447027993E+02  0.46554413607E+02  0.00000000000E+00 0.  1.
</event>
<event>
 7    1  0.1758121E-005  0.1334848E+03  0.7561462E-02  0.1222375E+00
         -2   -1    0    0    0  501 -0.00000000000E+00  0.00000000000E+00  0.42737052177E+02  0.42737052177E+02  0.00000000000E+00 0.  1.
          2   -1    0    0  501    0  0.00000000000E+00 -0.00000000000E+00 -0.45446428268E+03  0.45446428268E+03  0.00000000000E+00 0. -1.
         23    2    1    2    0    0 -0.54566320041E+01 -0.85297782819E+02 -0.23479182368E+03  0.26426459920E+03  0.86041218836E+02 0.  0.
          5    1    1    2  502    0  0.55503541346E+02  0.62367431449E+01 -0.84234076716E+02  0.10115528729E+03  0.41800000000E+01 0.  1.
         -5    1    1    2    0  502 -0.50046909342E+02  0.79061039674E+02 -0.92701330114E+02  0.13178144837E+03  0.41800000000E+01 0.  1.
        -11    1    3    3    0    0 -0.37833299450E+02 -0.73812973842E+02 -0.19365265517E+03  0.21066813833E+03  0.00000000000E+00 0. -1.
         11    1    3    3    0    0  0.32376667446E+02 -0.11484808977E+02 -0.41139168510E+02  0.53596460871E+02  0.00000000000E+00 0.  1.
</event>
<event>
 7    1  0.1758121E-005  0.7665538E+02  0.7561462E-02  0.1338820E+00
         -1   -1    0    0    0  501 -0.00000000000E+00  0.00000000000E+00  0.28602047550E+02  0.28602047550E+02  0.00000000000E+00 0.  1.
          1   -1    0    0  501    0  0.00000000000E+00 -0.00000000000E+00 -0.56755127496E+03  0.56755127496E+03  0.00000000000E+00 0. -1.
         23    2    1    2    0    0 -0.17812499153E+02 -0.51829548129E+02 -0.22452037902E+03  0.25333926547E+03  0.10376798950E+03 0.  0.
          5    1    1    2  502    0 -0.19449610624E+02  0.31002220604E+02 -0.29218410954E+03  0.29449694617E+03  0.41800000000E+01 0.  1.
         -5    1    1    2    0  502  0.37262109778E+02  0.20827327526E+02 -0.22244738851E+02  0.48317110877E+02  0.41800000000E+01 0.  1.
        -11    1    3    3    0    0  0.13320024302E+02 -0.36552706328E+02 -0.21340578971E+03  0.21692292288E+03  0.00000000000E+00 0. -1.
         11    1    3    3    0    0 -0.31132523455E+02 -0.15276841801E+02 -0.11114589312E+02  0.36416342591E+02  0.00000000000E+00 0.  1.
</event>
<event>
 7    1  0.1758121E-005  0.1540566E+03  0.7561462E-02  0.1195575E+00
          1   -1    0    0  501    0  0.00000000000E+00  0.00000000000E+00  0.40134226199E+03  0.40134226199E+03  0.00000000000E+00 0. -1.
         -1   -1    0    0    0  501 -0.00000000000E+00 -0.00000000000E+00 -0.78330600093E+02  0.78330600093E+02  0.00000000000E+00 0.  1.
         23    2    1    2    0    0  0.95668209853E+02  0.87820012859E+02  0.22009358122E+03  0.27205634590E+03  0.93320468361E+02 0.  0.
          5    1    1    2  502    0 -0.10563281759E+03 -0.11055145054E+03  0.76132365370E+02  0.17086112731E+03  0.41800000000E+01 0. -1.
         -5    1    1    2    0  502  0.99646077377E+01  0.22731437686E+02  0.26785715309E+02  0.36755388874E+02  0.41800000000E+01 0. -1.
        -11    1    3    3    0    0  0.17428677656E+02  0.18990850151E+02  0.13523439470E+03  0.13766899689E+03  0.00000000000E+00 0. -1.
         11    1    3    3    0    0  0.78239532197E+02  0.68829162708E+02  0.84859186518E+02  0.13438734901E+03  0.00000000000E+00 0.  1.
</event>
<event>
 7    1  0.1758121E-005  0.1070560E+03  0.7561462E-02  0.1266121E+00
          2   -1    0    0  501    0  0.00000000000E+00  0.00000000000E+00  0.47507911886E+03  0.47507911886E+03  0.00000000000E+00 0. -1.
         -2   -1    0    0    0  501 -0.00000000000E+00 -0.00000000000E+00 -0.25924762236E+02  0.25924762236E+02  0.00000000000E+00 0.  1.
         23    2    1    2    0    0  0.32284215076E+01  0.15744467595E+02  0.23352496702E+03  0.25120110909E+03  0.91157972898E+02 0.  0.
          5    1    1    2  502    0 -0.17297773061E+02  0.50756165345E+02  0.12785703155E+03  0.13870938754E+03  0.41800000000E+01 0. -1.
         -5    1    1    2    0  502  0.14069351553E+02 -0.66500632940E+02  0.87772358062E+02  0.11109338448E+03  0.41800000000E+01 0. -1.
        -11    1    3    3    0    0 -0.96014082306E+01  0.52460822061E+02  0.12431118262E+03  0.13526860322E+03  0.00000000000E+00 0.  1.
         11    1    3    3    0    0  0.12829829738E+02 -0.36716354466E+02  0.10921378439E+03  0.11593250587E+03  0.00000000000E+00 0. -1.
</event>
<event>
 7    1  0.1758121E-005  0.8107824E+02  0.7561462E-02  0.1326019E+00
         -1   -1    0    0    0  501 -0.00000000000E+00  0.00000000000E+00  0.54316112794E+02  0.54316112794E+02  0.00000000000E+00 0.  1.
          1   -1    0    0  501    0  0.00000000000E+00 -0.00000000000E+00 -0.36247315054E+03  0.36247315054E+03  0.00000000000E+00 0. -1.
         23    2    1    2    0    0 -0.33974541524E+02  0.37649668262E+01 -0.26110676433E+03  0.27884752760E+03  0.91710178409E+02 0.  0.
          5    1    1    2  502    0  0.24616312619E+01 -0.28763698494E+02  0.35542303321E+02  0.45979753206E+02  0.41800000000E+01 0.  1.
         -5    1    1    2    0  502  0.31512910262E+02  0.24998731668E+02 -0.82592576742E+02  0.91961982531E+02  0.41800000000E+01 0.  1.
        -11    1    3    3    0    0  0.93943706943E+00 -0.38055360070E+02 -0.15458427708E+03  0.15920236083E+03  0.00000000000E+00 0. -1.
         11    1    3    3    0    0 -0.34913978593E+02  0.41820326896E+02 -0.10652248725E+03  0.11964516677E+03  0.00000000000E+00 0.  1.
</event>
<event>
 7    1  0.1758121E-005  0.1211828E+03  0.7561462E-02  0.1241158E+00
         -2   -1    0    0    0  501 -0.00000000000E+00  0.00000000000E+00  0.85740177425E+02  0.85740177425E+02  0.00000000000E+00 0.  1.
          2   -1    0    0  501    0  0.00000000000E+00 -0.00000000000E+00 -0.23740171463E+03  0.23740171463E+03  0.00000000000E+00 0. -1.
         23    2    1    2    0    0 -0.39319633441E+01  0.86157712071E+02 -0.10679059452E+03  0.16470415399E+03  0.91019863646E+02 0.  0.
          5    1    1    2  502    0  0.64071011160E+02 -0.45627203117E+02 -0.16665184023E+02  0.80511718985E+02  0.41800000000E+01 0. -1.
         -5    1    1    2    0  502 -0.60139047815E+02 -0.40530508954E+02 -0.28205758661E+02  0.77926019081E+02  0.41800000000E+01 0. -1.
        -11    1    3    3    0    0 -0.16538834759E+02  0.48124927177E+02 -0.26058024521E+00  0.50888206621E+02  0.00000000000E+00 0.  1.
         11    1    3    3    0    0  0.12606871415E+02  0.38032784894E+02 -0.10653001428E+03  0.11381594737E+03  0.00000000000E+00 0. -1.
</event>
<event>
 7    1  0.1758121E-005  0.1387372E+03  0.7561462E-02  0.1215038E+00
          1   -1    0    0  501    0  0.00000000000E+00  0.00000000000E+00  0.69296797445E+03  0.69296797445E+03  0.00000000000E+00 0. -1.
         -1   -1    0    0    0  501 -0.00000000000E+00 -0.00000000000E+00 -0.49563661556E+02  0.49563661556E+02  0.00000000000E+00 0.  1.
         23    2    1    2    0    0 -0.30166549094E+02 -0.11844671932E+03  0.48412817804E+03  0.50598917819E+03  0.81885955255E+02 0.  0.
          5    1    1    2  502    0  0.87431897316E+01  0.12343078923E+03  0.65378029760E+02  0.14001200760E+03  0.41800000000E+01 0.  1.
         -5    1    1    2    0  502  0.21423359363E+02 -0.49840699145E+01  0.93898105086E+02  0.96530450212E+02  0.41800000000E+01 0.  1.
        -11    1    3    3    0    0  0.29948943944E+01 -0.81786447010E+02  0.40105769795E+03  0.40932294022E+03  0.00000000000E+00 0. -1.
         11    1    3    3    0    0 -0.33161443489E+02 -0.36660272307E+02  0.83070480094E+02  0.96666237968E+02  0.00000000000E+00 0.  1.
</event>
<event>
 7    1  0.1758121E-005  0.1251178E+03  0.7561462E-02  0.1234885E+00
          3   -1    0    0  501    0  0.00000000000E+00  0.00000000000E+00  0.76112580562E+02  0.76112580562E+02  0.00000000000E+00 0. -1.
         -3   -1    0    0    0  501 -0.00000000000E+00 -0.00000000000E+00 -0.25570309323E+03  0.25570309323E+03  0.00000000000E+00 0.  1.
         23    2    1    2    0    0 -0.55918865585E+02  0.69384537562E+02 -0.85854445538E+02  0.15188099363E+03  0.88066547722E+02 0.  0.
          5    1    1    2  502    0  0.74708026620E+02 -0.15808143990E+02 -0.96269560369E+02  0.12294912489E+03  0.41800000000E+01 0. -1.
         -5    1    1    2    0  502 -0.18789161035E+02 -0.53576393572E+02  0.25334932429E+01  0.56985555262E+02  0.41800000000E+01 0. -1.
        -11    1    3    3    0    0  0.17242898517E+02  0.27694107904E+02 -0.14508531359E+01  0.32655568234E+02  0.00000000000E+00 0. -1.
         11    1    3    3    0    0 -0.73161764102E+02  0.41690429658E+02 -0.84403592402E+02  0.11922542540E+03  0.00000000000E+00 0.  1.
</event>
<event>
 7    1  0.1758121E-005  0.1201772E+03  0.7561462E-02  0.1242805E+00
         -3   -1    0    0    0  501 -0.00000000000E+00  0.00000000000E+00  0.63478881701E+02  0.63478881701E+02  0.00000000000E+00 0.  1.
          3   -1    0    0  501    0  0.00000000000E+00 -0.00000000000E+00 -0.28159223833E+03  0.28159223833E+03  0.00000000000E+00 0. -1.
         23    2    1    2    0    0 -0.76566288020E+02 -0.42954522549E+01 -0.11477599808E+03  0.16560435283E+03  0.91490024419E+02 0.  0.
          5    1    1    2  502    0  0.39304209564E+02 -0.57994138958E+02 -0.30404643715E+02  0.76485657495E+02  0.41800000000E+01 0.  1.
         -5    1    1    2    0  502  0.37262078456E+02  0.62289591213E+02 -0.72932714834E+02  0.10298110971E+03  0.41800000000E+01 0.  1.
        -11    1    3    3    0    0 -0.37482894098E+01  0.20272862374E+02  0.68572381739E+01  0.21726949572E+02  0.00000000000E+00 0.  1.
         11    1    3    3    0    0 -0.72817998610E+02 -0.24568314628E+02 -0.12163323626E+03  0.14387740326E+03  0.00000000000E+00 0. -1.
</event>
<event>
 7    1  0.1758121E-005  0.2378761E+03  0.7561462E-02  0.1121216E+00
          2   -1    0    0  501    0  0.00000000000E+00  0.00000000000E+00  0.44829989398E+03  0.44829989398E+03  0.00000000000E+00 0. -1.
         -2   -1    0    0    0  501 -0.00000000000E+00 -0.00000000000E+00 -0.19042564122E+03  0.19042564122E+03  0.00000000000E+00 0.  1.
         23    2    1    2    0    0  0.61034546479E+02 -0.64986438173E+02  0.49056293033E+02  0.13656710771E+03  0.91080195500E+02 0.  0.
          5    1    1    2  502    0 -0.17504459628E+03 -0.64021498504E+02  0.26232096098E+03  0.32182156846E+03  0.41800000000E+01 0. -1.
         -5    1    1    2    0  502  0.11401004980E+03  0.12900793668E+03 -0.53503001251E+02  0.18033685903E+03  0.41800000000E+01 0.  1.
        -11    1    3    3    0    0  0.39214408374E+02 -0.81029625099E+02  0.59094434424E+02  0.10768343488E+03  0.00000000000E+00 0.  1.
         11    1    3    3    0    0  0.21820138105E+02  0.16043186925E+02 -0.10038141391E+02  0.28883672832E+02  0.00000000000E+00 0. -1.
</event>
<event>
 7    1  0.1758121E-005  0.1829190E+03  0.7561462E-02  0.1165008E+00
         -2   -1    0    0    0  501 -0.00000000000E+00  0.00000000000E+00  0.80300101339E+02  0.80300101339E+02  0.00000000000E+00 0.  1.
          2   -1    0    0  501    0  0.00000000000E+00 -0.00000000000E+00 -0.61277189173E+03  0.61277189173E+03  0.00000000000E+00 0. -1.
         23    2    1    2    0    0  0.89341147611E+02 -0.15197687034E+03 -0.37880346349E+03  0.42785398822E+03  0.92131218958E+02 0.  0.
          5    1    1    2  502    0 -0.17686032439E+02  0.14140239195E+02  0.21182148965E+02  0.31287344769E+02  0.41800000000E+01 0.  1.
         -5    1    1    2    0  502 -0.71655115172E+02  0.13783663115E+03 -0.17485047587E+03  0.23393066008E+03  0.41800000000E+01 0.  1.
        -11    1    3    3    0    0 -0.75933209181E+01 -0.33389381634E+02 -0.14020084591E+03  0.14432181583E+03  0.00000000000E+00 0. -1.
         11    1    3    3    0    0  0.96934468529E+02 -0.11858748871E+03 -0.23860261758E+03  0.28353217239E+03  0.00000000000E+00 0.  1.
</event>
<event>
 7    1  0.1758121E-005  0.2063078E+03  0.7561462E-02  0.1144524E+00
          1   -1    0    0  501    0  0.00000000000E+00  0.00000000000E+00  0.25062001275E+03  0.25062001275E+03  0.00000000000E+00 0.  1.
         -1   -1    0    0    0  501 -0.00000000000E+00 -0.00000000000E+00 -0.18398430041E+03  0.18398430041E+03  0.00000000000E+00 0. -1.
         23    2    1    2    0    0 -0.14154029472E+03  0.10974879458E+03  0.84845440078E+02  0.21538964215E+03  0.84353401235E+02 0.  0.
          5    1    1    2  502    0 -0.19738789978E+02  0.37154478785E+01  0.34055419248E+01  0.20796502075E+02  0.41800000000E+01 0. -1.
         -5    1    1    2    0  502  0.16127908470E+03 -0.11346424246E+03 -0.21615269661E+02  0.19841816893E+03  0.41800000000E+01 0. -1.
        -11    1    3    3    0    0 -0.80664192876E+02  0.14703807225E+02  0.54698062115E+02  0.98563644202E+02  0.00000000000E+00 0.  1.
         11    1    3    3    0    0 -0.60876101847E+02  0.95044987358E+02  0.30147377963E+02  0.11682599795E+03  0.00000000000E+00 0. -1.
</event>
<event>
 7    1  0.1758121E-005  0.8965314E+02  0.7561462E-02  0.1303694E+00
         -1   -1    0    0    0  501 -0.00000000000E+00  0.00000000000E+00  0.24677546765E+02  0.24677546765E+02  0.00000000000E+00 0.  1.
          1   -1    0    0  501    0  0.00000000000E+00 -0.00000000000E+00 -0.52953448305E+03  0.52953448305E+03  0.00000000000E+00 0. -1.
         23    2    1    2    0    0  0.25423496936E+02 -0.22615180297E+02 -0.23484143795E+03  0.25469065163E+03  0.92515006740E+02 0.  0.
          5    1    1    2  502    0 -0.31271046943E+01  0.63587570541E+02 -0.72708703254E+02  0.96732547986E+02  0.41800000000E+01 0.  1.
         -5    1    1    2    0  502 -0.22296392241E+02 -0.40972390244E+02 -0.19730679508E+03  0.20278883020E+03  0.41800000000E+01 0.  1.
        -11    1    3    3    0    0 -0.19458652571E+02 -0.10824062185E+02 -0.88121238076E+01  0.23946878879E+02  0.00000000000E+00 0.  1.
         11    1    3    3    0    0  0.44882149507E+02 -0.11791118112E+02 -0.22602931415E+03  0.23074377275E+03  0.00000000000E+00 0. -1.
</event>
<event>
 7    1  0.1758121E-005  0.1406453E+03  0.7561462E-02  0.1212463E+00
          2   -1    0    0  501    0  0.00000000000E+00  0.00000000000E+00  0.45774400740E+03  0.45774400740E+03  0.00000000000E+00 0.  1.
         -2   -1    0    0    0  501 -0.00000000000E+00 -0.00000000000E+00 -0.60070086656E+02  0.60070086656E+02  0.00000000000E+00 0. -1.
         23    2    1    2    0    0  0.89296814981E+02  0.49332094331E+02  0.29776030508E+03  0.32797866195E+03  0.92202097144E+02 0.  0.
          5    1    1    2  502    0  0.10422598731E+02 -0.48771209312E+02  0.21045935515E+01  0.50091547551E+02  0.41800000000E+01 0. -1.
         -5    1    1    2    0  502 -0.99719413712E+02 -0.56088501859E+00  0.97809022115E+02  0.13974388455E+03  0.41800000000E+01 0. -1.
        -11    1    3    3    0    0  0.46282987442E+01  0.46488720206E+02  0.63232049108E+02  0.78618790948E+02  0.00000000000E+00 0. -1.
         11    1    3    3    0    0  0.84668516237E+02  0.28433741245E+01  0.23452825597E+03  0.24935987100E+03  0.00000000000E+00 0.  1.
</event>
<event>
 7    1  0.1758121E-005  0.9998034E+02  0.7561462E-02  0.1280337E+00
         -1   -1    0    0    0  501 -0.00000000000E+00  0.00000000000E+00  0.54102871465E+02  0.54102871465E+02  0.00000000000E+00 0.  1.
          1   -1    0    0  501    0  0.00000000000E+00 -0.00000000000E+00 -0.19526785607E+03  0.19526785607E+03  0.00000000000E+00 0. -1.
         23    2    1    2    0    0 -0.22442580551E+02 -0.25362157132E+02 -0.74657089684E+02  0.11510865875E+03  0.80804788495E+02 0.  0.
          5    1    1    2  502    0 -0.21853964343E+02 -0.35058139882E+02 -0.25995420655E+02  0.48988807136E+02  0.41800000000E+01 0. -1.
         -5    1    1    2    0  502  0.44296544894E+02  0.60420297014E+02 -0.40512474268E+02  0.85273261648E+02  0.41800000000E+01 0.  1.
        -11    1    3    3    0    0 -0.37788310047E+02  0.14665478814E+02 -0.18757933992E+02  0.44664222065E+02  0.00000000000E+00 0.  1.
         11    1    3    3    0    0  0.15345729496E+02 -0.40027635946E+02 -0.55899155692E+02  0.70444436688E+02  0.00000000000E+00 0. -1.
</event>
<event>
 7    1  0.1758121E-005  0.2448585E+03  0.7561462E-02  0.1116598E+00
          1   -1    0    0  501    0  0.00000000000E+00  0.00000000000E+00  0.52981222960E+02  0.52981222960E+02  0.00000000000E+00 0. -1.
         -1   -1    0    0    0  501 -0.00000000000E+00 -0.00000000000E+00 -0.14771230822E+04  0.14771230822E+04  0.00000000000E+00 0.  1.
         23    2    1    2    0    0  0.20661756988E+03 -0.12660397076E+03 -0.45339805199E+03  0.52178390920E+03  0.89270760936E+02 0.  0.
          5    1    1    2  502    0 -0.19264250396E+03  0.10341516727E+03 -0.94745094558E+03  0.97236135147E+03  0.41800000000E+01 0. -1.
         -5    1    1    2    0  502 -0.13975065924E+02  0.23188803484E+02 -0.23292861627E+02  0.35959044445E+02  0.41800000000E+01 0. -1.
        -11    1    3    3    0    0  0.67766926050E+02 -0.55752431759E+02 -0.86844110961E+02  0.12346088256E+03  0.00000000000E+00 0. -1.
         11    1    3    3    0    0  0.13885064383E+03 -0.70851538998E+02 -0.36655394103E+03  0.39832302665E+03  0.00000000000E+00 0.  1.
</event>
<event>
 7    1  0.1758121E-005  0.8754782E+02  0.7561462E-02  0.1308901E+00
          3   -1    0    0  501    0  0.00000000000E+00  0.00000000000E+00  0.46690754122E+02  0.46690754122E+02  0.00000000000E+00 0. -1.
         -3   -1    0    0    0  501 -0.00000000000E+00 -0.00000000000E+00 -0.37336788444E+03  0.37336788444E+03  0.00000000000E+00 0.  1.
         23    2    1    2    0    0  0.65891779967E+02  0.15116239807E+02 -0.95361075416E+02  0.14853526651E+03  0.91644767014E+02 0.  0.
          5    1    1    2  502    0 -0.48573399515E+02 -0.16148431545E+02 -0.13668623945E+02  0.53145561079E+02  0.41800000000E+01 0. -1.
         -5    1    1    2    0  502 -0.17318380452E+02  0.10321917378E+01 -0.21764743096E+03  0.21837781097E+03  0.41800000000E+01 0. -1.
        -11    1    3    3    0    0 -0.43731076452E+01 -0.24731308466E+02 -0.21704667841E+01  0.25208582169E+02  0.00000000000E+00 0. -1.
         11    1    3    3    0    0  0.70264887612E+02  0.39847548273E+02 -0.93190608631E+02  0.12332668435E+03  0.00000000000E+00 0.  1.
</event>
<event>
 7    1  0.1758121E-005  0.4358774E+02  0.7561462E-02  0.1483356E+00
          2   -1    0    0  501    0  0.00000000000E+00  0.00000000000E+00  0.54946258679E+02  0.54946258679E+02  0.00000000000E+00 0. -1.
         -2   -1    0    0    0  501 -0.00000000000E+00 -0.00000000000E+00 -0.21751381629E+03  0.21751381629E+03  0.00000000000E+00 0.  1.
         23    2    1    2    0    0  0.28672945309E+01 -0.21306853271E+01 -0.84284933686E+02  0.12485216603E+03  0.92039948486E+02 0.  0.
          5    1    1    2  502    0  0.12337673517E+02  0.50229641648E+01  0.32656818944E+02  0.35516032722E+02  0.41800000000E+01 0. -1.
         -5    1    1    2    0  502 -0.15204968048E+02 -0.28922788377E+01 -0.11093944287E+03  0.11209187622E+03  0.41800000000E+01 0. -1.
        -11    1    3    3    0    0 -0.25508787012E+02 -0.10518197290E+02 -0.90503418348E+02  0.94616063233E+02  0.00000000000E+00 0.  1.
         11    1    3    3    0    0  0.28376081543E+02  0.83875119633E+01  0.62184846625E+01  0.30236102794E+02  0.00000000000E+00 0. -1.
</event>
<event>
 7    1  0.1758121E-005  0.9978799E+02  0.7561462E-02  0.1280742E+00
          1   -1    0    0  501    0  0.00000000000E+00  0.00000000000E+00  0.46696380422E+02  0.46696380422E+02  0.00000000000E+00 0. -1.
         -1   -1    0    0    0  501 -0.00000000000E+00 -0.00000000000E+00 -0.36972976298E+03  0.36972976298E+03  0.00000000000E+00 0.  1.
         23    2    1    2    0    0 -0.36709557444E+02 -0.18141734525E+02 -0.46342340875E+02  0.11002438348E+03  0.91000210234E+02 0.  0.
          5    1    1    2  502    0 -0.10111804113E+02  0.63743312734E+02 -0.11479327291E+03  0.13175897088E+03  0.41800000000E+01 0.  1.
         -5    1    1    2    0  502  0.46821361557E+02 -0.45601578208E+02 -0.16189776878E+03  0.17464278905E+03  0.41800000000E+01 0.  1.
        -11    1    3    3    0    0 -0.20325435220E+02 -0.38343587770E+02 -0.64899577166E+02  0.78072460934E+02  0.00000000000E+00 0.  1.
         11    1    3    3    0    0 -0.16384122224E+02  0.20201853244E+02  0.18557236291E+02  0.31951922545E+02  0.00000000000E+00 0. -1.
</event>
<event>
 7    1  0.1758121E-005  0.1082095E+03  0.7561462E-02  0.1263922E+00
          1   -1    0    0  501    0  0.00000000000E+00  0.00000000000E+00  0.89204924725E+02  0.89204924725E+02  0.00000000000E+00 0. -1.
         -1   -1    0    0    0  501 -0.00000000000E+00 -0.00000000000E+00 -0.25503460647E+03  0.25503460647E+03  0.00000000000E+00 0.  1.
         23    2    1    2    0    0  0.66381478919E+02 -0.80019580399E+02 -0.56955196140E+02  0.14851106484E+03  0.89453943577E+02 0.  0.
          5    1    1    2  502    0 -0.37213538408E+02  0.32414314140E+02  0.21384529426E+02  0.53947249242E+02  0.41800000000E+01 0. -1.
         -5    1    1    2    0  502 -0.29167940511E+02  0.47605266260E+02 -0.13025901503E+03  0.14178121711E+03  0.41800000000E+01 0. -1.
        -11    1    3    3    0    0  0.65522145420E+02 -0.54098806421E+02 -0.77823351426E+02  0.11522285547E+03  0.00000000000E+00 0.  1.
         11    1    3    3    0    0  0.85933349958E+00 -0.25920773978E+02  0.20868155285E+02  0.33288209365E+02  0.00000000000E+00 0. -1.
</event>
<event>
 7    1  0.1758121E-005  0.6330551E+02  0.7561462E-02  0.1384461E+00
         -2   -1    0    0    0  501 -0.00000000000E+00  0.00000000000E+00  0.34470541286E+02  0.34470541286E+02  0.00000000000E+00 0.  1.
          2   -1    0    0  501    0  0.00000000000E+00 -0.00000000000E+00 -0.42763246634E+03  0.42763246634E+03  0.00000000000E+00 0. -1.
         23    2    1    2    0    0 -0.22550345770E+02  0.45944352911E+02 -0.20539413427E+03  0.23075122980E+03  0.91869352916E+02 0.  0.
          5    1    1    2  502    0  0.25059245307E+02 -0.31098598185E+02 -0.20453065022E+03  0.20843547650E+03  0.41800000000E+01 0.  1.
         -5    1    1    2    0  502 -0.25088995364E+01 -0.14845754726E+02  0.16762859430E+02  0.22916301327E+02  0.41800000000E+01 0.  1.
        -11    1    3    3    0    0  0.14515179838E+02  0.23121334657E+02 -0.77615758468E+01  0.28381836122E+02  0.00000000000E+00 0.  1.
         11    1    3    3    0    0 -0.37065525608E+02  0.22823018255E+02 -0.19763255842E+03  0.20236939368E+03  0.00000000000E+00 0. -1.
</event>
<event>
 7    1  0.1758121E-005  0.1613809E+03  0.7561462E-02  0.1187147E+00
         -2   -1    0    0    0  501 -0.00000000000E+00  0.00000000000E+00  0.10741284654E+03  0.10741284654E+03  0.00000000000E+00 0.  1.
          2   -1    0    0  501    0  0.00000000000E+00 -0.00000000000E+00 -0.35227421502E+03  0.35227421502E+03  0.00000000000E+00 0. -1.
         23    2    1    2    0    0  0.14261078754E+03 -0.70796022830E+02 -0.14623680663E+03  0.23447326060E+03  0.90788725908E+02 0.  0.
          5    1    1    2  502    0 -0.67623366732E+02  0.33546906374E+02 -0.11708425283E+03  0.13937183832E+03  0.41800000000E+01 0.  1.
         -5    1    1    2    0  502 -0.74987420809E+02  0.37249116456E+02  0.18459690988E+02  0.85841962628E+02  0.41800000000E+01 0.  1.
        -11    1    3    3    0    0  0.38869232772E+02 -0.21505465300E+01 -0.89796420699E+02  0.97871544777E+02  0.00000000000E+00 0. -1.
         11    1    3    3    0    0  0.10374155477E+03 -0.68645476300E+02 -0.56440385935E+02  0.13660171583E+03  0.00000000000E+00 0.  1.
</event>
<event>
 7    1  0.1758121E-005  0.1493478E+03  0.7561462E-02  0.1201277E+00
          1   -1    0    0  501    0  0.00000000000E+00  0.00000000000E+00  0.18332538899E+03  0.18332538899E+03  0.00000000000E+00 0. -1.
         -1   -1    0    0    0  501 -0.00000000000E+00 -0.00000000000E+00 -0.14886409728E+03  0.14886409728E+03  0.00000000000E+00 0.  1.
         23    2    1    2    0    0 -0.15634689722E+02 -0.10660722639E+03  0.78258457397E+02  0.16138272321E+03  0.91161685795E+02 0.  0.
          5    1    1    2  502    0  0.70030676260E+02  0.47912102511E+02 -0.23321235356E+02  0.88097772974E+02  0.41800000000E+01 0. -1.
         -5    1    1    2    0  502 -0.54395986538E+02  0.58695123876E+02 -0.20475930335E+02  0.82708990088E+02  0.41800000000E+01 0. -1.
        -11    1    3    3    0    0  0.32177898531E+02 -0.35432578712E+02  0.54241270699E+02  0.72339479091E+02  0.00000000000E+00 0.  1.
         11    1    3    3    0    0 -0.47812588252E+02 -0.71174647674E+02  0.24017186698E+02  0.89043244122E+02  0.00000000000E+00 0. -1.
</event>
<event>
 7    1  0.1758121E-005  0.1232528E+03  0.7561462E-02  0.1237825E+00
         -1   -1    0    0    0  501 -0.00000000000E+00  0.00000000000E+00  0.20209012399E+03  0.20209012399E+03  0.00000000000E+00 0.  1.
          1   -1    0    0  501    0  0.00000000000E+00 -0.00000000000E+00 -0.95494894920E+02  0.95494894920E+02  0.00000000000E+00 0. -1.
         23    2    1    2    0    0 -0.65275202929E+02 -0.44865411350E+02  0.75083501957E+01  0.11942939216E+03  0.89068777554E+02 0.  0.
          5    1    1    2  502    0  0.12058443145E+02 -0.43177759076E+02  0.32724255568E+02  0.55660347038E+02  0.41800000000E+01 0.  1.
         -5    1    1    2    0  502  0.53216759784E+02  0.88043170426E+02  0.66362623304E+02  0.12249527971E+03  0.41800000000E+01 0.  1.
        -11    1    3    3    0    0 -0.43007975109E+02  0.55893434830E+01 -0.29998817786E+02  0.52733819813E+02  0.00000000000E+00 0. -1.
         11    1    3    3    0    0 -0.22267227820E+02 -0.50454754833E+02  0.37507167982E+02  0.66695572342E+02  0.00000000000E+00 0.  1.
</event>
<event>
 7    1  0.1758121E-005  0.1003876E+03  0.7561462E-02  0.1279483E+00
         -1   -1    0    0    0  501 -0.00000000000E+00  0.00000000000E+00  0.29325870470E+03  0.29325870470E+03  0.00000000000E+00 0.  1.
          1   -1    0    0  501    0  0.00000000000E+00 -0.00000000000E+00 -0.61259375146E+02  0.61259375146E+02  0.00000000000E+00 0. -1.
         23    2    1    2    0    0 -0.34038890369E+02  0.66567554880E+02  0.74597597693E+02  0.14001407848E+03  0.91919830122E+02 0.  0.
          5    1    1    2  502    0  0.42568702177E+02 -0.23496991601E+02  0.16290354303E+03  0.17005657809E+03  0.41800000000E+01 0.  1.
         -5    1    1    2    0  502 -0.85298118081E+01 -0.43070563279E+02 -0.55018111653E+01  0.44447423286E+02  0.41800000000E+01 0.  1.
        -11    1    3    3    0    0  0.14670225143E+02  0.56178565854E+02  0.68563104384E+02  0.89845122572E+02  0.00000000000E+00 0.  1.
         11    1    3    3    0    0 -0.48709115513E+02  0.10388989025E+02  0.60344933088E+01  0.50168955904E+02  0.00000000000E+00 0. -1.
</event>
<event>
 7    1  0.1758121E-005  0.1955818E+03  0.7561462E-02  0.1153521E+00
         -1   -1    0    0    0  501 -0.00000000000E+00  0.00000000000E+00  0.70763606890E+02  0.70763606890E+02  0.00000000000E+00 0.  1.
          1   -1    0    0  501    0  0.00000000000E+00 -0.00000000000E+00 -0.63122582369E+03  0.63122582369E+03  0.00000000000E+00 0. -1.
         23    2    1    2    0    0  0.93833285464E+02 -0.15373100317E+03 -0.29161165321E+03  0.35505834590E+03  0.92688542486E+02 0.  0.
          5    1    1    2  502    0 -0.12102718932E+02  0.10697036005E+03 -0.74661054304E+02  0.13107585271E+03  0.41800000000E+01 0.  1.
         -5    1    1    2    0  502 -0.81730566532E+02  0.46760643121E+02 -0.19418950929E+03  0.21585523197E+03  0.41800000000E+01 0.  1.
        -11    1    3    3    0    0  0.92842088516E+02 -0.10391177559E+03 -0.26290800671E+03  0.29755323978E+03  0.00000000000E+00 0. -1.
         11    1    3    3    0    0  0.99119694754E+00 -0.49819227579E+02 -0.28703646491E+02  0.57505106120E+02  0.00000000000E+00 0.  1.
</event>
<event>
 7    1  0.1758121E-005  0.1124788E+03  0.7561462E-02  0.1256047E+00
         -2   -1    0    0    0  501 -0.00000000000E+00  0.00000000000E+00  0.27066692302E+02  0.27066692302E+02  0.00000000000E+00 0.  1.
          2   -1    0    0  501    0  0.00000000000E+00 -0.00000000000E+00 -0.67069011271E+03  0.67069011271E+03  0.00000000000E+00 0. -1.
         23    2    1    2    0    0 -0.68542777010E+02  0.20803254934E+02 -0.37651161961E+03  0.39423311665E+03  0.92346428543E+02 0.  0.
          5    1    1    2  502    0 -0.14475608610E+02 -0.26260815097E+02 -0.18173761771E+03  0.18424225287E+03  0.41800000000E+01 0.  1.
         -5    1    1    2    0  502  0.83018385620E+02  0.54575601631E+01 -0.85374183090E+02  0.11928143549E+03  0.41800000000E+01 0.  1.
        -11    1    3    3    0    0 -0.53946718850E+02 -0.27759652142E+02 -0.26304374066E+03  0.26994972914E+03  0.00000000000E+00 0. -1.
         11    1    3    3    0    0 -0.14596058161E+02  0.48562907075E+02 -0.11346787895E+03  0.12428338751E+03  0.00000000000E+00 0.  1.
</event>
<event>
 7    1  0.1758121E-005  0.1316576E+03  0.7561462E-02  0.1225017E+00
          1   -1    0    0  501    0  0.00000000000E+00  0.00000000000E+00  0.71843659588E+03  0.71843659588E+03  0.00000000000E+00 0. -1.
         -1   -1    0    0    0  501 -0.00000000000E+00 -0.00000000000E+00 -0.37930036487E+02  0.37930036487E+02  0.00000000000E+00 0.  1.
         23    2    1    2    0    0 -0.59346263256E+02 -0.67892768621E+02  0.50214406687E+03  0.51860619155E+03  0.93125243780E+02 0.  0.
          5    1    1    2  502    0  0.58355050073E+02 -0.17310483089E+02  0.11930949579E+03  0.13400445097E+03  0.41800000000E+01 0. -1.
         -5    1    1    2    0  502  0.99121318338E+00  0.85203251710E+02  0.59052996730E+02  0.10375598984E+03  0.41800000000E+01 0.  1.
        -11    1    3    3    0    0 -0.76796634760E+02 -0.61572682427E+02  0.47864723113E+03  0.48866357569E+03  0.00000000000E+00 0. -1.
         11    1    3    3    0    0  0.17450371504E+02 -0.63200861946E+01  0.23496835733E+02  0.29942615861E+02  0.00000000000E+00 0.  1.
</event>
<event>
 7    1  0.1758121E-005  0.5911400E+02  0.7561462E-02  0.1401588E+00
          3   -1    0    0  501    0  0.00000000000E+00  0.00000000000E+00  0.66744809173E+02  0.66744809173E+02  0.00000000000E+00 0. -1.
         -3   -1    0    0    0  501 -0.00000000000E+00 -0.00000000000E+00 -0.26128403682E+03  0.26128403682E+03  0.00000000000E+00 0.  1.
         23    2    1    2    0    0 -0.71510758306E+01 -0.28657758742E+02 -0.11511600533E+01  0.95822430887E+02  0.91149372296E+02 0.  0.
          5    1    1    2  502    0 -0.21741602928E+02 -0.10237898273E+02 -0.18016427162E+03  0.18180800045E+03  0.41800000000E+01 0.  1.
         -5    1    1    2    0  502  0.28892678758E+02  0.38895657015E+02 -0.13223795980E+02  0.50398414663E+02  0.41800000000E+01 0.  1.
        -11    1    3    3    0    0 -0.16745245819E+02 -0.19913055843E+01 -0.42483223859E+02  0.45707689341E+02  0.00000000000E+00 0.  1.
         11    1    3    3    0    0  0.95941699883E+01 -0.26666453158E+02  0.41332063806E+02  0.50114741546E+02  0.00000000000E+00 0. -1.
</event>
<event>
 7    1  0.1758121E-005  0.1347977E+03  0.7561462E-02  0.1220506E+00
         -1   -1    0    0    0  501 -0.00000000000E+00  0.00000000000E+00  0.72338923018E+02  0.72338923018E+02  0.00000000000E+00 0.  1.
          1   -1    0    0  501    0  0.00000000000E+00 -0.00000000000E+00 -0.27404054243E+03  0.27404054243E+03  0.00000000000E+00 0. -1.
         23    2    1    2    0    0 -0.32684731173E+02 -0.75037545227E+02 -0.13864000279E+03  0.18413513704E+03  0.89363155007E+02 0.  0.
          5    1    1    2  502    0  0.48583882952E+02  0.10467285344E+03 -0.45961714290E+02  0.12428496092E+03  0.41800000000E+01 0. -1.
         -5    1    1    2    0  502 -0.15899151779E+02 -0.29635308216E+02 -0.17099902330E+02  0.37959367487E+02  0.41800000000E+01 0. -1.
        -11    1    3    3    0    0 -0.52949437653E+01  0.20330293638E+02 -0.33711274633E+02  0.39721622654E+02  0.00000000000E+00 0. -1.
         11    1    3    3    0    0 -0.27389787408E+02 -0.95367838866E+02 -0.10492872816E+03  0.14441351438E+03  0.00000000000E+00 0.  1.
</event>
<event>
 7    1  0.1758121E-005  0.8770637E+02  0.7561462E-02  0.1308503E+00
         -3   -1    0    0    0  501 -0.00000000000E+00  0.00000000000E+00  0.30423447839E+03  0.30423447839E+03  0.00000000000E+00 0.  1.
          3   -1    0    0  501    0  0.00000000000E+00 -0.00000000000E+00 -0.83735852204E+02  0.83735852204E+02  0.00000000000E+00 0. -1.
         23    2    1    2    0    0  0.13813897369E+02 -0.65450580731E+02 -0.14698669929E+02  0.11330297575E+03  0.90260241172E+02 0.  0.
          5    1    1    2  502    0  0.19314983286E+02  0.29727395875E+02  0.22083643033E+03  0.22370290120E+03  0.41800000000E+01 0.  1.
         -5    1    1    2    0  502 -0.33128880655E+02  0.35723184857E+02  0.14360865787E+02  0.50964453651E+02  0.41800000000E+01 0.  1.
        -11    1    3    3    0    0  0.37585512849E+02 -0.49653895676E+02  0.22677269011E+02  0.66275475568E+02  0.00000000000E+00 0.  1.
         11    1    3    3    0    0 -0.23771615480E+02 -0.15796685056E+02 -0.37375938940E+02  0.47027500177E+02  0.00000000000E+00 0. -1.
</event>
<event>
 7    1  0.1758121E-005  0.9411635E+02  0.7561462E-02  0.1293179E+00
         -1   -1    0    0    0  501 -0.00000000000E+00  0.00000000000E+00  0.63296822858E+03  0.63296822858E+03  0.00000000000E+00 0.  1.
          1   -1    0    0  501    0  0.00000000000E+00 -0.00000000000E+00 -0.20603028484E+02  0.20603028484E+02  0.00000000000E+00 0. -1.
         23    2    1    2    0    0 -0.25675825733E+02  0.21538928425E+02  0.24118862602E+03  0.26045232705E+03  0.92413677997E+02 0.  0.
          5    1    1    2  502    0 -0.22745250224E+02  0.28651917052E+02  0.38844454115E+02  0.53522357702E+02  0.41800000000E+01 0.  1.
         -5    1    1    2    0  502  0.48421075958E+02 -0.50190845477E+02  0.33233211996E+03  0.33959657231E+03  0.41800000000E+01 0.  1.
        -11    1    3    3    0    0  0.26071103597E+02  0.12883943719E+02  0.16743256149E+03  0.16993928650E+03  0.00000000000E+00 0.  1.
         11    1    3    3    0    0 -0.51746929330E+02  0.86549847063E+01  0.73756064530E+02  0.90513040554E+02  0.00000000000E+00 0. -1.
</event>
<event>
 7    1  0.1758121E-005  0.7461778E+02  0.7561462E-02  0.1345059E+00
          2   -1    0    0  501    0  0.00000000000E+00  0.00000000000E+00  0.26017005460E+03  0.26017005460E+03  0.00000000000E+00 0. -1.
         -2   -1    0    0    0  501 -0.00000000000E+00 -0.00000000000E+00 -0.50778614346E+02  0.50778614346E+02  0.00000000000E+00 0.  1.
         23    2    1    2    0    0 -0.25757381161E+02  0.99998041276E+01  0.12633587435E+03  0.15827718957E+03  0.91255009857E+02 0.  0.
          5    1    1    2  502    0  0.56215935835E+02  0.92029432047E+01 -0.51096258280E+01  0.57345499226E+02  0.41800000000E+01 0.  1.
         -5    1    1    2    0  502 -0.30458554674E+02 -0.19202747332E+02  0.88165191729E+02  0.95325980144E+02  0.41800000000E+01 0.  1.
        -11    1    3    3    0    0  0.39760694176E+01  0.23055843378E+02 -0.41934704835E+01  0.23769018419E+02  0.00000000000E+00 0.  1.
         11    1    3    3    0    0 -0.29733450579E+02 -0.13056039251E+02  0.13052934483E+03  0.13450817115E+03  0.00000000000E+00 0. -1.
</event>
<event>
 7    1  0.1758121E-005  0.9048070E+02  0.7561462E-02  0.1301692E+00
          2   -1    0    0  501    0  0.00000000000E+00  0.00000000000E+00  0.17124225993E+03  0.17124225993E+03  0.00000000000E+00 0.  1.
         -2   -1    0    0    0  501 -0.00000000000E+00 -0.00000000000E+00 -0.74209025808E+02  0.74209025808E+02  0.00000000000E+00 0. -1.
         23    2    1    2    0    0  0.27872009853E+02 -0.38746598875E+01  0.58557498134E+02  0.11157950595E+03  0.90714627474E+02 0.  0.
          5    1    1    2  502    0  0.47101905282E+02  0.15238132014E+02  0.22589533217E+01  0.49732940981E+02  0.41800000000E+01 0. -1.
         -5    1    1    2    0  502 -0.74973915135E+02 -0.11363472127E+02  0.36216782668E+02  0.84138838810E+02  0.41800000000E+01 0. -1.
        -11    1    3    3    0    0 -0.59070969974E+01 -0.17832347122E+02  0.70632047690E+02  0.73087430928E+02  0.00000000000E+00 0.  1.
         11    1    3    3    0    0  0.33779106850E+02  0.13957687234E+02 -0.12074549555E+02  0.38492075022E+02  0.00000000000E+00 0. -1.
</event>
<event>
 7    1  0.1758121E-005  0.7015644E+02  0.7561462E-02  0.1359562E+00
          1   -1    0    0  501    0  0.00000000000E+00  0.00000000000E+00  0.12081553939E+02  0.12081553939E+02  0.00000000000E+00 0. -1.
         -1   -1    0    0    0  501 -0.00000000000E+00 -0.00000000000E+00 -0.17739349979E+04  0.17739349979E+04  0.00000000000E+00 0.  1.
         23    2    1    2    0    0 -0.32753811826E+02 -0.26925900448E+02 -0.26752350483E+03  0.28630059476E+03  0.92743671589E+02 0.  0.
          5    1    1    2  502    0  0.48686776650E+02  0.13101648584E+02 -0.24345179036E+03  0.24865297514E+03  0.41800000000E+01 0. -1.
         -5    1    1    2    0  502 -0.15932964823E+02  0.13824251864E+02 -0.12508781488E+04  0.12510629820E+04  0.41800000000E+01 0.  1.
        -11    1    3    3    0    0 -0.44711302709E+02 -0.73988932525E+01 -0.25723739576E+03  0.26119900840E+03  0.00000000000E+00 0.  1.
         11    1    3    3    0    0  0.11957490883E+02 -0.19527007196E+02 -0.10286109076E+02  0.25101586368E+02  0.00000000000E+00 0. -1.
</event>
<event>
 7    1  0.1758121E-005  0.9351025E+02  0.7561462E-02  0.1294567E+00
          1   -1    0    0  501    0  0.00000000000E+00  0.00000000000E+00  0.40260480602E+03  0.40260480602E+03  0.00000000000E+00 0. -1.
         -1   -1    0    0    0  501 -0.00000000000E+00 -0.00000000000E+00 -0.32928975649E+02  0.32928975649E+02  0.00000000000E+00 0.  1.
         23    2    1    2    0    0 -0.69440096849E+01  0.23899992555E+02  0.21904363788E+03  0.23815919253E+03  0.90112467362E+02 0.  0.
          5    1    1    2  502    0 -0.46119157780E+01  0.43494574162E+02  0.10822830174E+03  0.11680704365E+03  0.41800000000E+01 0. -1.
         -5    1    1    2    0  502  0.11555925463E+02 -0.67394566717E+02  0.42403890752E+02  0.80567545495E+02  0.41800000000E+01 0. -1.
        -11    1    3    3    0    0 -0.24139097360E+02  0.42730165311E+02  0.20104150716E+03  0.20694504259E+03  0.00000000000E+00 0. -1.
         11    1    3    3    0    0  0.17195087675E+02 -0.18830172756E+02  0.18002130723E+02  0.31214149944E+02  0.00000000000E+00 0.  1.
</event>
<event>
 6    1  0.1814613E-005  0.1681700E+03  0.7561462E-02  0.1179770E+00
          2   -1    0    0  501    0  0.00000000000E+00  0.00000000000E+00  0.75634963641E+03  0.75634963641E+03  0.00000000000E+00 0. -1.
         -2   -1    0    0    0  501 -0.00000000000E+00 -0.00000000000E+00 -0.72886245168E+02  0.72886245168E+02  0.00000000000E+00 0.  1.
          5    1    1    2  502    0 -0.33248233655E+02  0.10989679162E+03  0.18993052157E+03  0.22197708277E+03  0.41800000000E+01 0. -1.
         -5    1    1    2    0  502 -0.58162611125E+01  0.48823388785E+02 -0.11224761896E+02  0.50606519989E+02  0.41800000000E+01 0. -1.
        -11    1    1    2    0    0  0.44156344164E+02 -0.67009611180E+02  0.43223368752E+03  0.43962032636E+03  0.00000000000E+00 0. -1.
         11    1    1    2    0    0 -0.50918493963E+01 -0.91710569222E+02  0.72523944047E+02  0.11703195246E+03  0.00000000000E+00 0.  1.
</event>
<event>
 7    1  0.1758121E-005  0.1281590E+03  0.7561462E-02  0.1230213E+00
         -2   -1    0    0    0  501 -0.00000000000E+00  0.00000000000E+00  0.14190470843E+03  0.14190470843E+03  0.00000000000E+00 0. -1.
          2   -1    0    0  501    0  0.00000000000E+00 -0.00000000000E+00 -0.22201781829E+03  0.22201781829E+03  0.00000000000E+00 0.  1.
         23    2    1    2    0    0  0.26297767575E+02 -0.88141711997E+02 -0.14466720909E+03  0.19576956683E+03  0.94533528114E+02 0.  0.
          5    1    1    2  502    0  0.31840477726E+02 -0.15594759676E+02  0.21141098174E+02  0.41490131154E+02  0.41800000000E+01 0.  1.
         -5    1    1    2    0  502 -0.58138245301E+02  0.10373647167E+03  0.43413001060E+02  0.12666282873E+03  0.41800000000E+01 0.  1.
        -11    1    3    3    0    0  0.38441789139E+02 -0.66553058130E+02 -0.37018732877E+02  0.85308072786E+02  0.00000000000E+00 0. -1.
         11    1    3    3    0    0 -0.12144021565E+02 -0.21588653867E+02 -0.10764847621E+03  0.11046149404E+03  0.00000000000E+00 0.  1.
</event>
<event>
 7    1  0.1758121E-005  0.1143774E+03  0.7561462E-02  0.1252672E+00
          1   -1    0    0  501    0  0.00000000000E+00  0.00000000000E+00  0.19899814419E+03  0.19899814419E+03  0.00000000000E+00 0. -1.
         -1   -1    0    0    0  501 -0.00000000000E+00 -0.00000000000E+00 -0.97345616078E+02  0.97345616078E+02  0.00000000000E+00 0.  1.
         23    2    1    2    0    0  0.37100503259E+02 -0.23258035486E+02  0.12671600186E+03  0.16146118305E+03  0.89974357172E+02 0.  0.
          5    1    1    2  502    0 -0.74778033622E+02 -0.16392677582E+02 -0.22771750741E+02  0.79978117148E+02  0.41800000000E+01 0.  1.
         -5    1    1    2    0  502  0.37677530363E+02  0.39650713068E+02 -0.22917230063E+01  0.54904460069E+02  0.41800000000E+01 0.  1.
        -11    1    3    3    0    0  0.37086535464E+02  0.27689400079E+02  0.79542830754E+02  0.92028125667E+02  0.00000000000E+00 0.  1.
         11    1    3    3    0    0  0.13967795200E-01 -0.50947435564E+02  0.47173171107E+02  0.69433057386E+02  0.00000000000E+00 0. -1.
</event>
<event>
 7    1  0.1758121E-005  0.1080571E+03  0.7561462E-02  0.1264211E+00
          3   -1    0    0  501    0  0.00000000000E+00  0.00000000000E+00  0.42858769033E+02  0.42858769033E+02  0.00000000000E+00 0. -1.
         -3   -1    0    0    0  501 -0.00000000000E+00 -0.00000000000E+00 -0.57839034779E+03  0.57839034779E+03  0.00000000000E+00 0.  1.
         23    2    1    2    0    0 -0.84173065775E+02  0.62526147584E+02 -0.16031673719E+03  0.21206881704E+03  0.90978584317E+02 0.  0.
          5    1    1    2  502    0  0.71018170862E+02 -0.47343302567E+02 -0.93301510382E+02  0.12652119637E+03  0.41800000000E+01 0.  1.
         -5    1    1    2    0  502  0.13154894913E+02 -0.15182845017E+02 -0.28191333119E+03  0.28265910342E+03  0.41800000000E+01 0.  1.
        -11    1    3    3    0    0 -0.14887624827E+02  0.30231144908E+02  0.83225988388E+00  0.33708398834E+02  0.00000000000E+00 0.  1.
         11    1    3    3    0    0 -0.69285440948E+02  0.32295002676E+02 -0.16114899707E+03  0.17836041821E+03  0.00000000000E+00 0. -1.
</event>
<event>
 7    1  0.1758121E-005  0.1173628E+03  0.7561462E-02  0.1247512E+00
          1   -1    0    0  501    0  0.00000000000E+00  0.00000000000E+00  0.34138415147E+03  0.34138415147E+03  0.00000000000E+00 0. -1.
         -1   -1    0    0    0  501 -0.00000000000E+00 -0.00000000000E+00 -0.44990916498E+02  0.44990916498E+02  0.00000000000E+00 0.  1.
         23    2    1    2    0    0  0.34940909898E+02  0.46070513503E+02  0.14133156318E+03  0.17892562555E+03  0.93254540510E+02 0.  0.
          5    1    1    2  502    0  0.22472760742E+02  0.28199284954E+02  0.77599441788E+02  0.85670125558E+02  0.41800000000E+01 0. -1.
         -5    1    1    2    0  502 -0.57413670640E+02 -0.74269798457E+02  0.77462229996E+02  0.12177931686E+03  0.41800000000E+01 0. -1.
        -11    1    3    3    0    0  0.61115488427E+02  0.13349283444E+02  0.56432946477E+02  0.84249532593E+02  0.00000000000E+00 0.  1.
         11    1    3    3    0    0 -0.26174578529E+02  0.32721230059E+02  0.84898616707E+02  0.94676092952E+02  0.00000000000E+00 0. -1.
</event>
<event>
 7    1  0.1758121E-005  0.1067226E+03  0.7561462E-02  0.1266762E+00
         -1   -1    0    0    0  501 -0.00000000000E+00  0.00000000000E+00  0.33951656088E+02  0.33951656088E+02  0.00000000000E+00 0.  1.
          1   -1    0    0  501    0  0.00000000000E+00 -0.00000000000E+00 -0.50736884215E+03  0.50736884215E+03  0.00000000000E+00 0. -1.
         23    2    1    2    0    0 -0.59766707148E+02  0.33531905153E+02 -0.26016086657E+03  0.28476106736E+03  0.93320635683E+02 0.  0.
          5    1    1    2  502    0 -0.20914991211E+02  0.32839978833E+01 -0.13943520456E+03  0.14109525212E+03  0.41800000000E+01 0. -1.
         -5    1    1    2    0  502  0.80681698359E+02 -0.36815903036E+02 -0.73821114930E+02  0.11546417876E+03  0.41800000000E+01 0. -1.
        -11    1    3    3    0    0  0.11642691525E+02 -0.13307630832E+02 -0.97578959530E+01  0.20195589562E+02  0.00000000000E+00 0.  1.
         11    1    3    3    0    0 -0.71409398673E+02  0.46839535984E+02 -0.25040297062E+03  0.26456547780E+03  0.00000000000E+00 0. -1.
</event>
<event>
 7    1  0.1758121E-005  0.9358193E+02  0.7561462E-02  0.1294402E+00
         -2   -1    0    0    0  501 -0.00000000000E+00  0.00000000000E+00  0.71458002509E+02  0.71458002509E+02  0.00000000000E+00 0. -1.
          2   -1    0    0  501    0  0.00000000000E+00 -0.00000000000E+00 -0.26438703391E+03  0.26438703391E+03  0.00000000000E+00 0.  1.
         23    2    1    2    0    0 -0.63942418054E+00 -0.59184977996E+02 -0.16023815407E+03  0.19366219770E+03  0.91244234433E+02 0.  0.
          5    1    1    2  502    0 -0.48216542361E+02  0.28803988760E+02  0.24076978009E+02  0.61250942815E+02  0.41800000000E+01 0.  1.
         -5    1    1    2    0  502  0.48855966541E+02  0.30380989236E+02 -0.56767855343E+02  0.80931895900E+02  0.41800000000E+01 0.  1.
        -11    1    3    3    0    0  0.21049769567E+02 -0.25083736676E+02 -0.48482590288E+01  0.33102753059E+02  0.00000000000E+00 0. -1.
         11    1    3    3    0    0 -0.21689193748E+02 -0.34101241320E+02 -0.15538989504E+03  0.16055944464E+03  0.00000000000E+00 0.  1.
</event>
<event>
 7    1  0.1758121E-005  0.1623764E+03  0.7561462E-02  0.1186040E+00
         -1   -1    0    0    0  501 -0.00000000000E+00  0.00000000000E+00  0.34404505431E+02  0.34404505431E+02  0.00000000000E+00 0.  1.
          1   -1    0    0  501    0  0.00000000000E+00 -0.00000000000E+00 -0.97133370139E+03  0.97133370139E+03  0.00000000000E+00 0. -1.
         23    2    1    2    0    0 -0.10672182857E+03 -0.10151304755E+03 -0.42374095668E+03  0.45764591168E+03  0.90492732268E+02 0.  0.
          5    1    1    2  502    0  0.63650165055E+02  0.20735435849E+02 -0.38334173506E+03  0.38916533768E+03  0.41800000000E+01 0. -1.
         -5    1    1    2    0  502  0.43071663512E+02  0.80777611704E+02 -0.12984650421E+03  0.15892695746E+03  0.41800000000E+01 0.  1.
        -11    1    3    3    0    0 -0.88393944078E+02 -0.11370987794E+03 -0.40060838920E+03  0.42571176538E+03  0.00000000000E+00 0. -1.
         11    1    3    3    0    0 -0.18327884489E+02  0.12196830388E+02 -0.23132567484E+02  0.31934146298E+02  0.00000000000E+00 0.  1.
</event>
<event>
 7    1  0.1758121E-005  0.8620837E+02  0.7561462E-02  0.1312302E+00
          2   -1    0    0  501    0  0.00000000000E+00  0.00000000000E+00  0.28782769161E+03  0.28782769161E+03  0.00000000000E+00 0. -1.
         -2   -1    0    0    0  501 -0.00000000000E+00 -0.00000000000E+00 -0.59141589807E+02  0.59141589807E+02  0.00000000000E+00 0.  1.
         23    2    1    2    0    0  0.27341472230E+02  0.23899889799E+02  0.18926231227E+03  0.21087701924E+03  0.85616199165E+02 0.  0.
          5    1    1    2  502    0 -0.63653908649E+02 -0.87820783919E+01  0.62965557443E+02  0.90061527920E+02  0.41800000000E+01 0. -1.
         -5    1    1    2    0  502  0.36312436419E+02 -0.15117811407E+02 -0.23541767911E+02  0.46030734263E+02  0.41800000000E+01 0. -1.
        -11    1    3    3    0    0 -0.68194234102E+01  0.32528036286E+02  0.21796787072E+02  0.39745158283E+02  0.00000000000E+00 0.  1.
         11    1    3    3    0    0  0.34160895640E+02 -0.86281464873E+01  0.16746552520E+03  0.17113186095E+03  0.00000000000E+00 0. -1.
</event>
<event>
 7    1  0.1758121E-005  0.1141896E+03  0.7561462E-02  0.1253002E+00
          1   -1    0    0  501    0  0.00000000000E+00  0.00000000000E+00  0.14272875716E+03  0.14272875716E+03  0.00000000000E+00 0. -1.
         -1   -1    0    0    0  501 -0.00000000000E+00 -0.00000000000E+00 -0.14236976323E+03  0.14236976323E+03  0.00000000000E+00 0.  1.
         23    2    1    2    0    0  0.24401286295E+01  0.65750107296E+02  0.66686750166E+02  0.12897120215E+03  0.88642075221E+02 0.  0.
          5    1    1    2  502    0  0.46280210415E+02 -0.52776679736E+02  0.29064745788E+01  0.70378660079E+02  0.41800000000E+01 0.  1.
         -5    1    1    2    0  502 -0.48720339044E+02 -0.12973427560E+02 -0.69234230815E+02  0.85748658158E+02  0.41800000000E+01 0.  1.
        -11    1    3    3    0    0  0.35684368314E+02  0.65077054343E+02  0.59077306596E+02  0.94860557127E+02  0.00000000000E+00 0.  1.
         11    1    3    3    0    0 -0.33244239685E+02  0.67305295321E+00  0.76094435703E+01  0.34110645024E+02  0.00000000000E+00 0. -1.
</event>
<event>
 7    1  0.1758121E-005  0.9930728E+02  0.7561462E-02  0.1281759E+00
         -1   -1    0    0    0  501 -0.00000000000E+00  0.00000000000E+00  0.35239262822E+03  0.35239262822E+03  0.00000000000E+00 0.  1.
          1   -1    0    0  501    0  0.00000000000E+00 -0.00000000000E+00 -0.41322441601E+02  0.41322441601E+02  0.00000000000E+00 0. -1.
         23    2    1    2    0    0  0.43140799359E+02  0.14627292069E+02  0.64104854569E+02  0.11903704478E+03  0.89360502509E+02 0.  0.
          5    1    1    2  502    0  0.26510551113E+02  0.26457788556E+02  0.58949356202E+02  0.69966584111E+02  0.41800000000E+01 0. -1.
         -5    1    1    2    0  502 -0.69651350473E+02 -0.41085080625E+02  0.18801597584E+03  0.20471144092E+03  0.41800000000E+01 0.  1.
        -11    1    3    3    0    0  0.78116395008E+01  0.37211791438E+02 -0.48531123429E+01  0.38331342700E+02  0.00000000000E+00 0. -1.
         11    1    3    3    0    0  0.35329159859E+02 -0.22584499369E+02  0.68957966912E+02  0.80705702083E+02  0.00000000000E+00 0.  1.
</event>
<event>
 7    1  0.1758121E-005  0.9360159E+02  0.7561462E-02  0.1294357E+00
          2   -1    0    0  501    0  0.00000000000E+00  0.00000000000E+00  0.18673617205E+03  0.18673617205E+03  0.00000000000E+00 0. -1.
         -2   -1    0    0    0  501 -0.00000000000E+00 -0.00000000000E+00 -0.73977752310E+02  0.73977752310E+02  0.00000000000E+00 0.  1.
         23    2    1    2    0    0 -0.46285531535E+02  0.61235795797E+01  0.61978067140E+02  0.11786203614E+03  0.88714880941E+02 0.  0.
          5    1    1    2  502    0  0.73065208451E+02  0.13806256847E+01 -0.11893151117E+02  0.74157604174E+02  0.41800000000E+01 0.  1.
         -5    1    1    2    0  502 -0.26779676916E+02 -0.75042052644E+01  0.62673503719E+02  0.68694284048E+02  0.41800000000E+01 0.  1.
        -11    1    3    3    0    0 -0.65920759946E+02  0.65220697913E+01  0.16414365929E+02  0.68245991788E+02  0.00000000000E+00 0.  1.
         11    1    3    3    0    0  0.19635228411E+02 -0.39849021162E+00  0.45563701211E+02  0.49616044353E+02  0.00000000000E+00 0. -1.
</event>
<event>
 7    1  0.1758121E-005  0.7750863E+02  0.7561462E-02  0.1336274E+00
          2   -1    0    0  501    0  0.00000000000E+00  0.00000000000E+00  0.29552899334E+03  0.29552899334E+03  0.00000000000E+00 0.  1.
         -2   -1    0    0    0  501 -0.00000000000E+00 -0.00000000000E+00 -0.65687985597E+02  0.65687985597E+02  0.00000000000E+00 0. -1.
         23    2    1    2    0    0 -0.43984076933E+02 -0.25296488007E+02  0.19539870910E+03  0.22190298579E+03  0.92118229774E+02 0.  0.
          5    1    1    2  502    0  0.12288670476E+02 -0.10310021020E+02 -0.44228350549E+02  0.47232693632E+02  0.41800000000E+01 0.  1.
         -5    1    1    2    0  502  0.31695406458E+02  0.35606509028E+02  0.78670649198E+02  0.92081299518E+02  0.41800000000E+01 0.  1.
        -11    1    3    3    0    0 -0.48424190781E+02 -0.47567222055E+02  0.82945576911E+02  0.10717980965E+03  0.00000000000E+00 0. -1.
         11    1    3    3    0    0  0.44401138479E+01  0.22270734047E+02  0.11245313219E+03  0.11472317614E+03  0.00000000000E+00 0.  1.
</event>
<event>
 7    1  0.1758121E-005  0.1007008E+03  0.7561462E-02  0.1278829E+00
         -1   -1    0    0    0  501 -0.00000000000E+00  0.00000000000E+00  0.89145327092E+02  0.89145327092E+02  0.00000000000E+00 0.  1.
          1   -1    0    0  501    0  0.00000000000E+00 -0.00000000000E+00 -0.17388944718E+03  0.17388944718E+03  0.00000000000E+00 0. -1.
         23    2    1    2    0    0  0.40534342621E+02  0.34867968288E+02 -0.67607641997E+02  0.12592666111E+03  0.91803717662E+02 0.  0.
          5    1    1    2  502    0 -0.31106298230E+02  0.44087198719E+02  0.53128172666E+01  0.54378132624E+02  0.41800000000E+01 0. -1.
         -5    1    1    2    0  502 -0.94280443917E+01 -0.78955167007E+02 -0.22449295354E+02  0.82729980539E+02  0.41800000000E+01 0. -1.
        -11    1    3    3    0    0  0.20315603596E+02 -0.67341316301E+01 -0.75965168578E+02  0.78922614727E+02  0.00000000000E+00 0. -1.
         11    1    3    3    0    0  0.20218739026E+02  0.41602099918E+02  0.83575265809E+01  0.47004046379E+02  0.00000000000E+00 0.  1.
</event>
<event>
 7    1  0.1758121E-005  0.1385987E+03  0.7561462E-02  0.1215227E+00
          1   -1    0    0  501    0  0.00000000000E+00  0.00000000000E+00  0.65467109547E+03  0.65467109547E+03  0.00000000000E+00 0. -1.
         -1   -1    0    0    0  501 -0.00000000000E+00 -0.00000000000E+00 -0.40842851824E+02  0.40842851824E+02  0.00000000000E+00 0.  1.
         23    2    1    2    0    0 -0.23203649593E+02 -0.88348739753E+02  0.45743687520E+03  0.47540112615E+03  0.91726914155E+02 0.  0.
          5    1    1    2  502    0  0.71018180810E+02  0.47855706226E+02  0.12016218276E+03  0.14761494907E+03  0.41800000000E+01 0. -1.
         -5    1    1    2    0  502 -0.47814531217E+02  0.40493033526E+02  0.36229185685E+02  0.72497872073E+02  0.41800000000E+01 0. -1.
        -11    1    3    3    0    0  0.17794429182E+02 -0.85754862168E+02  0.33484774020E+03  0.34611204430E+03  0.00000000000E+00 0.  1.
         11    1    3    3    0    0 -0.40998078775E+02 -0.25938775852E+01  0.12258913500E+03  0.12928908184E+03  0.00000000000E+00 0. -1.
</event>
<event>
 7    1  0.2553125E-005  0.1580630E+03  0.7561462E-02  0.1190901E+00
          1   -1    0    0  501    0  0.00000000000E+00  0.00000000000E+00  0.77651014962E+02  0.77651014962E+02  0.00000000000E+00 0. -1.
         -1   -1    0    0    0  501 -0.00000000000E+00 -0.00000000000E+00 -0.42846724640E+03  0.42846724640E+03  0.00000000000E+00 0.  1.
         23    2    1    2    0    0 -0.11005530726E+03  0.94225686274E+02 -0.11678869233E+03  0.20378185544E+03  0.83046946624E+02 0.  0.
          5    1    1    2  502    0  0.20560196892E+02  0.62284306936E+00 -0.13987110143E+03  0.14143729015E+03  0.41800000000E+01 0. -1.
         -5    1    1    2    0  502  0.89495110364E+02 -0.94848529343E+02 -0.94156437674E+02  0.16089911576E+03  0.41800000000E+01 0. -1.
        -11    1    3    3    0    0 -0.98538134820E+02  0.35373694319E+02 -0.57467674143E+02  0.11943029697E+03  0.00000000000E+00 0.  1.
         11    1    3    3    0    0 -0.11517172436E+02  0.58851991955E+02 -0.59321018185E+02  0.84351558471E+02  0.00000000000E+00 0. -1.
</event>
<event>
 7    1  0.1758121E-005  0.1225852E+03  0.7561462E-02  0.1238892E+00
         -3   -1    0    0    0  501 -0.00000000000E+00  0.00000000000E+00  0.43239973780E+02  0.43239973780E+02  0.00000000000E+00 0.  1.
          3   -1    0    0  501    0  0.00000000000E+00 -0.00000000000E+00 -0.52403921952E+03  0.52403921952E+03  0.00000000000E+00 0. -1.
         23    2    1    2    0    0  0.50740531785E+01 -0.83215790794E+02 -0.33717465645E+03  0.35937466500E+03  0.92264765976E+02 0.  0.
          5    1    1    2  502    0 -0.38670573042E+02  0.10060420923E+03 -0.12629254766E+03  0.16608401527E+03  0.41800000000E+01 0.  1.
         -5    1    1    2    0  502  0.33596519863E+02 -0.17388418435E+02 -0.17332041627E+02  0.41820513024E+02  0.41800000000E+01 0.  1.
        -11    1    3    3    0    0  0.16232819807E+02 -0.98294552391E+00 -0.50342170616E+01  0.17023923232E+02  0.00000000000E+00 0.  1.
         11    1    3    3    0    0 -0.11158766629E+02 -0.82232845270E+02 -0.33214043939E+03  0.34235074177E+03  0.00000000000E+00 0. -1.
</event>
<event>
 7    1  0.1988782E-005  0.2378603E+03  0.7561462E-02  0.1121227E+00
         -3   -1    0    0    0  501 -0.00000000000E+00  0.00000000000E+00  0.84163723531E+02  0.84163723531E+02  0.00000000000E+00 0.  1.
          3   -1    0    0  501    0  0.00000000000E+00 -0.00000000000E+00 -0.67915167179E+03  0.67915167179E+03  0.00000000000E+00 0. -1.
         23    2    1    2    0    0 -0.16508020778E+03 -0.13524678396E+03 -0.28500139845E+03  0.36672723205E+03  0.87862950319E+02 0.  0.
          5    1    1    2  502    0  0.17584717633E+03  0.87129640785E+02 -0.22832667500E+03  0.30110520860E+03  0.41800000000E+01 0.  1.
         -5    1    1    2    0  502 -0.10766968545E+02  0.48117143176E+02 -0.81659874814E+02  0.95482954676E+02  0.41800000000E+01 0.  1.
        -11    1    3    3    0    0 -0.14332092109E+03 -0.66806108814E+02 -0.21013859950E+03  0.26298702173E+03  0.00000000000E+00 0. -1.
         11    1    3    3    0    0 -0.21759286690E+02 -0.68440675148E+02 -0.74862798948E+02  0.10374021032E+03  0.00000000000E+00 0.  1.
</event>
<event>
 7    1  0.1758121E-005  0.1234320E+03  0.7561462E-02  0.1237540E+00
         -2   -1    0    0    0  501 -0.00000000000E+00  0.00000000000E+00  0.30346385041E+03  0.30346385041E+03  0.00000000000E+00 0.  1.
          2   -1    0    0  501    0  0.00000000000E+00 -0.00000000000E+00 -0.70608369825E+02  0.70608369825E+02  0.00000000000E+00 0. -1.
         23    2    1    2    0    0  0.19462101209E+02 -0.85273023592E+02  0.50606065210E+02  0.13634790561E+03  0.91539694074E+02 0.  0.
          5    1    1    2  502    0  0.33303079494E+02  0.55916880292E+02  0.26084102889E+02  0.70239913360E+02  0.41800000000E+01 0.  1.
         -5    1    1    2    0  502 -0.52765180703E+02  0.29356143300E+02  0.15616531249E+03  0.16748440127E+03  0.41800000000E+01 0.  1.
        -11    1    3    3    0    0  0.52511971438E+02 -0.58285336036E+02  0.51189205961E+02  0.93675089260E+02  0.00000000000E+00 0.  1.
         11    1    3    3    0    0 -0.33049870228E+02 -0.26987687557E+02 -0.58314075102E+00  0.42672816346E+02  0.00000000000E+00 0. -1.
</event>
<event>
 7    1  0.1758121E-005  0.1056169E+03  0.7561462E-02  0.1268909E+00
         -1   -1    0    0    0  501 -0.00000000000E+00  0.00000000000E+00  0.90426607512E+02  0.90426607512E+02  0.00000000000E+00 0.  1.
          1   -1    0    0  501    0  0.00000000000E+00 -0.00000000000E+00 -0.21610684907E+03  0.21610684907E+03  0.00000000000E+00 0. -1.
         23    2    1    2    0    0  0.35894541555E+02  0.66358780744E+02 -0.11279639643E+03  0.15988717848E+03  0.84551622690E+02 0.  0.
          5    1    1    2  502    0 -0.15909399984E+02  0.19505812614E+02 -0.45817351117E+02  0.52443186373E+02  0.41800000000E+01 0.  1.
         -5    1    1    2    0  502 -0.19985141570E+02 -0.85864593358E+02  0.32933505982E+02  0.94203091735E+02  0.41800000000E+01 0.  1.
        -11    1    3    3    0    0  0.73931149510E+01  0.68480889742E+02 -0.11176920479E+03  0.13128840599E+03  0.00000000000E+00 0. -1.
         11    1    3    3    0    0  0.28501426604E+02 -0.21221089975E+01 -0.10271916371E+01  0.28598772486E+02  0.00000000000E+00 0.  1.
</event>
<event>
 7    1  0.1758121E-005  0.1174226E+03  0.7561462E-02  0.1247411E+00
          1   -1    0    0  501    0  0.00000000000E+00  0.00000000000E+00  0.46131030383E+03  0.46131030383E+03  0.00000000000E+00 0. -1.
         -1   -1    0    0    0  501 -0.00000000000E+00 -0.00000000000E+00 -0.45390703738E+02  0.45390703738E+02  0.00000000000E+00 0.  1.
         23    2    1    2    0    0 -0.26019293223E+02 -0.54725527054E+02  0.31960621148E+03  0.33759799286E+03  0.90290572251E+02 0.  0.
          5    1    1    2  502    0 -0.44828812692E+02  0.20596955795E+02  0.70659288167E+02  0.86278991879E+02  0.41800000000E+01 0. -1.
         -5    1    1    2    0  502  0.70848105915E+02  0.34128571259E+02  0.25654100448E+02  0.82824022830E+02  0.41800000000E+01 0. -1.
        -11    1    3    3    0    0 -0.25902292419E+02  0.19460001730E+02  0.13048795807E+03  0.13444972154E+03  0.00000000000E+00 0. -1.
         11    1    3    3    0    0 -0.11700080413E+00 -0.74185528784E+02  0.18911825341E+03  0.20314827132E+03  0.00000000000E+00 0.  1.
</event>
<event>
 7    1  0.1758121E-005  0.1296711E+03  0.7561462E-02  0.1227945E+00
         -1   -1    0    0    0  501 -0.00000000000E+00  0.00000000000E+00  0.15302355236E+04  0.15302355236E+04  0.00000000000E+00 0.  1.
          1   -1    0    0  501    0  0.00000000000E+00 -0.00000000000E+00 -0.13868662676E+02  0.13868662676E+02  0.00000000000E+00 0. -1.
         23    2    1    2    0    0 -0.80246686699E+02 -0.47752609494E+02  0.55101410597E+03  0.56621197229E+03  0.90882397371E+02 0.  0.
          5    1    1    2  502    0  0.80572362319E+00 -0.25201812203E+02  0.49579148188E+02  0.55779430473E+02  0.41800000000E+01 0.  1.
         -5    1    1    2    0  502  0.79440963075E+02  0.72954421697E+02  0.91577360678E+03  0.92211278352E+03  0.41800000000E+01 0.  1.
        -11    1    3    3    0    0 -0.78410789622E+02 -0.35475095461E+00  0.41009426894E+03  0.41752327743E+03  0.00000000000E+00 0.  1.
         11    1    3    3    0    0 -0.18358970768E+01 -0.47397858540E+02  0.14091983702E+03  0.14868869486E+03  0.00000000000E+00 0. -1.
</event>
<event>
 7    1  0.1758121E-005  0.8308232E+02  0.7561462E-02  0.1320525E+00
         -1   -1    0    0    0  501 -0.00000000000E+00  0.00000000000E+00  0.57894791490E+03  0.57894791490E+03  0.00000000000E+00 0.  1.
          1   -1    0    0  501    0  0.00000000000E+00 -0.00000000000E+00 -0.36117897465E+02  0.36117897465E+02  0.00000000000E+00 0. -1.
         23    2    1    2    0    0  0.17770208771E+02 -0.13357745141E+02  0.52219523671E+02  0.10827862053E+03  0.92212641952E+02 0.  0.
          5    1    1    2  502    0 -0.19363546668E+02 -0.26426582599E+02  0.30555707113E+02  0.44993720057E+02  0.41800000000E+01 0. -1.
         -5    1    1    2    0  502  0.15933378979E+01  0.39784327740E+02  0.46005478665E+03  0.46179347178E+03  0.41800000000E+01 0. -1.
        -11    1    3    3    0    0  0.39785547829E+02  0.26335999695E+02  0.37091267910E+02  0.60433739345E+02  0.00000000000E+00 0.  1.
         11    1    3    3    0    0 -0.22015339059E+02 -0.39693744836E+02  0.15128255761E+02  0.47844881182E+02  0.00000000000E+00 0. -1.
</event>
<event>
 7    1  0.1758121E-005  0.9051857E+02  0.7561462E-02  0.1301601E+00
         -1   -1    0    0    0  501 -0.00000000000E+00  0.00000000000E+00  0.18209160646E+03  0.18209160646E+03  0.00000000000E+00 0.  1.
          1   -1    0    0  501    0  0.00000000000E+00 -0.00000000000E+00 -0.77136185717E+02  0.77136185717E+02  0.00000000000E+00 0. -1.
         23    2    1    2    0    0  0.47708075423E+02 -0.18017738105E+02  0.33409968820E+02  0.10637067945E+03  0.87165337623E+02 0.  0.
          5    1    1    2  502    0 -0.73642058060E+02  0.19850875998E+02 -0.24941774882E+00  0.76385499949E+02  0.41800000000E+01 0. -1.
         -5    1    1    2    0  502  0.25933982637E+02 -0.18331378935E+01  0.71794869676E+02  0.76471612784E+02  0.41800000000E+01 0. -1.
        -11    1    3    3    0    0  0.30203576127E+01  0.19645974341E+02 -0.19273824055E+02  0.27686949301E+02  0.00000000000E+00 0. -1.
         11    1    3    3    0    0  0.44687717811E+02 -0.37663712445E+02  0.52683792875E+02  0.78683730148E+02  0.00000000000E+00 0.  1.
</event>
<event>
 7    1  0.1758121E-005  0.8983797E+02  0.7561462E-02  0.1303245E+00
          1   -1    0    0  501    0  0.00000000000E+00  0.00000000000E+00  0.43680782897E+03  0.43680782897E+03  0.00000000000E+00 0. -1.
         -1   -1    0    0    0  501 -0.00000000000E+00 -0.00000000000E+00 -0.28212075410E+02  0.28212075410E+02  0.00000000000E+00 0.  1.
         23    2    1    2    0    0  0.11317221891E+02  0.27250015194E+02  0.22327818286E+03  0.23949999978E+03  0.81464471499E+02 0.  0.
          5    1    1    2  502    0  0.38418201520E+02 -0.40849647401E+02  0.15651817540E+03  0.16631314900E+03  0.41800000000E+01 0.  1.
         -5    1    1    2    0  502 -0.49735423411E+02  0.13599632207E+02  0.28799395302E+02  0.59206755592E+02  0.41800000000E+01 0.  1.
        -11    1    3    3    0    0 -0.12249497003E+02  0.42107827709E+02  0.19474544199E+03  0.19962190889E+03  0.00000000000E+00 0. -1.
         11    1    3    3    0    0  0.23566718894E+02 -0.14857812514E+02  0.28532740862E+02  0.39878090893E+02  0.00000000000E+00 0.  1.
</event>
<event>
 7    1  0.1758121E-005  0.1481438E+03  0.7561462E-02  0.1202773E+00
         -3   -1    0    0    0  501 -0.00000000000E+00  0.00000000000E+00  0.56850302699E+03  0.56850302699E+03  0.00000000000E+00 0.  1.
          3   -1    0    0  501    0  0.00000000000E+00 -0.00000000000E+00 -0.44499918169E+02  0.44499918169E+02  0.00000000000E+00 0. -1.
         23    2    1    2    0    0  0.65572191670E+02  0.80903879911E+02  0.14750259725E+03  0.20282555909E+03  0.92390698233E+02 0.  0.
          5    1    1    2  502    0 -0.85507620953E+02 -0.99615941076E+01  0.16475474153E+03  0.18593650490E+03  0.41800000000E+01 0.  1.
         -5    1    1    2    0  502  0.19935429282E+02 -0.70942285804E+02  0.21174577004E+03  0.22424088117E+03  0.41800000000E+01 0.  1.
        -11    1    3    3    0    0 -0.70827630186E+01  0.60379296680E+02  0.45562403985E+02  0.75972084718E+02  0.00000000000E+00 0.  1.
         11    1    3    3    0    0  0.72654954689E+02  0.20524583232E+02  0.10194019326E+03  0.12685347437E+03  0.00000000000E+00 0. -1.
</event>
<event>
 7    1  0.1758121E-005  0.8668789E+02  0.7561462E-02  0.1311077E+00
         -1   -1    0    0    0  501 -0.00000000000E+00  0.00000000000E+00  0.20923508806E+03  0.20923508806E+03  0.00000000000E+00 0.  1.
          1   -1    0    0  501    0  0.00000000000E+00 -0.00000000000E+00 -0.56138139192E+02  0.56138139192E+02  0.00000000000E+00 0. -1.
         23    2    1    2    0    0 -0.30244681857E+01 -0.23152956833E+02  0.61527618973E+02  0.10860247506E+03  0.86392377408E+02 0.  0.
          5    1    1    2  502    0 -0.12789690455E+02 -0.34781788498E+02  0.89021076549E+02  0.96517218480E+02  0.41800000000E+01 0.  1.
         -5    1    1    2    0  502  0.15814158640E+02  0.57934745331E+02  0.25482533451E+01  0.60253533716E+02  0.41800000000E+01 0.  1.
        -11    1    3    3    0    0 -0.24714107959E+02  0.17172108456E+02  0.54529447248E+02  0.62282654553E+02  0.00000000000E+00 0.  1.
         11    1    3    3    0    0  0.21689639774E+02 -0.40325065289E+02  0.69981717258E+01  0.46319820505E+02  0.00000000000E+00 0. -1.
</event>
<event>
 7    1  0.1758121E-005  0.7665404E+02  0.7561462E-02  0.1338824E+00
          1   -1    0    0  501    0  0.00000000000E+00  0.00000000000E+00  0.61758029854E+02  0.61758029854E+02  0.00000000000E+00 0. -1.
         -1   -1    0    0    0  501 -0.00000000000E+00 -0.00000000000E+00 -0.21938292999E+03  0.21938292999E+03  0.00000000000E+00 0.  1.
         23    2    1    2    0    0 -0.57762434326E+01  0.66033503763E+01 -0.27660566921E+02  0.10054385582E+03  0.96265210518E+02 0.  0.
          5    1    1    2  502    0  0.22343282376E+02  0.50021473392E+02 -0.10045205617E+03  0.11449654168E+03  0.41800000000E+01 0.  1.
         -5    1    1    2    0  502 -0.16567038943E+02 -0.56624823768E+02 -0.29512277043E+02  0.66100562345E+02  0.41800000000E+01 0.  1.
        -11    1    3    3    0    0 -0.19763777716E+02 -0.57209762437E+01  0.31996988899E+02  0.38041343002E+02  0.00000000000E+00 0. -1.
         11    1    3    3    0    0  0.13987534284E+02  0.12324326620E+02 -0.59657555820E+02  0.62502512816E+02  0.00000000000E+00 0.  1.
</event>
<event>
 7    1  0.1758121E-005  0.1069967E+03  0.7561462E-02  0.1266235E+00
         -2   -1    0    0    0  501 -0.00000000000E+00  0.00000000000E+00  0.11839657879E+02  0.11839657879E+02  0.00000000000E+00 0.  1.
          2   -1    0    0  501    0  0.00000000000E+00 -0.00000000000E+00 -0.97305081430E+03  0.97305081430E+03  0.00000000000E+00 0. -1.
         23    2    1    2    0    0  0.75413412125E+01 -0.10291631645E+02 -0.37972543427E+03  0.38996554390E+03  0.87857444130E+02 0.  0.
          5    1    1    2  502    0 -0.89589701396E+01  0.67316033760E+02 -0.28918473618E+03  0.29708078966E+03  0.41800000000E+01 0. -1.
         -5    1    1    2    0  502  0.14176289271E+01 -0.57024402115E+02 -0.29230098597E+03  0.29784413862E+03  0.41800000000E+01 0. -1.
        -11    1    3    3    0    0 -0.35064475684E+02  0.16162033762E+02 -0.16916620970E+03  0.17351638336E+03  0.00000000000E+00 0. -1.
         11    1    3    3    0    0  0.42605816897E+02 -0.26453665407E+02 -0.21055922457E+03  0.21644916054E+03  0.00000000000E+00 0.  1.
</event>
<event>
 7    1  0.1758121E-005  0.1220535E+03  0.7561462E-02  0.1239747E+00
         -1   -1    0    0    0  501 -0.00000000000E+00  0.00000000000E+00  0.10106154142E+03  0.10106154142E+03  0.00000000000E+00 0.  1.
          1   -1    0    0  501    0  0.00000000000E+00 -0.00000000000E+00 -0.21385911490E+03  0.21385911490E+03  0.00000000000E+00 0. -1.
         23    2    1    2    0    0 -0.77636945775E+02  0.54872649721E+02 -0.80824158383E+02  0.15458197901E+03  0.91238920536E+02 0.  0.
          5    1    1    2  502    0  0.83294313974E+02 -0.74604939482E+02 -0.58715965631E+02  0.12636802110E+03  0.41800000000E+01 0.  1.
         -5    1    1    2    0  502 -0.56573681991E+01  0.19732289761E+02  0.26742550533E+02  0.33970656208E+02  0.41800000000E+01 0.  1.
        -11    1    3    3    0    0 -0.84464407218E+02  0.37160802129E+02 -0.24978733788E+02  0.95598632015E+02  0.00000000000E+00 0.  1.
         11    1    3    3    0    0  0.68274614429E+01  0.17711847592E+02 -0.55845424595E+02  0.58983346998E+02  0.00000000000E+00 0. -1.
</event>
<event>
 7    1  0.1758121E-005  0.1703894E+03  0.7561462E-02  0.1177442E+00
          2   -1    0    0  501    0  0.00000000000E+00  0.00000000000E+00  0.91113309684E+02  0.91113309684E+02  0.00000000000E+00 0. -1.
         -2   -1    0    0    0  501 -0.00000000000E+00 -0.00000000000E+00 -0.38420004171E+03  0.38420004171E+03  0.00000000000E+00 0.  1.
         23    2    1    2    0    0 -0.13165935057E+03  0.23179545832E+02 -0.44991731076E+02  0.16697846779E+03  0.89364852726E+02 0.  0.
          5    1    1    2  502    0 -0.23580465960E+02 -0.93182233160E+01 -0.50244242662E+02  0.56434244757E+02  0.41800000000E+01 0.  1.
         -5    1    1    2    0  502  0.15523981653E+03 -0.13861322516E+02 -0.19785075829E+03  0.25190063885E+03  0.41800000000E+01 0.  1.
        -11    1    3    3    0    0 -0.86359372028E+02  0.56266101315E+02 -0.17645000756E+02  0.10457132181E+03  0.00000000000E+00 0. -1.
         11    1    3    3    0    0 -0.45299978540E+02 -0.33086555483E+02 -0.27346730320E+02  0.62407145974E+02  0.00000000000E+00 0.  1.
</event>
<event>
 7    1  0.1758121E-005  0.8165060E+02  0.7561462E-02  0.1324431E+00
         -1   -1    0    0    0  501 -0.00000000000E+00  0.00000000000E+00  0.10955888402E+02  0.10955888402E+02  0.00000000000E+00 0.  1.
          1   -1    0    0  501    0  0.00000000000E+00 -0.00000000000E+00 -0.11336413509E+04  0.11336413509E+04  0.00000000000E+00 0. -1.
         23    2    1    2    0    0 -0.16450523225E+02  0.16512124197E+02 -0.48660480493E+03  0.49591769654E+03  0.92773140483E+02 0.  0.
          5    1    1    2  502    0 -0.19209495006E+02  0.11848113576E+02 -0.55581795208E+03  0.55629169573E+03  0.41800000000E+01 0.  1.
         -5    1    1    2    0  502  0.35660018231E+02 -0.28360237772E+02 -0.80262705511E+02  0.92387847050E+02  0.41800000000E+01 0.  1.
        -11    1    3    3    0    0 -0.60858433336E+01  0.54693416644E+02 -0.31857337772E+03  0.32329151598E+03  0.00000000000E+00 0.  1.
         11    1    3    3    0    0 -0.10364679892E+02 -0.38181292448E+02 -0.16803142721E+03  0.17262618056E+03  0.00000000000E+00 0. -1.
</event>
<event>
 7    1  0.1758121E-005  0.9351903E+02  0.7561462E-02  0.1294547E+00
         -1   -1    0    0    0  501 -0.00000000000E+00  0.00000000000E+00  0.18663869233E+02  0.18663869233E+02  0.00000000000E+00 0.  1.
          1   -1    0    0  501    0  0.00000000000E+00 -0.00000000000E+00 -0.72205380374E+03  0.72205380374E+03  0.00000000000E+00 0. -1.
         23    2    1    2    0    0 -0.15463401288E+02  0.38126489593E+02 -0.30405777312E+03  0.32023363519E+03  0.91682635869E+02 0.  0.
          5    1    1    2  502    0  0.46346369098E+02 -0.23630141853E+02 -0.60447349943E+02  0.79860653940E+02  0.41800000000E+01 0.  1.
         -5    1    1    2    0  502 -0.30882967810E+02 -0.14496347740E+02 -0.33888481143E+03  0.34062338384E+03  0.41800000000E+01 0.  1.
        -11    1    3    3    0    0  0.36820409819E+02  0.19013937234E+01 -0.11421099441E+03  0.12001462045E+03  0.00000000000E+00 0.  1.
         11    1    3    3    0    0 -0.52283811107E+02  0.36225095870E+02 -0.18984677871E+03  0.20021901473E+03  0.00000000000E+00 0. -1.
</event>
<event>
 7    1  0.1758121E-005  0.2194160E+03  0.7561462E-02  0.1134319E+00
          2   -1    0    0  501    0  0.00000000000E+00  0.00000000000E+00  0.22084115165E+04  0.22084115165E+04  0.00000000000E+00 0. -1.
         -2   -1    0    0    0  501 -0.00000000000E+00 -0.00000000000E+00 -0.27893152960E+02  0.27893152960E+02  0.00000000000E+00 0.  1.
         23    2    1    2    0    0  0.95819662291E+02 -0.18914832814E+03  0.74134613078E+03  0.77622753805E+03  0.89311855226E+02 0.  0.
          5    1    1    2  502    0 -0.63604262546E+01  0.41325675347E+02  0.83961300301E+02  0.93889503212E+02  0.41800000000E+01 0. -1.
         -5    1    1    2    0  502 -0.89459236036E+02  0.14782265279E+03  0.13552109324E+04  0.13661876281E+04  0.41800000000E+01 0. -1.
        -11    1    3    3    0    0  0.10714299335E+03 -0.15861985820E+03  0.55559537938E+03  0.58764454054E+03  0.00000000000E+00 0.  1.
         11    1    3    3    0    0 -0.11323331060E+02 -0.30528469935E+02  0.18575075141E+03  0.18858299752E+03  0.00000000000E+00 0. -1.
</event>
<event>
 7    1  0.1758121E-005  0.6017250E+02  0.7561462E-02  0.1397109E+00
          1   -1    0    0  501    0  0.00000000000E+00  0.00000000000E+00  0.28334717416E+03  0.28334717416E+03  0.00000000000E+00 0. -1.
         -1   -1    0    0    0  501 -0.00000000000E+00 -0.00000000000E+00 -0.45299804878E+02  0.45299804878E+02  0.00000000000E+00 0.  1.
         23    2    1    2    0    0  0.12860250312E+02 -0.21692030806E+02  0.12769992342E+03  0.15995707070E+03  0.92968079396E+02 0.  0.
          5    1    1    2  502    0 -0.14993659809E+01  0.30917447626E+01 -0.28028300174E+02  0.28545840234E+02  0.41800000000E+01 0. -1.
         -5    1    1    2    0  502 -0.11360884331E+02  0.18600286043E+02  0.13837574604E+03  0.14014406811E+03  0.41800000000E+01 0. -1.
        -11    1    3    3    0    0  0.20174492925E+02  0.32394224080E+02  0.32070471936E+02  0.49848882522E+02  0.00000000000E+00 0.  1.
         11    1    3    3    0    0 -0.73142426136E+01 -0.54086254886E+02  0.95629451479E+02  0.11010818817E+03  0.00000000000E+00 0. -1.
</event>
<event>
 7    1  0.1758121E-005  0.9037042E+02  0.7561462E-02  0.1301957E+00
         -1   -1    0    0    0  501 -0.00000000000E+00  0.00000000000E+00  0.13395912201E+03  0.13395912201E+03  0.00000000000E+00 0.  1.
          1   -1    0    0  501    0  0.00000000000E+00 -0.00000000000E+00 -0.10094484397E+03  0.10094484397E+03  0.00000000000E+00 0. -1.
         23    2    1    2    0    0  0.37195478907E+01  0.24879336404E+02 -0.21300652560E+02  0.96206117994E+02  0.90382979170E+02 0.  0.
          5    1    1    2  502    0 -0.42079484991E+02 -0.55555876997E+02  0.66622218171E+01  0.70135555359E+02  0.41800000000E+01 0.  1.
         -5    1    1    2    0  502  0.38359937100E+02  0.30676540593E+02  0.47652708783E+02  0.68562292635E+02  0.41800000000E+01 0.  1.
        -11    1    3    3    0    0 -0.21569782496E+02  0.28856548373E+02  0.24616975110E+02  0.43634291154E+02  0.00000000000E+00 0.  1.
         11    1    3    3    0    0  0.25289330387E+02 -0.39772119695E+01 -0.45917627670E+02  0.52571826840E+02  0.00000000000E+00 0. -1.
</event>
<event>
 7    1  0.1758121E-005  0.1433977E+03  0.7561462E-02  0.1208829E+00
         -1   -1    0    0    0  501 -0.00000000000E+00  0.00000000000E+00  0.12307722924E+03  0.12307722924E+03  0.00000000000E+00 0.  1.
          1   -1    0    0  501    0  0.00000000000E+00 -0.00000000000E+00 -0.21573298973E+03  0.21573298973E+03  0.00000000000E+00 0. -1.
         23    2    1    2    0    0  0.76285851162E+02 -0.83588027570E+02 -0.86938986195E+02  0.17002653400E+03  0.92434547137E+02 0.  0.
          5    1    1    2  502    0  0.23485648649E+02 -0.95517013083E+01 -0.18456324522E+02  0.31637304013E+02  0.41800000000E+01 0.  1.
         -5    1    1    2    0  502 -0.99771499811E+02  0.93139728879E+02  0.12739550225E+02  0.13714638096E+03  0.41800000000E+01 0.  1.
        -11    1    3    3    0    0  0.48167797566E+02 -0.83535579629E+02 -0.10009154820E+03  0.13898434375E+03  0.00000000000E+00 0. -1.
         11    1    3    3    0    0  0.28118053596E+02 -0.52447941105E-01  0.13152562001E+02  0.31042190258E+02  0.00000000000E+00 0.  1.
</event>
<event>
 7    1  0.1758121E-005  0.1884746E+03  0.7561462E-02  0.1159844E+00
          1   -1    0    0  501    0  0.00000000000E+00  0.00000000000E+00  0.74803056684E+02  0.74803056684E+02  0.00000000000E+00 0. -1.
         -1   -1    0    0    0  501 -0.00000000000E+00 -0.00000000000E+00 -0.68838458283E+03  0.68838458283E+03  0.00000000000E+00 0.  1.
         23    2    1    2    0    0 -0.94869680184E+02 -0.14797284104E+03 -0.14695297882E+03  0.24910124145E+03  0.97775419215E+02 0.  0.
          5    1    1    2  502    0  0.11159539111E+03  0.12937589460E+03 -0.45528515117E+03  0.48630617382E+03  0.41800000000E+01 0. -1.
         -5    1    1    2    0  502 -0.16725710926E+02  0.18596946441E+02 -0.11343396157E+02  0.27780224248E+02  0.41800000000E+01 0. -1.
        -11    1    3    3    0    0 -0.49970378705E+02 -0.40887738590E+02 -0.36647212959E+01  0.64670519536E+02  0.00000000000E+00 0. -1.
         11    1    3    3    0    0 -0.44899301479E+02 -0.10708510245E+03 -0.14328825753E+03  0.18443072191E+03  0.00000000000E+00 0.  1.
</event>
<event>
 7    1  0.1758121E-005  0.1345568E+03  0.7561462E-02  0.1220847E+00
          2   -1    0    0  501    0  0.00000000000E+00  0.00000000000E+00  0.23789434951E+03  0.23789434951E+03  0.00000000000E+00 0.  1.
         -2   -1    0    0    0  501 -0.00000000000E+00 -0.00000000000E+00 -0.10079615431E+03  0.10079615431E+03  0.00000000000E+00 0. -1.
         23    2    1    2    0    0 -0.79130308119E+02  0.38713440252E+01  0.14659160205E+03  0.19031896199E+03  0.91954426396E+02 0.  0.
          5    1    1    2  502    0 -0.22700791514E+02 -0.34346071387E+02  0.16450104503E+01  0.41414454174E+02  0.41800000000E+01 0. -1.
         -5    1    1    2    0  502  0.10183109963E+03  0.30474727362E+02 -0.11138417306E+02  0.10695708766E+03  0.41800000000E+01 0. -1.
        -11    1    3    3    0    0  0.82288343945E+01  0.29249999007E+02  0.35219081724E+02  0.46515157474E+02  0.00000000000E+00 0. -1.
         11    1    3    3    0    0 -0.87359142513E+02 -0.25378654982E+02  0.11137252032E+03  0.14380380451E+03  0.00000000000E+00 0.  1.
</event>
<event>
 7    1  0.1758121E-005  0.1103207E+03  0.7561462E-02  0.1259977E+00
          1   -1    0    0  501    0  0.00000000000E+00  0.00000000000E+00  0.55119892086E+02  0.55119892086E+02  0.00000000000E+00 0. -1.
         -1   -1    0    0    0  501 -0.00000000000E+00 -0.00000000000E+00 -0.27726847452E+03  0.27726847452E+03  0.00000000000E+00 0.  1.
         23    2    1    2    0    0  0.41094956436E+02  0.16392330138E+02 -0.49145214105E+02  0.11436195345E+03  0.93305414615E+02 0.  0.
          5    1    1    2  502    0 -0.75483062853E+02  0.20002324810E+02 -0.13086782751E+03  0.15245211200E+03  0.41800000000E+01 0. -1.
         -5    1    1    2    0  502  0.34388106417E+02 -0.36394654948E+02 -0.42135540816E+02  0.65574301152E+02  0.41800000000E+01 0. -1.
        -11    1    3    3    0    0  0.14133992148E+02  0.48356540673E+02 -0.52058159434E+02  0.72444300836E+02  0.00000000000E+00 0.  1.
         11    1    3    3    0    0  0.26960964288E+02 -0.31964210535E+02  0.29129453292E+01  0.41917652618E+02  0.00000000000E+00 0. -1.
</event>
<event>
 7    1  0.1758121E-005  0.1315058E+03  0.7561462E-02  0.1225238E+00
         -1   -1    0    0    0  501 -0.00000000000E+00  0.00000000000E+00  0.77973026902E+03  0.77973026902E+03  0.00000000000E+00 0.  1.
          1   -1    0    0  501    0  0.00000000000E+00 -0.00000000000E+00 -0.30812697179E+02  0.30812697179E+02  0.00000000000E+00 0. -1.
         23    2    1    2    0    0 -0.41711616578E+02  0.73574409698E+02  0.14018072886E+03  0.18442206413E+03  0.84898811967E+02 0.  0.
          5    1    1    2  502    0  0.54298338716E+02  0.12813583169E+02  0.30369321558E+03  0.30880339877E+03  0.41800000000E+01 0. -1.
         -5    1    1    2    0  502 -0.12586722138E+02 -0.86387992866E+02  0.30504362739E+03  0.31731750330E+03  0.41800000000E+01 0.  1.
        -11    1    3    3    0    0  0.50636982286E+01 -0.16993396063E+02  0.24420914033E+02  0.30179423316E+02  0.00000000000E+00 0.  1.
         11    1    3    3    0    0 -0.46775314806E+02  0.90567805761E+02  0.11575981483E+03  0.15424264081E+03  0.00000000000E+00 0. -1.
</event>
<event>
 7    1  0.1758121E-005  0.1288431E+03  0.7561462E-02  0.1229183E+00
         -1   -1    0    0    0  501 -0.00000000000E+00  0.00000000000E+00  0.38977606842E+02  0.38977606842E+02  0.00000000000E+00 0.  1.
          1   -1    0    0  501    0  0.00000000000E+00 -0.00000000000E+00 -0.51632912919E+03  0.51632912919E+03  0.00000000000E+00 0. -1.
         23    2    1    2    0    0 -0.59317568712E+01 -0.84275408564E+02 -0.29117411220E+03  0.31562569296E+03  0.87747844477E+02 0.  0.
          5    1    1    2  502    0  0.50433253970E+02  0.43981791749E+01 -0.10783244798E+03  0.11919801308E+03  0.41800000000E+01 0. -1.
         -5    1    1    2    0  502 -0.44501497098E+02  0.79877229389E+02 -0.78344962172E+02  0.12048302999E+03  0.41800000000E+01 0. -1.
        -11    1    3    3    0    0 -0.10345415667E+02 -0.99228189839E+02 -0.20423572048E+03  0.22730044171E+03  0.00000000000E+00 0. -1.
         11    1    3    3    0    0  0.44136587958E+01  0.14952781275E+02 -0.86938391723E+02  0.88325251243E+02  0.00000000000E+00 0.  1.
</event>
<event>
 7    1  0.1758121E-005  0.1095891E+03  0.7561462E-02  0.1261333E+00
          3   -1    0    0  501    0  0.00000000000E+00  0.00000000000E+00  0.22303803483E+03  0.22303803483E+03  0.00000000000E+00 0. -1.
         -3   -1    0    0    0  501 -0.00000000000E+00 -0.00000000000E+00 -0.60263431196E+02  0.60263431196E+02  0.00000000000E+00 0.  1.
         23    2    1    2    0    0 -0.30859579809E+02 -0.35613271217E+01  0.10696252445E+03  0.14282705050E+03  0.89406867763E+02 0.  0.
          5    1    1    2  502    0  0.57818572037E+02  0.48944149268E+02  0.35465451320E+02  0.83748359132E+02  0.41800000000E+01 0. -1.
         -5    1    1    2    0  502 -0.26958992228E+02 -0.45382822147E+02  0.20346627870E+02  0.56726056391E+02  0.41800000000E+01 0. -1.
        -11    1    3    3    0    0 -0.59038139419E+02 -0.13349065079E+02  0.90150851829E+02  0.10858579801E+03  0.00000000000E+00 0. -1.
         11    1    3    3    0    0  0.28178559610E+02  0.97877379577E+01  0.16811672616E+02  0.34241252491E+02  0.00000000000E+00 0.  1.
</event>
<event>
 7    1  0.1758121E-005  0.1274771E+03  0.7561462E-02  0.1231248E+00
          1   -1    0    0  501    0  0.00000000000E+00  0.00000000000E+00  0.54638390778E+02  0.54638390778E+02  0.00000000000E+00 0. -1.
         -1   -1    0    0    0  501 -0.00000000000E+00 -0.00000000000E+00 -0.39130405494E+03  0.39130405494E+03  0.00000000000E+00 0.  1.
         23    2    1    2    0    0 -0.27988415403E+01 -0.89359047771E+02 -0.99887814368E+02  0.16362169894E+03  0.93816906642E+02 0.  0.
          5    1    1    2  502    0 -0.34187327059E+02  0.10523667137E+03 -0.19440970254E+03  0.22373228460E+03  0.41800000000E+01 0. -1.
         -5    1    1    2    0  502  0.36986168599E+02 -0.15877623596E+02 -0.42368147258E+02  0.58588462182E+02  0.41800000000E+01 0. -1.
        -11    1    3    3    0    0 -0.26313602286E+02 -0.29965349655E+02 -0.90706796322E+02  0.99086077449E+02  0.00000000000E+00 0.  1.
         11    1    3    3    0    0  0.23514760745E+02 -0.59393698116E+02 -0.91810180468E+01  0.64535621490E+02  0.00000000000E+00 0. -1.
</event>
<event>
 7    1  0.1758121E-005  0.1173163E+03  0.7561462E-02  0.1247591E+00
         -2   -1    0    0    0  501 -0.00000000000E+00  0.00000000000E+00  0.34956103173E+02  0.34956103173E+02  0.00000000000E+00 0.  1.
          2   -1    0    0  501    0  0.00000000000E+00 -0.00000000000E+00 -0.44525335022E+03  0.44525335022E+03  0.00000000000E+00 0. -1.
         23    2    1    2    0    0 -0.60661699149E+02 -0.24934492082E+00 -0.20157776785E+03  0.22942907857E+03  0.91237063110E+02 0.  0.
          5    1    1    2  502    0 -0.35173049267E+02 -0.10560058981E+02 -0.29790089186E+02  0.47471886987E+02  0.41800000000E+01 0.  1.
         -5    1    1    2    0  502  0.95834748417E+02  0.10809403902E+02 -0.17892939001E+03  0.20330848784E+03  0.41800000000E+01 0.  1.
        -11    1    3    3    0    0 -0.43806551826E+02  0.38855587290E+02 -0.70711044708E+02  0.91808618823E+02  0.00000000000E+00 0.  1.
         11    1    3    3    0    0 -0.16855147323E+02 -0.39104932211E+02 -0.13086672314E+03  0.13762045975E+03  0.00000000000E+00 0. -1.
</event>
<event>
 7    1  0.1758121E-005  0.9450550E+02  0.7561462E-02  0.1292294E+00
         -1   -1    0    0    0  501 -0.00000000000E+00  0.00000000000E+00  0.15470092344E+03  0.15470092344E+03  0.00000000000E+00 0.  1.
          1   -1    0    0  501    0  0.00000000000E+00 -0.00000000000E+00 -0.14618299929E+03  0.14618299929E+03  0.00000000000E+00 0. -1.
         23    2    1    2    0    0 -0.75733899484E+02 -0.13466233804E+02 -0.90745266732E+02  0.13114275502E+03  0.55197425437E+02 0.  0.
          5    1    1    2  502    0 -0.24266408168E+01  0.20267415243E+02 -0.18707903681E+02  0.28002049325E+02  0.41800000000E+01 0. -1.
         -5    1    1    2    0  502  0.78160540301E+02 -0.68011814393E+01  0.11797109456E+03  0.14173911839E+03  0.41800000000E+01 0.  1.
        -11    1    3    3    0    0 -0.48017686128E+02  0.14574967211E+02 -0.71280875682E+02  0.87172765748E+02  0.00000000000E+00 0. -1.
         11    1    3    3    0    0 -0.27716213357E+02 -0.28041201015E+02 -0.19464391050E+02  0.43969989267E+02  0.00000000000E+00 0.  1.
</event>
<event>
 7    1  0.1758121E-005  0.9227778E+02  0.7561462E-02  0.1297428E+00
         -1   -1    0    0    0  501 -0.00000000000E+00  0.00000000000E+00  0.30588059280E+03  0.30588059280E+03  0.00000000000E+00 0.  1.
          1   -1    0    0  501    0  0.00000000000E+00 -0.00000000000E+00 -0.42075593282E+02  0.42075593282E+02  0.00000000000E+00 0. -1.
         23    2    1    2    0    0 -0.19781439437E+02 -0.31463623698E+01  0.74326787398E+02  0.12002729494E+03  0.92091667725E+02 0.  0.
          5    1    1    2  502    0  0.13362863565E+02 -0.46243946943E+02  0.21886399572E+02  0.53042960304E+02  0.41800000000E+01 0. -1.
         -5    1    1    2    0  502  0.64185758723E+01  0.49390309313E+02  0.16759181254E+03  0.17488593083E+03  0.41800000000E+01 0. -1.
        -11    1    3    3    0    0  0.26770382092E+02 -0.23338467778E+02  0.78070473276E+01  0.36363270254E+02  0.00000000000E+00 0. -1.
         11    1    3    3    0    0 -0.46551821529E+02  0.20192105408E+02  0.66519740070E+02  0.83664024691E+02  0.00000000000E+00 0.  1.
</event>
<event>
 7    1  0.1758121E-005  0.6655005E+02  0.7561462E-02  0.1372234E+00
         -4   -1    0    0    0  501 -0.00000000000E+00  0.00000000000E+00  0.15352198986E+03  0.15352198986E+03  0.00000000000E+00 0.  1.
          4   -1    0    0  501    0  0.00000000000E+00 -0.00000000000E+00 -0.76858639327E+02  0.76858639327E+02  0.00000000000E+00 0. -1.
         23    2    1    2    0    0 -0.91456642771E+01  0.65421414315E+01  0.25112169393E+02  0.94620061904E+02  0.90531167414E+02 0.  0.
          5    1    1    2  502    0 -0.19660440559E+02 -0.43164756870E+01 -0.37106201372E+02  0.42420601900E+02  0.41800000000E+01 0. -1.
         -5    1    1    2    0  502  0.28806104836E+02 -0.22256657445E+01  0.88657382510E+02  0.93339965381E+02  0.41800000000E+01 0. -1.
        -11    1    3    3    0    0 -0.18700882707E+01 -0.38086001725E+02  0.30838835976E+02  0.49041559537E+02  0.00000000000E+00 0.  1.
         11    1    3    3    0    0 -0.72755760065E+01  0.44628143156E+02 -0.57266665830E+01  0.45578502366E+02  0.00000000000E+00 0. -1.
</event>
<event>
 7    1  0.1758121E-005  0.9669247E+02  0.7561462E-02  0.1287409E+00
          1   -1    0    0  501    0  0.00000000000E+00  0.00000000000E+00  0.20048599141E+03  0.20048599141E+03  0.00000000000E+00 0. -1.
         -1   -1    0    0    0  501 -0.00000000000E+00 -0.00000000000E+00 -0.86783890118E+02  0.86783890118E+02  0.00000000000E+00 0.  1.
         23    2    1    2    0    0 -0.60326709630E+01  0.68511800168E+01  0.13173896299E+03  0.16056395851E+03  0.91336184585E+02 0.  0.
          5    1    1    2  502    0  0.53130193307E+02 -0.35383342696E+02  0.10040067258E+02  0.64753947615E+02  0.41800000000E+01 0.  1.
         -5    1    1    2    0  502 -0.47097522344E+02  0.28532162679E+02 -0.28076928952E+02  0.61951975412E+02  0.41800000000E+01 0.  1.
        -11    1    3    3    0    0  0.24652523806E+02  0.27707860215E+02  0.18586910650E+02  0.41484282508E+02  0.00000000000E+00 0.  1.
         11    1    3    3    0    0 -0.30685194769E+02 -0.20856680198E+02  0.11315205234E+03  0.11907967600E+03  0.00000000000E+00 0. -1.
</event>
<event>
 7    1  0.1758121E-005  0.2340157E+03  0.7561462E-02  0.1123845E+00
         -1   -1    0    0    0  501 -0.00000000000E+00  0.00000000000E+00  0.49931864184E+03  0.49931864184E+03  0.00000000000E+00 0.  1.
          1   -1    0    0  501    0  0.00000000000E+00 -0.00000000000E+00 -0.17203215361E+03  0.17203215361E+03  0.00000000000E+00 0. -1.
         23    2    1    2    0    0 -0.27840211533E+02  0.22681299017E+03 -0.11350222787E+02  0.24410138355E+03  0.85073192042E+02 0.  0.
          5    1    1    2  502    0  0.27013279239E+02 -0.71796347587E+02  0.21688797502E+03  0.23009193573E+03  0.41800000000E+01 0. -1.
         -5    1    1    2    0  502  0.82693229372E+00 -0.15501664258E+03  0.12174873600E+03  0.19715747618E+03  0.41800000000E+01 0. -1.
        -11    1    3    3    0    0 -0.29791892385E+01  0.19822074201E+03 -0.32220599361E+02  0.20084448002E+03  0.00000000000E+00 0. -1.
         11    1    3    3    0    0 -0.24861022294E+02  0.28592248161E+02  0.20870376575E+02  0.43256903528E+02  0.00000000000E+00 0.  1.
</event>
<event>
 7    1  0.1758121E-005  0.1224800E+03  0.7561462E-02  0.1239061E+00
          2   -1    0    0  501    0  0.00000000000E+00  0.00000000000E+00  0.15780229516E+03  0.15780229516E+03  0.00000000000E+00 0. -1.
         -2   -1    0    0    0  501 -0.00000000000E+00 -0.00000000000E+00 -0.13155477944E+03  0.13155477944E+03  0.00000000000E+00 0.  1.
         23    2    1    2    0    0 -0.10345671997E+02  0.81014210770E+02  0.61161521113E+02  0.13593934984E+03  0.89824494954E+02 0.  0.
          5    1    1    2  502    0 -0.26861830543E+02 -0.81946098172E+02 -0.62767719520E+02  0.10674258738E+03  0.41800000000E+01 0. -1.
         -5    1    1    2    0  502  0.37207502540E+02  0.93188740212E+00  0.27853714124E+02  0.46675137385E+02  0.41800000000E+01 0. -1.
        -11    1    3    3    0    0  0.39817919385E+02  0.32728904015E+02  0.21862205382E+02  0.55987533312E+02  0.00000000000E+00 0. -1.
         11    1    3    3    0    0 -0.50163591383E+02  0.48285306755E+02  0.39299315731E+02  0.79951816526E+02  0.00000000000E+00 0.  1.
</event>
<event>
 7    1  0.1758121E-005  0.8916462E+02  0.7561462E-02  0.1304887E+00
          4   -1    0    0  501    0  0.00000000000E+00  0.00000000000E+00  0.52061142468E+02  0.52061142468E+02  0.00000000000E+00 0.  1.
         -4   -1    0    0    0  501 -0.00000000000E+00 -0.00000000000E+00 -0.22922001248E+03  0.22922001248E+03  0.00000000000E+00 0. -1.
         23    2    1    2    0    0  0.20235233260E+01 -0.24411373152E+02 -0.57969326090E+02  0.10677273124E+03  0.86255223508E+02 0.  0.
          5    1    1    2  502    0  0.13805750007E+02  0.73893504552E+02 -0.72951318093E+02  0.10483423086E+03  0.41800000000E+01 0.  1.
         -5    1    1    2    0  502 -0.15829273333E+02 -0.49482131400E+02 -0.46238225834E+02  0.69674192858E+02  0.41800000000E+01 0.  1.
        -11    1    3    3    0    0 -0.64159992181E+01 -0.36009731085E+02 -0.75636194901E+02  0.84016068451E+02  0.00000000000E+00 0. -1.
         11    1    3    3    0    0  0.84395225441E+01  0.11598357933E+02  0.17666868812E+02  0.22756662785E+02  0.00000000000E+00 0.  1.
</event>
<event>
 7    1  0.1758121E-005  0.7331851E+02  0.7561462E-02  0.1349159E+00
         -1   -1    0    0    0  501 -0.00000000000E+00  0.00000000000E+00  0.61457507482E+02  0.61457507482E+02  0.00000000000E+00 0.  1.
          1   -1    0    0  501    0  0.00000000000E+00 -0.00000000000E+00 -0.35501806768E+03  0.35501806768E+03  0.00000000000E+00 0. -1.
         23    2    1    2    0    0 -0.12140393302E+02 -0.10816709173E+02 -0.28255695345E+03  0.28985439849E+03  0.62551978644E+02 0.  0.
          5    1    1    2  502    0  0.91362740919E+01 -0.35412436782E+02  0.42168597489E+02  0.55974772865E+02  0.41800000000E+01 0.  1.
         -5    1    1    2    0  502  0.30041192102E+01  0.46229145955E+02 -0.53172204239E+02  0.70646403812E+02  0.41800000000E+01 0.  1.
        -11    1    3    3    0    0 -0.34001175786E+02  0.74689997083E+01 -0.12580587704E+03  0.13053346165E+03  0.00000000000E+00 0.  1.
         11    1    3    3    0    0  0.21860782484E+02 -0.18285708881E+02 -0.15675107641E+03  0.15932093684E+03  0.00000000000E+00 0. -1.
</event>
<event>
 7    1  0.1758121E-005  0.9457700E+02  0.7561462E-02  0.1292132E+00
          1   -1    0    0  501    0  0.00000000000E+00  0.00000000000E+00  0.29029617626E+02  0.29029617626E+02  0.00000000000E+00 0. -1.
         -1   -1    0    0    0  501 -0.00000000000E+00 -0.00000000000E+00 -0.43051484107E+03  0.43051484107E+03  0.00000000000E+00 0.  1.
         23    2    1    2    0    0 -0.31266532935E+02  0.87367198540E+01 -0.17124012362E+03  0.19551088193E+03  0.88585544309E+02 0.  0.
          5    1    1    2  502    0  0.72957649310E+02 -0.75766367140E+01 -0.82564519511E+02  0.11051966476E+03  0.41800000000E+01 0.  1.
         -5    1    1    2    0  502 -0.41691116375E+02 -0.11600831400E+01 -0.14768058032E+03  0.15351391201E+03  0.41800000000E+01 0.  1.
        -11    1    3    3    0    0 -0.52054690494E+02  0.27124086755E+01 -0.16492310413E+03  0.17296438431E+03  0.00000000000E+00 0.  1.
         11    1    3    3    0    0  0.20788157559E+02  0.60243111785E+01 -0.63170194928E+01  0.22546497625E+02  0.00000000000E+00 0. -1.
</event>
<event>
 7    1  0.1758121E-005  0.1249564E+03  0.7561462E-02  0.1235137E+00
          3   -1    0    0  501    0  0.00000000000E+00  0.00000000000E+00  0.48279547402E+02  0.48279547402E+02  0.00000000000E+00 0. -1.
         -3   -1    0    0    0  501 -0.00000000000E+00 -0.00000000000E+00 -0.56106991701E+03  0.56106991701E+03  0.00000000000E+00 0.  1.
         23    2    1    2    0    0 -0.56304900136E+02  0.49477636389E+02 -0.42896018900E+02  0.11758017637E+03  0.79791924124E+02 0.  0.
          5    1    1    2  502    0 -0.37942961341E+01  0.35797890534E+02 -0.74872727752E+02  0.83182230139E+02  0.41800000000E+01 0. -1.
         -5    1    1    2    0  502  0.60099196271E+02 -0.85275526923E+02 -0.39502162295E+03  0.40858705790E+03  0.41800000000E+01 0.  1.
        -11    1    3    3    0    0 -0.76845147412E+02  0.37863988507E+02 -0.30566522744E+02  0.90956971251E+02  0.00000000000E+00 0. -1.
         11    1    3    3    0    0  0.20540247276E+02  0.11613647882E+02 -0.12329496156E+02  0.26623205118E+02  0.00000000000E+00 0.  1.
</event>
<event>
 7    1  0.1758121E-005  0.2137118E+03  0.7561462E-02  0.1138660E+00
          2   -1    0    0  501    0  0.00000000000E+00  0.00000000000E+00  0.95792408586E+03  0.95792408586E+03  0.00000000000E+00 0. -1.
         -2   -1    0    0    0  501 -0.00000000000E+00 -0.00000000000E+00 -0.64150529798E+02  0.64150529798E+02  0.00000000000E+00 0.  1.
         23    2    1    2    0    0  0.15138289276E+03 -0.13502317313E+03  0.51899451455E+03  0.56454872442E+03  0.90619636995E+02 0.  0.
          5    1    1    2  502    0 -0.88597902557E+02  0.57261722928E+02  0.33262092701E+03  0.34897370493E+03  0.41800000000E+01 0. -1.
         -5    1    1    2    0  502 -0.62784990203E+02  0.77761450203E+02  0.42158114498E+02  0.10855218630E+03  0.41800000000E+01 0.  1.
        -11    1    3    3    0    0  0.14174656748E+03 -0.14847350917E+03  0.48797590627E+03  0.52939300847E+03  0.00000000000E+00 0. -1.
         11    1    3    3    0    0  0.96363252759E+01  0.13450336036E+02  0.31018608285E+02  0.35155715954E+02  0.00000000000E+00 0.  1.
</event>
<event>
 7    1  0.1758121E-005  0.8357033E+02  0.7561462E-02  0.1319214E+00
         -4   -1    0    0    0  501 -0.00000000000E+00  0.00000000000E+00  0.27911192748E+03  0.27911192748E+03  0.00000000000E+00 0. -1.
          4   -1    0    0  501    0  0.00000000000E+00 -0.00000000000E+00 -0.61754673224E+02  0.61754673224E+02  0.00000000000E+00 0.  1.
         23    2    1    2    0    0 -0.34918289948E+02 -0.40652033328E+02  0.29206157914E+02  0.10866289163E+03  0.89904113204E+02 0.  0.
          5    1    1    2  502    0 -0.62902963249E+01  0.46565072528E+02  0.87373250468E+01  0.47975900788E+02  0.41800000000E+01 0. -1.
         -5    1    1    2    0  502  0.41208586273E+02 -0.59130392002E+01  0.17941377129E+03  0.18422780828E+03  0.41800000000E+01 0. -1.
        -11    1    3    3    0    0  0.15435750577E+02 -0.43035815306E+01 -0.22657820660E+02  0.27751757547E+02  0.00000000000E+00 0.  1.
         11    1    3    3    0    0 -0.50354040525E+02 -0.36348451797E+02  0.51863978574E+02  0.80911134084E+02  0.00000000000E+00 0. -1.
</event>
<event>
 7    1  0.1758121E-005  0.1487526E+03  0.7561462E-02  0.1202014E+00
         -1   -1    0    0    0  501 -0.00000000000E+00  0.00000000000E+00  0.18775980473E+03  0.18775980473E+03  0.00000000000E+00 0.  1.
          1   -1    0    0  501    0  0.00000000000E+00 -0.00000000000E+00 -0.15967397607E+03  0.15967397607E+03  0.00000000000E+00 0. -1.
         23    2    1    2    0    0 -0.73689037477E+02  0.99688844949E+02 -0.39841878378E+02  0.15867439968E+03  0.90676622064E+02 0.  0.
          5    1    1    2  502    0  0.17517628817E+02 -0.90664348157E+02  0.88642417314E+02  0.12806967593E+03  0.41800000000E+01 0.  1.
         -5    1    1    2    0  502  0.56171408660E+02 -0.90244967926E+01 -0.20714710277E+02  0.60689705182E+02  0.41800000000E+01 0.  1.
        -11    1    3    3    0    0 -0.76515215456E+02  0.36504797132E+02 -0.16555976003E+01  0.84793392510E+02  0.00000000000E+00 0.  1.
         11    1    3    3    0    0  0.28261779793E+01  0.63184047817E+02 -0.38186280778E+02  0.73881007168E+02  0.00000000000E+00 0. -1.
</event>
<event>
 7    1  0.1758121E-005  0.1281778E+03  0.7561462E-02  0.1230185E+00
         -2   -1    0    0    0  501 -0.00000000000E+00  0.00000000000E+00  0.14007749375E+03  0.14007749375E+03  0.00000000000E+00 0.  1.
          2   -1    0    0  501    0  0.00000000000E+00 -0.00000000000E+00 -0.12360884748E+03  0.12360884748E+03  0.00000000000E+00 0. -1.
         23    2    1    2    0    0 -0.51957777360E+02 -0.48869933472E+02 -0.12091244387E+02  0.11687940362E+03  0.91797144699E+02 0.  0.
          5    1    1    2  502    0  0.91339960999E+01  0.86207872650E+02  0.13071081935E+02  0.87769885351E+02  0.41800000000E+01 0. -1.
         -5    1    1    2    0  502  0.42823781260E+02 -0.37337939178E+02  0.15488808721E+02  0.59037052256E+02  0.41800000000E+01 0. -1.
        -11    1    3    3    0    0 -0.52674245376E+02  0.10089321512E+02  0.87500053165E+01  0.54340897375E+02  0.00000000000E+00 0. -1.
         11    1    3    3    0    0  0.71646801580E+00 -0.58959254984E+02 -0.20841249703E+02  0.62538506249E+02  0.00000000000E+00 0.  1.
</event>
<event>
 7    1  0.1758121E-005  0.6821038E+02  0.7561462E-02  0.1366287E+00
          2   -1    0    0  501    0  0.00000000000E+00  0.00000000000E+00  0.34274271042E+03  0.34274271042E+03  0.00000000000E+00 0. -1.
         -2   -1    0    0    0  501 -0.00000000000E+00 -0.00000000000E+00 -0.36961029612E+02  0.36961029612E+02  0.00000000000E+00 0.  1.
         23    2    1    2    0    0 -0.73764214332E+01  0.35338920475E+02  0.19475383051E+03  0.21830499358E+03  0.91786517704E+02 0.  0.
          5    1    1    2  502    0 -0.15864509712E+01 -0.23619802855E+02  0.13269465013E+03  0.13485456791E+03  0.41800000000E+01 0. -1.
         -5    1    1    2    0  502  0.89628724044E+01 -0.11719117620E+02 -0.21666799828E+02  0.26544178539E+02  0.41800000000E+01 0.  1.
        -11    1    3    3    0    0 -0.19798812187E+02  0.63367813671E+02  0.15024441839E+03  0.16425850977E+03  0.00000000000E+00 0.  1.
         11    1    3    3    0    0  0.12422390754E+02 -0.28028893196E+02  0.44509412116E+02  0.54046483815E+02  0.00000000000E+00 0. -1.
</event>
<event>
 7    1  0.1758121E-005  0.1589593E+03  0.7561462E-02  0.1189877E+00
          1   -1    0    0  501    0  0.00000000000E+00  0.00000000000E+00  0.34280719419E+03  0.34280719419E+03  0.00000000000E+00 0. -1.
         -1   -1    0    0    0  501 -0.00000000000E+00 -0.00000000000E+00 -0.10221940787E+03  0.10221940787E+03  0.00000000000E+00 0.  1.
         23    2    1    2    0    0  0.10178319099E+03 -0.82227274979E+02  0.20384736272E+03  0.26031389792E+03  0.95333286124E+02 0.  0.
          5    1    1    2  502    0 -0.52615196488E+02  0.11118357917E+03  0.17296664513E+02  0.12428513259E+03  0.41800000000E+01 0.  1.
         -5    1    1    2    0  502 -0.49167994504E+02 -0.28956304196E+02  0.19443759091E+02  0.60427571553E+02  0.41800000000E+01 0.  1.
        -11    1    3    3    0    0  0.65284665657E+02 -0.25319606650E+02  0.17174853791E+03  0.18547433873E+03  0.00000000000E+00 0. -1.
         11    1    3    3    0    0  0.36498525335E+02 -0.56907668329E+02  0.32098824807E+02  0.74839559193E+02  0.00000000000E+00 0.  1.
</event>
<event>
 7    1  0.1758121E-005  0.1164361E+03  0.7561462E-02  0.1249095E+00
         -1   -1    0    0    0  501 -0.00000000000E+00  0.00000000000E+00  0.31359392389E+02  0.31359392389E+02  0.00000000000E+00 0.  1.
          1   -1    0    0  501    0  0.00000000000E+00 -0.00000000000E+00 -0.49125427039E+03  0.49125427039E+03  0.00000000000E+00 0. -1.
         23    2    1    2    0    0  0.96800766968E+01 -0.54821650281E+02 -0.25394659531E+03  0.27530378144E+03  0.90576937340E+02 0.  0.
          5    1    1    2  502    0  0.45418613121E+02  0.63606994543E+02 -0.14353931638E+03  0.16349222587E+03  0.41800000000E+01 0.  1.
         -5    1    1    2    0  502 -0.55098689818E+02 -0.87853442628E+01 -0.62408966307E+02  0.83817655473E+02  0.41800000000E+01 0.  1.
        -11    1    3    3    0    0  0.34387242676E+02  0.42231930665E+01 -0.45111567170E+02  0.56880324464E+02  0.00000000000E+00 0.  1.
         11    1    3    3    0    0 -0.24707165979E+02 -0.59044843347E+02 -0.20883502814E+03  0.21842345697E+03  0.00000000000E+00 0. -1.
</event>
<event>
 7    1  0.1758121E-005  0.1442684E+03  0.7561462E-02  0.1207698E+00
          2   -1    0    0  501    0  0.00000000000E+00  0.00000000000E+00  0.73289446820E+03  0.73289446820E+03  0.00000000000E+00 0. -1.
         -2   -1    0    0    0  501 -0.00000000000E+00 -0.00000000000E+00 -0.34199003317E+02  0.34199003317E+02  0.00000000000E+00 0.  1.
         23    2    1    2    0    0 -0.18298002849E+02 -0.10077050314E+03  0.44941540437E+03  0.46997789418E+03  0.91736056808E+02 0.  0.
          5    1    1    2  502    0  0.56862394041E+02  0.37843532681E+01  0.92441133154E+02  0.10867607227E+03  0.41800000000E+01 0.  1.
         -5    1    1    2    0  502 -0.38564391192E+02  0.96986149872E+02  0.15683892736E+03  0.18843950507E+03  0.41800000000E+01 0.  1.
        -11    1    3    3    0    0 -0.36148640525E+02 -0.14675947418E+02  0.23529715757E+03  0.23850966438E+03  0.00000000000E+00 0.  1.
         11    1    3    3    0    0  0.17850637676E+02 -0.86094555723E+02  0.21411824680E+03  0.23146822979E+03  0.00000000000E+00 0. -1.
</event>
<event>
 7    1  0.1758121E-005  0.1025603E+03  0.7561462E-02  0.1275002E+00
          1   -1    0    0  501    0  0.00000000000E+00  0.00000000000E+00  0.20568736311E+03  0.20568736311E+03  0.00000000000E+00 0. -1.
         -1   -1    0    0    0  501 -0.00000000000E+00 -0.00000000000E+00 -0.74416992542E+02  0.74416992542E+02  0.00000000000E+00 0.  1.
         23    2    1    2    0    0 -0.15693444087E+02  0.55733805009E+02  0.71271873485E+02  0.12977399764E+03  0.91700977662E+02 0.  0.
          5    1    1    2  502    0  0.56815182353E+02 -0.58000313426E+02  0.70515785825E+02  0.10761946735E+03  0.41800000000E+01 0. -1.
         -5    1    1    2    0  502 -0.41121738265E+02  0.22665084166E+01 -0.10517288744E+02  0.42710890659E+02  0.41800000000E+01 0. -1.
        -11    1    3    3    0    0  0.22473953114E+02  0.18555068240E+02  0.70718910498E+02  0.76488779752E+02  0.00000000000E+00 0. -1.
         11    1    3    3    0    0 -0.38167397201E+02  0.37178736769E+02  0.55296298697E+00  0.53285217883E+02  0.00000000000E+00 0.  1.
</event>
<event>
 7    1  0.3292948E-005  0.1368027E+03  0.7561462E-02  0.1217697E+00
         -1   -1    0    0    0  501 -0.00000000000E+00  0.00000000000E+00  0.68458300386E+02  0.68458300386E+02  0.00000000000E+00 0.  1.
          1   -1    0    0  501    0  0.00000000000E+00 -0.00000000000E+00 -0.41407551705E+03  0.41407551705E+03  0.00000000000E+00 0. -1.
         23    2    1    2    0    0 -0.93486057576E+02  0.84553312402E+02 -0.20030655598E+03  0.25307465493E+03  0.89639048414E+02 0.  0.
          5    1    1    2  502    0  0.31706353429E+02 -0.56288586165E+02  0.45151335487E+01  0.64896506926E+02  0.41800000000E+01 0.  1.
         -5    1    1    2    0  502  0.61779704146E+02 -0.28264726237E+02 -0.14982579424E+03  0.16456265558E+03  0.41800000000E+01 0.  1.
        -11    1    3    3    0    0 -0.58734499220E+02  0.88082284692E+02 -0.95419300807E+02  0.14252393919E+03  0.00000000000E+00 0.  1.
         11    1    3    3    0    0 -0.34751558356E+02 -0.35289722899E+01 -0.10488725517E+03  0.11055071574E+03  0.00000000000E+00 0. -1.
</event>
<event>
 7    1  0.1758121E-005  0.1466267E+03  0.7561462E-02  0.1204680E+00
         -1   -1    0    0    0  501 -0.00000000000E+00  0.00000000000E+00  0.30672910539E+03  0.30672910539E+03  0.00000000000E+00 0.  1.
          1   -1    0    0  501    0  0.00000000000E+00 -0.00000000000E+00 -0.98520584759E+02  0.98520584759E+02  0.00000000000E+00 0. -1.
         23    2    1    2    0    0  0.72467141504E+01  0.99938612682E+02 -0.91666924827E+01  0.13517754715E+03  0.90270149179E+02 0.  0.
          5    1    1    2  502    0  0.38239501411E+02  0.10927700057E+02  0.46618319733E+02  0.61419982347E+02  0.41800000000E+01 0. -1.
         -5    1    1    2    0  502 -0.45486215562E+02 -0.11086631274E+03  0.17075689338E+03  0.20865216065E+03  0.41800000000E+01 0. -1.
        -11    1    3    3    0    0  0.44833285075E+02  0.29959599401E+02  0.61771897301E+01  0.54274844263E+02  0.00000000000E+00 0.  1.
         11    1    3    3    0    0 -0.37586570924E+02  0.69979013281E+02 -0.15343882213E+02  0.80902702890E+02  0.00000000000E+00 0. -1.
</event>
<event>
 7    1  0.1758121E-005  0.9863506E+02  0.7561462E-02  0.1283193E+00
          1   -1    0    0  501    0  0.00000000000E+00  0.00000000000E+00  0.76535683029E+02  0.76535683029E+02  0.00000000000E+00 0. -1.
         -1   -1    0    0    0  501 -0.00000000000E+00 -0.00000000000E+00 -0.24034408408E+03  0.24034408408E+03  0.00000000000E+00 0.  1.
         23    2    1    2    0    0 -0.58876462985E+02  0.84987804065E+01 -0.90839409860E+01  0.10921165561E+03  0.91137262274E+02 0.  0.
          5    1    1    2  502    0  0.21090300017E+02  0.55675045472E+02 -0.43935608091E+02  0.74110198363E+02  0.41800000000E+01 0. -1.
         -5    1    1    2    0  502  0.37786162968E+02 -0.64173825878E+02 -0.11078885197E+03  0.13355791313E+03  0.41800000000E+01 0. -1.
        -11    1    3    3    0    0 -0.80599057214E+01 -0.61210963408E+01  0.37437999421E+02  0.38781873360E+02  0.00000000000E+00 0. -1.
         11    1    3    3    0    0 -0.50816557264E+02  0.14619876747E+02 -0.46521940407E+02  0.70429782248E+02  0.00000000000E+00 0.  1.
</event>
<event>
 7    1  0.1758121E-005  0.1196860E+03  0.7561462E-02  0.1243616E+00
          1   -1    0    0  501    0  0.00000000000E+00  0.00000000000E+00  0.12101562195E+03  0.12101562195E+03  0.00000000000E+00 0. -1.
         -1   -1    0    0    0  501 -0.00000000000E+00 -0.00000000000E+00 -0.15317896375E+03  0.15317896375E+03  0.00000000000E+00 0.  1.
         23    2    1    2    0    0  0.82254384735E+02  0.34461166477E+01 -0.14717791553E+02  0.12342759686E+03  0.90774989680E+02 0.  0.
          5    1    1    2  502    0  0.20893652202E+02  0.76179365045E+01 -0.38662127685E+02  0.44797434927E+02  0.41800000000E+01 0. -1.
         -5    1    1    2    0  502 -0.10314803694E+03 -0.11064053152E+02  0.21216577437E+02  0.10596955390E+03  0.41800000000E+01 0. -1.
        -11    1    3    3    0    0  0.69832366001E+02  0.35647957896E+02 -0.32173992693E+02  0.84749643358E+02  0.00000000000E+00 0.  1.
         11    1    3    3    0    0  0.12422018734E+02 -0.32201841249E+02  0.17456201140E+02  0.38677953507E+02  0.00000000000E+00 0. -1.
</event>
<event>
 7    1  0.1758121E-005  0.1098992E+03  0.7561462E-02  0.1260757E+00
         -1   -1    0    0    0  501 -0.00000000000E+00  0.00000000000E+00  0.31833670142E+03  0.31833670142E+03  0.00000000000E+00 0.  1.
          1   -1    0    0  501    0  0.00000000000E+00 -0.00000000000E+00 -0.40502273660E+02  0.40502273660E+02  0.00000000000E+00 0. -1.
         23    2    1    2    0    0  0.32813100114E+02  0.90529906030E+01  0.11581962440E+03  0.15134384870E+03  0.91280441319E+02 0.  0.
          5    1    1    2  502    0  0.13071599681E+01 -0.63845495669E+02  0.67996352427E+02  0.93375223308E+02  0.41800000000E+01 0.  1.
         -5    1    1    2    0  502 -0.34120260082E+02  0.54792505066E+02  0.94018450935E+02  0.11411990307E+03  0.41800000000E+01 0.  1.
        -11    1    3    3    0    0  0.52230789143E+02 -0.20206767161E+02  0.95671850369E+02  0.11085788978E+03  0.00000000000E+00 0.  1.
         11    1    3    3    0    0 -0.19417689029E+02  0.29259757764E+02  0.20147774026E+02  0.40485958923E+02  0.00000000000E+00 0. -1.
</event>
<event>
 7    1  0.1758121E-005  0.1445835E+03  0.7561462E-02  0.1207291E+00
         -2   -1    0    0    0  501 -0.00000000000E+00  0.00000000000E+00  0.22547471509E+03  0.22547471509E+03  0.00000000000E+00 0.  1.
          2   -1    0    0  501    0  0.00000000000E+00 -0.00000000000E+00 -0.11984365167E+03  0.11984365167E+03  0.00000000000E+00 0. -1.
         23    2    1    2    0    0 -0.12058303697E+02  0.99849988094E+02 -0.25525362717E+02  0.13808266884E+03  0.91103548132E+02 0.  0.
          5    1    1    2  502    0  0.59867372672E+02 -0.25895294488E+02  0.26848339361E+02  0.70660981551E+02  0.41800000000E+01 0.  1.
         -5    1    1    2    0  502 -0.47809068975E+02 -0.73954693605E+02  0.10430808678E+03  0.13657471637E+03  0.41800000000E+01 0.  1.
        -11    1    3    3    0    0 -0.50932833849E+02  0.70307445497E+02 -0.18291892748E+02  0.88723637192E+02  0.00000000000E+00 0.  1.
         11    1    3    3    0    0  0.38874530152E+02  0.29542542596E+02 -0.72334699694E+01  0.49359031650E+02  0.00000000000E+00 0. -1.
</event>
<event>
 7    1  0.1758121E-005  0.8458930E+02  0.7561462E-02  0.1316510E+00
         -1   -1    0    0    0  501 -0.00000000000E+00  0.00000000000E+00  0.58087584362E+03  0.58087584362E+03  0.00000000000E+00 0.  1.
          1   -1    0    0  501    0  0.00000000000E+00 -0.00000000000E+00 -0.21093482072E+02  0.21093482072E+02  0.00000000000E+00 0. -1.
         23    2    1    2    0    0  0.14483356085E+02 -0.12214467582E+02  0.19525638258E+03  0.21611139077E+03  0.90664863438E+02 0.  0.
          5    1    1    2  502    0 -0.29577092668E+02  0.39723037768E+02  0.34522243931E+03  0.34878177869E+03  0.41800000000E+01 0. -1.
         -5    1    1    2    0  502  0.15093736583E+02 -0.27508570186E+02  0.19303539660E+02  0.37076156234E+02  0.41800000000E+01 0. -1.
        -11    1    3    3    0    0  0.48282255387E+02 -0.21378697274E+02  0.14909842435E+03  0.15817257988E+03  0.00000000000E+00 0.  1.
         11    1    3    3    0    0 -0.33798899302E+02  0.91642296920E+01  0.46157958234E+02  0.57938810897E+02  0.00000000000E+00 0. -1.
</event>
<event>
 7    1  0.1758121E-005  0.1049593E+03  0.7561462E-02  0.1270200E+00
         -2   -1    0    0    0  501 -0.00000000000E+00  0.00000000000E+00  0.27728970853E+02  0.27728970853E+02  0.00000000000E+00 0.  1.
          2   -1    0    0  501    0  0.00000000000E+00 -0.00000000000E+00 -0.49311720699E+03  0.49311720699E+03  0.00000000000E+00 0. -1.
         23    2    1    2    0    0  0.28852266076E+02 -0.11429398431E+02 -0.26966429555E+03  0.28650355179E+03  0.91664434169E+02 0.  0.
          5    1    1    2  502    0  0.21824712418E+02 -0.40854501381E+02 -0.36192730245E+02  0.58930420648E+02  0.41800000000E+01 0. -1.
         -5    1    1    2    0  502 -0.50676978494E+02  0.52283899812E+02 -0.15953121034E+03  0.17541220540E+03  0.41800000000E+01 0. -1.
        -11    1    3    3    0    0  0.45604900859E+02 -0.37802018860E+02 -0.21994900479E+03  0.22778578604E+03  0.00000000000E+00 0. -1.
         11    1    3    3    0    0 -0.16752634783E+02  0.26372620429E+02 -0.49715290754E+02  0.58717765754E+02  0.00000000000E+00 0.  1.
</event>
<event>
 7    1  0.1758121E-005  0.1175738E+03  0.7561462E-02  0.1247154E+00
          2   -1    0    0  501    0  0.00000000000E+00  0.00000000000E+00  0.67817272307E+03  0.67817272307E+03  0.00000000000E+00 0.  1.
         -2   -1    0    0    0  501 -0.00000000000E+00 -0.00000000000E+00 -0.23027553762E+02  0.23027553762E+02  0.00000000000E+00 0. -1.
         23    2    1    2    0    0 -0.37516866508E+02 -0.41281346483E+02  0.21103244883E+03  0.23644732008E+03  0.90889910758E+02 0.  0.
          5    1    1    2  502    0  0.47540517685E+02  0.79736523029E+02  0.25347478445E+03  0.26997213315E+03  0.41800000000E+01 0.  1.
         -5    1    1    2    0  502 -0.10023651177E+02 -0.38455176546E+02  0.19063793603E+03  0.19478082360E+03  0.41800000000E+01 0.  1.
        -11    1    3    3    0    0  0.18624451085E+02  0.14131240033E+02  0.81494974338E+02  0.84782032090E+02  0.00000000000E+00 0.  1.
         11    1    3    3    0    0 -0.56141317593E+02 -0.55412586516E+02  0.12953747449E+03  0.15166528799E+03  0.00000000000E+00 0. -1.
</event>
<event>
 7    1  0.1758121E-005  0.9533725E+02  0.7561462E-02  0.1290418E+00
         -2   -1    0    0    0  501 -0.00000000000E+00  0.00000000000E+00  0.62264575895E+02  0.62264575895E+02  0.00000000000E+00 0.  1.
          2   -1    0    0  501    0  0.00000000000E+00 -0.00000000000E+00 -0.22371647392E+03  0.22371647392E+03  0.00000000000E+00 0. -1.
         23    2    1    2    0    0  0.36443473902E+02  0.60613721593E+01 -0.10409129112E+03  0.14349745734E+03  0.91605984263E+02 0.  0.
          5    1    1    2  502    0 -0.54799538775E+01 -0.46916858430E+02  0.18440861717E+02  0.50879851418E+02  0.41800000000E+01 0. -1.
         -5    1    1    2    0  502 -0.30963520025E+02  0.40855486271E+02 -0.75801468623E+02  0.91603741060E+02  0.41800000000E+01 0. -1.
        -11    1    3    3    0    0  0.42598748316E+02 -0.31991133809E+02 -0.85408750291E+02  0.10066151512E+03  0.00000000000E+00 0. -1.
         11    1    3    3    0    0 -0.61552744140E+01  0.38052505969E+02 -0.18682540830E+02  0.42835942215E+02  0.00000000000E+00 0.  1.
</event>
<event>
 7    1  0.1758121E-005  0.9659231E+02  0.7561462E-02  0.1287630E+00
          1   -1    0    0  501    0  0.00000000000E+00  0.00000000000E+00  0.40287896914E+03  0.40287896914E+03  0.00000000000E+00 0. -1.
         -1   -1    0    0    0  501 -0.00000000000E+00 -0.00000000000E+00 -0.32908746780E+02  0.32908746780E+02  0.00000000000E+00 0.  1.
         23    2    1    2    0    0  0.22771668850E+02 -0.33718008724E+02  0.17776554282E+03  0.20288052290E+03  0.88907060156E+02 0.  0.
          5    1    1    2  502    0  0.40652585135E+02  0.16193404139E+02  0.19584410199E+02  0.48123596485E+02  0.41800000000E+01 0. -1.
         -5    1    1    2    0  502 -0.63424253985E+02  0.17524604585E+02  0.17262026934E+03  0.18478359653E+03  0.41800000000E+01 0. -1.
        -11    1    3    3    0    0 -0.19572910935E+02 -0.35903368807E+02  0.14083512728E+03  0.14665157282E+03  0.00000000000E+00 0. -1.
         11    1    3    3    0    0  0.42344579785E+02  0.21853600835E+01  0.36930415539E+02  0.56228950085E+02  0.00000000000E+00 0.  1.
</event>
<event>
 7    1  0.2088173E-005  0.1734245E+03  0.7561462E-02  0.1174323E+00
         -4   -1    0    0    0  501 -0.00000000000E+00  0.00000000000E+00  0.62905211109E+02  0.62905211109E+02  0.00000000000E+00 0.  1.
          4   -1    0    0  501    0  0.00000000000E+00 -0.00000000000E+00 -0.69869843382E+03  0.69869843382E+03  0.00000000000E+00 0. -1.
         23    2    1    2    0    0 -0.24135130661E+02  0.17028019350E+03 -0.40333631662E+03  0.44654496715E+03  0.84524402117E+02 0.  0.
          5    1    1    2  502    0  0.12158743987E+02 -0.63035408825E+02 -0.18723699793E+03  0.19798096781E+03  0.41800000000E+01 0.  1.
         -5    1    1    2    0  502  0.11976386674E+02 -0.10724478467E+03 -0.45219908158E+02  0.11707770997E+03  0.41800000000E+01 0.  1.
        -11    1    3    3    0    0 -0.29656796595E+02  0.10797148015E+03 -0.15993756156E+03  0.19523675296E+03  0.00000000000E+00 0.  1.
         11    1    3    3    0    0  0.55216659341E+01  0.62308713352E+02 -0.24339875506E+03  0.25130821419E+03  0.00000000000E+00 0. -1.
</event>
<event>
 7    1  0.1758121E-005  0.1094435E+03  0.7561462E-02  0.1261604E+00
          1   -1    0    0  501    0  0.00000000000E+00  0.00000000000E+00  0.80254250755E+02  0.80254250755E+02  0.00000000000E+00 0. -1.
         -1   -1    0    0    0  501 -0.00000000000E+00 -0.00000000000E+00 -0.18658777839E+03  0.18658777839E+03  0.00000000000E+00 0.  1.
         23    2    1    2    0    0 -0.16397482836E+02 -0.20654698969E+02  0.95221943152E+01  0.94821018088E+02  0.90580678148E+02 0.  0.
          5    1    1    2  502    0 -0.52985572507E+02  0.53299986529E+01 -0.32991762037E+02  0.62783823886E+02  0.41800000000E+01 0. -1.
         -5    1    1    2    0  502  0.69383055342E+02  0.15324700316E+02 -0.82863959911E+02  0.10923718717E+03  0.41800000000E+01 0.  1.
        -11    1    3    3    0    0  0.36806706392E+02 -0.18126100179E+02  0.56670663538E+01  0.41417445409E+02  0.00000000000E+00 0.  1.
         11    1    3    3    0    0 -0.53204189228E+02 -0.25285987898E+01  0.38551279615E+01  0.53403572679E+02  0.00000000000E+00 0. -1.
</event>
<event>
 7    1  0.1758121E-005  0.8452503E+02  0.7561462E-02  0.1316679E+00
         -4   -1    0    0    0  501 -0.00000000000E+00  0.00000000000E+00  0.84622647129E+02  0.84622647129E+02  0.00000000000E+00 0.  1.
          4   -1    0    0  501    0  0.00000000000E+00 -0.00000000000E+00 -0.12528449425E+03  0.12528449425E+03  0.00000000000E+00 0. -1.
         23    2    1    2    0    0  0.35273274548E+01 -0.35053972627E+01 -0.36286087714E+02  0.87595734120E+02  0.79571368126E+02 0.  0.
          5    1    1    2  502    0  0.42904918598E+02  0.77701667325E-01 -0.43582462528E+02  0.61300420206E+02  0.41800000000E+01 0. -1.
         -5    1    1    2    0  502 -0.46432246053E+02  0.34276955954E+01  0.39206703125E+02  0.61010987048E+02  0.41800000000E+01 0.  1.
        -11    1    3    3    0    0  0.50057802783E+01 -0.41184692724E+02 -0.24035998003E+02  0.47947533314E+02  0.00000000000E+00 0. -1.
         11    1    3    3    0    0 -0.14784528235E+01  0.37679295461E+02 -0.12250089711E+02  0.39648200806E+02  0.00000000000E+00 0.  1.
</event>
<event>
 7    1  0.1758121E-005  0.1397430E+03  0.7561462E-02  0.1213675E+00
          1   -1    0    0  501    0  0.00000000000E+00  0.00000000000E+00  0.85097917903E+02  0.85097917903E+02  0.00000000000E+00 0. -1.
         -1   -1    0    0    0  501 -0.00000000000E+00 -0.00000000000E+00 -0.28740068035E+03  0.28740068035E+03  0.00000000000E+00 0.  1.
         23    2    1    2    0    0  0.75689077463E+02  0.78714618792E+02 -0.63870527301E+02  0.15631486043E+03  0.91815378207E+02 0.  0.
          5    1    1    2  502    0 -0.49920663851E+02 -0.98982567431E+02 -0.14491609889E+03  0.18250416283E+03  0.41800000000E+01 0.  1.
         -5    1    1    2    0  502 -0.25768413612E+02  0.20267948638E+02  0.64838637444E+01  0.33679574985E+02  0.41800000000E+01 0.  1.
        -11    1    3    3    0    0  0.80686394961E+02  0.29314081571E+02 -0.63296994679E+02  0.10665889201E+03  0.00000000000E+00 0. -1.
         11    1    3    3    0    0 -0.49973174977E+01  0.49400537221E+02 -0.57353262225E+00  0.49655968418E+02  0.00000000000E+00 0.  1.
</event>
<event>
 7    1  0.1758121E-005  0.1580235E+03  0.7561462E-02  0.1190946E+00
         -3   -1    0    0    0  501 -0.00000000000E+00  0.00000000000E+00  0.10829876570E+03  0.10829876570E+03  0.00000000000E+00 0.  1.
          3   -1    0    0  501    0  0.00000000000E+00 -0.00000000000E+00 -0.30125284928E+03  0.30125284928E+03  0.00000000000E+00 0. -1.
         23    2    1    2    0    0 -0.30019836829E+02 -0.13753912285E+03 -0.10837183530E+03  0.20310645543E+03  0.98435647168E+02 0.  0.
          5    1    1    2  502    0 -0.31697747220E+01  0.54501820338E+02 -0.10151117387E+03  0.11533640671E+03  0.41800000000E+01 0.  1.
         -5    1    1    2    0  502  0.33189611551E+02  0.83037302509E+02  0.16928925591E+02  0.91108752842E+02  0.41800000000E+01 0.  1.
        -11    1    3    3    0    0 -0.34137111320E+02 -0.15248968006E+03 -0.98054347592E+02  0.18448062222E+03  0.00000000000E+00 0.  1.
         11    1    3    3    0    0  0.41172744914E+01  0.14950557209E+02 -0.10317487708E+02  0.18625833208E+02  0.00000000000E+00 0. -1.
</event>
<event>
 7    1  0.1758121E-005  0.1693304E+03  0.7561462E-02  0.1178548E+00
         -2   -1    0    0    0  501 -0.00000000000E+00  0.00000000000E+00  0.34446424307E+02  0.34446424307E+02  0.00000000000E+00 0.  1.
          2   -1    0    0  501    0  0.00000000000E+00 -0.00000000000E+00 -0.10330117405E+04  0.10330117405E+04  0.00000000000E+00 0. -1.
         23    2    1    2    0    0  0.12464736123E+03 -0.79855384556E+02 -0.58969775368E+03  0.61498144555E+03  0.92438577293E+02 0.  0.
          5    1    1    2  502    0 -0.11229024123E+03  0.93051474886E+02 -0.40865808024E+03  0.43392000899E+03  0.41800000000E+01 0. -1.
         -5    1    1    2    0  502 -0.12357120000E+02 -0.13196090330E+02 -0.20948231422E+00  0.18556710310E+02  0.41800000000E+01 0. -1.
        -11    1    3    3    0    0  0.22909120269E+02 -0.68034830077E+02 -0.22505510627E+03  0.23622736242E+03  0.00000000000E+00 0.  1.
         11    1    3    3    0    0  0.10173824096E+03 -0.11820554479E+02 -0.36464264741E+03  0.37875408313E+03  0.00000000000E+00 0. -1.
</event>
<event>
 7    1  0.1758121E-005  0.1109077E+03  0.7561462E-02  0.1258898E+00
         -1   -1    0    0    0  501 -0.00000000000E+00  0.00000000000E+00  0.42463978887E+02  0.42463978887E+02  0.00000000000E+00 0.  1.
          1   -1    0    0  501    0  0.00000000000E+00 -0.00000000000E+00 -0.36817747428E+03  0.36817747428E+03  0.00000000000E+00 0. -1.
         23    2    1    2    0    0  0.30509738044E+02 -0.48584091374E+02 -0.17369021540E+03  0.20558103630E+03  0.93829704858E+02 0.  0.
          5    1    1    2  502    0 -0.65074200106E+02  0.63259111406E+02 -0.13703067394E+03  0.16441181434E+03  0.41800000000E+01 0.  1.
         -5    1    1    2    0  502  0.34564462061E+02 -0.14675020032E+02 -0.14992606062E+02  0.40648602523E+02  0.41800000000E+01 0.  1.
        -11    1    3    3    0    0 -0.11946568521E+01 -0.59604859700E+02 -0.51231371841E+02  0.78605470328E+02  0.00000000000E+00 0.  1.
         11    1    3    3    0    0  0.31704394897E+02  0.11020768326E+02 -0.12245884355E+03  0.12697556598E+03  0.00000000000E+00 0. -1.
</event>
<event>
 7    1  0.1758121E-005  0.1012069E+03  0.7561462E-02  0.1277778E+00
          2   -1    0    0  501    0  0.00000000000E+00  0.00000000000E+00  0.10961534580E+03  0.10961534580E+03  0.00000000000E+00 0. -1.
         -2   -1    0    0    0  501 -0.00000000000E+00 -0.00000000000E+00 -0.13488584088E+03  0.13488584088E+03  0.00000000000E+00 0.  1.
         23    2    1    2    0    0  0.37655510299E+02  0.21162502844E+02  0.22632025647E+02  0.10376147281E+03  0.91588458187E+02 0.  0.
          5    1    1    2  502    0 -0.18602721634E+02 -0.60664096536E+02 -0.67311494951E+02  0.92598615612E+02  0.41800000000E+01 0.  1.
         -5    1    1    2    0  502 -0.19052788665E+02  0.39501593692E+02  0.19408974224E+02  0.48141098248E+02  0.41800000000E+01 0.  1.
        -11    1    3    3    0    0 -0.21993680934E+02  0.27012007200E+02  0.26400748516E+02  0.43707780271E+02  0.00000000000E+00 0. -1.
         11    1    3    3    0    0  0.59649191233E+02 -0.58495043562E+01 -0.37687228691E+01  0.60053692543E+02  0.00000000000E+00 0.  1.
</event>
<event>
 7    1  0.1758121E-005  0.2749742E+03  0.7561462E-02  0.1098466E+00
         -4   -1    0    0    0  501 -0.00000000000E+00  0.00000000000E+00  0.82070115482E+02  0.82070115482E+02  0.00000000000E+00 0.  1.
          4   -1    0    0  501    0  0.00000000000E+00 -0.00000000000E+00 -0.10984093173E+04  0.10984093173E+04  0.00000000000E+00 0. -1.
         23    2    1    2    0    0  0.23951989094E+03 -0.12373098957E+03 -0.60065892247E+03  0.66948412340E+03  0.12140310707E+03 0.  0.
          5    1    1    2  502    0 -0.24001609870E+03  0.11282193144E+03 -0.42143938856E+03  0.49796098892E+03  0.41800000000E+01 0. -1.
         -5    1    1    2    0  502  0.49620776339E+00  0.10909058125E+02  0.57591092073E+01  0.13034320472E+02  0.41800000000E+01 0. -1.
        -11    1    3    3    0    0  0.14241502888E+03 -0.96947473924E+02 -0.49212132062E+03  0.52140602927E+03  0.00000000000E+00 0. -1.
         11    1    3    3    0    0  0.97104862060E+02 -0.26783515643E+02 -0.10853760186E+03  0.14807809413E+03  0.00000000000E+00 0.  1.
</event>
<event>
 7    1  0.1758121E-005  0.1192169E+03  0.7561462E-02  0.1244395E+00
         -1   -1    0    0    0  501 -0.00000000000E+00  0.00000000000E+00  0.12471579841E+04  0.12471579841E+04  0.00000000000E+00 0.  1.
          1   -1    0    0  501    0  0.00000000000E+00 -0.00000000000E+00 -0.27146696418E+02  0.27146696418E+02  0.00000000000E+00 0. -1.
         23    2    1    2    0    0  0.97548817050E+02  0.37436477582E+01  0.19358273336E+03  0.23568403040E+03  0.92427814685E+02 0.  0.
          5    1    1    2  502    0 -0.35945023008E+02 -0.22850834980E+02  0.86859100261E+02  0.96830682310E+02  0.41800000000E+01 0.  1.
         -5    1    1    2    0  502 -0.61603794042E+02  0.19107187221E+02  0.93956945403E+03  0.94178996777E+03  0.41800000000E+01 0.  1.
        -11    1    3    3    0    0  0.45371096513E+02  0.45437623052E+02  0.12143928146E+03  0.13737035003E+03  0.00000000000E+00 0. -1.
         11    1    3    3    0    0  0.52177720537E+02 -0.41693975293E+02  0.72143451899E+02  0.98313680371E+02  0.00000000000E+00 0.  1.
</event>
<event>
 7    1  0.1758121E-005  0.9397162E+02  0.7561462E-02  0.1293509E+00
         -3   -1    0    0    0  501 -0.00000000000E+00  0.00000000000E+00  0.22338998477E+03  0.22338998477E+03  0.00000000000E+00 0.  1.
          3   -1    0    0  501    0  0.00000000000E+00 -0.00000000000E+00 -0.14588312508E+03  0.14588312508E+03  0.00000000000E+00 0. -1.
         23    2    1    2    0    0 -0.12185985917E+02 -0.82899473913E+02 -0.83589073097E+02  0.14948681318E+03  0.91314583424E+02 0.  0.
          5    1    1    2  502    0  0.11867981337E+02  0.68475710206E+02  0.12870563501E+02  0.70801805585E+02  0.41800000000E+01 0.  1.
         -5    1    1    2    0  502  0.31800457967E+00  0.14423763707E+02  0.14822536928E+03  0.14898449109E+03  0.41800000000E+01 0.  1.
        -11    1    3    3    0    0  0.13960297468E+02  0.23275487373E+01 -0.53589649692E+02  0.55427050639E+02  0.00000000000E+00 0. -1.
         11    1    3    3    0    0 -0.26146283385E+02 -0.85227022650E+02 -0.29999423405E+02  0.94059762541E+02  0.00000000000E+00 0.  1.
</event>
<event>
 7    1  0.1758121E-005  0.7800808E+02  0.7561462E-02  0.1334801E+00
          1   -1    0    0  501    0  0.00000000000E+00  0.00000000000E+00  0.28862410401E+03  0.28862410401E+03  0.00000000000E+00 0. -1.
         -1   -1    0    0    0  501 -0.00000000000E+00 -0.00000000000E+00 -0.17193583250E+03  0.17193583250E+03  0.00000000000E+00 0.  1.
         23    2    1    2    0    0 -0.27974205516E+02 -0.19382143942E+02  0.25748335196E+03  0.27533882562E+03  0.91408799801E+02 0.  0.
          5    1    1    2  502    0  0.29029311042E+02 -0.18508586010E+02  0.45305252102E+01  0.34975230011E+02  0.41800000000E+01 0. -1.
         -5    1    1    2    0  502 -0.10551055259E+01  0.37890729952E+02 -0.14532560565E+03  0.15024588088E+03  0.41800000000E+01 0.  1.
        -11    1    3    3    0    0  0.23342569830E+02 -0.21645148083E+02  0.17714592148E+03  0.17998351452E+03  0.00000000000E+00 0. -1.
         11    1    3    3    0    0 -0.51316775346E+02  0.22630041406E+01  0.80337430479E+02  0.95355311103E+02  0.00000000000E+00 0.  1.
</event>
<event>
 7    1  0.1758121E-005  0.1165043E+03  0.7561462E-02  0.1248978E+00
         -4   -1    0    0    0  501 -0.00000000000E+00  0.00000000000E+00  0.32759264759E+02  0.32759264759E+02  0.00000000000E+00 0.  1.
          4   -1    0    0  501    0  0.00000000000E+00 -0.00000000000E+00 -0.56137148385E+03  0.56137148385E+03  0.00000000000E+00 0. -1.
         23    2    1    2    0    0  0.31544109027E+02 -0.68086672075E+02 -0.30182663751E+03  0.32448097899E+03  0.92508166588E+02 0.  0.
          5    1    1    2  502    0 -0.56376299884E+01  0.88939222680E+02 -0.82472746734E+02  0.12149565653E+03  0.41800000000E+01 0. -1.
         -5    1    1    2    0  502 -0.25906479038E+02 -0.20852550606E+02 -0.14431283485E+03  0.14815411309E+03  0.41800000000E+01 0. -1.
        -11    1    3    3    0    0  0.57172789777E+02 -0.30548508999E+02 -0.23415318937E+03  0.24296019300E+03  0.00000000000E+00 0. -1.
         11    1    3    3    0    0 -0.25628680750E+02 -0.37538163076E+02 -0.67673448145E+02  0.81520785987E+02  0.00000000000E+00 0.  1.
</event>
<event>
 7    1  0.1758121E-005  0.2712633E+03  0.7561462E-02  0.1100559E+00
          2   -1    0    0  501    0  0.00000000000E+00  0.00000000000E+00  0.52546654445E+03  0.52546654445E+03  0.00000000000E+00 0. -1.
         -2   -1    0    0    0  501 -0.00000000000E+00 -0.00000000000E+00 -0.15399531194E+03  0.15399531194E+03  0.00000000000E+00 0.  1.
         23    2    1    2    0    0  0.23914123591E+03 -0.10719356942E+03  0.16057724619E+03  0.32056940279E+03  0.91108166328E+02 0.  0.
          5    1    1    2  502    0 -0.17186202511E+02 -0.19023069038E+01 -0.15485413800E+02  0.23585053930E+02  0.41800000000E+01 0.  1.
         -5    1    1    2    0  502 -0.22195503340E+03  0.10909587632E+03  0.22637940012E+03  0.33530739968E+03  0.41800000000E+01 0.  1.
        -11    1    3    3    0    0  0.15914833078E+03 -0.11595886285E+03  0.11076362499E+03  0.22592748766E+03  0.00000000000E+00 0.  1.
         11    1    3    3    0    0  0.79992905134E+02  0.87652934304E+01  0.49813621199E+02  0.94641915121E+02  0.00000000000E+00 0. -1.
</event>
<event>
 7    1  0.1758121E-005  0.1276249E+03  0.7561462E-02  0.1231023E+00
          2   -1    0    0  501    0  0.00000000000E+00  0.00000000000E+00  0.39579012008E+03  0.39579012008E+03  0.00000000000E+00 0. -1.
         -2   -1    0    0    0  501 -0.00000000000E+00 -0.00000000000E+00 -0.60545317011E+02  0.60545317011E+02  0.00000000000E+00 0.  1.
         23    2    1    2    0    0  0.77352669997E+02  0.41020342524E+02  0.25273111864E+03  0.28286227556E+03  0.92043166778E+02 0.  0.
          5    1    1    2  502    0 -0.61565883698E+02  0.21822391099E+02  0.86439812424E+02  0.10842457452E+03  0.41800000000E+01 0. -1.
         -5    1    1    2    0  502 -0.15786786299E+02 -0.62842733623E+02 -0.39261279904E+01  0.65048587009E+02  0.41800000000E+01 0. -1.
        -11    1    3    3    0    0  0.69005010329E+02 -0.12988710624E+02  0.11576133019E+03  0.13539233222E+03  0.00000000000E+00 0. -1.
         11    1    3    3    0    0  0.83476596673E+01  0.54009053148E+02  0.13696978844E+03  0.14746994335E+03  0.00000000000E+00 0.  1.
</event>
<event>
 7    1  0.1758121E-005  0.1524339E+03  0.7561462E-02  0.1197514E+00
          1   -1    0    0  501    0  0.00000000000E+00  0.00000000000E+00  0.69097943746E+03  0.69097943746E+03  0.00000000000E+00 0. -1.
         -1   -1    0    0    0  501 -0.00000000000E+00 -0.00000000000E+00 -0.44187143713E+02  0.44187143713E+02  0.00000000000E+00 0.  1.
         23    2    1    2    0    0  0.11741552208E+03  0.28478796674E+02  0.43581456638E+03  0.46175833860E+03  0.93214700089E+02 0.  0.
          5    1    1    2  502    0 -0.13282850681E+03  0.50965375616E+00  0.12990319182E+03  0.18583859560E+03  0.41800000000E+01 0.  1.
         -5    1    1    2    0  502  0.15412984736E+02 -0.28988450430E+02  0.81074535558E+02  0.87569646984E+02  0.41800000000E+01 0.  1.
        -11    1    3    3    0    0  0.56515158922E+02  0.48806539535E+02  0.13605151722E+03  0.15519683253E+03  0.00000000000E+00 0.  1.
         11    1    3    3    0    0  0.60900363156E+02 -0.20327742861E+02  0.29976304916E+03  0.30656150607E+03  0.00000000000E+00 0. -1.
</event>
<event>
 7    1  0.1758121E-005  0.2020729E+03  0.7561462E-02  0.1148002E+00
         -1   -1    0    0    0  501 -0.00000000000E+00  0.00000000000E+00  0.29489837053E+02  0.29489837053E+02  0.00000000000E+00 0.  1.
          1   -1    0    0  501    0  0.00000000000E+00 -0.00000000000E+00 -0.15163581647E+04  0.15163581647E+04  0.00000000000E+00 0. -1.
         23    2    1    2    0    0  0.13354098489E+03  0.12532518920E+03 -0.65145510583E+03  0.68149773730E+03  0.80658622200E+02 0.  0.
          5    1    1    2  502    0  0.12976971897E+02 -0.16928005967E+02 -0.25630226397E+03  0.25722224262E+03  0.41800000000E+01 0. -1.
         -5    1    1    2    0  502 -0.14651795679E+03 -0.10839718323E+03 -0.57911095783E+03  0.60712802182E+03  0.41800000000E+01 0. -1.
        -11    1    3    3    0    0  0.11720984233E+03  0.57899844070E+02 -0.42844953706E+03  0.44795038217E+03  0.00000000000E+00 0. -1.
         11    1    3    3    0    0  0.16331142564E+02  0.67425345126E+02 -0.22300556877E+03  0.23354735512E+03  0.00000000000E+00 0.  1.
</event>
<event>
 7    1  0.1758121E-005  0.2222107E+03  0.7561462E-02  0.1132246E+00
          2   -1    0    0  501    0  0.00000000000E+00  0.00000000000E+00  0.11852425396E+04  0.11852425396E+04  0.00000000000E+00 0.  1.
         -2   -1    0    0    0  501 -0.00000000000E+00 -0.00000000000E+00 -0.71509554615E+02  0.71509554615E+02  0.00000000000E+00 0. -1.
         23    2    1    2    0    0  0.16862422226E+03 -0.11830377954E+03  0.92119604464E+03  0.94829131926E+03  0.90688262380E+02 0.  0.
          5    1    1    2  502    0  0.11690231742E+02  0.27250079603E+02  0.85297797147E+00  0.29957108138E+02  0.41800000000E+01 0.  1.
         -5    1    1    2    0  502 -0.18031445401E+03  0.91053699937E+02  0.19168396235E+03  0.27850366679E+03  0.41800000000E+01 0.  1.
        -11    1    3    3    0    0  0.12050815988E+03 -0.11086086709E+03  0.81744801850E+03  0.83368675856E+03  0.00000000000E+00 0.  1.
         11    1    3    3    0    0  0.48116062379E+02 -0.74429124462E+01  0.10374802614E+03  0.11460456070E+03  0.00000000000E+00 0. -1.
</event>
<event>
 7    1  0.1758121E-005  0.1425458E+03  0.7561462E-02  0.1209944E+00
          1   -1    0    0  501    0  0.00000000000E+00  0.00000000000E+00  0.21158170573E+03  0.21158170573E+03  0.00000000000E+00 0. -1.
         -1   -1    0    0    0  501 -0.00000000000E+00 -0.00000000000E+00 -0.10705110776E+03  0.10705110776E+03  0.00000000000E+00 0.  1.
         23    2    1    2    0    0 -0.10633404231E+03 -0.85649803044E+01  0.68769108348E+02  0.15038724452E+03  0.80665020990E+02 0.  0.
          5    1    1    2  502    0 -0.18162087203E+02 -0.28379454601E+02  0.20482790338E+01  0.34013566441E+02  0.41800000000E+01 0.  1.
         -5    1    1    2    0  502  0.12449612951E+03  0.36944434905E+02  0.33713210597E+02  0.13423200253E+03  0.41800000000E+01 0.  1.
        -11    1    3    3    0    0 -0.54877406403E+01  0.16422039965E+02 -0.10011269575E+02  0.20000605302E+02  0.00000000000E+00 0.  1.
         11    1    3    3    0    0 -0.10084630167E+03 -0.24987020269E+02  0.78780377923E+02  0.13038663922E+03  0.00000000000E+00 0. -1.
</event>
<event>
 7    1  0.1758121E-005  0.1417824E+03  0.7561462E-02  0.1210951E+00
          1   -1    0    0  501    0  0.00000000000E+00  0.00000000000E+00  0.21607134123E+03  0.21607134123E+03  0.00000000000E+00 0. -1.
         -1   -1    0    0    0  501 -0.00000000000E+00 -0.00000000000E+00 -0.18672640352E+03  0.18672640352E+03  0.00000000000E+00 0.  1.
         23    2    1    2    0    0 -0.89455428010E+02  0.69431065250E+02  0.13898737809E+03  0.20157234892E+03  0.92146482070E+02 0.  0.
          5    1    1    2  502    0  0.27381289416E+02 -0.79394569768E+02 -0.11886659712E+02  0.84923482017E+02  0.41800000000E+01 0. -1.
         -5    1    1    2    0  502  0.62074138594E+02  0.99635045183E+01 -0.97755780662E+02  0.11630191382E+03  0.41800000000E+01 0. -1.
        -11    1    3    3    0    0 -0.95479683303E+02  0.35276388190E+02  0.67555199480E+02  0.12216586456E+03  0.00000000000E+00 0.  1.
         11    1    3    3    0    0  0.60242552933E+01  0.34154677060E+02  0.71432178607E+02  0.79406484354E+02  0.00000000000E+00 0. -1.
</event>
<event>
 7    1  0.1758121E-005  0.1237539E+03  0.7561462E-02  0.1237030E+00
         -1   -1    0    0    0  501 -0.00000000000E+00  0.00000000000E+00  0.31291055681E+03  0.31291055681E+03  0.00000000000E+00 0.  1.
          1   -1    0    0  501    0  0.00000000000E+00 -0.00000000000E+00 -0.76011494370E+02  0.76011494370E+02  0.00000000000E+00 0. -1.
         23    2    1    2    0    0 -0.83000822373E+00 -0.11471013482E+03  0.10116661581E+03  0.17159407797E+03  0.77786499457E+02 0.  0.
          5    1    1    2  502    0 -0.16370451203E+02  0.36598018065E+01  0.96792988321E+02  0.98324670403E+02  0.41800000000E+01 0.  1.
         -5    1    1    2    0  502  0.17200459427E+02  0.11105033301E+03  0.38939458318E+02  0.11900330281E+03  0.41800000000E+01 0.  1.
        -11    1    3    3    0    0 -0.13025864852E+02 -0.78130681211E+02  0.19940679544E+02  0.81680519112E+02  0.00000000000E+00 0.  1.
         11    1    3    3    0    0  0.12195856628E+02 -0.36579453604E+02  0.81225936263E+02  0.89913558859E+02  0.00000000000E+00 0. -1.
</event>
<event>
 7    1  0.1758121E-005  0.9672784E+02  0.7561462E-02  0.1287331E+00
          1   -1    0    0  501    0  0.00000000000E+00  0.00000000000E+00  0.15728582006E+03  0.15728582006E+03  0.00000000000E+00 0. -1.
         -1   -1    0    0    0  501 -0.00000000000E+00 -0.00000000000E+00 -0.15013963569E+03  0.15013963569E+03  0.00000000000E+00 0.  1.
         23    2    1    2    0    0 -0.77470223959E+02  0.55552127696E+02  0.55315718281E+02  0.14294034243E+03  0.91018889868E+02 0.  0.
          5    1    1    2  502    0  0.69425091871E+02 -0.55105776785E+02  0.23858921296E+02  0.91886944349E+02  0.41800000000E+01 0.  1.
         -5    1    1    2    0  502  0.80451320877E+01 -0.44635091070E+00 -0.72028455206E+02  0.72598168977E+02  0.41800000000E+01 0.  1.
        -11    1    3    3    0    0 -0.13717845015E+02  0.13657232358E+02  0.63341592533E+02  0.66233349697E+02  0.00000000000E+00 0. -1.
         11    1    3    3    0    0 -0.63752378944E+02  0.41894895338E+02 -0.80258742517E+01  0.76706992731E+02  0.00000000000E+00 0.  1.
</event>
<event>
 7    1  0.1758121E-005  0.1100583E+03  0.7561462E-02  0.1260462E+00
         -1   -1    0    0    0  501 -0.00000000000E+00  0.00000000000E+00  0.28720322127E+02  0.28720322127E+02  0.00000000000E+00 0.  1.
          1   -1    0    0  501    0  0.00000000000E+00 -0.00000000000E+00 -0.55550186713E+03  0.55550186713E+03  0.00000000000E+00 0. -1.
         23    2    1    2    0    0  0.15844426757E+02 -0.60089085805E+02 -0.27082347796E+03  0.29262768130E+03  0.91781586138E+02 0.  0.
          5    1    1    2  502    0  0.35156966910E+02  0.76269521959E+02 -0.17904767385E+03  0.19780948970E+03  0.41800000000E+01 0.  1.
         -5    1    1    2    0  502 -0.51001393667E+02 -0.16180436154E+02 -0.76910393194E+02  0.93785018267E+02  0.41800000000E+01 0.  1.
        -11    1    3    3    0    0 -0.90166965503E+01 -0.56531770184E+02 -0.25829323964E+03  0.26456103171E+03  0.00000000000E+00 0. -1.
         11    1    3    3    0    0  0.24861123307E+02 -0.35573156216E+01 -0.12530238321E+02  0.28066649585E+02  0.00000000000E+00 0.  1.
</event>
<event>
 7    1  0.1758121E-005  0.2128484E+03  0.7561462E-02  0.1139330E+00
         -1   -1    0    0    0  501 -0.00000000000E+00  0.00000000000E+00  0.43780884137E+03  0.43780884137E+03  0.00000000000E+00 0.  1.
          1   -1    0    0  501    0  0.00000000000E+00 -0.00000000000E+00 -0.14539759104E+03  0.14539759104E+03  0.00000000000E+00 0. -1.
         23    2    1    2    0    0  0.12997655737E+03  0.16244153382E+03  0.34339681648E+02  0.22890468097E+03  0.89089740493E+02 0.  0.
          5    1    1    2  502    0 -0.54103083809E+02 -0.11235647750E+03  0.64626889707E+02  0.14051771770E+03  0.41800000000E+01 0.  1.
         -5    1    1    2    0  502 -0.75873473556E+02 -0.50085056322E+02  0.19344467898E+03  0.21378403374E+03  0.41800000000E+01 0.  1.
        -11    1    3    3    0    0  0.85622090056E+02  0.84877492343E+02  0.61734184828E+02  0.13544903318E+03  0.00000000000E+00 0.  1.
         11    1    3    3    0    0  0.44354467309E+02  0.77564041477E+02 -0.27394503180E+02  0.93455647796E+02  0.00000000000E+00 0. -1.
</event>
<event>
 7    1  0.1758121E-005  0.2063922E+03  0.7561462E-02  0.1144455E+00
         -2   -1    0    0    0  501 -0.00000000000E+00  0.00000000000E+00  0.13249950869E+03  0.13249950869E+03  0.00000000000E+00 0. -1.
          2   -1    0    0  501    0  0.00000000000E+00 -0.00000000000E+00 -0.39939472578E+03  0.39939472578E+03  0.00000000000E+00 0.  1.
         23    2    1    2    0    0  0.18575302018E+03 -0.49596058572E+02 -0.20528419778E+03  0.29439211387E+03  0.86954938435E+02 0.  0.
          5    1    1    2  502    0 -0.95474488506E+02  0.75519802775E+02 -0.74228770406E+02  0.14263941013E+03  0.41800000000E+01 0. -1.
         -5    1    1    2    0  502 -0.90278531675E+02 -0.25923744204E+02  0.12617751094E+02  0.94862710470E+02  0.41800000000E+01 0. -1.
        -11    1    3    3    0    0  0.13717091409E+03 -0.16460897101E+02 -0.18760503042E+03  0.23298598294E+03  0.00000000000E+00 0.  1.
         11    1    3    3    0    0  0.48582106087E+02 -0.33135161471E+02 -0.17679167362E+02  0.61406130933E+02  0.00000000000E+00 0. -1.
</event>
<event>
 7    1  0.1758121E-005  0.2373156E+03  0.7561462E-02  0.1121594E+00
          1   -1    0    0  501    0  0.00000000000E+00  0.00000000000E+00  0.45144083638E+03  0.45144083638E+03  0.00000000000E+00 0. -1.
         -1   -1    0    0    0  501 -0.00000000000E+00 -0.00000000000E+00 -0.15115790073E+03  0.15115790073E+03  0.00000000000E+00 0.  1.
         23    2    1    2    0    0  0.21628690916E+03 -0.45700220598E+02  0.24541135948E+03  0.34273754660E+03  0.91508214090E+02 0.  0.
          5    1    1    2  502    0  0.15933742182E+02  0.66931039648E+01  0.89833875489E+01  0.19921230697E+02  0.41800000000E+01 0. -1.
         -5    1    1    2    0  502 -0.23222065135E+03  0.39007116633E+02  0.45888188621E+02  0.23993995981E+03  0.41800000000E+01 0. -1.
        -11    1    3    3    0    0  0.13177975795E+03 -0.33353021987E+02  0.83085987855E+02  0.15931606968E+03  0.00000000000E+00 0. -1.
         11    1    3    3    0    0  0.84507151213E+02 -0.12347198612E+02  0.16232537163E+03  0.18342147691E+03  0.00000000000E+00 0.  1.
</event>
<event>
 6    1  0.1758121E-005  0.1526105E+03  0.7561462E-02  0.1197301E+00
         -1   -1    0    0    0  501 -0.00000000000E+00  0.00000000000E+00  0.16601620905E+03  0.16601620905E+03  0.00000000000E+00 0.  1.
          1   -1    0    0  501    0  0.00000000000E+00 -0.00000000000E+00 -0.20102087832E+03  0.20102087832E+03  0.00000000000E+00 0. -1.
          5    1    1    2  502    0 -0.11733467099E+03 -0.11710395595E+02  0.59127351997E+02  0.13197755315E+03  0.41800000000E+01 0.  1.
         -5    1    1    2    0  502  0.24524751629E+02  0.27529378580E+02  0.59839852958E+01  0.37584712417E+02  0.41800000000E+01 0.  1.
        -11    1    1    2    0    0  0.82215819035E+02  0.41317333543E+02 -0.10445512515E+03  0.13920285960E+03  0.00000000000E+00 0. -1.
         11    1    1    2    0    0  0.10594100323E+02 -0.57136316527E+02  0.43391185903E+01  0.58271962195E+02  0.00000000000E+00 0.  1.
</event>
<event>
 7    1  0.1758121E-005  0.1508967E+03  0.7561462E-02  0.1199375E+00
          1   -1    0    0  501    0  0.00000000000E+00  0.00000000000E+00  0.53305807511E+03  0.53305807511E+03  0.00000000000E+00 0. -1.
         -1   -1    0    0    0  501 -0.00000000000E+00 -0.00000000000E+00 -0.52756932311E+02  0.52756932311E+02  0.00000000000E+00 0.  1.
         23    2    1    2    0    0  0.76179257528E+02  0.10254696131E+03  0.21080730604E+03  0.26240507289E+03  0.89986351442E+02 0.  0.
          5    1    1    2  502    0  0.31239934831E+02 -0.25833104114E+02  0.32587763933E+02  0.52179666103E+02  0.41800000000E+01 0. -1.
         -5    1    1    2    0  502 -0.10741919236E+03 -0.76713857193E+02  0.23690607283E+03  0.27123026844E+03  0.41800000000E+01 0. -1.
        -11    1    3    3    0    0  0.19951100054E+02  0.15143027943E+02  0.12542527238E+03  0.12790174604E+03  0.00000000000E+00 0. -1.
         11    1    3    3    0    0  0.56228157474E+02  0.87403933363E+02  0.85382033657E+02  0.13450332684E+03  0.00000000000E+00 0.  1.
</event>
<event>
 7    1  0.1758121E-005  0.1220915E+03  0.7561462E-02  0.1239686E+00
         -2   -1    0    0    0  501 -0.00000000000E+00  0.00000000000E+00  0.72894643766E+02  0.72894643766E+02  0.00000000000E+00 0.  1.
          2   -1    0    0  501    0  0.00000000000E+00 -0.00000000000E+00 -0.34360914041E+03  0.34360914041E+03  0.00000000000E+00 0. -1.
         23    2    1    2    0    0 -0.56837420473E+02 -0.56264262541E+02 -0.23392457402E+03  0.26354325197E+03  0.91313633813E+02 0.  0.
          5    1    1    2  502    0  0.16549434790E+02  0.92314606366E+02 -0.28475416232E+02  0.98102966672E+02  0.41800000000E+01 0. -1.
         -5    1    1    2    0  502  0.40287985684E+02 -0.36050343825E+02 -0.83145063922E+01  0.54857565539E+02  0.41800000000E+01 0. -1.
        -11    1    3    3    0    0 -0.37113056660E+02 -0.64730559006E+02 -0.22989915969E+03  0.24170446390E+03  0.00000000000E+00 0. -1.
         11    1    3    3    0    0 -0.19724363814E+02  0.84662964654E+01 -0.40254143360E+01  0.21838788068E+02  0.00000000000E+00 0.  1.
</event>
<event>
 7    1  0.1758121E-005  0.1396918E+03  0.7561462E-02  0.1213744E+00
          3   -1    0    0  501    0  0.00000000000E+00  0.00000000000E+00  0.12982968325E+03  0.12982968325E+03  0.00000000000E+00 0. -1.
         -3   -1    0    0    0  501 -0.00000000000E+00 -0.00000000000E+00 -0.16550224281E+03  0.16550224281E+03  0.00000000000E+00 0.  1.
         23    2    1    2    0    0 -0.15760375710E+02 -0.93395880872E+02 -0.40351150514E+01  0.13527074906E+03  0.96492037974E+02 0.  0.
          5    1    1    2  502    0  0.52041514790E+02 -0.44955626991E+01 -0.93993600955E+01  0.53238611138E+02  0.41800000000E+01 0.  1.
         -5    1    1    2    0  502 -0.36281139080E+02  0.97891443571E+02 -0.22238084415E+02  0.10682256585E+03  0.41800000000E+01 0.  1.
        -11    1    3    3    0    0  0.30565223265E+02 -0.23104782605E+02 -0.28330098889E+02  0.47651425535E+02  0.00000000000E+00 0.  1.
         11    1    3    3    0    0 -0.46325598975E+02 -0.70291098267E+02  0.24294983837E+02  0.87619323528E+02  0.00000000000E+00 0. -1.
</event>
<event>
 7    1  0.2534931E-005  0.2422734E+03  0.7561462E-02  0.1118288E+00
          1   -1    0    0  501    0  0.00000000000E+00  0.00000000000E+00  0.17022231018E+04  0.17022231018E+04  0.00000000000E+00 0. -1.
         -1   -1    0    0    0  501 -0.00000000000E+00 -0.00000000000E+00 -0.39685590809E+02  0.39685590809E+02  0.00000000000E+00 0.  1.
         23    2    1    2    0    0  0.85116500677E+02 -0.20882773090E+03  0.10651148340E+04  0.10912048258E+04  0.73515457241E+02 0.  0.
          5    1    1    2  502    0 -0.10459127074E+03  0.92003795302E+02  0.32025841135E+03  0.34926630915E+03  0.41800000000E+01 0. -1.
         -5    1    1    2    0  502  0.19474770061E+02  0.11682393559E+03  0.27716426565E+03  0.30143755763E+03  0.41800000000E+01 0. -1.
        -11    1    3    3    0    0  0.45420921438E+02 -0.81480273549E+02  0.28817979040E+03  0.30290210742E+03  0.00000000000E+00 0.  1.
         11    1    3    3    0    0  0.39695579239E+02 -0.12734745735E+03  0.77693504355E+03  0.78830271838E+03  0.00000000000E+00 0. -1.
</event>
<event>
 7    1  0.1758121E-005  0.8877287E+02  0.7561462E-02  0.1305851E+00
          1   -1    0    0  501    0  0.00000000000E+00  0.00000000000E+00  0.23224809245E+02  0.23224809245E+02  0.00000000000E+00 0. -1.
         -1   -1    0    0    0  501 -0.00000000000E+00 -0.00000000000E+00 -0.72579040821E+03  0.72579040821E+03  0.00000000000E+00 0.  1.
         23    2    1    2    0    0  0.39032919902E+02 -0.28219375480E+02 -0.16270153733E+03  0.19275955123E+03  0.91457926675E+02 0.  0.
          5    1    1    2  502    0  0.23097561038E+02  0.19407320590E+02 -0.30779840692E+02  0.43301413504E+02  0.41800000000E+01 0. -1.
         -5    1    1    2    0  502 -0.62130480940E+02  0.88120548895E+01 -0.50908422094E+03  0.51295425272E+03  0.41800000000E+01 0. -1.
        -11    1    3    3    0    0  0.50259774419E+02 -0.42647950445E+02 -0.62270257683E+02  0.90677878194E+02  0.00000000000E+00 0. -1.
         11    1    3    3    0    0 -0.11226854518E+02  0.14428574966E+02 -0.10043127965E+03  0.10208167304E+03  0.00000000000E+00 0.  1.
</event>
<event>
 7    1  0.1758121E-005  0.9382065E+02  0.7561462E-02  0.1293855E+00
          2   -1    0    0  501    0  0.00000000000E+00  0.00000000000E+00  0.24963002196E+03  0.24963002196E+03  0.00000000000E+00 0.  1.
         -2   -1    0    0    0  501 -0.00000000000E+00 -0.00000000000E+00 -0.64306594037E+02  0.64306594037E+02  0.00000000000E+00 0. -1.
         23    2    1    2    0    0 -0.63725447245E+02 -0.12681951476E+02  0.48441402213E+02  0.11745190666E+03  0.85009507768E+02 0.  0.
          5    1    1    2  502    0  0.74509269981E+02 -0.27359675038E+02  0.35851889109E+02  0.87195260674E+02  0.41800000000E+01 0.  1.
         -5    1    1    2    0  502 -0.10783822736E+02  0.40041626514E+02  0.10103013660E+03  0.10928944866E+03  0.41800000000E+01 0.  1.
        -11    1    3    3    0    0 -0.28777137764E+02  0.13745407215E+01 -0.22882568915E+02  0.36791642805E+02  0.00000000000E+00 0. -1.
         11    1    3    3    0    0 -0.34948309481E+02 -0.14056492197E+02  0.71323971128E+02  0.80660263860E+02  0.00000000000E+00 0.  1.
</event>
<event>
 7    1  0.1758121E-005  0.1287726E+03  0.7561462E-02  0.1229288E+00
          1   -1    0    0  501    0  0.00000000000E+00  0.00000000000E+00  0.12001826248E+03  0.12001826248E+03  0.00000000000E+00 0. -1.
         -1   -1    0    0    0  501 -0.00000000000E+00 -0.00000000000E+00 -0.14045986166E+03  0.14045986166E+03  0.00000000000E+00 0.  1.
         23    2    1    2    0    0 -0.25648166457E+02  0.68038199769E+02  0.53298432714E+00  0.11427519954E+03  0.88156180085E+02 0.  0.
          5    1    1    2  502    0  0.46923714282E+02 -0.97340434879E+02 -0.13346864956E+02  0.10896149058E+03  0.41800000000E+01 0.  1.
         -5    1    1    2    0  502 -0.21275547824E+02  0.29302235110E+02 -0.76277185464E+01  0.37241434020E+02  0.41800000000E+01 0.  1.
        -11    1    3    3    0    0 -0.57450128354E+02  0.35929862410E+02  0.88126539414E+01  0.68331070021E+02  0.00000000000E+00 0.  1.
         11    1    3    3    0    0  0.31801961896E+02  0.32108337359E+02 -0.82796696143E+01  0.45944129520E+02  0.00000000000E+00 0. -1.
</event>
<event>
 7    1  0.1758121E-005  0.1466123E+03  0.7561462E-02  0.1204699E+00
          2   -1    0    0  501    0  0.00000000000E+00  0.00000000000E+00  0.85981057207E+02  0.85981057207E+02  0.00000000000E+00 0. -1.
         -2   -1    0    0    0  501 -0.00000000000E+00 -0.00000000000E+00 -0.45131844629E+03  0.45131844629E+03  0.00000000000E+00 0.  1.
         23    2    1    2    0    0 -0.13788281460E+03  0.15749033301E+02 -0.53690128253E+02  0.17393800306E+03  0.90067177288E+02 0.  0.
          5    1    1    2  502    0  0.13855348328E+03 -0.43814458146E+01 -0.16213375125E+03  0.21335672122E+03  0.41800000000E+01 0. -1.
         -5    1    1    2    0  502 -0.67066867846E+00 -0.11367587487E+02 -0.14951350957E+03  0.15000477921E+03  0.41800000000E+01 0. -1.
        -11    1    3    3    0    0 -0.33961010108E+02  0.18053045049E+02  0.22953373185E+02  0.44789730784E+02  0.00000000000E+00 0. -1.
         11    1    3    3    0    0 -0.10392180449E+03 -0.23040117482E+01 -0.76643501439E+02  0.12914827227E+03  0.00000000000E+00 0.  1.
</event>
<event>
 7    1  0.1758121E-005  0.1382911E+03  0.7561462E-02  0.1215647E+00
         -1   -1    0    0    0  501 -0.00000000000E+00  0.00000000000E+00  0.10677730055E+03  0.10677730055E+03  0.00000000000E+00 0.  1.
          1   -1    0    0  501    0  0.00000000000E+00 -0.00000000000E+00 -0.21263038986E+03  0.21263038986E+03  0.00000000000E+00 0. -1.
         23    2    1    2    0    0 -0.81475252196E+01 -0.97195461492E+02 -0.86153410220E+02  0.15956932359E+03  0.92339693715E+02 0.  0.
          5    1    1    2  502    0  0.46159264876E+02  0.98816975751E+02 -0.40327722181E+02  0.11635836887E+03  0.41800000000E+01 0. -1.
         -5    1    1    2    0  502 -0.38011739657E+02 -0.16215142582E+01  0.20628043093E+02  0.43479997954E+02  0.41800000000E+01 0. -1.
        -11    1    3    3    0    0  0.13984261709E+02 -0.10482262885E+03 -0.51181276586E+02  0.11748559983E+03  0.00000000000E+00 0.  1.
         11    1    3    3    0    0 -0.22131786929E+02  0.76271673541E+01 -0.34972133634E+02  0.42083723759E+02  0.00000000000E+00 0. -1.
</event>
<event>
 7    1  0.1758121E-005  0.7749181E+02  0.7561462E-02  0.1336324E+00
          3   -1    0    0  501    0  0.00000000000E+00  0.00000000000E+00  0.23842867730E+02  0.23842867730E+02  0.00000000000E+00 0. -1.
         -3   -1    0    0    0  501 -0.00000000000E+00 -0.00000000000E+00 -0.67529809626E+03  0.67529809626E+03  0.00000000000E+00 0.  1.
         23    2    1    2    0    0  0.35328337690E+02  0.40292917897E+02 -0.17512942890E+03  0.20375267569E+03  0.89292918572E+02 0.  0.
          5    1    1    2  502    0 -0.26302115505E+02 -0.36337555828E+02 -0.48142691979E+03  0.48353032040E+03  0.41800000000E+01 0.  1.
         -5    1    1    2    0  502 -0.90262221848E+01 -0.39553620695E+01  0.51011201573E+01  0.11857967907E+02  0.41800000000E+01 0.  1.
        -11    1    3    3    0    0  0.37865227480E+02  0.64550610037E+02 -0.10093381288E+03  0.12565106960E+03  0.00000000000E+00 0. -1.
         11    1    3    3    0    0 -0.25368897899E+01 -0.24257692140E+02 -0.74195616014E+02  0.78101606088E+02  0.00000000000E+00 0.  1.
</event>
<event>
 7    1  0.1758121E-005  0.7763734E+02  0.7561462E-02  0.1335893E+00
         -2   -1    0    0    0  501 -0.00000000000E+00  0.00000000000E+00  0.34021333740E+03  0.34021333740E+03  0.00000000000E+00 0.  1.
          2   -1    0    0  501    0  0.00000000000E+00 -0.00000000000E+00 -0.34871431958E+02  0.34871431958E+02  0.00000000000E+00 0. -1.
         23    2    1    2    0    0 -0.24892158336E+01  0.77541667881E+01  0.11659328518E+03  0.14850017640E+03  0.91607777746E+02 0.  0.
          5    1    1    2  502    0 -0.41319593006E+02 -0.11695164660E+02  0.17510487812E+03  0.18034210929E+03  0.41800000000E+01 0.  1.
         -5    1    1    2    0  502  0.43808808839E+02  0.39409978722E+01  0.13643742147E+02  0.46242483669E+02  0.41800000000E+01 0.  1.
        -11    1    3    3    0    0  0.21750971138E+02 -0.21070196733E+02  0.49619004212E+01  0.30686778775E+02  0.00000000000E+00 0. -1.
         11    1    3    3    0    0 -0.24240186971E+02  0.28824363521E+02  0.11163138475E+03  0.11781339762E+03  0.00000000000E+00 0.  1.
</event>
<event>
 7    1  0.1758121E-005  0.1603523E+03  0.7561462E-02  0.1188300E+00
         -2   -1    0    0    0  501 -0.00000000000E+00  0.00000000000E+00  0.45440055505E+02  0.45440055505E+02  0.00000000000E+00 0.  1.
          2   -1    0    0  501    0  0.00000000000E+00 -0.00000000000E+00 -0.76724429186E+03  0.76724429186E+03  0.00000000000E+00 0. -1.
         23    2    1    2    0    0  0.89897924392E+02  0.11968243039E+03 -0.39151456320E+03  0.42908581817E+03  0.91790332859E+02 0.  0.
          5    1    1    2  502    0 -0.52678055616E+02 -0.89790408754E+02 -0.31727392199E+03  0.33394237381E+03  0.41800000000E+01 0. -1.
         -5    1    1    2    0  502 -0.37219868776E+02 -0.29892021640E+02 -0.13015751167E+02  0.49656155387E+02  0.41800000000E+01 0. -1.
        -11    1    3    3    0    0  0.95857147836E+02  0.70336824215E+02 -0.32490378024E+03  0.34597446155E+03  0.00000000000E+00 0.  1.
         11    1    3    3    0    0 -0.59592234439E+01  0.49345606179E+02 -0.66610782959E+02  0.83111356623E+02  0.00000000000E+00 0. -1.
</event>
<event>
 7    1  0.1758121E-005  0.1640358E+03  0.7561462E-02  0.1184214E+00
          1   -1    0    0  501    0  0.00000000000E+00  0.00000000000E+00  0.99981316149E+03  0.99981316149E+03  0.00000000000E+00 0.  1.
         -1   -1    0    0    0  501 -0.00000000000E+00 -0.00000000000E+00 -0.32350505458E+02  0.32350505458E+02  0.00000000000E+00 0. -1.
         23    2    1    2    0    0  0.87266537704E+02 -0.10908545153E+03  0.54361089163E+03  0.56868245437E+03  0.91497803623E+02 0.  0.
          5    1    1    2  502    0 -0.10992522294E+03  0.99990027789E+02  0.40757946399E+03  0.43384334979E+03  0.41800000000E+01 0. -1.
         -5    1    1    2    0  502  0.22658685241E+02  0.90954237398E+01  0.16272300415E+02  0.29637862788E+02  0.41800000000E+01 0. -1.
        -11    1    3    3    0    0  0.94424279082E-01 -0.48464222834E+02  0.84110583412E+02  0.97074095683E+02  0.00000000000E+00 0. -1.
         11    1    3    3    0    0  0.87172113425E+02 -0.60621228694E+02  0.45950030822E+03  0.47160835869E+03  0.00000000000E+00 0.  1.
</event>
<event>
 7    1  0.1758121E-005  0.1101077E+03  0.7561462E-02  0.1260371E+00
          1   -1    0    0  501    0  0.00000000000E+00  0.00000000000E+00  0.39033499104E+02  0.39033499104E+02  0.00000000000E+00 0. -1.
         -1   -1    0    0    0  501 -0.00000000000E+00 -0.00000000000E+00 -0.31466155221E+03  0.31466155221E+03  0.00000000000E+00 0.  1.
         23    2    1    2    0    0  0.16666519411E+02 -0.50685331447E+01 -0.10080780745E+03  0.13802122589E+03  0.92650859977E+02 0.  0.
          5    1    1    2  502    0  0.11731384020E+02  0.61471122840E+02 -0.94436426121E+02  0.11336681742E+03  0.41800000000E+01 0. -1.
         -5    1    1    2    0  502 -0.28397903431E+02 -0.56402589695E+02 -0.80383819529E+02  0.10230700800E+03  0.41800000000E+01 0. -1.
        -11    1    3    3    0    0  0.55030468234E+02  0.25762879863E+01 -0.61469406668E+02  0.82543792316E+02  0.00000000000E+00 0.  1.
         11    1    3    3    0    0 -0.38363948822E+02 -0.76448211310E+01 -0.39338400784E+02  0.55477433571E+02  0.00000000000E+00 0. -1.
</event>
<event>
 7    1  0.1758121E-005  0.2684707E+03  0.7561462E-02  0.1102158E+00
         -2   -1    0    0    0  501 -0.00000000000E+00  0.00000000000E+00  0.15438863948E+03  0.15438863948E+03  0.00000000000E+00 0.  1.
          2   -1    0    0  501    0  0.00000000000E+00 -0.00000000000E+00 -0.50872603471E+03  0.50872603471E+03  0.00000000000E+00 0. -1.
         23    2    1    2    0    0 -0.64103700980E+02  0.25017137517E+03 -0.18874371617E+03  0.33184152514E+03  0.88315377947E+02 0.  0.
          5    1    1    2  502    0  0.17113480806E+02 -0.19719148333E+03 -0.16893161334E+03  0.26025509545E+03  0.41800000000E+01 0. -1.
         -5    1    1    2    0  502  0.46990220174E+02 -0.52979891844E+02  0.33379342741E+01  0.71018053599E+02  0.41800000000E+01 0. -1.
        -11    1    3    3    0    0  0.11462499771E+02  0.92204078643E+02 -0.96344176636E+02  0.13384760510E+03  0.00000000000E+00 0.  1.
         11    1    3    3    0    0 -0.75566200750E+02  0.15796729653E+03 -0.92399539536E+02  0.19799392004E+03  0.00000000000E+00 0. -1.
</event>
<event>
 7    1  0.1758121E-005  0.1323003E+03  0.7561462E-02  0.1224082E+00
          2   -1    0    0  501    0  0.00000000000E+00  0.00000000000E+00  0.10399986920E+03  0.10399986920E+03  0.00000000000E+00 0. -1.
         -2   -1    0    0    0  501 -0.00000000000E+00 -0.00000000000E+00 -0.23523531891E+03  0.23523531891E+03  0.00000000000E+00 0.  1.
         23    2    1    2    0    0  0.40530341923E+02 -0.68239884786E+02  0.24741958242E+02  0.12412663292E+03  0.92173022138E+02 0.  0.
          5    1    1    2  502    0 -0.66034825952E+01 -0.34219534663E+02 -0.65067113431E+02  0.73930942001E+02  0.41800000000E+01 0.  1.
         -5    1    1    2    0  502 -0.33926859327E+02  0.10245941945E+03 -0.90910294521E+02  0.14117761320E+03  0.41800000000E+01 0.  1.
        -11    1    3    3    0    0  0.37898703444E+02  0.13105479334E+02  0.53063182645E+01  0.40450245053E+02  0.00000000000E+00 0. -1.
         11    1    3    3    0    0  0.26316384790E+01 -0.81345364120E+02  0.19435639977E+02  0.83676387866E+02  0.00000000000E+00 0.  1.
</event>
<event>
 7    1  0.1758121E-005  0.8806430E+02  0.7561462E-02  0.1307608E+00
         -2   -1    0    0    0  501 -0.00000000000E+00  0.00000000000E+00  0.17168760626E+03  0.17168760626E+03  0.00000000000E+00 0. -1.
          2   -1    0    0  501    0  0.00000000000E+00 -0.00000000000E+00 -0.12548112039E+03  0.12548112039E+03  0.00000000000E+00 0.  1.
         23    2    1    2    0    0  0.15931365285E+02 -0.62590188396E+02 -0.54869842606E+02  0.12386051015E+03  0.90329321174E+02 0.  0.
          5    1    1    2  502    0 -0.49194020015E+02  0.16800565709E+02  0.10414738308E+03  0.11647514934E+03  0.41800000000E+01 0.  1.
         -5    1    1    2    0  502  0.33262654730E+02  0.45789622688E+02 -0.30710545943E+01  0.56833067152E+02  0.41800000000E+01 0.  1.
        -11    1    3    3    0    0 -0.37313268668E+01 -0.19621654742E+02  0.24426058946E+02  0.31552567101E+02  0.00000000000E+00 0. -1.
         11    1    3    3    0    0  0.19662692152E+02 -0.42968533654E+02 -0.79295901552E+02  0.92307943049E+02  0.00000000000E+00 0.  1.
</event>
<event>
 7    1  0.1758121E-005  0.1432359E+03  0.7561462E-02  0.1209040E+00
          1   -1    0    0  501    0  0.00000000000E+00  0.00000000000E+00  0.71729604524E+02  0.71729604524E+02  0.00000000000E+00 0. -1.
         -1   -1    0    0    0  501 -0.00000000000E+00 -0.00000000000E+00 -0.36408312518E+03  0.36408312518E+03  0.00000000000E+00 0.  1.
         23    2    1    2    0    0 -0.86435497828E+02  0.46491678441E+02 -0.44981397013E+02  0.14174962209E+03  0.91853458487E+02 0.  0.
          5    1    1    2  502    0  0.15956859426E+02  0.41478924071E+02 -0.89746835550E+02  0.10023517045E+03  0.41800000000E+01 0.  1.
         -5    1    1    2    0  502  0.70478638402E+02 -0.87970602512E+02 -0.15762528809E+03  0.19382793716E+03  0.41800000000E+01 0.  1.
        -11    1    3    3    0    0 -0.10340119047E+03  0.40139283978E+02 -0.51767431720E+02  0.12240439247E+03  0.00000000000E+00 0. -1.
         11    1    3    3    0    0  0.16965692638E+02  0.63523944638E+01  0.67860347076E+01  0.19345229623E+02  0.00000000000E+00 0.  1.
</event>
<event>
 6    1  0.1758121E-005  0.9529984E+02  0.7561462E-02  0.1290502E+00
         -2   -1    0    0    0  501 -0.00000000000E+00  0.00000000000E+00  0.11430537587E+03  0.11430537587E+03  0.00000000000E+00 0.  1.
          2   -1    0    0  501    0  0.00000000000E+00 -0.00000000000E+00 -0.12174790270E+03  0.12174790270E+03  0.00000000000E+00 0. -1.
          5    1    1    2  502    0  0.14083558825E+02 -0.16620243135E+02 -0.54503237310E+02  0.58844323331E+02  0.41800000000E+01 0. -1.
         -5    1    1    2    0  502 -0.17432040066E+02  0.91540252110E+02  0.31147795639E+02  0.98342012133E+02  0.41800000000E+01 0.  1.
        -11    1    1    2    0    0  0.12414152355E+01 -0.64271768546E+02  0.67043989036E+01  0.64632424591E+02  0.00000000000E+00 0. -1.
         11    1    1    2    0    0  0.21070660057E+01 -0.10648240429E+02  0.92085159421E+01  0.14234518511E+02  0.00000000000E+00 0.  1.
</event>
<event>
 7    1  0.1758121E-005  0.7866504E+02  0.7561462E-02  0.1332883E+00
         -2   -1    0    0    0  501 -0.00000000000E+00  0.00000000000E+00  0.13730731507E+03  0.13730731507E+03  0.00000000000E+00 0. -1.
          2   -1    0    0  501    0  0.00000000000E+00 -0.00000000000E+00 -0.90225037210E+02  0.90225037210E+02  0.00000000000E+00 0.  1.
         23    2    1    2    0    0  0.26542373083E+02  0.10134337445E+02  0.13344898559E+02  0.94896250739E+02  0.89554506991E+02 0.  0.
          5    1    1    2  502    0  0.50489409096E+02 -0.32334950657E+01  0.11456754063E+02  0.52041959368E+02  0.41800000000E+01 0.  1.
         -5    1    1    2    0  502 -0.77031782179E+02 -0.69008423790E+01  0.22280625235E+02  0.80594142170E+02  0.41800000000E+01 0.  1.
        -11    1    3    3    0    0  0.11437353402E+02  0.10501192582E+01  0.51553794412E+02  0.52817700836E+02  0.00000000000E+00 0. -1.
         11    1    3    3    0    0  0.15105019681E+02  0.90842181865E+01 -0.38208895853E+02  0.42078549903E+02  0.00000000000E+00 0.  1.
</event>
<event>
 7    1  0.1758121E-005  0.1351360E+03  0.7561462E-02  0.1220028E+00
         -1   -1    0    0    0  501 -0.00000000000E+00  0.00000000000E+00  0.21373738195E+02  0.21373738195E+02  0.00000000000E+00 0.  1.
          1   -1    0    0  501    0  0.00000000000E+00 -0.00000000000E+00 -0.94698371347E+03  0.94698371347E+03  0.00000000000E+00 0. -1.
         23    2    1    2    0    0 -0.89780259688E+02 -0.27854075745E+01 -0.48823463016E+03  0.50466345100E+03  0.90795876337E+02 0.  0.
          5    1    1    2  502    0 -0.15474694333E+02  0.35923815610E+02 -0.16838802543E+03  0.17292190781E+03  0.41800000000E+01 0.  1.
         -5    1    1    2    0  502  0.10525495402E+03 -0.33138408036E+02 -0.26898731968E+03  0.29077209286E+03  0.41800000000E+01 0.  1.
        -11    1    3    3    0    0 -0.22439103259E+02  0.36277177863E+02 -0.10028908725E+03  0.10898370525E+03  0.00000000000E+00 0.  1.
         11    1    3    3    0    0 -0.67341156429E+02 -0.39062585438E+02 -0.38794554290E+03  0.39567974574E+03  0.00000000000E+00 0. -1.
</event>
<event>
 7    1  0.1758121E-005  0.8600896E+02  0.7561462E-02  0.1312815E+00
         -2   -1    0    0    0  501 -0.00000000000E+00  0.00000000000E+00  0.19203660465E+02  0.19203660465E+02  0.00000000000E+00 0.  1.
          2   -1    0    0  501    0  0.00000000000E+00 -0.00000000000E+00 -0.60890886101E+03  0.60890886101E+03  0.00000000000E+00 0. -1.
         23    2    1    2    0    0  0.33290673034E+01 -0.63166992083E+01 -0.27484902907E+03  0.28924517065E+03  0.89832046539E+02 0.  0.
          5    1    1    2  502    0 -0.37466403013E+02  0.23457482024E+02 -0.28937038784E+03  0.29275702994E+03  0.41800000000E+01 0.  1.
         -5    1    1    2    0  502  0.34137335709E+02 -0.17140782816E+02 -0.25485783627E+02  0.46110320883E+02  0.41800000000E+01 0.  1.
        -11    1    3    3    0    0  0.20405452465E+02  0.37207469678E+02 -0.15155734174E+03  0.15738616879E+03  0.00000000000E+00 0. -1.
         11    1    3    3    0    0 -0.17076385162E+02 -0.43524168887E+02 -0.12329168733E+03  0.13185900186E+03  0.00000000000E+00 0.  1.
</event>
<event>
 7    1  0.1758121E-005  0.1205336E+03  0.7561462E-02  0.1242219E+00
          4   -1    0    0  501    0  0.00000000000E+00  0.00000000000E+00  0.22440418539E+03  0.22440418539E+03  0.00000000000E+00 0. -1.
         -4   -1    0    0    0  501 -0.00000000000E+00 -0.00000000000E+00 -0.68048981049E+02  0.68048981049E+02  0.00000000000E+00 0.  1.
         23    2    1    2    0    0 -0.28200617780E+02 -0.57731542816E+02  0.70531703734E+02  0.12770723335E+03  0.84889400623E+02 0.  0.
          5    1    1    2  502    0  0.74263286615E+02  0.51228763245E+02  0.38263983716E+02  0.98086832818E+02  0.41800000000E+01 0. -1.
         -5    1    1    2    0  502 -0.46062668835E+02  0.65027795716E+01  0.47559516889E+02  0.66659100272E+02  0.41800000000E+01 0. -1.
        -11    1    3    3    0    0  0.25642285513E+02 -0.39703102017E+02  0.18706245430E+02  0.50830962357E+02  0.00000000000E+00 0.  1.
         11    1    3    3    0    0 -0.53842903293E+02 -0.18028440799E+02  0.51825458304E+02  0.76876270988E+02  0.00000000000E+00 0. -1.
</event>
<event>
 7    1  0.1758121E-005  0.2797763E+03  0.7561462E-02  0.1095811E+00
          1   -1    0    0  501    0  0.00000000000E+00  0.00000000000E+00  0.48899255520E+03  0.48899255520E+03  0.00000000000E+00 0. -1.
         -1   -1    0    0    0  501 -0.00000000000E+00 -0.00000000000E+00 -0.17361398040E+03  0.17361398040E+03  0.00000000000E+00 0.  1.
         23    2    1    2    0    0  0.26036424900E+03  0.49831742125E+02  0.21271623288E+03  0.35202491051E+03  0.91654771887E+02 0.  0.
          5    1    1    2  502    0 -0.11416986085E+03  0.40043382069E+02  0.34485322286E+02  0.12587668341E+03  0.41800000000E+01 0.  1.
         -5    1    1    2    0  502 -0.14619438815E+03 -0.89875124194E+02  0.68177019633E+02  0.18470494168E+03  0.41800000000E+01 0.  1.
        -11    1    3    3    0    0  0.39182898347E+02  0.18877415060E+02 -0.15065092250E+00  0.43493436492E+02  0.00000000000E+00 0.  1.
         11    1    3    3    0    0  0.22118135065E+03  0.30954327064E+02  0.21286688380E+03  0.30853147402E+03  0.00000000000E+00 0. -1.
</event>
<event>
 7    1  0.3259241E-005  0.1426896E+03  0.7561462E-02  0.1209755E+00
          2   -1    0    0  501    0  0.00000000000E+00  0.00000000000E+00  0.89968292961E+03  0.89968292961E+03  0.00000000000E+00 0. -1.
         -2   -1    0    0    0  501 -0.00000000000E+00 -0.00000000000E+00 -0.36713000570E+02  0.36713000570E+02  0.00000000000E+00 0.  1.
         23    2    1    2    0    0  0.12566638009E+03 -0.66275819579E+02  0.47931515709E+03  0.50858425331E+03  0.93436607089E+02 0.  0.
          5    1    1    2  502    0 -0.11178040772E+03  0.55449759806E+02  0.15771946195E+03  0.20115276903E+03  0.41800000000E+01 0.  1.
         -5    1    1    2    0  502 -0.13885972372E+02  0.10826059773E+02  0.22593531000E+03  0.22665890784E+03  0.41800000000E+01 0.  1.
        -11    1    3    3    0    0  0.75595447187E+02 -0.34210104670E+02  0.12985309019E+03  0.15410005817E+03  0.00000000000E+00 0.  1.
         11    1    3    3    0    0  0.50070932906E+02 -0.32065714909E+02  0.34946206690E+03  0.35448419513E+03  0.00000000000E+00 0. -1.
</event>
<event>
 7    1  0.1758121E-005  0.1144980E+03  0.7561462E-02  0.1252460E+00
         -2   -1    0    0    0  501 -0.00000000000E+00  0.00000000000E+00  0.14053327110E+02  0.14053327110E+02  0.00000000000E+00 0. -1.
          2   -1    0    0  501    0  0.00000000000E+00 -0.00000000000E+00 -0.97252042940E+03  0.97252042940E+03  0.00000000000E+00 0.  1.
         23    2    1    2    0    0  0.33015304420E+02  0.12917234065E+02 -0.47821786956E+03  0.48903570632E+03  0.95951685869E+02 0.  0.
          5    1    1    2  502    0  0.22592473920E+02  0.44235113541E+02 -0.20186944396E+03  0.20793246489E+03  0.41800000000E+01 0. -1.
         -5    1    1    2    0  502 -0.55607778340E+02 -0.57152347607E+02 -0.27837978877E+03  0.28960558531E+03  0.41800000000E+01 0. -1.
        -11    1    3    3    0    0  0.62738712192E+02 -0.75782311221E+01 -0.35719359583E+03  0.36274073454E+03  0.00000000000E+00 0.  1.
         11    1    3    3    0    0 -0.29723407771E+02  0.20495465187E+02 -0.12102427374E+03  0.12629497178E+03  0.00000000000E+00 0. -1.
</event>
<event>
 7    1  0.1758121E-005  0.1416668E+03  0.7561462E-02  0.1211104E+00
         -1   -1    0    0    0  501 -0.00000000000E+00  0.00000000000E+00  0.64936785860E+02  0.64936785860E+02  0.00000000000E+00 0.  1.
          1   -1    0    0  501    0  0.00000000000E+00 -0.00000000000E+00 -0.33577473652E+03  0.33577473652E+03  0.00000000000E+00 0. -1.
         23    2    1    2    0    0 -0.42574120367E+02  0.87629738032E+02 -0.15809844640E+03  0.20616290857E+03  0.89534906068E+02 0.  0.
          5    1    1    2  502    0  0.81756407430E+02 -0.35218982513E+02 -0.43430415007E+02  0.99137077992E+02  0.41800000000E+01 0.  1.
         -5    1    1    2    0  502 -0.39182287063E+02 -0.52410755519E+02 -0.69309089253E+02  0.95411535815E+02  0.41800000000E+01 0.  1.
        -11    1    3    3    0    0 -0.54071220815E+02  0.16415276442E+02 -0.93922928883E+02  0.10961147199E+03  0.00000000000E+00 0.  1.
         11    1    3    3    0    0  0.11497100448E+02  0.71214461590E+02 -0.64175517515E+02  0.96551436585E+02  0.00000000000E+00 0. -1.
</event>
<event>
 7    1  0.1758121E-005  0.1085614E+03  0.7561462E-02  0.1263257E+00
          2   -1    0    0  501    0  0.00000000000E+00  0.00000000000E+00  0.21556006686E+03  0.21556006686E+03  0.00000000000E+00 0.  1.
         -2   -1    0    0    0  501 -0.00000000000E+00 -0.00000000000E+00 -0.80147216680E+02  0.80147216680E+02  0.00000000000E+00 0. -1.
         23    2    1    2    0    0  0.52730835497E+02  0.22147615926E+02  0.11665889622E+03  0.15688881668E+03  0.87941712672E+02 0.  0.
          5    1    1    2  502    0 -0.37364695778E+01 -0.68052259822E+02 -0.23296331835E+01  0.68322550176E+02  0.41800000000E+01 0. -1.
         -5    1    1    2    0  502 -0.48994365919E+02  0.45904643896E+02  0.21083587147E+02  0.70495916690E+02  0.41800000000E+01 0. -1.
        -11    1    3    3    0    0  0.22636264604E+02 -0.19711851331E+02  0.97291036248E+02  0.10181602670E+03  0.00000000000E+00 0.  1.
         11    1    3    3    0    0  0.30094570893E+02  0.41859467257E+02  0.19367859971E+02  0.55072789980E+02  0.00000000000E+00 0. -1.
</event>
<event>
 7    1  0.1758121E-005  0.1172188E+03  0.7561462E-02  0.1247757E+00
          2   -1    0    0  501    0  0.00000000000E+00  0.00000000000E+00  0.20194495641E+03  0.20194495641E+03  0.00000000000E+00 0. -1.
         -2   -1    0    0    0  501 -0.00000000000E+00 -0.00000000000E+00 -0.71759981981E+02  0.71759981981E+02  0.00000000000E+00 0.  1.
         23    2    1    2    0    0  0.51412960266E+02  0.83391366281E+01  0.64999850713E+02  0.12334078547E+03  0.90967769479E+02 0.  0.
          5    1    1    2  502    0 -0.90092695833E+02 -0.22073181634E+02  0.34940708364E+02  0.99208087830E+02  0.41800000000E+01 0.  1.
         -5    1    1    2    0  502  0.38679735567E+02  0.13734045006E+02  0.30244415348E+02  0.51156065091E+02  0.41800000000E+01 0.  1.
        -11    1    3    3    0    0  0.67777844460E+02  0.29211891839E+02  0.30585051379E+02  0.79891277323E+02  0.00000000000E+00 0.  1.
         11    1    3    3    0    0 -0.16364884194E+02 -0.20872755211E+02  0.34414799334E+02  0.43449508144E+02  0.00000000000E+00 0. -1.
</event>
<event>
 7    1  0.1758121E-005  0.1195814E+03  0.7561462E-02  0.1243789E+00
         -2   -1    0    0    0  501 -0.00000000000E+00  0.00000000000E+00  0.63634808245E+02  0.63634808245E+02  0.00000000000E+00 0. -1.
          2   -1    0    0  501    0  0.00000000000E+00 -0.00000000000E+00 -0.24346154501E+03  0.24346154501E+03  0.00000000000E+00 0.  1.
         23    2    1    2    0    0 -0.56857663257E+02  0.14841608028E+02 -0.10591518565E+03  0.15036781035E+03  0.89103224617E+02 0.  0.
          5    1    1    2  502    0  0.78693869016E+02 -0.48467778266E+02 -0.70416075290E+02  0.11626584456E+03  0.41800000000E+01 0. -1.
         -5    1    1    2    0  502 -0.21836205760E+02  0.33626170238E+02 -0.34954758241E+01  0.40462698354E+02  0.41800000000E+01 0. -1.
        -11    1    3    3    0    0 -0.68532426604E+02 -0.18518888126E+02 -0.76711746877E+02  0.10451954278E+03  0.00000000000E+00 0. -1.
         11    1    3    3    0    0  0.11674763347E+02  0.33360496154E+02 -0.29203438774E+02  0.45848267568E+02  0.00000000000E+00 0.  1.
</event>
<event>
 7    1  0.1758121E-005  0.9816289E+02  0.7561462E-02  0.1284207E+00
         -2   -1    0    0    0  501 -0.00000000000E+00  0.00000000000E+00  0.23218835915E+03  0.23218835915E+03  0.00000000000E+00 0.  1.
          2   -1    0    0  501    0  0.00000000000E+00 -0.00000000000E+00 -0.77794704795E+02  0.77794704795E+02  0.00000000000E+00 0. -1.
         23    2    1    2    0    0  0.43460090967E+02 -0.60296390728E+02  0.35393711435E+02  0.12201189737E+03  0.90054172863E+02 0.  0.
          5    1    1    2  502    0 -0.24541877763E+01  0.55617602839E+02  0.13295740795E+03  0.14420293171E+03  0.41800000000E+01 0.  1.
         -5    1    1    2    0  502 -0.41005903191E+02  0.46787878897E+01 -0.13957465036E+02  0.43768234861E+02  0.41800000000E+01 0.  1.
        -11    1    3    3    0    0  0.35059449727E+02 -0.74599150119E+02 -0.54633420214E+00  0.82428737068E+02  0.00000000000E+00 0. -1.
         11    1    3    3    0    0  0.84006412405E+01  0.14302759390E+02  0.35940045637E+02  0.39583160306E+02  0.00000000000E+00 0.  1.
</event>
<event>
 7    1  0.1758121E-005  0.2891590E+03  0.7561462E-02  0.1090789E+00
         -1   -1    0    0    0  501 -0.00000000000E+00  0.00000000000E+00  0.51576582098E+03  0.51576582098E+03  0.00000000000E+00 0.  1.
          1   -1    0    0  501    0  0.00000000000E+00 -0.00000000000E+00 -0.17097003370E+03  0.17097003370E+03  0.00000000000E+00 0. -1.
         23    2    1    2    0    0  0.26347091366E+03  0.70887440521E+02  0.11319690156E+03  0.30762152677E+03  0.85880810645E+02 0.  0.
          5    1    1    2  502    0 -0.18796158273E+03 -0.10259746238E+03  0.13854942970E+03  0.25508667692E+03  0.41800000000E+01 0. -1.
         -5    1    1    2    0  502 -0.75509330929E+02  0.31710021859E+02  0.93049456024E+02  0.12402765099E+03  0.41800000000E+01 0. -1.
        -11    1    3    3    0    0  0.41248134292E+02  0.40562967542E+02  0.44713325914E+02  0.73116649490E+02  0.00000000000E+00 0.  1.
         11    1    3    3    0    0  0.22222277937E+03  0.30324472979E+02  0.68483575645E+02  0.23450487728E+03  0.00000000000E+00 0. -1.
</event>
<event>
 7    1  0.1758121E-005  0.3271242E+03  0.7561462E-02  0.1072416E+00
         -1   -1    0    0    0  501 -0.00000000000E+00  0.00000000000E+00  0.28173440402E+03  0.28173440402E+03  0.00000000000E+00 0.  1.
          1   -1    0    0  501    0  0.00000000000E+00 -0.00000000000E+00 -0.44438706372E+03  0.44438706372E+03  0.00000000000E+00 0. -1.
         23    2    1    2    0    0  0.35977901985E+02 -0.30623036711E+03 -0.14587639833E+03  0.35385787009E+03  0.94148932321E+02 0.  0.
          5    1    1    2  502    0 -0.86230769395E+02  0.23196054999E+03 -0.82623579768E+02  0.26093211891E+03  0.41800000000E+01 0. -1.
         -5    1    1    2    0  502  0.50252867410E+02  0.74269817120E+02  0.65847318402E+02  0.11133147874E+03  0.41800000000E+01 0.  1.
        -11    1    3    3    0    0 -0.22867231607E+02 -0.93105323054E+02 -0.15317755635E+02  0.97088336581E+02  0.00000000000E+00 0. -1.
         11    1    3    3    0    0  0.58845133592E+02 -0.21312504406E+03 -0.13055864270E+03  0.25676953351E+03  0.00000000000E+00 0.  1.
</event>
<event>
 7    1  0.1758121E-005  0.1837930E+03  0.7561462E-02  0.1164182E+00
          2   -1    0    0  501    0  0.00000000000E+00  0.00000000000E+00  0.45235896535E+03  0.45235896535E+03  0.00000000000E+00 0. -1.
         -2   -1    0    0    0  501 -0.00000000000E+00 -0.00000000000E+00 -0.14720701024E+03  0.14720701024E+03  0.00000000000E+00 0.  1.
         23    2    1    2    0    0 -0.17084991675E+02  0.18195855298E+03  0.31805022862E+03  0.37772283659E+03  0.90098731488E+02 0.  0.
          5    1    1    2  502    0  0.44383529287E+01 -0.56977850599E+02 -0.64230282755E+02  0.86076570903E+02  0.41800000000E+01 0. -1.
         -5    1    1    2    0  502  0.12646638747E+02 -0.12498070238E+03  0.51332009244E+02  0.13576656810E+03  0.41800000000E+01 0. -1.
        -11    1    3    3    0    0  0.35627621064E+01  0.10038778666E+03  0.90844766956E+02  0.13543696935E+03  0.00000000000E+00 0.  1.
         11    1    3    3    0    0 -0.20647753782E+02  0.81570766321E+02  0.22720546166E+03  0.24228586724E+03  0.00000000000E+00 0. -1.
</event>
<event>
 7    1  0.1758121E-005  0.1409894E+03  0.7561462E-02  0.1212004E+00
         -2   -1    0    0    0  501 -0.00000000000E+00  0.00000000000E+00  0.32027343083E+02  0.32027343083E+02  0.00000000000E+00 0.  1.
          2   -1    0    0  501    0  0.00000000000E+00 -0.00000000000E+00 -0.73002876799E+03  0.73002876799E+03  0.00000000000E+00 0. -1.
         23    2    1    2    0    0 -0.39300516602E+02  0.98963317739E+02 -0.27748670047E+03  0.31059510298E+03  0.90178601631E+02 0.  0.
          5    1    1    2  502    0 -0.42713797978E+02 -0.27295476475E+02 -0.18644392645E+03  0.19325713876E+03  0.41800000000E+01 0. -1.
         -5    1    1    2    0  502  0.82014314579E+02 -0.71667841264E+02 -0.23407079798E+03  0.25820386933E+03  0.41800000000E+01 0. -1.
        -11    1    3    3    0    0  0.93601262267E+01  0.57303028073E+02 -0.20858716377E+03  0.21651756021E+03  0.00000000000E+00 0. -1.
         11    1    3    3    0    0 -0.48660642828E+02  0.41660289666E+02 -0.68899536698E+02  0.94077542765E+02  0.00000000000E+00 0.  1.
</event>
<event>
 7    1  0.1758121E-005  0.1375471E+03  0.7561462E-02  0.1216668E+00
         -1   -1    0    0    0  501 -0.00000000000E+00  0.00000000000E+00  0.25358607066E+02  0.25358607066E+02  0.00000000000E+00 0.  1.
          1   -1    0    0  501    0  0.00000000000E+00 -0.00000000000E+00 -0.75338151516E+03  0.75338151516E+03  0.00000000000E+00 0. -1.
         23    2    1    2    0    0 -0.55450289719E+02  0.68659991461E+02 -0.34136805924E+03  0.36288145283E+03  0.85801327954E+02 0.  0.
          5    1    1    2  502    0 -0.15815693467E+02 -0.79108596386E+02 -0.19477816214E+03  0.21086562316E+03  0.41800000000E+01 0.  1.
         -5    1    1    2    0  502  0.71265983186E+02  0.10448604925E+02 -0.19187668670E+03  0.20499304624E+03  0.41800000000E+01 0.  1.
        -11    1    3    3    0    0  0.20241627003E+02  0.32473892357E+02 -0.12851267881E+03  0.13408872348E+03  0.00000000000E+00 0.  1.
         11    1    3    3    0    0 -0.75691916722E+02  0.36186099104E+02 -0.21285538043E+03  0.22879272935E+03  0.00000000000E+00 0. -1.
</event>
<event>
 7    1  0.1758121E-005  0.1522670E+03  0.7561462E-02  0.1197715E+00
          2   -1    0    0  501    0  0.00000000000E+00  0.00000000000E+00  0.39476832406E+03  0.39476832406E+03  0.00000000000E+00 0. -1.
         -2   -1    0    0    0  501 -0.00000000000E+00 -0.00000000000E+00 -0.87706942931E+02  0.87706942931E+02  0.00000000000E+00 0.  1.
         23    2    1    2    0    0  0.10074504180E+03  0.92643845607E+02  0.22770514783E+03  0.28078827870E+03  0.90884418528E+02 0.  0.
          5    1    1    2  502    0 -0.29543261515E+02  0.11549701331E+02  0.67703745830E+02  0.74883038808E+02  0.41800000000E+01 0. -1.
         -5    1    1    2    0  502 -0.71201780285E+02 -0.10419354694E+03  0.11652487466E+02  0.12680394948E+03  0.41800000000E+01 0. -1.
        -11    1    3    3    0    0  0.43094250312E+02  0.74085373626E+02  0.66187813945E+02  0.10828935179E+03  0.00000000000E+00 0.  1.
         11    1    3    3    0    0  0.57650791488E+02  0.18558471981E+02  0.16151733389E+03  0.17249892692E+03  0.00000000000E+00 0. -1.
</event>
<event>
 7    1  0.1758121E-005  0.1662724E+03  0.7561462E-02  0.1181792E+00
         -2   -1    0    0    0  501 -0.00000000000E+00  0.00000000000E+00  0.72644668820E+03  0.72644668820E+03  0.00000000000E+00 0.  1.
          2   -1    0    0  501    0  0.00000000000E+00 -0.00000000000E+00 -0.40364237444E+02  0.40364237444E+02  0.00000000000E+00 0. -1.
         23    2    1    2    0    0  0.84730966744E+02 -0.61430409932E+02  0.31821169821E+03  0.35192278971E+03  0.10787925219E+03 0.  0.
          5    1    1    2  502    0 -0.86786257440E+02  0.11068188678E+03  0.29460393817E+03  0.32648321140E+03  0.41800000000E+01 0. -1.
         -5    1    1    2    0  502  0.20552906966E+01 -0.49251476853E+02  0.73266814382E+02  0.88404924533E+02  0.41800000000E+01 0.  1.
        -11    1    3    3    0    0  0.98546431841E+02 -0.74349270501E+02  0.22336081635E+03  0.25520436425E+03  0.00000000000E+00 0.  1.
         11    1    3    3    0    0 -0.13815465098E+02  0.12918860569E+02  0.94850881856E+02  0.96718425458E+02  0.00000000000E+00 0. -1.
</event>
<event>
 7    1  0.1758121E-005  0.1083037E+03  0.7561462E-02  0.1263744E+00
         -1   -1    0    0    0  501 -0.00000000000E+00  0.00000000000E+00  0.18061281565E+02  0.18061281565E+02  0.00000000000E+00 0.  1.
          1   -1    0    0  501    0  0.00000000000E+00 -0.00000000000E+00 -0.73097923398E+03  0.73097923398E+03  0.00000000000E+00 0. -1.
         23    2    1    2    0    0  0.39876743305E+02  0.36187376120E+02 -0.39938444878E+03  0.41230278963E+03  0.87097483101E+02 0.  0.
          5    1    1    2  502    0  0.28738626919E+02 -0.43820752295E+02 -0.11348206903E+03  0.12506725950E+03  0.41800000000E+01 0. -1.
         -5    1    1    2    0  502 -0.68615370223E+02  0.76333761746E+01 -0.20005143461E+03  0.21167046641E+03  0.41800000000E+01 0.  1.
        -11    1    3    3    0    0  0.11014128563E+02 -0.24945111630E+02 -0.55508603156E+02  0.61844762483E+02  0.00000000000E+00 0.  1.
         11    1    3    3    0    0  0.28862614741E+02  0.61132487751E+02 -0.34387584562E+03  0.35045802715E+03  0.00000000000E+00 0. -1.
</event>
<event>
 7    1  0.1758121E-005  0.1149744E+03  0.7561462E-02  0.1251626E+00
         -1   -1    0    0    0  501 -0.00000000000E+00  0.00000000000E+00  0.34299269270E+02  0.34299269270E+02  0.00000000000E+00 0.  1.
          1   -1    0    0  501    0  0.00000000000E+00 -0.00000000000E+00 -0.61608556408E+03  0.61608556408E+03  0.00000000000E+00 0. -1.
         23    2    1    2    0    0 -0.36221890020E+02 -0.25159685972E+02 -0.45849751501E+03  0.46929853860E+03  0.89867190647E+02 0.  0.
          5    1    1    2  502    0 -0.41598249441E+02  0.34123040133E+02 -0.55452813188E+02  0.77377536242E+02  0.41800000000E+01 0.  1.
         -5    1    1    2    0  502  0.77820139461E+02 -0.89633541610E+01 -0.67835966618E+02  0.10370875850E+03  0.41800000000E+01 0.  1.
        -11    1    3    3    0    0 -0.64460921090E+02 -0.25433531366E+02 -0.36902411056E+03  0.37547419224E+03  0.00000000000E+00 0. -1.
         11    1    3    3    0    0  0.28239031070E+02  0.27384539351E+00 -0.89473404445E+02  0.93824346361E+02  0.00000000000E+00 0.  1.
</event>
<event>
 7    1  0.1758121E-005  0.9636868E+02  0.7561462E-02  0.1288123E+00
         -2   -1    0    0    0  501 -0.00000000000E+00  0.00000000000E+00  0.28536455376E+03  0.28536455376E+03  0.00000000000E+00 0.  1.
          2   -1    0    0  501    0  0.00000000000E+00 -0.00000000000E+00 -0.46245500064E+02  0.46245500064E+02  0.00000000000E+00 0. -1.
         23    2    1    2    0    0  0.36472898457E+02  0.10501202304E+02  0.86448474834E+02  0.13293071773E+03  0.93577183880E+02 0.  0.
          5    1    1    2  502    0  0.27744722178E+02 -0.47935950565E+01  0.12533771183E+03  0.12852922846E+03  0.41800000000E+01 0. -1.
         -5    1    1    2    0  502 -0.64217620635E+02 -0.57076072471E+01  0.27332867030E+02  0.70150107631E+02  0.41800000000E+01 0.  1.
        -11    1    3    3    0    0  0.11370857229E+01 -0.38906784625E+02  0.44442774660E+02  0.59077839105E+02  0.00000000000E+00 0.  1.
         11    1    3    3    0    0  0.35335812734E+02  0.49407986928E+02  0.42005700174E+02  0.73852878624E+02  0.00000000000E+00 0. -1.
</event>
<event>
 7    1  0.1758121E-005  0.1733881E+03  0.7561462E-02  0.1174360E+00
          2   -1    0    0  501    0  0.00000000000E+00  0.00000000000E+00  0.44990958071E+03  0.44990958071E+03  0.00000000000E+00 0. -1.
         -2   -1    0    0    0  501 -0.00000000000E+00 -0.00000000000E+00 -0.87520555410E+02  0.87520555410E+02  0.00000000000E+00 0.  1.
         23    2    1    2    0    0 -0.14297562761E+03  0.81798074460E+02  0.19555836005E+03  0.27169123596E+03  0.91870019241E+02 0.  0.
          5    1    1    2  502    0  0.77035963330E+01  0.84333239589E+01  0.80839278876E+02  0.81749175890E+02  0.41800000000E+01 0.  1.
         -5    1    1    2    0  502  0.13527203128E+03 -0.90231398419E+02  0.85991386371E+02  0.18398972427E+03  0.41800000000E+01 0.  1.
        -11    1    3    3    0    0 -0.11167354355E+03  0.37677346775E+02  0.75390416328E+02  0.13990810435E+03  0.00000000000E+00 0. -1.
         11    1    3    3    0    0 -0.31302084060E+02  0.44120727685E+02  0.12016794372E+03  0.13178313161E+03  0.00000000000E+00 0.  1.
</event>
<event>
 7    1  0.1758121E-005  0.1116676E+03  0.7561462E-02  0.1257513E+00
          3   -1    0    0  501    0  0.00000000000E+00  0.00000000000E+00  0.45610426957E+03  0.45610426957E+03  0.00000000000E+00 0. -1.
         -3   -1    0    0    0  501 -0.00000000000E+00 -0.00000000000E+00 -0.36798183735E+02  0.36798183735E+02  0.00000000000E+00 0.  1.
         23    2    1    2    0    0  0.15896227809E+02  0.48322833171E+02  0.27963810076E+03  0.29862679292E+03  0.91611722971E+02 0.  0.
          5    1    1    2  502    0  0.15648177200E+02 -0.79349101379E+02  0.52736254718E+02  0.96642280090E+02  0.41800000000E+01 0. -1.
         -5    1    1    2    0  502 -0.31544405009E+02  0.31026268208E+02  0.86931730355E+02  0.97633380300E+02  0.41800000000E+01 0. -1.
        -11    1    3    3    0    0 -0.18515978701E+02  0.59031566305E+02  0.12044601371E+03  0.13540609109E+03  0.00000000000E+00 0.  1.
         11    1    3    3    0    0  0.34412206510E+02 -0.10708733134E+02  0.15919208706E+03  0.16322070182E+03  0.00000000000E+00 0. -1.
</event>
<event>
 7    1  0.1758121E-005  0.1291961E+03  0.7561462E-02  0.1228653E+00
          1   -1    0    0  501    0  0.00000000000E+00  0.00000000000E+00  0.22407432659E+03  0.22407432659E+03  0.00000000000E+00 0. -1.
         -1   -1    0    0    0  501 -0.00000000000E+00 -0.00000000000E+00 -0.92412883556E+02  0.92412883556E+02  0.00000000000E+00 0.  1.
         23    2    1    2    0    0  0.86963842036E+02 -0.13407014468E+02  0.10337855129E+03  0.16095588977E+03  0.86470895258E+02 0.  0.
          5    1    1    2  502    0 -0.99533159929E+02 -0.26597584874E+02  0.41822004301E+02  0.11126919560E+03  0.41800000000E+01 0. -1.
         -5    1    1    2    0  502  0.12569317893E+02  0.40004599343E+02 -0.13539112551E+02  0.44262124774E+02  0.41800000000E+01 0. -1.
        -11    1    3    3    0    0 -0.84766221718E+01  0.11705388988E+02  0.42760512404E+02  0.45136799574E+02  0.00000000000E+00 0.  1.
         11    1    3    3    0    0  0.95440464208E+02 -0.25112403457E+02  0.60618038884E+02  0.11581909020E+03  0.00000000000E+00 0. -1.
</event>
<event>
 7    1  0.1758121E-005  0.1710133E+03  0.7561462E-02  0.1176795E+00
          4   -1    0    0  501    0  0.00000000000E+00  0.00000000000E+00  0.99909150640E+03  0.99909150640E+03  0.00000000000E+00 0.  1.
         -4   -1    0    0    0  501 -0.00000000000E+00 -0.00000000000E+00 -0.40699172980E+02  0.40699172980E+02  0.00000000000E+00 0. -1.
         23    2    1    2    0    0 -0.86267720286E+02  0.13834270687E+03  0.59100584106E+03  0.61883790598E+03  0.84211790125E+02 0.  0.
          5    1    1    2  502    0  0.63939507145E+02 -0.36260190011E+02  0.26331360599E+03  0.27341285532E+03  0.41800000000E+01 0. -1.
         -5    1    1    2    0  502  0.22328213141E+02 -0.10208251686E+03  0.10407288637E+03  0.14753991808E+03  0.41800000000E+01 0. -1.
        -11    1    3    3    0    0 -0.34207898361E+02  0.69991248181E+02  0.42324559016E+03  0.43035541674E+03  0.00000000000E+00 0.  1.
         11    1    3    3    0    0 -0.52059821925E+02  0.68351458693E+02  0.16776025090E+03  0.18848248923E+03  0.00000000000E+00 0. -1.
</event>
<event>
 7    1  0.1758121E-005  0.1126475E+03  0.7561462E-02  0.1255744E+00
          2   -1    0    0  501    0  0.00000000000E+00  0.00000000000E+00  0.10260238270E+04  0.10260238270E+04  0.00000000000E+00 0. -1.
         -2   -1    0    0    0  501 -0.00000000000E+00 -0.00000000000E+00 -0.21214118250E+02  0.21214118250E+02  0.00000000000E+00 0.  1.
         23    2    1    2    0    0  0.90433032422E+02 -0.29894592138E+02  0.56179147329E+03  0.57714665210E+03  0.91743002843E+02 0.  0.
          5    1    1    2  502    0 -0.30055844647E+02  0.17069616018E+02  0.15484560702E+02  0.38104718981E+02  0.41800000000E+01 0.  1.
         -5    1    1    2    0  502 -0.60377187774E+02  0.12824976120E+02  0.42753367480E+03  0.43198657421E+03  0.41800000000E+01 0.  1.
        -11    1    3    3    0    0  0.62529712570E+02  0.24755076031E+02  0.22596613042E+03  0.23576147022E+03  0.00000000000E+00 0.  1.
         11    1    3    3    0    0  0.27903319852E+02 -0.54649668169E+02  0.33582534288E+03  0.34138518188E+03  0.00000000000E+00 0. -1.
</event>
<event>
 7    1  0.1758121E-005  0.1081449E+03  0.7561462E-02  0.1264044E+00
          3   -1    0    0  501    0  0.00000000000E+00  0.00000000000E+00  0.61214625181E+02  0.61214625181E+02  0.00000000000E+00 0. -1.
         -3   -1    0    0    0  501 -0.00000000000E+00 -0.00000000000E+00 -0.23153626008E+03  0.23153626008E+03  0.00000000000E+00 0.  1.
         23    2    1    2    0    0 -0.23096585819E+02 -0.41020921348E+02 -0.55156417341E+02  0.11632017050E+03  0.90950444901E+02 0.  0.
          5    1    1    2  502    0  0.70804396447E+02  0.54548691363E+00 -0.62847956541E+02  0.94767600759E+02  0.41800000000E+01 0.  1.
         -5    1    1    2    0  502 -0.47707810628E+02  0.40475434434E+02 -0.52317261016E+02  0.81663113998E+02  0.41800000000E+01 0.  1.
        -11    1    3    3    0    0 -0.30860789064E+02 -0.57040736139E+02 -0.73043895333E+01  0.65263986910E+02  0.00000000000E+00 0. -1.
         11    1    3    3    0    0  0.77642032456E+01  0.16019814791E+02 -0.47852027808E+02  0.51056183595E+02  0.00000000000E+00 0.  1.
</event>
<event>
 7    1  0.1758121E-005  0.1365933E+03  0.7561462E-02  0.1217988E+00
          2   -1    0    0  501    0  0.00000000000E+00  0.00000000000E+00  0.96561978963E+03  0.96561978963E+03  0.00000000000E+00 0. -1.
         -2   -1    0    0    0  501 -0.00000000000E+00 -0.00000000000E+00 -0.23467958660E+02  0.23467958660E+02  0.00000000000E+00 0.  1.
         23    2    1    2    0    0  0.70370333312E+02 -0.54651086657E+02  0.60507285535E+03  0.61867109077E+03  0.93284688919E+02 0.  0.
          5    1    1    2  502    0 -0.99224024094E+02  0.24239203190E+02  0.17236173625E+03  0.20039707196E+03  0.41800000000E+01 0.  1.
         -5    1    1    2    0  502  0.28853690781E+02  0.30411883467E+02  0.16471723937E+03  0.17001958556E+03  0.41800000000E+01 0.  1.
        -11    1    3    3    0    0  0.43017537073E+02  0.21373230422E+02  0.21048558255E+03  0.21589697528E+03  0.00000000000E+00 0.  1.
         11    1    3    3    0    0  0.27352796239E+02 -0.76024317078E+02  0.39458727280E+03  0.40277411549E+03  0.00000000000E+00 0. -1.
</event>
<event>
 7    1  0.1758121E-005  0.2150219E+03  0.7561462E-02  0.1137650E+00
         -1   -1    0    0    0  501 -0.00000000000E+00  0.00000000000E+00  0.85066274749E+02  0.85066274749E+02  0.00000000000E+00 0.  1.
          1   -1    0    0  501    0  0.00000000000E+00 -0.00000000000E+00 -0.61735489161E+03  0.61735489161E+03  0.00000000000E+00 0. -1.
         23    2    1    2    0    0 -0.18512162199E+03 -0.78056510661E+02 -0.28040071739E+03  0.35680075862E+03  0.91210664166E+02 0.  0.
          5    1    1    2  502    0  0.18681873230E+03  0.67901632595E+02 -0.26314023802E+03  0.32980619720E+03  0.41800000000E+01 0. -1.
         -5    1    1    2    0  502 -0.16971103060E+01  0.10154878066E+02  0.11252338547E+02  0.15814210531E+02  0.41800000000E+01 0. -1.
        -11    1    3    3    0    0 -0.13177171855E+03 -0.79453372269E+01 -0.15594234634E+03  0.20431575949E+03  0.00000000000E+00 0.  1.
         11    1    3    3    0    0 -0.53349903443E+02 -0.70111173434E+02 -0.12445837105E+03  0.15248499914E+03  0.00000000000E+00 0. -1.
</event>
<event>
 7    1  0.1758121E-005  0.4850319E+02  0.7561462E-02  0.1453586E+00
         -1   -1    0    0    0  501 -0.00000000000E+00  0.00000000000E+00  0.43550519642E+03  0.43550519642E+03  0.00000000000E+00 0.  1.
          1   -1    0    0  501    0  0.00000000000E+00 -0.00000000000E+00 -0.32905164714E+02  0.32905164714E+02  0.00000000000E+00 0. -1.
         23    2    1    2    0    0 -0.24367541077E+02 -0.11869868387E+02  0.87329498195E+02  0.12814635111E+03  0.89779592416E+02 0.  0.
          5    1    1    2  502    0  0.93047680811E+00  0.15629634042E+02  0.31574183772E+03  0.31615744770E+03  0.41800000000E+01 0.  1.
         -5    1    1    2    0  502  0.23437064269E+02 -0.37597656551E+01 -0.47130421279E+00  0.24106562322E+02  0.41800000000E+01 0.  1.
        -11    1    3    3    0    0 -0.39808527947E+02 -0.10656419292E+02  0.18252291901E+01  0.41250571281E+02  0.00000000000E+00 0. -1.
         11    1    3    3    0    0  0.15440986870E+02 -0.12134490944E+01  0.85504269005E+02  0.86895779830E+02  0.00000000000E+00 0.  1.
</event>
<event>
 7    1  0.1758121E-005  0.7004057E+02  0.7561462E-02  0.1359955E+00
          1   -1    0    0  501    0  0.00000000000E+00  0.00000000000E+00  0.22728966588E+03  0.22728966588E+03  0.00000000000E+00 0. -1.
         -1   -1    0    0    0  501 -0.00000000000E+00 -0.00000000000E+00 -0.67103325020E+02  0.67103325020E+02  0.00000000000E+00 0.  1.
         23    2    1    2    0    0 -0.39197780817E+02 -0.30055856833E+02  0.11839613678E+03  0.15355538118E+03  0.84390694581E+02 0.  0.
          5    1    1    2  502    0  0.34424728139E+02 -0.60023238871E+01  0.80317003257E+02  0.87689128241E+02  0.41800000000E+01 0.  1.
         -5    1    1    2    0  502  0.47730526778E+01  0.36058180720E+02 -0.38526799181E+02  0.53148481482E+02  0.41800000000E+01 0.  1.
        -11    1    3    3    0    0  0.94043463873E+01 -0.14429109721E+02  0.96466827823E+02  0.97992294638E+02  0.00000000000E+00 0. -1.
         11    1    3    3    0    0 -0.48602127204E+02 -0.15626747111E+02  0.21929308960E+02  0.55563086537E+02  0.00000000000E+00 0.  1.
</event>
<event>
 7    1  0.1758121E-005  0.1399910E+03  0.7561462E-02  0.1213341E+00
         -1   -1    0    0    0  501 -0.00000000000E+00  0.00000000000E+00  0.55611865413E+02  0.55611865413E+02  0.00000000000E+00 0.  1.
          1   -1    0    0  501    0  0.00000000000E+00 -0.00000000000E+00 -0.35589053029E+03  0.35589053029E+03  0.00000000000E+00 0. -1.
         23    2    1    2    0    0  0.65047908948E+02  0.60951558122E+02 -0.13440081046E+03  0.18543047812E+03  0.91512630100E+02 0.  0.
          5    1    1    2  502    0 -0.10078757054E+03 -0.28076500088E+02 -0.10845013170E+03  0.15074922122E+03  0.41800000000E+01 0.  1.
         -5    1    1    2    0  502  0.35739661587E+02 -0.32875058034E+02 -0.57427722711E+02  0.75322696359E+02  0.41800000000E+01 0.  1.
        -11    1    3    3    0    0  0.39844780037E+02 -0.17952319226E+02 -0.58980868789E+02  0.73407323510E+02  0.00000000000E+00 0. -1.
         11    1    3    3    0    0  0.25203128911E+02  0.78903877347E+02 -0.75419941671E+02  0.11202315461E+03  0.00000000000E+00 0.  1.
</event>
<event>
 7    1  0.1758121E-005  0.1551582E+03  0.7561462E-02  0.1194274E+00
          2   -1    0    0  501    0  0.00000000000E+00  0.00000000000E+00  0.99653687731E+03  0.99653687731E+03  0.00000000000E+00 0. -1.
         -2   -1    0    0    0  501 -0.00000000000E+00 -0.00000000000E+00 -0.24641050388E+02  0.24641050388E+02  0.00000000000E+00 0.  1.
         23    2    1    2    0    0 -0.46564246153E+02  0.99957893607E+02  0.50332603909E+03  0.52382016326E+03  0.94290255593E+02 0.  0.
          5    1    1    2  502    0  0.74208282193E+01 -0.12095547728E+03  0.31868175460E+03  0.34097042290E+03  0.41800000000E+01 0. -1.
         -5    1    1    2    0  502  0.39143417934E+02  0.20997583673E+02  0.14988803324E+03  0.15638734155E+03  0.41800000000E+01 0. -1.
        -11    1    3    3    0    0  0.22381521317E+02  0.61617047263E+02  0.20412422342E+03  0.21439284409E+03  0.00000000000E+00 0.  1.
         11    1    3    3    0    0 -0.68945767470E+02  0.38340846345E+02  0.29920181567E+03  0.30942731917E+03  0.00000000000E+00 0. -1.
</event>
<event>
 7    1  0.1758121E-005  0.8665382E+02  0.7561462E-02  0.1311163E+00
         -1   -1    0    0    0  501 -0.00000000000E+00  0.00000000000E+00  0.12126529536E+03  0.12126529536E+03  0.00000000000E+00 0.  1.
          1   -1    0    0  501    0  0.00000000000E+00 -0.00000000000E+00 -0.16141968626E+03  0.16141968626E+03  0.00000000000E+00 0. -1.
         23    2    1    2    0    0 -0.15986639209E+02  0.19003221980E+02 -0.10346882605E+03  0.14030258955E+03  0.91445741238E+02 0.  0.
          5    1    1    2  502    0  0.24678793242E+02  0.35061510926E+02  0.74760311699E+02  0.86284001933E+02  0.41800000000E+01 0.  1.
         -5    1    1    2    0  502 -0.86921540330E+01 -0.54064732906E+02 -0.11445876543E+02  0.56098390135E+02  0.41800000000E+01 0.  1.
        -11    1    3    3    0    0  0.27832067415E+02  0.75177127892E+00 -0.84871486029E+02  0.89321656262E+02  0.00000000000E+00 0. -1.
         11    1    3    3    0    0 -0.43818706624E+02  0.18251450701E+02 -0.18597340026E+02  0.50980933288E+02  0.00000000000E+00 0.  1.
</event>
<event>
 7    1  0.1758121E-005  0.1061055E+03  0.7561462E-02  0.1267957E+00
         -2   -1    0    0    0  501 -0.00000000000E+00  0.00000000000E+00  0.37690217821E+02  0.37690217821E+02  0.00000000000E+00 0. -1.
          2   -1    0    0  501    0  0.00000000000E+00 -0.00000000000E+00 -0.38441228836E+03  0.38441228836E+03  0.00000000000E+00 0.  1.
         23    2    1    2    0    0  0.37740398526E+02 -0.13634575030E+02 -0.20215880161E+03  0.22678024519E+03  0.94608980650E+02 0.  0.
          5    1    1    2  502    0  0.14875855982E+02 -0.36409219157E+02 -0.76460619103E+01  0.40284699249E+02  0.41800000000E+01 0. -1.
         -5    1    1    2    0  502 -0.52616254507E+02  0.50043794188E+02 -0.13691720701E+03  0.15503756174E+03  0.41800000000E+01 0. -1.
        -11    1    3    3    0    0 -0.24238902011E+02 -0.27246245015E+02 -0.10082645329E+03  0.10721872934E+03  0.00000000000E+00 0.  1.
         11    1    3    3    0    0  0.61979300537E+02  0.13611669985E+02 -0.10133234832E+03  0.11956151585E+03  0.00000000000E+00 0. -1.
</event>
<event>
 7    1  0.1758121E-005  0.1223712E+03  0.7561462E-02  0.1239236E+00
         -1   -1    0    0    0  501 -0.00000000000E+00  0.00000000000E+00  0.11529731568E+02  0.11529731568E+02  0.00000000000E+00 0.  1.
          1   -1    0    0  501    0  0.00000000000E+00 -0.00000000000E+00 -0.13392609693E+04  0.13392609693E+04  0.00000000000E+00 0. -1.
         23    2    1    2    0    0  0.17669525726E+02  0.54563949243E+02 -0.55778587458E+03  0.56864410742E+03  0.94560046105E+02 0.  0.
          5    1    1    2  502    0  0.34955799126E+01 -0.91865720647E+02 -0.45010442114E+03  0.45941592489E+03  0.41800000000E+01 0.  1.
         -5    1    1    2    0  502 -0.21165105639E+02  0.37301771404E+02 -0.31984094197E+03  0.32273066853E+03  0.41800000000E+01 0.  1.
        -11    1    3    3    0    0 -0.33015659817E+01 -0.26085017640E+02 -0.10412686696E+03  0.10739521826E+03  0.00000000000E+00 0. -1.
         11    1    3    3    0    0  0.20971091708E+02  0.80648966883E+02 -0.45365900763E+03  0.46124888916E+03  0.00000000000E+00 0.  1.
</event>
<event>
 7    1  0.1758121E-005  0.9568464E+02  0.7561462E-02  0.1289642E+00
         -2   -1    0    0    0  501 -0.00000000000E+00  0.00000000000E+00  0.40284844169E+03  0.40284844169E+03  0.00000000000E+00 0.  1.
          2   -1    0    0  501    0  0.00000000000E+00 -0.00000000000E+00 -0.55288875791E+02  0.55288875791E+02  0.00000000000E+00 0. -1.
         23    2    1    2    0    0 -0.12275363053E+02  0.52796591084E+02  0.28624758183E+02  0.11128754392E+03  0.92883669623E+02 0.  0.
          5    1    1    2  502    0 -0.42102447746E+02  0.10328468780E+02  0.17640400497E+03  0.18170068449E+03  0.41800000000E+01 0. -1.
         -5    1    1    2    0  502  0.54377810798E+02 -0.63125059864E+02  0.14253080274E+03  0.16514908907E+03  0.41800000000E+01 0. -1.
        -11    1    3    3    0    0 -0.24543175879E+02  0.36875241549E+02 -0.27182221534E+02  0.51971377594E+02  0.00000000000E+00 0. -1.
         11    1    3    3    0    0  0.12267812827E+02  0.15921349535E+02  0.55806979716E+02  0.59316166326E+02  0.00000000000E+00 0.  1.
</event>
<event>
 7    1  0.1758121E-005  0.1811251E+03  0.7561462E-02  0.1166719E+00
          1   -1    0    0  501    0  0.00000000000E+00  0.00000000000E+00  0.46074068480E+03  0.46074068480E+03  0.00000000000E+00 0. -1.
         -1   -1    0    0    0  501 -0.00000000000E+00 -0.00000000000E+00 -0.21998056947E+03  0.21998056947E+03  0.00000000000E+00 0.  1.
         23    2    1    2    0    0  0.51264781269E+01 -0.14717933757E+03  0.39618014242E+03  0.43274733327E+03  0.92862861350E+02 0.  0.
          5    1    1    2  502    0  0.44403183501E+02  0.12726817906E+03 -0.84623820630E+02  0.15920896810E+03  0.41800000000E+01 0.  1.
         -5    1    1    2    0  502 -0.49529661627E+02  0.19911158513E+02 -0.70796206456E+02  0.88764952897E+02  0.41800000000E+01 0.  1.
        -11    1    3    3    0    0 -0.39324502309E+02 -0.33051634285E+02  0.10663791998E+03  0.11836584384E+03  0.00000000000E+00 0. -1.
         11    1    3    3    0    0  0.44450980436E+02 -0.11412770328E+03  0.28954222244E+03  0.31438148943E+03  0.00000000000E+00 0.  1.
</event>
<event>
 7    1  0.1758121E-005  0.7822457E+02  0.7561462E-02  0.1334167E+00
         -2   -1    0    0    0  501 -0.00000000000E+00  0.00000000000E+00  0.18696802763E+02  0.18696802763E+02  0.00000000000E+00 0.  1.
          2   -1    0    0  501    0  0.00000000000E+00 -0.00000000000E+00 -0.64213189348E+03  0.64213189348E+03  0.00000000000E+00 0. -1.
         23    2    1    2    0    0 -0.70720753797E+01  0.11899459402E+02 -0.30325834643E+03  0.31678966123E+03  0.90545311324E+02 0.  0.
          5    1    1    2  502    0 -0.32759955867E+02 -0.11970385689E+02 -0.29422646541E+03  0.29631603094E+03  0.41800000000E+01 0.  1.
         -5    1    1    2    0  502  0.39832031247E+02  0.70926287542E-01 -0.25950278880E+02  0.47723004073E+02  0.41800000000E+01 0.  1.
        -11    1    3    3    0    0 -0.34781618646E+02 -0.19108791280E+02 -0.75790347576E+02  0.85551643383E+02  0.00000000000E+00 0.  1.
         11    1    3    3    0    0  0.27709543266E+02  0.31008250681E+02 -0.22746799885E+03  0.23123801785E+03  0.00000000000E+00 0. -1.
</event>
<event>
 7    1  0.1758121E-005  0.6515692E+02  0.7561462E-02  0.1377382E+00
         -1   -1    0    0    0  501 -0.00000000000E+00  0.00000000000E+00  0.71629679522E+02  0.71629679522E+02  0.00000000000E+00 0.  1.
          1   -1    0    0  501    0  0.00000000000E+00 -0.00000000000E+00 -0.24539408437E+03  0.24539408437E+03  0.00000000000E+00 0. -1.
         23    2    1    2    0    0 -0.43965967088E+02 -0.31188189974E+02 -0.14258305159E+03  0.17728877212E+03  0.90529954523E+02 0.  0.
          5    1    1    2  502    0  0.26280388824E+02  0.44339915018E+02 -0.74654398283E+02  0.90815408844E+02  0.41800000000E+01 0.  1.
         -5    1    1    2    0  502  0.17685578265E+02 -0.13151725044E+02  0.43473045020E+02  0.48919582925E+02  0.41800000000E+01 0.  1.
        -11    1    3    3    0    0 -0.29237501740E+02 -0.11130510268E+02  0.12592683864E+01  0.31309831103E+02  0.00000000000E+00 0.  1.
         11    1    3    3    0    0 -0.14728465348E+02 -0.20057679706E+02 -0.14384231997E+03  0.14597894102E+03  0.00000000000E+00 0. -1.
</event>
<event>
 7    1  0.1758121E-005  0.8185359E+02  0.7561462E-02  0.1323872E+00
         -1   -1    0    0    0  501 -0.00000000000E+00  0.00000000000E+00  0.14759323175E+03  0.14759323175E+03  0.00000000000E+00 0.  1.
          1   -1    0    0  501    0  0.00000000000E+00 -0.00000000000E+00 -0.88952062146E+02  0.88952062146E+02  0.00000000000E+00 0. -1.
         23    2    1    2    0    0 -0.32712963049E+02 -0.65012178863E+01  0.55948670251E+01  0.96639381877E+02  0.90528800981E+02 0.  0.
          5    1    1    2  502    0  0.75450951274E+02  0.24764287672E+02  0.48205793316E+02  0.92991327022E+02  0.41800000000E+01 0. -1.
         -5    1    1    2    0  502 -0.42737988225E+02 -0.18263069786E+02  0.48405092645E+01  0.46914584998E+02  0.41800000000E+01 0. -1.
        -11    1    3    3    0    0 -0.15883786325E+02 -0.11901128579E+02  0.47326192757E+02  0.51319587394E+02  0.00000000000E+00 0.  1.
         11    1    3    3    0    0 -0.16829176724E+02  0.53999106923E+01 -0.41731325732E+02  0.45319794483E+02  0.00000000000E+00 0. -1.
</event>
<event>
 7    1  0.1758121E-005  0.5626371E+02  0.7561462E-02  0.1414215E+00
          2   -1    0    0  501    0  0.00000000000E+00  0.00000000000E+00  0.12623874880E+03  0.12623874880E+03  0.00000000000E+00 0. -1.
         -2   -1    0    0    0  501 -0.00000000000E+00 -0.00000000000E+00 -0.12826137086E+03  0.12826137086E+03  0.00000000000E+00 0.  1.
         23    2    1    2    0    0  0.17393881714E+02  0.10859913161E+02  0.57677207427E+02  0.11438688688E+03  0.96629264707E+02 0.  0.
          5    1    1    2  502    0  0.11649412853E+02  0.40220825487E+01 -0.92644160315E+02  0.93553721510E+02  0.41800000000E+01 0. -1.
         -5    1    1    2    0  502 -0.29043294567E+02 -0.14881995710E+02  0.32944330834E+02  0.46559511270E+02  0.41800000000E+01 0. -1.
        -11    1    3    3    0    0  0.52844575086E+01  0.37225868206E+02  0.72601375711E+02  0.81759712023E+02  0.00000000000E+00 0. -1.
         11    1    3    3    0    0  0.12109424205E+02 -0.26365955044E+02 -0.14924168285E+02  0.32627174854E+02  0.00000000000E+00 0.  1.
</event>
<event>
 7    1  0.1758121E-005  0.1136747E+03  0.7561462E-02  0.1253912E+00
          2   -1    0    0  501    0  0.00000000000E+00  0.00000000000E+00  0.28056923035E+03  0.28056923035E+03  0.00000000000E+00 0. -1.
         -2   -1    0    0    0  501 -0.00000000000E+00 -0.00000000000E+00 -0.57706265936E+02  0.57706265936E+02  0.00000000000E+00 0.  1.
         23    2    1    2    0    0  0.24864166803E+02 -0.59532615094E+02  0.12099535476E+03  0.16452999566E+03  0.90927908526E+02 0.  0.
          5    1    1    2  502    0  0.88933229993E+01 -0.25986150349E+02 -0.94161144387E+01  0.29334396449E+02  0.41800000000E+01 0.  1.
         -5    1    1    2    0  502 -0.33757489803E+02  0.85518765442E+02  0.11128372409E+03  0.14441110417E+03  0.41800000000E+01 0.  1.
        -11    1    3    3    0    0 -0.10485553676E+02 -0.69908864023E+02  0.98915190961E+02  0.12157882672E+03  0.00000000000E+00 0. -1.
         11    1    3    3    0    0  0.35349720479E+02  0.10376248929E+02  0.22080163795E+02  0.42951168936E+02  0.00000000000E+00 0.  1.
</event>
<event>
 7    1  0.1758121E-005  0.1916196E+03  0.7561462E-02  0.1157009E+00
         -1   -1    0    0    0  501 -0.00000000000E+00  0.00000000000E+00  0.76734449941E+02  0.76734449941E+02  0.00000000000E+00 0.  1.
          1   -1    0    0  501    0  0.00000000000E+00 -0.00000000000E+00 -0.58697857356E+03  0.58697857356E+03  0.00000000000E+00 0. -1.
         23    2    1    2    0    0 -0.15660185516E+03 -0.70833420104E+02 -0.33896494885E+03  0.39071912383E+03  0.90679009352E+02 0.  0.
          5    1    1    2  502    0 -0.36999922848E+01  0.23611352112E+02 -0.77739801996E+02  0.81437921793E+02  0.41800000000E+01 0. -1.
         -5    1    1    2    0  502  0.16030184745E+03  0.47222067992E+02 -0.93539372773E+02  0.19155597787E+03  0.41800000000E+01 0. -1.
        -11    1    3    3    0    0 -0.58853977493E+02  0.16081238816E+02 -0.80149369495E+02  0.10072893496E+03  0.00000000000E+00 0. -1.
         11    1    3    3    0    0 -0.97747877669E+02 -0.86914658920E+02 -0.25881557935E+03  0.28999018887E+03  0.00000000000E+00 0.  1.
</event>
<event>
 7    1  0.1758121E-005  0.9609229E+02  0.7561462E-02  0.1288735E+00
          2   -1    0    0  501    0  0.00000000000E+00  0.00000000000E+00  0.21950328588E+03  0.21950328588E+03  0.00000000000E+00 0.  1.
         -2   -1    0    0    0  501 -0.00000000000E+00 -0.00000000000E+00 -0.79561352323E+02  0.79561352323E+02  0.00000000000E+00 0. -1.
         23    2    1    2    0    0 -0.34503583098E+02 -0.64905427486E+02  0.56683019779E+02  0.13179818166E+03  0.93565935009E+02 0.  0.
          5    1    1    2  502    0  0.39623980358E+01  0.72828251705E+02  0.10558053632E+03  0.12839149853E+03  0.41800000000E+01 0. -1.
         -5    1    1    2    0  502  0.30541185062E+02 -0.79228242187E+01 -0.22321622535E+02  0.38874958021E+02  0.41800000000E+01 0. -1.
        -11    1    3    3    0    0 -0.14012208572E+02 -0.65319559511E+02  0.77680467872E+02  0.10245604879E+03  0.00000000000E+00 0.  1.
         11    1    3    3    0    0 -0.20491374525E+02  0.41413202562E+00 -0.20997448093E+02  0.29342132876E+02  0.00000000000E+00 0. -1.
</event>
<event>
 6    1  0.2913757E-005  0.5240910E+02  0.7561462E-02  0.1432764E+00
         -2   -1    0    0    0  501 -0.00000000000E+00  0.00000000000E+00  0.15209138141E+03  0.15209138141E+03  0.00000000000E+00 0.  1.
          2   -1    0    0  501    0  0.00000000000E+00 -0.00000000000E+00 -0.39580532764E+02  0.39580532764E+02  0.00000000000E+00 0. -1.
          5    1    1    2  502    0  0.12468830466E+02  0.32829897398E+02  0.10453871771E+03  0.11035891353E+03  0.41800000000E+01 0.  1.
         -5    1    1    2    0  502 -0.82782198616E+01 -0.39615570629E+02 -0.15339241805E+02  0.43482031915E+02  0.41800000000E+01 0.  1.
        -11    1    1    2    0    0  0.84625648371E+01  0.12327114433E+02  0.71599414157E+01  0.16578224119E+02  0.00000000000E+00 0.  1.
         11    1    1    2    0    0 -0.12653175441E+02 -0.55414412022E+01  0.16151431325E+02  0.21252744603E+02  0.00000000000E+00 0. -1.
</event>
<event>
 7    1  0.1758121E-005  0.2280629E+03  0.7561462E-02  0.1128011E+00
          3   -1    0    0  501    0  0.00000000000E+00  0.00000000000E+00  0.36822236203E+03  0.36822236203E+03  0.00000000000E+00 0. -1.
         -3   -1    0    0    0  501 -0.00000000000E+00 -0.00000000000E+00 -0.29927666023E+03  0.29927666023E+03  0.00000000000E+00 0.  1.
         23    2    1    2    0    0 -0.19675823992E+03 -0.94189550255E+02  0.26170428171E+03  0.35067091679E+03  0.83039053849E+02 0.  0.
          5    1    1    2  502    0  0.78737671911E+02 -0.10683119488E+02 -0.11742155848E+03  0.14184161878E+03  0.41800000000E+01 0. -1.
         -5    1    1    2    0  502  0.11802056801E+03  0.10487266974E+03 -0.75337021420E+02  0.17498648670E+03  0.41800000000E+01 0. -1.
        -11    1    3    3    0    0 -0.97441672440E+02 -0.54647159586E+02  0.71968518108E+02  0.13289341284E+03  0.00000000000E+00 0.  1.
         11    1    3    3    0    0 -0.99316567478E+02 -0.39542390669E+02  0.18973576360E+03  0.21777750394E+03  0.00000000000E+00 0. -1.
</event>
<event>
 7    1  0.1758121E-005  0.1042221E+03  0.7561462E-02  0.1271660E+00
         -1   -1    0    0    0  501 -0.00000000000E+00  0.00000000000E+00  0.26253238996E+03  0.26253238996E+03  0.00000000000E+00 0.  1.
          1   -1    0    0  501    0  0.00000000000E+00 -0.00000000000E+00 -0.46322354228E+02  0.46322354228E+02  0.00000000000E+00 0. -1.
         23    2    1    2    0    0  0.11028504448E+02  0.21196581256E+02  0.94658657308E+02  0.13280710987E+03  0.90036348561E+02 0.  0.
          5    1    1    2  502    0  0.31517838116E+02 -0.55044219210E+02  0.31915069276E+02  0.71128645670E+02  0.41800000000E+01 0.  1.
         -5    1    1    2    0  502 -0.42546342564E+02  0.33847637953E+02  0.89636309150E+02  0.10491898865E+03  0.41800000000E+01 0.  1.
        -11    1    3    3    0    0  0.74567140341E+01  0.55430414700E+02  0.73660811673E+02  0.92488099961E+02  0.00000000000E+00 0.  1.
         11    1    3    3    0    0  0.35717904137E+01 -0.34233833444E+02  0.20997845635E+02  0.40319009912E+02  0.00000000000E+00 0. -1.
</event>
<event>
 7    1  0.1758121E-005  0.1265700E+03  0.7561462E-02  0.1232636E+00
          1   -1    0    0  501    0  0.00000000000E+00  0.00000000000E+00  0.46394272745E+03  0.46394272745E+03  0.00000000000E+00 0. -1.
         -1   -1    0    0    0  501 -0.00000000000E+00 -0.00000000000E+00 -0.57058258258E+02  0.57058258258E+02  0.00000000000E+00 0.  1.
         23    2    1    2    0    0 -0.75588708827E+02 -0.29118974435E+00  0.34121271368E+03  0.36077051083E+03  0.89529368434E+02 0.  0.
          5    1    1    2  502    0 -0.34648636526E+02 -0.28536128104E+01  0.89317299137E+01  0.36137505703E+02  0.41800000000E+01 0.  1.
         -5    1    1    2    0  502  0.11023734535E+03  0.31448025548E+01  0.56740025590E+02  0.12409296917E+03  0.41800000000E+01 0.  1.
        -11    1    3    3    0    0 -0.70070791352E+01 -0.31603324381E+02  0.47118192287E+02  0.57166365236E+02  0.00000000000E+00 0.  1.
         11    1    3    3    0    0 -0.68581629692E+02  0.31312134636E+02  0.29409452140E+03  0.30360414559E+03  0.00000000000E+00 0. -1.
</event>
<event>
 7    1  0.1758121E-005  0.1061006E+03  0.7561462E-02  0.1267966E+00
         -2   -1    0    0    0  501 -0.00000000000E+00  0.00000000000E+00  0.43123475939E+03  0.43123475939E+03  0.00000000000E+00 0.  1.
          2   -1    0    0  501    0  0.00000000000E+00 -0.00000000000E+00 -0.78125554337E+02  0.78125554337E+02  0.00000000000E+00 0. -1.
         23    2    1    2    0    0  0.20188453220E+02  0.66347415772E+02 -0.13212573042E+02  0.11610533321E+03  0.92175501575E+02 0.  0.
          5    1    1    2  502    0 -0.66417965814E+02 -0.26748870131E+02  0.26892545875E+03  0.27832574980E+03  0.41800000000E+01 0. -1.
         -5    1    1    2    0  502  0.46229512594E+02 -0.39598545641E+02  0.97396319341E+02  0.11492923071E+03  0.41800000000E+01 0. -1.
        -11    1    3    3    0    0  0.30429425754E+02  0.34461558251E+02 -0.48932425488E+02  0.67141129071E+02  0.00000000000E+00 0. -1.
         11    1    3    3    0    0 -0.10240972534E+02  0.31885857521E+02  0.35719852446E+02  0.48964204140E+02  0.00000000000E+00 0.  1.
</event>
<event>
 7    1  0.1758121E-005  0.1302710E+03  0.7561462E-02  0.1227054E+00
         -2   -1    0    0    0  501 -0.00000000000E+00  0.00000000000E+00  0.13180805460E+03  0.13180805460E+03  0.00000000000E+00 0. -1.
          2   -1    0    0  501    0  0.00000000000E+00 -0.00000000000E+00 -0.15285713519E+03  0.15285713519E+03  0.00000000000E+00 0.  1.
         23    2    1    2    0    0 -0.70689232865E+02 -0.44720911448E+02 -0.43393918016E+02  0.13254014188E+03  0.93203699091E+02 0.  0.
          5    1    1    2  502    0 -0.11152411368E+02  0.53145560002E+02 -0.21797340950E+02  0.58663645469E+02  0.41800000000E+01 0. -1.
         -5    1    1    2    0  502  0.81841644232E+02 -0.84246485537E+01  0.44142178384E+02  0.93461402442E+02  0.41800000000E+01 0. -1.
        -11    1    3    3    0    0 -0.21592782589E+02  0.28367458161E+02 -0.22132174283E+02  0.41961816940E+02  0.00000000000E+00 0.  1.
         11    1    3    3    0    0 -0.49096450275E+02 -0.73088369609E+02 -0.21261743733E+02  0.90578324936E+02  0.00000000000E+00 0. -1.
</event>
<event>
 7    1  0.1758121E-005  0.1590714E+03  0.7561462E-02  0.1189749E+00
          1   -1    0    0  501    0  0.00000000000E+00  0.00000000000E+00  0.28967755850E+02  0.28967755850E+02  0.00000000000E+00 0. -1.
         -1   -1    0    0    0  501 -0.00000000000E+00 -0.00000000000E+00 -0.10339383039E+04  0.10339383039E+04  0.00000000000E+00 0.  1.
         23    2    1    2    0    0 -0.53476807182E+02  0.12201845630E+03 -0.41777109965E+03  0.44792986588E+03  0.91434131836E+02 0.  0.
          5    1    1    2  502    0  0.78188642156E+02 -0.97302265935E+02 -0.29069160630E+03  0.31638627829E+03  0.41800000000E+01 0. -1.
         -5    1    1    2    0  502 -0.24711834975E+02 -0.24716190367E+02 -0.29650784212E+03  0.29858991559E+03  0.41800000000E+01 0. -1.
        -11    1    3    3    0    0 -0.50268999386E+01  0.10729206844E+03 -0.23706441163E+03  0.26026216193E+03  0.00000000000E+00 0. -1.
         11    1    3    3    0    0 -0.48449907243E+02  0.14726387863E+02 -0.18070668802E+03  0.18766770395E+03  0.00000000000E+00 0.  1.
</event>
<event>
 7    1  0.1758121E-005  0.6966830E+02  0.7561462E-02  0.1361225E+00
          4   -1    0    0  501    0  0.00000000000E+00  0.00000000000E+00  0.21450362483E+03  0.21450362483E+03  0.00000000000E+00 0. -1.
         -4   -1    0    0    0  501 -0.00000000000E+00 -0.00000000000E+00 -0.61243300304E+02  0.61243300304E+02  0.00000000000E+00 0.  1.
         23    2    1    2    0    0  0.26577006973E+02  0.44833798782E+01  0.10055792216E+03  0.13735722152E+03  0.89602860456E+02 0.  0.
          5    1    1    2  502    0 -0.68872649925E+01  0.33169483374E+02 -0.29918026200E+02  0.45389533354E+02  0.41800000000E+01 0. -1.
         -5    1    1    2    0  502 -0.19689741980E+02 -0.37652863252E+02  0.82620428576E+02  0.93000170260E+02  0.41800000000E+01 0. -1.
        -11    1    3    3    0    0  0.46583227601E+01 -0.25189623177E+02  0.96965415239E+02  0.10029211753E+03  0.00000000000E+00 0. -1.
         11    1    3    3    0    0  0.21918684212E+02  0.29673003055E+02  0.35925069158E+01  0.37065103991E+02  0.00000000000E+00 0.  1.
</event>
<event>
 7    1  0.1758121E-005  0.4850573E+02  0.7561462E-02  0.1453572E+00
          1   -1    0    0  501    0  0.00000000000E+00  0.00000000000E+00  0.58446887232E+02  0.58446887232E+02  0.00000000000E+00 0. -1.
         -1   -1    0    0    0  501 -0.00000000000E+00 -0.00000000000E+00 -0.21798010715E+03  0.21798010715E+03  0.00000000000E+00 0.  1.
         23    2    1    2    0    0 -0.42571737169E+01  0.18235616324E+02 -0.24559310058E+02  0.91449016833E+02  0.86076139194E+02 0.  0.
          5    1    1    2  502    0  0.22452694706E+02  0.17360158438E+02  0.13106252538E+02  0.31539576030E+02  0.41800000000E+01 0.  1.
         -5    1    1    2    0  502 -0.18195520989E+02 -0.35595774761E+02 -0.14808016240E+03  0.15343840152E+03  0.41800000000E+01 0.  1.
        -11    1    3    3    0    0 -0.12645202385E+02  0.82971573721E+01  0.30944052771E+02  0.34442391986E+02  0.00000000000E+00 0. -1.
         11    1    3    3    0    0  0.83880286676E+01  0.99384589519E+01 -0.55503362828E+02  0.57006624848E+02  0.00000000000E+00 0.  1.
</event>
<event>
 7    1  0.1758121E-005  0.9776761E+02  0.7561462E-02  0.1285062E+00
          2   -1    0    0  501    0  0.00000000000E+00  0.00000000000E+00  0.48630804820E+03  0.48630804820E+03  0.00000000000E+00 0. -1.
         -2   -1    0    0    0  501 -0.00000000000E+00 -0.00000000000E+00 -0.30615030969E+02  0.30615030969E+02  0.00000000000E+00 0.  1.
         23    2    1    2    0    0 -0.55730393418E+02 -0.47234999084E+01  0.19700052934E+03  0.22418081734E+03  0.91212072120E+02 0.  0.
          5    1    1    2  502    0 -0.34251036892E+02 -0.16933587294E+01  0.26295211895E+02  0.43415568182E+02  0.41800000000E+01 0.  1.
         -5    1    1    2    0  502  0.89981430310E+02  0.64168586378E+01  0.23239727600E+03  0.24932669365E+03  0.41800000000E+01 0.  1.
        -11    1    3    3    0    0 -0.30245955219E+02  0.19119854602E+02  0.18318393069E+03  0.18664602624E+03  0.00000000000E+00 0.  1.
         11    1    3    3    0    0 -0.25484438200E+02 -0.23843354510E+02  0.13816598648E+02  0.37534791099E+02  0.00000000000E+00 0. -1.
</event>
<event>
 7    1  0.1758121E-005  0.1125480E+03  0.7561462E-02  0.1255923E+00
         -3   -1    0    0    0  501 -0.00000000000E+00  0.00000000000E+00  0.17698501276E+03  0.17698501276E+03  0.00000000000E+00 0.  1.
          3   -1    0    0  501    0  0.00000000000E+00 -0.00000000000E+00 -0.14660421010E+03  0.14660421010E+03  0.00000000000E+00 0. -1.
         23    2    1    2    0    0 -0.27637783424E+02  0.22981154383E+02 -0.99876683305E+02  0.13945281577E+03  0.90442000351E+02 0.  0.
          5    1    1    2  502    0  0.58225896771E+02 -0.57813242607E+02  0.69582828044E+02  0.10766553968E+03  0.41800000000E+01 0.  1.
         -5    1    1    2    0  502 -0.30588113347E+02  0.34832088224E+02  0.60674657923E+02  0.76470867408E+02  0.41800000000E+01 0.  1.
        -11    1    3    3    0    0  0.14451604017E+01  0.53914871037E+02 -0.65321000652E+02  0.84709709796E+02  0.00000000000E+00 0.  1.
         11    1    3    3    0    0 -0.29082943825E+02 -0.30933716654E+02 -0.34555682653E+02  0.54743105969E+02  0.00000000000E+00 0. -1.
</event>
<event>
 7    1  0.1758121E-005  0.1553227E+03  0.7561462E-02  0.1194081E+00
         -2   -1    0    0    0  501 -0.00000000000E+00  0.00000000000E+00  0.26912875784E+03  0.26912875784E+03  0.00000000000E+00 0.  1.
          2   -1    0    0  501    0  0.00000000000E+00 -0.00000000000E+00 -0.12612653754E+03  0.12612653754E+03  0.00000000000E+00 0. -1.
         23    2    1    2    0    0 -0.13864694866E+03 -0.34931267748E+02  0.25182893584E+02  0.17170866164E+03  0.91687057501E+02 0.  0.
          5    1    1    2  502    0  0.45874292774E+02 -0.21247219062E+02  0.10192633602E+03  0.11385229655E+03  0.41800000000E+01 0.  1.
         -5    1    1    2    0  502  0.92772655884E+02  0.56178486810E+02  0.15892990694E+02  0.10969433720E+03  0.41800000000E+01 0.  1.
        -11    1    3    3    0    0 -0.39396539185E+02  0.12563284388E+02  0.43665459528E+02  0.60138139064E+02  0.00000000000E+00 0.  1.
         11    1    3    3    0    0 -0.99250409473E+02 -0.47494552136E+02 -0.18482565944E+02  0.11157052257E+03  0.00000000000E+00 0. -1.
</event>
<event>
 7    1  0.1758121E-005  0.1401598E+03  0.7561462E-02  0.1213114E+00
          2   -1    0    0  501    0  0.00000000000E+00  0.00000000000E+00  0.34700636562E+03  0.34700636562E+03  0.00000000000E+00 0. -1.
         -2   -1    0    0    0  501 -0.00000000000E+00 -0.00000000000E+00 -0.79496206306E+02  0.79496206306E+02  0.00000000000E+00 0.  1.
         23    2    1    2    0    0  0.98186241180E+02  0.71545140146E+02  0.16653599038E+03  0.22500289403E+03  0.90182155630E+02 0.  0.
          5    1    1    2  502    0 -0.68490230274E+02 -0.12546822698E+02 -0.11793651227E+02  0.70745296749E+02  0.41800000000E+01 0.  1.
         -5    1    1    2    0  502 -0.29696010906E+02 -0.58998317448E+02  0.11276782016E+03  0.13075438115E+03  0.41800000000E+01 0.  1.
        -11    1    3    3    0    0  0.99031251660E+02  0.85238181059E+02  0.12334376394E+03  0.17968422418E+03  0.00000000000E+00 0.  1.
         11    1    3    3    0    0 -0.84501047926E+00 -0.13693040913E+02  0.43192226446E+02  0.45318669855E+02  0.00000000000E+00 0. -1.
</event>
<event>
 7    1  0.1758121E-005  0.1129352E+03  0.7561462E-02  0.1255229E+00
          2   -1    0    0  501    0  0.00000000000E+00  0.00000000000E+00  0.75265352882E+02  0.75265352882E+02  0.00000000000E+00 0. -1.
         -2   -1    0    0    0  501 -0.00000000000E+00 -0.00000000000E+00 -0.37157357257E+03  0.37157357257E+03  0.00000000000E+00 0.  1.
         23    2    1    2    0    0 -0.27091696460E+02  0.69918823067E+02 -0.34759230438E+01  0.11969749385E+03  0.93235219507E+02 0.  0.
          5    1    1    2  502    0 -0.80826291742E+01  0.34448581884E+02 -0.71801392053E+02  0.80155760797E+02  0.41800000000E+01 0.  1.
         -5    1    1    2    0  502  0.35174325634E+02 -0.10436740495E+03 -0.22103090460E+03  0.24698567081E+03  0.41800000000E+01 0.  1.
        -11    1    3    3    0    0 -0.17045413493E+02  0.67599050684E+02 -0.40935476920E+02  0.80844857877E+02  0.00000000000E+00 0.  1.
         11    1    3    3    0    0 -0.10046282967E+02  0.23197723825E+01  0.37459553876E+02  0.38852635972E+02  0.00000000000E+00 0. -1.
</event>
<event>
 7    1  0.1758121E-005  0.1145460E+03  0.7561462E-02  0.1252376E+00
         -3   -1    0    0    0  501 -0.00000000000E+00  0.00000000000E+00  0.61920150181E+03  0.61920150181E+03  0.00000000000E+00 0.  1.
          3   -1    0    0  501    0  0.00000000000E+00 -0.00000000000E+00 -0.23798778696E+02  0.23798778696E+02  0.00000000000E+00 0. -1.
         23    2    1    2    0    0 -0.52534257335E+02  0.33164561253E+01  0.29751877232E+03  0.31565764277E+03  0.91386434883E+02 0.  0.
          5    1    1    2  502    0  0.89558212815E+02 -0.14554571091E+02  0.24775953394E+03  0.26388400498E+03  0.41800000000E+01 0.  1.
         -5    1    1    2    0  502 -0.37023955479E+02  0.11238114965E+02  0.50124416855E+02  0.63458632765E+02  0.41800000000E+01 0.  1.
        -11    1    3    3    0    0 -0.37973094260E+02 -0.39096705689E+02  0.21434133162E+03  0.22116219099E+03  0.00000000000E+00 0.  1.
         11    1    3    3    0    0 -0.14561163075E+02  0.42413161814E+02  0.83177440694E+02  0.94495451772E+02  0.00000000000E+00 0. -1.
</event>
<event>
 7    1  0.1758121E-005  0.9089480E+02  0.7561462E-02  0.1300699E+00
         -1   -1    0    0    0  501 -0.00000000000E+00  0.00000000000E+00  0.18761135247E+03  0.18761135247E+03  0.00000000000E+00 0. -1.
          1   -1    0    0  501    0  0.00000000000E+00 -0.00000000000E+00 -0.78556041341E+02  0.78556041341E+02  0.00000000000E+00 0.  1.
         23    2    1    2    0    0  0.40584991458E+02 -0.22093830159E+02  0.11766377022E+02  0.10109409970E+03  0.89141968247E+02 0.  0.
          5    1    1    2  502    0 -0.37305937747E+02  0.46608673133E+02 -0.47137835273E+01  0.60031604656E+02  0.41800000000E+01 0.  1.
         -5    1    1    2    0  502 -0.32790537101E+01 -0.24514842973E+02  0.10200271763E+03  0.10504168945E+03  0.41800000000E+01 0.  1.
        -11    1    3    3    0    0  0.18926242012E+01  0.31058153321E+02 -0.85745641678E+01  0.32275595498E+02  0.00000000000E+00 0.  1.
         11    1    3    3    0    0  0.38692367256E+02 -0.53151983481E+02  0.20340941189E+02  0.68818504200E+02  0.00000000000E+00 0. -1.
</event>
<event>
 7    1  0.1758121E-005  0.1063700E+03  0.7561462E-02  0.1267444E+00
         -2   -1    0    0    0  501 -0.00000000000E+00  0.00000000000E+00  0.93578949860E+02  0.93578949860E+02  0.00000000000E+00 0.  1.
          2   -1    0    0  501    0  0.00000000000E+00 -0.00000000000E+00 -0.12644196381E+03  0.12644196381E+03  0.00000000000E+00 0. -1.
         23    2    1    2    0    0  0.14163878270E+02 -0.22662331368E+01 -0.16867863305E+02  0.93102944916E+02  0.90431644236E+02 0.  0.
          5    1    1    2  502    0 -0.19455698665E+02  0.61470710727E+02  0.20941892084E+01  0.64645421464E+02  0.41800000000E+01 0. -1.
         -5    1    1    2    0  502  0.52918203947E+01 -0.59204477590E+02 -0.18089339854E+02  0.62272547291E+02  0.41800000000E+01 0. -1.
        -11    1    3    3    0    0 -0.31471945267E+01  0.41425570679E+02 -0.19786468484E+02  0.46016161014E+02  0.00000000000E+00 0. -1.
         11    1    3    3    0    0  0.17311072797E+02 -0.43691803816E+02  0.29186051781E+01  0.47086783902E+02  0.00000000000E+00 0.  1.
</event>
<event>
 7    1  0.1758121E-005  0.1542139E+03  0.7561462E-02  0.1195389E+00
         -2   -1    0    0    0  501 -0.00000000000E+00  0.00000000000E+00  0.52930515056E+02  0.52930515056E+02  0.00000000000E+00 0.  1.
          2   -1    0    0  501    0  0.00000000000E+00 -0.00000000000E+00 -0.53659167100E+03  0.53659167100E+03  0.00000000000E+00 0. -1.
         23    2    1    2    0    0 -0.11555471253E+03 -0.51591855987E+02 -0.23744401634E+03  0.28573857876E+03  0.96188685937E+02 0.  0.
          5    1    1    2  502    0  0.14073991762E+03  0.56354938187E+02 -0.21622048884E+03  0.26410675051E+03  0.41800000000E+01 0.  1.
         -5    1    1    2    0  502 -0.25185205090E+02 -0.47630822001E+01 -0.29996650756E+02  0.39676856782E+02  0.41800000000E+01 0.  1.
        -11    1    3    3    0    0 -0.64915953466E+02 -0.10879534598E+02 -0.20042766571E+03  0.21095898765E+03  0.00000000000E+00 0. -1.
         11    1    3    3    0    0 -0.50638759066E+02 -0.40712321389E+02 -0.37016350631E+02  0.74779591110E+02  0.00000000000E+00 0.  1.
</event>
<event>
 7    1  0.1758121E-005  0.1048078E+03  0.7561462E-02  0.1270499E+00
         -2   -1    0    0    0  501 -0.00000000000E+00  0.00000000000E+00  0.22537765330E+03  0.22537765330E+03  0.00000000000E+00 0.  1.
          2   -1    0    0  501    0  0.00000000000E+00 -0.00000000000E+00 -0.75401185191E+02  0.75401185191E+02  0.00000000000E+00 0. -1.
         23    2    1    2    0    0  0.82252798643E+01  0.60817869625E+02  0.25719726716E+02  0.11408731546E+03  0.92671153612E+02 0.  0.
          5    1    1    2  502    0  0.26920510758E+01 -0.81445513595E+02  0.13723597259E+03  0.15966152760E+03  0.41800000000E+01 0. -1.
         -5    1    1    2    0  502 -0.10917330940E+02  0.20627643970E+02 -0.12979231194E+02  0.27029995431E+02  0.41800000000E+01 0. -1.
        -11    1    3    3    0    0 -0.32943877680E+02  0.26561956093E+01  0.27215173877E+02  0.42813784472E+02  0.00000000000E+00 0. -1.
         11    1    3    3    0    0  0.41169157544E+02  0.58161674015E+02 -0.14954471606E+01  0.71273530987E+02  0.00000000000E+00 0.  1.
</event>
<event>
 7    1  0.1758121E-005  0.1231819E+03  0.7561462E-02  0.1237938E+00
          1   -1    0    0  501    0  0.00000000000E+00  0.00000000000E+00  0.92248253043E+02  0.92248253043E+02  0.00000000000E+00 0. -1.
         -1   -1    0    0    0  501 -0.00000000000E+00 -0.00000000000E+00 -0.18536864287E+03  0.18536864287E+03  0.00000000000E+00 0.  1.
         23    2    1    2    0    0 -0.67992294738E+02 -0.18893249500E+02 -0.30928658035E+02  0.12105347285E+03  0.93367308956E+02 0.  0.
          5    1    1    2  502    0 -0.20403843127E+02 -0.34510484526E+02 -0.16512848855E+02  0.43559579129E+02  0.41800000000E+01 0.  1.
         -5    1    1    2    0  502  0.88396137864E+02  0.53403734026E+02 -0.45678882940E+02  0.11300384393E+03  0.41800000000E+01 0.  1.
        -11    1    3    3    0    0 -0.52886721522E+01  0.25387584102E+02  0.16578582829E+02  0.30779033258E+02  0.00000000000E+00 0. -1.
         11    1    3    3    0    0 -0.62703622586E+02 -0.44280833602E+02 -0.47507240864E+02  0.90274439596E+02  0.00000000000E+00 0.  1.
</event>
<event>
 7    1  0.1758121E-005  0.1161438E+03  0.7561462E-02  0.1249598E+00
         -1   -1    0    0    0  501 -0.00000000000E+00  0.00000000000E+00  0.13467638556E+04  0.13467638556E+04  0.00000000000E+00 0.  1.
          1   -1    0    0  501    0  0.00000000000E+00 -0.00000000000E+00 -0.16337501427E+02  0.16337501427E+02  0.00000000000E+00 0. -1.
         23    2    1    2    0    0  0.18937679060E+02 -0.59811054423E+02  0.22755058456E+03  0.25138239343E+03  0.86474512282E+02 0.  0.
          5    1    1    2  502    0  0.43667185018E+02  0.55535236533E+02  0.41667293077E+03  0.42264025977E+03  0.41800000000E+01 0.  1.
         -5    1    1    2    0  502 -0.62604864078E+02  0.42758178900E+01  0.68620283888E+03  0.68907870386E+03  0.41800000000E+01 0.  1.
        -11    1    3    3    0    0 -0.28180418703E+02 -0.96005650672E+01  0.12031431050E+03  0.12394289072E+03  0.00000000000E+00 0.  1.
         11    1    3    3    0    0  0.47118097763E+02 -0.50210489356E+02  0.10723627406E+03  0.12743950272E+03  0.00000000000E+00 0. -1.
</event>
<event>
 7    1  0.1758121E-005  0.9224156E+02  0.7561462E-02  0.1297512E+00
          2   -1    0    0  501    0  0.00000000000E+00  0.00000000000E+00  0.14387322299E+03  0.14387322299E+03  0.00000000000E+00 0. -1.
         -2   -1    0    0    0  501 -0.00000000000E+00 -0.00000000000E+00 -0.10084643126E+03  0.10084643126E+03  0.00000000000E+00 0.  1.
         23    2    1    2    0    0  0.46825899389E+02  0.14935938341E+02  0.39620192532E+02  0.11050158478E+03  0.90692301076E+02 0.  0.
          5    1    1    2  502    0 -0.77197787403E+01 -0.44567973825E+02  0.49207467802E+02  0.66968250403E+02  0.41800000000E+01 0. -1.
         -5    1    1    2    0  502 -0.39106120649E+02  0.29632035483E+02 -0.45800868611E+02  0.67249819068E+02  0.41800000000E+01 0. -1.
        -11    1    3    3    0    0  0.65829981936E+02  0.30187810722E+00  0.19698571479E+01  0.65860139608E+02  0.00000000000E+00 0.  1.
         11    1    3    3    0    0 -0.19004082546E+02  0.14634060234E+02  0.37650335384E+02  0.44641445170E+02  0.00000000000E+00 0. -1.
</event>
<event>
 7    1  0.1758121E-005  0.8428444E+02  0.7561462E-02  0.1317314E+00
          1   -1    0    0  501    0  0.00000000000E+00  0.00000000000E+00  0.20383090343E+03  0.20383090343E+03  0.00000000000E+00 0. -1.
         -1   -1    0    0    0  501 -0.00000000000E+00 -0.00000000000E+00 -0.65075601796E+02  0.65075601796E+02  0.00000000000E+00 0.  1.
         23    2    1    2    0    0  0.25027819204E+02 -0.25874874968E+02  0.81901281532E+02  0.12686719781E+03  0.89953127098E+02 0.  0.
          5    1    1    2  502    0  0.10323258384E+02 -0.41850494693E+02  0.48582457337E+02  0.65082725285E+02  0.41800000000E+01 0.  1.
         -5    1    1    2    0  502 -0.35351077588E+02  0.67725369661E+02  0.82715627614E+01  0.76956582128E+02  0.41800000000E+01 0.  1.
        -11    1    3    3    0    0  0.16675169276E+02  0.44811601633E+01  0.92152441182E+02  0.93756143705E+02  0.00000000000E+00 0. -1.
         11    1    3    3    0    0  0.83526499284E+01 -0.30356035131E+02 -0.10251159649E+02  0.33111054104E+02  0.00000000000E+00 0.  1.
</event>
<event>
 7    1  0.1758121E-005  0.2515741E+03  0.7561462E-02  0.1112314E+00
         -2   -1    0    0    0  501 -0.00000000000E+00  0.00000000000E+00  0.10020933093E+03  0.10020933093E+03  0.00000000000E+00 0.  1.
          2   -1    0    0  501    0  0.00000000000E+00 -0.00000000000E+00 -0.73633064023E+03  0.73633064023E+03  0.00000000000E+00 0. -1.
         23    2    1    2    0    0 -0.68432113556E+02 -0.21813132714E+03 -0.46133862757E+03  0.52275505919E+03  0.90417324496E+02 0.  0.
          5    1    1    2  502    0  0.79561589263E+02  0.59590595574E+02 -0.87055521646E+02  0.13220144408E+03  0.41800000000E+01 0. -1.
         -5    1    1    2    0  502 -0.11129475708E+02  0.15854073157E+03 -0.87727160082E+02  0.18158346789E+03  0.41800000000E+01 0. -1.
        -11    1    3    3    0    0 -0.72983805558E+01 -0.16046439459E+03 -0.27794769005E+03  0.32102493158E+03  0.00000000000E+00 0.  1.
         11    1    3    3    0    0 -0.61133733000E+02 -0.57666932553E+02 -0.18339093752E+03  0.20173012760E+03  0.00000000000E+00 0. -1.
</event>
<event>
 7    1  0.1758121E-005  0.1255729E+03  0.7561462E-02  0.1234177E+00
         -2   -1    0    0    0  501 -0.00000000000E+00  0.00000000000E+00  0.23616324933E+02  0.23616324933E+02  0.00000000000E+00 0.  1.
          2   -1    0    0  501    0  0.00000000000E+00 -0.00000000000E+00 -0.80288918438E+03  0.80288918438E+03  0.00000000000E+00 0. -1.
         23    2    1    2    0    0  0.53367833275E+02  0.61533293382E+02 -0.47761525654E+03  0.49286047512E+03  0.90336276366E+02 0.  0.
          5    1    1    2  502    0 -0.56727924446E+02 -0.86770772590E+02 -0.28405794628E+03  0.30241298523E+03  0.41800000000E+01 0. -1.
         -5    1    1    2    0  502  0.33600911708E+01  0.25237479207E+02 -0.17599656615E+02  0.31232048963E+02  0.41800000000E+01 0.  1.
        -11    1    3    3    0    0  0.76149851010E+02  0.62900486199E+02 -0.38271846323E+03  0.39525775523E+03  0.00000000000E+00 0. -1.
         11    1    3    3    0    0 -0.22782017735E+02 -0.13671928168E+01 -0.94896793314E+02  0.97602719888E+02  0.00000000000E+00 0.  1.
</event>
<event>
 7    1  0.1758121E-005  0.1577092E+03  0.7561462E-02  0.1191308E+00
          2   -1    0    0  501    0  0.00000000000E+00  0.00000000000E+00  0.10072302150E+04  0.10072302150E+04  0.00000000000E+00 0. -1.
         -2   -1    0    0    0  501 -0.00000000000E+00 -0.00000000000E+00 -0.68025005135E+02  0.68025005135E+02  0.00000000000E+00 0.  1.
         23    2    1    2    0    0  0.51160409287E+02 -0.12442019399E+03  0.86005287846E+03  0.87523174735E+03  0.90784831705E+02 0.  0.
          5    1    1    2  502    0 -0.30997184402E+02  0.12898454518E+03  0.10313635017E+03  0.16808455451E+03  0.41800000000E+01 0.  1.
         -5    1    1    2    0  502 -0.20163224885E+02 -0.45643511917E+01 -0.23984018812E+02  0.31938918234E+02  0.41800000000E+01 0.  1.
        -11    1    3    3    0    0 -0.11197054193E+02  0.89771727913E+01  0.56229925141E+02  0.58032474834E+02  0.00000000000E+00 0.  1.
         11    1    3    3    0    0  0.62357463480E+02 -0.13339736678E+03  0.80382295332E+03  0.81719927251E+03  0.00000000000E+00 0. -1.
</event>
<event>
 7    1  0.1758121E-005  0.8180774E+02  0.7561462E-02  0.1323998E+00
          2   -1    0    0  501    0  0.00000000000E+00  0.00000000000E+00  0.32387035455E+03  0.32387035455E+03  0.00000000000E+00 0. -1.
         -2   -1    0    0    0  501 -0.00000000000E+00 -0.00000000000E+00 -0.53290941511E+02  0.53290941511E+02  0.00000000000E+00 0.  1.
         23    2    1    2    0    0 -0.15087271633E+02  0.68439127985E+02  0.16105999201E+03  0.19673570584E+03  0.88617588091E+02 0.  0.
          5    1    1    2  502    0  0.20540885861E+02 -0.76531029309E+02  0.13287826528E+03  0.15476767176E+03  0.41800000000E+01 0. -1.
         -5    1    1    2    0  502 -0.54536142280E+01  0.80919013241E+01 -0.23358844251E+02  0.25657918464E+02  0.41800000000E+01 0. -1.
        -11    1    3    3    0    0  0.17398712116E+01  0.43675544329E+02  0.16096666298E+03  0.16679582404E+03  0.00000000000E+00 0. -1.
         11    1    3    3    0    0 -0.16827142845E+02  0.24763583656E+02  0.93329029065E-01  0.29939881799E+02  0.00000000000E+00 0.  1.
</event>
<event>
 7    1  0.1758121E-005  0.3519984E+03  0.7561462E-02  0.1061798E+00
          1   -1    0    0  501    0  0.00000000000E+00  0.00000000000E+00  0.14978006793E+04  0.14978006793E+04  0.00000000000E+00 0. -1.
         -1   -1    0    0    0  501 -0.00000000000E+00 -0.00000000000E+00 -0.93713671399E+02  0.93713671399E+02  0.00000000000E+00 0.  1.
         23    2    1    2    0    0 -0.25944478479E+03 -0.22585062450E+03  0.90724874303E+03  0.97443806463E+03  0.90050869677E+02 0.  0.
          5    1    1    2  502    0  0.35977450352E+02  0.60175020039E+02  0.36389339952E+02  0.79101620923E+02  0.41800000000E+01 0.  1.
         -5    1    1    2    0  502  0.22346733444E+03  0.16567560446E+03  0.46044892491E+03  0.53797466514E+03  0.41800000000E+01 0.  1.
        -11    1    3    3    0    0 -0.14879438353E+03 -0.70067207728E+02  0.41433236659E+03  0.44578076694E+03  0.00000000000E+00 0.  1.
         11    1    3    3    0    0 -0.11065040127E+03 -0.15578341677E+03  0.49291637644E+03  0.52865729769E+03  0.00000000000E+00 0. -1.
</event>
<event>
 7    1  0.1758121E-005  0.1060646E+03  0.7561462E-02  0.1268036E+00
          2   -1    0    0  501    0  0.00000000000E+00  0.00000000000E+00  0.26528743184E+02  0.26528743184E+02  0.00000000000E+00 0.  1.
         -2   -1    0    0    0  501 -0.00000000000E+00 -0.00000000000E+00 -0.54116959919E+03  0.54116959919E+03  0.00000000000E+00 0. -1.
         23    2    1    2    0    0  0.48083172265E+02  0.16077321291E+02 -0.25366802782E+03  0.27388690906E+03  0.89978324611E+02 0.  0.
          5    1    1    2  502    0 -0.57554962131E+02 -0.61508572650E+02 -0.13163949669E+03  0.15634035840E+03  0.41800000000E+01 0. -1.
         -5    1    1    2    0  502  0.94717898655E+01  0.45431251359E+02 -0.12933333150E+03  0.13747107493E+03  0.41800000000E+01 0. -1.
        -11    1    3    3    0    0  0.27841663764E+02 -0.23698855060E+02 -0.20342265376E+03  0.20668229250E+03  0.00000000000E+00 0. -1.
         11    1    3    3    0    0  0.20241508501E+02  0.39776176351E+02 -0.50245374059E+02  0.67204616552E+02  0.00000000000E+00 0.  1.
</event>
<event>
 7    1  0.1758121E-005  0.5209593E+03  0.7561462E-02  0.1008449E+00
         -2   -1    0    0    0  501 -0.00000000000E+00  0.00000000000E+00  0.41997975362E+03  0.41997975362E+03  0.00000000000E+00 0. -1.
          2   -1    0    0  501    0  0.00000000000E+00 -0.00000000000E+00 -0.66076162912E+03  0.66076162912E+03  0.00000000000E+00 0.  1.
         23    2    1    2    0    0  0.18217466266E+03  0.47956213966E+03 -0.17029565187E+03  0.54802555015E+03  0.90354529816E+02 0.  0.
          5    1    1    2  502    0  0.39520274846E+01 -0.95880825964E+02  0.16527901543E+02  0.97464841037E+02  0.41800000000E+01 0. -1.
         -5    1    1    2    0  502 -0.18612669014E+03 -0.38368131370E+03 -0.87014125174E+02  0.43525099155E+03  0.41800000000E+01 0. -1.
        -11    1    3    3    0    0 -0.79098813874E+01  0.35406680050E+02 -0.22972585231E+02  0.42941109533E+02  0.00000000000E+00 0.  1.
         11    1    3    3    0    0  0.19008454405E+03  0.44415545961E+03 -0.14732306663E+03  0.50508444062E+03  0.00000000000E+00 0. -1.
</event>
<event>
 7    1  0.1758121E-005  0.1365063E+03  0.7561462E-02  0.1218109E+00
         -2   -1    0    0    0  501 -0.00000000000E+00  0.00000000000E+00  0.16172059458E+03  0.16172059458E+03  0.00000000000E+00 0. -1.
          2   -1    0    0  501    0  0.00000000000E+00 -0.00000000000E+00 -0.12380134777E+03  0.12380134777E+03  0.00000000000E+00 0.  1.
         23    2    1    2    0    0  0.54159282613E+02 -0.73077305238E+02  0.79903148878E+01  0.12798836298E+03  0.89686428692E+02 0.  0.
          5    1    1    2  502    0 -0.82009169719E+02  0.18399472325E+02 -0.91758513115E+01  0.84650535422E+02  0.41800000000E+01 0. -1.
         -5    1    1    2    0  502  0.27849887106E+02  0.54677832913E+02  0.39104783229E+02  0.72883043949E+02  0.41800000000E+01 0. -1.
        -11    1    3    3    0    0  0.32561874732E+02 -0.92652840708E+02  0.10308337337E+02  0.98747589317E+02  0.00000000000E+00 0. -1.
         11    1    3    3    0    0  0.21597407882E+02  0.19575535470E+02 -0.23180224491E+01  0.29240773660E+02  0.00000000000E+00 0.  1.
</event>
<event>
 7    1  0.1758121E-005  0.1113938E+03  0.7561462E-02  0.1258010E+00
         -1   -1    0    0    0  501 -0.00000000000E+00  0.00000000000E+00  0.32185638193E+03  0.32185638193E+03  0.00000000000E+00 0.  1.
          1   -1    0    0  501    0  0.00000000000E+00 -0.00000000000E+00 -0.44710131143E+02  0.44710131143E+02  0.00000000000E+00 0. -1.
         23    2    1    2    0    0  0.21307057358E+02 -0.37160407157E+02  0.86031198314E+02  0.13417174647E+03  0.93625872040E+02 0.  0.
          5    1    1    2  502    0  0.20891716290E+02 -0.35013469588E+02  0.10300649101E+03  0.11086124865E+03  0.41800000000E+01 0. -1.
         -5    1    1    2    0  502 -0.42198773649E+02  0.72173876745E+02  0.88108561465E+02  0.12153351795E+03  0.41800000000E+01 0. -1.
        -11    1    3    3    0    0  0.55612119137E+02 -0.29459551923E+02  0.73698875353E+02  0.96912833117E+02  0.00000000000E+00 0.  1.
         11    1    3    3    0    0 -0.34305061779E+02 -0.77008552344E+01  0.12332322961E+02  0.37258913358E+02  0.00000000000E+00 0. -1.
</event>
<event>
 7    1  0.1758121E-005  0.1686284E+03  0.7561462E-02  0.1179286E+00
         -2   -1    0    0    0  501 -0.00000000000E+00  0.00000000000E+00  0.15456250033E+03  0.15456250033E+03  0.00000000000E+00 0.  1.
          2   -1    0    0  501    0  0.00000000000E+00 -0.00000000000E+00 -0.22582327860E+03  0.22582327860E+03  0.00000000000E+00 0. -1.
         23    2    1    2    0    0 -0.53402420387E+02  0.12733228312E+03 -0.71676040406E+02  0.19407621840E+03  0.11602928489E+03 0.  0.
          5    1    1    2  502    0  0.91689375606E+02 -0.69196592153E+02  0.12174655060E+02  0.11558894666E+03  0.41800000000E+01 0.  1.
         -5    1    1    2    0  502 -0.38286955219E+02 -0.58135690969E+02 -0.11759392919E+02  0.70720613871E+02  0.41800000000E+01 0.  1.
        -11    1    3    3    0    0 -0.33908545633E+02  0.12864301680E+03 -0.14703854678E+02  0.13384699690E+03  0.00000000000E+00 0.  1.
         11    1    3    3    0    0 -0.19493874754E+02 -0.13107336730E+01 -0.56972185728E+02  0.60229221498E+02  0.00000000000E+00 0. -1.
</event>
<event>
 7    1  0.1758121E-005  0.2490040E+03  0.7561462E-02  0.1113936E+00
          1   -1    0    0  501    0  0.00000000000E+00  0.00000000000E+00  0.62868026871E+03  0.62868026871E+03  0.00000000000E+00 0. -1.
         -1   -1    0    0    0  501 -0.00000000000E+00 -0.00000000000E+00 -0.14910809850E+03  0.14910809850E+03  0.00000000000E+00 0.  1.
         23    2    1    2    0    0 -0.76758394690E+02  0.22014393310E+03  0.44570521988E+03  0.51105043783E+03  0.90355987882E+02 0.  0.
          5    1    1    2  502    0  0.84060627105E+02 -0.58257837411E+02  0.92933956283E+01  0.10278134194E+03  0.41800000000E+01 0.  1.
         -5    1    1    2    0  502 -0.73022324146E+01 -0.16188609569E+03  0.24573554708E+02  0.16395658744E+03  0.41800000000E+01 0.  1.
        -11    1    3    3    0    0 -0.61932460578E+02  0.19186912031E+03  0.43115229493E+03  0.47596395916E+03  0.00000000000E+00 0. -1.
         11    1    3    3    0    0 -0.14825934112E+02  0.28274812793E+02  0.14552924949E+02  0.35086478669E+02  0.00000000000E+00 0.  1.
</event>
<event>
 7    1  0.1758121E-005  0.1030419E+03  0.7561462E-02  0.1274026E+00
         -2   -1    0    0    0  501 -0.00000000000E+00  0.00000000000E+00  0.84681050726E+02  0.84681050726E+02  0.00000000000E+00 0. -1.
          2   -1    0    0  501    0  0.00000000000E+00 -0.00000000000E+00 -0.16468171970E+03  0.16468171970E+03  0.00000000000E+00 0.  1.
         23    2    1    2    0    0 -0.83951276943E+01  0.51588042511E+02 -0.37066738410E+02  0.10715780450E+03  0.85889741349E+02 0.  0.
          5    1    1    2  502    0 -0.50019058018E+02 -0.19856139936E+02  0.12662383990E+02  0.55443492192E+02  0.41800000000E+01 0.  1.
         -5    1    1    2    0  502  0.58414185712E+02 -0.31731902575E+02 -0.55596314557E+02  0.86761473741E+02  0.41800000000E+01 0.  1.
        -11    1    3    3    0    0  0.27738838781E+02  0.79785064397E+01  0.12915972428E+02  0.31621544645E+02  0.00000000000E+00 0.  1.
         11    1    3    3    0    0 -0.36133966475E+02  0.43609536072E+02 -0.49982710838E+02  0.75536259852E+02  0.00000000000E+00 0. -1.
</event>
<event>
 7    1  0.1758121E-005  0.1310152E+03  0.7561462E-02  0.1225957E+00
         -4   -1    0    0    0  501 -0.00000000000E+00  0.00000000000E+00  0.33575463330E+03  0.33575463330E+03  0.00000000000E+00 0.  1.
          4   -1    0    0  501    0  0.00000000000E+00 -0.00000000000E+00 -0.80151062774E+02  0.80151062774E+02  0.00000000000E+00 0. -1.
         23    2    1    2    0    0  0.69922116765E+02  0.77316625050E+02  0.42928375595E+02  0.14804989883E+03  0.95963348155E+02 0.  0.
          5    1    1    2  502    0 -0.62452888534E+02 -0.95589548119E+02  0.95379043189E+02  0.14883668659E+03  0.41800000000E+01 0.  1.
         -5    1    1    2    0  502 -0.74692282317E+01  0.18272923069E+02  0.11729615174E+03  0.11901911065E+03  0.41800000000E+01 0.  1.
        -11    1    3    3    0    0  0.76933422188E+02  0.34688911135E+02 -0.37149754089E+01  0.84474096903E+02  0.00000000000E+00 0. -1.
         11    1    3    3    0    0 -0.70113054227E+01  0.42627713915E+02  0.46643351003E+02  0.63575801923E+02  0.00000000000E+00 0.  1.
</event>
<event>
 7    1  0.1758121E-005  0.1182120E+03  0.7561462E-02  0.1246076E+00
         -2   -1    0    0    0  501 -0.00000000000E+00  0.00000000000E+00  0.50512683260E+03  0.50512683260E+03  0.00000000000E+00 0. -1.
          2   -1    0    0  501    0  0.00000000000E+00 -0.00000000000E+00 -0.48669138986E+02  0.48669138986E+02  0.00000000000E+00 0.  1.
         23    2    1    2    0    0 -0.69573608429E+02  0.22002181383E+02  0.55798327976E+02  0.12776741049E+03  0.88805826396E+02 0.  0.
          5    1    1    2  502    0  0.76718052621E+02 -0.62334768709E+02  0.22824193155E+03  0.24876321011E+03  0.41800000000E+01 0.  1.
         -5    1    1    2    0  502 -0.71444441927E+01  0.40332587326E+02  0.17241743408E+03  0.17726535098E+03  0.41800000000E+01 0.  1.
        -11    1    3    3    0    0 -0.50237937097E+02 -0.16789476318E+02  0.64599440933E+02  0.83539359631E+02  0.00000000000E+00 0. -1.
         11    1    3    3    0    0 -0.19335671332E+02  0.38791657702E+02 -0.88011129564E+01  0.44228050854E+02  0.00000000000E+00 0.  1.
</event>
<event>
 7    1  0.2793792E-005  0.2169126E+03  0.7561462E-02  0.1136206E+00
          1   -1    0    0  501    0  0.00000000000E+00  0.00000000000E+00  0.41391721114E+03  0.41391721114E+03  0.00000000000E+00 0. -1.
         -1   -1    0    0    0  501 -0.00000000000E+00 -0.00000000000E+00 -0.16055317616E+03  0.16055317616E+03  0.00000000000E+00 0.  1.
         23    2    1    2    0    0  0.16454488673E+03  0.10319719465E+03  0.26741568142E+03  0.34301865532E+03  0.91793085207E+02 0.  0.
          5    1    1    2  502    0  0.42573647626E+01 -0.49054766907E+02 -0.21686544803E+02  0.53965488384E+02  0.41800000000E+01 0.  1.
         -5    1    1    2    0  502 -0.16880225150E+03 -0.54142427745E+02  0.76348983647E+01  0.17748624359E+03  0.41800000000E+01 0.  1.
        -11    1    3    3    0    0  0.66073900833E+02  0.83813825530E+02  0.91924264450E+02  0.14085662255E+03  0.00000000000E+00 0. -1.
         11    1    3    3    0    0  0.98470985901E+02  0.19383369123E+02  0.17549141697E+03  0.20216203277E+03  0.00000000000E+00 0.  1.
</event>
<event>
 7    1  0.1758121E-005  0.1434037E+03  0.7561462E-02  0.1208821E+00
         -2   -1    0    0    0  501 -0.00000000000E+00  0.00000000000E+00  0.54166119863E+02  0.54166119863E+02  0.00000000000E+00 0.  1.
          2   -1    0    0  501    0  0.00000000000E+00 -0.00000000000E+00 -0.60663125820E+03  0.60663125820E+03  0.00000000000E+00 0. -1.
         23    2    1    2    0    0  0.11822441140E+03 -0.36399260179E+01 -0.34976015489E+03  0.38045375693E+03  0.91774913227E+02 0.  0.
          5    1    1    2  502    0 -0.10713909762E+03  0.50913662950E+02 -0.19868896771E+03  0.23144279121E+03  0.41800000000E+01 0. -1.
         -5    1    1    2    0  502 -0.11085313782E+02 -0.47273736932E+02 -0.40160157336E+01  0.48900829927E+02  0.41800000000E+01 0.  1.
        -11    1    3    3    0    0  0.10358042637E+03 -0.85476116055E+01 -0.34989906631E+03  0.36500866154E+03  0.00000000000E+00 0.  1.
         11    1    3    3    0    0  0.14643985026E+02  0.49076855876E+01  0.13891141742E+00  0.15445095391E+02  0.00000000000E+00 0. -1.
</event>
<event>
 7    1  0.1758121E-005  0.1546312E+03  0.7561462E-02  0.1194895E+00
         -1   -1    0    0    0  501 -0.00000000000E+00  0.00000000000E+00  0.21312305694E+03  0.21312305694E+03  0.00000000000E+00 0.  1.
          1   -1    0    0  501    0  0.00000000000E+00 -0.00000000000E+00 -0.23233611685E+03  0.23233611685E+03  0.00000000000E+00 0. -1.
         23    2    1    2    0    0  0.20925171733E+02 -0.11417271418E+03 -0.16484919714E+03  0.22111489093E+03  0.90792432045E+02 0.  0.
          5    1    1    2  502    0  0.46996502694E+02  0.51632807454E+02  0.97908045798E+02  0.12032487649E+03  0.41800000000E+01 0.  1.
         -5    1    1    2    0  502 -0.67921674427E+02  0.62539906728E+02  0.47728091428E+02  0.10401940637E+03  0.41800000000E+01 0.  1.
        -11    1    3    3    0    0 -0.30670301542E+02 -0.78195518954E+02 -0.85456555202E+02  0.11982499492E+03  0.00000000000E+00 0.  1.
         11    1    3    3    0    0  0.51595473275E+02 -0.35977195228E+02 -0.79392641939E+02  0.10128989601E+03  0.00000000000E+00 0. -1.
</event>
<event>
 7    1  0.1758121E-005  0.1347231E+03  0.7561462E-02  0.1220611E+00
         -2   -1    0    0    0  501 -0.00000000000E+00  0.00000000000E+00  0.29878675324E+02  0.29878675324E+02  0.00000000000E+00 0.  1.
          2   -1    0    0  501    0  0.00000000000E+00 -0.00000000000E+00 -0.66495707610E+03  0.66495707610E+03  0.00000000000E+00 0. -1.
         23    2    1    2    0    0  0.81243584178E+02  0.24711733012E+02 -0.38055427634E+03  0.39879361446E+03  0.83687513854E+02 0.  0.
          5    1    1    2  502    0 -0.25169387625E+01  0.44869489231E+02 -0.91881101995E+02  0.10236803871E+03  0.41800000000E+01 0. -1.
         -5    1    1    2    0  502 -0.78726645416E+02 -0.69581222243E+02 -0.16264302244E+03  0.19367409826E+03  0.41800000000E+01 0. -1.
        -11    1    3    3    0    0  0.65032599644E+01 -0.27325656566E+02 -0.95427319295E+02  0.99475409850E+02  0.00000000000E+00 0.  1.
         11    1    3    3    0    0  0.74740324214E+02  0.52037389578E+02 -0.28512695704E+03  0.29931820461E+03  0.00000000000E+00 0. -1.
</event>
<event>
 7    1  0.1758121E-005  0.1122909E+03  0.7561462E-02  0.1256385E+00
          1   -1    0    0  501    0  0.00000000000E+00  0.00000000000E+00  0.40879703363E+03  0.40879703363E+03  0.00000000000E+00 0. -1.
         -1   -1    0    0    0  501 -0.00000000000E+00 -0.00000000000E+00 -0.59170949001E+02  0.59170949001E+02  0.00000000000E+00 0.  1.
         23    2    1    2    0    0 -0.73649410561E+02  0.45718291427E+02  0.27178841210E+03  0.29702725817E+03  0.82715496105E+02 0.  0.
          5    1    1    2  502    0 -0.45179412936E+01 -0.38502029112E+02 -0.21291019108E+02  0.44425194810E+02  0.41800000000E+01 0.  1.
         -5    1    1    2    0  502  0.78167351854E+02 -0.72162623146E+01  0.99128691634E+02  0.12651552965E+03  0.41800000000E+01 0.  1.
        -11    1    3    3    0    0 -0.57982959939E+02  0.61652011854E+02  0.25610511498E+03  0.26972731439E+03  0.00000000000E+00 0. -1.
         11    1    3    3    0    0 -0.15666450622E+02 -0.15933720427E+02  0.15683297120E+02  0.27299943778E+02  0.00000000000E+00 0.  1.
</event>
<event>
 7    1  0.1758121E-005  0.8892439E+02  0.7561462E-02  0.1305478E+00
         -2   -1    0    0    0  501 -0.00000000000E+00  0.00000000000E+00  0.64161498246E+03  0.64161498246E+03  0.00000000000E+00 0.  1.
          2   -1    0    0  501    0  0.00000000000E+00 -0.00000000000E+00 -0.22709390868E+02  0.22709390868E+02  0.00000000000E+00 0. -1.
         23    2    1    2    0    0 -0.14024002151E+02  0.15693656114E+02  0.11785579313E+03  0.14746685136E+03  0.86101804840E+02 0.  0.
          5    1    1    2  502    0  0.51697843297E+02  0.14154999983E+02  0.41274756825E+03  0.41623437931E+03  0.41800000000E+01 0. -1.
         -5    1    1    2    0  502 -0.37673841146E+02 -0.29848656097E+02  0.88302230210E+02  0.10062314265E+03  0.41800000000E+01 0. -1.
        -11    1    3    3    0    0  0.38431206368E+01 -0.28193387725E+02  0.85444629394E+02  0.90057877945E+02  0.00000000000E+00 0.  1.
         11    1    3    3    0    0 -0.17867122788E+02  0.43887043839E+02  0.32411163736E+02  0.57408973414E+02  0.00000000000E+00 0. -1.
</event>
<event>
 7    1  0.1758121E-005  0.1307221E+03  0.7561462E-02  0.1226388E+00
          2   -1    0    0  501    0  0.00000000000E+00  0.00000000000E+00  0.20872719877E+03  0.20872719877E+03  0.00000000000E+00 0. -1.
         -2   -1    0    0    0  501 -0.00000000000E+00 -0.00000000000E+00 -0.12428379647E+03  0.12428379647E+03  0.00000000000E+00 0.  1.
         23    2    1    2    0    0  0.97043580550E+02  0.61165881071E+02  0.69074434864E+02  0.16260024377E+03  0.92243374763E+02 0.  0.
          5    1    1    2  502    0 -0.10694368865E+02 -0.12039773550E+02  0.59384247876E+02  0.61670795101E+02  0.41800000000E+01 0.  1.
         -5    1    1    2    0  502 -0.86349211686E+02 -0.49126107522E+02 -0.44015280449E+02  0.10873995637E+03  0.41800000000E+01 0.  1.
        -11    1    3    3    0    0  0.89708686494E+02  0.62027079639E+01  0.30115046380E+02  0.94831629939E+02  0.00000000000E+00 0.  1.
         11    1    3    3    0    0  0.73348940566E+01  0.54963173107E+02  0.38959388484E+02  0.67768613826E+02  0.00000000000E+00 0. -1.
</event>
<event>
 7    1  0.1758121E-005  0.1904106E+03  0.7561462E-02  0.1158091E+00
         -3   -1    0    0    0  501 -0.00000000000E+00  0.00000000000E+00  0.12564532191E+03  0.12564532191E+03  0.00000000000E+00 0.  1.
          3   -1    0    0  501    0  0.00000000000E+00 -0.00000000000E+00 -0.33920831564E+03  0.33920831564E+03  0.00000000000E+00 0. -1.
         23    2    1    2    0    0 -0.81476732817E+02 -0.13757139205E+03 -0.17708843153E+03  0.25859657219E+03  0.99737298274E+02 0.  0.
          5    1    1    2  502    0 -0.26434972725E+02  0.30424394954E+02 -0.35887653611E+02  0.54128067331E+02  0.41800000000E+01 0. -1.
         -5    1    1    2    0  502  0.10791170554E+03  0.10714699710E+03 -0.58690859460E+00  0.15212899803E+03  0.41800000000E+01 0. -1.
        -11    1    3    3    0    0  0.13326139482E+02 -0.71222795987E+02 -0.61475341061E+02  0.95023629799E+02  0.00000000000E+00 0. -1.
         11    1    3    3    0    0 -0.94802872299E+02 -0.66348596066E+02 -0.11561309047E+03  0.16357294239E+03  0.00000000000E+00 0.  1.
</event>
<event>
 7    1  0.1758121E-005  0.1993685E+03  0.7561462E-02  0.1150273E+00
         -1   -1    0    0    0  501 -0.00000000000E+00  0.00000000000E+00  0.79140483332E+02  0.79140483332E+02  0.00000000000E+00 0.  1.
          1   -1    0    0  501    0  0.00000000000E+00 -0.00000000000E+00 -0.53898398921E+03  0.53898398921E+03  0.00000000000E+00 0. -1.
         23    2    1    2    0    0 -0.75915361061E+02 -0.15776286493E+03 -0.20961917284E+03  0.28810737390E+03  0.91724575111E+02 0.  0.
          5    1    1    2  502    0 -0.15648204397E+02 -0.76275036655E+01 -0.56657542894E+02  0.59418807458E+02  0.41800000000E+01 0.  1.
         -5    1    1    2    0  502  0.91563565458E+02  0.16539036860E+03 -0.19356679015E+03  0.27059829118E+03  0.41800000000E+01 0.  1.
        -11    1    3    3    0    0  0.63420957041E+01 -0.74257561182E+02 -0.48719810770E+02  0.89039471764E+02  0.00000000000E+00 0. -1.
         11    1    3    3    0    0 -0.82257456765E+02 -0.83505303748E+02 -0.16089936207E+03  0.19906790214E+03  0.00000000000E+00 0.  1.
</event>
<event>
 7    1  0.1758121E-005  0.9237794E+02  0.7561462E-02  0.1297193E+00
         -1   -1    0    0    0  501 -0.00000000000E+00  0.00000000000E+00  0.40277677097E+02  0.40277677097E+02  0.00000000000E+00 0.  1.
          1   -1    0    0  501    0  0.00000000000E+00 -0.00000000000E+00 -0.30159128279E+03  0.30159128279E+03  0.00000000000E+00 0. -1.
         23    2    1    2    0    0  0.45022324310E+01 -0.96443103141E+01 -0.13950098596E+03  0.16693851493E+03  0.91075023291E+02 0.  0.
          5    1    1    2  502    0 -0.38116509406E+02 -0.46187246533E+02 -0.63459798252E+02  0.87354155171E+02  0.41800000000E+01 0. -1.
         -5    1    1    2    0  502  0.33614276975E+02  0.55831556847E+02 -0.58352821483E+02  0.87576289779E+02  0.41800000000E+01 0. -1.
        -11    1    3    3    0    0  0.15561702590E+02  0.21403982013E+02 -0.31375494789E+01  0.26648475571E+02  0.00000000000E+00 0.  1.
         11    1    3    3    0    0 -0.11059470159E+02 -0.31048292327E+02 -0.13636343648E+03  0.14029003936E+03  0.00000000000E+00 0. -1.
</event>
<event>
 7    1  0.1758121E-005  0.1107251E+03  0.7561462E-02  0.1259233E+00
         -1   -1    0    0    0  501 -0.00000000000E+00  0.00000000000E+00  0.25820054211E+03  0.25820054211E+03  0.00000000000E+00 0.  1.
          1   -1    0    0  501    0  0.00000000000E+00 -0.00000000000E+00 -0.79279098257E+02  0.79279098257E+02  0.00000000000E+00 0. -1.
         23    2    1    2    0    0 -0.48359740688E+02  0.56483487055E+02  0.13807822001E+02  0.11739183079E+03  0.89783835735E+02 0.  0.
          5    1    1    2  502    0 -0.17725847187E+02 -0.53738245663E+02  0.13664563811E+03  0.14795778966E+03  0.41800000000E+01 0.  1.
         -5    1    1    2    0  502  0.66085587875E+02 -0.27452413919E+01  0.28467983742E+02  0.72130019918E+02  0.41800000000E+01 0.  1.
        -11    1    3    3    0    0  0.16053906495E+02  0.13728611860E+02 -0.23458243836E+02  0.31567259957E+02  0.00000000000E+00 0. -1.
         11    1    3    3    0    0 -0.64413647183E+02  0.42754875194E+02  0.37266065837E+02  0.85824570836E+02  0.00000000000E+00 0.  1.
</event>
<event>
 7    1  0.1758121E-005  0.3799045E+03  0.7561462E-02  0.1050969E+00
         -2   -1    0    0    0  501 -0.00000000000E+00  0.00000000000E+00  0.15854984387E+03  0.15854984387E+03  0.00000000000E+00 0. -1.
          2   -1    0    0  501    0  0.00000000000E+00 -0.00000000000E+00 -0.95505823827E+03  0.95505823827E+03  0.00000000000E+00 0.  1.
         23    2    1    2    0    0 -0.45919468792E+02  0.36906359446E+03 -0.34129618765E+03  0.51262197747E+03  0.89340190894E+02 0.  0.
          5    1    1    2  502    0  0.81104532579E+02 -0.28168604125E+03 -0.30054713851E+03  0.41984643134E+03  0.41800000000E+01 0. -1.
         -5    1    1    2    0  502 -0.35185063787E+02 -0.87377553216E+02 -0.15466506824E+03  0.18113967333E+03  0.41800000000E+01 0. -1.
        -11    1    3    3    0    0 -0.22178756975E+02  0.11009980693E+03 -0.16052567741E+03  0.19591415940E+03  0.00000000000E+00 0.  1.
         11    1    3    3    0    0 -0.23740711817E+02  0.25896378754E+03 -0.18077051024E+03  0.31670781807E+03  0.00000000000E+00 0. -1.
</event>
<event>
 7    1  0.1758121E-005  0.8748407E+02  0.7561462E-02  0.1309061E+00
          2   -1    0    0  501    0  0.00000000000E+00  0.00000000000E+00  0.30498829703E+03  0.30498829703E+03  0.00000000000E+00 0. -1.
         -2   -1    0    0    0  501 -0.00000000000E+00 -0.00000000000E+00 -0.44782508463E+02  0.44782508463E+02  0.00000000000E+00 0.  1.
         23    2    1    2    0    0  0.92543209701E+00 -0.32133627831E+02  0.15723481619E+03  0.18459154103E+03  0.91202100490E+02 0.  0.
          5    1    1    2  502    0 -0.22346933495E+02 -0.14907487491E+02 -0.18647046035E+02  0.32966700559E+02  0.41800000000E+01 0.  1.
         -5    1    1    2    0  502  0.21421501398E+02  0.47041115322E+02  0.12161801841E+03  0.13221256391E+03  0.41800000000E+01 0.  1.
        -11    1    3    3    0    0  0.29459816101E+02 -0.52956974897E+02  0.87725264719E+02  0.10662102994E+03  0.00000000000E+00 0.  1.
         11    1    3    3    0    0 -0.28534384004E+02  0.20823347066E+02  0.69509551471E+02  0.77970511088E+02  0.00000000000E+00 0. -1.
</event>
<event>
 7    1  0.1758121E-005  0.1737078E+03  0.7561462E-02  0.1174035E+00
          2   -1    0    0  501    0  0.00000000000E+00  0.00000000000E+00  0.87885714266E+03  0.87885714266E+03  0.00000000000E+00 0.  1.
         -2   -1    0    0    0  501 -0.00000000000E+00 -0.00000000000E+00 -0.38324103177E+02  0.38324103177E+02  0.00000000000E+00 0. -1.
         23    2    1    2    0    0 -0.11929049230E+03 -0.79366402990E+02  0.48656975406E+03  0.51535225688E+03  0.91151388520E+02 0.  0.
          5    1    1    2  502    0 -0.18940368549E+02  0.42948393089E+02  0.92412715484E+02  0.10373468279E+03  0.41800000000E+01 0. -1.
         -5    1    1    2    0  502  0.13823086085E+03  0.36418009901E+02  0.26155056994E+03  0.29809430617E+03  0.41800000000E+01 0. -1.
        -11    1    3    3    0    0 -0.51248230961E+02  0.19096303005E+01  0.26266777863E+03  0.26762733380E+03  0.00000000000E+00 0.  1.
         11    1    3    3    0    0 -0.68042261337E+02 -0.81276033291E+02  0.22390197543E+03  0.24772492308E+03  0.00000000000E+00 0. -1.
</event>
<event>
 7    1  0.1758121E-005  0.1741063E+03  0.7561462E-02  0.1173632E+00
          2   -1    0    0  501    0  0.00000000000E+00  0.00000000000E+00  0.10311328809E+04  0.10311328809E+04  0.00000000000E+00 0. -1.
         -2   -1    0    0    0  501 -0.00000000000E+00 -0.00000000000E+00 -0.39443562425E+02  0.39443562425E+02  0.00000000000E+00 0.  1.
         23    2    1    2    0    0 -0.11454297329E+03  0.11039812565E+03  0.63631946584E+03  0.66162272550E+03  0.86800515038E+02 0.  0.
          5    1    1    2  502    0 -0.68261724223E+01 -0.13688029191E+02 -0.49514982384E+01  0.16611697923E+02  0.41800000000E+01 0.  1.
         -5    1    1    2    0  502  0.12136914572E+03 -0.96710096462E+02  0.36032135091E+03  0.39234201994E+03  0.41800000000E+01 0.  1.
        -11    1    3    3    0    0 -0.36214286109E+02 -0.61049703552E+01  0.19777834666E+03  0.20115918968E+03  0.00000000000E+00 0. -1.
         11    1    3    3    0    0 -0.78328687185E+02  0.11650309601E+03  0.43854111918E+03  0.46046353583E+03  0.00000000000E+00 0.  1.
</event>
<event>
 7    1  0.1758121E-005  0.1474614E+03  0.7561462E-02  0.1203628E+00
         -1   -1    0    0    0  501 -0.00000000000E+00  0.00000000000E+00  0.38353583738E+02  0.38353583738E+02  0.00000000000E+00 0.  1.
          1   -1    0    0  501    0  0.00000000000E+00 -0.00000000000E+00 -0.76371192537E+03  0.76371192537E+03  0.00000000000E+00 0. -1.
         23    2    1    2    0    0 -0.69272192081E+02  0.11132775281E+03 -0.38167810845E+03  0.41353361664E+03  0.90218448662E+02 0.  0.
          5    1    1    2  502    0  0.14214953520E+02 -0.68547481119E+02 -0.29542482440E+03  0.30363484869E+03  0.41800000000E+01 0.  1.
         -5    1    1    2    0  502  0.55057238562E+02 -0.42780271692E+02 -0.48255408778E+02  0.84897043767E+02  0.41800000000E+01 0.  1.
        -11    1    3    3    0    0 -0.82632356511E+02  0.60564062701E+02 -0.20426242164E+03  0.22851531443E+03  0.00000000000E+00 0.  1.
         11    1    3    3    0    0  0.13360164430E+02  0.50763690111E+02 -0.17741568681E+03  0.18501830221E+03  0.00000000000E+00 0. -1.
</event>
<event>
 7    1  0.1758121E-005  0.8058338E+02  0.7561462E-02  0.1327404E+00
         -3   -1    0    0    0  501 -0.00000000000E+00  0.00000000000E+00  0.75475290817E+03  0.75475290817E+03  0.00000000000E+00 0.  1.
          3   -1    0    0  501    0  0.00000000000E+00 -0.00000000000E+00 -0.12085807649E+02  0.12085807649E+02  0.00000000000E+00 0. -1.
         23    2    1    2    0    0  0.81395706772E+01 -0.76188969041E+01  0.22970295254E+03  0.23872524895E+03  0.64046841318E+02 0.  0.
          5    1    1    2  502    0  0.43930849471E+02 -0.14035779849E+02  0.88348644195E+02  0.99749075095E+02  0.41800000000E+01 0. -1.
         -5    1    1    2    0  502 -0.52070420149E+02  0.21654676753E+02  0.42461550379E+03  0.42836439177E+03  0.41800000000E+01 0. -1.
        -11    1    3    3    0    0  0.31337292393E+01  0.25057708146E+02  0.50091375053E+02  0.56096834591E+02  0.00000000000E+00 0. -1.
         11    1    3    3    0    0  0.50058414379E+01 -0.32676605050E+02  0.17961157749E+03  0.18262841436E+03  0.00000000000E+00 0.  1.
</event>
<event>
 7    1  0.1758121E-005  0.6804872E+02  0.7561462E-02  0.1366857E+00
          1   -1    0    0  501    0  0.00000000000E+00  0.00000000000E+00  0.14521800805E+03  0.14521800805E+03  0.00000000000E+00 0. -1.
         -1   -1    0    0    0  501 -0.00000000000E+00 -0.00000000000E+00 -0.13479461806E+03  0.13479461806E+03  0.00000000000E+00 0.  1.
         23    2    1    2    0    0  0.72829030354E+00 -0.15859808577E+02  0.91554954679E+02  0.13007422214E+03  0.91021588671E+02 0.  0.
          5    1    1    2  502    0  0.16880006486E+02 -0.17357331012E+02 -0.10324051364E+03  0.10612392575E+03  0.41800000000E+01 0.  1.
         -5    1    1    2    0  502 -0.17608296790E+02  0.33217139590E+02  0.22108948953E+02  0.43814478226E+02  0.41800000000E+01 0.  1.
        -11    1    3    3    0    0  0.35972175678E+02 -0.13341061331E+02  0.77724695734E+01  0.39145786794E+02  0.00000000000E+00 0.  1.
         11    1    3    3    0    0 -0.35243885375E+02 -0.25187472463E+01  0.83782485106E+02  0.90928435346E+02  0.00000000000E+00 0. -1.
</event>
<event>
 7    1  0.1758121E-005  0.1121129E+03  0.7561462E-02  0.1256706E+00
          1   -1    0    0  501    0  0.00000000000E+00  0.00000000000E+00  0.88931434818E+02  0.88931434818E+02  0.00000000000E+00 0. -1.
         -1   -1    0    0    0  501 -0.00000000000E+00 -0.00000000000E+00 -0.16559414148E+03  0.16559414148E+03  0.00000000000E+00 0.  1.
         23    2    1    2    0    0  0.61618689755E+01  0.46770859954E+02 -0.94645924705E+01  0.10489768216E+03  0.93211926502E+02 0.  0.
          5    1    1    2  502    0  0.38283900903E+02  0.23597080666E+02 -0.44162711088E+02  0.63168795579E+02  0.41800000000E+01 0.  1.
         -5    1    1    2    0  502 -0.44445769878E+02 -0.70367940620E+02 -0.23035403104E+02  0.86459098557E+02  0.41800000000E+01 0.  1.
        -11    1    3    3    0    0 -0.19535515702E+01 -0.24207002516E+02  0.15968497671E+02  0.29065241310E+02  0.00000000000E+00 0. -1.
         11    1    3    3    0    0  0.81154205457E+01  0.70977862470E+02 -0.25433090142E+02  0.75832440852E+02  0.00000000000E+00 0.  1.
</event>
<event>
 7    1  0.1758121E-005  0.9964860E+02  0.7561462E-02  0.1281037E+00
          4   -1    0    0  501    0  0.00000000000E+00  0.00000000000E+00  0.11769715923E+03  0.11769715923E+03  0.00000000000E+00 0.  1.
         -4   -1    0    0    0  501 -0.00000000000E+00 -0.00000000000E+00 -0.11846638121E+03  0.11846638121E+03  0.00000000000E+00 0. -1.
         23    2    1    2    0    0  0.38061736714E+02 -0.34404130375E+02  0.48626007593E+01  0.10083369840E+03  0.86668620957E+02 0.  0.
          5    1    1    2  502    0 -0.80380948053E+02  0.43837339947E+02 -0.40216761665E+01  0.91741241886E+02  0.41800000000E+01 0.  1.
         -5    1    1    2    0  502  0.42319211340E+02 -0.94332095723E+01 -0.16101465779E+01  0.43588600152E+02  0.41800000000E+01 0.  1.
        -11    1    3    3    0    0 -0.69248452181E+01 -0.11937637761E+02  0.38123255860E+02  0.40544337632E+02  0.00000000000E+00 0.  1.
         11    1    3    3    0    0  0.44986581932E+02 -0.22466492614E+02 -0.33260655101E+02  0.60289360770E+02  0.00000000000E+00 0. -1.
</event>
<event>
 7    1  0.1758121E-005  0.8865003E+02  0.7561462E-02  0.1306154E+00
         -1   -1    0    0    0  501 -0.00000000000E+00  0.00000000000E+00  0.19355685163E+02  0.19355685163E+02  0.00000000000E+00 0.  1.
          1   -1    0    0  501    0  0.00000000000E+00 -0.00000000000E+00 -0.10685690635E+04  0.10685690635E+04  0.00000000000E+00 0. -1.
         23    2    1    2    0    0  0.54304243442E+02 -0.29567733634E+02 -0.59505390043E+03  0.60525947507E+03  0.91796982661E+02 0.  0.
          5    1    1    2  502    0 -0.45303556908E+02  0.12988144673E+02 -0.46004071968E+03  0.46246733975E+03  0.41800000000E+01 0. -1.
         -5    1    1    2    0  502 -0.90006865334E+01  0.16579588961E+02  0.58812417410E+01  0.20197933870E+02  0.41800000000E+01 0.  1.
        -11    1    3    3    0    0  0.55574946801E+02 -0.59087510308E+02 -0.44061210635E+03  0.44801667028E+03  0.00000000000E+00 0. -1.
         11    1    3    3    0    0 -0.12707033595E+01  0.29519776674E+02 -0.15444179408E+03  0.15724280480E+03  0.00000000000E+00 0.  1.
</event>
<event>
 7    1  0.1758121E-005  0.1119720E+03  0.7561462E-02  0.1256961E+00
          2   -1    0    0  501    0  0.00000000000E+00  0.00000000000E+00  0.25555535844E+03  0.25555535844E+03  0.00000000000E+00 0. -1.
         -2   -1    0    0    0  501 -0.00000000000E+00 -0.00000000000E+00 -0.63405809417E+02  0.63405809417E+02  0.00000000000E+00 0.  1.
         23    2    1    2    0    0 -0.41650362841E+02 -0.47902242125E+02  0.65077926225E+02  0.12968865571E+03  0.92491261278E+02 0.  0.
          5    1    1    2  502    0  0.82852906429E+02  0.46971513622E+02  0.10678172870E+03  0.14314585981E+03  0.41800000000E+01 0.  1.
         -5    1    1    2    0  502 -0.41202543588E+02  0.93072850299E+00  0.20289894097E+02  0.46126652341E+02  0.41800000000E+01 0.  1.
        -11    1    3    3    0    0 -0.18827476551E+02  0.12511367781E+02 -0.14762528175E+02  0.26998896925E+02  0.00000000000E+00 0.  1.
         11    1    3    3    0    0 -0.22822886289E+02 -0.60413609907E+02  0.79840454400E+02  0.10268975879E+03  0.00000000000E+00 0. -1.
</event>
<event>
 7    1  0.1758121E-005  0.1020240E+03  0.7561462E-02  0.1276096E+00
          2   -1    0    0  501    0  0.00000000000E+00  0.00000000000E+00  0.45110829729E+03  0.45110829729E+03  0.00000000000E+00 0. -1.
         -2   -1    0    0    0  501 -0.00000000000E+00 -0.00000000000E+00 -0.63491258426E+02  0.63491258426E+02  0.00000000000E+00 0.  1.
         23    2    1    2    0    0 -0.59215316837E+02 -0.78657008421E+02  0.31139567849E+03  0.33810228502E+03  0.87478613598E+02 0.  0.
          5    1    1    2  502    0  0.48613046253E+02  0.75218123383E+02  0.10928465617E+03  0.14135629744E+03  0.41800000000E+01 0. -1.
         -5    1    1    2    0  502  0.10602270584E+02  0.34388850381E+01 -0.33063295797E+02  0.35140973248E+02  0.41800000000E+01 0. -1.
        -11    1    3    3    0    0 -0.11982985671E+02 -0.39044704410E+02  0.31718642163E+02  0.51712214695E+02  0.00000000000E+00 0.  1.
         11    1    3    3    0    0 -0.47232331167E+02 -0.39612304011E+02  0.27967703632E+03  0.28639007033E+03  0.00000000000E+00 0. -1.
</event>
<event>
 7    1  0.1758121E-005  0.1466175E+03  0.7561462E-02  0.1204692E+00
         -3   -1    0    0    0  501 -0.00000000000E+00  0.00000000000E+00  0.10481920818E+04  0.10481920818E+04  0.00000000000E+00 0.  1.
          3   -1    0    0  501    0  0.00000000000E+00 -0.00000000000E+00 -0.30057973233E+02  0.30057973233E+02  0.00000000000E+00 0. -1.
         23    2    1    2    0    0 -0.12737642863E+03 -0.17350590605E+02  0.31280864344E+03  0.35047460516E+03  0.91964144579E+02 0.  0.
          5    1    1    2  502    0  0.29878714198E+02  0.42267323016E+02  0.45490797927E+03  0.45786243148E+03  0.41800000000E+01 0. -1.
         -5    1    1    2    0  502  0.97497714432E+02 -0.24916732410E+02  0.25041748585E+03  0.26991301838E+03  0.41800000000E+01 0. -1.
        -11    1    3    3    0    0  0.16314261927E+01 -0.11321157658E+02 -0.64629661275E+00  0.11456345904E+02  0.00000000000E+00 0. -1.
         11    1    3    3    0    0 -0.12900785482E+03 -0.60294329469E+01  0.31345494005E+03  0.33901825926E+03  0.00000000000E+00 0.  1.
</event>
<event>
 7    1  0.1758121E-005  0.9465080E+02  0.7561462E-02  0.1291965E+00
         -1   -1    0    0    0  501 -0.00000000000E+00  0.00000000000E+00  0.12627577503E+03  0.12627577503E+03  0.00000000000E+00 0.  1.
          1   -1    0    0  501    0  0.00000000000E+00 -0.00000000000E+00 -0.12267793088E+03  0.12267793088E+03  0.00000000000E+00 0. -1.
         23    2    1    2    0    0  0.48408222786E+02  0.23156680678E+02 -0.28812349178E+02  0.10903150689E+03  0.90433014638E+02 0.  0.
          5    1    1    2  502    0  0.36255411792E+01 -0.44877090656E+02 -0.31108605841E+02  0.54884565881E+02  0.41800000000E+01 0. -1.
         -5    1    1    2    0  502 -0.52033763965E+02  0.21720409978E+02  0.63518799169E+02  0.85037633139E+02  0.41800000000E+01 0. -1.
        -11    1    3    3    0    0  0.13895026875E+02  0.44733571792E+02 -0.45255871139E+02  0.65132619245E+02  0.00000000000E+00 0. -1.
         11    1    3    3    0    0  0.34513195911E+02 -0.21576891114E+02  0.16443521961E+02  0.43898887647E+02  0.00000000000E+00 0.  1.
</event>
<event>
 7    1  0.1758121E-005  0.8116375E+02  0.7561462E-02  0.1325781E+00
          1   -1    0    0  501    0  0.00000000000E+00  0.00000000000E+00  0.42672734940E+02  0.42672734940E+02  0.00000000000E+00 0. -1.
         -1   -1    0    0    0  501 -0.00000000000E+00 -0.00000000000E+00 -0.52374033506E+03  0.52374033506E+03  0.00000000000E+00 0.  1.
         23    2    1    2    0    0 -0.62254933098E+02 -0.32468642978E+02 -0.80445371759E+02  0.14088355033E+03  0.91906623513E+02 0.  0.
          5    1    1    2  502    0  0.16245652771E+02  0.32253892717E+02 -0.18811433213E+02  0.40933815469E+02  0.41800000000E+01 0.  1.
         -5    1    1    2    0  502  0.46009280328E+02  0.21475026095E+00 -0.38181079515E+03  0.38459570420E+03  0.41800000000E+01 0.  1.
        -11    1    3    3    0    0 -0.12361597860E+02 -0.26856621884E+02 -0.85456418856E+02  0.90426139829E+02  0.00000000000E+00 0.  1.
         11    1    3    3    0    0 -0.49893335238E+02 -0.56120210939E+01  0.50110470968E+01  0.50457410506E+02  0.00000000000E+00 0. -1.
</event>
<event>
 7    1  0.1758121E-005  0.9868402E+02  0.7561462E-02  0.1283088E+00
          3   -1    0    0  501    0  0.00000000000E+00  0.00000000000E+00  0.28979942497E+02  0.28979942497E+02  0.00000000000E+00 0. -1.
         -3   -1    0    0    0  501 -0.00000000000E+00 -0.00000000000E+00 -0.65290632077E+03  0.65290632077E+03  0.00000000000E+00 0.  1.
         23    2    1    2    0    0  0.41638589349E+02 -0.35154175863E+02 -0.14292012489E+03  0.18190302965E+03  0.98452840958E+02 0.  0.
          5    1    1    2  502    0  0.42248017688E+01 -0.16200502711E+02 -0.36107538861E+01  0.17629951268E+02  0.41800000000E+01 0.  1.
         -5    1    1    2    0  502 -0.45863391117E+02  0.51354678574E+02 -0.47739549949E+03  0.48235328235E+03  0.41800000000E+01 0.  1.
        -11    1    3    3    0    0  0.56308642218E+02 -0.59996448861E+02 -0.11753967137E+03  0.14347756414E+03  0.00000000000E+00 0. -1.
         11    1    3    3    0    0 -0.14670052870E+02  0.24842272998E+02 -0.25380453521E+02  0.38425465512E+02  0.00000000000E+00 0.  1.
</event>
<event>
 7    1  0.1758121E-005  0.1417580E+03  0.7561462E-02  0.1210983E+00
          4   -1    0    0  501    0  0.00000000000E+00  0.00000000000E+00  0.12591515558E+03  0.12591515558E+03  0.00000000000E+00 0. -1.
         -4   -1    0    0    0  501 -0.00000000000E+00 -0.00000000000E+00 -0.18518143315E+03  0.18518143315E+03  0.00000000000E+00 0.  1.
         23    2    1    2    0    0 -0.10677444776E+03 -0.62379039565E+01 -0.16568187090E+02  0.14106587641E+03  0.90473103871E+02 0.  0.
          5    1    1    2  502    0  0.60123856653E+02 -0.45134542651E+02  0.18363527432E+02  0.77502881359E+02  0.41800000000E+01 0.  1.
         -5    1    1    2    0  502  0.46650591104E+02  0.51372446608E+02 -0.61061617913E+02  0.92527830964E+02  0.41800000000E+01 0.  1.
        -11    1    3    3    0    0 -0.51191709239E+02 -0.47219335508E+02 -0.18223946737E+02  0.71988672548E+02  0.00000000000E+00 0.  1.
         11    1    3    3    0    0 -0.55582738518E+02  0.40981431552E+02  0.16557596469E+01  0.69077203861E+02  0.00000000000E+00 0. -1.
</event>
<event>
 7    1  0.1758121E-005  0.1575408E+03  0.7561462E-02  0.1191501E+00
         -2   -1    0    0    0  501 -0.00000000000E+00  0.00000000000E+00  0.54240019747E+02  0.54240019747E+02  0.00000000000E+00 0. -1.
          2   -1    0    0  501    0  0.00000000000E+00 -0.00000000000E+00 -0.50271012605E+03  0.50271012605E+03  0.00000000000E+00 0.  1.
         23    2    1    2    0    0 -0.11753475751E+03  0.45161731373E+02 -0.21160921313E+03  0.26096975687E+03  0.86445090757E+02 0.  0.
          5    1    1    2  502    0  0.11364861200E+03  0.16225636696E+02 -0.16839414946E+03  0.20384636437E+03  0.41800000000E+01 0. -1.
         -5    1    1    2    0  502  0.38861455131E+01 -0.61387368069E+02 -0.68466743709E+02  0.92134024549E+02  0.41800000000E+01 0. -1.
        -11    1    3    3    0    0 -0.69646490898E+02  0.56100152804E+02 -0.78178759055E+02  0.11878459162E+03  0.00000000000E+00 0. -1.
         11    1    3    3    0    0 -0.47888266615E+02 -0.10938421431E+02 -0.13343045408E+03  0.14218516525E+03  0.00000000000E+00 0.  1.
</event>
<event>
 7    1  0.1758121E-005  0.3145105E+03  0.7561462E-02  0.1078204E+00
          3   -1    0    0  501    0  0.00000000000E+00  0.00000000000E+00  0.25975693988E+03  0.25975693988E+03  0.00000000000E+00 0. -1.
         -3   -1    0    0    0  501 -0.00000000000E+00 -0.00000000000E+00 -0.67913865795E+03  0.67913865795E+03  0.00000000000E+00 0.  1.
         23    2    1    2    0    0 -0.13485587989E+03 -0.26339171832E+03  0.10278928420E+03  0.32580984970E+03  0.89583009491E+02 0.  0.
          5    1    1    2  502    0 -0.13668590942E+02  0.94230512926E+02 -0.17569548743E+03  0.19988145649E+03  0.41800000000E+01 0. -1.
         -5    1    1    2    0  502  0.14852447084E+03  0.16916120540E+03 -0.34647551484E+03  0.41320429164E+03  0.41800000000E+01 0. -1.
        -11    1    3    3    0    0  0.87765584902E+01 -0.53594917701E+02  0.10433737590E+02  0.55301953513E+02  0.00000000000E+00 0.  1.
         11    1    3    3    0    0 -0.14363243839E+03 -0.20979680062E+03  0.92355546612E+02  0.27050789618E+03  0.00000000000E+00 0. -1.
</event>
<event>
 7    1  0.1758121E-005  0.1419166E+03  0.7561462E-02  0.1210773E+00
         -1   -1    0    0    0  501 -0.00000000000E+00  0.00000000000E+00  0.39379203220E+02  0.39379203220E+02  0.00000000000E+00 0.  1.
          1   -1    0    0  501    0  0.00000000000E+00 -0.00000000000E+00 -0.66990530551E+03  0.66990530551E+03  0.00000000000E+00 0. -1.
         23    2    1    2    0    0  0.70928558063E+02 -0.97497451236E+02 -0.28641919576E+03  0.32380566929E+03  0.90981000301E+02 0.  0.
          5    1    1    2  502    0 -0.80042864442E+02  0.85411250167E+02 -0.34971073545E+03  0.36880484364E+03  0.41800000000E+01 0. -1.
         -5    1    1    2    0  502  0.91143063790E+01  0.12086201069E+02  0.56038289313E+01  0.16673995794E+02  0.41800000000E+01 0. -1.
        -11    1    3    3    0    0  0.81154841904E+01 -0.86924557517E+02 -0.16945688122E+03  0.19062364590E+03  0.00000000000E+00 0.  1.
         11    1    3    3    0    0  0.62813073872E+02 -0.10572893719E+02 -0.11696231454E+03  0.13318202339E+03  0.00000000000E+00 0. -1.
</event>
<event>
 7    1  0.1758121E-005  0.1184572E+03  0.7561462E-02  0.1245664E+00
         -1   -1    0    0    0  501 -0.00000000000E+00  0.00000000000E+00  0.35135844699E+03  0.35135844699E+03  0.00000000000E+00 0.  1.
          1   -1    0    0  501    0  0.00000000000E+00 -0.00000000000E+00 -0.55630542431E+02  0.55630542431E+02  0.00000000000E+00 0. -1.
         23    2    1    2    0    0  0.15173079522E+01 -0.88146327810E+02  0.12768975484E+03  0.17970879857E+03  0.90655951059E+02 0.  0.
          5    1    1    2  502    0  0.58698696397E+02  0.46102079648E+02  0.56656003468E+02  0.93799327479E+02  0.41800000000E+01 0.  1.
         -5    1    1    2    0  502 -0.60216004349E+02  0.42044248162E+02  0.11138214625E+03  0.13348086337E+03  0.41800000000E+01 0.  1.
        -11    1    3    3    0    0  0.42541203517E+01 -0.77123262915E+02  0.14187415459E+03  0.16153752184E+03  0.00000000000E+00 0.  1.
         11    1    3    3    0    0 -0.27368123995E+01 -0.11023064895E+02 -0.14184399746E+02  0.18171276729E+02  0.00000000000E+00 0. -1.
</event>
<event>
 7    1  0.1758121E-005  0.1018946E+03  0.7561462E-02  0.1276362E+00
         -2   -1    0    0    0  501 -0.00000000000E+00  0.00000000000E+00  0.18578997282E+02  0.18578997282E+02  0.00000000000E+00 0.  1.
          2   -1    0    0  501    0  0.00000000000E+00 -0.00000000000E+00 -0.65329119461E+03  0.65329119461E+03  0.00000000000E+00 0. -1.
         23    2    1    2    0    0 -0.68421611170E+01  0.14956833283E+02 -0.32147476936E+03  0.33417578732E+03  0.89760277748E+02 0.  0.
          5    1    1    2  502    0  0.44280464150E+02 -0.50585271950E+02 -0.22970977335E+03  0.23938187404E+03  0.41800000000E+01 0.  1.
         -5    1    1    2    0  502 -0.37438303033E+02  0.35628438667E+02 -0.83527654614E+02  0.98312530540E+02  0.41800000000E+01 0.  1.
        -11    1    3    3    0    0 -0.40021448832E+02 -0.12053508799E+02 -0.96405965274E+02  0.10507670332E+03  0.00000000000E+00 0. -1.
         11    1    3    3    0    0  0.33179287715E+02  0.27010342082E+02 -0.22506880409E+03  0.22909908399E+03  0.00000000000E+00 0.  1.
</event>
<event>
 7    1  0.1758121E-005  0.1696143E+03  0.7561462E-02  0.1178251E+00
          1   -1    0    0  501    0  0.00000000000E+00  0.00000000000E+00  0.40217555415E+03  0.40217555415E+03  0.00000000000E+00 0. -1.
         -1   -1    0    0    0  501 -0.00000000000E+00 -0.00000000000E+00 -0.74331225095E+02  0.74331225095E+02  0.00000000000E+00 0.  1.
         23    2    1    2    0    0 -0.72083201428E+02  0.10968684808E+03  0.19544141967E+03  0.25199731509E+03  0.89878282797E+02 0.  0.
          5    1    1    2  502    0  0.20458941744E+02 -0.12478843598E+03  0.82696169706E+02  0.15115174804E+03  0.41800000000E+01 0.  1.
         -5    1    1    2    0  502  0.51624259684E+02  0.15101587891E+02  0.49706739678E+02  0.73357716119E+02  0.41800000000E+01 0.  1.
        -11    1    3    3    0    0 -0.26200701316E+02  0.10978945801E+03  0.14604901890E+03  0.18458200823E+03  0.00000000000E+00 0. -1.
         11    1    3    3    0    0 -0.45882500112E+02 -0.10260992709E+00  0.49392400777E+02  0.67415306866E+02  0.00000000000E+00 0.  1.
</event>
<event>
 6    1  0.1758121E-005  0.7684014E+02  0.7561462E-02  0.1338266E+00
          2   -1    0    0  501    0  0.00000000000E+00  0.00000000000E+00  0.97512644741E+03  0.97512644741E+03  0.00000000000E+00 0. -1.
         -2   -1    0    0    0  501 -0.00000000000E+00 -0.00000000000E+00 -0.92793792339E+01  0.92793792339E+01  0.00000000000E+00 0.  1.
          5    1    1    2  502    0  0.20393629843E+02  0.21091788579E+02  0.49603204476E+03  0.49691651765E+03  0.41800000000E+01 0.  1.
         -5    1    1    2    0  502 -0.23893748240E+02 -0.60402527963E+02  0.17273976033E+03  0.18459651618E+03  0.41800000000E+01 0.  1.
        -11    1    1    2    0    0  0.11636468114E+02 -0.58793636973E+01  0.74223674647E+02  0.75359990617E+02  0.00000000000E+00 0. -1.
         11    1    1    2    0    0 -0.81363497168E+01  0.45190103082E+02  0.22285158844E+03  0.22753280219E+03  0.00000000000E+00 0.  1.
</event>
<event>
 7    1  0.1758121E-005  0.1258969E+03  0.7561462E-02  0.1233674E+00
         -2   -1    0    0    0  501 -0.00000000000E+00  0.00000000000E+00  0.46965924875E+03  0.46965924875E+03  0.00000000000E+00 0. -1.
          2   -1    0    0  501    0  0.00000000000E+00 -0.00000000000E+00 -0.34176146856E+02  0.34176146856E+02  0.00000000000E+00 0.  1.
         23    2    1    2    0    0 -0.22282751819E+02 -0.60459683747E+02  0.18856138788E+03  0.21963245466E+03  0.92364082586E+02 0.  0.
          5    1    1    2  502    0 -0.17653756436E+02 -0.33193757913E+02  0.52666575921E+02  0.64843822373E+02  0.41800000000E+01 0.  1.
         -5    1    1    2    0  502  0.39936508255E+02  0.93653441660E+02  0.19425513809E+03  0.21935911857E+03  0.41800000000E+01 0.  1.
        -11    1    3    3    0    0 -0.35824083856E+02 -0.80367483190E+02  0.15646503563E+03  0.17950934436E+03  0.00000000000E+00 0.  1.
         11    1    3    3    0    0  0.13541332037E+02  0.19907799443E+02  0.32096352249E+02  0.40123110294E+02  0.00000000000E+00 0. -1.
</event>
<event>
 7    1  0.1758121E-005  0.2038495E+03  0.7561462E-02  0.1146531E+00
          2   -1    0    0  501    0  0.00000000000E+00  0.00000000000E+00  0.10918251903E+04  0.10918251903E+04  0.00000000000E+00 0. -1.
         -2   -1    0    0    0  501 -0.00000000000E+00 -0.00000000000E+00 -0.42753032137E+02  0.42753032137E+02  0.00000000000E+00 0.  1.
         23    2    1    2    0    0 -0.10098336004E+03 -0.14792636212E+03  0.63784135495E+03  0.66891901512E+03  0.92364533722E+02 0.  0.
          5    1    1    2  502    0  0.23086640014E+02 -0.21129630903E+02  0.73786494290E+02  0.80258167116E+02  0.41800000000E+01 0.  1.
         -5    1    1    2    0  502  0.77896720022E+02  0.16905599302E+03  0.33744430894E+03  0.38540104022E+03  0.41800000000E+01 0.  1.
        -11    1    3    3    0    0 -0.31897804581E+02 -0.10227159946E+03  0.24425837664E+03  0.26671914920E+03  0.00000000000E+00 0.  1.
         11    1    3    3    0    0 -0.69085555454E+02 -0.45654762653E+02  0.39358297832E+03  0.40219986592E+03  0.00000000000E+00 0. -1.
</event>
<event>
 7    1  0.1758121E-005  0.9591633E+02  0.7561462E-02  0.1289126E+00
          2   -1    0    0  501    0  0.00000000000E+00  0.00000000000E+00  0.10673068757E+03  0.10673068757E+03  0.00000000000E+00 0. -1.
         -2   -1    0    0    0  501 -0.00000000000E+00 -0.00000000000E+00 -0.13030765867E+03  0.13030765867E+03  0.00000000000E+00 0.  1.
         23    2    1    2    0    0 -0.83132726578E+01 -0.13888743515E+02  0.34568260516E+02  0.98150459986E+02  0.90424224971E+02 0.  0.
          5    1    1    2  502    0  0.21064600326E+02 -0.39628731600E+02 -0.69231156730E+02  0.82611011477E+02  0.41800000000E+01 0.  1.
         -5    1    1    2    0  502 -0.12751327668E+02  0.53517475115E+02  0.11085925113E+02  0.56276874785E+02  0.41800000000E+01 0.  1.
        -11    1    3    3    0    0 -0.48933293816E+02 -0.14240781977E+02  0.15442612093E+02  0.53251679628E+02  0.00000000000E+00 0. -1.
         11    1    3    3    0    0  0.40620021158E+02  0.35203846231E+00  0.19125648423E+02  0.44898780357E+02  0.00000000000E+00 0.  1.
</event>
<event>
 7    1  0.1758121E-005  0.1993407E+03  0.7561462E-02  0.1150296E+00
         -1   -1    0    0    0  501 -0.00000000000E+00  0.00000000000E+00  0.35077741378E+03  0.35077741378E+03  0.00000000000E+00 0.  1.
          1   -1    0    0  501    0  0.00000000000E+00 -0.00000000000E+00 -0.13154381212E+03  0.13154381212E+03  0.00000000000E+00 0. -1.
         23    2    1    2    0    0  0.12684352335E+03  0.13139102254E+03  0.13748573180E+03  0.24634885297E+03  0.91828920780E+02 0.  0.
          5    1    1    2  502    0 -0.26918546610E+02 -0.10306054439E+03  0.77761370531E+02  0.13194842594E+03  0.41800000000E+01 0.  1.
         -5    1    1    2    0  502 -0.99924976740E+02 -0.28330478146E+02  0.39864993311E+01  0.10402394698E+03  0.41800000000E+01 0.  1.
        -11    1    3    3    0    0  0.11505410709E+03  0.92899971147E+02  0.61097468801E+02  0.16000235277E+03  0.00000000000E+00 0. -1.
         11    1    3    3    0    0  0.11789416258E+02  0.38491051394E+02  0.76388262999E+02  0.86346500202E+02  0.00000000000E+00 0.  1.
</event>
<event>
 7    1  0.1758121E-005  0.8931189E+02  0.7561462E-02  0.1304527E+00
         -1   -1    0    0    0  501 -0.00000000000E+00  0.00000000000E+00  0.21070712341E+02  0.21070712341E+02  0.00000000000E+00 0.  1.
          1   -1    0    0  501    0  0.00000000000E+00 -0.00000000000E+00 -0.78216007133E+03  0.78216007133E+03  0.00000000000E+00 0. -1.
         23    2    1    2    0    0  0.41579864756E+02 -0.57308816987E+02 -0.36804366830E+03  0.38472309999E+03  0.86847776210E+02 0.  0.
          5    1    1    2  502    0 -0.17578483081E+02 -0.83579361735E+01 -0.30661466692E+03  0.30726028792E+03  0.41800000000E+01 0.  1.
         -5    1    1    2    0  502 -0.24001381674E+02  0.65666753160E+02 -0.86431023764E+02  0.11124739575E+03  0.41800000000E+01 0.  1.
        -11    1    3    3    0    0  0.92337795413E+01  0.10235668299E+02 -0.60335529068E+01  0.15047768965E+02  0.00000000000E+00 0. -1.
         11    1    3    3    0    0  0.32346085214E+02 -0.67544485286E+02 -0.36201011540E+03  0.36967533103E+03  0.00000000000E+00 0.  1.
</event>
<event>
 7    1  0.1758121E-005  0.1095336E+03  0.7561462E-02  0.1261436E+00
         -1   -1    0    0    0  501 -0.00000000000E+00  0.00000000000E+00  0.11345829915E+04  0.11345829915E+04  0.00000000000E+00 0.  1.
          1   -1    0    0  501    0  0.00000000000E+00 -0.00000000000E+00 -0.14670074661E+02  0.14670074661E+02  0.00000000000E+00 0. -1.
         23    2    1    2    0    0 -0.17134633976E+02 -0.61071111282E+02  0.37345223057E+03  0.38963575948E+03  0.91247905385E+02 0.  0.
          5    1    1    2  502    0  0.37608224899E+01  0.91771644424E+02  0.35530538295E+03  0.36700894548E+03  0.41800000000E+01 0. -1.
         -5    1    1    2    0  502  0.13373811487E+02 -0.30700533142E+02  0.39115530328E+03  0.39260836116E+03  0.41800000000E+01 0.  1.
        -11    1    3    3    0    0 -0.34892671468E+02 -0.66251516875E+02  0.35735093767E+03  0.36511156468E+03  0.00000000000E+00 0.  1.
         11    1    3    3    0    0  0.17758037492E+02  0.51804055929E+01  0.16101292896E+02  0.24524194800E+02  0.00000000000E+00 0. -1.
</event>
<event>
 7    1  0.1758121E-005  0.1186033E+03  0.7561462E-02  0.1245419E+00
         -1   -1    0    0    0  501 -0.00000000000E+00  0.00000000000E+00  0.80300090168E+02  0.80300090168E+02  0.00000000000E+00 0.  1.
          1   -1    0    0  501    0  0.00000000000E+00 -0.00000000000E+00 -0.17983310951E+03  0.17983310951E+03  0.00000000000E+00 0. -1.
         23    2    1    2    0    0 -0.17270914853E+02  0.47333592455E+02 -0.55781316391E+02  0.11835733768E+03  0.91422921905E+02 0.  0.
          5    1    1    2  502    0  0.16015296464E+02 -0.89307498923E+02 -0.40505658320E+02  0.99450992155E+02  0.41800000000E+01 0. -1.
         -5    1    1    2    0  502  0.12556183886E+01  0.41973906468E+02 -0.32460446330E+01  0.42324869846E+02  0.41800000000E+01 0. -1.
        -11    1    3    3    0    0  0.35232945603E+02  0.36182993215E+02 -0.30796922985E+02  0.59152514057E+02  0.00000000000E+00 0.  1.
         11    1    3    3    0    0 -0.52503860456E+02  0.11150599239E+02 -0.24984393406E+02  0.59204823622E+02  0.00000000000E+00 0. -1.
</event>
<event>
 7    1  0.1758121E-005  0.1081835E+03  0.7561462E-02  0.1263971E+00
         -1   -1    0    0    0  501 -0.00000000000E+00  0.00000000000E+00  0.47911618716E+02  0.47911618716E+02  0.00000000000E+00 0.  1.
          1   -1    0    0  501    0  0.00000000000E+00 -0.00000000000E+00 -0.37189509946E+03  0.37189509946E+03  0.00000000000E+00 0. -1.
         23    2    1    2    0    0  0.69244571555E+02 -0.38633764007E+02 -0.15308531389E+03  0.19366451739E+03  0.88223883148E+02 0.  0.
          5    1    1    2  502    0 -0.40171107335E+02  0.52632917992E+02 -0.18042705338E+03  0.19223770679E+03  0.41800000000E+01 0. -1.
         -5    1    1    2    0  502 -0.29073464220E+02 -0.13999153985E+02  0.95288865286E+01  0.33904493987E+02  0.41800000000E+01 0. -1.
        -11    1    3    3    0    0  0.61242578233E+01 -0.52503701356E+02 -0.82317853012E+02  0.97828288927E+02  0.00000000000E+00 0.  1.
         11    1    3    3    0    0  0.63120313731E+02  0.13869937349E+02 -0.70767460877E+02  0.95836228466E+02  0.00000000000E+00 0. -1.
</event>
<event>
 7    1  0.1758121E-005  0.1720991E+03  0.7561462E-02  0.1175676E+00
         -1   -1    0    0    0  501 -0.00000000000E+00  0.00000000000E+00  0.90712233679E+02  0.90712233679E+02  0.00000000000E+00 0. -1.
          1   -1    0    0  501    0  0.00000000000E+00 -0.00000000000E+00 -0.44171570983E+03  0.44171570983E+03  0.00000000000E+00 0.  1.
         23    2    1    2    0    0  0.27399742227E+02 -0.14235091678E+03 -0.27904786684E+03  0.32787734198E+03  0.92851009754E+02 0.  0.
          5    1    1    2  502    0  0.43233158998E+02  0.82437443059E+02 -0.60576720361E+02  0.11113977463E+03  0.41800000000E+01 0.  1.
         -5    1    1    2    0  502 -0.70632901224E+02  0.59913473721E+02 -0.11378888949E+02  0.93410826902E+02  0.41800000000E+01 0.  1.
        -11    1    3    3    0    0  0.34578708941E+01 -0.13228660481E+03 -0.26944596457E+03  0.30018799194E+03  0.00000000000E+00 0.  1.
         11    1    3    3    0    0  0.23941871332E+02 -0.10064311974E+02 -0.96019022742E+01  0.27689350041E+02  0.00000000000E+00 0. -1.
</event>
<event>
 7    1  0.1758121E-005  0.9982820E+02  0.7561462E-02  0.1280658E+00
         -2   -1    0    0    0  501 -0.00000000000E+00  0.00000000000E+00  0.25020205869E+03  0.25020205869E+03  0.00000000000E+00 0. -1.
          2   -1    0    0  501    0  0.00000000000E+00 -0.00000000000E+00 -0.59092172983E+02  0.59092172983E+02  0.00000000000E+00 0.  1.
         23    2    1    2    0    0  0.42783108451E+02 -0.79789337833E+01  0.40924205804E+02  0.10905327515E+03  0.91234688842E+02 0.  0.
          5    1    1    2  502    0 -0.45661425634E+02  0.57194173448E+02  0.50694266660E+02  0.89126428962E+02  0.41800000000E+01 0. -1.
         -5    1    1    2    0  502  0.28783171832E+01 -0.49215239665E+02  0.99491413246E+02  0.11111452756E+03  0.41800000000E+01 0. -1.
        -11    1    3    3    0    0  0.43598888312E+02  0.20644920285E+02  0.58213245118E+02  0.75603291613E+02  0.00000000000E+00 0. -1.
         11    1    3    3    0    0 -0.81577986138E+00 -0.28623854068E+02 -0.17289039314E+02  0.33449983541E+02  0.00000000000E+00 0.  1.
</event>
<event>
 7    1  0.1758121E-005  0.1256444E+03  0.7561462E-02  0.1234066E+00
          2   -1    0    0  501    0  0.00000000000E+00  0.00000000000E+00  0.94029586533E+02  0.94029586533E+02  0.00000000000E+00 0. -1.
         -2   -1    0    0    0  501 -0.00000000000E+00 -0.00000000000E+00 -0.22656050917E+03  0.22656050917E+03  0.00000000000E+00 0.  1.
         23    2    1    2    0    0  0.85776280458E+02 -0.33547805284E+02 -0.26349193916E+02  0.13242630336E+03  0.91429865322E+02 0.  0.
          5    1    1    2  502    0  0.97945914766E+01 -0.16321396382E+02  0.15968392972E+02  0.25194919650E+02  0.41800000000E+01 0.  1.
         -5    1    1    2    0  502 -0.95570871935E+02  0.49869201666E+02 -0.12215012169E+03  0.16296887269E+03  0.41800000000E+01 0.  1.
        -11    1    3    3    0    0 -0.16476098857E+02 -0.58770565309E+00  0.96729437949E+01  0.19114734451E+02  0.00000000000E+00 0. -1.
         11    1    3    3    0    0  0.10225237931E+03 -0.32960099631E+02 -0.36022137711E+02  0.11331156891E+03  0.00000000000E+00 0.  1.
</event>
<event>
 7    1  0.1758121E-005  0.1613643E+03  0.7561462E-02  0.1187165E+00
         -2   -1    0    0    0  501 -0.00000000000E+00  0.00000000000E+00  0.90061455943E+02  0.90061455943E+02  0.00000000000E+00 0.  1.
          2   -1    0    0  501    0  0.00000000000E+00 -0.00000000000E+00 -0.45691845626E+03  0.45691845626E+03  0.00000000000E+00 0. -1.
         23    2    1    2    0    0  0.89424554590E+02 -0.10609757548E+03 -0.30878732818E+03  0.35134671480E+03  0.94029003345E+02 0.  0.
          5    1    1    2  502    0 -0.91717663866E+02  0.12914575896E+03 -0.64738692423E+02  0.17117046363E+03  0.41800000000E+01 0.  1.
         -5    1    1    2    0  502  0.22931092763E+01 -0.23048183483E+02  0.66690202885E+01  0.24462733772E+02  0.41800000000E+01 0.  1.
        -11    1    3    3    0    0  0.19818183764E+02 -0.10339645666E+02 -0.19193685560E+01  0.22435522188E+02  0.00000000000E+00 0.  1.
         11    1    3    3    0    0  0.69606370826E+02 -0.95757929811E+02 -0.30686795962E+03  0.32891119261E+03  0.00000000000E+00 0. -1.
</event>
<event>
 7    1  0.1758121E-005  0.7829291E+02  0.7561462E-02  0.1333967E+00
         -2   -1    0    0    0  501 -0.00000000000E+00  0.00000000000E+00  0.86110312199E+02  0.86110312199E+02  0.00000000000E+00 0.  1.
          2   -1    0    0  501    0  0.00000000000E+00 -0.00000000000E+00 -0.14159348271E+03  0.14159348271E+03  0.00000000000E+00 0. -1.
         23    2    1    2    0    0 -0.64713594999E+01 -0.47244858958E+01 -0.36649768802E+02  0.10094904320E+03  0.93719285681E+02 0.  0.
          5    1    1    2  502    0  0.51337475266E+02  0.17542141457E+02  0.27411106484E+02  0.60927040403E+02  0.41800000000E+01 0.  1.
         -5    1    1    2    0  502 -0.44866115767E+02 -0.12817655561E+02 -0.46244508193E+02  0.65827711308E+02  0.41800000000E+01 0.  1.
        -11    1    3    3    0    0 -0.13039540520E+02  0.23213720558E+02  0.22723057998E+02  0.35003482740E+02  0.00000000000E+00 0.  1.
         11    1    3    3    0    0  0.65681810200E+01 -0.27938206454E+02 -0.59372826800E+02  0.65945560458E+02  0.00000000000E+00 0. -1.
</event>
<event>
 7    1  0.1758121E-005  0.1202302E+03  0.7561462E-02  0.1242718E+00
         -3   -1    0    0    0  501 -0.00000000000E+00  0.00000000000E+00  0.19022144248E+04  0.19022144248E+04  0.00000000000E+00 0.  1.
          3   -1    0    0  501    0  0.00000000000E+00 -0.00000000000E+00 -0.11799733031E+02  0.11799733031E+02  0.00000000000E+00 0. -1.
         23    2    1    2    0    0 -0.56159233542E+02  0.85436735147E+01  0.32497321955E+03  0.34255639060E+03  0.92252010530E+02 0.  0.
          5    1    1    2  502    0  0.88760909731E+02 -0.33850691271E+02  0.11646203317E+04  0.11684957671E+04  0.41800000000E+01 0. -1.
         -5    1    1    2    0  502 -0.32601676190E+02  0.25307017756E+02  0.40082114055E+03  0.40296200014E+03  0.41800000000E+01 0. -1.
        -11    1    3    3    0    0 -0.41598902124E+02 -0.37248344473E+02  0.22214178400E+03  0.22905213385E+03  0.00000000000E+00 0.  1.
         11    1    3    3    0    0 -0.14560331418E+02  0.45792017987E+02  0.10283143555E+03  0.11350425675E+03  0.00000000000E+00 0. -1.
</event>
<event>
 7    1  0.1758121E-005  0.1028734E+03  0.7561462E-02  0.1274367E+00
          4   -1    0    0  501    0  0.00000000000E+00  0.00000000000E+00  0.19219699464E+02  0.19219699464E+02  0.00000000000E+00 0. -1.
         -4   -1    0    0    0  501 -0.00000000000E+00 -0.00000000000E+00 -0.75624704739E+03  0.75624704739E+03  0.00000000000E+00 0.  1.
         23    2    1    2    0    0 -0.10061313439E+01 -0.46286675105E+02 -0.29824841612E+03  0.31688808624E+03  0.96552953811E+02 0.  0.
          5    1    1    2  502    0  0.50876692196E+02  0.28116832243E+02 -0.10082578854E+03  0.11645731449E+03  0.41800000000E+01 0. -1.
         -5    1    1    2    0  502 -0.49870560852E+02  0.18169842863E+02 -0.33795314326E+03  0.34212134612E+03  0.41800000000E+01 0. -1.
        -11    1    3    3    0    0 -0.37839017022E+02 -0.42952264698E+02 -0.10004344533E+03  0.11526221933E+03  0.00000000000E+00 0. -1.
         11    1    3    3    0    0  0.36832885678E+02 -0.33344104072E+01 -0.19820497079E+03  0.20162586691E+03  0.00000000000E+00 0.  1.
</event>
<event>
 7    1  0.1758121E-005  0.1630399E+03  0.7561462E-02  0.1185307E+00
         -1   -1    0    0    0  501 -0.00000000000E+00  0.00000000000E+00  0.38258604062E+02  0.38258604062E+02  0.00000000000E+00 0.  1.
          1   -1    0    0  501    0  0.00000000000E+00 -0.00000000000E+00 -0.85610461421E+03  0.85610461421E+03  0.00000000000E+00 0. -1.
         23    2    1    2    0    0  0.13408658953E+03  0.34603351630E+02 -0.48565597314E+03  0.51334448358E+03  0.92109875377E+02 0.  0.
          5    1    1    2  502    0 -0.12840034349E+03 -0.23038717858E+01 -0.15766836722E+03  0.20339307376E+03  0.41800000000E+01 0. -1.
         -5    1    1    2    0  502 -0.56862460392E+01 -0.32299479844E+02 -0.17452166979E+03  0.17762566092E+03  0.41800000000E+01 0. -1.
        -11    1    3    3    0    0  0.90471695732E+02 -0.21964565536E+02 -0.23693211263E+03  0.25456707537E+03  0.00000000000E+00 0. -1.
         11    1    3    3    0    0  0.43614893801E+02  0.56567917166E+02 -0.24872386051E+03  0.25877740821E+03  0.00000000000E+00 0.  1.
</event>
<event>
 7    1  0.1758121E-005  0.7492190E+02  0.7561462E-02  0.1344113E+00
         -1   -1    0    0    0  501 -0.00000000000E+00  0.00000000000E+00  0.50123907032E+03  0.50123907032E+03  0.00000000000E+00 0.  1.
          1   -1    0    0  501    0  0.00000000000E+00 -0.00000000000E+00 -0.26525068935E+02  0.26525068935E+02  0.00000000000E+00 0. -1.
         23    2    1    2    0    0  0.25365071030E+02 -0.10151113594E+02  0.12334405535E+03  0.15379228213E+03  0.87703352943E+02 0.  0.
          5    1    1    2  502    0  0.15316093959E+02 -0.73489044658E+01 -0.21841928007E+01  0.17630434742E+02  0.41800000000E+01 0. -1.
         -5    1    1    2    0  502 -0.40681164989E+02  0.17500018060E+02  0.35355413883E+03  0.35634142238E+03  0.41800000000E+01 0. -1.
        -11    1    3    3    0    0  0.25597692708E+01 -0.45623949927E+02  0.41525665844E+02  0.61745268235E+02  0.00000000000E+00 0.  1.
         11    1    3    3    0    0  0.22805301759E+02  0.35472836333E+02  0.81818389507E+02  0.92047013896E+02  0.00000000000E+00 0. -1.
</event>
<event>
 7    1  0.1758121E-005  0.7666452E+02  0.7561462E-02  0.1338793E+00
         -1   -1    0    0    0  501 -0.00000000000E+00  0.00000000000E+00  0.40978623616E+03  0.40978623616E+03  0.00000000000E+00 0.  1.
          1   -1    0    0  501    0  0.00000000000E+00 -0.00000000000E+00 -0.32354926028E+02  0.32354926028E+02  0.00000000000E+00 0. -1.
         23    2    1    2    0    0  0.54291306240E+01  0.98819123583E+01  0.84166450926E+02  0.12311335978E+03  0.89139106146E+02 0.  0.
          5    1    1    2  502    0  0.29187111514E+02 -0.60460601026E+01  0.73681259836E+01  0.30987158659E+02  0.41800000000E+01 0.  1.
         -5    1    1    2    0  502 -0.34616242138E+02 -0.38358522557E+01  0.28589673323E+03  0.28804064375E+03  0.41800000000E+01 0.  1.
        -11    1    3    3    0    0  0.14626465505E+02 -0.37309060257E+02  0.50263860760E+02  0.64283397304E+02  0.00000000000E+00 0. -1.
         11    1    3    3    0    0 -0.91973348810E+01  0.47190972616E+02  0.33902590166E+02  0.58829962479E+02  0.00000000000E+00 0.  1.
</event>
<event>
 7    1  0.1758121E-005  0.1997552E+03  0.7561462E-02  0.1149946E+00
         -2   -1    0    0    0  501 -0.00000000000E+00  0.00000000000E+00  0.95435494108E+02  0.95435494108E+02  0.00000000000E+00 0. -1.
          2   -1    0    0  501    0  0.00000000000E+00 -0.00000000000E+00 -0.50455199074E+03  0.50455199074E+03  0.00000000000E+00 0.  1.
         23    2    1    2    0    0  0.83182729889E+02  0.15662248344E+03 -0.29207432095E+03  0.35341697315E+03  0.90256185814E+02 0.  0.
          5    1    1    2  502    0  0.17294522445E+02 -0.61970439402E+02  0.16152292087E+01  0.64494319375E+02  0.41800000000E+01 0.  1.
         -5    1    1    2    0  502 -0.10047725233E+03 -0.94652044038E+02 -0.11865740488E+03  0.18207619232E+03  0.41800000000E+01 0.  1.
        -11    1    3    3    0    0  0.91230615786E+02  0.16291406915E+03 -0.28592845333E+03  0.34149538739E+03  0.00000000000E+00 0. -1.
         11    1    3    3    0    0 -0.80478858972E+01 -0.62915857110E+01 -0.61458676247E+01  0.11921585760E+02  0.00000000000E+00 0.  1.
</event>
<event>
 7    1  0.1758121E-005  0.1273317E+03  0.7561462E-02  0.1231470E+00
          2   -1    0    0  501    0  0.00000000000E+00  0.00000000000E+00  0.18279394288E+03  0.18279394288E+03  0.00000000000E+00 0. -1.
         -2   -1    0    0    0  501 -0.00000000000E+00 -0.00000000000E+00 -0.11904148587E+03  0.11904148587E+03  0.00000000000E+00 0.  1.
         23    2    1    2    0    0  0.26913585731E+02  0.87517837725E+02  0.69862752460E+02  0.14668535630E+03  0.90840940960E+02 0.  0.
          5    1    1    2  502    0 -0.62924557491E+02 -0.95743698219E+02  0.90503120999E+01  0.11500320097E+03  0.41800000000E+01 0.  1.
         -5    1    1    2    0  502  0.36010971761E+02  0.82258604940E+01 -0.15160607557E+02  0.40146871479E+02  0.41800000000E+01 0.  1.
        -11    1    3    3    0    0 -0.31666497634E+01  0.65472360572E+02 -0.21549962530E+01  0.65584309697E+02  0.00000000000E+00 0.  1.
         11    1    3    3    0    0  0.30080235494E+02  0.22045477152E+02  0.72017748713E+02  0.81101046602E+02  0.00000000000E+00 0. -1.
</event>
<event>
 7    1  0.1758121E-005  0.1051044E+03  0.7561462E-02  0.1269914E+00
         -4   -1    0    0    0  501 -0.00000000000E+00  0.00000000000E+00  0.18516736891E+03  0.18516736891E+03  0.00000000000E+00 0.  1.
          4   -1    0    0  501    0  0.00000000000E+00 -0.00000000000E+00 -0.72439323625E+02  0.72439323625E+02  0.00000000000E+00 0. -1.
         23    2    1    2    0    0 -0.63005361829E+01  0.25376469223E+02  0.99601610605E+01  0.93619671191E+02  0.89340786202E+02 0.  0.
          5    1    1    2  502    0  0.37608926038E+02  0.39218796278E+02  0.32518593475E+02  0.63462403207E+02  0.41800000000E+01 0.  1.
         -5    1    1    2    0  502 -0.31308389856E+02 -0.64595265501E+02  0.70249290750E+02  0.10052461814E+03  0.41800000000E+01 0.  1.
        -11    1    3    3    0    0  0.28412154818E+02  0.37491030295E+02 -0.14776283963E+02  0.49306860189E+02  0.00000000000E+00 0. -1.
         11    1    3    3    0    0 -0.34712691001E+02 -0.12114561071E+02  0.24736445023E+02  0.44312811002E+02  0.00000000000E+00 0.  1.
</event>
<event>
 7    1  0.1758121E-005  0.1698787E+03  0.7561462E-02  0.1177974E+00
          2   -1    0    0  501    0  0.00000000000E+00  0.00000000000E+00  0.13596664497E+03  0.13596664497E+03  0.00000000000E+00 0. -1.
         -2   -1    0    0    0  501 -0.00000000000E+00 -0.00000000000E+00 -0.29859825892E+03  0.29859825892E+03  0.00000000000E+00 0.  1.
         23    2    1    2    0    0  0.16391588819E+03 -0.58627295687E+01 -0.31792489905E+02  0.19028711286E+03  0.91080365100E+02 0.  0.
          5    1    1    2  502    0 -0.14588244045E+03 -0.14260351600E+02 -0.15086411916E+03  0.21038654641E+03  0.41800000000E+01 0.  1.
         -5    1    1    2    0  502 -0.18033447732E+02  0.20123081169E+02  0.20024995109E+02  0.33891244621E+02  0.41800000000E+01 0.  1.
        -11    1    3    3    0    0  0.80199473228E+02 -0.14909561302E+02 -0.60242266611E+02  0.10140700770E+03  0.00000000000E+00 0.  1.
         11    1    3    3    0    0  0.83716414957E+02  0.90468317338E+01  0.28449776706E+02  0.88880105155E+02  0.00000000000E+00 0. -1.
</event>
<event>
 7    1  0.1758121E-005  0.4421057E+03  0.7561462E-02  0.1030103E+00
          2   -1    0    0  501    0  0.00000000000E+00  0.00000000000E+00  0.89030097473E+03  0.89030097473E+03  0.00000000000E+00 0.  1.
         -2   -1    0    0    0  501 -0.00000000000E+00 -0.00000000000E+00 -0.22566683840E+03  0.22566683840E+03  0.00000000000E+00 0. -1.
         23    2    1    2    0    0  0.42840928433E+03  0.23737498902E+02  0.24248053439E+03  0.50118424303E+03  0.91054116563E+02 0.  0.
          5    1    1    2  502    0 -0.60070468870E+02  0.39789640524E+02  0.54116056998E+02  0.90209183282E+02  0.41800000000E+01 0.  1.
         -5    1    1    2    0  502 -0.36833881546E+03 -0.63527139426E+02  0.36803754494E+03  0.52457438682E+03  0.41800000000E+01 0.  1.
        -11    1    3    3    0    0  0.50954097262E+02  0.32931208477E+02  0.40979578074E+02  0.73212774423E+02  0.00000000000E+00 0.  1.
         11    1    3    3    0    0  0.37745518707E+03 -0.91937095754E+01  0.20150095632E+03  0.42797146860E+03  0.00000000000E+00 0. -1.
</event>
<event>
 7    1  0.1758121E-005  0.1668570E+03  0.7561462E-02  0.1181166E+00
         -2   -1    0    0    0  501 -0.00000000000E+00  0.00000000000E+00  0.48576466996E+02  0.48576466996E+02  0.00000000000E+00 0.  1.
          2   -1    0    0  501    0  0.00000000000E+00 -0.00000000000E+00 -0.59530435743E+03  0.59530435743E+03  0.00000000000E+00 0. -1.
         23    2    1    2    0    0 -0.12497717673E+03 -0.34067549499E+02 -0.28613019357E+03  0.32711676045E+03  0.91405659909E+02 0.  0.
          5    1    1    2  502    0  0.14642495740E+03  0.44867098064E+02 -0.20383383644E+03  0.25498829368E+03  0.41800000000E+01 0.  1.
         -5    1    1    2    0  502 -0.21447780670E+02 -0.10799548565E+02 -0.56763860427E+02  0.61775770294E+02  0.41800000000E+01 0.  1.
        -11    1    3    3    0    0  0.12561111115E+02 -0.10962979512E+02 -0.15995381795E+02  0.23104559528E+02  0.00000000000E+00 0.  1.
         11    1    3    3    0    0 -0.13753828784E+03 -0.23104569987E+02 -0.27013481177E+03  0.30401220092E+03  0.00000000000E+00 0. -1.
</event>
<event>
 7    1  0.1758121E-005  0.8668308E+02  0.7561462E-02  0.1311089E+00
          2   -1    0    0  501    0  0.00000000000E+00  0.00000000000E+00  0.16339337606E+03  0.16339337606E+03  0.00000000000E+00 0. -1.
         -2   -1    0    0    0  501 -0.00000000000E+00 -0.00000000000E+00 -0.14226478838E+03  0.14226478838E+03  0.00000000000E+00 0.  1.
         23    2    1    2    0    0  0.43134561851E+02  0.41032957191E+01  0.10712800497E+03  0.14780024672E+03  0.92147034778E+02 0.  0.
          5    1    1    2  502    0 -0.61470033118E+02 -0.19683491147E+02 -0.10740934283E+03  0.12538039768E+03  0.41800000000E+01 0. -1.
         -5    1    1    2    0  502  0.18335471267E+02  0.15580195428E+02  0.21409925541E+02  0.32477520038E+02  0.41800000000E+01 0. -1.
        -11    1    3    3    0    0  0.60215631614E+02 -0.11297314533E+02  0.31775674136E+02  0.69016266729E+02  0.00000000000E+00 0.  1.
         11    1    3    3    0    0 -0.17081069763E+02  0.15400610252E+02  0.75352330837E+02  0.78783979989E+02  0.00000000000E+00 0. -1.
</event>
<event>
 7    1  0.1758121E-005  0.1008161E+03  0.7561462E-02  0.1278589E+00
          4   -1    0    0  501    0  0.00000000000E+00  0.00000000000E+00  0.50389955071E+02  0.50389955071E+02  0.00000000000E+00 0. -1.
         -4   -1    0    0    0  501 -0.00000000000E+00 -0.00000000000E+00 -0.41640940071E+03  0.41640940071E+03  0.00000000000E+00 0.  1.
         23    2    1    2    0    0  0.91287809307E+02  0.21102603713E+02 -0.10837564693E+03  0.16545785595E+03  0.82778241327E+02 0.  0.
          5    1    1    2  502    0 -0.33345367046E+02 -0.15829300202E+02  0.29916310069E-01  0.37147725950E+02  0.41800000000E+01 0.  1.
         -5    1    1    2    0  502 -0.57942442261E+02 -0.52733035107E+01 -0.25767371502E+03  0.26419377388E+03  0.41800000000E+01 0.  1.
        -11    1    3    3    0    0  0.75206768297E+02  0.36758415131E+02 -0.11483201094E+03  0.14210429204E+03  0.00000000000E+00 0.  1.
         11    1    3    3    0    0  0.16081041010E+02 -0.15655811418E+02  0.64563640071E+01  0.23353563910E+02  0.00000000000E+00 0. -1.
</event>
<event>
 7    1  0.1758121E-005  0.1102671E+03  0.7561462E-02  0.1260076E+00
          1   -1    0    0  501    0  0.00000000000E+00  0.00000000000E+00  0.60903760130E+02  0.60903760130E+02  0.00000000000E+00 0. -1.
         -1   -1    0    0    0  501 -0.00000000000E+00 -0.00000000000E+00 -0.41004996015E+03  0.41004996015E+03  0.00000000000E+00 0.  1.
         23    2    1    2    0    0 -0.87888121377E+02 -0.19946595943E+02 -0.56341172327E+02  0.14004155050E+03  0.91187277616E+02 0.  0.
          5    1    1    2  502    0  0.10623968309E+02 -0.25499992143E+02 -0.36787009854E+01  0.28180197708E+02  0.41800000000E+01 0.  1.
         -5    1    1    2    0  502  0.77264153067E+02  0.45446588085E+02 -0.28912632671E+03  0.30273197207E+03  0.41800000000E+01 0.  1.
        -11    1    3    3    0    0 -0.50112982101E+02 -0.36113345187E+02 -0.73067497216E+02  0.95678335191E+02  0.00000000000E+00 0.  1.
         11    1    3    3    0    0 -0.37775139276E+02  0.16166749244E+02  0.16726324888E+02  0.44363215311E+02  0.00000000000E+00 0. -1.
</event>
<event>
 7    1  0.1758121E-005  0.9795109E+02  0.7561462E-02  0.1284664E+00
         -1   -1    0    0    0  501 -0.00000000000E+00  0.00000000000E+00  0.23217734957E+02  0.23217734957E+02  0.00000000000E+00 0.  1.
          1   -1    0    0  501    0  0.00000000000E+00 -0.00000000000E+00 -0.66309636692E+03  0.66309636692E+03  0.00000000000E+00 0. -1.
         23    2    1    2    0    0 -0.92481858583E+01 -0.18247739411E+02 -0.39289851346E+03  0.40870967308E+03  0.11070612474E+03 0.  0.
          5    1    1    2  502    0  0.38307674838E+02  0.33710364400E+02 -0.23769729269E+03  0.24314880624E+03  0.41800000000E+01 0. -1.
         -5    1    1    2    0  502 -0.29059488980E+02 -0.15462624989E+02 -0.92828258139E+01  0.34455622566E+02  0.41800000000E+01 0. -1.
        -11    1    3    3    0    0  0.49234906214E+02  0.29303238233E+01 -0.14641143940E+03  0.15449586524E+03  0.00000000000E+00 0.  1.
         11    1    3    3    0    0 -0.58483092073E+02 -0.21178063234E+02 -0.24648707405E+03  0.25421380784E+03  0.00000000000E+00 0. -1.
</event>
<event>
 7    1  0.1758121E-005  0.1828169E+03  0.7561462E-02  0.1165104E+00
          1   -1    0    0  501    0  0.00000000000E+00  0.00000000000E+00  0.23882999404E+03  0.23882999404E+03  0.00000000000E+00 0. -1.
         -1   -1    0    0    0  501 -0.00000000000E+00 -0.00000000000E+00 -0.18375437816E+03  0.18375437816E+03  0.00000000000E+00 0.  1.
         23    2    1    2    0    0  0.13522450805E+03  0.75550958360E+02  0.11635621078E+03  0.21426775870E+03  0.91532998133E+02 0.  0.
          5    1    1    2  502    0 -0.13428302521E+02  0.32444096904E+02 -0.34934540064E+01  0.35533299219E+02  0.41800000000E+01 0.  1.
         -5    1    1    2    0  502 -0.12179620552E+03 -0.10799505526E+03 -0.57787140893E+02  0.17278331428E+03  0.41800000000E+01 0.  1.
        -11    1    3    3    0    0  0.11723820331E+03  0.33853791859E+02  0.11671013864E+03  0.16885535822E+03  0.00000000000E+00 0.  1.
         11    1    3    3    0    0  0.17986304731E+02  0.41697166501E+02 -0.35392786430E+00  0.45412400476E+02  0.00000000000E+00 0. -1.
</event>
<event>
 7    1  0.1758121E-005  0.2438981E+03  0.7561462E-02  0.1117223E+00
          1   -1    0    0  501    0  0.00000000000E+00  0.00000000000E+00  0.50136671952E+03  0.50136671952E+03  0.00000000000E+00 0. -1.
         -1   -1    0    0    0  501 -0.00000000000E+00 -0.00000000000E+00 -0.12246081661E+03  0.12246081661E+03  0.00000000000E+00 0.  1.
         23    2    1    2    0    0 -0.45673966499E+02 -0.21397221744E+03  0.23224088905E+03  0.33223388056E+03  0.92592115177E+02 0.  0.
          5    1    1    2  502    0 -0.22286768694E+02  0.16551386294E+03  0.83052762583E+02  0.18656573281E+03  0.41800000000E+01 0.  1.
         -5    1    1    2    0  502  0.67960735192E+02  0.48458354499E+02  0.63612251274E+02  0.10502792277E+03  0.41800000000E+01 0.  1.
        -11    1    3    3    0    0  0.13649696516E+02 -0.14725558162E+03  0.13521206062E+03  0.20038169045E+03  0.00000000000E+00 0.  1.
         11    1    3    3    0    0 -0.59323663015E+02 -0.66716635826E+02  0.97028828427E+02  0.13185219010E+03  0.00000000000E+00 0. -1.
</event>
<event>
 7    1  0.1758121E-005  0.1033051E+03  0.7561462E-02  0.1273495E+00
          3   -1    0    0  501    0  0.00000000000E+00  0.00000000000E+00  0.65189781150E+02  0.65189781150E+02  0.00000000000E+00 0. -1.
         -3   -1    0    0    0  501 -0.00000000000E+00 -0.00000000000E+00 -0.21067589896E+03  0.21067589896E+03  0.00000000000E+00 0.  1.
         23    2    1    2    0    0 -0.25676280951E+02  0.34656668316E+02 -0.48265696167E+02  0.99099629412E+02  0.75038677100E+02 0.  0.
          5    1    1    2  502    0 -0.28420883440E+02  0.26256885734E+02 -0.86034916643E+02  0.94428014624E+02  0.41800000000E+01 0. -1.
         -5    1    1    2    0  502  0.54097164391E+02 -0.60913554051E+02 -0.11185504998E+02  0.82338036073E+02  0.41800000000E+01 0.  1.
        -11    1    3    3    0    0  0.24888582333E+02  0.13029844313E+00 -0.18551863270E+02  0.31042392611E+02  0.00000000000E+00 0.  1.
         11    1    3    3    0    0 -0.50564863284E+02  0.34526369873E+02 -0.29713832898E+02  0.68057236801E+02  0.00000000000E+00 0. -1.
</event>
<event>
 7    1  0.1758121E-005  0.9332296E+02  0.7561462E-02  0.1294998E+00
          3   -1    0    0  501    0  0.00000000000E+00  0.00000000000E+00  0.12103398862E+03  0.12103398862E+03  0.00000000000E+00 0. -1.
         -3   -1    0    0    0  501 -0.00000000000E+00 -0.00000000000E+00 -0.10689652445E+03  0.10689652445E+03  0.00000000000E+00 0.  1.
         23    2    1    2    0    0  0.18808168763E+02  0.21665528615E+02  0.21992741174E+02  0.99354385497E+02  0.92544426687E+02 0.  0.
          5    1    1    2  502    0  0.28637368933E+02 -0.52576692139E+02 -0.30651886172E+02  0.67390043638E+02  0.41800000000E+01 0.  1.
         -5    1    1    2    0  502 -0.47445537696E+02  0.30911163524E+02  0.22796609169E+02  0.61186083935E+02  0.41800000000E+01 0.  1.
        -11    1    3    3    0    0  0.21320017275E+02 -0.19329280388E+02  0.44139534283E+02  0.52692150304E+02  0.00000000000E+00 0. -1.
         11    1    3    3    0    0 -0.25118485115E+01  0.40994809004E+02 -0.22146793109E+02  0.46662235193E+02  0.00000000000E+00 0.  1.
</event>
<event>
 7    1  0.1758121E-005  0.1335747E+03  0.7561462E-02  0.1222246E+00
         -2   -1    0    0    0  501 -0.00000000000E+00  0.00000000000E+00  0.38553974737E+02  0.38553974737E+02  0.00000000000E+00 0.  1.
          2   -1    0    0  501    0  0.00000000000E+00 -0.00000000000E+00 -0.61555159660E+03  0.61555159660E+03  0.00000000000E+00 0. -1.
         23    2    1    2    0    0 -0.92598604871E+02  0.46660315304E+02 -0.33886430426E+03  0.36582382675E+03  0.90809519737E+02 0.  0.
          5    1    1    2  502    0  0.38825753239E+02  0.41748992511E+02 -0.10564831697E+03  0.12012267384E+03  0.41800000000E+01 0.  1.
         -5    1    1    2    0  502  0.53772851632E+02 -0.88409307815E+02 -0.13248500063E+03  0.16815907074E+03  0.41800000000E+01 0.  1.
        -11    1    3    3    0    0 -0.10023642915E+02 -0.24866875829E+01  0.29648537685E+01  0.10744644726E+02  0.00000000000E+00 0.  1.
         11    1    3    3    0    0 -0.82574961956E+02  0.49147002887E+02 -0.34182915802E+03  0.35507918203E+03  0.00000000000E+00 0. -1.
</event>
<event>
 7    1  0.1758121E-005  0.1095188E+03  0.7561462E-02  0.1261464E+00
         -1   -1    0    0    0  501 -0.00000000000E+00  0.00000000000E+00  0.46353683312E+03  0.46353683312E+03  0.00000000000E+00 0.  1.
          1   -1    0    0  501    0  0.00000000000E+00 -0.00000000000E+00 -0.72281076345E+02  0.72281076345E+02  0.00000000000E+00 0. -1.
         23    2    1    2    0    0 -0.27963991282E+02  0.23803746023E+02 -0.14534822385E+02  0.10959979011E+03  0.10223624503E+03 0.  0.
          5    1    1    2  502    0  0.51506937865E+02 -0.64803480049E+02  0.25438487420E+03  0.26754736458E+03  0.41800000000E+01 0. -1.
         -5    1    1    2    0  502 -0.23542946583E+02  0.40999734027E+02  0.15140570496E+03  0.15867075477E+03  0.41800000000E+01 0. -1.
        -11    1    3    3    0    0 -0.10204979276E+02  0.53295493684E+02 -0.39463084039E+02  0.67096097136E+02  0.00000000000E+00 0.  1.
         11    1    3    3    0    0 -0.17759012006E+02 -0.29491747661E+02  0.24928261653E+02  0.42503692976E+02  0.00000000000E+00 0. -1.
</event>
<event>
 7    1  0.1758121E-005  0.9907499E+02  0.7561462E-02  0.1282253E+00
          2   -1    0    0  501    0  0.00000000000E+00  0.00000000000E+00  0.71596257023E+03  0.71596257023E+03  0.00000000000E+00 0. -1.
         -2   -1    0    0    0  501 -0.00000000000E+00 -0.00000000000E+00 -0.18224552410E+02  0.18224552410E+02  0.00000000000E+00 0.  1.
         23    2    1    2    0    0 -0.19714154913E+02 -0.24832843463E+02  0.36006281601E+03  0.37269406256E+03  0.90831243414E+02 0.  0.
          5    1    1    2  502    0 -0.41489300383E+02 -0.23950640391E+01  0.23596979876E+03  0.23963788662E+03  0.41800000000E+01 0. -1.
         -5    1    1    2    0  502  0.61203455296E+02  0.27227907502E+02  0.10170540305E+03  0.12185517345E+03  0.41800000000E+01 0. -1.
        -11    1    3    3    0    0  0.96201045785E+01 -0.49814328512E+02  0.13228472171E+03  0.14168013741E+03  0.00000000000E+00 0.  1.
         11    1    3    3    0    0 -0.29334259492E+02  0.24981485049E+02  0.22777809430E+03  0.23101392516E+03  0.00000000000E+00 0. -1.
</event>
<event>
 7    1  0.1758121E-005  0.1228519E+03  0.7561462E-02  0.1238465E+00
          1   -1    0    0  501    0  0.00000000000E+00  0.00000000000E+00  0.26628070350E+03  0.26628070350E+03  0.00000000000E+00 0. -1.
         -1   -1    0    0    0  501 -0.00000000000E+00 -0.00000000000E+00 -0.83118027779E+02  0.83118027779E+02  0.00000000000E+00 0.  1.
         23    2    1    2    0    0  0.55389644326E+02  0.75062300425E+02  0.13075405524E+03  0.18478792620E+03  0.91365163291E+02 0.  0.
          5    1    1    2  502    0  0.17461050561E+02 -0.71206921248E+02 -0.20710607719E+01  0.73464791656E+02  0.41800000000E+01 0. -1.
         -5    1    1    2    0  502 -0.72850694887E+02 -0.38553791774E+01  0.54479681253E+02  0.91146013426E+02  0.41800000000E+01 0. -1.
        -11    1    3    3    0    0  0.47382658845E+02  0.36499993156E+02  0.13248993270E+03  0.14536487927E+03  0.00000000000E+00 0. -1.
         11    1    3    3    0    0  0.80069854812E+01  0.38562307270E+02 -0.17358774559E+01  0.39423046927E+02  0.00000000000E+00 0.  1.
</event>
<event>
 7    1  0.1758121E-005  0.1049168E+03  0.7561462E-02  0.1270284E+00
         -3   -1    0    0    0  501 -0.00000000000E+00  0.00000000000E+00  0.94255639229E+02  0.94255639229E+02  0.00000000000E+00 0.  1.
          3   -1    0    0  501    0  0.00000000000E+00 -0.00000000000E+00 -0.19071633168E+03  0.19071633168E+03  0.00000000000E+00 0. -1.
         23    2    1    2    0    0  0.52859698700E+02 -0.79471565334E+01 -0.10153705566E+03  0.14884296314E+03  0.94800574684E+02 0.  0.
          5    1    1    2  502    0 -0.61217484900E+02  0.56727533527E+02  0.16468053018E+02  0.85171959515E+02  0.41800000000E+01 0.  1.
         -5    1    1    2    0  502  0.83577861995E+01 -0.48780376993E+02 -0.11391689805E+02  0.50957048250E+02  0.41800000000E+01 0.  1.
        -11    1    3    3    0    0  0.29390738914E+02  0.23311521572E+02  0.26082964333E+01  0.37603800103E+02  0.00000000000E+00 0.  1.
         11    1    3    3    0    0  0.23468959786E+02 -0.31258678105E+02 -0.10414535210E+03  0.11123916304E+03  0.00000000000E+00 0. -1.
</event>
<event>
 7    1  0.1758121E-005  0.1176175E+03  0.7561462E-02  0.1247080E+00
         -2   -1    0    0    0  501 -0.00000000000E+00  0.00000000000E+00  0.29977809985E+02  0.29977809985E+02  0.00000000000E+00 0.  1.
          2   -1    0    0  501    0  0.00000000000E+00 -0.00000000000E+00 -0.55268883752E+03  0.55268883752E+03  0.00000000000E+00 0. -1.
         23    2    1    2    0    0 -0.63973581314E+02 -0.14786659907E+02 -0.27974942009E+03  0.30162785498E+03  0.91697112517E+02 0.  0.
          5    1    1    2  502    0  0.95816448384E+02 -0.48995894286E+00 -0.12333202636E+03  0.15623473675E+03  0.41800000000E+01 0. -1.
         -5    1    1    2    0  502 -0.31842867070E+02  0.15276618849E+02 -0.11962958109E+03  0.12480405578E+03  0.41800000000E+01 0. -1.
        -11    1    3    3    0    0 -0.45868101543E+02  0.30437300598E+02 -0.88099010770E+02  0.10388333700E+03  0.00000000000E+00 0.  1.
         11    1    3    3    0    0 -0.18105479771E+02 -0.45223960505E+02 -0.19165040932E+03  0.19774451799E+03  0.00000000000E+00 0. -1.
</event>
<event>
 7    1  0.1758121E-005  0.1187494E+03  0.7561462E-02  0.1245174E+00
          2   -1    0    0  501    0  0.00000000000E+00  0.00000000000E+00  0.55686930436E+03  0.55686930436E+03  0.00000000000E+00 0. -1.
         -2   -1    0    0    0  501 -0.00000000000E+00 -0.00000000000E+00 -0.38999207913E+02  0.38999207913E+02  0.00000000000E+00 0.  1.
         23    2    1    2    0    0  0.65706133556E+02  0.64158079022E+02  0.31502218346E+03  0.34047179865E+03  0.90821332933E+02 0.  0.
          5    1    1    2  502    0 -0.89389344173E+02 -0.77305923766E+02  0.19285402301E+03  0.22622291504E+03  0.41800000000E+01 0. -1.
         -5    1    1    2    0  502  0.23683210616E+02  0.13147844744E+02  0.99938899846E+01  0.29173798579E+02  0.41800000000E+01 0. -1.
        -11    1    3    3    0    0  0.31169595304E+02  0.30780238240E+02  0.34209003339E+02  0.55580775876E+02  0.00000000000E+00 0.  1.
         11    1    3    3    0    0  0.34536538253E+02  0.33377840782E+02  0.28081318012E+03  0.28489102277E+03  0.00000000000E+00 0. -1.
</event>
<event>
 7    1  0.1758121E-005  0.9462315E+02  0.7561462E-02  0.1292027E+00
          1   -1    0    0  501    0  0.00000000000E+00  0.00000000000E+00  0.31478694609E+03  0.31478694609E+03  0.00000000000E+00 0. -1.
         -1   -1    0    0    0  501 -0.00000000000E+00 -0.00000000000E+00 -0.58633644301E+02  0.58633644301E+02  0.00000000000E+00 0.  1.
         23    2    1    2    0    0 -0.19032244523E+02 -0.78985287001E+02  0.14020409166E+03  0.18449615712E+03  0.88208518747E+02 0.  0.
          5    1    1    2  502    0  0.31407464597E+02  0.86933339964E+02  0.23832481431E+02  0.95547339057E+02  0.41800000000E+01 0.  1.
         -5    1    1    2    0  502 -0.12375220074E+02 -0.79480529629E+01  0.92116728704E+02  0.93377094220E+02  0.41800000000E+01 0.  1.
        -11    1    3    3    0    0 -0.11299565135E+02 -0.57364426693E+02  0.14888073653E+03  0.15994946493E+03  0.00000000000E+00 0. -1.
         11    1    3    3    0    0 -0.77326793883E+01 -0.21620860307E+02 -0.86766448741E+01  0.24546692185E+02  0.00000000000E+00 0.  1.
</event>
<event>
 7    1  0.1758121E-005  0.7446596E+02  0.7561462E-02  0.1345533E+00
         -2   -1    0    0    0  501 -0.00000000000E+00  0.00000000000E+00  0.12443729362E+03  0.12443729362E+03  0.00000000000E+00 0.  1.
          2   -1    0    0  501    0  0.00000000000E+00 -0.00000000000E+00 -0.12789595539E+03  0.12789595539E+03  0.00000000000E+00 0. -1.
         23    2    1    2    0    0 -0.40619816428E+01  0.32001038989E+01 -0.31579137211E+02  0.97320014829E+02  0.91908666727E+02 0.  0.
          5    1    1    2  502    0 -0.31548782747E+02 -0.24626797456E+02 -0.51347309653E+02  0.65236672619E+02  0.41800000000E+01 0. -1.
         -5    1    1    2    0  502  0.35610764390E+02  0.21426693557E+02  0.79467785093E+02  0.89776561556E+02  0.41800000000E+01 0.  1.
        -11    1    3    3    0    0  0.31294755161E+02 -0.10396291326E+01  0.18122409825E+02  0.36178229188E+02  0.00000000000E+00 0.  1.
         11    1    3    3    0    0 -0.35356736804E+02  0.42397330315E+01 -0.49701547035E+02  0.61141785641E+02  0.00000000000E+00 0. -1.
</event>
<event>
 7    1  0.1758121E-005  0.1018751E+03  0.7561462E-02  0.1276402E+00
          3   -1    0    0  501    0  0.00000000000E+00  0.00000000000E+00  0.17835843324E+02  0.17835843324E+02  0.00000000000E+00 0. -1.
         -3   -1    0    0    0  501 -0.00000000000E+00 -0.00000000000E+00 -0.88142391487E+03  0.88142391487E+03  0.00000000000E+00 0.  1.
         23    2    1    2    0    0  0.36483609814E+02  0.15728783982E+02 -0.20340272945E+03  0.22615440385E+03  0.90524558018E+02 0.  0.
          5    1    1    2  502    0  0.23165352224E+02 -0.37940333473E+02 -0.10274436437E+03  0.11202668993E+03  0.41800000000E+01 0. -1.
         -5    1    1    2    0  502 -0.59648962038E+02  0.22211549492E+02 -0.55744097772E+03  0.56107866440E+03  0.41800000000E+01 0. -1.
        -11    1    3    3    0    0 -0.17377720835E+02 -0.23106217795E+02 -0.92287670928E+02  0.96710375284E+02  0.00000000000E+00 0.  1.
         11    1    3    3    0    0  0.53861330649E+02  0.38835001777E+02 -0.11111505852E+03  0.12944402857E+03  0.00000000000E+00 0. -1.
</event>
<event>
 7    1  0.1758121E-005  0.1075437E+03  0.7561462E-02  0.1265187E+00
         -1   -1    0    0    0  501 -0.00000000000E+00  0.00000000000E+00  0.14112766797E+03  0.14112766797E+03  0.00000000000E+00 0.  1.
          1   -1    0    0  501    0  0.00000000000E+00 -0.00000000000E+00 -0.86647575860E+02  0.86647575860E+02  0.00000000000E+00 0. -1.
         23    2    1    2    0    0  0.17551935901E+02  0.58886916890E+00  0.16302981708E+02  0.95817732881E+02  0.92773021408E+02 0.  0.
          5    1    1    2  502    0  0.38772396353E+02 -0.37025991067E+02  0.35994294919E+02  0.64709229636E+02  0.41800000000E+01 0. -1.
         -5    1    1    2    0  502 -0.56324332254E+02  0.36437121898E+02  0.21828154845E+01  0.67248281313E+02  0.41800000000E+01 0. -1.
        -11    1    3    3    0    0  0.53339258492E+02 -0.14479714195E+02  0.13450229715E+02  0.56882750452E+02  0.00000000000E+00 0.  1.
         11    1    3    3    0    0 -0.35787322591E+02  0.15068583364E+02  0.28527519922E+01  0.38934982429E+02  0.00000000000E+00 0. -1.
</event>
<event>
 7    1  0.1758121E-005  0.1570353E+03  0.7561462E-02  0.1192085E+00
         -2   -1    0    0    0  501 -0.00000000000E+00  0.00000000000E+00  0.38446979059E+02  0.38446979059E+02  0.00000000000E+00 0. -1.
          2   -1    0    0  501    0  0.00000000000E+00 -0.00000000000E+00 -0.76050606220E+03  0.76050606220E+03  0.00000000000E+00 0.  1.
         23    2    1    2    0    0 -0.78144841457E+02 -0.10414238491E+03 -0.39002645647E+03  0.42100500079E+03  0.90400892482E+02 0.  0.
          5    1    1    2  502    0  0.95753435190E+02  0.34756985166E+02 -0.14177812597E+03  0.17462897174E+03  0.41800000000E+01 0. -1.
         -5    1    1    2    0  502 -0.17608593733E+02  0.69385399742E+02 -0.19025450071E+03  0.20331906873E+03  0.41800000000E+01 0. -1.
        -11    1    3    3    0    0 -0.11899903570E+02 -0.59143199808E+02 -0.76572595855E+02  0.97482758601E+02  0.00000000000E+00 0. -1.
         11    1    3    3    0    0 -0.66244937887E+02 -0.44999185100E+02 -0.31345386061E+03  0.32352224219E+03  0.00000000000E+00 0.  1.
</event>
<event>
 7    1  0.1758121E-005  0.1437935E+03  0.7561462E-02  0.1208314E+00
         -2   -1    0    0    0  501 -0.00000000000E+00  0.00000000000E+00  0.98806836306E+02  0.98806836306E+02  0.00000000000E+00 0.  1.
          2   -1    0    0  501    0  0.00000000000E+00 -0.00000000000E+00 -0.32844580531E+03  0.32844580531E+03  0.00000000000E+00 0. -1.
         23    2    1    2    0    0 -0.12347912643E+03  0.32631013486E+02 -0.83528950658E+02  0.17670506420E+03  0.89082638094E+02 0.  0.
          5    1    1    2  502    0  0.49412091303E+01 -0.16606423071E+02 -0.12831011263E+03  0.12954206358E+03  0.41800000000E+01 0. -1.
         -5    1    1    2    0  502  0.11853791730E+03 -0.16024590415E+02 -0.17799905720E+02  0.12100551384E+03  0.41800000000E+01 0.  1.
        -11    1    3    3    0    0 -0.13316489766E+03  0.38663282249E+02 -0.88240756681E+02  0.16435988106E+03  0.00000000000E+00 0. -1.
         11    1    3    3    0    0  0.96857712270E+01 -0.60322687636E+01  0.47118060232E+01  0.12345183137E+02  0.00000000000E+00 0.  1.
</event>
<event>
 7    1  0.1758121E-005  0.9920454E+02  0.7561462E-02  0.1281978E+00
          1   -1    0    0  501    0  0.00000000000E+00  0.00000000000E+00  0.38808984183E+03  0.38808984183E+03  0.00000000000E+00 0. -1.
         -1   -1    0    0    0  501 -0.00000000000E+00 -0.00000000000E+00 -0.40536878056E+02  0.40536878056E+02  0.00000000000E+00 0.  1.
         23    2    1    2    0    0 -0.57904357471E+02 -0.94381631746E+00  0.18808257617E+03  0.21783668559E+03  0.93402145194E+02 0.  0.
          5    1    1    2  502    0  0.72286798574E+02 -0.10367006172E+02  0.28532594295E+02  0.78513931262E+02  0.41800000000E+01 0.  1.
         -5    1    1    2    0  502 -0.14382441103E+02  0.11310822490E+02  0.13093779331E+03  0.13227610304E+03  0.41800000000E+01 0.  1.
        -11    1    3    3    0    0 -0.33004868804E+02 -0.45049340935E+02  0.12522056004E+03  0.13710927445E+03  0.00000000000E+00 0. -1.
         11    1    3    3    0    0 -0.24899488666E+02  0.44105524617E+02  0.62862016135E+02  0.80727411145E+02  0.00000000000E+00 0.  1.
</event>
<event>
 7    1  0.1758121E-005  0.1809042E+03  0.7561462E-02  0.1166931E+00
          2   -1    0    0  501    0  0.00000000000E+00  0.00000000000E+00  0.52522611103E+03  0.52522611103E+03  0.00000000000E+00 0.  1.
         -2   -1    0    0    0  501 -0.00000000000E+00 -0.00000000000E+00 -0.72553587377E+02  0.72553587377E+02  0.00000000000E+00 0. -1.
         23    2    1    2    0    0 -0.67812917011E+02  0.13552732975E+03  0.30605301891E+03  0.35260418100E+03  0.87721201840E+02 0.  0.
          5    1    1    2  502    0  0.97372382167E+02 -0.92562768647E+02  0.13710119368E+03  0.19199858504E+03  0.41800000000E+01 0.  1.
         -5    1    1    2    0  502 -0.29559465156E+02 -0.42964561102E+02  0.95183110675E+01  0.53176932373E+02  0.41800000000E+01 0.  1.
        -11    1    3    3    0    0  0.21504746916E+02  0.25230801014E+02  0.60349986321E+02  0.68856142128E+02  0.00000000000E+00 0. -1.
         11    1    3    3    0    0 -0.89317663927E+02  0.11029652873E+03  0.24570303259E+03  0.28374803887E+03  0.00000000000E+00 0.  1.
</event>
<event>
 7    1  0.1758121E-005  0.1363267E+03  0.7561462E-02  0.1218359E+00
         -1   -1    0    0    0  501 -0.00000000000E+00  0.00000000000E+00  0.28528971080E+03  0.28528971080E+03  0.00000000000E+00 0.  1.
          1   -1    0    0  501    0  0.00000000000E+00 -0.00000000000E+00 -0.76647552064E+02  0.76647552064E+02  0.00000000000E+00 0. -1.
         23    2    1    2    0    0 -0.92841601817E+02  0.24811057715E+02  0.63343328964E+02  0.14747055132E+03  0.92195632047E+02 0.  0.
          5    1    1    2  502    0  0.10566947610E+03 -0.45225875303E+02  0.68514063197E+02  0.13387706014E+03  0.41800000000E+01 0. -1.
         -5    1    1    2    0  502 -0.12827874284E+02  0.20414817587E+02  0.76784766580E+02  0.80589651411E+02  0.41800000000E+01 0. -1.
        -11    1    3    3    0    0 -0.82201190481E+02 -0.22054146888E+02  0.41223480535E+02  0.94566360080E+02  0.00000000000E+00 0.  1.
         11    1    3    3    0    0 -0.10640411336E+02  0.46865204603E+02  0.22119848428E+02  0.52904191236E+02  0.00000000000E+00 0. -1.
</event>
<event>
 7    1  0.1758121E-005  0.2449693E+03  0.7561462E-02  0.1116526E+00
         -2   -1    0    0    0  501 -0.00000000000E+00  0.00000000000E+00  0.47136604570E+03  0.47136604570E+03  0.00000000000E+00 0.  1.
          2   -1    0    0  501    0  0.00000000000E+00 -0.00000000000E+00 -0.15240829111E+03  0.15240829111E+03  0.00000000000E+00 0. -1.
         23    2    1    2    0    0  0.10486768255E+03 -0.20366490914E+03  0.56171308958E+02  0.25342102483E+03  0.92684269521E+02 0.  0.
          5    1    1    2  502    0 -0.31457043751E+02  0.17782914395E+03  0.20563437208E+03  0.27370735726E+03  0.41800000000E+01 0. -1.
         -5    1    1    2    0  502 -0.73410638802E+02  0.25835765190E+02  0.57152073553E+02  0.96645954719E+02  0.41800000000E+01 0. -1.
        -11    1    3    3    0    0  0.10220266307E+03 -0.17562974667E+03  0.78135377118E+02  0.21770698062E+03  0.00000000000E+00 0.  1.
         11    1    3    3    0    0  0.26650194825E+01 -0.28035162468E+02 -0.21964068160E+02  0.35714044207E+02  0.00000000000E+00 0. -1.
</event>
<event>
 7    1  0.1758121E-005  0.1631889E+03  0.7561462E-02  0.1185143E+00
          4   -1    0    0  501    0  0.00000000000E+00  0.00000000000E+00  0.56870558705E+02  0.56870558705E+02  0.00000000000E+00 0. -1.
         -4   -1    0    0    0  501 -0.00000000000E+00 -0.00000000000E+00 -0.50433316761E+03  0.50433316761E+03  0.00000000000E+00 0.  1.
         23    2    1    2    0    0  0.63518885544E+02  0.11233055899E+03 -0.22426930001E+03  0.27464441414E+03  0.92087089133E+02 0.  0.
          5    1    1    2  502    0  0.36403133774E+02 -0.42201977314E+02 -0.89052697783E+02  0.10513824433E+03  0.41800000000E+01 0. -1.
         -5    1    1    2    0  502 -0.99922019318E+02 -0.70128581672E+02 -0.13414061111E+03  0.18142106785E+03  0.41800000000E+01 0. -1.
        -11    1    3    3    0    0  0.41411798873E+02  0.11838556160E+03 -0.14301617219E+03  0.19022014559E+03  0.00000000000E+00 0. -1.
         11    1    3    3    0    0  0.22107086671E+02 -0.60550026167E+01 -0.81253127825E+02  0.84424268544E+02  0.00000000000E+00 0.  1.
</event>
<event>
 7    1  0.1758121E-005  0.8419518E+02  0.7561462E-02  0.1317551E+00
         -3   -1    0    0    0  501 -0.00000000000E+00  0.00000000000E+00  0.34009416256E+03  0.34009416256E+03  0.00000000000E+00 0.  1.
          3   -1    0    0  501    0  0.00000000000E+00 -0.00000000000E+00 -0.46915512044E+02  0.46915512044E+02  0.00000000000E+00 0. -1.
         23    2    1    2    0    0  0.93734279450E+01  0.36725426320E+02  0.52541045502E+02  0.11316570909E+03  0.92786303742E+02 0.  0.
          5    1    1    2  502    0  0.40039191401E+02 -0.34050583179E+02  0.20761515921E+03  0.21420575575E+03  0.41800000000E+01 0. -1.
         -5    1    1    2    0  502 -0.49412619346E+02 -0.26748431420E+01  0.33022445804E+02  0.59638209760E+02  0.41800000000E+01 0. -1.
        -11    1    3    3    0    0  0.30398472544E+02  0.10005272304E+02 -0.16647995576E+02  0.36073929140E+02  0.00000000000E+00 0. -1.
         11    1    3    3    0    0 -0.21025044599E+02  0.26720154016E+02  0.69189041077E+02  0.77091779952E+02  0.00000000000E+00 0.  1.
</event>
<event>
 7    1  0.1758121E-005  0.1160880E+03  0.7561462E-02  0.1249694E+00
         -1   -1    0    0    0  501 -0.00000000000E+00  0.00000000000E+00  0.84912560151E+02  0.84912560151E+02  0.00000000000E+00 0.  1.
          1   -1    0    0  501    0  0.00000000000E+00 -0.00000000000E+00 -0.33654627158E+03  0.33654627158E+03  0.00000000000E+00 0. -1.
         23    2    1    2    0    0 -0.28392941230E+02  0.96025522110E+02 -0.22065141806E+03  0.25825854756E+03  0.89349701104E+02 0.  0.
          5    1    1    2  502    0  0.33542038043E+00 -0.63432866886E+02 -0.77149952374E+02  0.99967137898E+02  0.41800000000E+01 0. -1.
         -5    1    1    2    0  502  0.28057520849E+02 -0.32592655224E+02  0.46167659000E+02  0.63233146279E+02  0.41800000000E+01 0. -1.
        -11    1    3    3    0    0 -0.10290722075E+02 -0.12032213445E+02 -0.54015850783E+01  0.16728725073E+02  0.00000000000E+00 0.  1.
         11    1    3    3    0    0 -0.18102219154E+02  0.10805773555E+03 -0.21524983298E+03  0.24152982248E+03  0.00000000000E+00 0. -1.
</event>
<event>
 7    1  0.1758121E-005  0.1133986E+03  0.7561462E-02  0.1254403E+00
         -2   -1    0    0    0  501 -0.00000000000E+00  0.00000000000E+00  0.44482153382E+02  0.44482153382E+02  0.00000000000E+00 0. -1.
          2   -1    0    0  501    0  0.00000000000E+00 -0.00000000000E+00 -0.38260278458E+03  0.38260278458E+03  0.00000000000E+00 0.  1.
         23    2    1    2    0    0 -0.31235531819E+02  0.63922235148E+02 -0.17792305787E+03  0.21174201392E+03  0.90090817192E+02 0.  0.
          5    1    1    2  502    0 -0.48390942380E+02 -0.19164151356E+02 -0.52165665652E+02  0.73808380788E+02  0.41800000000E+01 0. -1.
         -5    1    1    2    0  502  0.79626474199E+02 -0.44758083792E+02 -0.10803190767E+03  0.14153454325E+03  0.41800000000E+01 0. -1.
        -11    1    3    3    0    0 -0.50051490928E+01  0.55308219694E+02 -0.17544266699E+03  0.18402222714E+03  0.00000000000E+00 0.  1.
         11    1    3    3    0    0 -0.26230382726E+02  0.86140154537E+01 -0.24803908886E+01  0.27719786781E+02  0.00000000000E+00 0. -1.
</event>
<event>
 7    1  0.1758121E-005  0.1081679E+03  0.7561462E-02  0.1264001E+00
         -1   -1    0    0    0  501 -0.00000000000E+00  0.00000000000E+00  0.38803859541E+03  0.38803859541E+03  0.00000000000E+00 0.  1.
          1   -1    0    0  501    0  0.00000000000E+00 -0.00000000000E+00 -0.11191699961E+03  0.11191699961E+03  0.00000000000E+00 0. -1.
         23    2    1    2    0    0 -0.12383389279E+02  0.35588762734E+02 -0.74911921842E+02  0.12539984745E+03  0.93238497107E+02 0.  0.
          5    1    1    2  502    0 -0.51104672311E+02 -0.30732516388E+02  0.23106302459E+03  0.23867083783E+03  0.41800000000E+01 0.  1.
         -5    1    1    2    0  502  0.63488061590E+02 -0.48562463457E+01  0.11997049305E+03  0.13588490974E+03  0.41800000000E+01 0.  1.
        -11    1    3    3    0    0 -0.47695721192E+02  0.89891279929E+01 -0.63160186461E+02  0.79654851678E+02  0.00000000000E+00 0.  1.
         11    1    3    3    0    0  0.35312331913E+02  0.26599634741E+02 -0.11751735382E+02  0.45744995770E+02  0.00000000000E+00 0. -1.
</event>
<event>
 7    1  0.1758121E-005  0.9638748E+02  0.7561462E-02  0.1288081E+00
          1   -1    0    0  501    0  0.00000000000E+00  0.00000000000E+00  0.12330276350E+03  0.12330276350E+03  0.00000000000E+00 0. -1.
         -1   -1    0    0    0  501 -0.00000000000E+00 -0.00000000000E+00 -0.11941795912E+03  0.11941795912E+03  0.00000000000E+00 0.  1.
         23    2    1    2    0    0  0.46885735134E+02 -0.14258818316E+02  0.32406639887E+02  0.10538335547E+03  0.87486428906E+02 0.  0.
          5    1    1    2  502    0 -0.48578237499E+02 -0.33518543388E+02 -0.56480189993E+02  0.81797445993E+02  0.41800000000E+01 0.  1.
         -5    1    1    2    0  502  0.16925023649E+01  0.47777361704E+02  0.27958354489E+02  0.55539921150E+02  0.41800000000E+01 0.  1.
        -11    1    3    3    0    0  0.64875942791E+02 -0.17818843639E+02 -0.98656336119E+00  0.67285752199E+02  0.00000000000E+00 0.  1.
         11    1    3    3    0    0 -0.17990207657E+02  0.35600253234E+01  0.33393203249E+02  0.38097603272E+02  0.00000000000E+00 0. -1.
</event>
<event>
 7    1  0.1758121E-005  0.2391152E+03  0.7561462E-02  0.1120384E+00
          2   -1    0    0  501    0  0.00000000000E+00  0.00000000000E+00  0.25235145354E+03  0.25235145354E+03  0.00000000000E+00 0. -1.
         -2   -1    0    0    0  501 -0.00000000000E+00 -0.00000000000E+00 -0.26165794179E+03  0.26165794179E+03  0.00000000000E+00 0.  1.
         23    2    1    2    0    0  0.18677833563E+03 -0.12177089272E+03  0.62755270303E+02  0.24840266940E+03  0.89729400081E+02 0.  0.
          5    1    1    2  502    0 -0.19549461180E+03  0.12059927941E+03 -0.41403981631E+02  0.23343969571E+03  0.41800000000E+01 0.  1.
         -5    1    1    2    0  502  0.87162761655E+01  0.11716133171E+01 -0.30657776919E+02  0.32167030226E+02  0.41800000000E+01 0.  1.
        -11    1    3    3    0    0  0.17542717017E+03 -0.75279256672E+02  0.61392205168E+02  0.20052596184E+03  0.00000000000E+00 0.  1.
         11    1    3    3    0    0  0.11351165468E+02 -0.46491636052E+02  0.13630651352E+01  0.47876707561E+02  0.00000000000E+00 0. -1.
</event>
<event>
 7    1  0.1758121E-005  0.1308069E+03  0.7561462E-02  0.1226263E+00
          4   -1    0    0  501    0  0.00000000000E+00  0.00000000000E+00  0.91437679138E+02  0.91437679138E+02  0.00000000000E+00 0.  1.
         -4   -1    0    0    0  501 -0.00000000000E+00 -0.00000000000E+00 -0.26498457694E+03  0.26498457694E+03  0.00000000000E+00 0. -1.
         23    2    1    2    0    0  0.85012867354E+02  0.69585611251E+02 -0.82224382205E+02  0.16653538495E+03  0.94360163747E+02 0.  0.
          5    1    1    2  502    0 -0.89555024092E+02 -0.79629540462E+02 -0.24953641001E+02  0.12247907027E+03  0.41800000000E+01 0. -1.
         -5    1    1    2    0  502  0.45421567378E+01  0.10043929210E+02 -0.66368874591E+02  0.67407800857E+02  0.41800000000E+01 0. -1.
        -11    1    3    3    0    0 -0.14579740721E+01  0.37736746476E+02 -0.61364725020E+02  0.72054265660E+02  0.00000000000E+00 0.  1.
         11    1    3    3    0    0  0.86470841426E+02  0.31848864776E+02 -0.20859657185E+02  0.94481119290E+02  0.00000000000E+00 0. -1.
</event>
<event>
 7    1  0.1758121E-005  0.1434170E+03  0.7561462E-02  0.1208804E+00
          2   -1    0    0  501    0  0.00000000000E+00  0.00000000000E+00  0.39212418329E+02  0.39212418329E+02  0.00000000000E+00 0. -1.
         -2   -1    0    0    0  501 -0.00000000000E+00 -0.00000000000E+00 -0.65878537515E+03  0.65878537515E+03  0.00000000000E+00 0.  1.
         23    2    1    2    0    0 -0.12586187220E+02 -0.11267747280E+03 -0.36115187197E+03  0.38931745211E+03  0.91009773672E+02 0.  0.
          5    1    1    2  502    0  0.60408827369E+02  0.23490364742E+02 -0.75528352660E+02  0.99614397129E+02  0.41800000000E+01 0. -1.
         -5    1    1    2    0  502 -0.47822640149E+02  0.89187108054E+02 -0.18289273219E+03  0.20906594425E+03  0.41800000000E+01 0. -1.
        -11    1    3    3    0    0  0.14952740624E+02 -0.48745048174E+02 -0.26921075889E+03  0.27399652712E+03  0.00000000000E+00 0.  1.
         11    1    3    3    0    0 -0.27538927844E+02 -0.63932424621E+02 -0.91941113079E+02  0.11532092498E+03  0.00000000000E+00 0. -1.
</event>
<event>
 7    1  0.1758121E-005  0.1134525E+03  0.7561462E-02  0.1254307E+00
         -1   -1    0    0    0  501 -0.00000000000E+00  0.00000000000E+00  0.28002109346E+03  0.28002109346E+03  0.00000000000E+00 0.  1.
          1   -1    0    0  501    0  0.00000000000E+00 -0.00000000000E+00 -0.17890053416E+03  0.17890053416E+03  0.00000000000E+00 0. -1.
         23    2    1    2    0    0 -0.96049572408E+02  0.12298849481E+02 -0.11178126052E+03  0.17369247379E+03  0.91089204584E+02 0.  0.
          5    1    1    2  502    0  0.21100852068E+02  0.24086264841E+01  0.20741371735E+03  0.20854009203E+03  0.41800000000E+01 0. -1.
         -5    1    1    2    0  502  0.74948720340E+02 -0.14707475965E+02  0.54881024597E+01  0.76689061791E+02  0.41800000000E+01 0.  1.
        -11    1    3    3    0    0 -0.54883343100E+02 -0.35746316933E+02 -0.78392501640E+02  0.10215363350E+03  0.00000000000E+00 0.  1.
         11    1    3    3    0    0 -0.41166229308E+02  0.48045166414E+02 -0.33388758876E+02  0.71538840293E+02  0.00000000000E+00 0. -1.
</event>
<event>
 7    1  0.1758121E-005  0.9105516E+02  0.7561462E-02  0.1300316E+00
         -1   -1    0    0    0  501 -0.00000000000E+00  0.00000000000E+00  0.25850527620E+02  0.25850527620E+02  0.00000000000E+00 0.  1.
          1   -1    0    0  501    0  0.00000000000E+00 -0.00000000000E+00 -0.53646562571E+03  0.53646562571E+03  0.00000000000E+00 0. -1.
         23    2    1    2    0    0  0.29756452074E+02 -0.20177270204E+02 -0.28564937087E+03  0.30240774784E+03  0.92532773661E+02 0.  0.
          5    1    1    2  502    0 -0.36064727684E+02  0.45755667292E+02 -0.35030230316E+02  0.68108994328E+02  0.41800000000E+01 0. -1.
         -5    1    1    2    0  502  0.63082756109E+01 -0.25578397089E+02 -0.18993549691E+03  0.19179941117E+03  0.41800000000E+01 0. -1.
        -11    1    3    3    0    0 -0.21019140574E+01  0.34059710211E+02 -0.13296537873E+03  0.13727444716E+03  0.00000000000E+00 0. -1.
         11    1    3    3    0    0  0.31858366131E+02 -0.54236980415E+02 -0.15268399214E+03  0.16513330068E+03  0.00000000000E+00 0.  1.
</event>
<event>
 7    1  0.1758121E-005  0.1085972E+03  0.7561462E-02  0.1263190E+00
          2   -1    0    0  501    0  0.00000000000E+00  0.00000000000E+00  0.29658926328E+03  0.29658926328E+03  0.00000000000E+00 0. -1.
         -2   -1    0    0    0  501 -0.00000000000E+00 -0.00000000000E+00 -0.59190613278E+02  0.59190613278E+02  0.00000000000E+00 0.  1.
         23    2    1    2    0    0  0.24019474092E+02 -0.70870270474E+02  0.12889747929E+03  0.17406713021E+03  0.89918158791E+02 0.  0.
          5    1    1    2  502    0 -0.64067230818E+02  0.40291946858E+01  0.68697091159E+02  0.94114861782E+02  0.41800000000E+01 0.  1.
         -5    1    1    2    0  502  0.40047756726E+02  0.66841075788E+02  0.39804079556E+02  0.87597884567E+02  0.41800000000E+01 0.  1.
        -11    1    3    3    0    0  0.73589940459E+01 -0.20866909136E+02  0.11824264935E+03  0.12029508225E+03  0.00000000000E+00 0. -1.
         11    1    3    3    0    0  0.16660480046E+02 -0.50003361338E+02  0.10654829944E+02  0.53772047958E+02  0.00000000000E+00 0.  1.
</event>
<event>
 7    1  0.1758121E-005  0.2086255E+03  0.7561462E-02  0.1142659E+00
         -3   -1    0    0    0  501 -0.00000000000E+00  0.00000000000E+00  0.13440491464E+03  0.13440491464E+03  0.00000000000E+00 0.  1.
          3   -1    0    0  501    0  0.00000000000E+00 -0.00000000000E+00 -0.49700706730E+03  0.49700706730E+03  0.00000000000E+00 0. -1.
         23    2    1    2    0    0  0.11904420409E+03  0.14734952606E+03 -0.34502185761E+03  0.40372790936E+03  0.89848412379E+02 0.  0.
          5    1    1    2  502    0 -0.13570292628E+03 -0.85178525294E+02 -0.26892107815E+02  0.16251560921E+03  0.41800000000E+01 0.  1.
         -5    1    1    2    0  502  0.16658722192E+02 -0.62171000768E+02  0.93118127711E+01  0.65168463375E+02  0.41800000000E+01 0.  1.
        -11    1    3    3    0    0  0.98168643917E+02  0.97168839995E+02 -0.30915972010E+03  0.33861275618E+03  0.00000000000E+00 0.  1.
         11    1    3    3    0    0  0.20875560174E+02  0.50180686068E+02 -0.35862137513E+02  0.65115153181E+02  0.00000000000E+00 0. -1.
</event>
<event>
 7    1  0.1758121E-005  0.1494175E+03  0.7561462E-02  0.1201191E+00
          1   -1    0    0  501    0  0.00000000000E+00  0.00000000000E+00  0.75329518846E+03  0.75329518846E+03  0.00000000000E+00 0. -1.
         -1   -1    0    0    0  501 -0.00000000000E+00 -0.00000000000E+00 -0.36351534096E+02  0.36351534096E+02  0.00000000000E+00 0.  1.
         23    2    1    2    0    0 -0.16637777955E+02  0.12680860762E+03  0.40735981034E+03  0.43580387441E+03  0.87325616220E+02 0.  0.
          5    1    1    2  502    0  0.36208732934E+02  0.57039557853E+01  0.56762878653E+02  0.67698628090E+02  0.41800000000E+01 0. -1.
         -5    1    1    2    0  502 -0.19570954979E+02 -0.13251256341E+03  0.25282096536E+03  0.28614422005E+03  0.41800000000E+01 0.  1.
        -11    1    3    3    0    0 -0.10130925265E+02  0.87350992099E+02  0.37254290184E+03  0.38278067503E+03  0.00000000000E+00 0. -1.
         11    1    3    3    0    0 -0.65068526902E+01  0.39457615524E+02  0.34816908502E+02  0.53023199379E+02  0.00000000000E+00 0.  1.
</event>
<event>
 7    1  0.1758121E-005  0.9457972E+02  0.7561462E-02  0.1292125E+00
         -1   -1    0    0    0  501 -0.00000000000E+00  0.00000000000E+00  0.14399505306E+03  0.14399505306E+03  0.00000000000E+00 0.  1.
          1   -1    0    0  501    0  0.00000000000E+00 -0.00000000000E+00 -0.12757265639E+03  0.12757265639E+03  0.00000000000E+00 0. -1.
         23    2    1    2    0    0 -0.28267424072E+01  0.60245905452E+02 -0.46500967137E+02  0.11910806247E+03  0.91579642963E+02 0.  0.
          5    1    1    2  502    0 -0.15563447695E+02 -0.63066852356E+02 -0.19426972163E+02  0.67930320312E+02  0.41800000000E+01 0. -1.
         -5    1    1    2    0  502  0.18390190103E+02  0.28209469041E+01  0.82350335966E+02  0.84529326670E+02  0.41800000000E+01 0. -1.
        -11    1    3    3    0    0 -0.15361337276E+02  0.80076862806E+02 -0.49609064190E+02  0.95442830478E+02  0.00000000000E+00 0. -1.
         11    1    3    3    0    0  0.12534594868E+02 -0.19830957355E+02  0.31080970533E+01  0.23665231996E+02  0.00000000000E+00 0.  1.
</event>
<event>
 7    1  0.1758121E-005  0.3800324E+03  0.7561462E-02  0.1050922E+00
         -2   -1    0    0    0  501 -0.00000000000E+00  0.00000000000E+00  0.22807088177E+03  0.22807088177E+03  0.00000000000E+00 0.  1.
          2   -1    0    0  501    0  0.00000000000E+00 -0.00000000000E+00 -0.84509252688E+03  0.84509252688E+03  0.00000000000E+00 0. -1.
         23    2    1    2    0    0 -0.19279575550E+03 -0.31467128531E+03 -0.56515339697E+03  0.68006696294E+03  0.83093265892E+02 0.  0.
          5    1    1    2  502    0  0.18857631863E+03  0.21382414968E+03 -0.61266884469E+02  0.29163830075E+03  0.41800000000E+01 0. -1.
         -5    1    1    2    0  502  0.42194368695E+01  0.10084713563E+03  0.93986363217E+01  0.10145814495E+03  0.41800000000E+01 0. -1.
        -11    1    3    3    0    0 -0.15700270258E+03 -0.20290389566E+03 -0.33747313854E+03  0.42391975506E+03  0.00000000000E+00 0.  1.
         11    1    3    3    0    0 -0.35793052917E+02 -0.11176738965E+03 -0.22768025843E+03  0.25614720788E+03  0.00000000000E+00 0. -1.
</event>
<event>
 7    1  0.1758121E-005  0.1130124E+03  0.7561462E-02  0.1255091E+00
          2   -1    0    0  501    0  0.00000000000E+00  0.00000000000E+00  0.21951216939E+02  0.21951216939E+02  0.00000000000E+00 0. -1.
         -2   -1    0    0    0  501 -0.00000000000E+00 -0.00000000000E+00 -0.84014317863E+03  0.84014317863E+03  0.00000000000E+00 0.  1.
         23    2    1    2    0    0  0.55051816296E+02 -0.61114512996E+02 -0.35042486986E+03  0.37095582130E+03  0.89693621646E+02 0.  0.
          5    1    1    2  502    0 -0.61505800991E+02  0.20026442266E+02 -0.42982642588E+03  0.43468638203E+03  0.41800000000E+01 0.  1.
         -5    1    1    2    0  502  0.64539846949E+01  0.41088070730E+02 -0.37940665954E+02  0.56452192232E+02  0.41800000000E+01 0.  1.
        -11    1    3    3    0    0 -0.31366670475E+01 -0.61135622330E+02 -0.21532420138E+03  0.22385690675E+03  0.00000000000E+00 0.  1.
         11    1    3    3    0    0  0.58188483344E+02  0.21109333740E-01 -0.13510066848E+03  0.14709891456E+03  0.00000000000E+00 0. -1.
</event>
<event>
 7    1  0.1758121E-005  0.1671478E+03  0.7561462E-02  0.1180855E+00
         -1   -1    0    0    0  501 -0.00000000000E+00  0.00000000000E+00  0.13816603332E+04  0.13816603332E+04  0.00000000000E+00 0.  1.
          1   -1    0    0  501    0  0.00000000000E+00 -0.00000000000E+00 -0.26506354296E+02  0.26506354296E+02  0.00000000000E+00 0. -1.
         23    2    1    2    0    0  0.77281686555E+01 -0.13431340716E+03  0.34196158332E+03  0.37845517547E+03  0.90502925028E+02 0.  0.
          5    1    1    2  502    0  0.42021652971E+02  0.11036146306E+03  0.51145491611E+03  0.52492768594E+03  0.41800000000E+01 0. -1.
         -5    1    1    2    0  502 -0.49749821626E+02  0.23951944093E+02  0.50173747943E+03  0.50478382605E+03  0.41800000000E+01 0. -1.
        -11    1    3    3    0    0  0.37431441612E+02 -0.19583601156E+02  0.69454139842E+02  0.81292729051E+02  0.00000000000E+00 0.  1.
         11    1    3    3    0    0 -0.29703272956E+02 -0.11472980600E+03  0.27250744348E+03  0.29716244642E+03  0.00000000000E+00 0. -1.
</event>
<event>
 7    1  0.1758121E-005  0.8279144E+02  0.7561462E-02  0.1321311E+00
         -1   -1    0    0    0  501 -0.00000000000E+00  0.00000000000E+00  0.21919435588E+03  0.21919435588E+03  0.00000000000E+00 0.  1.
          1   -1    0    0  501    0  0.00000000000E+00 -0.00000000000E+00 -0.59082323091E+02  0.59082323091E+02  0.00000000000E+00 0. -1.
         23    2    1    2    0    0  0.34456301980E+02 -0.33819002980E+01  0.52401354032E+02  0.10961250511E+03  0.89834989717E+02 0.  0.
          5    1    1    2  502    0 -0.35821968302E+02 -0.38739242346E+02  0.11415333024E+03  0.12582685531E+03  0.41800000000E+01 0. -1.
         -5    1    1    2    0  502  0.13656663223E+01  0.42121142644E+02 -0.64426514894E+01  0.42837318547E+02  0.41800000000E+01 0. -1.
        -11    1    3    3    0    0  0.16952698872E+01 -0.28793387997E+02  0.60813216185E+02  0.67306614795E+02  0.00000000000E+00 0.  1.
         11    1    3    3    0    0  0.32761032092E+02  0.25411487699E+02 -0.84118621534E+01  0.42305890320E+02  0.00000000000E+00 0. -1.
</event>
<event>
 7    1  0.1758121E-005  0.1094746E+03  0.7561462E-02  0.1261546E+00
          1   -1    0    0  501    0  0.00000000000E+00  0.00000000000E+00  0.12957890037E+03  0.12957890037E+03  0.00000000000E+00 0. -1.
         -1   -1    0    0    0  501 -0.00000000000E+00 -0.00000000000E+00 -0.10622865893E+03  0.10622865893E+03  0.00000000000E+00 0.  1.
         23    2    1    2    0    0 -0.17875351418E+01  0.46107000510E+02  0.29721216076E+02  0.10232188214E+03  0.86356042651E+02 0.  0.
          5    1    1    2  502    0 -0.51794249917E+02 -0.42752521823E+02 -0.31220280489E+02  0.74179517123E+02  0.41800000000E+01 0.  1.
         -5    1    1    2    0  502  0.53581785059E+02 -0.33544786868E+01  0.24849305853E+02  0.59306160041E+02  0.41800000000E+01 0.  1.
        -11    1    3    3    0    0  0.12847891452E+02  0.69247967327E+02  0.19313142920E+02  0.73029766418E+02  0.00000000000E+00 0. -1.
         11    1    3    3    0    0 -0.14635426594E+02 -0.23140966817E+02  0.10408073156E+02  0.29292115725E+02  0.00000000000E+00 0.  1.
</event>
<event>
 7    1  0.1758121E-005  0.8756306E+02  0.7561462E-02  0.1308863E+00
          2   -1    0    0  501    0  0.00000000000E+00  0.00000000000E+00  0.18054010055E+03  0.18054010055E+03  0.00000000000E+00 0. -1.
         -2   -1    0    0    0  501 -0.00000000000E+00 -0.00000000000E+00 -0.86068849634E+02  0.86068849634E+02  0.00000000000E+00 0.  1.
         23    2    1    2    0    0 -0.41510716290E+01  0.54560622129E+02  0.72952596085E+02  0.12838913441E+03  0.90374751319E+02 0.  0.
          5    1    1    2  502    0  0.17324964062E+02 -0.66967311350E+02  0.62441102204E+02  0.93279895012E+02  0.41800000000E+01 0.  1.
         -5    1    1    2    0  502 -0.13173892433E+02  0.12406689221E+02 -0.40922447372E+02  0.44939920763E+02  0.41800000000E+01 0.  1.
        -11    1    3    3    0    0  0.29455056771E+02  0.93122371519E+01 -0.59133759820E+01  0.31452919509E+02  0.00000000000E+00 0.  1.
         11    1    3    3    0    0 -0.33606128400E+02  0.45248384977E+02  0.78865972068E+02  0.96936214900E+02  0.00000000000E+00 0. -1.
</event>
<event>
 7    1  0.1758121E-005  0.1159503E+03  0.7561462E-02  0.1249931E+00
          3   -1    0    0  501    0  0.00000000000E+00  0.00000000000E+00  0.83980905725E+02  0.83980905725E+02  0.00000000000E+00 0. -1.
         -3   -1    0    0    0  501 -0.00000000000E+00 -0.00000000000E+00 -0.30130123645E+03  0.30130123645E+03  0.00000000000E+00 0.  1.
         23    2    1    2    0    0  0.38724430917E+02  0.85510000150E+02 -0.16947034186E+02  0.13109899502E+03  0.89934436415E+02 0.  0.
          5    1    1    2  502    0 -0.15934074640E+02  0.19242806373E+02  0.17083918571E+01  0.25388409451E+02  0.41800000000E+01 0.  1.
         -5    1    1    2    0  502 -0.22790356277E+02 -0.10475280652E+03 -0.20208168840E+03  0.22879473770E+03  0.41800000000E+01 0.  1.
        -11    1    3    3    0    0 -0.38400406561E+01  0.25062246496E+02 -0.45304501391E+02  0.51916856203E+02  0.00000000000E+00 0.  1.
         11    1    3    3    0    0  0.42564471573E+02  0.60447753653E+02  0.28357467205E+02  0.79182138821E+02  0.00000000000E+00 0. -1.
</event>
<event>
 7    1  0.1758121E-005  0.1068326E+03  0.7561462E-02  0.1266550E+00
          2   -1    0    0  501    0  0.00000000000E+00  0.00000000000E+00  0.47120004866E+02  0.47120004866E+02  0.00000000000E+00 0. -1.
         -2   -1    0    0    0  501 -0.00000000000E+00 -0.00000000000E+00 -0.30306679318E+03  0.30306679318E+03  0.00000000000E+00 0.  1.
         23    2    1    2    0    0  0.31551540254E+02 -0.30104327951E+00 -0.58677845205E+02  0.11448159590E+03  0.93098635669E+02 0.  0.
          5    1    1    2  502    0  0.63509355516E+01 -0.53352192195E+02 -0.13389049694E+03  0.14432923600E+03  0.41800000000E+01 0.  1.
         -5    1    1    2    0  502 -0.37902475805E+02  0.53653235475E+02 -0.63378446169E+02  0.91375966139E+02  0.41800000000E+01 0.  1.
        -11    1    3    3    0    0  0.43231392399E+02  0.35722541343E+02 -0.17986140353E+02  0.58894435166E+02  0.00000000000E+00 0. -1.
         11    1    3    3    0    0 -0.11679852145E+02 -0.36023584623E+02 -0.40691704852E+02  0.55587160738E+02  0.00000000000E+00 0.  1.
</event>
<event>
 7    1  0.1758121E-005  0.8740017E+02  0.7561462E-02  0.1309273E+00
         -1   -1    0    0    0  501 -0.00000000000E+00  0.00000000000E+00  0.43074230957E+02  0.43074230957E+02  0.00000000000E+00 0.  1.
          1   -1    0    0  501    0  0.00000000000E+00 -0.00000000000E+00 -0.27658596926E+03  0.27658596926E+03  0.00000000000E+00 0. -1.
         23    2    1    2    0    0  0.12979742412E+02 -0.10088527637E+02 -0.99294398737E+02  0.13545149081E+03  0.90650298613E+02 0.  0.
          5    1    1    2  502    0 -0.50509802687E+02  0.47646623129E+02 -0.96446796143E+02  0.11891550677E+03  0.41800000000E+01 0.  1.
         -5    1    1    2    0  502  0.37530060275E+02 -0.37558095493E+02 -0.37770543427E+02  0.65293202648E+02  0.41800000000E+01 0.  1.
        -11    1    3    3    0    0  0.26358544271E+02 -0.21794077128E+02  0.38049359315E+00  0.34203792616E+02  0.00000000000E+00 0.  1.
         11    1    3    3    0    0 -0.13378801860E+02  0.11705549491E+02 -0.99674892330E+02  0.10124769819E+03  0.00000000000E+00 0. -1.
</event>
<event>
 7    1  0.1758121E-005  0.1241544E+03  0.7561462E-02  0.1236397E+00
          2   -1    0    0  501    0  0.00000000000E+00  0.00000000000E+00  0.35706738522E+02  0.35706738522E+02  0.00000000000E+00 0. -1.
         -2   -1    0    0    0  501 -0.00000000000E+00 -0.00000000000E+00 -0.44956283750E+03  0.44956283750E+03  0.00000000000E+00 0.  1.
         23    2    1    2    0    0  0.59230944310E+02 -0.29645812137E+02 -0.17255061971E+03  0.20551266727E+03  0.89858561686E+02 0.  0.
          5    1    1    2  502    0  0.37299197495E+02 -0.32303987303E+01 -0.46587645509E+02  0.59912826037E+02  0.41800000000E+01 0. -1.
         -5    1    1    2    0  502 -0.96530141804E+02  0.32876210868E+02 -0.19471783376E+03  0.21984408271E+03  0.41800000000E+01 0. -1.
        -11    1    3    3    0    0  0.31029752688E+02  0.29648688972E+02 -0.92556675961E+02  0.10202268657E+03  0.00000000000E+00 0.  1.
         11    1    3    3    0    0  0.28201191621E+02 -0.59294501109E+02 -0.79993943746E+02  0.10348998071E+03  0.00000000000E+00 0. -1.
</event>
<event>
 7    1  0.1758121E-005  0.1186642E+03  0.7561462E-02  0.1245317E+00
          1   -1    0    0  501    0  0.00000000000E+00  0.00000000000E+00  0.11037491211E+03  0.11037491211E+03  0.00000000000E+00 0. -1.
         -1   -1    0    0    0  501 -0.00000000000E+00 -0.00000000000E+00 -0.16153057884E+03  0.16153057884E+03  0.00000000000E+00 0.  1.
         23    2    1    2    0    0 -0.22832593796E+02  0.77604512462E+02 -0.87937991264E+01  0.11703182232E+03  0.84114973921E+02 0.  0.
          5    1    1    2  502    0  0.47218074678E+02  0.11608457722E+02  0.80425775277E+01  0.49461685376E+02  0.41800000000E+01 0.  1.
         -5    1    1    2    0  502 -0.24385480882E+02 -0.89212970183E+02 -0.50404445132E+02  0.10541198326E+03  0.41800000000E+01 0.  1.
        -11    1    3    3    0    0 -0.23502229738E+02  0.58923660360E+01  0.27503585821E+02  0.36654085901E+02  0.00000000000E+00 0. -1.
         11    1    3    3    0    0  0.66963594283E+00  0.71712146425E+02 -0.36297384948E+02  0.80377736415E+02  0.00000000000E+00 0.  1.
</event>
<event>
 7    1  0.1758121E-005  0.9077722E+02  0.7561462E-02  0.1300980E+00
         -1   -1    0    0    0  501 -0.00000000000E+00  0.00000000000E+00  0.26789193970E+02  0.26789193970E+02  0.00000000000E+00 0.  1.
          1   -1    0    0  501    0  0.00000000000E+00 -0.00000000000E+00 -0.56323559434E+03  0.56323559434E+03  0.00000000000E+00 0. -1.
         23    2    1    2    0    0 -0.35577893618E+02  0.34950588951E+02 -0.36321174173E+03  0.37823435301E+03  0.93011430929E+02 0.  0.
          5    1    1    2  502    0 -0.13161174212E+02  0.47493155241E+01  0.10217171134E+02  0.17822331232E+02  0.41800000000E+01 0. -1.
         -5    1    1    2    0  502  0.48739067829E+02 -0.39699904475E+02 -0.18345182977E+03  0.19396810406E+03  0.41800000000E+01 0.  1.
        -11    1    3    3    0    0  0.23153573712E+02 -0.14376092341E+02 -0.12667784615E+03  0.12957637405E+03  0.00000000000E+00 0.  1.
         11    1    3    3    0    0 -0.58731467330E+02  0.49326681292E+02 -0.23653389558E+03  0.24865797896E+03  0.00000000000E+00 0. -1.
</event>
<event>
 7    1  0.1758121E-005  0.1135168E+03  0.7561462E-02  0.1254192E+00
          1   -1    0    0  501    0  0.00000000000E+00  0.00000000000E+00  0.30179480957E+02  0.30179480957E+02  0.00000000000E+00 0. -1.
         -1   -1    0    0    0  501 -0.00000000000E+00 -0.00000000000E+00 -0.80322230888E+03  0.80322230888E+03  0.00000000000E+00 0.  1.
         23    2    1    2    0    0 -0.10616682520E+03 -0.28845174761E+02 -0.34865894448E+03  0.37735567391E+03  0.93438783090E+02 0.  0.
          5    1    1    2  502    0  0.64070082908E+02  0.11759178842E+02 -0.39805252911E+03  0.40336899006E+03  0.41800000000E+01 0.  1.
         -5    1    1    2    0  502  0.42096742296E+02  0.17085995919E+02 -0.26331354331E+02  0.52677125865E+02  0.41800000000E+01 0.  1.
        -11    1    3    3    0    0 -0.76307376488E+02 -0.25526773920E+01 -0.31824882781E+03  0.32727915954E+03  0.00000000000E+00 0.  1.
         11    1    3    3    0    0 -0.29859448716E+02 -0.26292497369E+02 -0.30410116676E+02  0.50076514373E+02  0.00000000000E+00 0. -1.
</event>
<event>
 7    1  0.1758121E-005  0.1395705E+03  0.7561462E-02  0.1213908E+00
         -1   -1    0    0    0  501 -0.00000000000E+00  0.00000000000E+00  0.17778587327E+03  0.17778587327E+03  0.00000000000E+00 0.  1.
          1   -1    0    0  501    0  0.00000000000E+00 -0.00000000000E+00 -0.17379372838E+03  0.17379372838E+03  0.00000000000E+00 0. -1.
         23    2    1    2    0    0  0.97028457655E+02  0.24266965599E+02 -0.90143233554E+02  0.16580494719E+03  0.96757794231E+02 0.  0.
          5    1    1    2  502    0  0.26753895930E+02 -0.22065753197E+02  0.31179530166E+02  0.46822045160E+02  0.41800000000E+01 0. -1.
         -5    1    1    2    0  502 -0.12378235359E+03 -0.22012124021E+01  0.62955848279E+02  0.13895260929E+03  0.41800000000E+01 0. -1.
        -11    1    3    3    0    0  0.86868167700E+02  0.44569858213E+02 -0.30974932560E+02  0.10243045088E+03  0.00000000000E+00 0.  1.
         11    1    3    3    0    0  0.10160289955E+02 -0.20302892614E+02 -0.59168300993E+02  0.63374496313E+02  0.00000000000E+00 0. -1.
</event>
<event>
 7    1  0.1758121E-005  0.1229726E+03  0.7561462E-02  0.1238272E+00
         -1   -1    0    0    0  501 -0.00000000000E+00  0.00000000000E+00  0.90731728405E+02  0.90731728405E+02  0.00000000000E+00 0.  1.
          1   -1    0    0  501    0  0.00000000000E+00 -0.00000000000E+00 -0.17496313206E+03  0.17496313206E+03  0.00000000000E+00 0. -1.
         23    2    1    2    0    0  0.76723541669E+01  0.62303228382E+02 -0.52601587146E+02  0.12221030879E+03  0.90707636497E+02 0.  0.
          5    1    1    2  502    0 -0.28382916244E+02  0.29779234993E+02  0.60144524522E+01  0.41785629223E+02  0.41800000000E+01 0.  1.
         -5    1    1    2    0  502  0.20710562077E+02 -0.92082463374E+02 -0.37644268963E+02  0.10169892245E+03  0.41800000000E+01 0.  1.
        -11    1    3    3    0    0 -0.33635812947E+02 -0.19955578340E+01 -0.19446072482E+02  0.38903726026E+02  0.00000000000E+00 0.  1.
         11    1    3    3    0    0  0.41308167114E+02  0.64298786216E+02 -0.33155514663E+02  0.83306582763E+02  0.00000000000E+00 0. -1.
</event>
<event>
 7    1  0.1758121E-005  0.8628287E+02  0.7561462E-02  0.1312111E+00
          1   -1    0    0  501    0  0.00000000000E+00  0.00000000000E+00  0.44072840256E+03  0.44072840256E+03  0.00000000000E+00 0. -1.
         -1   -1    0    0    0  501 -0.00000000000E+00 -0.00000000000E+00 -0.65714303321E+02  0.65714303321E+02  0.00000000000E+00 0.  1.
         23    2    1    2    0    0  0.23620228918E+02  0.27322815414E+02  0.35665249462E+03  0.36991627775E+03  0.91283071636E+02 0.  0.
          5    1    1    2  502    0  0.11527619885E+02 -0.39511320242E+02  0.64798769258E+02  0.76879017585E+02  0.41800000000E+01 0. -1.
         -5    1    1    2    0  502 -0.35147848802E+02  0.12188504828E+02 -0.46437164640E+02  0.59647410549E+02  0.41800000000E+01 0.  1.
        -11    1    3    3    0    0  0.54488317248E+02  0.31963512431E+01  0.25917620286E+03  0.26486127974E+03  0.00000000000E+00 0. -1.
         11    1    3    3    0    0 -0.30868088330E+02  0.24126464171E+02  0.97476291766E+02  0.10505499801E+03  0.00000000000E+00 0.  1.
</event>
<event>
 7    1  0.1758121E-005  0.7766660E+02  0.7561462E-02  0.1335807E+00
          1   -1    0    0  501    0  0.00000000000E+00  0.00000000000E+00  0.39578522507E+03  0.39578522507E+03  0.00000000000E+00 0. -1.
         -1   -1    0    0    0  501 -0.00000000000E+00 -0.00000000000E+00 -0.37884247343E+02  0.37884247343E+02  0.00000000000E+00 0.  1.
         23    2    1    2    0    0 -0.48311635316E+02  0.15038413023E+02  0.20159582543E+03  0.22718066626E+03  0.91706108398E+02 0.  0.
          5    1    1    2  502    0  0.22552311944E+02  0.97870531053E+01 -0.16544466442E+02  0.29926325407E+02  0.41800000000E+01 0. -1.
         -5    1    1    2    0  502  0.25759323371E+02 -0.24825466128E+02  0.17284961874E+03  0.17656248075E+03  0.41800000000E+01 0. -1.
        -11    1    3    3    0    0 -0.68283469525E+02 -0.17216728281E+01  0.92343757475E+02  0.11486063691E+03  0.00000000000E+00 0.  1.
         11    1    3    3    0    0  0.19971834210E+02  0.16760085851E+02  0.10925206795E+03  0.11232002934E+03  0.00000000000E+00 0. -1.
</event>
<event>
 7    1  0.1758121E-005  0.1562651E+03  0.7561462E-02  0.1192979E+00
          1   -1    0    0  501    0  0.00000000000E+00  0.00000000000E+00  0.10695172318E+03  0.10695172318E+03  0.00000000000E+00 0. -1.
         -1   -1    0    0    0  501 -0.00000000000E+00 -0.00000000000E+00 -0.26273387025E+03  0.26273387025E+03  0.00000000000E+00 0.  1.
         23    2    1    2    0    0 -0.10784820134E+03 -0.70183266579E+02 -0.79508135618E+02  0.17469263785E+03  0.87401651305E+02 0.  0.
          5    1    1    2  502    0 -0.12591008152E+02 -0.16343190141E+02  0.10074198706E+02  0.23336564225E+02  0.41800000000E+01 0. -1.
         -5    1    1    2    0  502  0.12043920949E+03  0.86526456720E+02 -0.86348210152E+02  0.17165639135E+03  0.41800000000E+01 0. -1.
        -11    1    3    3    0    0 -0.60280972313E+01 -0.34817587943E+02 -0.52990675918E+02  0.63691554547E+02  0.00000000000E+00 0.  1.
         11    1    3    3    0    0 -0.10182010411E+03 -0.35365678636E+02 -0.26517459700E+02  0.11100108331E+03  0.00000000000E+00 0. -1.
</event>
<event>
 7    1  0.1758121E-005  0.1019184E+03  0.7561462E-02  0.1276313E+00
          1   -1    0    0  501    0  0.00000000000E+00  0.00000000000E+00  0.45495515801E+03  0.45495515801E+03  0.00000000000E+00 0. -1.
         -1   -1    0    0    0  501 -0.00000000000E+00 -0.00000000000E+00 -0.37353045261E+02  0.37353045261E+02  0.00000000000E+00 0.  1.
         23    2    1    2    0    0 -0.70308983387E+02  0.85967519641E+01  0.19910985533E+03  0.23076689076E+03  0.92689622358E+02 0.  0.
          5    1    1    2  502    0  0.75145543651E+02 -0.47371530336E+02  0.87410715189E+02  0.12469571022E+03  0.41800000000E+01 0.  1.
         -5    1    1    2    0  502 -0.48365602644E+01  0.38774778372E+02  0.13108154223E+03  0.13684560229E+03  0.41800000000E+01 0.  1.
        -11    1    3    3    0    0 -0.39855195368E+02  0.18007852409E+02  0.19352659508E+03  0.19840681024E+03  0.00000000000E+00 0. -1.
         11    1    3    3    0    0 -0.30453788019E+02 -0.94111004447E+01  0.55832602482E+01  0.32360080520E+02  0.00000000000E+00 0.  1.
</event>
<event>
 7    1  0.1758121E-005  0.1427891E+03  0.7561462E-02  0.1209625E+00
         -2   -1    0    0    0  501 -0.00000000000E+00  0.00000000000E+00  0.61077334037E+02  0.61077334037E+02  0.00000000000E+00 0.  1.
          2   -1    0    0  501    0  0.00000000000E+00 -0.00000000000E+00 -0.46812990104E+03  0.46812990104E+03  0.00000000000E+00 0. -1.
         23    2    1    2    0    0  0.46285993223E+02  0.10415529316E+03 -0.28415514679E+03  0.32006174066E+03  0.93298725198E+02 0.  0.
          5    1    1    2  502    0  0.26165107925E+02 -0.32791870199E+02  0.84304880208E+01  0.42993780389E+02  0.41800000000E+01 0.  1.
         -5    1    1    2    0  502 -0.72451101147E+02 -0.71363422962E+02 -0.13132790823E+03  0.16615171403E+03  0.41800000000E+01 0.  1.
        -11    1    3    3    0    0 -0.99815527272E+01  0.79638074031E+02 -0.20314978209E+03  0.21843005332E+03  0.00000000000E+00 0.  1.
         11    1    3    3    0    0  0.56267545950E+02  0.24517219130E+02 -0.81005364706E+02  0.10163168734E+03  0.00000000000E+00 0. -1.
</event>
<event>
 7    1  0.1758121E-005  0.1010396E+03  0.7561462E-02  0.1278125E+00
          1   -1    0    0  501    0  0.00000000000E+00  0.00000000000E+00  0.52290021127E+03  0.52290021127E+03  0.00000000000E+00 0. -1.
         -1   -1    0    0    0  501 -0.00000000000E+00 -0.00000000000E+00 -0.27784203695E+02  0.27784203695E+02  0.00000000000E+00 0.  1.
         23    2    1    2    0    0  0.32602193575E+02  0.37985014559E+02  0.25658931825E+03  0.27673332840E+03  0.90760632708E+02 0.  0.
          5    1    1    2  502    0  0.11583180652E+02 -0.53516207994E+02  0.35130465259E+02  0.65190310486E+02  0.41800000000E+01 0.  1.
         -5    1    1    2    0  502 -0.44185374226E+02  0.15531193434E+02  0.20339622407E+03  0.20876077608E+03  0.41800000000E+01 0.  1.
        -11    1    3    3    0    0 -0.10424547886E+02  0.53422746024E+02  0.10315883374E+03  0.11663792681E+03  0.00000000000E+00 0.  1.
         11    1    3    3    0    0  0.43026741460E+02 -0.15437731465E+02  0.15343048451E+03  0.16009540159E+03  0.00000000000E+00 0. -1.
</event>
<event>
 7    1  0.1758121E-005  0.8864433E+02  0.7561462E-02  0.1306168E+00
         -1   -1    0    0    0  501 -0.00000000000E+00  0.00000000000E+00  0.90676512387E+03  0.90676512387E+03  0.00000000000E+00 0.  1.
          1   -1    0    0  501    0  0.00000000000E+00 -0.00000000000E+00 -0.26342229204E+02  0.26342229204E+02  0.00000000000E+00 0. -1.
         23    2    1    2    0    0 -0.12375709866E+02  0.33096952999E+02  0.89131170409E+02  0.13294354060E+03  0.92092632469E+02 0.  0.
          5    1    1    2  502    0 -0.32062986313E+02 -0.29907155047E+02  0.65975761318E+03  0.66122617429E+03  0.41800000000E+01 0. -1.
         -5    1    1    2    0  502  0.44438696180E+02 -0.31897979516E+01  0.13153411107E+03  0.13893763819E+03  0.41800000000E+01 0.  1.
        -11    1    3    3    0    0  0.16916092903E+02  0.51293895402E+02  0.23701492496E+02  0.58982867437E+02  0.00000000000E+00 0. -1.
         11    1    3    3    0    0 -0.29291802769E+02 -0.18196942403E+02  0.65429677913E+02  0.73960673159E+02  0.00000000000E+00 0.  1.
</event>
<event>
 7    1  0.1758121E-005  0.1679941E+03  0.7561462E-02  0.1179956E+00
         -2   -1    0    0    0  501 -0.00000000000E+00  0.00000000000E+00  0.95475324613E+02  0.95475324613E+02  0.00000000000E+00 0.  1.
          2   -1    0    0  501    0  0.00000000000E+00 -0.00000000000E+00 -0.31324622085E+03  0.31324622085E+03  0.00000000000E+00 0. -1.
         23    2    1    2    0    0 -0.12065125369E+03 -0.56753742205E+02 -0.11916290342E+03  0.20099906543E+03  0.91777527092E+02 0.  0.
          5    1    1    2  502    0  0.39652918085E+02 -0.37566916648E+02 -0.49989127533E+02  0.74162068543E+02  0.41800000000E+01 0. -1.
         -5    1    1    2    0  502  0.80998335607E+02  0.94320658852E+02 -0.48618865285E+02  0.13356041150E+03  0.41800000000E+01 0. -1.
        -11    1    3    3    0    0 -0.30795148073E+02 -0.59406324178E+02 -0.76060242533E+02  0.10130455563E+03  0.00000000000E+00 0. -1.
         11    1    3    3    0    0 -0.89856105620E+02  0.26525819732E+01 -0.43102660890E+02  0.99694509799E+02  0.00000000000E+00 0.  1.
</event>
<event>
 7    1  0.1758121E-005  0.8729182E+02  0.7561462E-02  0.1309546E+00
         -4   -1    0    0    0  501 -0.00000000000E+00  0.00000000000E+00  0.63527665956E+02  0.63527665956E+02  0.00000000000E+00 0.  1.
          4   -1    0    0  501    0  0.00000000000E+00 -0.00000000000E+00 -0.30730860449E+03  0.30730860449E+03  0.00000000000E+00 0. -1.
         23    2    1    2    0    0 -0.41531854743E+02  0.60069722391E+02 -0.17383487471E+03  0.20998133738E+03  0.92413916041E+02 0.  0.
          5    1    1    2  502    0  0.95000557201E+01 -0.79382888880E+01 -0.94054595204E+02  0.94957921039E+02  0.41800000000E+01 0.  1.
         -5    1    1    2    0  502  0.32031799023E+02 -0.52131433503E+02  0.24108531382E+02  0.65897012019E+02  0.41800000000E+01 0.  1.
        -11    1    3    3    0    0 -0.23623515929E+02 -0.11598005112E+02 -0.65617025000E+01  0.27122687314E+02  0.00000000000E+00 0.  1.
         11    1    3    3    0    0 -0.17908338814E+02  0.71667727503E+02 -0.16727317221E+03  0.18285865007E+03  0.00000000000E+00 0. -1.
</event>
<event>
 7    1  0.1758121E-005  0.2217590E+03  0.7561462E-02  0.1132578E+00
          2   -1    0    0  501    0  0.00000000000E+00  0.00000000000E+00  0.13433110836E+04  0.13433110836E+04  0.00000000000E+00 0. -1.
         -2   -1    0    0    0  501 -0.00000000000E+00 -0.00000000000E+00 -0.37398240807E+02  0.37398240807E+02  0.00000000000E+00 0.  1.
         23    2    1    2    0    0 -0.19184571826E+03  0.31531353131E+02  0.68878808446E+03  0.72170325286E+03  0.92884627656E+02 0.  0.
          5    1    1    2  502    0  0.18057944149E+02 -0.52883506751E+02  0.15070867192E+03  0.16078970995E+03  0.41800000000E+01 0. -1.
         -5    1    1    2    0  502  0.17378777411E+03  0.21352153620E+02  0.46641608639E+03  0.49821636157E+03  0.41800000000E+01 0. -1.
        -11    1    3    3    0    0 -0.18494890501E+03  0.50859155634E+02  0.65139096049E+03  0.67904560567E+03  0.00000000000E+00 0. -1.
         11    1    3    3    0    0 -0.68968132507E+01 -0.19327802503E+02  0.37397123972E+02  0.42657647193E+02  0.00000000000E+00 0.  1.
</event>
<event>
 7    1  0.1758121E-005  0.8728735E+02  0.7561462E-02  0.1309557E+00
         -4   -1    0    0    0  501 -0.00000000000E+00  0.00000000000E+00  0.27869238156E+03  0.27869238156E+03  0.00000000000E+00 0.  1.
          4   -1    0    0  501    0  0.00000000000E+00 -0.00000000000E+00 -0.57160331954E+02  0.57160331954E+02  0.00000000000E+00 0. -1.
         23    2    1    2    0    0 -0.11436457704E+02 -0.26020352634E+02  0.91159650710E+01  0.87705954807E+02  0.82470493957E+02 0.  0.
          5    1    1    2  502    0  0.44886451557E+02  0.46257366370E+02  0.51823699999E+02  0.82811265891E+02  0.41800000000E+01 0.  1.
         -5    1    1    2    0  502 -0.33449993854E+02 -0.20237013736E+02  0.16059238453E+03  0.16533549281E+03  0.41800000000E+01 0.  1.
        -11    1    3    3    0    0 -0.13255573408E+02 -0.47394916036E+02 -0.18640835464E+02  0.52625745023E+02  0.00000000000E+00 0. -1.
         11    1    3    3    0    0  0.18191157045E+01  0.21374563402E+02  0.27756800535E+02  0.35080209784E+02  0.00000000000E+00 0.  1.
</event>
<event>
 7    1  0.1758121E-005  0.2794957E+03  0.7561462E-02  0.1095965E+00
         -2   -1    0    0    0  501 -0.00000000000E+00  0.00000000000E+00  0.39179967749E+03  0.39179967749E+03  0.00000000000E+00 0.  1.
          2   -1    0    0  501    0  0.00000000000E+00 -0.00000000000E+00 -0.30110270554E+03  0.30110270554E+03  0.00000000000E+00 0. -1.
         23    2    1    2    0    0 -0.27484468481E+03 -0.51476910443E+01 -0.13272986245E+03  0.31731594569E+03  0.86637714145E+02 0.  0.
          5    1    1    2  502    0  0.17003070876E+03  0.37000657711E+02  0.19688172334E+03  0.26279150667E+03  0.41800000000E+01 0.  1.
         -5    1    1    2    0  502  0.10481397605E+03 -0.31852966667E+02  0.26545111063E+02  0.11279493066E+03  0.41800000000E+01 0.  1.
        -11    1    3    3    0    0 -0.72626480656E+02  0.52740728957E+01 -0.79791437111E+02  0.10802358527E+03  0.00000000000E+00 0.  1.
         11    1    3    3    0    0 -0.20221820416E+03 -0.10421763940E+02 -0.52938425339E+02  0.20929236043E+03  0.00000000000E+00 0. -1.
</event>
<event>
 7    1  0.1758121E-005  0.1872118E+03  0.7561462E-02  0.1161000E+00
         -1   -1    0    0    0  501 -0.00000000000E+00  0.00000000000E+00  0.97335323340E+02  0.97335323340E+02  0.00000000000E+00 0.  1.
          1   -1    0    0  501    0  0.00000000000E+00 -0.00000000000E+00 -0.44828357501E+03  0.44828357501E+03  0.00000000000E+00 0. -1.
         23    2    1    2    0    0 -0.10699885684E+03  0.12795338833E+03 -0.24855403439E+03  0.31334065372E+03  0.92641417908E+02 0.  0.
          5    1    1    2  502    0  0.11027577054E+03 -0.69604361337E+02 -0.11315851345E+03  0.17270736595E+03  0.41800000000E+01 0. -1.
         -5    1    1    2    0  502 -0.32769136956E+01 -0.58349026997E+02  0.10764296172E+02  0.59570878682E+02  0.41800000000E+01 0. -1.
        -11    1    3    3    0    0 -0.73897881343E+02  0.13273233502E+03 -0.17014340599E+03  0.22809548051E+03  0.00000000000E+00 0.  1.
         11    1    3    3    0    0 -0.33100975501E+02 -0.47789466826E+01 -0.78410628400E+02  0.85245173216E+02  0.00000000000E+00 0. -1.
</event>
<event>
 7    1  0.1758121E-005  0.1174736E+03  0.7561462E-02  0.1247324E+00
         -2   -1    0    0    0  501 -0.00000000000E+00  0.00000000000E+00  0.33679352006E+03  0.33679352006E+03  0.00000000000E+00 0.  1.
          2   -1    0    0  501    0  0.00000000000E+00 -0.00000000000E+00 -0.42672343926E+02  0.42672343926E+02  0.00000000000E+00 0. -1.
         23    2    1    2    0    0  0.45205045170E+02  0.15076991156E+02  0.15292522435E+03  0.18490083136E+03  0.92365477454E+02 0.  0.
          5    1    1    2  502    0 -0.56762612094E+02  0.43209346828E+02  0.96573072475E+02  0.12013689072E+03  0.41800000000E+01 0. -1.
         -5    1    1    2    0  502  0.11557566925E+02 -0.58286337984E+02  0.44622879307E+02  0.74428141899E+02  0.41800000000E+01 0. -1.
        -11    1    3    3    0    0  0.28630862922E+02 -0.38419363319E+02  0.72041939394E+02  0.86520603449E+02  0.00000000000E+00 0.  1.
         11    1    3    3    0    0  0.16574182248E+02  0.53496354475E+02  0.80883284953E+02  0.98380227912E+02  0.00000000000E+00 0. -1.
</event>
<event>
 7    1  0.1758121E-005  0.1363650E+03  0.7561462E-02  0.1218306E+00
         -3   -1    0    0    0  501 -0.00000000000E+00  0.00000000000E+00  0.18266975905E+03  0.18266975905E+03  0.00000000000E+00 0.  1.
          3   -1    0    0  501    0  0.00000000000E+00 -0.00000000000E+00 -0.16843569587E+03  0.16843569587E+03  0.00000000000E+00 0. -1.
         23    2    1    2    0    0 -0.71966357236E+01  0.18770195337E+02 -0.90393545663E+02  0.13029502427E+03  0.91660724701E+02 0.  0.
          5    1    1    2  502    0 -0.86049089362E+00 -0.10609662231E+03  0.64880807697E+02  0.12443562721E+03  0.41800000000E+01 0. -1.
         -5    1    1    2    0  502  0.80571266173E+01  0.87326426974E+02  0.39746801146E+02  0.96374803443E+02  0.41800000000E+01 0.  1.
        -11    1    3    3    0    0  0.28655871544E+02  0.29698749536E+02 -0.11329057174E+02  0.42796287624E+02  0.00000000000E+00 0.  1.
         11    1    3    3    0    0 -0.35852507268E+02 -0.10928554199E+02 -0.79064488489E+02  0.87498736644E+02  0.00000000000E+00 0. -1.
</event>
<event>
 7    1  0.1758121E-005  0.8791823E+02  0.7561462E-02  0.1307973E+00
          2   -1    0    0  501    0  0.00000000000E+00  0.00000000000E+00  0.31695816222E+03  0.31695816222E+03  0.00000000000E+00 0. -1.
         -2   -1    0    0    0  501 -0.00000000000E+00 -0.00000000000E+00 -0.48100905643E+02  0.48100905643E+02  0.00000000000E+00 0.  1.
         23    2    1    2    0    0  0.50621193949E+02  0.90312258991E+00  0.16381731158E+03  0.19405527964E+03  0.90873643456E+02 0.  0.
          5    1    1    2  502    0 -0.35422999410E+02  0.24038828682E+02 -0.16398026268E+02  0.46032834337E+02  0.41800000000E+01 0.  1.
         -5    1    1    2    0  502 -0.15198194540E+02 -0.24941951272E+02  0.12143797126E+03  0.12497095389E+03  0.41800000000E+01 0.  1.
        -11    1    3    3    0    0 -0.25496049522E+02  0.83718263113E+01  0.53010332102E+02  0.59415749819E+02  0.00000000000E+00 0.  1.
         11    1    3    3    0    0  0.76117243471E+02 -0.74687037213E+01  0.11080697948E+03  0.13463952982E+03  0.00000000000E+00 0. -1.
</event>
<event>
 7    1  0.1758121E-005  0.6539789E+02  0.7561462E-02  0.1376481E+00
         -1   -1    0    0    0  501 -0.00000000000E+00  0.00000000000E+00  0.39771708572E+03  0.39771708572E+03  0.00000000000E+00 0.  1.
          1   -1    0    0  501    0  0.00000000000E+00 -0.00000000000E+00 -0.33384805245E+02  0.33384805245E+02  0.00000000000E+00 0. -1.
         23    2    1    2    0    0  0.23198134194E+02  0.89551154763E+01  0.84128893337E+02  0.12323804431E+03  0.86554014053E+02 0.  0.
          5    1    1    2  502    0  0.65139694125E+01  0.31482666264E+02  0.24326132259E+03  0.24541217073E+03  0.41800000000E+01 0. -1.
         -5    1    1    2    0  502 -0.29712103607E+02 -0.40437781741E+02  0.36942064548E+02  0.62451675926E+02  0.41800000000E+01 0. -1.
        -11    1    3    3    0    0  0.35930142654E+01 -0.15936635440E+02  0.89605800650E+02  0.91082850256E+02  0.00000000000E+00 0.  1.
         11    1    3    3    0    0  0.19605119929E+02  0.24891750917E+02 -0.54769073127E+01  0.32155194057E+02  0.00000000000E+00 0. -1.
</event>
<event>
 7    1  0.1758121E-005  0.2249650E+03  0.7561462E-02  0.1130235E+00
         -1   -1    0    0    0  501 -0.00000000000E+00  0.00000000000E+00  0.13320433537E+03  0.13320433537E+03  0.00000000000E+00 0.  1.
          1   -1    0    0  501    0  0.00000000000E+00 -0.00000000000E+00 -0.46340391529E+03  0.46340391529E+03  0.00000000000E+00 0. -1.
         23    2    1    2    0    0  0.25101132621E+02 -0.21239440923E+03 -0.23194790505E+03  0.33007232733E+03  0.96986899517E+02 0.  0.
          5    1    1    2  502    0  0.37382903865E+02  0.76808193389E+02  0.38665958425E+01  0.85611932792E+02  0.41800000000E+01 0.  1.
         -5    1    1    2    0  502 -0.62484036486E+02  0.13558621584E+03 -0.10211827071E+03  0.18092399054E+03  0.41800000000E+01 0.  1.
        -11    1    3    3    0    0  0.31714088953E+01 -0.12193049552E+03 -0.19483048515E+03  0.22986087426E+03  0.00000000000E+00 0. -1.
         11    1    3    3    0    0  0.21929723726E+02 -0.90463913704E+02 -0.37117419909E+02  0.10021145307E+03  0.00000000000E+00 0.  1.
</event>
<event>
 7    1  0.1758121E-005  0.8738138E+02  0.7561462E-02  0.1309320E+00
          2   -1    0    0  501    0  0.00000000000E+00  0.00000000000E+00  0.23282386986E+02  0.23282386986E+02  0.00000000000E+00 0.  1.
         -2   -1    0    0    0  501 -0.00000000000E+00 -0.00000000000E+00 -0.55211307666E+03  0.55211307666E+03  0.00000000000E+00 0. -1.
         23    2    1    2    0    0 -0.10232835418E+02  0.27466354568E+02 -0.17043274967E+03  0.19468506372E+03  0.89419462760E+02 0.  0.
          5    1    1    2  502    0  0.30352157192E+02  0.34699746276E+02 -0.63203859385E+02  0.78342364522E+02  0.41800000000E+01 0. -1.
         -5    1    1    2    0  502 -0.20119321774E+02 -0.62166100844E+02 -0.29519408062E+03  0.30236803541E+03  0.41800000000E+01 0. -1.
        -11    1    3    3    0    0 -0.32679075332E+02  0.89026638232E+01 -0.16030880530E+03  0.16384777217E+03  0.00000000000E+00 0. -1.
         11    1    3    3    0    0  0.22446239914E+02  0.18563690745E+02 -0.10123944368E+02  0.30837291546E+02  0.00000000000E+00 0.  1.
</event>
<event>
 7    1  0.1758121E-005  0.1163438E+03  0.7561462E-02  0.1249253E+00
          1   -1    0    0  501    0  0.00000000000E+00  0.00000000000E+00  0.32001803217E+03  0.32001803217E+03  0.00000000000E+00 0. -1.
         -1   -1    0    0    0  501 -0.00000000000E+00 -0.00000000000E+00 -0.98920407456E+02  0.98920407456E+02  0.00000000000E+00 0.  1.
         23    2    1    2    0    0  0.42123572448E+02  0.78066735616E+02  0.23295676945E+03  0.26512971774E+03  0.90311130158E+02 0.  0.
          5    1    1    2  502    0 -0.15839551955E+02  0.28621804297E+02 -0.27248359546E+02  0.42779020387E+02  0.41800000000E+01 0.  1.
         -5    1    1    2    0  502 -0.26284020493E+02 -0.10668853991E+03  0.15389214807E+02  0.11102970150E+03  0.41800000000E+01 0.  1.
        -11    1    3    3    0    0  0.27262913339E+02  0.36147802543E+02  0.23516213449E+02  0.51019039264E+02  0.00000000000E+00 0.  1.
         11    1    3    3    0    0  0.14860659108E+02  0.41918933073E+02  0.20944055600E+03  0.21411067847E+03  0.00000000000E+00 0. -1.
</event>
<event>
 7    1  0.1758121E-005  0.1356017E+03  0.7561462E-02  0.1219373E+00
          2   -1    0    0  501    0  0.00000000000E+00  0.00000000000E+00  0.32686634306E+02  0.32686634306E+02  0.00000000000E+00 0.  1.
         -2   -1    0    0    0  501 -0.00000000000E+00 -0.00000000000E+00 -0.60009042451E+03  0.60009042451E+03  0.00000000000E+00 0. -1.
         23    2    1    2    0    0  0.83403773446E+02  0.26104132165E+02 -0.19174602079E+03  0.22730533783E+03  0.85226550891E+02 0.  0.
          5    1    1    2  502    0 -0.73740863749E+02  0.40912003822E+02 -0.19487307769E+03  0.21237819062E+03  0.41800000000E+01 0. -1.
         -5    1    1    2    0  502 -0.96629096974E+01 -0.67016135987E+02 -0.18078469172E+03  0.19309353036E+03  0.41800000000E+01 0. -1.
        -11    1    3    3    0    0  0.91545423388E+02  0.42268961828E+02 -0.17800777212E+03  0.20458249342E+03  0.00000000000E+00 0. -1.
         11    1    3    3    0    0 -0.81416499422E+01 -0.16164829663E+02 -0.13738248672E+02  0.22722844417E+02  0.00000000000E+00 0.  1.
</event>
<event>
 7    1  0.1758121E-005  0.1008220E+03  0.7561462E-02  0.1278577E+00
          1   -1    0    0  501    0  0.00000000000E+00  0.00000000000E+00  0.78280304263E+02  0.78280304263E+02  0.00000000000E+00 0. -1.
         -1   -1    0    0    0  501 -0.00000000000E+00 -0.00000000000E+00 -0.23457284954E+03  0.23457284954E+03  0.00000000000E+00 0.  1.
         23    2    1    2    0    0 -0.50514148030E+02 -0.47527164894E+02 -0.24946049753E+02  0.11866435353E+03  0.92996843201E+02 0.  0.
          5    1    1    2  502    0 -0.20890116023E+00  0.62149577409E+02 -0.12651097484E+03  0.14101458353E+03  0.41800000000E+01 0.  1.
         -5    1    1    2    0  502  0.50723049190E+02 -0.14622412515E+02 -0.48355206825E+01  0.53174216752E+02  0.41800000000E+01 0.  1.
        -11    1    3    3    0    0 -0.35533507995E+02  0.10663061862E+01 -0.50497325668E+02  0.61755543062E+02  0.00000000000E+00 0.  1.
         11    1    3    3    0    0 -0.14980640035E+02 -0.48593471080E+02  0.25551275915E+02  0.56908810463E+02  0.00000000000E+00 0. -1.
</event>
<event>
 7    1  0.1758121E-005  0.1134947E+03  0.7561462E-02  0.1254232E+00
          2   -1    0    0  501    0  0.00000000000E+00  0.00000000000E+00  0.64028935678E+02  0.64028935678E+02  0.00000000000E+00 0. -1.
         -2   -1    0    0    0  501 -0.00000000000E+00 -0.00000000000E+00 -0.54690620997E+03  0.54690620997E+03  0.00000000000E+00 0.  1.
         23    2    1    2    0    0 -0.99364189149E+02  0.35073902108E+02 -0.46755563955E+02  0.14515313056E+03  0.88203899330E+02 0.  0.
          5    1    1    2  502    0  0.10411197028E+03 -0.21233977976E+02 -0.43774776974E+03  0.45047837516E+03  0.41800000000E+01 0.  1.
         -5    1    1    2    0  502 -0.47477811320E+01 -0.13839924132E+02  0.16260594054E+01  0.15303639922E+02  0.41800000000E+01 0.  1.
        -11    1    3    3    0    0 -0.44903456246E+02  0.17761544321E+02  0.24227248532E+02  0.54025479275E+02  0.00000000000E+00 0. -1.
         11    1    3    3    0    0 -0.54460732903E+02  0.17312357788E+02 -0.70982812488E+02  0.91127651287E+02  0.00000000000E+00 0.  1.
</event>
<event>
 7    1  0.1758121E-005  0.2957233E+03  0.7561462E-02  0.1087398E+00
          1   -1    0    0  501    0  0.00000000000E+00  0.00000000000E+00  0.74494220250E+03  0.74494220250E+03  0.00000000000E+00 0. -1.
         -1   -1    0    0    0  501 -0.00000000000E+00 -0.00000000000E+00 -0.19046606840E+03  0.19046606840E+03  0.00000000000E+00 0.  1.
         23    2    1    2    0    0 -0.18747658623E+03  0.21126285773E+03  0.55131268432E+03  0.62648073027E+03  0.93557276965E+02 0.  0.
          5    1    1    2  502    0 -0.63846763212E+00  0.14417409628E+02 -0.11142131623E+01  0.15065962042E+02  0.41800000000E+01 0. -1.
         -5    1    1    2    0  502  0.18811505386E+03 -0.22568026736E+03  0.42776629448E+01  0.29386157858E+03  0.41800000000E+01 0. -1.
        -11    1    3    3    0    0 -0.12813930933E+03  0.15051318838E+03  0.46560205425E+03  0.50582524195E+03  0.00000000000E+00 0.  1.
         11    1    3    3    0    0 -0.59337276894E+02  0.60749669354E+02  0.85710630069E+02  0.12065548832E+03  0.00000000000E+00 0. -1.
</event>
<event>
 7    1  0.1758121E-005  0.1090446E+03  0.7561462E-02  0.1262349E+00
          1   -1    0    0  501    0  0.00000000000E+00  0.00000000000E+00  0.21629469773E+03  0.21629469773E+03  0.00000000000E+00 0. -1.
         -1   -1    0    0    0  501 -0.00000000000E+00 -0.00000000000E+00 -0.84031712069E+02  0.84031712069E+02  0.00000000000E+00 0.  1.
         23    2    1    2    0    0  0.59647055369E+02 -0.49433852022E+02  0.75948872661E+02  0.14278595914E+03  0.92833840426E+02 0.  0.
          5    1    1    2  502    0 -0.42380997493E+02 -0.74959232162E+01  0.81925123626E+02  0.92636580758E+02  0.41800000000E+01 0.  1.
         -5    1    1    2    0  502 -0.17266057876E+02  0.56929775238E+02 -0.25611010626E+02  0.64903869904E+02  0.41800000000E+01 0.  1.
        -11    1    3    3    0    0  0.33916362781E+02 -0.72889211479E+02  0.31548454667E+02  0.86362386524E+02  0.00000000000E+00 0.  1.
         11    1    3    3    0    0  0.25730692588E+02  0.23455359457E+02  0.44400417993E+02  0.56423572612E+02  0.00000000000E+00 0. -1.
</event>
<event>
 7    1  0.1758121E-005  0.1242202E+03  0.7561462E-02  0.1236293E+00
          2   -1    0    0  501    0  0.00000000000E+00  0.00000000000E+00  0.15624137211E+04  0.15624137211E+04  0.00000000000E+00 0. -1.
         -2   -1    0    0    0  501 -0.00000000000E+00 -0.00000000000E+00 -0.13577799599E+02  0.13577799599E+02  0.00000000000E+00 0.  1.
         23    2    1    2    0    0  0.44096851367E+02 -0.86873079576E+02  0.70796094171E+03  0.72030177545E+03  0.90191399102E+02 0.  0.
          5    1    1    2  502    0 -0.25601454503E+02  0.92456405688E+02  0.31194473778E+03  0.32639027751E+03  0.41800000000E+01 0.  1.
         -5    1    1    2    0  502 -0.18495396864E+02 -0.55833261116E+01  0.52893024199E+03  0.52929946772E+03  0.41800000000E+01 0.  1.
        -11    1    3    3    0    0  0.68643731051E+02 -0.39257636916E+02  0.40717228817E+03  0.41477993698E+03  0.00000000000E+00 0.  1.
         11    1    3    3    0    0 -0.24546879683E+02 -0.47615442660E+02  0.30078865354E+03  0.30552183847E+03  0.00000000000E+00 0. -1.
</event>
<event>
 7    1  0.1758121E-005  0.2656002E+03  0.7561462E-02  0.1103824E+00
          1   -1    0    0  501    0  0.00000000000E+00  0.00000000000E+00  0.19611478863E+03  0.19611478863E+03  0.00000000000E+00 0. -1.
         -1   -1    0    0    0  501 -0.00000000000E+00 -0.00000000000E+00 -0.57664805462E+03  0.57664805462E+03  0.00000000000E+00 0.  1.
         23    2    1    2    0    0  0.21787143467E+03 -0.13760316647E+03  0.26462080051E+02  0.27507308848E+03  0.92533069006E+02 0.  0.
          5    1    1    2  502    0 -0.40514023815E+02 -0.44506897959E+01 -0.14585791019E+03  0.15150312581E+03  0.41800000000E+01 0. -1.
         -5    1    1    2    0  502 -0.17735741086E+03  0.14205385626E+03 -0.26113743584E+03  0.34618662895E+03  0.41800000000E+01 0. -1.
        -11    1    3    3    0    0  0.93977403199E+02 -0.90330215809E+02 -0.25189692783E+02  0.13276227183E+03  0.00000000000E+00 0. -1.
         11    1    3    3    0    0  0.12389403147E+03 -0.47272950657E+02  0.51651772834E+02  0.14231081665E+03  0.00000000000E+00 0.  1.
</event>
<event>
 7    1  0.1758121E-005  0.1180171E+03  0.7561462E-02  0.1246405E+00
          1   -1    0    0  501    0  0.00000000000E+00  0.00000000000E+00  0.23309012625E+03  0.23309012625E+03  0.00000000000E+00 0. -1.
         -1   -1    0    0    0  501 -0.00000000000E+00 -0.00000000000E+00 -0.75399308235E+02  0.75399308235E+02  0.00000000000E+00 0.  1.
         23    2    1    2    0    0  0.22738108247E+02 -0.26436153571E+02  0.11260232547E+03  0.14983082781E+03  0.92488385634E+02 0.  0.
          5    1    1    2  502    0  0.26017626912E+02 -0.44349975419E+02  0.50818339980E+02  0.72414178917E+02  0.41800000000E+01 0. -1.
         -5    1    1    2    0  502 -0.48755735159E+02  0.70786128991E+02 -0.57298474367E+01  0.86244427762E+02  0.41800000000E+01 0.  1.
        -11    1    3    3    0    0 -0.77019799091E+01 -0.55662699521E+02  0.71310656098E+02  0.90790232325E+02  0.00000000000E+00 0. -1.
         11    1    3    3    0    0  0.30440088156E+02  0.29226545950E+02  0.41291669375E+02  0.59040595482E+02  0.00000000000E+00 0.  1.
</event>
<event>
 7    1  0.1758121E-005  0.2033153E+03  0.7561462E-02  0.1146972E+00
          2   -1    0    0  501    0  0.00000000000E+00  0.00000000000E+00  0.66729430844E+02  0.66729430844E+02  0.00000000000E+00 0. -1.
         -2   -1    0    0    0  501 -0.00000000000E+00 -0.00000000000E+00 -0.70845568437E+03  0.70845568437E+03  0.00000000000E+00 0.  1.
         23    2    1    2    0    0 -0.15776498841E+03 -0.10231478109E+03 -0.29093222921E+03  0.35797911149E+03  0.90273895852E+02 0.  0.
          5    1    1    2  502    0  0.15830885915E+03  0.12086253993E+03 -0.27827275727E+03  0.34223186333E+03  0.41800000000E+01 0. -1.
         -5    1    1    2    0  502 -0.54387074235E+00 -0.18547758833E+02 -0.72521267048E+02  0.74974140391E+02  0.41800000000E+01 0. -1.
        -11    1    3    3    0    0 -0.81572176195E+02 -0.59788515710E+02 -0.77554520950E+02  0.12744955967E+03  0.00000000000E+00 0. -1.
         11    1    3    3    0    0 -0.76192812211E+02 -0.42526265384E+02 -0.21337770826E+03  0.23052955182E+03  0.00000000000E+00 0.  1.
</event>
<event>
 7    1  0.1758121E-005  0.1182717E+03  0.7561462E-02  0.1245976E+00
         -2   -1    0    0    0  501 -0.00000000000E+00  0.00000000000E+00  0.18978896607E+03  0.18978896607E+03  0.00000000000E+00 0.  1.
          2   -1    0    0  501    0  0.00000000000E+00 -0.00000000000E+00 -0.14662584728E+03  0.14662584728E+03  0.00000000000E+00 0. -1.
         23    2    1    2    0    0  0.96035849811E+01 -0.65540216304E+02 -0.88343070634E+02  0.14321140272E+03  0.91199007359E+02 0.  0.
          5    1    1    2  502    0  0.47100044665E+02 -0.86181435825E+01  0.46553616745E+02  0.66913363675E+02  0.41800000000E+01 0.  1.
         -5    1    1    2    0  502 -0.56703629646E+02  0.74158359886E+02  0.84952572675E+02  0.12629004696E+03  0.41800000000E+01 0.  1.
        -11    1    3    3    0    0 -0.28630688914E+02 -0.17200898058E+02  0.24339225759E+01  0.33488971630E+02  0.00000000000E+00 0.  1.
         11    1    3    3    0    0  0.38234273896E+02 -0.48339318246E+02 -0.90776993210E+02  0.10972243109E+03  0.00000000000E+00 0. -1.
</event>
<event>
 7    1  0.1758121E-005  0.9259862E+02  0.7561462E-02  0.1296678E+00
          2   -1    0    0  501    0  0.00000000000E+00  0.00000000000E+00  0.37612459416E+03  0.37612459416E+03  0.00000000000E+00 0. -1.
         -2   -1    0    0    0  501 -0.00000000000E+00 -0.00000000000E+00 -0.35670182537E+02  0.35670182537E+02  0.00000000000E+00 0.  1.
         23    2    1    2    0    0 -0.19977551791E+02  0.23136495601E+02  0.18374596567E+03  0.20898969376E+03  0.94761343352E+02 0.  0.
          5    1    1    2  502    0  0.31985533332E+02  0.21818641940E+02 -0.35032664500E+00  0.38945123025E+02  0.41800000000E+01 0.  1.
         -5    1    1    2    0  502 -0.12007981541E+02 -0.44955137541E+02  0.15705877260E+03  0.16385995991E+03  0.41800000000E+01 0.  1.
        -11    1    3    3    0    0  0.38379667158E+02  0.11058900654E+02  0.71047377142E+02  0.81504772459E+02  0.00000000000E+00 0.  1.
         11    1    3    3    0    0 -0.58357218949E+02  0.12077594947E+02  0.11269858852E+03  0.12748492130E+03  0.00000000000E+00 0. -1.
</event>
<event>
 7    1  0.1758121E-005  0.1094896E+03  0.7561462E-02  0.1261518E+00
          1   -1    0    0  501    0  0.00000000000E+00  0.00000000000E+00  0.10350036146E+03  0.10350036146E+03  0.00000000000E+00 0.  1.
         -1   -1    0    0    0  501 -0.00000000000E+00 -0.00000000000E+00 -0.13613021587E+03  0.13613021587E+03  0.00000000000E+00 0. -1.
         23    2    1    2    0    0  0.30781385375E+02  0.19851288648E+02 -0.26196281817E+02  0.10913086102E+03  0.99406902680E+02 0.  0.
          5    1    1    2  502    0  0.45886356655E+02 -0.10838894170E+01  0.15234327004E+02  0.48541628141E+02  0.41800000000E+01 0.  1.
         -5    1    1    2    0  502 -0.76667742031E+02 -0.18767399231E+02 -0.21667899606E+02  0.81958088163E+02  0.41800000000E+01 0.  1.
        -11    1    3    3    0    0  0.55186657596E+02 -0.91548087393E+01  0.98728832207E+01  0.56805382868E+02  0.00000000000E+00 0. -1.
         11    1    3    3    0    0 -0.24405272221E+02  0.29006097387E+02 -0.36069165037E+02  0.52325478156E+02  0.00000000000E+00 0.  1.
</event>
<event>
 7    1  0.1758121E-005  0.5683954E+02  0.7561462E-02  0.1411595E+00
          1   -1    0    0  501    0  0.00000000000E+00  0.00000000000E+00  0.12407279509E+03  0.12407279509E+03  0.00000000000E+00 0. -1.
         -1   -1    0    0    0  501 -0.00000000000E+00 -0.00000000000E+00 -0.11875624446E+03  0.11875624446E+03  0.00000000000E+00 0.  1.
         23    2    1    2    0    0  0.19163910040E+02 -0.49964107305E+02  0.47604001264E+02  0.10047350540E+03  0.70463585525E+02 0.  0.
          5    1    1    2  502    0 -0.24703337803E+02  0.30361175583E+02 -0.85651036000E+02  0.94263610419E+02  0.41800000000E+01 0.  1.
         -5    1    1    2    0  502  0.55394277625E+01  0.19602931722E+02  0.43363585364E+02  0.48091923726E+02  0.41800000000E+01 0.  1.
        -11    1    3    3    0    0  0.60121242472E+01 -0.16796168860E+02 -0.18283698379E+02  0.25545069050E+02  0.00000000000E+00 0.  1.
         11    1    3    3    0    0  0.13151785793E+02 -0.33167938445E+02  0.65887699643E+02  0.74928436354E+02  0.00000000000E+00 0. -1.
</event>
<event>
 7    1  0.1758121E-005  0.1540193E+03  0.7561462E-02  0.1195619E+00
         -1   -1    0    0    0  501 -0.00000000000E+00  0.00000000000E+00  0.14185477385E+03  0.14185477385E+03  0.00000000000E+00 0.  1.
          1   -1    0    0  501    0  0.00000000000E+00 -0.00000000000E+00 -0.20634065326E+03  0.20634065326E+03  0.00000000000E+00 0. -1.
         23    2    1    2    0    0 -0.58642782948E+01 -0.10917737400E+03 -0.10530531489E+03  0.17711376737E+03  0.91246854711E+02 0.  0.
          5    1    1    2  502    0 -0.54492005565E+02  0.19836047797E+02  0.11455957642E+02  0.59258407237E+02  0.41800000000E+01 0. -1.
         -5    1    1    2    0  502  0.60356283860E+02  0.89341326205E+02  0.29363477842E+02  0.11182325250E+03  0.41800000000E+01 0. -1.
        -11    1    3    3    0    0  0.14057039253E+02 -0.11897235260E+03 -0.93519600782E+02  0.15198005385E+03  0.00000000000E+00 0.  1.
         11    1    3    3    0    0 -0.19921317548E+02  0.97949786003E+01 -0.11785714107E+02  0.25133713526E+02  0.00000000000E+00 0. -1.
</event>
<event>
 7    1  0.1758121E-005  0.1188960E+03  0.7561462E-02  0.1244930E+00
          2   -1    0    0  501    0  0.00000000000E+00  0.00000000000E+00  0.43511302194E+03  0.43511302194E+03  0.00000000000E+00 0. -1.
         -2   -1    0    0    0  501 -0.00000000000E+00 -0.00000000000E+00 -0.46367305118E+02  0.46367305118E+02  0.00000000000E+00 0.  1.
         23    2    1    2    0    0 -0.86715632000E+01  0.60357616906E+02  0.29573356722E+03  0.31546579886E+03  0.91335040071E+02 0.  0.
          5    1    1    2  502    0  0.60860786183E+02 -0.36585456621E+02  0.80016596121E+02  0.10706380801E+03  0.41800000000E+01 0. -1.
         -5    1    1    2    0  502 -0.52189222982E+02 -0.23772160285E+02  0.12995553484E+02  0.58950720186E+02  0.41800000000E+01 0.  1.
        -11    1    3    3    0    0 -0.38515504937E+02 -0.34963187113E+01  0.12184216306E+03  0.12783262910E+03  0.00000000000E+00 0.  1.
         11    1    3    3    0    0  0.29843941737E+02  0.63853935618E+02  0.17389140416E+03  0.18763316976E+03  0.00000000000E+00 0. -1.
</event>
<event>
 7    1  0.1758121E-005  0.2641634E+03  0.7561462E-02  0.1104667E+00
         -1   -1    0    0    0  501 -0.00000000000E+00  0.00000000000E+00  0.49051031048E+03  0.49051031048E+03  0.00000000000E+00 0.  1.
          1   -1    0    0  501    0  0.00000000000E+00 -0.00000000000E+00 -0.15767045270E+03  0.15767045270E+03  0.00000000000E+00 0. -1.
         23    2    1    2    0    0 -0.12453754139E+03 -0.22163253663E+03  0.12894564835E+03  0.29910935705E+03  0.90602686148E+02 0.  0.
          5    1    1    2  502    0  0.45423447799E+02  0.16951873666E+03  0.17967783618E+03  0.25120009734E+03  0.41800000000E+01 0. -1.
         -5    1    1    2    0  502  0.79114093590E+02  0.52113799974E+02  0.24216373252E+02  0.97871308798E+02  0.41800000000E+01 0. -1.
        -11    1    3    3    0    0 -0.35356705251E+02 -0.10713997646E+03  0.13425831757E+02  0.11361920665E+03  0.00000000000E+00 0. -1.
         11    1    3    3    0    0 -0.89180836138E+02 -0.11449256018E+03  0.11551981659E+03  0.18549015040E+03  0.00000000000E+00 0.  1.
</event>
<event>
 7    1  0.1758121E-005  0.1030404E+03  0.7561462E-02  0.1274029E+00
         -1   -1    0    0    0  501 -0.00000000000E+00  0.00000000000E+00  0.11490241846E+03  0.11490241846E+03  0.00000000000E+00 0.  1.
          1   -1    0    0  501    0  0.00000000000E+00 -0.00000000000E+00 -0.11682407417E+03  0.11682407417E+03  0.00000000000E+00 0. -1.
         23    2    1    2    0    0 -0.34202780580E+01 -0.11586653270E+02 -0.39924175546E+02  0.10043063280E+03  0.91358761896E+02 0.  0.
          5    1    1    2  502    0 -0.54985030123E+02 -0.14815304475E+02  0.87527337640E+00  0.57105912897E+02  0.41800000000E+01 0. -1.
         -5    1    1    2    0  502  0.58405308181E+02  0.26401957745E+02  0.37127246455E+02  0.74189946932E+02  0.41800000000E+01 0. -1.
        -11    1    3    3    0    0 -0.40253611445E+02  0.10761091090E+02  0.38614068648E-01  0.41667203012E+02  0.00000000000E+00 0.  1.
         11    1    3    3    0    0  0.36833333387E+02 -0.22347744360E+02 -0.39962789614E+02  0.58763429785E+02  0.00000000000E+00 0. -1.
</event>
<event>
 7    1  0.1758121E-005  0.1637215E+03  0.7561462E-02  0.1184558E+00
          2   -1    0    0  501    0  0.00000000000E+00  0.00000000000E+00  0.15650444329E+04  0.15650444329E+04  0.00000000000E+00 0. -1.
         -2   -1    0    0    0  501 -0.00000000000E+00 -0.00000000000E+00 -0.19015591045E+02  0.19015591045E+02  0.00000000000E+00 0.  1.
         23    2    1    2    0    0 -0.29429872674E+02  0.12861637570E+03  0.79618448412E+03  0.81218871423E+03  0.91282447743E+02 0.  0.
          5    1    1    2  502    0  0.57202680692E+02 -0.25447882574E+02  0.43178900371E+03  0.43632437192E+03  0.41800000000E+01 0. -1.
         -5    1    1    2    0  502 -0.27772808018E+02 -0.10316849312E+03  0.31805535399E+03  0.33554693776E+03  0.41800000000E+01 0. -1.
        -11    1    3    3    0    0 -0.31038423276E+02  0.19536615769E+01  0.10567031228E+03  0.11015178351E+03  0.00000000000E+00 0.  1.
         11    1    3    3    0    0  0.16085506020E+01  0.12666271412E+03  0.69051417184E+03  0.70203693072E+03  0.00000000000E+00 0. -1.
</event>
<event>
 7    1  0.1758121E-005  0.1215878E+03  0.7561462E-02  0.1240500E+00
          1   -1    0    0  501    0  0.00000000000E+00  0.00000000000E+00  0.54999777533E+03  0.54999777533E+03  0.00000000000E+00 0. -1.
         -1   -1    0    0    0  501 -0.00000000000E+00 -0.00000000000E+00 -0.45531249245E+02  0.45531249245E+02  0.00000000000E+00 0.  1.
         23    2    1    2    0    0  0.69779560251E+02  0.96628753245E+01  0.40437104064E+03  0.42051451403E+03  0.91399998957E+02 0.  0.
          5    1    1    2  502    0  0.15756488231E+02  0.40395927551E+02  0.22213243935E+02  0.48897837275E+02  0.41800000000E+01 0.  1.
         -5    1    1    2    0  502 -0.85536048482E+02 -0.50058802875E+02  0.77882241510E+02  0.12611667327E+03  0.41800000000E+01 0.  1.
        -11    1    3    3    0    0  0.78326686937E+02 -0.10015606443E+02  0.37968036498E+03  0.38780479859E+03  0.00000000000E+00 0.  1.
         11    1    3    3    0    0 -0.85471266858E+01  0.19678481767E+02  0.24690675661E+02  0.32709715435E+02  0.00000000000E+00 0. -1.
</event>
<event>
 7    1  0.1758121E-005  0.1853533E+03  0.7561462E-02  0.1162720E+00
         -2   -1    0    0    0  501 -0.00000000000E+00  0.00000000000E+00  0.70834068581E+03  0.70834068581E+03  0.00000000000E+00 0.  1.
          2   -1    0    0  501    0  0.00000000000E+00 -0.00000000000E+00 -0.72457657139E+02  0.72457657139E+02  0.00000000000E+00 0. -1.
         23    2    1    2    0    0  0.10777492913E+03  0.11785226507E+03  0.10340455589E+03  0.21098655185E+03  0.91204337365E+02 0.  0.
          5    1    1    2  502    0 -0.13455850072E+03 -0.10324690363E+03  0.41439579118E+03  0.44778036733E+03  0.41800000000E+01 0.  1.
         -5    1    1    2    0  502  0.26783571584E+02 -0.14605361441E+02  0.11808268160E+03  0.12203142376E+03  0.41800000000E+01 0.  1.
        -11    1    3    3    0    0  0.73241124307E+02  0.11401344815E+03  0.11129369799E+03  0.17535568386E+03  0.00000000000E+00 0.  1.
         11    1    3    3    0    0  0.34533804825E+02  0.38388169194E+01 -0.78891421049E+01  0.35630867997E+02  0.00000000000E+00 0. -1.
</event>
<event>
 7    1  0.1758121E-005  0.1071501E+03  0.7561462E-02  0.1265940E+00
         -1   -1    0    0    0  501 -0.00000000000E+00  0.00000000000E+00  0.21124144429E+03  0.21124144429E+03  0.00000000000E+00 0.  1.
          1   -1    0    0  501    0  0.00000000000E+00 -0.00000000000E+00 -0.11584588631E+03  0.11584588631E+03  0.00000000000E+00 0. -1.
         23    2    1    2    0    0  0.58934270255E+02 -0.47023009482E+02 -0.43862831266E+02  0.12528326494E+03  0.89930733771E+02 0.  0.
          5    1    1    2  502    0  0.31898826685E+01 -0.20289794751E+02 -0.12566189983E+02  0.24438343912E+02  0.41800000000E+01 0. -1.
         -5    1    1    2    0  502 -0.62124152924E+02  0.67312804233E+02  0.15182457923E+03  0.17736572174E+03  0.41800000000E+01 0. -1.
        -11    1    3    3    0    0  0.44788717560E+01 -0.46977048445E+02  0.10492422079E+02  0.48342468843E+02  0.00000000000E+00 0.  1.
         11    1    3    3    0    0  0.54455398499E+02 -0.45961037099E-01 -0.54355253345E+02  0.76940796099E+02  0.00000000000E+00 0. -1.
</event>
<event>
 7    1  0.1758121E-005  0.1021252E+03  0.7561462E-02  0.1275889E+00
         -1   -1    0    0    0  501 -0.00000000000E+00  0.00000000000E+00  0.45785151289E+03  0.45785151289E+03  0.00000000000E+00 0.  1.
          1   -1    0    0  501    0  0.00000000000E+00 -0.00000000000E+00 -0.74844683355E+02  0.74844683355E+02  0.00000000000E+00 0. -1.
         23    2    1    2    0    0 -0.30597550926E+02  0.23690927638E+02 -0.26869407862E+02  0.10241315083E+03  0.90934142152E+02 0.  0.
          5    1    1    2  502    0  0.10949742624E+02 -0.67434798396E+02  0.33000435150E+03  0.33702773374E+03  0.41800000000E+01 0. -1.
         -5    1    1    2    0  502  0.19647808301E+02  0.43743870758E+02  0.79871885900E+02  0.93255311684E+02  0.41800000000E+01 0. -1.
        -11    1    3    3    0    0 -0.55841240569E+02  0.27319353671E+02 -0.39804471953E+02  0.73817255576E+02  0.00000000000E+00 0. -1.
         11    1    3    3    0    0  0.25243689644E+02 -0.36284260336E+01  0.12935064091E+02  0.28595895253E+02  0.00000000000E+00 0.  1.
</event>
<event>
 7    1  0.1758121E-005  0.1326084E+03  0.7561462E-02  0.1223636E+00
         -1   -1    0    0    0  501 -0.00000000000E+00  0.00000000000E+00  0.10870860754E+03  0.10870860754E+03  0.00000000000E+00 0.  1.
          1   -1    0    0  501    0  0.00000000000E+00 -0.00000000000E+00 -0.28115616911E+03  0.28115616911E+03  0.00000000000E+00 0. -1.
         23    2    1    2    0    0  0.54504579318E+02  0.57522351998E+02 -0.20533859791E+03  0.23817795844E+03  0.91023238499E+02 0.  0.
          5    1    1    2  502    0  0.61236716405E+01  0.34581133866E+02 -0.33898620582E+01  0.35529111143E+02  0.41800000000E+01 0. -1.
         -5    1    1    2    0  502 -0.60628250959E+02 -0.92103485864E+02  0.36280898401E+02  0.11615770707E+03  0.41800000000E+01 0. -1.
        -11    1    3    3    0    0 -0.22426559304E+02 -0.15924583476E+01 -0.52951682144E+02  0.57527099073E+02  0.00000000000E+00 0.  1.
         11    1    3    3    0    0  0.76931138622E+02  0.59114810345E+02 -0.15238691577E+03  0.18065085936E+03  0.00000000000E+00 0. -1.
</event>
<event>
 7    1  0.1758121E-005  0.9237902E+02  0.7561462E-02  0.1297191E+00
          3   -1    0    0  501    0  0.00000000000E+00  0.00000000000E+00  0.15923745618E+03  0.15923745618E+03  0.00000000000E+00 0. -1.
         -3   -1    0    0    0  501 -0.00000000000E+00 -0.00000000000E+00 -0.85152667605E+02  0.85152667605E+02  0.00000000000E+00 0.  1.
         23    2    1    2    0    0 -0.26482457294E+02 -0.88648421598E+01  0.66624600721E+02  0.11600177017E+03  0.90761595901E+02 0.  0.
          5    1    1    2  502    0  0.39612102638E+02 -0.40013032109E+02 -0.31253083677E+02  0.64532077708E+02  0.41800000000E+01 0.  1.
         -5    1    1    2    0  502 -0.13129645344E+02  0.48877874268E+02  0.38713271527E+02  0.63856275903E+02  0.41800000000E+01 0.  1.
        -11    1    3    3    0    0 -0.92431466131E+01 -0.40471474271E+02  0.14434447037E+01  0.41538650937E+02  0.00000000000E+00 0.  1.
         11    1    3    3    0    0 -0.17239310681E+02  0.31606632112E+02  0.65181156017E+02  0.74463119233E+02  0.00000000000E+00 0. -1.
</event>
<event>
 7    1  0.1758121E-005  0.1751784E+03  0.7561462E-02  0.1172553E+00
          2   -1    0    0  501    0  0.00000000000E+00  0.00000000000E+00  0.36189662776E+03  0.36189662776E+03  0.00000000000E+00 0. -1.
         -2   -1    0    0    0  501 -0.00000000000E+00 -0.00000000000E+00 -0.10540911800E+03  0.10540911800E+03  0.00000000000E+00 0.  1.
         23    2    1    2    0    0  0.80806932886E+02 -0.13251671465E+03  0.17789171149E+03  0.25302687521E+03  0.91031305044E+02 0.  0.
          5    1    1    2  502    0 -0.94344913265E+02  0.13108340643E+03  0.30880474744E+02  0.16448373239E+03  0.41800000000E+01 0. -1.
         -5    1    1    2    0  502  0.13537980379E+02  0.14333082153E+01  0.47715323522E+02  0.49795138156E+02  0.41800000000E+01 0. -1.
        -11    1    3    3    0    0 -0.14117499486E+02 -0.38274420552E+02  0.18076300858E+02  0.44620485352E+02  0.00000000000E+00 0.  1.
         11    1    3    3    0    0  0.94924432372E+02 -0.94242294093E+02  0.15981541064E+03  0.20840638986E+03  0.00000000000E+00 0. -1.
</event>
<event>
 7    1  0.1758121E-005  0.1522711E+03  0.7561462E-02  0.1197710E+00
         -1   -1    0    0    0  501 -0.00000000000E+00  0.00000000000E+00  0.37092292496E+03  0.37092292496E+03  0.00000000000E+00 0.  1.
          1   -1    0    0  501    0  0.00000000000E+00 -0.00000000000E+00 -0.11964072140E+03  0.11964072140E+03  0.00000000000E+00 0. -1.
         23    2    1    2    0    0 -0.47765978923E+00  0.34209596752E+02 -0.50759279501E+02  0.11000130431E+03  0.91396158698E+02 0.  0.
          5    1    1    2  502    0 -0.10051414288E+03 -0.51541025795E+02  0.88107076301E+02  0.14331747818E+03  0.41800000000E+01 0. -1.
         -5    1    1    2    0  502  0.10099180266E+03  0.17331429042E+02  0.21393440677E+03  0.23724486388E+03  0.41800000000E+01 0.  1.
        -11    1    3    3    0    0  0.36896870854E+02 -0.19516299975E+01  0.54035450665E+00  0.36952400754E+02  0.00000000000E+00 0. -1.
         11    1    3    3    0    0 -0.37374530643E+02  0.36161226750E+02 -0.51299634007E+02  0.73048903552E+02  0.00000000000E+00 0.  1.
</event>
<event>
 7    1  0.1758121E-005  0.1088708E+03  0.7561462E-02  0.1262675E+00
          2   -1    0    0  501    0  0.00000000000E+00  0.00000000000E+00  0.37865392863E+03  0.37865392863E+03  0.00000000000E+00 0. -1.
         -2   -1    0    0    0  501 -0.00000000000E+00 -0.00000000000E+00 -0.33526099888E+02  0.33526099888E+02  0.00000000000E+00 0.  1.
         23    2    1    2    0    0 -0.13744562687E+02 -0.26439634683E+02  0.15706202217E+03  0.18435506729E+03  0.91816908790E+02 0.  0.
          5    1    1    2  502    0 -0.28712802404E+02  0.60691107252E+02  0.13862261796E+03  0.15408289370E+03  0.41800000000E+01 0. -1.
         -5    1    1    2    0  502  0.42457365091E+02 -0.34251472569E+02  0.49443188612E+02  0.73742067531E+02  0.41800000000E+01 0. -1.
        -11    1    3    3    0    0 -0.24229930631E+02  0.29881977317E+02  0.51940099439E+02  0.64635872675E+02  0.00000000000E+00 0.  1.
         11    1    3    3    0    0  0.10485367945E+02 -0.56321612000E+02  0.10512192273E+03  0.11971919461E+03  0.00000000000E+00 0. -1.
</event>
<event>
 7    1  0.1758121E-005  0.1200240E+03  0.7561462E-02  0.1243058E+00
         -2   -1    0    0    0  501 -0.00000000000E+00  0.00000000000E+00  0.51991056630E+03  0.51991056630E+03  0.00000000000E+00 0. -1.
          2   -1    0    0  501    0  0.00000000000E+00 -0.00000000000E+00 -0.36725170812E+02  0.36725170812E+02  0.00000000000E+00 0.  1.
         23    2    1    2    0    0 -0.13399756312E+02  0.85010049401E+02  0.21085662378E+03  0.24489502800E+03  0.90037753081E+02 0.  0.
          5    1    1    2  502    0  0.34655161933E+01  0.14773540768E+02  0.16132854375E+03  0.16209453643E+03  0.41800000000E+01 0. -1.
         -5    1    1    2    0  502  0.99342401189E+01 -0.99783590169E+02  0.11100022796E+03  0.14964617269E+03  0.41800000000E+01 0. -1.
        -11    1    3    3    0    0  0.54135813223E+01  0.99841233321E+02  0.15990747788E+03  0.18859475129E+03  0.00000000000E+00 0.  1.
         11    1    3    3    0    0 -0.18813337635E+02 -0.14831183920E+02  0.50949145897E+02  0.56300276705E+02  0.00000000000E+00 0. -1.
</event>
<event>
 7    1  0.1758121E-005  0.1464387E+03  0.7561462E-02  0.1204919E+00
          3   -1    0    0  501    0  0.00000000000E+00  0.00000000000E+00  0.75316134520E+02  0.75316134520E+02  0.00000000000E+00 0. -1.
         -3   -1    0    0    0  501 -0.00000000000E+00 -0.00000000000E+00 -0.36705527654E+03  0.36705527654E+03  0.00000000000E+00 0.  1.
         23    2    1    2    0    0 -0.22638533296E+02  0.11045209247E+03 -0.60939876098E+02  0.15666729760E+03  0.90104415643E+02 0.  0.
          5    1    1    2  502    0  0.52693055087E+02 -0.11164637340E+02 -0.35863069178E+02  0.64844732340E+02  0.41800000000E+01 0.  1.
         -5    1    1    2    0  502 -0.30054521791E+02 -0.99287455131E+02 -0.19493619675E+03  0.22085938112E+03  0.41800000000E+01 0.  1.
        -11    1    3    3    0    0  0.42973922366E+01  0.10788872043E+03 -0.69356677886E+02  0.12833079265E+03  0.00000000000E+00 0.  1.
         11    1    3    3    0    0 -0.26935925533E+02  0.25633720451E+01  0.84168017875E+01  0.28336504952E+02  0.00000000000E+00 0. -1.
</event>
<event>
 7    1  0.1758121E-005  0.1031596E+03  0.7561462E-02  0.1273789E+00
         -1   -1    0    0    0  501 -0.00000000000E+00  0.00000000000E+00  0.77882539529E+02  0.77882539529E+02  0.00000000000E+00 0.  1.
          1   -1    0    0  501    0  0.00000000000E+00 -0.00000000000E+00 -0.22157853261E+03  0.22157853261E+03  0.00000000000E+00 0. -1.
         23    2    1    2    0    0 -0.47173799643E+02  0.49261413540E+02 -0.91597430040E+02  0.14775838271E+03  0.93757112988E+02 0.  0.
          5    1    1    2  502    0 -0.89492520337E+00  0.12584127286E+02  0.33235257658E+02  0.35794076357E+02  0.41800000000E+01 0. -1.
         -5    1    1    2    0  502  0.48068724846E+02 -0.61845540826E+02 -0.85333820700E+02  0.11590861307E+03  0.41800000000E+01 0. -1.
        -11    1    3    3    0    0 -0.73937315608E+02  0.23866528579E+02 -0.72262723747E+02  0.10610484941E+03  0.00000000000E+00 0.  1.
         11    1    3    3    0    0  0.26763515965E+02  0.25394884961E+02 -0.19334706293E+02  0.41653533301E+02  0.00000000000E+00 0. -1.
</event>
<event>
 7    1  0.1758121E-005  0.8200419E+02  0.7561462E-02  0.1323458E+00
         -1   -1    0    0    0  501 -0.00000000000E+00  0.00000000000E+00  0.21261816012E+03  0.21261816012E+03  0.00000000000E+00 0.  1.
          1   -1    0    0  501    0  0.00000000000E+00 -0.00000000000E+00 -0.10875334739E+03  0.10875334739E+03  0.00000000000E+00 0. -1.
         23    2    1    2    0    0 -0.34485437377E+02  0.41880064539E+02 -0.48266007812E+02  0.11707845646E+03  0.91839927377E+02 0.  0.
          5    1    1    2  502    0 -0.16881450969E+02 -0.54068267152E+02  0.17203176968E+02  0.59344608832E+02  0.41800000000E+01 0.  1.
         -5    1    1    2    0  502  0.51366888345E+02  0.12188202613E+02  0.13492764357E+03  0.14494844222E+03  0.41800000000E+01 0.  1.
        -11    1    3    3    0    0 -0.17650939171E+02  0.21023712679E+02  0.26192940016E+02  0.37942354369E+02  0.00000000000E+00 0.  1.
         11    1    3    3    0    0 -0.16834498206E+02  0.20856351860E+02 -0.74458947828E+02  0.79136102092E+02  0.00000000000E+00 0. -1.
</event>
<event>
 7    1  0.1758121E-005  0.1055748E+03  0.7561462E-02  0.1268991E+00
         -2   -1    0    0    0  501 -0.00000000000E+00  0.00000000000E+00  0.69334855178E+02  0.69334855178E+02  0.00000000000E+00 0.  1.
          2   -1    0    0  501    0  0.00000000000E+00 -0.00000000000E+00 -0.23535295633E+03  0.23535295633E+03  0.00000000000E+00 0. -1.
         23    2    1    2    0    0  0.21504741387E+02 -0.36490295152E+02 -0.92277906763E+02  0.15343092155E+03  0.11502973559E+03 0.  0.
          5    1    1    2  502    0 -0.82838921976E+00  0.81413857989E+02 -0.54311490618E+02  0.97959751503E+02  0.41800000000E+01 0. -1.
         -5    1    1    2    0  502 -0.20676352167E+02 -0.44923562837E+02 -0.19428703773E+02  0.53297138453E+02  0.41800000000E+01 0. -1.
        -11    1    3    3    0    0  0.42675343178E+02 -0.40052003870E+02  0.16629018119E+00  0.58526708277E+02  0.00000000000E+00 0.  1.
         11    1    3    3    0    0 -0.21170601791E+02  0.35617087178E+01 -0.92444196944E+02  0.94904213278E+02  0.00000000000E+00 0. -1.
</event>
<event>
 7    1  0.1758121E-005  0.1300339E+03  0.7561462E-02  0.1227406E+00
         -2   -1    0    0    0  501 -0.00000000000E+00  0.00000000000E+00  0.10789148083E+03  0.10789148083E+03  0.00000000000E+00 0. -1.
          2   -1    0    0  501    0  0.00000000000E+00 -0.00000000000E+00 -0.28589017184E+03  0.28589017184E+03  0.00000000000E+00 0.  1.
         23    2    1    2    0    0  0.10765995635E+03 -0.56911237465E+02 -0.15487862313E+03  0.21767094465E+03  0.92540245797E+02 0.  0.
          5    1    1    2  502    0 -0.81834754003E+01 -0.78930457356E+01 -0.52381020373E+02  0.53763492595E+02  0.41800000000E+01 0. -1.
         -5    1    1    2    0  502 -0.99476480946E+02  0.64804283200E+02  0.29260952487E+02  0.12234721543E+03  0.41800000000E+01 0. -1.
        -11    1    3    3    0    0  0.19671212969E+02 -0.32253561815E+02 -0.10912182940E+03  0.11547650203E+03  0.00000000000E+00 0.  1.
         11    1    3    3    0    0  0.87988743377E+02 -0.24657675650E+02 -0.45756793722E+02  0.10219444261E+03  0.00000000000E+00 0. -1.
</event>
<event>
 7    1  0.1758121E-005  0.1316572E+03  0.7561462E-02  0.1225017E+00
         -2   -1    0    0    0  501 -0.00000000000E+00  0.00000000000E+00  0.45435547028E+02  0.45435547028E+02  0.00000000000E+00 0.  1.
          2   -1    0    0  501    0  0.00000000000E+00 -0.00000000000E+00 -0.55969654174E+03  0.55969654174E+03  0.00000000000E+00 0. -1.
         23    2    1    2    0    0 -0.11014449016E+02 -0.10315949498E+03 -0.33814843000E+03  0.36549377140E+03  0.92076797985E+02 0.  0.
          5    1    1    2  502    0 -0.33611884164E+02  0.60854183207E+02 -0.21020559841E+02  0.72748379411E+02  0.41800000000E+01 0.  1.
         -5    1    1    2    0  502  0.44626333180E+02  0.42305311773E+02 -0.15509200488E+03  0.16688993797E+03  0.41800000000E+01 0.  1.
        -11    1    3    3    0    0 -0.60567729600E+01 -0.11709125714E+03 -0.25018694195E+03  0.27629794230E+03  0.00000000000E+00 0.  1.
         11    1    3    3    0    0 -0.49576760559E+01  0.13931762156E+02 -0.87961488046E+02  0.89195829095E+02  0.00000000000E+00 0. -1.
</event>
<event>
 7    1  0.1758121E-005  0.1472581E+03  0.7561462E-02  0.1203883E+00
          1   -1    0    0  501    0  0.00000000000E+00  0.00000000000E+00  0.31691154614E+03  0.31691154614E+03  0.00000000000E+00 0. -1.
         -1   -1    0    0    0  501 -0.00000000000E+00 -0.00000000000E+00 -0.79365233815E+02  0.79365233815E+02  0.00000000000E+00 0.  1.
         23    2    1    2    0    0 -0.74351167461E+02  0.85146046242E+02  0.13691228743E+03  0.19993801683E+03  0.91936341196E+02 0.  0.
          5    1    1    2  502    0  0.87959955147E+02 -0.96835182691E+02  0.46084878143E+02  0.13876344875E+03  0.41800000000E+01 0. -1.
         -5    1    1    2    0  502 -0.13608787686E+02  0.11689136450E+02  0.54549146755E+02  0.57575314371E+02  0.41800000000E+01 0. -1.
        -11    1    3    3    0    0 -0.43358980086E+02  0.10135053985E+03  0.11076214058E+03  0.15626959035E+03  0.00000000000E+00 0. -1.
         11    1    3    3    0    0 -0.30992187375E+02 -0.16204493608E+02  0.26150146851E+02  0.43668426485E+02  0.00000000000E+00 0.  1.
</event>
<event>
 7    1  0.1758121E-005  0.1166539E+03  0.7561462E-02  0.1248721E+00
          2   -1    0    0  501    0  0.00000000000E+00  0.00000000000E+00  0.10776618482E+04  0.10776618482E+04  0.00000000000E+00 0. -1.
         -2   -1    0    0    0  501 -0.00000000000E+00 -0.00000000000E+00 -0.14724094503E+02  0.14724094503E+02  0.00000000000E+00 0.  1.
         23    2    1    2    0    0  0.58417462631E+02 -0.22103047896E+02  0.44468255933E+03  0.45851847285E+03  0.92711739842E+02 0.  0.
          5    1    1    2  502    0 -0.73397943000E+02 -0.20754310014E+02  0.51961801464E+03  0.52520315399E+03  0.41800000000E+01 0. -1.
         -5    1    1    2    0  502  0.14980480369E+02  0.42857357910E+02  0.98637179768E+02  0.10866431591E+03  0.41800000000E+01 0. -1.
        -11    1    3    3    0    0  0.12565008206E+02 -0.54017584696E+02  0.20069835440E+03  0.20822009592E+03  0.00000000000E+00 0.  1.
         11    1    3    3    0    0  0.45852454425E+02  0.31914536800E+02  0.24398420494E+03  0.25029837693E+03  0.00000000000E+00 0. -1.
</event>
<event>
 7    1  0.1758121E-005  0.9691107E+02  0.7561462E-02  0.1286929E+00
          1   -1    0    0  501    0  0.00000000000E+00  0.00000000000E+00  0.60535076037E+02  0.60535076037E+02  0.00000000000E+00 0. -1.
         -1   -1    0    0    0  501 -0.00000000000E+00 -0.00000000000E+00 -0.25093315887E+03  0.25093315887E+03  0.00000000000E+00 0.  1.
         23    2    1    2    0    0  0.14551123957E+02  0.30007657142E+02 -0.17526461031E+02  0.95492951259E+02  0.87746978343E+02 0.  0.
          5    1    1    2  502    0  0.17182733135E+02  0.33813087487E+02 -0.12326522114E+03  0.12903626757E+03  0.41800000000E+01 0. -1.
         -5    1    1    2    0  502 -0.31733857092E+02 -0.63820744629E+02 -0.49606400653E+02  0.86939016078E+02  0.41800000000E+01 0. -1.
        -11    1    3    3    0    0 -0.32094466978E+02  0.11901134132E+02  0.13299752649E+02  0.36722952288E+02  0.00000000000E+00 0. -1.
         11    1    3    3    0    0  0.46645590935E+02  0.18106523009E+02 -0.30826213680E+02  0.58769998971E+02  0.00000000000E+00 0.  1.
</event>
<event>
 7    1  0.1758121E-005  0.1817159E+03  0.7561462E-02  0.1166153E+00
          2   -1    0    0  501    0  0.00000000000E+00  0.00000000000E+00  0.78797135364E+03  0.78797135364E+03  0.00000000000E+00 0.  1.
         -2   -1    0    0    0  501 -0.00000000000E+00 -0.00000000000E+00 -0.66389048598E+02  0.66389048598E+02  0.00000000000E+00 0. -1.
         23    2    1    2    0    0 -0.30977420363E+02 -0.14317079291E+03  0.60541773100E+03  0.62941768003E+03  0.90435117120E+02 0.  0.
          5    1    1    2  502    0  0.79531737055E+02  0.87316046138E+02  0.65049412380E+02  0.13490102877E+03  0.41800000000E+01 0.  1.
         -5    1    1    2    0  502 -0.48554316692E+02  0.55854746769E+02  0.51115161663E+02  0.90041693442E+02  0.41800000000E+01 0.  1.
        -11    1    3    3    0    0  0.31376200267E+02 -0.48281069059E+02  0.23735804521E+03  0.24424243939E+03  0.00000000000E+00 0.  1.
         11    1    3    3    0    0 -0.62353620630E+02 -0.94889723848E+02  0.36805968579E+03  0.38517524064E+03  0.00000000000E+00 0. -1.
</event>
<event>
 7    1  0.1758121E-005  0.1125930E+03  0.7561462E-02  0.1255842E+00
          2   -1    0    0  501    0  0.00000000000E+00  0.00000000000E+00  0.95435153482E+02  0.95435153482E+02  0.00000000000E+00 0. -1.
         -2   -1    0    0    0  501 -0.00000000000E+00 -0.00000000000E+00 -0.15847902480E+03  0.15847902480E+03  0.00000000000E+00 0.  1.
         23    2    1    2    0    0 -0.23957455239E+02  0.45043638888E+02 -0.12225539411E+01  0.10556670255E+03  0.92411822741E+02 0.  0.
          5    1    1    2  502    0  0.54763258095E+02  0.21317551993E+02 -0.13118408934E+02  0.60357414732E+02  0.41800000000E+01 0.  1.
         -5    1    1    2    0  502 -0.30805802855E+02 -0.66361190882E+02 -0.48702908443E+02  0.87990061004E+02  0.41800000000E+01 0.  1.
        -11    1    3    3    0    0  0.16061437618E+02  0.50137760281E+02  0.24136350096E+02  0.57916562228E+02  0.00000000000E+00 0. -1.
         11    1    3    3    0    0 -0.40018892857E+02 -0.50941213925E+01 -0.25358904037E+02  0.47650140317E+02  0.00000000000E+00 0.  1.
</event>
<event>
 7    1  0.1758121E-005  0.3835182E+03  0.7561462E-02  0.1049641E+00
          2   -1    0    0  501    0  0.00000000000E+00  0.00000000000E+00  0.19732879348E+04  0.19732879348E+04  0.00000000000E+00 0. -1.
         -2   -1    0    0    0  501 -0.00000000000E+00 -0.00000000000E+00 -0.13592216978E+03  0.13592216978E+03  0.00000000000E+00 0.  1.
         23    2    1    2    0    0 -0.33168054955E+03 -0.18875829251E+03  0.15897134037E+04  0.16373829793E+04  0.90513176802E+02 0.  0.
          5    1    1    2  502    0  0.41215528648E+02  0.69558844626E+01  0.79917159920E+02  0.90284710666E+02  0.41800000000E+01 0.  1.
         -5    1    1    2    0  502  0.29046502090E+03  0.18180240805E+03  0.16773520141E+03  0.38154241459E+03  0.41800000000E+01 0.  1.
        -11    1    3    3    0    0 -0.13049498081E+03 -0.87397385930E+02  0.83992534785E+03  0.85448337201E+03  0.00000000000E+00 0. -1.
         11    1    3    3    0    0 -0.20118556874E+03 -0.10136090658E+03  0.74978805583E+03  0.78289960730E+03  0.00000000000E+00 0.  1.
</event>
<event>
 7    1  0.1758121E-005  0.1916658E+03  0.7561462E-02  0.1156967E+00
          1   -1    0    0  501    0  0.00000000000E+00  0.00000000000E+00  0.70691595176E+03  0.70691595176E+03  0.00000000000E+00 0. -1.
         -1   -1    0    0    0  501 -0.00000000000E+00 -0.00000000000E+00 -0.69786623136E+02  0.69786623136E+02  0.00000000000E+00 0.  1.
         23    2    1    2    0    0 -0.18734912229E+03 -0.34203339949E+02  0.36718307309E+03  0.42344851642E+03  0.90640359713E+02 0.  0.
          5    1    1    2  502    0  0.13664166266E+03  0.32709962071E+02  0.26763221931E+03  0.30230012042E+03  0.41800000000E+01 0.  1.
         -5    1    1    2    0  502  0.50707459630E+02  0.14933778783E+01  0.23140362238E+01  0.50953938055E+02  0.41800000000E+01 0.  1.
        -11    1    3    3    0    0 -0.13547444947E+03 -0.35232300339E+02  0.33324178946E+03  0.36144810373E+03  0.00000000000E+00 0. -1.
         11    1    3    3    0    0 -0.51874672817E+02  0.10289603892E+01  0.33941283627E+02  0.62000412689E+02  0.00000000000E+00 0.  1.
</event>
<event>
 7    1  0.1758121E-005  0.7837155E+02  0.7561462E-02  0.1333737E+00
          4   -1    0    0  501    0  0.00000000000E+00  0.00000000000E+00  0.27577295592E+03  0.27577295592E+03  0.00000000000E+00 0. -1.
         -4   -1    0    0    0  501 -0.00000000000E+00 -0.00000000000E+00 -0.43024193864E+02  0.43024193864E+02  0.00000000000E+00 0.  1.
         23    2    1    2    0    0 -0.27805040383E+00 -0.10530815307E+02  0.11985269893E+03  0.14996536727E+03  0.89520760484E+02 0.  0.
          5    1    1    2  502    0 -0.14095121599E+02  0.60611106672E+02  0.26307653298E+02  0.67690056337E+02  0.41800000000E+01 0.  1.
         -5    1    1    2    0  502  0.14373172002E+02 -0.50080291365E+02  0.86588409827E+02  0.10114172617E+03  0.41800000000E+01 0.  1.
        -11    1    3    3    0    0  0.19589304643E+02  0.63490869263E-01 -0.72468780047E+01  0.20886888909E+02  0.00000000000E+00 0.  1.
         11    1    3    3    0    0 -0.19867355046E+02 -0.10594306177E+02  0.12709957694E+03  0.12907847837E+03  0.00000000000E+00 0. -1.
</event>
<event>
 7    1  0.1758121E-005  0.5537069E+02  0.7561462E-02  0.1418354E+00
          2   -1    0    0  501    0  0.00000000000E+00  0.00000000000E+00  0.73904476566E+02  0.73904476566E+02  0.00000000000E+00 0. -1.
         -2   -1    0    0    0  501 -0.00000000000E+00 -0.00000000000E+00 -0.18615479185E+03  0.18615479185E+03  0.00000000000E+00 0.  1.
         23    2    1    2    0    0 -0.16966078409E+02 -0.78166863604E+01 -0.44841578267E+01  0.93899454398E+02  0.91913282296E+02 0.  0.
          5    1    1    2  502    0 -0.86057525994E+01  0.19962412032E+01  0.27045560985E+02  0.28757237797E+02  0.41800000000E+01 0. -1.
         -5    1    1    2    0  502  0.25571831008E+02  0.58204451572E+01 -0.13481171844E+03  0.13740257622E+03  0.41800000000E+01 0. -1.
        -11    1    3    3    0    0 -0.41754201138E+02 -0.20557395328E+02 -0.30604882436E+02  0.55701693370E+02  0.00000000000E+00 0. -1.
         11    1    3    3    0    0  0.24788122729E+02  0.12740708968E+02  0.26120724610E+02  0.38197761028E+02  0.00000000000E+00 0.  1.
</event>
<event>
 7    1  0.1758121E-005  0.1501456E+03  0.7561462E-02  0.1200294E+00
          4   -1    0    0  501    0  0.00000000000E+00  0.00000000000E+00  0.99540235531E+02  0.99540235531E+02  0.00000000000E+00 0. -1.
         -4   -1    0    0    0  501 -0.00000000000E+00 -0.00000000000E+00 -0.27753201978E+03  0.27753201978E+03  0.00000000000E+00 0.  1.
         23    2    1    2    0    0 -0.12229762410E+03  0.33065142200E+02 -0.76274965209E+02  0.17202827995E+03  0.87896793426E+02 0.  0.
          5    1    1    2  502    0  0.22897426879E+02 -0.61768026955E+02 -0.71210573128E+02  0.97097885852E+02  0.41800000000E+01 0. -1.
         -5    1    1    2    0  502  0.99400197224E+02  0.28702884756E+02 -0.30506245916E+02  0.10794608951E+03  0.41800000000E+01 0. -1.
        -11    1    3    3    0    0 -0.99683860368E+02  0.39502065851E+02 -0.93991042204E+02  0.14258892397E+03  0.00000000000E+00 0.  1.
         11    1    3    3    0    0 -0.22613763735E+02 -0.64369236511E+01  0.17716076995E+02  0.29439355979E+02  0.00000000000E+00 0. -1.
</event>
<event>
 7    1  0.1758121E-005  0.9907883E+02  0.7561462E-02  0.1282245E+00
          2   -1    0    0  501    0  0.00000000000E+00  0.00000000000E+00  0.56159322859E+02  0.56159322859E+02  0.00000000000E+00 0. -1.
         -2   -1    0    0    0  501 -0.00000000000E+00 -0.00000000000E+00 -0.40138069645E+03  0.40138069645E+03  0.00000000000E+00 0.  1.
         23    2    1    2    0    0 -0.11211015346E+02  0.78578285128E-01 -0.29697107239E+01  0.92971565830E+02  0.92245324171E+02 0.  0.
          5    1    1    2  502    0  0.44171562001E+02  0.36644265130E+02 -0.85348487452E+02  0.10293573610E+03  0.41800000000E+01 0.  1.
         -5    1    1    2    0  502 -0.32960546655E+02 -0.36722843415E+02 -0.25690317542E+03  0.26163271738E+03  0.41800000000E+01 0.  1.
        -11    1    3    3    0    0  0.25625391918E+02 -0.32863365235E+02  0.77928342545E+01  0.42395633634E+02  0.00000000000E+00 0. -1.
         11    1    3    3    0    0 -0.36836407264E+02  0.32941943520E+02 -0.10762544978E+02  0.50575932196E+02  0.00000000000E+00 0.  1.
</event>
<event>
 7    1  0.1758121E-005  0.1618870E+03  0.7561462E-02  0.1186583E+00
          2   -1    0    0  501    0  0.00000000000E+00  0.00000000000E+00  0.43295693244E+02  0.43295693244E+02  0.00000000000E+00 0.  1.
         -2   -1    0    0    0  501 -0.00000000000E+00 -0.00000000000E+00 -0.85265289658E+03  0.85265289658E+03  0.00000000000E+00 0. -1.
         23    2    1    2    0    0  0.13817970322E+03  0.56739746511E+02 -0.26106778981E+03  0.31407156282E+03  0.90396495971E+02 0.  0.
          5    1    1    2  502    0  0.27558467412E+01 -0.37417475631E+01 -0.22641064515E+03  0.22649690506E+03  0.41800000000E+01 0.  1.
         -5    1    1    2    0  502 -0.14093554996E+03 -0.52997998948E+02 -0.32187876838E+03  0.35538012193E+03  0.41800000000E+01 0.  1.
        -11    1    3    3    0    0  0.37790012420E+02 -0.17883216519E+02 -0.30473660893E+02  0.51735273074E+02  0.00000000000E+00 0.  1.
         11    1    3    3    0    0  0.10038969080E+03  0.74622963030E+02 -0.23059412891E+03  0.26233628975E+03  0.00000000000E+00 0. -1.
</event>
<event>
 7    1  0.1758121E-005  0.1651614E+03  0.7561462E-02  0.1182990E+00
          2   -1    0    0  501    0  0.00000000000E+00  0.00000000000E+00  0.68290773739E+02  0.68290773739E+02  0.00000000000E+00 0. -1.
         -2   -1    0    0    0  501 -0.00000000000E+00 -0.00000000000E+00 -0.59011762259E+03  0.59011762259E+03  0.00000000000E+00 0.  1.
         23    2    1    2    0    0  0.11899656061E+03 -0.56465234439E+02 -0.21591805696E+03  0.26947219259E+03  0.92984682173E+02 0.  0.
          5    1    1    2  502    0  0.19550522704E+01  0.53795228145E+02  0.60337740899E+01  0.54328883942E+02  0.41800000000E+01 0. -1.
         -5    1    1    2    0  502 -0.12095161288E+03  0.26700062939E+01 -0.31194256597E+03  0.33460731979E+03  0.41800000000E+01 0.  1.
        -11    1    3    3    0    0  0.45094243360E+02  0.19647449104E+02 -0.10520266303E+03  0.11613403183E+03  0.00000000000E+00 0.  1.
         11    1    3    3    0    0  0.73902317254E+02 -0.76112683543E+02 -0.11071539393E+03  0.15333816076E+03  0.00000000000E+00 0. -1.
</event>
<event>
 7    1  0.1834497E-005  0.1640098E+03  0.7561462E-02  0.1184243E+00
          1   -1    0    0  501    0  0.00000000000E+00  0.00000000000E+00  0.23121527655E+03  0.23121527655E+03  0.00000000000E+00 0. -1.
         -1   -1    0    0    0  501 -0.00000000000E+00 -0.00000000000E+00 -0.15376358260E+03  0.15376358260E+03  0.00000000000E+00 0.  1.
         23    2    1    2    0    0 -0.10631759391E+03  0.10605287060E+03  0.67037622293E+02  0.18925730863E+03  0.93667731529E+02 0.  0.
          5    1    1    2  502    0  0.15086479952E+02 -0.33305313581E+02  0.58772729150E+02  0.69343722729E+02  0.41800000000E+01 0. -1.
         -5    1    1    2    0  502  0.91231113953E+02 -0.72747557019E+02 -0.48358657492E+02  0.12637782780E+03  0.41800000000E+01 0. -1.
        -11    1    3    3    0    0 -0.90815447485E+02  0.28222319671E+02  0.20584739878E+02  0.97301985311E+02  0.00000000000E+00 0.  1.
         11    1    3    3    0    0 -0.15502146420E+02  0.77830550929E+02  0.46452882414E+02  0.91955323316E+02  0.00000000000E+00 0. -1.
</event>
<event>
 7    1  0.1758121E-005  0.1104778E+03  0.7561462E-02  0.1259688E+00
          2   -1    0    0  501    0  0.00000000000E+00  0.00000000000E+00  0.30410210133E+03  0.30410210133E+03  0.00000000000E+00 0.  1.
         -2   -1    0    0    0  501 -0.00000000000E+00 -0.00000000000E+00 -0.87722912859E+02  0.87722912859E+02  0.00000000000E+00 0. -1.
         23    2    1    2    0    0  0.81975857469E+02  0.28545737389E+02  0.20924704563E+03  0.23940206508E+03  0.77421717397E+02 0.  0.
          5    1    1    2  502    0 -0.94467593923E+02 -0.50278946972E+02  0.36907097863E+02  0.11327711632E+03  0.41800000000E+01 0. -1.
         -5    1    1    2    0  502  0.12491736454E+02  0.21733209583E+02 -0.29774955023E+02  0.39145832793E+02  0.41800000000E+01 0. -1.
        -11    1    3    3    0    0  0.48648100099E+02  0.80203458164E+01  0.34132795862E+02  0.59966751985E+02  0.00000000000E+00 0. -1.
         11    1    3    3    0    0  0.33327757369E+02  0.20525391573E+02  0.17511424977E+03  0.17943531309E+03  0.00000000000E+00 0.  1.
</event>
<event>
 7    1  0.1758121E-005  0.1076397E+03  0.7561462E-02  0.1265004E+00
          1   -1    0    0  501    0  0.00000000000E+00  0.00000000000E+00  0.35955808639E+03  0.35955808639E+03  0.00000000000E+00 0. -1.
         -1   -1    0    0    0  501 -0.00000000000E+00 -0.00000000000E+00 -0.36623625830E+02  0.36623625830E+02  0.00000000000E+00 0.  1.
         23    2    1    2    0    0  0.17441115807E+02  0.40523767156E+02  0.12005076463E+03  0.15378752585E+03  0.85393493862E+02 0.  0.
          5    1    1    2  502    0 -0.64204816813E+02 -0.49909212430E+02  0.15257020902E+03  0.17294024710E+03  0.41800000000E+01 0. -1.
         -5    1    1    2    0  502  0.46763701007E+02  0.93854452738E+01  0.50313486908E+02  0.69453939267E+02  0.41800000000E+01 0. -1.
        -11    1    3    3    0    0 -0.22611948067E+01  0.58951258988E+02  0.11033080942E+03  0.12511295475E+03  0.00000000000E+00 0. -1.
         11    1    3    3    0    0  0.19702310613E+02 -0.18427491831E+02  0.97199552102E+01  0.28674571104E+02  0.00000000000E+00 0.  1.
</event>
<event>
 7    1  0.1758121E-005  0.1083270E+03  0.7561462E-02  0.1263700E+00
         -2   -1    0    0    0  501 -0.00000000000E+00  0.00000000000E+00  0.31244394633E+02  0.31244394633E+02  0.00000000000E+00 0.  1.
          2   -1    0    0  501    0  0.00000000000E+00 -0.00000000000E+00 -0.50946898519E+03  0.50946898519E+03  0.00000000000E+00 0. -1.
         23    2    1    2    0    0  0.51945967275E+02 -0.82451984672E+01 -0.29573934546E+03  0.31330625797E+03  0.89065616345E+02 0.  0.
          5    1    1    2  502    0  0.32713313827E+02 -0.19623451947E+02 -0.94950633717E+02  0.10241257741E+03  0.41800000000E+01 0. -1.
         -5    1    1    2    0  502 -0.84659281103E+02  0.27868650415E+02 -0.87534611384E+02  0.12499454445E+03  0.41800000000E+01 0. -1.
        -11    1    3    3    0    0  0.69131183894E+02 -0.14731236904E+02 -0.28100497132E+03  0.28975838872E+03  0.00000000000E+00 0. -1.
         11    1    3    3    0    0 -0.17185216619E+02  0.64860384364E+01 -0.14734374141E+02  0.23547869249E+02  0.00000000000E+00 0.  1.
</event>
<event>
 7    1  0.1758121E-005  0.1408565E+03  0.7561462E-02  0.1212181E+00
          2   -1    0    0  501    0  0.00000000000E+00  0.00000000000E+00  0.10685786274E+04  0.10685786274E+04  0.00000000000E+00 0.  1.
         -2   -1    0    0    0  501 -0.00000000000E+00 -0.00000000000E+00 -0.28244506608E+02  0.28244506608E+02  0.00000000000E+00 0. -1.
         23    2    1    2    0    0  0.19336794911E+02 -0.12457505933E+03  0.64206676717E+03  0.66074799071E+03  0.91898404101E+02 0.  0.
          5    1    1    2  502    0  0.29559318156E+01  0.73316689203E+02  0.64963018913E+02  0.98090471887E+02  0.41800000000E+01 0. -1.
         -5    1    1    2    0  502 -0.22292726727E+02  0.51258370129E+02  0.33330433468E+03  0.33798467139E+03  0.41800000000E+01 0. -1.
        -11    1    3    3    0    0  0.44875008515E+02 -0.29458710961E+02  0.16131033666E+03  0.17000766675E+03  0.00000000000E+00 0.  1.
         11    1    3    3    0    0 -0.25538213604E+02 -0.95116348371E+02  0.48075643051E+03  0.49074032396E+03  0.00000000000E+00 0. -1.
</event>
<event>
 7    1  0.1758121E-005  0.1392328E+03  0.7561462E-02  0.1214365E+00
          3   -1    0    0  501    0  0.00000000000E+00  0.00000000000E+00  0.61937328423E+02  0.61937328423E+02  0.00000000000E+00 0. -1.
         -3   -1    0    0    0  501 -0.00000000000E+00 -0.00000000000E+00 -0.38390230619E+03  0.38390230619E+03  0.00000000000E+00 0.  1.
         23    2    1    2    0    0 -0.28801556318E+02  0.28194288722E+01 -0.49720861239E+02  0.10415035305E+03  0.86819658910E+02 0.  0.
          5    1    1    2  502    0  0.17915359570E+02 -0.94519140553E+02 -0.69155143446E+02  0.11855266469E+03  0.41800000000E+01 0. -1.
         -5    1    1    2    0  502  0.10886196748E+02  0.91699711681E+02 -0.20308897308E+03  0.22313661687E+03  0.41800000000E+01 0.  1.
        -11    1    3    3    0    0 -0.35913835216E+00  0.41622325471E+02 -0.33331118814E+02  0.53324576316E+02  0.00000000000E+00 0.  1.
         11    1    3    3    0    0 -0.28442417966E+02 -0.38802896598E+02 -0.16389742425E+02  0.50825776737E+02  0.00000000000E+00 0. -1.
</event>
<event>
 7    1  0.1758121E-005  0.1227966E+03  0.7561462E-02  0.1238554E+00
          2   -1    0    0  501    0  0.00000000000E+00  0.00000000000E+00  0.32753321072E+03  0.32753321072E+03  0.00000000000E+00 0. -1.
         -2   -1    0    0    0  501 -0.00000000000E+00 -0.00000000000E+00 -0.56141329454E+02  0.56141329454E+02  0.00000000000E+00 0.  1.
         23    2    1    2    0    0  0.31132472563E+02 -0.60351283649E+02  0.15214568514E+03  0.19799214944E+03  0.10696295363E+03 0.  0.
          5    1    1    2  502    0  0.45426719995E+02  0.41912729144E+02  0.66064983154E+02  0.90566650335E+02  0.41800000000E+01 0. -1.
         -5    1    1    2    0  502 -0.76559192559E+02  0.18438554505E+02  0.53181212967E+02  0.95115740391E+02  0.41800000000E+01 0. -1.
        -11    1    3    3    0    0  0.52365396541E+02 -0.14625520414E+02  0.22413196138E+02  0.58808094370E+02  0.00000000000E+00 0. -1.
         11    1    3    3    0    0 -0.21232923977E+02 -0.45725763234E+02  0.12973248900E+03  0.13918405507E+03  0.00000000000E+00 0.  1.
</event>
<event>
 6    1  0.1758121E-005  0.2035496E+03  0.7561462E-02  0.1146778E+00
          3   -1    0    0  501    0  0.00000000000E+00  0.00000000000E+00  0.27622529417E+03  0.27622529417E+03  0.00000000000E+00 0. -1.
         -3   -1    0    0    0  501 -0.00000000000E+00 -0.00000000000E+00 -0.23505192925E+03  0.23505192925E+03  0.00000000000E+00 0.  1.
          5    1    1    2  502    0  0.72977861390E+02 -0.78493925367E+02 -0.93425398997E+02  0.14224219539E+03  0.41800000000E+01 0.  1.
         -5    1    1    2    0  502 -0.41933385491E+02 -0.80968433721E+02 -0.25454607072E+02  0.94761308028E+02  0.41800000000E+01 0.  1.
        -11    1    1    2    0    0  0.50587050203E+02  0.43318834880E+02  0.93788711956E+01  0.67257225102E+02  0.00000000000E+00 0.  1.
         11    1    1    2    0    0 -0.81631526101E+02  0.11614352421E+03  0.15067449979E+03  0.20701649489E+03  0.00000000000E+00 0. -1.
</event>
<event>
 7    1  0.1758121E-005  0.1130143E+03  0.7561462E-02  0.1255087E+00
         -1   -1    0    0    0  501 -0.00000000000E+00  0.00000000000E+00  0.84880727831E+02  0.84880727831E+02  0.00000000000E+00 0.  1.
          1   -1    0    0  501    0  0.00000000000E+00 -0.00000000000E+00 -0.25752634590E+03  0.25752634590E+03  0.00000000000E+00 0. -1.
         23    2    1    2    0    0  0.40328510044E+02 -0.81466990928E+02 -0.12806538350E+03  0.18147837497E+03  0.90941732979E+02 0.  0.
          5    1    1    2  502    0 -0.38432509377E+01  0.95459719715E+02  0.72283184683E+01  0.95901249489E+02  0.41800000000E+01 0. -1.
         -5    1    1    2    0  502 -0.36485259106E+02 -0.13992728787E+02 -0.51808553042E+02  0.65027449275E+02  0.41800000000E+01 0. -1.
        -11    1    3    3    0    0  0.14504817972E+02 -0.23100837650E+02 -0.11253315792E+03  0.11579183942E+03  0.00000000000E+00 0. -1.
         11    1    3    3    0    0  0.25823692072E+02 -0.58366153278E+02 -0.15532225573E+02  0.65686535545E+02  0.00000000000E+00 0.  1.
</event>
<event>
 7    1  0.1758121E-005  0.1435184E+03  0.7561462E-02  0.1208672E+00
         -1   -1    0    0    0  501 -0.00000000000E+00  0.00000000000E+00  0.36169973021E+02  0.36169973021E+02  0.00000000000E+00 0.  1.
          1   -1    0    0  501    0  0.00000000000E+00 -0.00000000000E+00 -0.77007902034E+03  0.77007902034E+03  0.00000000000E+00 0. -1.
         23    2    1    2    0    0  0.85153932710E+02 -0.85564697464E+02 -0.44017558119E+03  0.46493246566E+03  0.88516358027E+02 0.  0.
          5    1    1    2  502    0  0.27071094103E+02  0.43741630119E+01 -0.95507990188E+02  0.99454643068E+02  0.41800000000E+01 0. -1.
         -5    1    1    2    0  502 -0.11222502681E+03  0.81190534452E+02 -0.19822547594E+03  0.24186188463E+03  0.41800000000E+01 0. -1.
        -11    1    3    3    0    0  0.46519380792E+02 -0.47368482475E+02 -0.37139990458E+03  0.37728731101E+03  0.00000000000E+00 0. -1.
         11    1    3    3    0    0  0.38634551918E+02 -0.38196214988E+02 -0.68775676610E+02  0.87645154655E+02  0.00000000000E+00 0.  1.
</event>
<event>
 7    1  0.1758121E-005  0.9484134E+02  0.7561462E-02  0.1291534E+00
         -1   -1    0    0    0  501 -0.00000000000E+00  0.00000000000E+00  0.22883139245E+02  0.22883139245E+02  0.00000000000E+00 0.  1.
          1   -1    0    0  501    0  0.00000000000E+00 -0.00000000000E+00 -0.69473926301E+03  0.69473926301E+03  0.00000000000E+00 0. -1.
         23    2    1    2    0    0 -0.26719402830E+02  0.15830209355E+02 -0.41759244851E+03  0.42866277151E+03  0.91672223750E+02 0.  0.
          5    1    1    2  502    0  0.62102665119E+02 -0.12408062115E+02 -0.24342259656E+03  0.25156059695E+03  0.41800000000E+01 0. -1.
         -5    1    1    2    0  502 -0.35383262290E+02 -0.34221472399E+01 -0.10841078695E+02  0.37399033801E+02  0.41800000000E+01 0.  1.
        -11    1    3    3    0    0 -0.62556456221E+01 -0.35037657465E+02 -0.95090524788E+02  0.10153313965E+03  0.00000000000E+00 0.  1.
         11    1    3    3    0    0 -0.20463757208E+02  0.50867866820E+02 -0.32250192372E+03  0.32712963186E+03  0.00000000000E+00 0. -1.
</event>
<event>
 7    1  0.1758121E-005  0.8853291E+02  0.7561462E-02  0.1306444E+00
          2   -1    0    0  501    0  0.00000000000E+00  0.00000000000E+00  0.23836766419E+03  0.23836766419E+03  0.00000000000E+00 0. -1.
         -2   -1    0    0    0  501 -0.00000000000E+00 -0.00000000000E+00 -0.53553711276E+02  0.53553711276E+02  0.00000000000E+00 0.  1.
         23    2    1    2    0    0 -0.24502481881E+02  0.16058942988E+02  0.95301486283E+02  0.13532918614E+03  0.91506032943E+02 0.  0.
          5    1    1    2  502    0  0.23475955438E+02  0.46578330139E+02  0.76158672140E+02  0.92402797925E+02  0.41800000000E+01 0.  1.
         -5    1    1    2    0  502  0.10265264430E+01 -0.62637273127E+02  0.13353794492E+02  0.64189391403E+02  0.41800000000E+01 0.  1.
        -11    1    3    3    0    0  0.27258660537E+01  0.30847998343E+02 -0.40740349578E+01  0.31235030148E+02  0.00000000000E+00 0.  1.
         11    1    3    3    0    0 -0.27228347935E+02 -0.14789055355E+02  0.99375521241E+02  0.10409415599E+03  0.00000000000E+00 0. -1.
</event>
<event>
 7    1  0.1758121E-005  0.2894581E+03  0.7561462E-02  0.1090632E+00
         -1   -1    0    0    0  501 -0.00000000000E+00  0.00000000000E+00  0.88171323310E+03  0.88171323310E+03  0.00000000000E+00 0.  1.
          1   -1    0    0  501    0  0.00000000000E+00 -0.00000000000E+00 -0.19281175725E+03  0.19281175725E+03  0.00000000000E+00 0. -1.
         23    2    1    2    0    0  0.26354026173E+03 -0.94693653077E+02 -0.28654342051E+02  0.29594816258E+03  0.91344874679E+02 0.  0.
          5    1    1    2  502    0  0.45681705607E+01  0.13403786990E+02  0.10761838409E+02  0.18270721220E+02  0.41800000000E+01 0. -1.
         -5    1    1    2    0  502 -0.26810843229E+03  0.81289866087E+02  0.70679397949E+03  0.76030610654E+03  0.41800000000E+01 0.  1.
        -11    1    3    3    0    0  0.10241345700E+03 -0.12785550323E+02  0.27257969866E+02  0.10674728752E+03  0.00000000000E+00 0.  1.
         11    1    3    3    0    0  0.16112680473E+03 -0.81908102754E+02 -0.55912311917E+02  0.18920087506E+03  0.00000000000E+00 0. -1.
</event>
<event>
 7    1  0.1758121E-005  0.1531049E+03  0.7561462E-02  0.1196709E+00
         -2   -1    0    0    0  501 -0.00000000000E+00  0.00000000000E+00  0.63809814720E+02  0.63809814720E+02  0.00000000000E+00 0.  1.
          2   -1    0    0  501    0  0.00000000000E+00 -0.00000000000E+00 -0.46961376160E+03  0.46961376160E+03  0.00000000000E+00 0. -1.
         23    2    1    2    0    0  0.94542486897E+02  0.87959391990E+02 -0.24723410529E+03  0.29369899893E+03  0.91974250097E+02 0.  0.
          5    1    1    2  502    0 -0.52801549529E+02  0.11465773948E+02 -0.84577809363E+01  0.54849558460E+02  0.41800000000E+01 0. -1.
         -5    1    1    2    0  502 -0.41740937368E+02 -0.99425165938E+02 -0.15011206065E+03  0.18487501894E+03  0.41800000000E+01 0. -1.
        -11    1    3    3    0    0 -0.75339959247E+00  0.35141139184E+02 -0.12549162218E+03  0.13032119748E+03  0.00000000000E+00 0. -1.
         11    1    3    3    0    0  0.95295886490E+02  0.52818252806E+02 -0.12174248311E+03  0.16337780145E+03  0.00000000000E+00 0.  1.
</event>
<event>
 7    1  0.1758121E-005  0.9732531E+02  0.7561462E-02  0.1286023E+00
          2   -1    0    0  501    0  0.00000000000E+00  0.00000000000E+00  0.35972475064E+02  0.35972475064E+02  0.00000000000E+00 0. -1.
         -2   -1    0    0    0  501 -0.00000000000E+00 -0.00000000000E+00 -0.51287343564E+03  0.51287343564E+03  0.00000000000E+00 0.  1.
         23    2    1    2    0    0 -0.20769306136E+02 -0.78876290397E+02 -0.19084076282E+03  0.22615467867E+03  0.89849366529E+02 0.  0.
          5    1    1    2  502    0 -0.28711074247E+02  0.17767949858E+02 -0.21160769726E+03  0.21432525695E+03  0.41800000000E+01 0. -1.
         -5    1    1    2    0  502  0.49480380383E+02  0.61108340539E+02 -0.74452500493E+02  0.10836597508E+03  0.41800000000E+01 0. -1.
        -11    1    3    3    0    0 -0.14192510452E+02 -0.39625089372E+02 -0.18007122712E+03  0.18492490881E+03  0.00000000000E+00 0.  1.
         11    1    3    3    0    0 -0.65767956835E+01 -0.39251201025E+02 -0.10769535696E+02  0.41229769857E+02  0.00000000000E+00 0. -1.
</event>
<event>
 7    1  0.1758121E-005  0.7172246E+02  0.7561462E-02  0.1354332E+00
          1   -1    0    0  501    0  0.00000000000E+00  0.00000000000E+00  0.15056464812E+03  0.15056464812E+03  0.00000000000E+00 0. -1.
         -1   -1    0    0    0  501 -0.00000000000E+00 -0.00000000000E+00 -0.11274074045E+03  0.11274074045E+03  0.00000000000E+00 0.  1.
         23    2    1    2    0    0 -0.10928004845E+02 -0.15597606414E+01  0.87846032745E+02  0.12812711094E+03  0.92616288776E+02 0.  0.
          5    1    1    2  502    0  0.13508297911E+02  0.31557531431E+02  0.32364191776E+02  0.47363120798E+02  0.41800000000E+01 0. -1.
         -5    1    1    2    0  502 -0.25802930654E+01 -0.29997770789E+02 -0.82386316853E+02  0.87815156831E+02  0.41800000000E+01 0. -1.
        -11    1    3    3    0    0  0.33608376946E+02 -0.41033889292E+01  0.52610775676E+01  0.34264263291E+02  0.00000000000E+00 0.  1.
         11    1    3    3    0    0 -0.44536381792E+02  0.25436282878E+01  0.82584955177E+02  0.93862847653E+02  0.00000000000E+00 0. -1.
</event>
<event>
 7    1  0.1758121E-005  0.1078454E+03  0.7561462E-02  0.1264613E+00
         -1   -1    0    0    0  501 -0.00000000000E+00  0.00000000000E+00  0.11408924141E+03  0.11408924141E+03  0.00000000000E+00 0.  1.
          1   -1    0    0  501    0  0.00000000000E+00 -0.00000000000E+00 -0.11512379515E+03  0.11512379515E+03  0.00000000000E+00 0. -1.
         23    2    1    2    0    0  0.30353368612E+02 -0.33693647918E+02 -0.11545050624E+02  0.95731230886E+02  0.83514019643E+02 0.  0.
          5    1    1    2  502    0  0.42266934724E+02  0.30009463775E+02 -0.18336952966E+02  0.55143249189E+02  0.41800000000E+01 0. -1.
         -5    1    1    2    0  502 -0.72620303336E+02  0.36841841435E+01  0.28847449855E+02  0.78338556487E+02  0.41800000000E+01 0. -1.
        -11    1    3    3    0    0  0.29415127159E+02  0.21005159057E+02 -0.18465004811E+02  0.40588456677E+02  0.00000000000E+00 0.  1.
         11    1    3    3    0    0  0.93824145298E+00 -0.54698806975E+02  0.69199541865E+01  0.55142774209E+02  0.00000000000E+00 0. -1.
</event>
<event>
 7    1  0.1849076E-005  0.1605976E+03  0.7561462E-02  0.1188024E+00
          2   -1    0    0  501    0  0.00000000000E+00  0.00000000000E+00  0.13859727067E+04  0.13859727067E+04  0.00000000000E+00 0. -1.
         -2   -1    0    0    0  501 -0.00000000000E+00 -0.00000000000E+00 -0.21687142012E+02  0.21687142012E+02  0.00000000000E+00 0.  1.
         23    2    1    2    0    0  0.35059974376E+02 -0.12898543621E+03  0.70547108942E+03  0.72388306370E+03  0.91928164033E+02 0.  0.
          5    1    1    2  502    0 -0.38344798101E+02 -0.44843359206E+01  0.26723216517E+03  0.27003876631E+03  0.41800000000E+01 0.  1.
         -5    1    1    2    0  502  0.32848237258E+01  0.13346977213E+03  0.39158231013E+03  0.41373801874E+03  0.41800000000E+01 0.  1.
        -11    1    3    3    0    0  0.54258576900E+02 -0.10373025026E+03  0.64558941197E+03  0.65611709842E+03  0.00000000000E+00 0. -1.
         11    1    3    3    0    0 -0.19198602525E+02 -0.25255185950E+02  0.59881677453E+02  0.67765965284E+02  0.00000000000E+00 0.  1.
</event>
<event>
 7    1  0.1758121E-005  0.1242978E+03  0.7561462E-02  0.1236171E+00
         -2   -1    0    0    0  501 -0.00000000000E+00  0.00000000000E+00  0.36647617675E+02  0.36647617675E+02  0.00000000000E+00 0. -1.
          2   -1    0    0  501    0  0.00000000000E+00 -0.00000000000E+00 -0.54438925587E+03  0.54438925587E+03  0.00000000000E+00 0.  1.
         23    2    1    2    0    0  0.39927707753E+02  0.79108066515E+02 -0.26386683088E+03  0.29298480171E+03  0.91444417884E+02 0.  0.
          5    1    1    2  502    0  0.23399984402E+02 -0.67428035544E+02 -0.19319224866E+03  0.20599712762E+03  0.41800000000E+01 0.  1.
         -5    1    1    2    0  502 -0.63327692155E+02 -0.11680030971E+02 -0.50682558657E+02  0.82054944209E+02  0.41800000000E+01 0.  1.
        -11    1    3    3    0    0  0.26223569546E+02  0.90827352658E+02 -0.25674608962E+03  0.27359794978E+03  0.00000000000E+00 0.  1.
         11    1    3    3    0    0  0.13704138207E+02 -0.11719286143E+02 -0.71207412627E+01  0.19386851932E+02  0.00000000000E+00 0. -1.
</event>
<event>
 7    1  0.1758121E-005  0.8338818E+02  0.7561462E-02  0.1319702E+00
          1   -1    0    0  501    0  0.00000000000E+00  0.00000000000E+00  0.14443941663E+03  0.14443941663E+03  0.00000000000E+00 0. -1.
         -1   -1    0    0    0  501 -0.00000000000E+00 -0.00000000000E+00 -0.11935874954E+03  0.11935874954E+03  0.00000000000E+00 0.  1.
         23    2    1    2    0    0  0.66541802656E+02  0.31021090791E+02  0.11653976493E+02  0.11815693047E+03  0.91842939167E+02 0.  0.
          5    1    1    2  502    0 -0.16048160861E+02 -0.26982832873E+02 -0.53155850467E+02  0.61875953130E+02  0.41800000000E+01 0. -1.
         -5    1    1    2    0  502 -0.50493641796E+02 -0.40382579179E+01  0.66582541065E+02  0.83765282567E+02  0.41800000000E+01 0. -1.
        -11    1    3    3    0    0  0.54490027729E+02  0.39355420822E+01 -0.33540898224E+02  0.64106500973E+02  0.00000000000E+00 0.  1.
         11    1    3    3    0    0  0.12051774927E+02  0.27085548709E+02  0.45194874717E+02  0.54050429494E+02  0.00000000000E+00 0. -1.
</event>
<event>
 7    1  0.1758121E-005  0.2859417E+03  0.7561462E-02  0.1092487E+00
         -2   -1    0    0    0  501 -0.00000000000E+00  0.00000000000E+00  0.22111387173E+03  0.22111387173E+03  0.00000000000E+00 0.  1.
          2   -1    0    0  501    0  0.00000000000E+00 -0.00000000000E+00 -0.54210661149E+03  0.54210661149E+03  0.00000000000E+00 0. -1.
         23    2    1    2    0    0 -0.22615344844E+02  0.18973373012E+02 -0.11669311871E+03  0.15110620638E+03  0.91347462724E+02 0.  0.
          5    1    1    2  502    0 -0.22200767659E+03  0.44999902901E+02 -0.26839407045E+03  0.35123389526E+03  0.41800000000E+01 0. -1.
         -5    1    1    2    0  502  0.24462302144E+03 -0.63973275912E+02  0.64094449395E+02  0.26088038158E+03  0.41800000000E+01 0.  1.
        -11    1    3    3    0    0  0.65734919618E+01 -0.32557566047E+02 -0.23500799995E+02  0.40687756191E+02  0.00000000000E+00 0.  1.
         11    1    3    3    0    0 -0.29188836806E+02  0.51530939059E+02 -0.93192318715E+02  0.11041845019E+03  0.00000000000E+00 0. -1.
</event>
<event>
 7    1  0.1758121E-005  0.8700558E+02  0.7561462E-02  0.1310270E+00
         -1   -1    0    0    0  501 -0.00000000000E+00  0.00000000000E+00  0.33804586539E+02  0.33804586539E+02  0.00000000000E+00 0.  1.
          1   -1    0    0  501    0  0.00000000000E+00 -0.00000000000E+00 -0.47020074261E+03  0.47020074261E+03  0.00000000000E+00 0. -1.
         23    2    1    2    0    0 -0.52337467574E+02 -0.36363833269E+02 -0.20015087663E+03  0.22919503980E+03  0.91697622480E+02 0.  0.
          5    1    1    2  502    0  0.26468302613E+00  0.23616669018E+02 -0.21603862852E+03  0.21736600131E+03  0.41800000000E+01 0.  1.
         -5    1    1    2    0  502  0.52072784548E+02  0.12747164251E+02 -0.20206650912E+02  0.57444288037E+02  0.41800000000E+01 0.  1.
        -11    1    3    3    0    0 -0.15597738210E+02 -0.53489889279E+02 -0.16936431838E+03  0.17829394278E+03  0.00000000000E+00 0. -1.
         11    1    3    3    0    0 -0.36739729364E+02  0.17126056010E+02 -0.30786558251E+02  0.50901097014E+02  0.00000000000E+00 0.  1.
</event>
<event>
 7    1  0.1758121E-005  0.2570093E+03  0.7561462E-02  0.1108954E+00
          1   -1    0    0  501    0  0.00000000000E+00  0.00000000000E+00  0.89143086196E+02  0.89143086196E+02  0.00000000000E+00 0. -1.
         -1   -1    0    0    0  501 -0.00000000000E+00 -0.00000000000E+00 -0.15409531390E+04  0.15409531390E+04  0.00000000000E+00 0.  1.
         23    2    1    2    0    0  0.18127380910E+03  0.16295554895E+03 -0.15159234047E+03  0.30132666187E+03  0.91666867876E+02 0.  0.
          5    1    1    2  502    0 -0.56642290396E+02 -0.10618225359E+03 -0.84003042808E+03  0.84861747126E+03  0.41800000000E+01 0. -1.
         -5    1    1    2    0  502 -0.12463151870E+03 -0.56773295356E+02 -0.46018728421E+03  0.48015209201E+03  0.41800000000E+01 0. -1.
        -11    1    3    3    0    0  0.15192868154E+03  0.86814013529E+02 -0.12662162137E+03  0.21599081512E+03  0.00000000000E+00 0.  1.
         11    1    3    3    0    0  0.29345127557E+02  0.76141535421E+02 -0.24970719103E+02  0.85335846748E+02  0.00000000000E+00 0. -1.
</event>
<event>
 7    1  0.1758121E-005  0.9533504E+02  0.7561462E-02  0.1290423E+00
         -1   -1    0    0    0  501 -0.00000000000E+00  0.00000000000E+00  0.13909203579E+03  0.13909203579E+03  0.00000000000E+00 0. -1.
          1   -1    0    0  501    0  0.00000000000E+00 -0.00000000000E+00 -0.11410684596E+03  0.11410684596E+03  0.00000000000E+00 0.  1.
         23    2    1    2    0    0  0.34477802910E+02  0.13359239419E+02 -0.39582122645E+02  0.10765240418E+03  0.93032830337E+02 0.  0.
          5    1    1    2  502    0 -0.49087229822E+01  0.34216725972E+02  0.80037569984E+02  0.87283245279E+02  0.41800000000E+01 0.  1.
         -5    1    1    2    0  502 -0.29569079928E+02 -0.47575965391E+02 -0.15470257508E+02  0.58263232300E+02  0.41800000000E+01 0.  1.
        -11    1    3    3    0    0  0.52455448500E+00  0.49840123220E+02 -0.24787483104E+02  0.55666258709E+02  0.00000000000E+00 0. -1.
         11    1    3    3    0    0  0.33953248425E+02 -0.36480883800E+02 -0.14794639541E+02  0.51986145468E+02  0.00000000000E+00 0.  1.
</event>
<event>
 7    1  0.1758121E-005  0.8737001E+02  0.7561462E-02  0.1309349E+00
         -1   -1    0    0    0  501 -0.00000000000E+00  0.00000000000E+00  0.13511967661E+03  0.13511967661E+03  0.00000000000E+00 0.  1.
          1   -1    0    0  501    0  0.00000000000E+00 -0.00000000000E+00 -0.12123688241E+03  0.12123688241E+03  0.00000000000E+00 0. -1.
         23    2    1    2    0    0  0.19700358692E+01 -0.26596655612E+02 -0.24035409297E+02  0.12295021714E+03  0.11759163177E+03 0.  0.
          5    1    1    2  502    0 -0.23848642663E+01  0.40728223248E+02 -0.38096135703E+02  0.55975563436E+02  0.41800000000E+01 0.  1.
         -5    1    1    2    0  502  0.41482839705E+00 -0.14131567636E+02  0.76014339199E+02  0.77430778444E+02  0.41800000000E+01 0.  1.
        -11    1    3    3    0    0  0.50989290790E+02 -0.43613106790E+02 -0.23391164966E+02  0.71057423664E+02  0.00000000000E+00 0.  1.
         11    1    3    3    0    0 -0.49019254921E+02  0.17016451179E+02 -0.64424433103E+00  0.51892793474E+02  0.00000000000E+00 0. -1.
</event>
<event>
 7    1  0.1758121E-005  0.1409713E+03  0.7561462E-02  0.1212028E+00
         -4   -1    0    0    0  501 -0.00000000000E+00  0.00000000000E+00  0.22787899504E+02  0.22787899504E+02  0.00000000000E+00 0.  1.
          4   -1    0    0  501    0  0.00000000000E+00 -0.00000000000E+00 -0.12753547375E+04  0.12753547375E+04  0.00000000000E+00 0. -1.
         23    2    1    2    0    0  0.10533410037E+03  0.76940696814E+02 -0.58428773781E+03  0.60585691253E+03  0.93033834624E+02 0.  0.
          5    1    1    2  502    0 -0.83767538918E+02 -0.63857241538E+02 -0.22717306185E+03  0.25043925472E+03  0.41800000000E+01 0. -1.
         -5    1    1    2    0  502 -0.21566561448E+02 -0.13083455276E+02 -0.44110603833E+03  0.44184646974E+03  0.41800000000E+01 0. -1.
        -11    1    3    3    0    0  0.57681747360E+01 -0.14605676158E+02 -0.19181618540E+02  0.24789758079E+02  0.00000000000E+00 0.  1.
         11    1    3    3    0    0  0.99565925630E+02  0.91546372972E+02 -0.56510611927E+03  0.58106715445E+03  0.00000000000E+00 0. -1.
</event>
<event>
 7    1  0.1758121E-005  0.1375110E+03  0.7561462E-02  0.1216718E+00
         -1   -1    0    0    0  501 -0.00000000000E+00  0.00000000000E+00  0.82058315105E+02  0.82058315105E+02  0.00000000000E+00 0.  1.
          1   -1    0    0  501    0  0.00000000000E+00 -0.00000000000E+00 -0.43875026312E+03  0.43875026312E+03  0.00000000000E+00 0. -1.
         23    2    1    2    0    0 -0.10853457584E+02  0.89401994485E+02 -0.34334032080E+03  0.36609526689E+03  0.89625076789E+02 0.  0.
          5    1    1    2  502    0  0.56215399052E+02 -0.85520429229E+02 -0.28893382704E+02  0.10642469107E+03  0.41800000000E+01 0. -1.
         -5    1    1    2    0  502 -0.45361941468E+02 -0.38815652568E+01  0.15541755495E+02  0.48288620259E+02  0.41800000000E+01 0. -1.
        -11    1    3    3    0    0  0.34714395684E+02  0.11399611465E+02 -0.90249485257E+02  0.97365342902E+02  0.00000000000E+00 0. -1.
         11    1    3    3    0    0 -0.45567853269E+02  0.78002383020E+02 -0.25309083555E+03  0.26872992399E+03  0.00000000000E+00 0.  1.
</event>
<event>
 7    1  0.1758121E-005  0.1066549E+03  0.7561462E-02  0.1266893E+00
         -2   -1    0    0    0  501 -0.00000000000E+00  0.00000000000E+00  0.59070085474E+02  0.59070085474E+02  0.00000000000E+00 0.  1.
          2   -1    0    0  501    0  0.00000000000E+00 -0.00000000000E+00 -0.39212717402E+03  0.39212717402E+03  0.00000000000E+00 0. -1.
         23    2    1    2    0    0 -0.22988259794E+02  0.85362020581E+02 -0.23970066769E+03  0.27181496212E+03  0.92799940144E+02 0.  0.
          5    1    1    2  502    0  0.26566800140E+01 -0.42566110810E+02  0.26532998341E+02  0.50402421957E+02  0.41800000000E+01 0.  1.
         -5    1    1    2    0  502  0.20331579780E+02 -0.42795909771E+02 -0.11988941919E+03  0.12897987542E+03  0.41800000000E+01 0.  1.
        -11    1    3    3    0    0 -0.41502717833E+02  0.66497071165E+01 -0.48259723927E+02  0.63997618282E+02  0.00000000000E+00 0.  1.
         11    1    3    3    0    0  0.18514458039E+02  0.78712313464E+02 -0.19144094377E+03  0.20781734383E+03  0.00000000000E+00 0. -1.
</event>
<event>
 7    1  0.1758121E-005  0.1098615E+03  0.7561462E-02  0.1260827E+00
         -2   -1    0    0    0  501 -0.00000000000E+00  0.00000000000E+00  0.20124943145E+03  0.20124943145E+03  0.00000000000E+00 0.  1.
          2   -1    0    0  501    0  0.00000000000E+00 -0.00000000000E+00 -0.12074293070E+03  0.12074293070E+03  0.00000000000E+00 0. -1.
         23    2    1    2    0    0 -0.83421321078E+02  0.50519499714E+02 -0.17148553886E+02  0.13572572512E+03  0.92822749886E+02 0.  0.
          5    1    1    2  502    0  0.49759360859E+02 -0.14906835550E+02 -0.22252667232E+02  0.56664462745E+02  0.41800000000E+01 0. -1.
         -5    1    1    2    0  502  0.33661960219E+02 -0.35612664164E+02  0.11990772187E+03  0.12960217429E+03  0.41800000000E+01 0. -1.
        -11    1    3    3    0    0  0.10047863062E+02 -0.32957625180E+01  0.19192956034E+02  0.21913264568E+02  0.00000000000E+00 0.  1.
         11    1    3    3    0    0 -0.93469184141E+02  0.53815262232E+02 -0.36341509920E+02  0.11381246055E+03  0.00000000000E+00 0. -1.
</event>
<event>
 7    1  0.1758121E-005  0.9027893E+02  0.7561462E-02  0.1302178E+00
         -2   -1    0    0    0  501 -0.00000000000E+00  0.00000000000E+00  0.37907920290E+02  0.37907920290E+02  0.00000000000E+00 0.  1.
          2   -1    0    0  501    0  0.00000000000E+00 -0.00000000000E+00 -0.35309310935E+03  0.35309310935E+03  0.00000000000E+00 0. -1.
         23    2    1    2    0    0 -0.32757222796E+01 -0.19457535927E+02 -0.19353630584E+03  0.21540124174E+03  0.92477387529E+02 0.  0.
          5    1    1    2  502    0  0.32386488634E+02 -0.42821892764E+02 -0.32335277438E+02  0.62814343211E+02  0.41800000000E+01 0. -1.
         -5    1    1    2    0  502 -0.29110766355E+02  0.62279428691E+02 -0.89313605781E+02  0.11278544469E+03  0.41800000000E+01 0. -1.
        -11    1    3    3    0    0  0.20823170625E+02  0.70712763250E+01 -0.38091390455E+01  0.22318533196E+02  0.00000000000E+00 0.  1.
         11    1    3    3    0    0 -0.24098892905E+02 -0.26528812252E+02 -0.18972716680E+03  0.19308270855E+03  0.00000000000E+00 0. -1.
</event>
<event>
 7    1  0.1758121E-005  0.7311040E+02  0.7561462E-02  0.1349824E+00
         -1   -1    0    0    0  501 -0.00000000000E+00  0.00000000000E+00  0.43179194842E+02  0.43179194842E+02  0.00000000000E+00 0.  1.
          1   -1    0    0  501    0  0.00000000000E+00 -0.00000000000E+00 -0.36647333934E+03  0.36647333934E+03  0.00000000000E+00 0. -1.
         23    2    1    2    0    0 -0.31957743894E+02  0.18349758000E+02 -0.23123233896E+03  0.25002407650E+03  0.87667743388E+02 0.  0.
          5    1    1    2  502    0 -0.48029542567E+01 -0.22030509868E+02  0.26692130478E+02  0.35190253823E+02  0.41800000000E+01 0. -1.
         -5    1    1    2    0  502  0.36760698151E+02  0.36807518682E+01 -0.11875393601E+03  0.12443820387E+03  0.41800000000E+01 0. -1.
        -11    1    3    3    0    0 -0.57295202423E+02  0.20079842378E+02 -0.10523010674E+03  0.12148792391E+03  0.00000000000E+00 0.  1.
         11    1    3    3    0    0  0.25337458530E+02 -0.17300843777E+01 -0.12600223222E+03  0.12853615259E+03  0.00000000000E+00 0. -1.
</event>
<event>
 7    1  0.1758121E-005  0.8422421E+02  0.7561462E-02  0.1317474E+00
          1   -1    0    0  501    0  0.00000000000E+00  0.00000000000E+00  0.40240012812E+03  0.40240012812E+03  0.00000000000E+00 0. -1.
         -1   -1    0    0    0  501 -0.00000000000E+00 -0.00000000000E+00 -0.35585953858E+02  0.35585953858E+02  0.00000000000E+00 0.  1.
         23    2    1    2    0    0  0.28298423396E+02 -0.14812147253E+02  0.23260249565E+03  0.25176049176E+03  0.90880271536E+02 0.  0.
          5    1    1    2  502    0  0.21344193161E+02  0.87062717391E+01  0.13400158561E+03  0.13603408064E+03  0.41800000000E+01 0. -1.
         -5    1    1    2    0  502 -0.49642616557E+02  0.61058755135E+01  0.21009299601E+00  0.50191509575E+02  0.41800000000E+01 0. -1.
        -11    1    3    3    0    0  0.60048324494E+02 -0.61777182045E+00  0.12498709546E+03  0.13866490885E+03  0.00000000000E+00 0.  1.
         11    1    3    3    0    0 -0.31749901099E+02 -0.14194375432E+02  0.10761540019E+03  0.11309558291E+03  0.00000000000E+00 0. -1.
</event>
<event>
 7    1  0.1758121E-005  0.1212255E+03  0.7561462E-02  0.1241089E+00
          1   -1    0    0  501    0  0.00000000000E+00  0.00000000000E+00  0.46974214257E+03  0.46974214257E+03  0.00000000000E+00 0. -1.
         -1   -1    0    0    0  501 -0.00000000000E+00 -0.00000000000E+00 -0.33047800675E+02  0.33047800675E+02  0.00000000000E+00 0.  1.
         23    2    1    2    0    0 -0.90456314314E+01  0.61227361989E+02  0.20506524684E+03  0.23235903671E+03  0.90046394577E+02 0.  0.
          5    1    1    2  502    0  0.83163668600E+01 -0.96918766904E+02  0.12851970383E+03  0.16123645993E+03  0.41800000000E+01 0.  1.
         -5    1    1    2    0  502  0.72926457135E+00  0.35691404915E+02  0.10310939122E+03  0.10919444660E+03  0.41800000000E+01 0.  1.
        -11    1    3    3    0    0 -0.48212115878E+02  0.19762070504E+02  0.10339097996E+03  0.11577841891E+03  0.00000000000E+00 0. -1.
         11    1    3    3    0    0  0.39166484446E+02  0.41465291485E+02  0.10167426688E+03  0.11658061780E+03  0.00000000000E+00 0.  1.
</event>
<event>
 7    1  0.1758121E-005  0.1221676E+03  0.7561462E-02  0.1239563E+00
          2   -1    0    0  501    0  0.00000000000E+00  0.00000000000E+00  0.14063989224E+03  0.14063989224E+03  0.00000000000E+00 0. -1.
         -2   -1    0    0    0  501 -0.00000000000E+00 -0.00000000000E+00 -0.12793972410E+03  0.12793972410E+03  0.00000000000E+00 0.  1.
         23    2    1    2    0    0 -0.33029590280E+02  0.74929923979E+02 -0.10522748098E+02  0.11727710957E+03  0.83293126120E+02 0.  0.
          5    1    1    2  502    0  0.13730340629E+02  0.32262566149E+02 -0.11125554389E+02  0.37022233708E+02  0.41800000000E+01 0.  1.
         -5    1    1    2    0  502  0.19299249651E+02 -0.10719249013E+03  0.34348470630E+02  0.11428027306E+03  0.41800000000E+01 0.  1.
        -11    1    3    3    0    0 -0.11041763496E+02  0.77142861279E+02  0.19180587246E+02  0.80254822376E+02  0.00000000000E+00 0. -1.
         11    1    3    3    0    0 -0.21987826784E+02 -0.22129373000E+01 -0.29703335345E+02  0.37022287190E+02  0.00000000000E+00 0.  1.
</event>
<event>
 7    1  0.1758121E-005  0.9635210E+02  0.7561462E-02  0.1288160E+00
          1   -1    0    0  501    0  0.00000000000E+00  0.00000000000E+00  0.38292389240E+03  0.38292389240E+03  0.00000000000E+00 0. -1.
         -1   -1    0    0    0  501 -0.00000000000E+00 -0.00000000000E+00 -0.44637360129E+02  0.44637360129E+02  0.00000000000E+00 0.  1.
         23    2    1    2    0    0  0.72346051408E+02 -0.52804863202E+01  0.16047165216E+03  0.19837745795E+03  0.91327049581E+02 0.  0.
          5    1    1    2  502    0  0.44828673931E+01 -0.13349011708E+01 -0.17801937684E+02  0.18874836331E+02  0.41800000000E+01 0. -1.
         -5    1    1    2    0  502 -0.76828918801E+02  0.66153874910E+01  0.19561681780E+03  0.21030895826E+03  0.41800000000E+01 0. -1.
        -11    1    3    3    0    0  0.56781688390E+02  0.34532279135E+02  0.12960707652E+03  0.14565243809E+03  0.00000000000E+00 0. -1.
         11    1    3    3    0    0  0.15564363018E+02 -0.39812765455E+02  0.30864575641E+02  0.52725019856E+02  0.00000000000E+00 0.  1.
</event>
<event>
 7    1  0.1988980E-005  0.1162871E+03  0.7561462E-02  0.1249351E+00
          1   -1    0    0  501    0  0.00000000000E+00  0.00000000000E+00  0.91891148040E+03  0.91891148040E+03  0.00000000000E+00 0. -1.
         -1   -1    0    0    0  501 -0.00000000000E+00 -0.00000000000E+00 -0.16536474725E+02  0.16536474725E+02  0.00000000000E+00 0.  1.
         23    2    1    2    0    0 -0.45891129709E+02  0.32673619695E+02  0.43064497648E+03  0.44417377612E+03  0.93068181531E+02 0.  0.
          5    1    1    2  502    0  0.98817563424E+01  0.42902283317E+02  0.87893125682E+02  0.98391711868E+02  0.41800000000E+01 0.  1.
         -5    1    1    2    0  502  0.36009373367E+02 -0.75575903012E+02  0.38383690351E+03  0.39288246714E+03  0.41800000000E+01 0.  1.
        -11    1    3    3    0    0 -0.13141319934E+01  0.54763997707E+02  0.16341450307E+03  0.17235173977E+03  0.00000000000E+00 0.  1.
         11    1    3    3    0    0 -0.44576997716E+02 -0.22090378012E+02  0.26723047341E+03  0.27182203635E+03  0.00000000000E+00 0. -1.
</event>
<event>
 7    1  0.1758121E-005  0.8465912E+02  0.7561462E-02  0.1316326E+00
         -2   -1    0    0    0  501 -0.00000000000E+00  0.00000000000E+00  0.38096726809E+02  0.38096726809E+02  0.00000000000E+00 0.  1.
          2   -1    0    0  501    0  0.00000000000E+00 -0.00000000000E+00 -0.33664811722E+03  0.33664811722E+03  0.00000000000E+00 0. -1.
         23    2    1    2    0    0  0.35623342610E+01 -0.11245860072E+02 -0.17981927450E+03  0.20187385325E+03  0.90988579226E+02 0.  0.
          5    1    1    2  502    0  0.47222858079E+01 -0.33556456604E+02 -0.12230204621E+03  0.12697873314E+03  0.41800000000E+01 0. -1.
         -5    1    1    2    0  502 -0.82846200689E+01  0.44802316676E+02  0.35699302956E+01  0.45892257643E+02  0.41800000000E+01 0. -1.
        -11    1    3    3    0    0  0.45850204263E+02 -0.10917012317E+02 -0.71968271526E+02  0.86028219181E+02  0.00000000000E+00 0.  1.
         11    1    3    3    0    0 -0.42287870002E+02 -0.32884775456E+00 -0.10785100297E+03  0.11584563407E+03  0.00000000000E+00 0. -1.
</event>
<event>
 7    1  0.1758121E-005  0.1088715E+03  0.7561462E-02  0.1262674E+00
          2   -1    0    0  501    0  0.00000000000E+00  0.00000000000E+00  0.78613548184E+03  0.78613548184E+03  0.00000000000E+00 0. -1.
         -2   -1    0    0    0  501 -0.00000000000E+00 -0.00000000000E+00 -0.16301520443E+02  0.16301520443E+02  0.00000000000E+00 0.  1.
         23    2    1    2    0    0 -0.24261501405E+02  0.19078487719E+02  0.39715554362E+03  0.40811645592E+03  0.88735036057E+02 0.  0.
          5    1    1    2  502    0  0.70468595800E+02 -0.30597607341E+02  0.27517872209E+03  0.28573210891E+03  0.41800000000E+01 0.  1.
         -5    1    1    2    0  502 -0.46207094395E+02  0.11519119621E+02  0.97499695689E+02  0.10858843745E+03  0.41800000000E+01 0.  1.
        -11    1    3    3    0    0 -0.57561036185E+02  0.94065767826E+01  0.22005592787E+03  0.22765405325E+03  0.00000000000E+00 0.  1.
         11    1    3    3    0    0  0.33299534780E+02  0.96719109368E+01  0.17709961575E+03  0.18046240267E+03  0.00000000000E+00 0. -1.
</event>
<event>
 7    1  0.1758121E-005  0.3611952E+02  0.7561462E-02  0.1538878E+00
          2   -1    0    0  501    0  0.00000000000E+00  0.00000000000E+00  0.13087143083E+03  0.13087143083E+03  0.00000000000E+00 0. -1.
         -2   -1    0    0    0  501 -0.00000000000E+00 -0.00000000000E+00 -0.10128943654E+03  0.10128943654E+03  0.00000000000E+00 0.  1.
         23    2    1    2    0    0  0.62369558459E+01 -0.23309528681E+01  0.49911268842E+02  0.10525455921E+03  0.92428645549E+02 0.  0.
          5    1    1    2  502    0 -0.80925882591E+01  0.12094687641E+02  0.51804224502E+02  0.53971488123E+02  0.41800000000E+01 0. -1.
         -5    1    1    2    0  502  0.18556324132E+01 -0.97637347734E+01 -0.72133499052E+02  0.72934820038E+02  0.41800000000E+01 0. -1.
        -11    1    3    3    0    0  0.25967839890E+02 -0.48775130014E+01 -0.19634891422E+02  0.32918806218E+02  0.00000000000E+00 0.  1.
         11    1    3    3    0    0 -0.19730884044E+02  0.25465601334E+01  0.69546160265E+02  0.72335752994E+02  0.00000000000E+00 0. -1.
</event>
<event>
 7    1  0.1758121E-005  0.2035783E+03  0.7561462E-02  0.1146755E+00
         -2   -1    0    0    0  501 -0.00000000000E+00  0.00000000000E+00  0.28171079342E+02  0.28171079342E+02  0.00000000000E+00 0.  1.
          2   -1    0    0  501    0  0.00000000000E+00 -0.00000000000E+00 -0.16357690837E+04  0.16357690837E+04  0.00000000000E+00 0. -1.
         23    2    1    2    0    0  0.31661572447E+02  0.17979741722E+03 -0.89022882900E+03  0.91321032609E+03  0.90089762283E+02 0.  0.
          5    1    1    2  502    0 -0.61041529279E+02 -0.15262369290E+03 -0.66302706999E+03  0.68311230985E+03  0.41800000000E+01 0.  1.
         -5    1    1    2    0  502  0.29379956832E+02 -0.27173724327E+02 -0.54342105395E+02  0.67617527136E+02  0.41800000000E+01 0.  1.
        -11    1    3    3    0    0 -0.21408294246E+02  0.12262978263E+03 -0.50016469124E+03  0.51542322126E+03  0.00000000000E+00 0. -1.
         11    1    3    3    0    0  0.53069866693E+02  0.57167634595E+02 -0.39006413776E+03  0.39778710482E+03  0.00000000000E+00 0.  1.
</event>
<event>
 7    1  0.1758121E-005  0.1852580E+03  0.7561462E-02  0.1162809E+00
          4   -1    0    0  501    0  0.00000000000E+00  0.00000000000E+00  0.13803400892E+04  0.13803400892E+04  0.00000000000E+00 0. -1.
         -4   -1    0    0    0  501 -0.00000000000E+00 -0.00000000000E+00 -0.26352729173E+02  0.26352729173E+02  0.00000000000E+00 0.  1.
         23    2    1    2    0    0 -0.91073367894E+02 -0.74927265874E+02  0.71342479265E+03  0.72881159932E+03  0.91010763223E+02 0.  0.
          5    1    1    2  502    0 -0.20088985904E+01 -0.58580010400E+02  0.18433148260E+03  0.19347149964E+03  0.41800000000E+01 0. -1.
         -5    1    1    2    0  502  0.93082266485E+02  0.13350727627E+03  0.45623108474E+03  0.48440971938E+03  0.41800000000E+01 0.  1.
        -11    1    3    3    0    0 -0.51697990046E+02  0.12389467264E+02  0.24870766469E+03  0.25432593960E+03  0.00000000000E+00 0.  1.
         11    1    3    3    0    0 -0.39375377849E+02 -0.87316733138E+02  0.46471712796E+03  0.47448565972E+03  0.00000000000E+00 0. -1.
</event>
<event>
 7    1  0.1758121E-005  0.1015812E+03  0.7561462E-02  0.1277006E+00
         -1   -1    0    0    0  501 -0.00000000000E+00  0.00000000000E+00  0.40297683857E+02  0.40297683857E+02  0.00000000000E+00 0.  1.
          1   -1    0    0  501    0  0.00000000000E+00 -0.00000000000E+00 -0.30356067567E+03  0.30356067567E+03  0.00000000000E+00 0. -1.
         23    2    1    2    0    0  0.20747914172E+02  0.33390427389E+01 -0.10730835549E+03  0.14283293461E+03  0.91894172301E+02 0.  0.
          5    1    1    2  502    0 -0.84153535820E+01 -0.63173301247E+02 -0.96165557217E+02  0.11544250067E+03  0.41800000000E+01 0.  1.
         -5    1    1    2    0  502 -0.12332560590E+02  0.59834258508E+02 -0.59789079108E+02  0.85582924246E+02  0.41800000000E+01 0.  1.
        -11    1    3    3    0    0  0.10252849285E+02  0.39291109968E+02 -0.95156021745E+02  0.10345811092E+03  0.00000000000E+00 0. -1.
         11    1    3    3    0    0  0.10495064887E+02 -0.35952067229E+02 -0.12152333740E+02  0.39374823687E+02  0.00000000000E+00 0.  1.
</event>
<event>
 7    1  0.1758121E-005  0.1037615E+03  0.7561462E-02  0.1272579E+00
         -4   -1    0    0    0  501 -0.00000000000E+00  0.00000000000E+00  0.80114676368E+02  0.80114676368E+02  0.00000000000E+00 0.  1.
          4   -1    0    0  501    0  0.00000000000E+00 -0.00000000000E+00 -0.16279724979E+03  0.16279724979E+03  0.00000000000E+00 0. -1.
         23    2    1    2    0    0  0.37662725170E+02 -0.13199925094E+01 -0.39281001561E+02  0.10524770553E+03  0.90076962583E+02 0.  0.
          5    1    1    2  502    0  0.91463524037E+01  0.48406251648E+02 -0.50607967820E+02  0.70749273973E+02  0.41800000000E+01 0. -1.
         -5    1    1    2    0  502 -0.46809077573E+02 -0.47086259138E+02  0.72063959609E+01  0.66914946653E+02  0.41800000000E+01 0. -1.
        -11    1    3    3    0    0  0.59377057624E+02  0.18464326201E+02 -0.86041575708E+01  0.62774181330E+02  0.00000000000E+00 0.  1.
         11    1    3    3    0    0 -0.21714332454E+02 -0.19784318710E+02 -0.30676843990E+02  0.42473524200E+02  0.00000000000E+00 0. -1.
</event>
<event>
 7    1  0.1758121E-005  0.1639649E+03  0.7561462E-02  0.1184292E+00
         -2   -1    0    0    0  501 -0.00000000000E+00  0.00000000000E+00  0.13929618457E+03  0.13929618457E+03  0.00000000000E+00 0.  1.
          2   -1    0    0  501    0  0.00000000000E+00 -0.00000000000E+00 -0.24481209423E+03  0.24481209423E+03  0.00000000000E+00 0. -1.
         23    2    1    2    0    0 -0.13563003781E+03 -0.35028280190E+02 -0.26827777813E+02  0.18048420828E+03  0.11059987435E+03 0.  0.
          5    1    1    2  502    0  0.32881141512E+02  0.71233378018E+02 -0.37799856895E+02  0.87187528881E+02  0.41800000000E+01 0. -1.
         -5    1    1    2    0  502  0.10274889630E+03 -0.36205097828E+02 -0.40888274956E+02  0.11643654164E+03  0.41800000000E+01 0. -1.
        -11    1    3    3    0    0 -0.31200955649E+02 -0.11815859840E+02  0.41726920020E+02  0.53425181624E+02  0.00000000000E+00 0.  1.
         11    1    3    3    0    0 -0.10442908216E+03 -0.23212420349E+02 -0.68554697833E+02  0.12705902666E+03  0.00000000000E+00 0. -1.
</event>
<event>
 7    1  0.1758121E-005  0.1366121E+03  0.7561462E-02  0.1217962E+00
          1   -1    0    0  501    0  0.00000000000E+00  0.00000000000E+00  0.13061196899E+03  0.13061196899E+03  0.00000000000E+00 0. -1.
         -1   -1    0    0    0  501 -0.00000000000E+00 -0.00000000000E+00 -0.19536659281E+03  0.19536659281E+03  0.00000000000E+00 0.  1.
         23    2    1    2    0    0  0.10401460078E+03  0.47265662442E+01  0.24585142372E+02  0.14031520722E+03  0.90788493479E+02 0.  0.
          5    1    1    2  502    0 -0.10908037531E+03 -0.33172585582E+02 -0.10274827697E+03  0.15353706240E+03  0.41800000000E+01 0.  1.
         -5    1    1    2    0  502  0.50657745267E+01  0.28446019338E+02  0.13408510780E+02  0.32126292177E+02  0.41800000000E+01 0.  1.
        -11    1    3    3    0    0  0.62019988373E+02  0.41084417912E+02 -0.97247822243E+01  0.75026526924E+02  0.00000000000E+00 0.  1.
         11    1    3    3    0    0  0.41994612406E+02 -0.36357851668E+02  0.34309924596E+02  0.65288680297E+02  0.00000000000E+00 0. -1.
</event>
<event>
 7    1  0.1758121E-005  0.1202554E+03  0.7561462E-02  0.1242676E+00
          2   -1    0    0  501    0  0.00000000000E+00  0.00000000000E+00  0.62596803281E+03  0.62596803281E+03  0.00000000000E+00 0. -1.
         -2   -1    0    0    0  501 -0.00000000000E+00 -0.00000000000E+00 -0.27508468022E+02  0.27508468022E+02  0.00000000000E+00 0.  1.
         23    2    1    2    0    0  0.14049939653E+02  0.18628619462E+02  0.21970981370E+03  0.23955047183E+03  0.92561331289E+02 0.  0.
          5    1    1    2  502    0 -0.69890538845E+02 -0.63646574482E+02  0.19904961014E+03  0.22039463142E+03  0.41800000000E+01 0. -1.
         -5    1    1    2    0  502  0.55840599192E+02  0.45017955020E+02  0.17970014095E+03  0.19353139758E+03  0.41800000000E+01 0.  1.
        -11    1    3    3    0    0 -0.28420530480E+02  0.22046451634E+01  0.16903795323E+03  0.17142466755E+03  0.00000000000E+00 0. -1.
         11    1    3    3    0    0  0.42470470132E+02  0.16423974298E+02  0.50671860475E+02  0.68125804282E+02  0.00000000000E+00 0.  1.
</event>
<event>
 7    1  0.1758121E-005  0.6716970E+02  0.7561462E-02  0.1369991E+00
          4   -1    0    0  501    0  0.00000000000E+00  0.00000000000E+00  0.16465293618E+03  0.16465293618E+03  0.00000000000E+00 0. -1.
         -4   -1    0    0    0  501 -0.00000000000E+00 -0.00000000000E+00 -0.12012201815E+03  0.12012201815E+03  0.00000000000E+00 0.  1.
         23    2    1    2    0    0 -0.18512566432E+02 -0.26752513239E+02  0.58471724244E+02  0.11393980138E+03  0.92222143333E+02 0.  0.
          5    1    1    2  502    0  0.44771375542E+02 -0.10284193990E+01  0.67303743496E+02  0.80949366909E+02  0.41800000000E+01 0. -1.
         -5    1    1    2    0  502 -0.26258809110E+02  0.27780932638E+02 -0.81244549713E+02  0.89885786041E+02  0.41800000000E+01 0.  1.
        -11    1    3    3    0    0 -0.10018974728E+02 -0.36574293865E+02  0.80150996196E+02  0.88669278882E+02  0.00000000000E+00 0.  1.
         11    1    3    3    0    0 -0.84935917043E+01  0.98217806267E+01 -0.21679271952E+02  0.25270522493E+02  0.00000000000E+00 0. -1.
</event>
<event>
 7    1  0.1758121E-005  0.9643680E+02  0.7561462E-02  0.1287972E+00
          2   -1    0    0  501    0  0.00000000000E+00  0.00000000000E+00  0.20840305841E+03  0.20840305841E+03  0.00000000000E+00 0. -1.
         -2   -1    0    0    0  501 -0.00000000000E+00 -0.00000000000E+00 -0.13364196887E+03  0.13364196887E+03  0.00000000000E+00 0.  1.
         23    2    1    2    0    0  0.76043818448E+02 -0.33565944763E+02  0.13291266068E+03  0.18098924342E+03  0.90454385700E+02 0.  0.
          5    1    1    2  502    0 -0.13776239716E+02  0.11455957145E+02  0.39211893927E+02  0.43313609411E+02  0.41800000000E+01 0.  1.
         -5    1    1    2    0  502 -0.62267578732E+02  0.22109987618E+02 -0.97363465066E+02  0.11774217445E+03  0.41800000000E+01 0.  1.
        -11    1    3    3    0    0  0.13774202950E+02  0.21238964659E+02  0.76739146509E+02  0.80806676046E+02  0.00000000000E+00 0. -1.
         11    1    3    3    0    0  0.62269615499E+02 -0.54804909422E+02  0.56173514172E+02  0.10018256737E+03  0.00000000000E+00 0.  1.
</event>
<event>
 7    1  0.1758121E-005  0.1541868E+03  0.7561462E-02  0.1195421E+00
         -2   -1    0    0    0  501 -0.00000000000E+00  0.00000000000E+00  0.79678932454E+02  0.79678932454E+02  0.00000000000E+00 0.  1.
          2   -1    0    0  501    0  0.00000000000E+00 -0.00000000000E+00 -0.37058180250E+03  0.37058180250E+03  0.00000000000E+00 0. -1.
         23    2    1    2    0    0 -0.12960611787E+03 -0.18710564953E+02 -0.11709170268E+03  0.19924965036E+03  0.94032575742E+02 0.  0.
          5    1    1    2  502    0 -0.59853880602E+01  0.38463008385E+02 -0.16872988620E+02  0.42630951540E+02  0.41800000000E+01 0.  1.
         -5    1    1    2    0  502  0.13559150593E+03 -0.19752443431E+02 -0.15693817874E+03  0.20838013305E+03  0.41800000000E+01 0.  1.
        -11    1    3    3    0    0 -0.26515307096E+02  0.33100502685E+01 -0.84932777996E+02  0.89037041288E+02  0.00000000000E+00 0. -1.
         11    1    3    3    0    0 -0.10309081078E+03 -0.22020615222E+02 -0.32158924684E+02  0.11021260907E+03  0.00000000000E+00 0.  1.
</event>
<event>
 7    1  0.1758121E-005  0.1058985E+03  0.7561462E-02  0.1268359E+00
         -2   -1    0    0    0  501 -0.00000000000E+00  0.00000000000E+00  0.32356424952E+03  0.32356424952E+03  0.00000000000E+00 0.  1.
          2   -1    0    0  501    0  0.00000000000E+00 -0.00000000000E+00 -0.56797131574E+02  0.56797131574E+02  0.00000000000E+00 0. -1.
         23    2    1    2    0    0 -0.29409579602E+01  0.71997042758E+02  0.70361340079E+02  0.13663444937E+03  0.92336510530E+02 0.  0.
          5    1    1    2  502    0 -0.54785037423E+02 -0.56228530518E+02  0.76708521903E+02  0.10983950884E+03  0.41800000000E+01 0. -1.
         -5    1    1    2    0  502  0.57725995384E+02 -0.15768512240E+02  0.11969725596E+03  0.13388742288E+03  0.41800000000E+01 0. -1.
        -11    1    3    3    0    0 -0.78879353198E+01  0.51961644243E+02  0.92487779413E+02  0.10637772952E+03  0.00000000000E+00 0.  1.
         11    1    3    3    0    0  0.49469773597E+01  0.20035398515E+02 -0.22126439334E+02  0.30256719853E+02  0.00000000000E+00 0. -1.
</event>
<event>
 7    1  0.1758121E-005  0.1144796E+03  0.7561462E-02  0.1252492E+00
         -2   -1    0    0    0  501 -0.00000000000E+00  0.00000000000E+00  0.10513838728E+03  0.10513838728E+03  0.00000000000E+00 0. -1.
          2   -1    0    0  501    0  0.00000000000E+00 -0.00000000000E+00 -0.17243480996E+03  0.17243480996E+03  0.00000000000E+00 0.  1.
         23    2    1    2    0    0  0.40177247735E+02  0.70943203490E+02 -0.41885982244E+02  0.12611831724E+03  0.86627045887E+02 0.  0.
          5    1    1    2  502    0  0.42688373214E+02 -0.34087757911E+02 -0.26046574393E+02  0.60664395527E+02  0.41800000000E+01 0. -1.
         -5    1    1    2    0  502 -0.82865620949E+02 -0.36855445579E+02  0.63613395624E+00  0.90790484471E+02  0.41800000000E+01 0. -1.
        -11    1    3    3    0    0  0.17864119935E+02  0.15622154281E+02  0.26365701112E+02  0.35472928841E+02  0.00000000000E+00 0. -1.
         11    1    3    3    0    0  0.22313127800E+02  0.55321049210E+02 -0.68251683356E+02  0.90645388403E+02  0.00000000000E+00 0.  1.
</event>
<event>
 7    1  0.1758121E-005  0.6631120E+02  0.7561462E-02  0.1373106E+00
         -2   -1    0    0    0  501 -0.00000000000E+00  0.00000000000E+00  0.36847850941E+03  0.36847850941E+03  0.00000000000E+00 0.  1.
          2   -1    0    0  501    0  0.00000000000E+00 -0.00000000000E+00 -0.47449384369E+02  0.47449384369E+02  0.00000000000E+00 0. -1.
         23    2    1    2    0    0  0.34428092990E+02  0.34369598478E+02  0.51237975616E+02  0.11459378129E+03  0.90221071142E+02 0.  0.
          5    1    1    2  502    0 -0.11526822530E+02 -0.45241841251E+02  0.21245414608E+02  0.51463889080E+02  0.41800000000E+01 0. -1.
         -5    1    1    2    0  502 -0.22901270460E+02  0.10872242773E+02  0.24854573482E+03  0.24987022341E+03  0.41800000000E+01 0. -1.
        -11    1    3    3    0    0  0.31449841528E+02  0.66108973797E+01 -0.20156269259E+02  0.37935098349E+02  0.00000000000E+00 0. -1.
         11    1    3    3    0    0  0.29782514617E+01  0.27758701098E+02  0.71394244875E+02  0.76658682938E+02  0.00000000000E+00 0.  1.
</event>
<event>
 7    1  0.1758121E-005  0.1173856E+03  0.7561462E-02  0.1247473E+00
         -2   -1    0    0    0  501 -0.00000000000E+00  0.00000000000E+00  0.43548477640E+03  0.43548477640E+03  0.00000000000E+00 0. -1.
          2   -1    0    0  501    0  0.00000000000E+00 -0.00000000000E+00 -0.36218583450E+02  0.36218583450E+02  0.00000000000E+00 0.  1.
         23    2    1    2    0    0 -0.39522316113E+01  0.49266419803E+02  0.10196428056E+03  0.14539260030E+03  0.91101555738E+02 0.  0.
          5    1    1    2  502    0 -0.58540598642E+02 -0.34941935695E+02  0.18071236062E+03  0.19318998483E+03  0.41800000000E+01 0.  1.
         -5    1    1    2    0  502  0.62492830253E+02 -0.14324484109E+02  0.11658955177E+03  0.13312077471E+03  0.41800000000E+01 0.  1.
        -11    1    3    3    0    0  0.24910891443E+02 -0.16850860821E+02  0.41562474286E+02  0.51302468670E+02  0.00000000000E+00 0. -1.
         11    1    3    3    0    0 -0.28863123054E+02  0.66117280624E+02  0.60401806272E+02  0.94090131632E+02  0.00000000000E+00 0.  1.
</event>
<event>
 7    1  0.1758121E-005  0.1000081E+03  0.7561462E-02  0.1280279E+00
          1   -1    0    0  501    0  0.00000000000E+00  0.00000000000E+00  0.20022956185E+03  0.20022956185E+03  0.00000000000E+00 0. -1.
         -1   -1    0    0    0  501 -0.00000000000E+00 -0.00000000000E+00 -0.70943813822E+02  0.70943813822E+02  0.00000000000E+00 0.  1.
         23    2    1    2    0    0 -0.23253500425E+02 -0.35613164139E+02  0.85223525929E+02  0.13189566565E+03  0.91238119793E+02 0.  0.
          5    1    1    2  502    0  0.55971425292E+02  0.36167748675E+02 -0.17858246506E+02  0.69117985081E+02  0.41800000000E+01 0.  1.
         -5    1    1    2    0  502 -0.32717924867E+02 -0.55458453546E+00  0.61920468605E+02  0.70159724941E+02  0.41800000000E+01 0.  1.
        -11    1    3    3    0    0  0.34860564466E+02 -0.73191443432E+01  0.36061759613E+02  0.50688059099E+02  0.00000000000E+00 0. -1.
         11    1    3    3    0    0 -0.58114064892E+02 -0.28294019796E+02  0.49161766316E+02  0.81207606551E+02  0.00000000000E+00 0.  1.
</event>
<event>
 7    1  0.1758121E-005  0.1076768E+03  0.7561462E-02  0.1264934E+00
         -1   -1    0    0    0  501 -0.00000000000E+00  0.00000000000E+00  0.13872364259E+04  0.13872364259E+04  0.00000000000E+00 0.  1.
          1   -1    0    0  501    0  0.00000000000E+00 -0.00000000000E+00 -0.88671602133E+01  0.88671602133E+01  0.00000000000E+00 0. -1.
         23    2    1    2    0    0  0.62065861243E+00 -0.41598405829E+01  0.45272188397E+03  0.46203255232E+03  0.92191570592E+02 0.  0.
          5    1    1    2  502    0 -0.61730627277E+02  0.74168077098E+01  0.53866902926E+03  0.54226144512E+03  0.41800000000E+01 0.  1.
         -5    1    1    2    0  502  0.61109968664E+02 -0.32569671269E+01  0.38697835248E+03  0.39180958869E+03  0.41800000000E+01 0.  1.
        -11    1    3    3    0    0  0.33356222680E+02 -0.33836919664E+02  0.20845023666E+03  0.21379680981E+03  0.00000000000E+00 0.  1.
         11    1    3    3    0    0 -0.32735564068E+02  0.29677079081E+02  0.24427164731E+03  0.24823574250E+03  0.00000000000E+00 0. -1.
</event>
<event>
 7    1  0.1758121E-005  0.1350419E+03  0.7561462E-02  0.1220161E+00
         -2   -1    0    0    0  501 -0.00000000000E+00  0.00000000000E+00  0.10637236373E+03  0.10637236373E+03  0.00000000000E+00 0.  1.
          2   -1    0    0  501    0  0.00000000000E+00 -0.00000000000E+00 -0.19057283025E+03  0.19057283025E+03  0.00000000000E+00 0. -1.
         23    2    1    2    0    0 -0.84885377564E+02 -0.31616579765E+02 -0.48021252596E+02  0.13832009237E+03  0.92850804043E+02 0.  0.
          5    1    1    2  502    0  0.17036772860E+02  0.63120452284E+02  0.15857272449E+02  0.67404514801E+02  0.41800000000E+01 0.  1.
         -5    1    1    2    0  502  0.67848604704E+02 -0.31503872520E+02 -0.52036486375E+02  0.91220586812E+02  0.41800000000E+01 0.  1.
        -11    1    3    3    0    0 -0.11360258030E+02  0.31036073415E+02 -0.10299953571E+02  0.34617659642E+02  0.00000000000E+00 0.  1.
         11    1    3    3    0    0 -0.73525119535E+02 -0.62652653180E+02 -0.37721299025E+02  0.10370243273E+03  0.00000000000E+00 0. -1.
</event>
<event>
 7    1  0.1758121E-005  0.1468357E+03  0.7561462E-02  0.1204416E+00
         -1   -1    0    0    0  501 -0.00000000000E+00  0.00000000000E+00  0.23522961379E+03  0.23522961379E+03  0.00000000000E+00 0.  1.
          1   -1    0    0  501    0  0.00000000000E+00 -0.00000000000E+00 -0.13473179876E+03  0.13473179876E+03  0.00000000000E+00 0. -1.
         23    2    1    2    0    0 -0.95329721025E+02  0.41971097932E+02 -0.49643748962E+02  0.14851220225E+03  0.93498896434E+02 0.  0.
          5    1    1    2  502    0 -0.24452929470E+02 -0.31786889998E+02  0.54381928323E+02  0.67699473140E+02  0.41800000000E+01 0. -1.
         -5    1    1    2    0  502  0.11978265049E+03 -0.10184207934E+02  0.95759635678E+02  0.15374973716E+03  0.41800000000E+01 0. -1.
        -11    1    3    3    0    0 -0.10568919312E+03  0.18351045474E+02 -0.19825998507E+02  0.10908728903E+03  0.00000000000E+00 0.  1.
         11    1    3    3    0    0  0.10359472092E+02  0.23620052458E+02 -0.29817750456E+02  0.39424913220E+02  0.00000000000E+00 0. -1.
</event>
<event>
 7    1  0.1758121E-005  0.1442261E+03  0.7561462E-02  0.1207753E+00
          1   -1    0    0  501    0  0.00000000000E+00  0.00000000000E+00  0.54291162824E+02  0.54291162824E+02  0.00000000000E+00 0. -1.
         -1   -1    0    0    0  501 -0.00000000000E+00 -0.00000000000E+00 -0.45263291879E+03  0.45263291879E+03  0.00000000000E+00 0.  1.
         23    2    1    2    0    0 -0.11056576775E+03 -0.18389994499E+02 -0.15904170114E+03  0.21456259202E+03  0.90442591178E+02 0.  0.
          5    1    1    2  502    0  0.95714597345E+02 -0.40016629150E+02 -0.17946204351E+03  0.20733237136E+03  0.41800000000E+01 0.  1.
         -5    1    1    2    0  502  0.14851170406E+02  0.58406623649E+02 -0.59838011326E+02  0.85029118235E+02  0.41800000000E+01 0.  1.
        -11    1    3    3    0    0 -0.10755245513E+03 -0.20214055891E+01 -0.16492839320E+03  0.19690858683E+03  0.00000000000E+00 0.  1.
         11    1    3    3    0    0 -0.30133126179E+01 -0.16368588910E+02  0.58866920609E+01  0.17654005190E+02  0.00000000000E+00 0. -1.
</event>
<event>
 7    1  0.1758121E-005  0.1028742E+03  0.7561462E-02  0.1274365E+00
          2   -1    0    0  501    0  0.00000000000E+00  0.00000000000E+00  0.23325081647E+03  0.23325081647E+03  0.00000000000E+00 0. -1.
         -2   -1    0    0    0  501 -0.00000000000E+00 -0.00000000000E+00 -0.81440828576E+02  0.81440828576E+02  0.00000000000E+00 0.  1.
         23    2    1    2    0    0  0.50533731732E+02 -0.45206810612E+02  0.13112479990E+03  0.17090756223E+03  0.86129947818E+02 0.  0.
          5    1    1    2  502    0 -0.35557382196E+02 -0.32860924978E+02  0.38754997046E+02  0.62157783222E+02  0.41800000000E+01 0.  1.
         -5    1    1    2    0  502 -0.14976349536E+02  0.78067735590E+02 -0.18069809053E+02  0.81626299590E+02  0.41800000000E+01 0.  1.
        -11    1    3    3    0    0  0.70598347357E+01 -0.31030838863E+02  0.11958516598E+03  0.12374718643E+03  0.00000000000E+00 0. -1.
         11    1    3    3    0    0  0.43473896997E+02 -0.14175971749E+02  0.11539633925E+02  0.47160375806E+02  0.00000000000E+00 0.  1.
</event>
<event>
 7    1  0.1758121E-005  0.7681495E+02  0.7561462E-02  0.1338341E+00
          2   -1    0    0  501    0  0.00000000000E+00  0.00000000000E+00  0.25293374059E+03  0.25293374059E+03  0.00000000000E+00 0. -1.
         -2   -1    0    0    0  501 -0.00000000000E+00 -0.00000000000E+00 -0.67085060409E+02  0.67085060409E+02  0.00000000000E+00 0.  1.
         23    2    1    2    0    0  0.11369434683E+02  0.40273300747E+02  0.15350418256E+03  0.18420905673E+03  0.92834474843E+02 0.  0.
          5    1    1    2  502    0  0.43449679115E+02 -0.25537562437E+02  0.54847528455E+02  0.74604058121E+02  0.41800000000E+01 0. -1.
         -5    1    1    2    0  502 -0.54819113797E+02 -0.14735738309E+02 -0.22503030829E+02  0.61205686154E+02  0.41800000000E+01 0. -1.
        -11    1    3    3    0    0  0.11052189188E+02  0.74824057298E+01 -0.10485381513E+02  0.16972934538E+02  0.00000000000E+00 0.  1.
         11    1    3    3    0    0  0.31724549463E+00  0.32790895017E+02  0.16398956407E+03  0.16723612219E+03  0.00000000000E+00 0. -1.
</event>
<event>
 7    1  0.1758121E-005  0.1001230E+03  0.7561462E-02  0.1280038E+00
          3   -1    0    0  501    0  0.00000000000E+00  0.00000000000E+00  0.44647061077E+02  0.44647061077E+02  0.00000000000E+00 0. -1.
         -3   -1    0    0    0  501 -0.00000000000E+00 -0.00000000000E+00 -0.52343934302E+03  0.52343934302E+03  0.00000000000E+00 0.  1.
         23    2    1    2    0    0 -0.72942280979E+02  0.27921392827E+02 -0.84388818758E+02  0.14701460306E+03  0.91605896363E+02 0.  0.
          5    1    1    2  502    0  0.23363616929E+02  0.10717516066E+02 -0.32984156038E+03  0.33086802672E+03  0.41800000000E+01 0.  1.
         -5    1    1    2    0  502  0.49578664050E+02 -0.38638908893E+02 -0.64561902804E+02  0.90203774328E+02  0.41800000000E+01 0.  1.
        -11    1    3    3    0    0 -0.37134091564E+02 -0.26811777325E+02 -0.63616591437E+02  0.78389303261E+02  0.00000000000E+00 0.  1.
         11    1    3    3    0    0 -0.35808189415E+02  0.54733170153E+02 -0.20772227321E+02  0.68625299795E+02  0.00000000000E+00 0. -1.
</event>
<event>
 7    1  0.1758121E-005  0.2479931E+03  0.7561462E-02  0.1114580E+00
          3   -1    0    0  501    0  0.00000000000E+00  0.00000000000E+00  0.46644225021E+02  0.46644225021E+02  0.00000000000E+00 0. -1.
         -3   -1    0    0    0  501 -0.00000000000E+00 -0.00000000000E+00 -0.16156331262E+04  0.16156331262E+04  0.00000000000E+00 0.  1.
         23    2    1    2    0    0  0.19764247026E+03  0.11219535769E+03 -0.44314011368E+03  0.50692776837E+03  0.94616370946E+02 0.  0.
          5    1    1    2  502    0 -0.20659884166E+03 -0.81539392597E+02 -0.88970441104E+03  0.91701862868E+03  0.41800000000E+01 0.  1.
         -5    1    1    2    0  502  0.89563713984E+01 -0.30655965094E+02 -0.23614437650E+03  0.23833095422E+03  0.41800000000E+01 0.  1.
        -11    1    3    3    0    0  0.13178652732E+03  0.11613480831E+03 -0.27505723864E+03  0.32636094590E+03  0.00000000000E+00 0. -1.
         11    1    3    3    0    0  0.65855942948E+02 -0.39394506214E+01 -0.16808287504E+03  0.18056682246E+03  0.00000000000E+00 0.  1.
</event>
<event>
 7    1  0.1758121E-005  0.9321704E+02  0.7561462E-02  0.1295243E+00
          1   -1    0    0  501    0  0.00000000000E+00  0.00000000000E+00  0.17257128634E+03  0.17257128634E+03  0.00000000000E+00 0. -1.
         -1   -1    0    0    0  501 -0.00000000000E+00 -0.00000000000E+00 -0.78905975970E+02  0.78905975970E+02  0.00000000000E+00 0.  1.
         23    2    1    2    0    0  0.13755707659E+02  0.36026362626E+02  0.53734078983E+02  0.11462249445E+03  0.93615419093E+02 0.  0.
          5    1    1    2  502    0  0.37667777128E+02 -0.24921877390E+02  0.64329820989E+02  0.78713148043E+02  0.41800000000E+01 0. -1.
         -5    1    1    2    0  502 -0.51423484786E+02 -0.11104485236E+02 -0.24398589607E+02  0.58141619815E+02  0.41800000000E+01 0. -1.
        -11    1    3    3    0    0  0.46103879814E+02  0.31018090941E+02  0.48328031760E+01  0.55776748615E+02  0.00000000000E+00 0.  1.
         11    1    3    3    0    0 -0.32348172155E+02  0.50082716848E+01  0.48901275807E+02  0.58845745832E+02  0.00000000000E+00 0. -1.
</event>
<event>
 7    1  0.1758121E-005  0.1111013E+03  0.7561462E-02  0.1258544E+00
         -2   -1    0    0    0  501 -0.00000000000E+00  0.00000000000E+00  0.27302754272E+02  0.27302754272E+02  0.00000000000E+00 0. -1.
          2   -1    0    0  501    0  0.00000000000E+00 -0.00000000000E+00 -0.66935525582E+03  0.66935525582E+03  0.00000000000E+00 0.  1.
         23    2    1    2    0    0 -0.27767301229E+02  0.68971446425E+02 -0.36914789527E+03  0.38737955027E+03  0.90910197134E+02 0.  0.
          5    1    1    2  502    0  0.41685486902E+02 -0.83575488372E+01 -0.22921020318E+03  0.23315728186E+03  0.41800000000E+01 0.  1.
         -5    1    1    2    0  502 -0.13918185673E+02 -0.60613897588E+02 -0.43694403094E+02  0.76121177966E+02  0.41800000000E+01 0.  1.
        -11    1    3    3    0    0 -0.60316253898E+02  0.33444818295E+02 -0.20373321180E+03  0.21509027859E+03  0.00000000000E+00 0. -1.
         11    1    3    3    0    0  0.32548952669E+02  0.35526628130E+02 -0.16541468347E+03  0.17228927167E+03  0.00000000000E+00 0.  1.
</event>
<event>
 7    1  0.1758121E-005  0.8425627E+02  0.7561462E-02  0.1317389E+00
          1   -1    0    0  501    0  0.00000000000E+00  0.00000000000E+00  0.10395649961E+03  0.10395649961E+03  0.00000000000E+00 0. -1.
         -1   -1    0    0    0  501 -0.00000000000E+00 -0.00000000000E+00 -0.36492585056E+03  0.36492585056E+03  0.00000000000E+00 0.  1.
         23    2    1    2    0    0 -0.53589344141E+02 -0.22549358860E+02  0.63469858954E+02  0.11980311658E+03  0.83331100774E+02 0.  0.
          5    1    1    2  502    0  0.28205669016E+02 -0.19424177579E+02 -0.18390932553E+02  0.39096767634E+02  0.41800000000E+01 0. -1.
         -5    1    1    2    0  502  0.25383675125E+02  0.41973536439E+02 -0.30604827735E+03  0.30998246595E+03  0.41800000000E+01 0.  1.
        -11    1    3    3    0    0 -0.92043077808E+01 -0.36980958384E+02  0.62402094288E+02  0.73118615524E+02  0.00000000000E+00 0. -1.
         11    1    3    3    0    0 -0.44385036360E+02  0.14431599524E+02  0.10677646669E+01  0.46684501056E+02  0.00000000000E+00 0.  1.
</event>
<event>
 7    1  0.1758121E-005  0.1349094E+03  0.7561462E-02  0.1220348E+00
          2   -1    0    0  501    0  0.00000000000E+00  0.00000000000E+00  0.11479066198E+04  0.11479066198E+04  0.00000000000E+00 0. -1.
         -2   -1    0    0    0  501 -0.00000000000E+00 -0.00000000000E+00 -0.27473649704E+02  0.27473649704E+02  0.00000000000E+00 0.  1.
         23    2    1    2    0    0  0.97977276223E+02 -0.81780164409E+02  0.71874818525E+03  0.73573572169E+03  0.91763589916E+02 0.  0.
          5    1    1    2  502    0 -0.87315199020E+02  0.49274712111E+02  0.39083776037E+03  0.40351402524E+03  0.41800000000E+01 0. -1.
         -5    1    1    2    0  502 -0.10662077203E+02  0.32505452298E+02  0.10847024445E+02  0.36130522535E+02  0.41800000000E+01 0. -1.
        -11    1    3    3    0    0 -0.23724948036E+01 -0.13322243299E+02  0.10452829074E+02  0.17098904461E+02  0.00000000000E+00 0.  1.
         11    1    3    3    0    0  0.10034977103E+03 -0.68457921110E+02  0.70829535617E+03  0.71863681723E+03  0.00000000000E+00 0. -1.
</event>
<event>
 7    1  0.1758121E-005  0.9072416E+02  0.7561462E-02  0.1301107E+00
          1   -1    0    0  501    0  0.00000000000E+00  0.00000000000E+00  0.68182027470E+03  0.68182027470E+03  0.00000000000E+00 0. -1.
         -1   -1    0    0    0  501 -0.00000000000E+00 -0.00000000000E+00 -0.25127500558E+02  0.25127500558E+02  0.00000000000E+00 0.  1.
         23    2    1    2    0    0 -0.54580181511E+02  0.47971635910E+02  0.32949495578E+03  0.34919508753E+03  0.89944478461E+02 0.  0.
          5    1    1    2  502    0  0.11592981596E+02 -0.14816102973E+02  0.29261675538E+03  0.29325066420E+03  0.41800000000E+01 0.  1.
         -5    1    1    2    0  502  0.42987199915E+02 -0.33155532937E+02  0.34581062979E+02  0.64502023516E+02  0.41800000000E+01 0.  1.
        -11    1    3    3    0    0 -0.86762671044E+01 -0.22222949191E+02  0.30860795477E+02  0.39006740175E+02  0.00000000000E+00 0.  1.
         11    1    3    3    0    0 -0.45903914407E+02  0.70194585101E+02  0.29863416031E+03  0.31018834736E+03  0.00000000000E+00 0. -1.
</event>
<event>
 7    1  0.1758121E-005  0.1340767E+03  0.7561462E-02  0.1221529E+00
          2   -1    0    0  501    0  0.00000000000E+00  0.00000000000E+00  0.17159040520E+03  0.17159040520E+03  0.00000000000E+00 0.  1.
         -2   -1    0    0    0  501 -0.00000000000E+00 -0.00000000000E+00 -0.11326728005E+03  0.11326728005E+03  0.00000000000E+00 0. -1.
         23    2    1    2    0    0 -0.41272813287E+02 -0.77304928168E+02  0.36820449823E+02  0.13062066853E+03  0.89590828139E+02 0.  0.
          5    1    1    2  502    0  0.34483484098E+02  0.11186764329E+03  0.13870822040E+02  0.11795487440E+03  0.41800000000E+01 0. -1.
         -5    1    1    2    0  502  0.67893291888E+01 -0.34562715117E+02  0.76318532804E+01  0.36282142324E+02  0.41800000000E+01 0. -1.
        -11    1    3    3    0    0  0.19470790058E+02 -0.39394445887E+02  0.39330175862E+02  0.58973695539E+02  0.00000000000E+00 0.  1.
         11    1    3    3    0    0 -0.60743603345E+02 -0.37910482282E+02 -0.25097260388E+01  0.71646972992E+02  0.00000000000E+00 0. -1.
</event>
<event>
 6    1  0.1758121E-005  0.2702244E+03  0.7561462E-02  0.1101151E+00
          2   -1    0    0  501    0  0.00000000000E+00  0.00000000000E+00  0.50257187335E+03  0.50257187335E+03  0.00000000000E+00 0. -1.
         -2   -1    0    0    0  501 -0.00000000000E+00 -0.00000000000E+00 -0.19096160762E+03  0.19096160762E+03  0.00000000000E+00 0.  1.
          5    1    1    2  502    0  0.14565608289E+03  0.49535969420E+01  0.67748832242E+02  0.16077191694E+03  0.41800000000E+01 0. -1.
         -5    1    1    2    0  502  0.78681865024E+02 -0.79717412378E+02 -0.50727800559E+02  0.12303041847E+03  0.41800000000E+01 0.  1.
        -11    1    1    2    0    0 -0.19485423329E+03 -0.76802422483E+01  0.22603946548E+03  0.29853140255E+03  0.00000000000E+00 0.  1.
         11    1    1    2    0    0 -0.29483714624E+02  0.82444057685E+02  0.68549768565E+02  0.11119974301E+03  0.00000000000E+00 0. -1.
</event>
<event>
 7    1  0.1758121E-005  0.1664608E+03  0.7561462E-02  0.1181590E+00
         -1   -1    0    0    0  501 -0.00000000000E+00  0.00000000000E+00  0.37182005822E+03  0.37182005822E+03  0.00000000000E+00 0.  1.
          1   -1    0    0  501    0  0.00000000000E+00 -0.00000000000E+00 -0.82649143026E+02  0.82649143026E+02  0.00000000000E+00 0. -1.
         23    2    1    2    0    0 -0.40903737928E+01  0.13075017750E+03  0.86631924057E+02  0.18270145443E+03  0.93607644522E+02 0.  0.
          5    1    1    2  502    0 -0.34804309072E+01  0.23379940507E+02  0.12936569875E+02  0.27268338005E+02  0.41800000000E+01 0. -1.
         -5    1    1    2    0  502  0.75708047001E+01 -0.15413011800E+03  0.18960242126E+03  0.24449940881E+03  0.41800000000E+01 0.  1.
        -11    1    3    3    0    0 -0.10468936841E+02 -0.95077111459E+01  0.26348926365E+02  0.29904199210E+02  0.00000000000E+00 0.  1.
         11    1    3    3    0    0  0.63785630486E+01  0.14025788864E+03  0.60282997692E+02  0.15279725522E+03  0.00000000000E+00 0. -1.
</event>
<event>
 7    1  0.1758121E-005  0.1240683E+03  0.7561462E-02  0.1236533E+00
         -1   -1    0    0    0  501 -0.00000000000E+00  0.00000000000E+00  0.31085078490E+03  0.31085078490E+03  0.00000000000E+00 0.  1.
          1   -1    0    0  501    0  0.00000000000E+00 -0.00000000000E+00 -0.50605898931E+03  0.50605898931E+03  0.00000000000E+00 0. -1.
         23    2    1    2    0    0  0.54011191717E+01 -0.70055615626E+02 -0.48425399611E+03  0.49719505241E+03  0.88113710765E+02 0.  0.
          5    1    1    2  502    0  0.54355769518E+02  0.45962434591E+02  0.13473303170E+03  0.15243870016E+03  0.41800000000E+01 0. -1.
         -5    1    1    2    0  502 -0.59756888690E+02  0.24093181035E+02  0.15431276000E+03  0.16727602165E+03  0.41800000000E+01 0.  1.
        -11    1    3    3    0    0  0.45463216176E+02 -0.24667028379E+02 -0.20151281762E+03  0.20804514409E+03  0.00000000000E+00 0.  1.
         11    1    3    3    0    0 -0.40062097004E+02 -0.45388587247E+02 -0.28274117849E+03  0.28914990833E+03  0.00000000000E+00 0. -1.
</event>
<event>
 7    1  0.1758121E-005  0.2001324E+03  0.7561462E-02  0.1149627E+00
          2   -1    0    0  501    0  0.00000000000E+00  0.00000000000E+00  0.93197370382E+03  0.93197370382E+03  0.00000000000E+00 0. -1.
         -2   -1    0    0    0  501 -0.00000000000E+00 -0.00000000000E+00 -0.49668118236E+02  0.49668118236E+02  0.00000000000E+00 0.  1.
         23    2    1    2    0    0  0.12962794453E+03  0.11116835233E+03  0.59049356926E+03  0.62114046869E+03  0.89280568667E+02 0.  0.
          5    1    1    2  502    0 -0.58347857129E+02 -0.12430352260E+03  0.21187761244E+03  0.25251818393E+03  0.41800000000E+01 0. -1.
         -5    1    1    2    0  502 -0.71280087399E+02  0.13135170267E+02  0.79934403881E+02  0.10798316944E+03  0.41800000000E+01 0. -1.
        -11    1    3    3    0    0  0.90475178198E+02  0.11986420447E+03  0.42154937771E+03  0.44750090863E+03  0.00000000000E+00 0.  1.
         11    1    3    3    0    0  0.39152766330E+02 -0.86958521421E+01  0.16894419156E+03  0.17363956006E+03  0.00000000000E+00 0. -1.
</event>
<event>
 7    1  0.1758121E-005  0.8195153E+02  0.7561462E-02  0.1323603E+00
         -2   -1    0    0    0  501 -0.00000000000E+00  0.00000000000E+00  0.63935277629E+02  0.63935277629E+02  0.00000000000E+00 0.  1.
          2   -1    0    0  501    0  0.00000000000E+00 -0.00000000000E+00 -0.20248453518E+03  0.20248453518E+03  0.00000000000E+00 0. -1.
         23    2    1    2    0    0  0.11014291384E+02  0.17823483471E+02 -0.96846485263E+02  0.13422240961E+03  0.90539617604E+02 0.  0.
          5    1    1    2  502    0 -0.38584666330E+02 -0.18838309415E+02 -0.76359436963E+02  0.87703445717E+02  0.41800000000E+01 0. -1.
         -5    1    1    2    0  502  0.27570374946E+02  0.10148259439E+01  0.34656664673E+02  0.44493957484E+02  0.41800000000E+01 0.  1.
        -11    1    3    3    0    0 -0.66944158914E+01  0.53028993942E+02 -0.53087369681E+02  0.75333646018E+02  0.00000000000E+00 0.  1.
         11    1    3    3    0    0  0.17708707275E+02 -0.35205510471E+02 -0.43759115582E+02  0.58888763592E+02  0.00000000000E+00 0. -1.
</event>
<event>
 7    1  0.1758121E-005  0.1564773E+03  0.7561462E-02  0.1192732E+00
          2   -1    0    0  501    0  0.00000000000E+00  0.00000000000E+00  0.68082433028E+02  0.68082433028E+02  0.00000000000E+00 0. -1.
         -2   -1    0    0    0  501 -0.00000000000E+00 -0.00000000000E+00 -0.60022942726E+03  0.60022942726E+03  0.00000000000E+00 0.  1.
         23    2    1    2    0    0  0.95355422225E+02 -0.11108376227E+03 -0.10542260297E+03  0.20015129865E+03  0.86685398705E+02 0.  0.
          5    1    1    2  502    0 -0.10863158002E+03  0.10178920760E+03 -0.42613957246E+03  0.45141363579E+03  0.41800000000E+01 0. -1.
         -5    1    1    2    0  502  0.13276157792E+02  0.92945546645E+01 -0.58481879939E+00  0.16746925842E+02  0.41800000000E+01 0. -1.
        -11    1    3    3    0    0  0.50782647178E+02 -0.46751825158E+02 -0.21621797443E+00  0.69026496074E+02  0.00000000000E+00 0. -1.
         11    1    3    3    0    0  0.44572775047E+02 -0.64331937108E+02 -0.10520638500E+03  0.13112480258E+03  0.00000000000E+00 0.  1.
</event>
<event>
 7    1  0.1758121E-005  0.1208477E+03  0.7561462E-02  0.1241705E+00
          1   -1    0    0  501    0  0.00000000000E+00  0.00000000000E+00  0.22939244720E+03  0.22939244720E+03  0.00000000000E+00 0.  1.
         -1   -1    0    0    0  501 -0.00000000000E+00 -0.00000000000E+00 -0.79589920218E+02  0.79589920218E+02  0.00000000000E+00 0. -1.
         23    2    1    2    0    0 -0.78225408084E+02  0.87161999074E+01  0.86256253410E+02  0.14811676835E+03  0.91122166367E+02 0.  0.
          5    1    1    2  502    0  0.10477118638E+03 -0.34213765589E+02  0.42071509637E+02  0.11804688719E+03  0.41800000000E+01 0.  1.
         -5    1    1    2    0  502 -0.26545778295E+02  0.25497565682E+02  0.21474763930E+02  0.42818711878E+02  0.41800000000E+01 0.  1.
        -11    1    3    3    0    0 -0.32864278005E+02  0.29773433409E+02 -0.44185689352E+01  0.44565029532E+02  0.00000000000E+00 0. -1.
         11    1    3    3    0    0 -0.45361130079E+02 -0.21057233502E+02  0.90674822345E+02  0.10355173882E+03  0.00000000000E+00 0.  1.
</event>
<event>
 7    1  0.1758121E-005  0.1185142E+03  0.7561462E-02  0.1245568E+00
          2   -1    0    0  501    0  0.00000000000E+00  0.00000000000E+00  0.39270977622E+03  0.39270977622E+03  0.00000000000E+00 0. -1.
         -2   -1    0    0    0  501 -0.00000000000E+00 -0.00000000000E+00 -0.81500333250E+02  0.81500333250E+02  0.00000000000E+00 0.  1.
         23    2    1    2    0    0  0.30066401281E+02  0.30418249827E+02  0.25771144182E+03  0.28240619887E+03  0.10727914757E+03 0.  0.
          5    1    1    2  502    0 -0.75625260256E+02 -0.27498684279E+01  0.96843244612E+02  0.12297490879E+03  0.41800000000E+01 0. -1.
         -5    1    1    2    0  502  0.45558858974E+02 -0.27668381399E+02 -0.43345243462E+02  0.68829001816E+02  0.41800000000E+01 0.  1.
        -11    1    3    3    0    0 -0.24788613306E+02  0.44677635557E+02  0.72345683928E+02  0.88568981318E+02  0.00000000000E+00 0.  1.
         11    1    3    3    0    0  0.54855014588E+02 -0.14259385730E+02  0.18536575789E+03  0.19383721755E+03  0.00000000000E+00 0. -1.
</event>
<event>
 7    1  0.1758121E-005  0.5789977E+02  0.7561462E-02  0.1406863E+00
         -2   -1    0    0    0  501 -0.00000000000E+00  0.00000000000E+00  0.12049098476E+03  0.12049098476E+03  0.00000000000E+00 0.  1.
          2   -1    0    0  501    0  0.00000000000E+00 -0.00000000000E+00 -0.23228438254E+03  0.23228438254E+03  0.00000000000E+00 0. -1.
         23    2    1    2    0    0  0.92645465803E+00 -0.50919422035E+02 -0.17449435244E+03  0.20387142220E+03  0.92312685483E+02 0.  0.
          5    1    1    2  502    0  0.64437774517E+01  0.37888848492E+02 -0.33682990093E+02  0.51274782588E+02  0.41800000000E+01 0.  1.
         -5    1    1    2    0  502 -0.73702321097E+01  0.13030573543E+02  0.96383944743E+02  0.97629162510E+02  0.41800000000E+01 0.  1.
        -11    1    3    3    0    0 -0.14438750142E+02 -0.91571087513E+01  0.58865995940E+01  0.18082649173E+02  0.00000000000E+00 0.  1.
         11    1    3    3    0    0  0.15365204800E+02 -0.41762313283E+02 -0.18038095203E+03  0.18578877303E+03  0.00000000000E+00 0. -1.
</event>
<event>
 7    1  0.1758121E-005  0.2103506E+03  0.7561462E-02  0.1141289E+00
          1   -1    0    0  501    0  0.00000000000E+00  0.00000000000E+00  0.64575555344E+03  0.64575555344E+03  0.00000000000E+00 0. -1.
         -1   -1    0    0    0  501 -0.00000000000E+00 -0.00000000000E+00 -0.90413764782E+02  0.90413764782E+02  0.00000000000E+00 0.  1.
         23    2    1    2    0    0  0.69137958600E+02  0.19185846709E+03  0.16442995291E+03  0.27785505057E+03  0.92609346186E+02 0.  0.
          5    1    1    2  502    0 -0.14736542277E+02 -0.27487247970E+02  0.19203834847E+03  0.19459936835E+03  0.41800000000E+01 0. -1.
         -5    1    1    2    0  502 -0.54401416323E+02 -0.16437121912E+03  0.19887348728E+03  0.26371489931E+03  0.41800000000E+01 0. -1.
        -11    1    3    3    0    0  0.83757496440E+02  0.17274971235E+03  0.11741759133E+03  0.22504371149E+03  0.00000000000E+00 0. -1.
         11    1    3    3    0    0 -0.14619537840E+02  0.19108754736E+02  0.47012361577E+02  0.52811339079E+02  0.00000000000E+00 0.  1.
</event>
<event>
 7    1  0.1758121E-005  0.6654881E+02  0.7561462E-02  0.1372238E+00
         -1   -1    0    0    0  501 -0.00000000000E+00  0.00000000000E+00  0.38220247948E+03  0.38220247948E+03  0.00000000000E+00 0.  1.
          1   -1    0    0  501    0  0.00000000000E+00 -0.00000000000E+00 -0.41962877485E+02  0.41962877485E+02  0.00000000000E+00 0. -1.
         23    2    1    2    0    0 -0.48019988067E+01  0.10409678444E+01  0.46182437874E+02  0.10457004359E+03  0.93690627287E+02 0.  0.
          5    1    1    2  502    0  0.25482442028E+02 -0.21212845299E+02  0.28781073389E+03  0.28974442290E+03  0.41800000000E+01 0.  1.
         -5    1    1    2    0  502 -0.20680443221E+02  0.20171877455E+02  0.62464302332E+01  0.29850890482E+02  0.41800000000E+01 0.  1.
        -11    1    3    3    0    0  0.17928232333E+02 -0.28221991904E+02 -0.12056859828E+02  0.35542512721E+02  0.00000000000E+00 0. -1.
         11    1    3    3    0    0 -0.22730231140E+02  0.29262959748E+02  0.58239297702E+02  0.69027530867E+02  0.00000000000E+00 0.  1.
</event>
<event>
 7    1  0.1758121E-005  0.1018016E+03  0.7561462E-02  0.1276552E+00
          4   -1    0    0  501    0  0.00000000000E+00  0.00000000000E+00  0.61716607397E+02  0.61716607397E+02  0.00000000000E+00 0. -1.
         -4   -1    0    0    0  501 -0.00000000000E+00 -0.00000000000E+00 -0.23173854444E+03  0.23173854444E+03  0.00000000000E+00 0.  1.
         23    2    1    2    0    0  0.32314659452E+02 -0.38024108279E+02 -0.80545787220E+02  0.13177940548E+03  0.91586668487E+02 0.  0.
          5    1    1    2  502    0 -0.66432842167E+02  0.47560303148E+02 -0.20994264315E+02  0.84460265736E+02  0.41800000000E+01 0. -1.
         -5    1    1    2    0  502  0.34118182715E+02 -0.95361948692E+01 -0.68481885508E+02  0.77215480618E+02  0.41800000000E+01 0. -1.
        -11    1    3    3    0    0  0.34418449868E+02 -0.57240289955E+02 -0.88500504601E+02  0.11087569526E+03  0.00000000000E+00 0.  1.
         11    1    3    3    0    0 -0.21037904163E+01  0.19216181676E+02  0.79547173809E+01  0.20903710219E+02  0.00000000000E+00 0. -1.
</event>
<event>
 7    1  0.1758121E-005  0.1152429E+03  0.7561462E-02  0.1251158E+00
         -3   -1    0    0    0  501 -0.00000000000E+00  0.00000000000E+00  0.20184579007E+03  0.20184579007E+03  0.00000000000E+00 0.  1.
          3   -1    0    0  501    0  0.00000000000E+00 -0.00000000000E+00 -0.10254891115E+03  0.10254891115E+03  0.00000000000E+00 0. -1.
         23    2    1    2    0    0 -0.59088744798E+02  0.57773608246E+02 -0.28197383258E+01  0.12300192123E+03  0.91061803906E+02 0.  0.
          5    1    1    2  502    0 -0.38137379260E+02 -0.20891145179E+02  0.16739184562E+02  0.46782179764E+02  0.41800000000E+01 0. -1.
         -5    1    1    2    0  502  0.97226124058E+02 -0.36882463067E+02  0.85377432687E+02  0.13461060023E+03  0.41800000000E+01 0. -1.
        -11    1    3    3    0    0 -0.25593969227E+02  0.27723366916E+02 -0.46775886794E+02  0.60096754648E+02  0.00000000000E+00 0. -1.
         11    1    3    3    0    0 -0.33494775571E+02  0.30050241330E+02  0.43956148468E+02  0.62905166582E+02  0.00000000000E+00 0.  1.
</event>
<event>
 7    1  0.1758121E-005  0.1262823E+03  0.7561462E-02  0.1233079E+00
         -1   -1    0    0    0  501 -0.00000000000E+00  0.00000000000E+00  0.52758995667E+03  0.52758995667E+03  0.00000000000E+00 0.  1.
          1   -1    0    0  501    0  0.00000000000E+00 -0.00000000000E+00 -0.40197445773E+02  0.40197445773E+02  0.00000000000E+00 0. -1.
         23    2    1    2    0    0 -0.72707949187E+02  0.38250709623E+02  0.13055479422E+03  0.18083774171E+03  0.94383112218E+02 0.  0.
          5    1    1    2  502    0  0.10590787710E+03 -0.14283863187E+02  0.23111288410E+03  0.25465887924E+03  0.41800000000E+01 0.  1.
         -5    1    1    2    0  502 -0.33199927911E+02 -0.23966846436E+02  0.12572483258E+03  0.13229078149E+03  0.41800000000E+01 0.  1.
        -11    1    3    3    0    0 -0.72294553628E+02  0.53037909973E+02  0.13777082999E+03  0.16437859950E+03  0.00000000000E+00 0.  1.
         11    1    3    3    0    0 -0.41339555902E+00 -0.14787200350E+02 -0.72160357678E+01  0.16459142210E+02  0.00000000000E+00 0. -1.
</event>
<event>
 7    1  0.1758121E-005  0.1026137E+03  0.7561462E-02  0.1274894E+00
         -1   -1    0    0    0  501 -0.00000000000E+00  0.00000000000E+00  0.31496014645E+03  0.31496014645E+03  0.00000000000E+00 0.  1.
          1   -1    0    0  501    0  0.00000000000E+00 -0.00000000000E+00 -0.47230493042E+02  0.47230493042E+02  0.00000000000E+00 0. -1.
         23    2    1    2    0    0  0.17393533233E+02 -0.52902909884E+02  0.90017947228E+02  0.13784580464E+03  0.88300521866E+02 0.  0.
          5    1    1    2  502    0  0.37522077916E+02  0.51729164815E+02  0.38724627113E+02  0.74839040405E+02  0.41800000000E+01 0.  1.
         -5    1    1    2    0  502 -0.54915611149E+02  0.11737450682E+01  0.13898707906E+03  0.14950579444E+03  0.41800000000E+01 0.  1.
        -11    1    3    3    0    0  0.40965437099E+02 -0.19901445981E+02  0.85714387941E+02  0.97062819292E+02  0.00000000000E+00 0.  1.
         11    1    3    3    0    0 -0.23571903865E+02 -0.33001463902E+02  0.43035592876E+01  0.40782985350E+02  0.00000000000E+00 0. -1.
</event>
<event>
 7    1  0.1758121E-005  0.1050111E+03  0.7561462E-02  0.1270098E+00
         -1   -1    0    0    0  501 -0.00000000000E+00  0.00000000000E+00  0.39004239441E+03  0.39004239441E+03  0.00000000000E+00 0.  1.
          1   -1    0    0  501    0  0.00000000000E+00 -0.00000000000E+00 -0.41992856021E+02  0.41992856021E+02  0.00000000000E+00 0. -1.
         23    2    1    2    0    0 -0.31936319465E+02  0.57027005576E+02  0.12792449638E+03  0.17055019633E+03  0.91927606450E+02 0.  0.
          5    1    1    2  502    0 -0.53988382824E+01  0.33097703739E+02  0.10617486209E+03  0.11142342298E+03  0.41800000000E+01 0.  1.
         -5    1    1    2    0  502  0.37335157748E+02 -0.90124709315E+02  0.11395017993E+03  0.15006163113E+03  0.41800000000E+01 0.  1.
        -11    1    3    3    0    0 -0.19158271924E+02 -0.98495646226E+00  0.10522321685E+03  0.10695763127E+03  0.00000000000E+00 0.  1.
         11    1    3    3    0    0 -0.12778047541E+02  0.58011962038E+02  0.22701279527E+02  0.63592565058E+02  0.00000000000E+00 0. -1.
</event>
<event>
 7    1  0.1758121E-005  0.1253995E+03  0.7561462E-02  0.1234446E+00
         -2   -1    0    0    0  501 -0.00000000000E+00  0.00000000000E+00  0.27081149362E+03  0.27081149362E+03  0.00000000000E+00 0.  1.
          2   -1    0    0  501    0  0.00000000000E+00 -0.00000000000E+00 -0.98753028339E+02  0.98753028339E+02  0.00000000000E+00 0. -1.
         23    2    1    2    0    0 -0.93908520887E+02 -0.56391904498E+02  0.19967674322E+02  0.14422364086E+03  0.91667297212E+02 0.  0.
          5    1    1    2  502    0 -0.12043260070E+02  0.13976849063E+02 -0.14169960013E+02  0.23635832747E+02  0.41800000000E+01 0. -1.
         -5    1    1    2    0  502  0.10595178096E+03  0.42415055434E+02  0.16626075097E+03  0.20170504835E+03  0.41800000000E+01 0. -1.
        -11    1    3    3    0    0 -0.91928947523E+02 -0.38479604591E+02  0.48222078348E+02  0.11071124695E+03  0.00000000000E+00 0.  1.
         11    1    3    3    0    0 -0.19795733641E+01 -0.17912299907E+02 -0.28254404026E+02  0.33512393909E+02  0.00000000000E+00 0. -1.
</event>
<event>
 7    1  0.1758121E-005  0.9217030E+02  0.7561462E-02  0.1297680E+00
         -1   -1    0    0    0  501 -0.00000000000E+00  0.00000000000E+00  0.56351429231E+02  0.56351429231E+02  0.00000000000E+00 0.  1.
          1   -1    0    0  501    0  0.00000000000E+00 -0.00000000000E+00 -0.31130994778E+03  0.31130994778E+03  0.00000000000E+00 0. -1.
         23    2    1    2    0    0  0.21333188598E+02 -0.70563424263E+02 -0.13419167430E+03  0.17880792962E+03  0.92361076561E+02 0.  0.
          5    1    1    2  502    0  0.29777460389E+02  0.42605208427E+02 -0.11955543662E+03  0.13043341503E+03  0.41800000000E+01 0. -1.
         -5    1    1    2    0  502 -0.51110648988E+02  0.27958215836E+02 -0.12114076335E+01  0.58420032362E+02  0.41800000000E+01 0. -1.
        -11    1    3    3    0    0  0.71435787244E+01 -0.18766398873E+02  0.11772893605E+02  0.23276801058E+02  0.00000000000E+00 0.  1.
         11    1    3    3    0    0  0.14189609874E+02 -0.51797025390E+02 -0.14596456791E+03  0.15553112856E+03  0.00000000000E+00 0. -1.
</event>
<event>
 7    1  0.1758121E-005  0.1272900E+03  0.7561462E-02  0.1231533E+00
          1   -1    0    0  501    0  0.00000000000E+00  0.00000000000E+00  0.67977281978E+03  0.67977281978E+03  0.00000000000E+00 0. -1.
         -1   -1    0    0    0  501 -0.00000000000E+00 -0.00000000000E+00 -0.28703799036E+02  0.28703799036E+02  0.00000000000E+00 0.  1.
         23    2    1    2    0    0  0.82753694452E+02  0.13504658190E+02  0.36267929836E+03  0.38313597326E+03  0.90699232683E+02 0.  0.
          5    1    1    2  502    0 -0.52800898701E+02  0.42497647346E+02  0.22689516072E+03  0.23683933645E+03  0.41800000000E+01 0. -1.
         -5    1    1    2    0  502 -0.29952795751E+02 -0.56002305536E+02  0.61494561667E+02  0.88501309105E+02  0.41800000000E+01 0. -1.
        -11    1    3    3    0    0  0.67157471611E+01  0.41468347124E+02  0.10807131091E+03  0.11594883921E+03  0.00000000000E+00 0. -1.
         11    1    3    3    0    0  0.76037947291E+02 -0.27963688934E+02  0.25460798745E+03  0.26718713405E+03  0.00000000000E+00 0.  1.
</event>
<event>
 7    1  0.1758121E-005  0.6539180E+02  0.7561462E-02  0.1376504E+00
         -1   -1    0    0    0  501 -0.00000000000E+00  0.00000000000E+00  0.42440817018E+02  0.42440817018E+02  0.00000000000E+00 0.  1.
          1   -1    0    0  501    0  0.00000000000E+00 -0.00000000000E+00 -0.40011037735E+03  0.40011037735E+03  0.00000000000E+00 0. -1.
         23    2    1    2    0    0 -0.53043200310E+02  0.10991106035E+02 -0.25424146430E+03  0.27143711003E+03  0.78134480380E+02 0.  0.
          5    1    1    2  502    0  0.19991712122E+02 -0.24640079061E+02  0.23160459477E+02  0.39505459532E+02  0.41800000000E+01 0. -1.
         -5    1    1    2    0  502  0.33051488188E+02  0.13648973026E+02 -0.12658855552E+03  0.13160862481E+03  0.41800000000E+01 0. -1.
        -11    1    3    3    0    0 -0.19045256896E+02 -0.11278894578E+02 -0.10804410367E+02  0.24630683233E+02  0.00000000000E+00 0.  1.
         11    1    3    3    0    0 -0.33997943414E+02  0.22270000613E+02 -0.24343705393E+03  0.24680642680E+03  0.00000000000E+00 0. -1.
</event>
<event>
 7    1  0.1758121E-005  0.1292420E+03  0.7561462E-02  0.1228585E+00
         -1   -1    0    0    0  501 -0.00000000000E+00  0.00000000000E+00  0.80898493240E+02  0.80898493240E+02  0.00000000000E+00 0.  1.
          1   -1    0    0  501    0  0.00000000000E+00 -0.00000000000E+00 -0.26336540280E+03  0.26336540280E+03  0.00000000000E+00 0. -1.
         23    2    1    2    0    0 -0.17530107129E+02 -0.68979005480E+02 -0.16188141429E+03  0.19888116524E+03  0.91009437666E+02 0.  0.
          5    1    1    2  502    0 -0.20852958337E+01 -0.36025541563E+02 -0.11456942836E+02  0.38090970620E+02  0.41800000000E+01 0.  1.
         -5    1    1    2    0  502  0.19615402962E+02  0.10500454704E+03 -0.91285524427E+01  0.10729176018E+03  0.41800000000E+01 0.  1.
        -11    1    3    3    0    0  0.36229166511E+02 -0.40777433691E+02 -0.69727223016E+02  0.88528171980E+02  0.00000000000E+00 0. -1.
         11    1    3    3    0    0 -0.53759273640E+02 -0.28201571789E+02 -0.92154191269E+02  0.11035299326E+03  0.00000000000E+00 0.  1.
</event>
<event>
 7    1  0.1758121E-005  0.1034382E+03  0.7561462E-02  0.1273228E+00
          1   -1    0    0  501    0  0.00000000000E+00  0.00000000000E+00  0.42088581114E+02  0.42088581114E+02  0.00000000000E+00 0. -1.
         -1   -1    0    0    0  501 -0.00000000000E+00 -0.00000000000E+00 -0.35591409221E+03  0.35591409221E+03  0.00000000000E+00 0.  1.
         23    2    1    2    0    0  0.39781326825E+02 -0.76423948924E+01 -0.10086371835E+03  0.14772315854E+03  0.10003840126E+03 0.  0.
          5    1    1    2  502    0 -0.12808218764E+02 -0.56506418098E+02 -0.12659792826E+03  0.13928938794E+03  0.41800000000E+01 0.  1.
         -5    1    1    2    0  502 -0.26973108060E+02  0.64148812990E+02 -0.86363864485E+02  0.11099012684E+03  0.41800000000E+01 0.  1.
        -11    1    3    3    0    0 -0.19459990438E+02 -0.19220603793E+01 -0.83450903238E+02  0.85711369112E+02  0.00000000000E+00 0.  1.
         11    1    3    3    0    0  0.59241317263E+02 -0.57203345131E+01 -0.17412815109E+02  0.62011789427E+02  0.00000000000E+00 0. -1.
</event>
<event>
 7    1  0.1758121E-005  0.1044354E+03  0.7561462E-02  0.1271236E+00
         -2   -1    0    0    0  501 -0.00000000000E+00  0.00000000000E+00  0.20220038332E+02  0.20220038332E+02  0.00000000000E+00 0.  1.
          2   -1    0    0  501    0  0.00000000000E+00 -0.00000000000E+00 -0.67154970662E+03  0.67154970662E+03  0.00000000000E+00 0. -1.
         23    2    1    2    0    0  0.36873623773E+02 -0.27777555577E+02 -0.23952791296E+03  0.25891901666E+03  0.86799650803E+02 0.  0.
          5    1    1    2  502    0  0.35191380349E+02 -0.11674348782E+01 -0.42031917404E+02  0.54990459497E+02  0.41800000000E+01 0.  1.
         -5    1    1    2    0  502 -0.72065004121E+02  0.28944990455E+02 -0.36976983792E+03  0.37786026879E+03  0.41800000000E+01 0.  1.
        -11    1    3    3    0    0 -0.16445401968E+02  0.18703298194E+02 -0.38926156826E+02  0.46211581822E+02  0.00000000000E+00 0.  1.
         11    1    3    3    0    0  0.53319025741E+02 -0.46480853770E+02 -0.20060175613E+03  0.21270743484E+03  0.00000000000E+00 0. -1.
</event>
