<event>
 7    1  0.2840156E-009  0.2280003E+03  0.7561462E-02  0.1128055E+00
         -2   -1    0    0    0  501 -0.00000000000E+00  0.00000000000E+00  0.11231926331E+03  0.11231926331E+03  0.00000000000E+00 0.  1.
          2   -1    0    0  501    0  0.00000000000E+00 -0.00000000000E+00 -0.50524852601E+03  0.50524852601E+03  0.00000000000E+00 0. -1.
         25    2    1    2    0    0 -0.54814244072E+02  0.19867568973E+03 -0.14939669252E+03  0.28362518556E+03  0.12508894078E+03 0.  0.
          5    1    3    3  502    0  0.19970933630E+02  0.12976807115E+03 -0.47719322837E+02  0.13976121298E+03  0.41800000000E+01 0. -1.
         -5    1    3    3    0  502 -0.74785177701E+02  0.68907618571E+02 -0.10167736968E+03  0.14386397258E+03  0.41800000000E+01 0. -1.
        -11    1    1    2    0    0 -0.66252542081E+01 -0.13210774882E+03 -0.17966094312E+03  0.22310178345E+03  0.00000000000E+00 0.  1.
         11    1    1    2    0    0  0.61439498280E+02 -0.66567940901E+02 -0.63871627065E+02  0.11084082032E+03  0.00000000000E+00 0. -1.
</event>
<event>
 7    1  0.2840156E-009  0.1369478E+03  0.7561462E-02  0.1217496E+00
         -2   -1    0    0    0  501 -0.00000000000E+00  0.00000000000E+00  0.57382869101E+02  0.57382869101E+02  0.00000000000E+00 0.  1.
          2   -1    0    0  501    0  0.00000000000E+00 -0.00000000000E+00 -0.49138469844E+03  0.49138469844E+03  0.00000000000E+00 0. -1.
         25    2    1    2    0    0 -0.12248592329E+03 -0.32545432525E+02 -0.29083096701E+03  0.34101586762E+03  0.12508862464E+03 0.  0.
          5    1    3    3  502    0 -0.11384520396E+03 -0.35514574256E+02 -0.30275513565E+03  0.32542304776E+03  0.41800000000E+01 0. -1.
         -5    1    3    3    0  502 -0.86407193314E+01  0.29691417312E+01  0.11924168646E+02  0.15592819857E+02  0.41800000000E+01 0. -1.
        -11    1    1    2    0    0  0.30188595935E+02 -0.21958505609E+02 -0.13928568963E+02  0.39843849293E+02  0.00000000000E+00 0.  1.
         11    1    1    2    0    0  0.92297327354E+02  0.54503938134E+02 -0.12924229337E+03  0.16790785064E+03  0.00000000000E+00 0. -1.
</event>
<event>
 7    1  0.2840156E-009  0.1090157E+03  0.7561462E-02  0.1262403E+00
         -1   -1    0    0    0  501 -0.00000000000E+00  0.00000000000E+00  0.85407497188E+02  0.85407497188E+02  0.00000000000E+00 0.  1.
          1   -1    0    0  501    0  0.00000000000E+00 -0.00000000000E+00 -0.15779994743E+03  0.15779994743E+03  0.00000000000E+00 0. -1.
         25    2    1    2    0    0 -0.21816122603E+02 -0.11436358699E+02 -0.39858607274E+01  0.12754637508E+03  0.12508180205E+03 0.  0.
          5    1    3    3  502    0 -0.66164766278E+02 -0.36684050851E+02  0.32282783545E+01  0.75837919701E+02  0.41800000000E+01 0.  1.
         -5    1    3    3    0  502  0.44348643675E+02  0.25247692152E+02 -0.72141390820E+01  0.51708455377E+02  0.41800000000E+01 0.  1.
        -11    1    1    2    0    0  0.18048566081E+02 -0.37690187715E+02 -0.43980846772E+02  0.60668079501E+02  0.00000000000E+00 0.  1.
         11    1    1    2    0    0  0.37675565216E+01  0.49126546414E+02 -0.24425742742E+02  0.54992990037E+02  0.00000000000E+00 0. -1.
</event>
<event>
 7    1  0.2840156E-009  0.1358948E+03  0.7561462E-02  0.1218962E+00
          1   -1    0    0  501    0  0.00000000000E+00  0.00000000000E+00  0.18849787797E+02  0.18849787797E+02  0.00000000000E+00 0. -1.
         -1   -1    0    0    0  501 -0.00000000000E+00 -0.00000000000E+00 -0.14665234880E+04  0.14665234880E+04  0.00000000000E+00 0.  1.
         25    2    1    2    0    0 -0.34720164129E+02 -0.10158801428E+03 -0.10657383688E+04  0.10784108169E+04  0.12508399126E+03 0.  0.
          5    1    3    3  502    0  0.23589465268E+02 -0.10320199690E+03 -0.72234303514E+03  0.73007126217E+03  0.41800000000E+01 0.  1.
         -5    1    3    3    0  502 -0.58309629397E+02  0.16139826164E+01 -0.34339533369E+03  0.34833955477E+03  0.41800000000E+01 0.  1.
        -11    1    1    2    0    0  0.28666953279E+02  0.82710525561E+02 -0.37630733840E+03  0.38635480867E+03  0.00000000000E+00 0.  1.
         11    1    1    2    0    0  0.60532108498E+01  0.18877488718E+02 -0.56279930030E+01  0.20607650209E+02  0.00000000000E+00 0. -1.
</event>
<event>
 7    1  0.2840156E-009  0.1151007E+03  0.7561462E-02  0.1251405E+00
         -2   -1    0    0    0  501 -0.00000000000E+00  0.00000000000E+00  0.25293374405E+02  0.25293374405E+02  0.00000000000E+00 0.  1.
          2   -1    0    0  501    0  0.00000000000E+00 -0.00000000000E+00 -0.70274691084E+03  0.70274691084E+03  0.00000000000E+00 0. -1.
         25    2    1    2    0    0  0.50337745556E+02  0.30526139513E+02 -0.23457492777E+03  0.27228340025E+03  0.12508844668E+03 0.  0.
          5    1    3    3  502    0  0.83174394656E+02 -0.10676416187E+02 -0.16247450353E+03  0.18288631028E+03  0.41800000000E+01 0. -1.
         -5    1    3    3    0  502 -0.32836649100E+02  0.41202555700E+02 -0.72100424240E+02  0.89397089975E+02  0.41800000000E+01 0. -1.
        -11    1    1    2    0    0 -0.67956454796E+01  0.23233615910E+02 -0.38318266441E+02  0.45324069200E+02  0.00000000000E+00 0.  1.
         11    1    1    2    0    0 -0.43542100076E+02 -0.53759755423E+02 -0.40456034222E+03  0.41043281579E+03  0.00000000000E+00 0. -1.
</event>
<event>
 7    1  0.2840156E-009  0.1900324E+03  0.7561462E-02  0.1158432E+00
         -2   -1    0    0    0  501 -0.00000000000E+00  0.00000000000E+00  0.21754733609E+03  0.21754733609E+03  0.00000000000E+00 0. -1.
          2   -1    0    0  501    0  0.00000000000E+00 -0.00000000000E+00 -0.43296649293E+03  0.43296649293E+03  0.00000000000E+00 0.  1.
         25    2    1    2    0    0 -0.95858756832E+02 -0.12799961700E+03  0.14075368463E+03  0.24704655471E+03  0.12509035631E+03 0.  0.
          5    1    3    3  502    0 -0.61152598822E+02 -0.14459952892E+03  0.83306875400E+02  0.17778124759E+03  0.41800000000E+01 0.  1.
         -5    1    3    3    0  502 -0.34706158010E+02  0.16599911915E+02  0.57446809234E+02  0.69265307121E+02  0.41800000000E+01 0.  1.
        -11    1    1    2    0    0  0.71569721700E+02  0.20995407363E+02 -0.19223419731E+03  0.20619655383E+03  0.00000000000E+00 0.  1.
         11    1    1    2    0    0  0.24289035132E+02  0.10700420964E+03 -0.16393864417E+03  0.19727072048E+03  0.00000000000E+00 0. -1.
</event>
<event>
 7    1  0.2840156E-009  0.1336265E+03  0.7561462E-02  0.1222172E+00
         -2   -1    0    0    0  501 -0.00000000000E+00  0.00000000000E+00  0.85033945480E+02  0.85033945480E+02  0.00000000000E+00 0.  1.
          2   -1    0    0  501    0  0.00000000000E+00 -0.00000000000E+00 -0.29643739398E+03  0.29643739398E+03  0.00000000000E+00 0. -1.
         25    2    1    2    0    0 -0.17077641220E+02 -0.10207135964E+03 -0.70559666304E+02  0.17702097221E+03  0.12509016669E+03 0.  0.
          5    1    3    3  502    0 -0.41459573819E+02  0.71903182712E+01  0.39632136158E+01  0.42470888856E+02  0.41800000000E+01 0.  1.
         -5    1    3    3    0  502  0.24381932599E+02 -0.10926167792E+03 -0.74522879920E+02  0.13455008335E+03  0.41800000000E+01 0.  1.
        -11    1    1    2    0    0  0.27179214768E+02  0.31307927412E+02  0.52658641801E+01  0.41792647198E+02  0.00000000000E+00 0.  1.
         11    1    1    2    0    0 -0.10101573548E+02  0.70763432232E+02 -0.14610964638E+03  0.16265772006E+03  0.00000000000E+00 0. -1.
</event>
<event>
 7    1  0.2840156E-009  0.2008412E+03  0.7561462E-02  0.1149031E+00
         -2   -1    0    0    0  501 -0.00000000000E+00  0.00000000000E+00  0.12621170572E+03  0.12621170572E+03  0.00000000000E+00 0. -1.
          2   -1    0    0  501    0  0.00000000000E+00 -0.00000000000E+00 -0.49521274232E+03  0.49521274232E+03  0.00000000000E+00 0.  1.
         25    2    1    2    0    0 -0.67200879176E+01  0.15797595119E+03 -0.27521963989E+02  0.20348636172E+03  0.12509068778E+03 0.  0.
          5    1    3    3  502    0  0.85491577673E+01  0.10526407469E+03 -0.75969294488E+02  0.13016305015E+03  0.41800000000E+01 0.  1.
         -5    1    3    3    0  502 -0.15269245685E+02  0.52711876500E+02  0.48447330499E+02  0.73323311576E+02  0.41800000000E+01 0.  1.
        -11    1    1    2    0    0  0.90511831188E+02 -0.11629088839E+03 -0.21103838243E+03  0.25739689424E+03  0.00000000000E+00 0.  1.
         11    1    1    2    0    0 -0.83791743270E+02 -0.41685062800E+02 -0.13044069018E+03  0.16054119208E+03  0.00000000000E+00 0. -1.
</event>
<event>
 7    1  0.2840156E-009  0.1209460E+03  0.7561462E-02  0.1241545E+00
         -2   -1    0    0    0  501 -0.00000000000E+00  0.00000000000E+00  0.37239659214E+02  0.37239659214E+02  0.00000000000E+00 0.  1.
          2   -1    0    0  501    0  0.00000000000E+00 -0.00000000000E+00 -0.64889115702E+03  0.64889115702E+03  0.00000000000E+00 0. -1.
         25    2    1    2    0    0 -0.59067984324E+02 -0.92279813311E+02 -0.37040273230E+03  0.40601613338E+03  0.12508527391E+03 0.  0.
          5    1    3    3  502    0 -0.51397865740E+02 -0.78172962222E+02 -0.37677731800E+03  0.38824138417E+03  0.41800000000E+01 0.  1.
         -5    1    3    3    0  502 -0.76701185838E+01 -0.14106851089E+02  0.63745856924E+01  0.17774749210E+02  0.41800000000E+01 0.  1.
        -11    1    1    2    0    0 -0.58043588791E+01 -0.93945259713E+01 -0.74969319922E+00  0.11068411815E+02  0.00000000000E+00 0.  1.
         11    1    1    2    0    0  0.64872343203E+02  0.10167433928E+03 -0.24049907230E+03  0.26904627103E+03  0.00000000000E+00 0. -1.
</event>
<event>
 7    1  0.2840156E-009  0.9819297E+02  0.7561462E-02  0.1284142E+00
          2   -1    0    0  501    0  0.00000000000E+00  0.00000000000E+00  0.38369784848E+02  0.38369784848E+02  0.00000000000E+00 0. -1.
         -2   -1    0    0    0  501 -0.00000000000E+00 -0.00000000000E+00 -0.46322073061E+03  0.46322073061E+03  0.00000000000E+00 0.  1.
         25    2    1    2    0    0 -0.71004797883E+02 -0.28486628510E+02 -0.21944409919E+03  0.26392495018E+03  0.12508995697E+03 0.  0.
          5    1    3    3  502    0 -0.58600191373E+02 -0.33248820115E+02 -0.23413978052E+03  0.24367678529E+03  0.41800000000E+01 0. -1.
         -5    1    3    3    0  502 -0.12404606510E+02  0.47621916055E+01  0.14695681333E+02  0.20248164889E+02  0.41800000000E+01 0. -1.
        -11    1    1    2    0    0 -0.19816138275E+02  0.10279036323E+02 -0.71041237650E+02  0.74466068587E+02  0.00000000000E+00 0.  1.
         11    1    1    2    0    0  0.90820936158E+02  0.18207592187E+02 -0.13436560892E+03  0.16319949669E+03  0.00000000000E+00 0. -1.
</event>
<event>
 7    1  0.2840156E-009  0.2980074E+03  0.7561462E-02  0.1086241E+00
         -4   -1    0    0    0  501 -0.00000000000E+00  0.00000000000E+00  0.15607828905E+03  0.15607828905E+03  0.00000000000E+00 0.  1.
          4   -1    0    0  501    0  0.00000000000E+00 -0.00000000000E+00 -0.58369948745E+03  0.58369948745E+03  0.00000000000E+00 0. -1.
         25    2    1    2    0    0 -0.49114567072E+02  0.27633113716E+03 -0.19878640418E+03  0.36597163376E+03  0.12509222267E+03 0.  0.
          5    1    3    3  502    0 -0.70994111618E+02  0.70172929307E+02 -0.63282724761E+02  0.11826487029E+03  0.41800000000E+01 0.  1.
         -5    1    3    3    0  502  0.21879544546E+02  0.20615820785E+03 -0.13550367942E+03  0.24770676347E+03  0.41800000000E+01 0.  1.
        -11    1    1    2    0    0  0.65437086898E+02 -0.19182374566E+03 -0.12180778621E+03  0.23646458196E+03  0.00000000000E+00 0.  1.
         11    1    1    2    0    0 -0.16322519826E+02 -0.84507391494E+02 -0.10702700802E+03  0.13734156077E+03  0.00000000000E+00 0. -1.
</event>
<event>
 7    1  0.2840156E-009  0.1398630E+03  0.7561462E-02  0.1213513E+00
         -2   -1    0    0    0  501 -0.00000000000E+00  0.00000000000E+00  0.59045864917E+02  0.59045864917E+02  0.00000000000E+00 0.  1.
          2   -1    0    0  501    0  0.00000000000E+00 -0.00000000000E+00 -0.59677272729E+03  0.59677272729E+03  0.00000000000E+00 0. -1.
         25    2    1    2    0    0  0.81578907476E+02 -0.74601337415E+02 -0.98619477037E+02  0.19389239263E+03  0.12509189014E+03 0.  0.
          5    1    3    3  502    0  0.53537193567E+02  0.27928613390E+02 -0.33937155737E+02  0.69393382108E+02  0.41800000000E+01 0.  1.
         -5    1    3    3    0  502  0.28041713910E+02 -0.10252995080E+03 -0.64682321301E+02  0.12449901052E+03  0.41800000000E+01 0.  1.
        -11    1    1    2    0    0 -0.23080600230E+02  0.35896152834E+02 -0.46552158811E+02  0.63153395675E+02  0.00000000000E+00 0.  1.
         11    1    1    2    0    0 -0.58498307246E+02  0.38705184580E+02 -0.39255522652E+03  0.39877280391E+03  0.00000000000E+00 0. -1.
</event>
<event>
 7    1  0.2840156E-009  0.8646782E+02  0.7561462E-02  0.1311638E+00
         -3   -1    0    0    0  501 -0.00000000000E+00  0.00000000000E+00  0.27279035943E+03  0.27279035943E+03  0.00000000000E+00 0.  1.
          3   -1    0    0  501    0  0.00000000000E+00 -0.00000000000E+00 -0.52221436378E+02  0.52221436378E+02  0.00000000000E+00 0. -1.
         25    2    1    2    0    0  0.41573469128E+01  0.15307701365E+01  0.52465040923E+02  0.13570711672E+03  0.12507683326E+03 0.  0.
          5    1    3    3  502    0 -0.32461740540E+02 -0.29447742436E+02 -0.20278884039E+02  0.48473081925E+02  0.41800000000E+01 0.  1.
         -5    1    3    3    0  502  0.36619087452E+02  0.30978512572E+02  0.72743924962E+02  0.87234034791E+02  0.41800000000E+01 0.  1.
        -11    1    1    2    0    0  0.56996790040E+01 -0.40329564575E+02  0.49362722110E+02  0.63997175357E+02  0.00000000000E+00 0. -1.
         11    1    1    2    0    0 -0.98570259169E+01  0.38798794438E+02  0.11874116001E+03  0.12530750373E+03  0.00000000000E+00 0.  1.
</event>
<event>
 7    1  0.2840156E-009  0.1650776E+03  0.7561462E-02  0.1183081E+00
          1   -1    0    0  501    0  0.00000000000E+00  0.00000000000E+00  0.75523783940E+03  0.75523783940E+03  0.00000000000E+00 0. -1.
         -1   -1    0    0    0  501 -0.00000000000E+00 -0.00000000000E+00 -0.45287837302E+02  0.45287837302E+02  0.00000000000E+00 0.  1.
         25    2    1    2    0    0  0.80708019246E+02  0.95654951850E+02  0.19790770877E+03  0.26547805860E+03  0.12508990457E+03 0.  0.
          5    1    3    3  502    0  0.21016132473E+02  0.11269915303E+03  0.12675927666E+03  0.17096246237E+03  0.41800000000E+01 0. -1.
         -5    1    3    3    0  502  0.59691886773E+02 -0.17044201184E+02  0.71148432108E+02  0.94515596236E+02  0.41800000000E+01 0. -1.
        -11    1    1    2    0    0 -0.38547018484E+02 -0.10340086828E+03  0.32749934072E+03  0.34559142114E+03  0.00000000000E+00 0. -1.
         11    1    1    2    0    0 -0.42161000763E+02  0.77459164341E+01  0.18454295261E+03  0.18945619695E+03  0.00000000000E+00 0.  1.
</event>
<event>
 7    1  0.2840156E-009  0.1259493E+03  0.7561462E-02  0.1233593E+00
          2   -1    0    0  501    0  0.00000000000E+00  0.00000000000E+00  0.37549428860E+02  0.37549428860E+02  0.00000000000E+00 0. -1.
         -2   -1    0    0    0  501 -0.00000000000E+00 -0.00000000000E+00 -0.46625840066E+03  0.46625840066E+03  0.00000000000E+00 0.  1.
         25    2    1    2    0    0 -0.33920022292E+02  0.64229700005E+02 -0.22382987948E+03  0.26650189251E+03  0.12508965379E+03 0.  0.
          5    1    3    3  502    0  0.95779967186E+01  0.92174594174E+02 -0.14173926765E+03  0.16939712579E+03  0.41800000000E+01 0. -1.
         -5    1    3    3    0  502 -0.43498019011E+02 -0.27944894169E+02 -0.82090611833E+02  0.97104766717E+02  0.41800000000E+01 0. -1.
        -11    1    1    2    0    0  0.48196973772E+02 -0.75158041784E+02 -0.11471021747E+03  0.14536200851E+03  0.00000000000E+00 0. -1.
         11    1    1    2    0    0 -0.14276951480E+02  0.10928341778E+02 -0.90168874845E+02  0.91943928502E+02  0.00000000000E+00 0.  1.
</event>
<event>
 7    1  0.2840156E-009  0.1100087E+03  0.7561462E-02  0.1260554E+00
         -2   -1    0    0    0  501 -0.00000000000E+00  0.00000000000E+00  0.39239725667E+03  0.39239725667E+03  0.00000000000E+00 0. -1.
          2   -1    0    0  501    0  0.00000000000E+00 -0.00000000000E+00 -0.39245650970E+02  0.39245650970E+02  0.00000000000E+00 0.  1.
         25    2    1    2    0    0  0.14656852706E+02 -0.54711710210E+02  0.15509784890E+03  0.20715586506E+03  0.12510002051E+03 0.  0.
          5    1    3    3  502    0  0.46575631750E+02  0.44814627951E+01  0.12466353579E+03  0.13322102888E+03  0.41800000000E+01 0.  1.
         -5    1    3    3    0  502 -0.31918779044E+02 -0.59193173005E+02  0.30434313109E+02  0.73934836177E+02  0.41800000000E+01 0.  1.
        -11    1    1    2    0    0  0.28197810965E+02  0.56094533535E+02  0.11531943881E+03  0.13130227036E+03  0.00000000000E+00 0.  1.
         11    1    1    2    0    0 -0.42854663672E+02 -0.13828233245E+01  0.82734317993E+02  0.93184772213E+02  0.00000000000E+00 0. -1.
</event>
<event>
 7    1  0.2840156E-009  0.1519241E+03  0.7561462E-02  0.1198128E+00
          2   -1    0    0  501    0  0.00000000000E+00  0.00000000000E+00  0.18722558311E+04  0.18722558311E+04  0.00000000000E+00 0. -1.
         -2   -1    0    0    0  501 -0.00000000000E+00 -0.00000000000E+00 -0.16197548253E+02  0.16197548253E+02  0.00000000000E+00 0.  1.
         25    2    1    2    0    0  0.13235672840E+03 -0.29644215394E+02  0.10650783274E+04  0.10809425010E+04  0.12509102188E+03 0.  0.
          5    1    3    3  502    0  0.38510830355E+02 -0.27707695209E+02  0.76538821868E+03  0.76686856639E+03  0.41800000000E+01 0. -1.
         -5    1    3    3    0  502  0.93845898042E+02 -0.19365201847E+01  0.29969010875E+03  0.31407393457E+03  0.41800000000E+01 0. -1.
        -11    1    1    2    0    0 -0.11095284926E+03  0.59209712198E+02  0.59200755621E+03  0.60521836669E+03  0.00000000000E+00 0.  1.
         11    1    1    2    0    0 -0.21403879141E+02 -0.29565496804E+02  0.19897239923E+03  0.20229251172E+03  0.00000000000E+00 0. -1.
</event>
<event>
 7    1  0.2840156E-009  0.1489764E+03  0.7561462E-02  0.1201736E+00
         -1   -1    0    0    0  501 -0.00000000000E+00  0.00000000000E+00  0.10378205408E+03  0.10378205408E+03  0.00000000000E+00 0.  1.
          1   -1    0    0  501    0  0.00000000000E+00 -0.00000000000E+00 -0.21694349774E+03  0.21694349774E+03  0.00000000000E+00 0. -1.
         25    2    1    2    0    0 -0.87263006501E+02 -0.52522499994E+02 -0.47304389333E+02  0.16810172382E+03  0.12508812491E+03 0.  0.
          5    1    3    3  502    0 -0.72292382885E+01 -0.76399388060E+02 -0.14155735783E+02  0.78147204926E+02  0.41800000000E+01 0. -1.
         -5    1    3    3    0  502 -0.80033768213E+02  0.23876888066E+02 -0.33148653550E+02  0.89954518898E+02  0.41800000000E+01 0. -1.
        -11    1    1    2    0    0  0.24563830510E+02 -0.26806723992E+02 -0.13750643987E+02  0.38872386478E+02  0.00000000000E+00 0.  1.
         11    1    1    2    0    0  0.62699175992E+02  0.79329223986E+02 -0.52106410339E+02  0.11375144151E+03  0.00000000000E+00 0. -1.
</event>
<event>
 7    1  0.2840156E-009  0.9790075E+02  0.7561462E-02  0.1284773E+00
         -2   -1    0    0    0  501 -0.00000000000E+00  0.00000000000E+00  0.14833464022E+03  0.14833464022E+03  0.00000000000E+00 0.  1.
          2   -1    0    0  501    0  0.00000000000E+00 -0.00000000000E+00 -0.87278749644E+02  0.87278749644E+02  0.00000000000E+00 0. -1.
         25    2    1    2    0    0  0.11403522259E+02 -0.32712589265E+02  0.32744248340E+02  0.13386468400E+03  0.12508962390E+03 0.  0.
          5    1    3    3  502    0 -0.25755285508E+02  0.38725456266E+02 -0.37025046903E+00  0.46696950436E+02  0.41800000000E+01 0. -1.
         -5    1    3    3    0  502  0.37158807767E+02 -0.71438045530E+02  0.33114498809E+02  0.87167733567E+02  0.41800000000E+01 0.  1.
        -11    1    1    2    0    0 -0.13522873963E+02  0.49621961875E+02  0.51624146051E+02  0.72871528570E+02  0.00000000000E+00 0.  1.
         11    1    1    2    0    0  0.21193517044E+01 -0.16909372611E+02 -0.23312503819E+02  0.28877177287E+02  0.00000000000E+00 0. -1.
</event>
<event>
 7    1  0.2840156E-009  0.5819422E+02  0.7561462E-02  0.1405570E+00
          2   -1    0    0  501    0  0.00000000000E+00  0.00000000000E+00  0.40020247072E+03  0.40020247072E+03  0.00000000000E+00 0. -1.
         -2   -1    0    0    0  501 -0.00000000000E+00 -0.00000000000E+00 -0.29548110857E+02  0.29548110857E+02  0.00000000000E+00 0.  1.
         25    2    1    2    0    0 -0.16523935550E+02  0.31688882108E+02  0.24344581794E+03  0.27602786025E+03  0.12509311599E+03 0.  0.
          5    1    3    3  502    0 -0.40935615698E+02  0.36822036957E+02  0.33545910956E+02  0.64609500695E+02  0.41800000000E+01 0.  1.
         -5    1    3    3    0  502  0.24411680148E+02 -0.51331548488E+01  0.20989990698E+03  0.21141835956E+03  0.41800000000E+01 0.  1.
        -11    1    1    2    0    0  0.41343158901E+01 -0.11132824615E+02 -0.93227464575E+01  0.15097879099E+02  0.00000000000E+00 0.  1.
         11    1    1    2    0    0  0.12389619660E+02 -0.20556057493E+02  0.13653128838E+03  0.13862484223E+03  0.00000000000E+00 0. -1.
</event>
<event>
 7    1  0.2840156E-009  0.1381042E+03  0.7561462E-02  0.1215903E+00
          1   -1    0    0  501    0  0.00000000000E+00  0.00000000000E+00  0.10801144973E+03  0.10801144973E+03  0.00000000000E+00 0. -1.
         -1   -1    0    0    0  501 -0.00000000000E+00 -0.00000000000E+00 -0.17911902130E+03  0.17911902130E+03  0.00000000000E+00 0.  1.
         25    2    1    2    0    0 -0.41374056861E+02 -0.74698491263E+02 -0.33510178670E+02  0.15513477775E+03  0.12510871278E+03 0.  0.
          5    1    3    3  502    0 -0.83981199923E+02 -0.64101818319E+02 -0.13111881352E+02  0.10654238070E+03  0.41800000000E+01 0.  1.
         -5    1    3    3    0  502  0.42607143062E+02 -0.10596672944E+02 -0.20398297317E+02  0.48592397047E+02  0.41800000000E+01 0.  1.
        -11    1    1    2    0    0 -0.13254290845E+02  0.70331602875E+02 -0.24530275906E+02  0.75656757958E+02  0.00000000000E+00 0.  1.
         11    1    1    2    0    0  0.54628347706E+02  0.43668883887E+01 -0.13067116997E+02  0.56338935328E+02  0.00000000000E+00 0. -1.
</event>
<event>
 7    1  0.2840156E-009  0.1359912E+03  0.7561462E-02  0.1218827E+00
         -2   -1    0    0    0  501 -0.00000000000E+00  0.00000000000E+00  0.48479433773E+02  0.48479433773E+02  0.00000000000E+00 0.  1.
          2   -1    0    0  501    0  0.00000000000E+00 -0.00000000000E+00 -0.75001581740E+03  0.75001581740E+03  0.00000000000E+00 0. -1.
         25    2    1    2    0    0  0.38753505202E+02 -0.11546878068E+03 -0.57682861065E+03  0.60267244754E+03  0.12509180422E+03 0.  0.
          5    1    3    3  502    0 -0.10034070615E+02 -0.87687136202E+02 -0.49815387187E+03  0.50592931214E+03  0.41800000000E+01 0.  1.
         -5    1    3    3    0  502  0.48787575818E+02 -0.27781644482E+02 -0.78674738783E+02  0.96743135400E+02  0.41800000000E+01 0.  1.
        -11    1    1    2    0    0 -0.36316767268E+02  0.49925820459E+02 -0.11361193720E+03  0.12930261949E+03  0.00000000000E+00 0. -1.
         11    1    1    2    0    0 -0.24367379346E+01  0.65542960225E+02 -0.11095835780E+02  0.66520184144E+02  0.00000000000E+00 0.  1.
</event>
<event>
 7    1  0.2840156E-009  0.1952978E+03  0.7561462E-02  0.1153768E+00
         -2   -1    0    0    0  501 -0.00000000000E+00  0.00000000000E+00  0.11338513275E+03  0.11338513275E+03  0.00000000000E+00 0. -1.
          2   -1    0    0  501    0  0.00000000000E+00 -0.00000000000E+00 -0.44293325243E+03  0.44293325243E+03  0.00000000000E+00 0.  1.
         25    2    1    2    0    0  0.11475854336E+02  0.16316145534E+03 -0.45611250219E+02  0.21090619507E+03  0.12509069203E+03 0.  0.
          5    1    3    3  502    0  0.39745596685E+02  0.17057729210E+03 -0.46863655214E+02  0.18135600243E+03  0.41800000000E+01 0.  1.
         -5    1    3    3    0  502 -0.28269742349E+02 -0.74158367596E+01  0.12524049949E+01  0.29550192649E+02  0.41800000000E+01 0.  1.
        -11    1    1    2    0    0  0.36774430556E+02 -0.98902644843E+02 -0.21515912602E+03  0.23964044193E+03  0.00000000000E+00 0.  1.
         11    1    1    2    0    0 -0.48250284892E+02 -0.64258810497E+02 -0.68777743442E+02  0.10577174817E+03  0.00000000000E+00 0. -1.
</event>
<event>
 7    1  0.2840156E-009  0.1168765E+03  0.7561462E-02  0.1248341E+00
         -1   -1    0    0    0  501 -0.00000000000E+00  0.00000000000E+00  0.88879500146E+02  0.88879500146E+02  0.00000000000E+00 0.  1.
          1   -1    0    0  501    0  0.00000000000E+00 -0.00000000000E+00 -0.22803600823E+03  0.22803600823E+03  0.00000000000E+00 0. -1.
         25    2    1    2    0    0 -0.43274783141E+02 -0.28537210734E+02 -0.16016563190E+03  0.20973203091E+03  0.12508963145E+03 0.  0.
          5    1    3    3  502    0 -0.23796397677E+02  0.46680918240E+02 -0.37883048169E+02  0.64791777323E+02  0.41800000000E+01 0. -1.
         -5    1    3    3    0  502 -0.19478385464E+02 -0.75218128974E+02 -0.12228258373E+03  0.14494025359E+03  0.41800000000E+01 0. -1.
        -11    1    1    2    0    0 -0.64347371991E+01  0.49146555671E+02  0.19751097609E+02  0.53356308286E+02  0.00000000000E+00 0. -1.
         11    1    1    2    0    0  0.49709520340E+02 -0.20609344937E+02  0.12580262128E+01  0.53827169173E+02  0.00000000000E+00 0.  1.
</event>
<event>
 7    1  0.2840156E-009  0.8289389E+02  0.7561462E-02  0.1321034E+00
          2   -1    0    0  501    0  0.00000000000E+00  0.00000000000E+00  0.12789185542E+03  0.12789185542E+03  0.00000000000E+00 0. -1.
         -2   -1    0    0    0  501 -0.00000000000E+00 -0.00000000000E+00 -0.19310497846E+03  0.19310497846E+03  0.00000000000E+00 0.  1.
         25    2    1    2    0    0  0.74622547999E+02  0.46627317092E+01 -0.93257280303E+02  0.17301823746E+03  0.12509246352E+03 0.  0.
          5    1    3    3  502    0  0.31314614979E+02 -0.13253739719E+02  0.27169372182E+02  0.43725437821E+02  0.41800000000E+01 0. -1.
         -5    1    3    3    0  502  0.43307933020E+02  0.17916471428E+02 -0.12042665249E+03  0.12929279964E+03  0.41800000000E+01 0. -1.
        -11    1    1    2    0    0 -0.16527707440E+02 -0.18445355901E+02 -0.46371323790E+02  0.52570865863E+02  0.00000000000E+00 0.  1.
         11    1    1    2    0    0 -0.58094840559E+02  0.13782624192E+02  0.74415481051E+02  0.95407730553E+02  0.00000000000E+00 0. -1.
</event>
<event>
 7    1  0.2840156E-009  0.9868840E+02  0.7561462E-02  0.1283078E+00
          2   -1    0    0  501    0  0.00000000000E+00  0.00000000000E+00  0.44724227704E+03  0.44724227704E+03  0.00000000000E+00 0. -1.
         -2   -1    0    0    0  501 -0.00000000000E+00 -0.00000000000E+00 -0.27870272573E+02  0.27870272573E+02  0.00000000000E+00 0.  1.
         25    2    1    2    0    0 -0.43102996205E+01 -0.26506140194E+02  0.26490414566E+03  0.29418192030E+03  0.12509053400E+03 0.  0.
          5    1    3    3  502    0 -0.38997138803E+02 -0.49048413669E+02  0.66497499500E+02  0.91465368080E+02  0.41800000000E+01 0. -1.
         -5    1    3    3    0  502  0.34686839183E+02  0.22542273475E+02  0.19840664616E+03  0.20271655222E+03  0.41800000000E+01 0. -1.
        -11    1    1    2    0    0  0.40733533675E+01  0.59681560031E+02  0.84912678706E+02  0.10386839664E+03  0.00000000000E+00 0.  1.
         11    1    1    2    0    0  0.23694625297E+00 -0.33175419837E+02  0.69555180107E+02  0.77062232674E+02  0.00000000000E+00 0. -1.
</event>
<event>
 7    1  0.2840156E-009  0.1128735E+03  0.7561462E-02  0.1255339E+00
          1   -1    0    0  501    0  0.00000000000E+00  0.00000000000E+00  0.23827857086E+04  0.23827857086E+04  0.00000000000E+00 0. -1.
         -1   -1    0    0    0  501 -0.00000000000E+00 -0.00000000000E+00 -0.71005505388E+01  0.71005505388E+01  0.00000000000E+00 0.  1.
         25    2    1    2    0    0 -0.85763129933E+01  0.47342502909E+02  0.18090262919E+04  0.18139841544E+04  0.12509005483E+03 0.  0.
          5    1    3    3  502    0  0.30352476651E+02  0.70958838838E+02  0.75019037606E+03  0.75416145644E+03  0.41800000000E+01 0. -1.
         -5    1    3    3    0  502 -0.38928789644E+02 -0.23616335929E+02  0.10588359159E+04  0.10598226980E+04  0.41800000000E+01 0. -1.
        -11    1    1    2    0    0 -0.11399827351E+02  0.25109926092E+02  0.15877879952E+03  0.16115573719E+03  0.00000000000E+00 0.  1.
         11    1    1    2    0    0  0.19976140345E+02 -0.72452429001E+02  0.40788006657E+03  0.41474636750E+03  0.00000000000E+00 0. -1.
</event>
<event>
 7    1  0.2840156E-009  0.8286951E+02  0.7561462E-02  0.1321100E+00
          1   -1    0    0  501    0  0.00000000000E+00  0.00000000000E+00  0.58136316031E+03  0.58136316031E+03  0.00000000000E+00 0. -1.
         -1   -1    0    0    0  501 -0.00000000000E+00 -0.00000000000E+00 -0.20738544773E+02  0.20738544773E+02  0.00000000000E+00 0.  1.
         25    2    1    2    0    0  0.49163376997E+01 -0.86564828999E+01  0.26999685561E+03  0.29773739687E+03  0.12510056107E+03 0.  0.
          5    1    3    3  502    0  0.37484757855E+02 -0.30331644266E+02  0.35654475014E+02  0.60115137061E+02  0.41800000000E+01 0. -1.
         -5    1    3    3    0  502 -0.32568420156E+02  0.21675161366E+02  0.23434238059E+03  0.23762225980E+03  0.41800000000E+01 0. -1.
        -11    1    1    2    0    0 -0.26324938259E+02 -0.26166223030E+02  0.21698958278E+03  0.22014121067E+03  0.00000000000E+00 0. -1.
         11    1    1    2    0    0  0.21408600560E+02  0.34822705930E+02  0.73638177156E+02  0.84223097551E+02  0.00000000000E+00 0.  1.
</event>
<event>
 7    1  0.2840156E-009  0.9819630E+02  0.7561462E-02  0.1284135E+00
          1   -1    0    0  501    0  0.00000000000E+00  0.00000000000E+00  0.12551553088E+04  0.12551553088E+04  0.00000000000E+00 0. -1.
         -1   -1    0    0    0  501 -0.00000000000E+00 -0.00000000000E+00 -0.14817754643E+02  0.14817754643E+02  0.00000000000E+00 0.  1.
         25    2    1    2    0    0 -0.17231799143E+02 -0.20062479425E+02  0.10508596554E+04  0.10586093966E+04  0.12509357023E+03 0.  0.
          5    1    3    3  502    0  0.24681500499E+02  0.39837335476E+02  0.59999336118E+03  0.60183527283E+03  0.41800000000E+01 0.  1.
         -5    1    3    3    0  502 -0.41913299642E+02 -0.59899814901E+02  0.45086629419E+03  0.45677412377E+03  0.41800000000E+01 0.  1.
        -11    1    1    2    0    0  0.13861235198E+02  0.46983166296E+02  0.52818309446E+02  0.72036973626E+02  0.00000000000E+00 0.  1.
         11    1    1    2    0    0  0.33705639449E+01 -0.26920686871E+02  0.13665958934E+03  0.13932669322E+03  0.00000000000E+00 0. -1.
</event>
<event>
 7    1  0.2840156E-009  0.1422447E+03  0.7561462E-02  0.1210340E+00
          1   -1    0    0  501    0  0.00000000000E+00  0.00000000000E+00  0.33897307480E+03  0.33897307480E+03  0.00000000000E+00 0. -1.
         -1   -1    0    0    0  501 -0.00000000000E+00 -0.00000000000E+00 -0.10404343460E+03  0.10404343460E+03  0.00000000000E+00 0.  1.
         25    2    1    2    0    0 -0.34199450671E+02 -0.10481187847E+03  0.24911322016E+03  0.29976606360E+03  0.12508862512E+03 0.  0.
          5    1    3    3  502    0 -0.57390746716E+02 -0.89031268319E+01  0.47057920767E+02  0.74865771771E+02  0.41800000000E+01 0.  1.
         -5    1    3    3    0  502  0.23191296045E+02 -0.95908751636E+02  0.20205529939E+03  0.22490029183E+03  0.41800000000E+01 0.  1.
        -11    1    1    2    0    0 -0.17634032390E+02  0.12442504464E+02 -0.29160183928E+02  0.36277973240E+02  0.00000000000E+00 0.  1.
         11    1    1    2    0    0  0.51833483062E+02  0.92369374004E+02  0.14976603976E+02  0.10697247257E+03  0.00000000000E+00 0. -1.
</event>
<event>
 7    1  0.2840156E-009  0.1056574E+03  0.7561462E-02  0.1268830E+00
         -2   -1    0    0    0  501 -0.00000000000E+00  0.00000000000E+00  0.32111545305E+02  0.32111545305E+02  0.00000000000E+00 0. -1.
          2   -1    0    0  501    0  0.00000000000E+00 -0.00000000000E+00 -0.48701867508E+03  0.48701867508E+03  0.00000000000E+00 0.  1.
         25    2    1    2    0    0  0.54607765082E+02 -0.16838988741E+02 -0.31946922901E+03  0.34781268292E+03  0.12509002584E+03 0.  0.
          5    1    3    3  502    0  0.27977255678E+02  0.37198321858E+02 -0.25590320350E+03  0.26013528009E+03  0.41800000000E+01 0.  1.
         -5    1    3    3    0  502  0.26630509405E+02 -0.54037310599E+02 -0.63566025513E+02  0.87677402832E+02  0.41800000000E+01 0.  1.
        -11    1    1    2    0    0 -0.36208147746E+02 -0.34282364299E+02 -0.74836447291E+02  0.89926660720E+02  0.00000000000E+00 0. -1.
         11    1    1    2    0    0 -0.18399617336E+02  0.51121353040E+02 -0.60601453470E+02  0.81390876746E+02  0.00000000000E+00 0.  1.
</event>
<event>
 7    1  0.2840156E-009  0.1667010E+03  0.7561462E-02  0.1181333E+00
          2   -1    0    0  501    0  0.00000000000E+00  0.00000000000E+00  0.56263029806E+03  0.56263029806E+03  0.00000000000E+00 0. -1.
         -2   -1    0    0    0  501 -0.00000000000E+00 -0.00000000000E+00 -0.60080527860E+02  0.60080527860E+02  0.00000000000E+00 0.  1.
         25    2    1    2    0    0 -0.12396855642E+03 -0.51561079417E+02  0.16482295961E+03  0.24665437089E+03  0.12508006545E+03 0.  0.
          5    1    3    3  502    0  0.19430755958E+02  0.13422705287E+02  0.10582377007E+02  0.26214164062E+02  0.41800000000E+01 0. -1.
         -5    1    3    3    0  502 -0.14339931238E+03 -0.64983784704E+02  0.15424058260E+03  0.22044020683E+03  0.41800000000E+01 0. -1.
        -11    1    1    2    0    0  0.32038738173E+02  0.50721614451E+02  0.65965366403E+02  0.89166094907E+02  0.00000000000E+00 0.  1.
         11    1    1    2    0    0  0.91929818249E+02  0.83946496574E+00  0.27176144418E+03  0.28689036012E+03  0.00000000000E+00 0. -1.
</event>
<event>
 7    1  0.2840156E-009  0.1507080E+03  0.7561462E-02  0.1199606E+00
         -2   -1    0    0    0  501 -0.00000000000E+00  0.00000000000E+00  0.51478154329E+03  0.51478154329E+03  0.00000000000E+00 0.  1.
          2   -1    0    0  501    0  0.00000000000E+00 -0.00000000000E+00 -0.11058275601E+03  0.11058275601E+03  0.00000000000E+00 0. -1.
         25    2    1    2    0    0 -0.10058008335E+03 -0.92689296000E+02  0.42001469799E+03  0.45909447774E+03  0.12509090375E+03 0.  0.
          5    1    3    3  502    0 -0.58368380194E+02 -0.93612950949E+02  0.39434194195E+03  0.40950371423E+03  0.41800000000E+01 0.  1.
         -5    1    3    3    0  502 -0.42211703160E+02  0.92365494956E+00  0.25672756045E+02  0.49590763506E+02  0.41800000000E+01 0.  1.
        -11    1    1    2    0    0  0.81533342915E+02  0.99249232515E+02  0.15142355653E+02  0.12933440028E+03  0.00000000000E+00 0.  1.
         11    1    1    2    0    0  0.19046740440E+02 -0.65599365147E+01 -0.30958266365E+02  0.36935421276E+02  0.00000000000E+00 0. -1.
</event>
<event>
 7    1  0.2840156E-009  0.1270357E+03  0.7561462E-02  0.1231922E+00
         -2   -1    0    0    0  501 -0.00000000000E+00  0.00000000000E+00  0.25277135346E+03  0.25277135346E+03  0.00000000000E+00 0.  1.
          2   -1    0    0  501    0  0.00000000000E+00 -0.00000000000E+00 -0.87677928939E+02  0.87677928939E+02  0.00000000000E+00 0. -1.
         25    2    1    2    0    0 -0.73257990147E+02 -0.62122994147E+02  0.52433064732E+02  0.16620239160E+03  0.12509200284E+03 0.  0.
          5    1    3    3  502    0 -0.41391308788E+02  0.35207985610E+02  0.10748843238E+02  0.55550452067E+02  0.41800000000E+01 0. -1.
         -5    1    3    3    0  502 -0.31866681359E+02 -0.97330979757E+02  0.41684221494E+02  0.11065193954E+03  0.41800000000E+01 0. -1.
        -11    1    1    2    0    0  0.58598963889E+02  0.41658156893E+02  0.12651167124E+03  0.14551441016E+03  0.00000000000E+00 0.  1.
         11    1    1    2    0    0  0.14659026259E+02  0.20464837253E+02 -0.13851311449E+02  0.28732480636E+02  0.00000000000E+00 0. -1.
</event>
<event>
 7    1  0.2840156E-009  0.9719225E+02  0.7561462E-02  0.1286314E+00
         -1   -1    0    0    0  501 -0.00000000000E+00  0.00000000000E+00  0.20652989411E+02  0.20652989411E+02  0.00000000000E+00 0.  1.
          1   -1    0    0  501    0  0.00000000000E+00 -0.00000000000E+00 -0.16575442002E+04  0.16575442002E+04  0.00000000000E+00 0. -1.
         25    2    1    2    0    0 -0.94855446469E+02 -0.10854949715E+02 -0.13853266356E+04  0.13942354028E+04  0.12508831125E+03 0.  0.
          5    1    3    3  502    0 -0.89689320828E+02 -0.12745334515E+02 -0.45846937452E+03  0.46735239124E+03  0.41800000000E+01 0.  1.
         -5    1    3    3    0  502 -0.51661256414E+01  0.18903847998E+01 -0.92685726103E+03  0.92688301156E+03  0.41800000000E+01 0.  1.
        -11    1    1    2    0    0  0.46740213336E+02 -0.26464276004E+01 -0.27293186412E+02  0.54190120375E+02  0.00000000000E+00 0.  1.
         11    1    1    2    0    0  0.48115233134E+02  0.13501377315E+02 -0.22427138887E+03  0.22977166648E+03  0.00000000000E+00 0. -1.
</event>
<event>
 7    1  0.2840156E-009  0.6857898E+02  0.7561462E-02  0.1364993E+00
          2   -1    0    0  501    0  0.00000000000E+00  0.00000000000E+00  0.45775722714E+03  0.45775722714E+03  0.00000000000E+00 0. -1.
         -2   -1    0    0    0  501 -0.00000000000E+00 -0.00000000000E+00 -0.56182461018E+02  0.56182461018E+02  0.00000000000E+00 0.  1.
         25    2    1    2    0    0  0.40941192212E+02 -0.10114131686E+02  0.39082879907E+03  0.41252025819E+03  0.12508931351E+03 0.  0.
          5    1    3    3  502    0  0.13994149080E+02 -0.43195569032E+01 -0.47548948739E+01  0.15955444387E+02  0.41800000000E+01 0.  1.
         -5    1    3    3    0  502  0.26947043131E+02 -0.57945747832E+01  0.39558369395E+03  0.39656481380E+03  0.41800000000E+01 0.  1.
        -11    1    1    2    0    0  0.60449653266E+01  0.38621321456E+02 -0.13491727324E+02  0.41354259550E+02  0.00000000000E+00 0.  1.
         11    1    1    2    0    0 -0.46986157538E+02 -0.28507189769E+02  0.24237694373E+02  0.60065170418E+02  0.00000000000E+00 0. -1.
</event>
<event>
 7    1  0.2840156E-009  0.1544104E+03  0.7561462E-02  0.1195156E+00
          2   -1    0    0  501    0  0.00000000000E+00  0.00000000000E+00  0.47792178146E+03  0.47792178146E+03  0.00000000000E+00 0. -1.
         -2   -1    0    0    0  501 -0.00000000000E+00 -0.00000000000E+00 -0.51949424147E+02  0.51949424147E+02  0.00000000000E+00 0.  1.
         25    2    1    2    0    0  0.10518501111E+03 -0.42405700009E+02  0.23924711268E+03  0.29282787828E+03  0.12508739112E+03 0.  0.
          5    1    3    3  502    0 -0.26927778797E+02 -0.62708967099E+01  0.67861498663E+02  0.73396762989E+02  0.41800000000E+01 0.  1.
         -5    1    3    3    0  502  0.13211278991E+03 -0.36134803299E+02  0.17138561402E+03  0.21943111529E+03  0.41800000000E+01 0.  1.
        -11    1    1    2    0    0 -0.51397394043E+02  0.67199786026E+02  0.89178483908E+02  0.12292398199E+03  0.00000000000E+00 0.  1.
         11    1    1    2    0    0 -0.53787617069E+02 -0.24794086017E+02  0.97546760727E+02  0.11411934534E+03  0.00000000000E+00 0. -1.
</event>
<event>
 7    1  0.2840156E-009  0.1005765E+03  0.7561462E-02  0.1279088E+00
         -1   -1    0    0    0  501 -0.00000000000E+00  0.00000000000E+00  0.14512676646E+03  0.14512676646E+03  0.00000000000E+00 0.  1.
          1   -1    0    0  501    0  0.00000000000E+00 -0.00000000000E+00 -0.13303956245E+03  0.13303956245E+03  0.00000000000E+00 0. -1.
         25    2    1    2    0    0 -0.37645371095E+02 -0.21513750100E+02  0.81388811061E+02  0.15539829126E+03  0.12507787555E+03 0.  0.
          5    1    3    3  502    0 -0.24765931628E+02  0.45775017241E+02  0.46155117343E+01  0.52416399356E+02  0.41800000000E+01 0. -1.
         -5    1    3    3    0  502 -0.12879439467E+02 -0.67288767342E+02  0.76773299326E+02  0.10298189191E+03  0.41800000000E+01 0. -1.
        -11    1    1    2    0    0 -0.15046233376E+02 -0.10773368968E+02 -0.56774302728E+02  0.59714119503E+02  0.00000000000E+00 0.  1.
         11    1    1    2    0    0  0.52691604471E+02  0.32287119068E+02 -0.12527304325E+02  0.63053918142E+02  0.00000000000E+00 0. -1.
</event>
<event>
 7    1  0.2840156E-009  0.1444618E+03  0.7561462E-02  0.1207448E+00
         -1   -1    0    0    0  501 -0.00000000000E+00  0.00000000000E+00  0.50165968205E+02  0.50165968205E+02  0.00000000000E+00 0.  1.
          1   -1    0    0  501    0  0.00000000000E+00 -0.00000000000E+00 -0.53957387487E+03  0.53957387487E+03  0.00000000000E+00 0. -1.
         25    2    1    2    0    0  0.11697229760E+03  0.16838273440E+02 -0.31594797277E+03  0.35977321927E+03  0.12509037513E+03 0.  0.
          5    1    3    3  502    0  0.90201939928E+02  0.63658874986E+02 -0.25713423157E+03  0.27986483841E+03  0.41800000000E+01 0.  1.
         -5    1    3    3    0  502  0.26770357668E+02 -0.46820601546E+02 -0.58813741202E+02  0.79908380868E+02  0.41800000000E+01 0.  1.
        -11    1    1    2    0    0 -0.60948774349E+02  0.10764091056E+02 -0.15168384463E+03  0.16382492934E+03  0.00000000000E+00 0.  1.
         11    1    1    2    0    0 -0.56023523246E+02 -0.27602364496E+02 -0.21776089262E+02  0.66141694461E+02  0.00000000000E+00 0. -1.
</event>
<event>
 7    1  0.2840156E-009  0.8714407E+02  0.7561462E-02  0.1309919E+00
         -3   -1    0    0    0  501 -0.00000000000E+00  0.00000000000E+00  0.37158120747E+03  0.37158120747E+03  0.00000000000E+00 0.  1.
          3   -1    0    0  501    0  0.00000000000E+00 -0.00000000000E+00 -0.39033290658E+02  0.39033290658E+02  0.00000000000E+00 0. -1.
         25    2    1    2    0    0 -0.70726404551E+01 -0.26543327075E+02  0.11067055492E+03  0.16926371354E+03  0.12509061731E+03 0.  0.
          5    1    3    3  502    0  0.18693068239E+02  0.23909405727E+02  0.10814699575E+03  0.11240256034E+03  0.41800000000E+01 0.  1.
         -5    1    3    3    0  502 -0.25765708694E+02 -0.50452732803E+02  0.25235591735E+01  0.56861153195E+02  0.41800000000E+01 0.  1.
        -11    1    1    2    0    0 -0.12337988276E+02 -0.27112668537E+02  0.12860478814E+03  0.13200952345E+03  0.00000000000E+00 0.  1.
         11    1    1    2    0    0  0.19410628731E+02  0.53655995612E+02  0.93272573757E+02  0.10934126114E+03  0.00000000000E+00 0. -1.
</event>
<event>
 7    1  0.2840156E-009  0.1796318E+03  0.7561462E-02  0.1168160E+00
          1   -1    0    0  501    0  0.00000000000E+00  0.00000000000E+00  0.17920180855E+04  0.17920180855E+04  0.00000000000E+00 0. -1.
         -1   -1    0    0    0  501 -0.00000000000E+00 -0.00000000000E+00 -0.18188529570E+02  0.18188529570E+02  0.00000000000E+00 0.  1.
         25    2    1    2    0    0 -0.41259312445E+02  0.13634312579E+03  0.96963370919E+03  0.98799167405E+03  0.12508492793E+03 0.  0.
          5    1    3    3  502    0 -0.41087025749E+02  0.15974807435E+03  0.87465668347E+03  0.89008391586E+03  0.41800000000E+01 0. -1.
         -5    1    3    3    0  502 -0.17228669584E+00 -0.23404948556E+02  0.94977025716E+02  0.97907758189E+02  0.41800000000E+01 0. -1.
        -11    1    1    2    0    0 -0.17922992124E+02 -0.98775730029E+02  0.50960134047E+03  0.51939522976E+03  0.00000000000E+00 0.  1.
         11    1    1    2    0    0  0.59182304569E+02 -0.37567395762E+02  0.29459450628E+03  0.30281971126E+03  0.00000000000E+00 0. -1.
</event>
<event>
 7    1  0.2840156E-009  0.8264217E+02  0.7561462E-02  0.1321716E+00
         -2   -1    0    0    0  501 -0.00000000000E+00  0.00000000000E+00  0.25279900662E+02  0.25279900662E+02  0.00000000000E+00 0.  1.
          2   -1    0    0  501    0  0.00000000000E+00 -0.00000000000E+00 -0.79574824226E+03  0.79574824226E+03  0.00000000000E+00 0. -1.
         25    2    1    2    0    0 -0.47747071064E+02  0.77655019378E+01 -0.63132353753E+03  0.64541247898E+03  0.12509105949E+03 0.  0.
          5    1    3    3  502    0 -0.47527748328E+02 -0.14485629642E+02 -0.84456742962E+02  0.98077184702E+02  0.41800000000E+01 0. -1.
         -5    1    3    3    0  502 -0.21932273571E+00  0.22251131580E+02 -0.54686679457E+03  0.54733529428E+03  0.41800000000E+01 0. -1.
        -11    1    1    2    0    0  0.25793612906E+01 -0.38219089005E+02 -0.17069221291E+02  0.41936978724E+02  0.00000000000E+00 0.  1.
         11    1    1    2    0    0  0.45167709773E+02  0.30453587067E+02 -0.12207558277E+03  0.13367868521E+03  0.00000000000E+00 0. -1.
</event>
<event>
 7    1  0.2840156E-009  0.9987889E+02  0.7561462E-02  0.1280551E+00
          1   -1    0    0  501    0  0.00000000000E+00  0.00000000000E+00  0.76807075009E+02  0.76807075009E+02  0.00000000000E+00 0. -1.
         -1   -1    0    0    0  501 -0.00000000000E+00 -0.00000000000E+00 -0.18769499397E+03  0.18769499397E+03  0.00000000000E+00 0.  1.
         25    2    1    2    0    0  0.22084207468E+02 -0.26500419928E+02 -0.94215958686E+02  0.16035885233E+03  0.12509328589E+03 0.  0.
          5    1    3    3  502    0  0.10322372322E+02 -0.61732915676E+02 -0.41755011419E+01  0.62868207053E+02  0.41800000000E+01 0. -1.
         -5    1    3    3    0  502  0.11761835146E+02  0.35232495748E+02 -0.90040457544E+02  0.97490645281E+02  0.41800000000E+01 0. -1.
        -11    1    1    2    0    0 -0.58730478772E+02  0.10494268552E+02  0.26730001114E+01  0.59720547041E+02  0.00000000000E+00 0.  1.
         11    1    1    2    0    0  0.36646271304E+02  0.16006151376E+02 -0.19344960386E+02  0.44422669603E+02  0.00000000000E+00 0. -1.
</event>
<event>
 7    1  0.2840156E-009  0.8971902E+02  0.7561462E-02  0.1303534E+00
          1   -1    0    0  501    0  0.00000000000E+00  0.00000000000E+00  0.68615931778E+03  0.68615931778E+03  0.00000000000E+00 0. -1.
         -1   -1    0    0    0  501 -0.00000000000E+00 -0.00000000000E+00 -0.22172170038E+02  0.22172170038E+02  0.00000000000E+00 0.  1.
         25    2    1    2    0    0  0.37979825389E+00  0.40340756930E+02  0.24996294370E+03  0.28241158195E+03  0.12508919810E+03 0.  0.
          5    1    3    3  502    0  0.35263585980E+02  0.17060941075E+02  0.12638598767E+02  0.41373938479E+02  0.41800000000E+01 0. -1.
         -5    1    3    3    0  502 -0.34883787726E+02  0.23279815856E+02  0.23732434493E+03  0.24103764347E+03  0.41800000000E+01 0. -1.
        -11    1    1    2    0    0  0.44236524826E+02 -0.24382403377E+02  0.17033132032E+03  0.17766296858E+03  0.00000000000E+00 0. -1.
         11    1    1    2    0    0 -0.44616323080E+02 -0.15958353553E+02  0.24369288372E+03  0.24825693728E+03  0.00000000000E+00 0.  1.
</event>
<event>
 7    1  0.2840156E-009  0.8019218E+02  0.7561462E-02  0.1328507E+00
          1   -1    0    0  501    0  0.00000000000E+00  0.00000000000E+00  0.57826896497E+02  0.57826896497E+02  0.00000000000E+00 0. -1.
         -1   -1    0    0    0  501 -0.00000000000E+00 -0.00000000000E+00 -0.28425690063E+03  0.28425690063E+03  0.00000000000E+00 0.  1.
         25    2    1    2    0    0  0.11493808818E+02  0.38054004370E+02 -0.19847614057E+03  0.23795250172E+03  0.12509356423E+03 0.  0.
          5    1    3    3  502    0  0.30498005341E+02  0.23906897899E+01  0.42756977546E+01  0.31170462280E+02  0.41800000000E+01 0.  1.
         -5    1    3    3    0  502 -0.19004196523E+02  0.35663314580E+02 -0.20275183833E+03  0.20678203945E+03  0.41800000000E+01 0.  1.
        -11    1    1    2    0    0 -0.70164576639E+01  0.24848694816E+02  0.13029988487E+02  0.28921772286E+02  0.00000000000E+00 0. -1.
         11    1    1    2    0    0 -0.44773511541E+01 -0.62902699186E+02 -0.40983852045E+02  0.75209523112E+02  0.00000000000E+00 0.  1.
</event>
<event>
 7    1  0.2840156E-009  0.1003981E+03  0.7561462E-02  0.1279461E+00
          1   -1    0    0  501    0  0.00000000000E+00  0.00000000000E+00  0.26139108463E+03  0.26139108463E+03  0.00000000000E+00 0.  1.
         -1   -1    0    0    0  501 -0.00000000000E+00 -0.00000000000E+00 -0.47602856456E+02  0.47602856456E+02  0.00000000000E+00 0. -1.
         25    2    1    2    0    0 -0.23937951575E+02  0.27649253129E+01  0.10504157589E+03  0.16511163215E+03  0.12508976004E+03 0.  0.
          5    1    3    3  502    0 -0.69513051018E+02  0.25017166725E+02  0.45840947084E+02  0.87044745519E+02  0.41800000000E+01 0. -1.
         -5    1    3    3    0  502  0.45575099444E+02 -0.22252241412E+02  0.59200628802E+02  0.78066886628E+02  0.41800000000E+01 0. -1.
        -11    1    1    2    0    0 -0.15820826559E+02 -0.25575470156E+02  0.50338101372E+01  0.30491678720E+02  0.00000000000E+00 0. -1.
         11    1    1    2    0    0  0.39758778134E+02  0.22810544843E+02  0.10371284215E+03  0.11339063022E+03  0.00000000000E+00 0.  1.
</event>
<event>
 7    1  0.2840156E-009  0.1399160E+03  0.7561462E-02  0.1213442E+00
         -2   -1    0    0    0  501 -0.00000000000E+00  0.00000000000E+00  0.27959399991E+02  0.27959399991E+02  0.00000000000E+00 0.  1.
          2   -1    0    0  501    0  0.00000000000E+00 -0.00000000000E+00 -0.97756641190E+03  0.97756641190E+03  0.00000000000E+00 0. -1.
         25    2    1    2    0    0  0.46462280059E+02 -0.11438304274E+03 -0.55569758809E+03  0.58282851037E+03  0.12508812554E+03 0.  0.
          5    1    3    3  502    0 -0.27271883086E+02 -0.55212572132E+02 -0.10083237810E+03  0.11822362116E+03  0.41800000000E+01 0. -1.
         -5    1    3    3    0  502  0.73734163146E+02 -0.59170470610E+02 -0.45486521000E+03  0.46460488920E+03  0.41800000000E+01 0. -1.
        -11    1    1    2    0    0 -0.30030648083E+02  0.71264070479E+02 -0.35189329769E+03  0.36029057790E+03  0.00000000000E+00 0. -1.
         11    1    1    2    0    0 -0.16431631977E+02  0.43118972263E+02 -0.42016126123E+02  0.62406723619E+02  0.00000000000E+00 0.  1.
</event>
<event>
 7    1  0.2840156E-009  0.1192265E+03  0.7561462E-02  0.1244379E+00
         -2   -1    0    0    0  501 -0.00000000000E+00  0.00000000000E+00  0.27937723213E+02  0.27937723213E+02  0.00000000000E+00 0.  1.
          2   -1    0    0  501    0  0.00000000000E+00 -0.00000000000E+00 -0.53061426413E+03  0.53061426413E+03  0.00000000000E+00 0. -1.
         25    2    1    2    0    0 -0.51154443944E+02 -0.22429927151E+02 -0.28011487672E+03  0.31182007280E+03  0.12509010702E+03 0.  0.
          5    1    3    3  502    0 -0.81029011881E+02  0.16527211403E+02 -0.13295774910E+03  0.15663360090E+03  0.41800000000E+01 0.  1.
         -5    1    3    3    0  502  0.29874567937E+02 -0.38957138555E+02 -0.14715712761E+03  0.15518647190E+03  0.41800000000E+01 0.  1.
        -11    1    1    2    0    0  0.56330826896E+02 -0.22861321158E+02 -0.12125996225E+03  0.13564579060E+03  0.00000000000E+00 0.  1.
         11    1    1    2    0    0 -0.51763829526E+01  0.45291248309E+02 -0.10130170195E+03  0.11108612394E+03  0.00000000000E+00 0. -1.
</event>
<event>
 7    1  0.2840156E-009  0.1203638E+03  0.7561462E-02  0.1242498E+00
         -1   -1    0    0    0  501 -0.00000000000E+00  0.00000000000E+00  0.19784779577E+03  0.19784779577E+03  0.00000000000E+00 0.  1.
          1   -1    0    0  501    0  0.00000000000E+00 -0.00000000000E+00 -0.12680978311E+03  0.12680978311E+03  0.00000000000E+00 0. -1.
         25    2    1    2    0    0 -0.20501600476E+02  0.10685646331E+03  0.80299433294E+02  0.18420731028E+03  0.12508283176E+03 0.  0.
          5    1    3    3  502    0 -0.64709226843E+01  0.23206716754E+02 -0.33959136507E+02  0.41846384493E+02  0.41800000000E+01 0. -1.
         -5    1    3    3    0  502 -0.14030677792E+02  0.83649746556E+02  0.11425856980E+03  0.14236092579E+03  0.41800000000E+01 0. -1.
        -11    1    1    2    0    0 -0.22670323479E+02 -0.73150800480E+02 -0.29487237682E+02  0.82063879774E+02  0.00000000000E+00 0. -1.
         11    1    1    2    0    0  0.43171923955E+02 -0.33705662830E+02  0.20225817051E+02  0.58386388826E+02  0.00000000000E+00 0.  1.
</event>
<event>
 7    1  0.2840156E-009  0.1094660E+03  0.7561462E-02  0.1261562E+00
         -1   -1    0    0    0  501 -0.00000000000E+00  0.00000000000E+00  0.34623242979E+02  0.34623242979E+02  0.00000000000E+00 0.  1.
          1   -1    0    0  501    0  0.00000000000E+00 -0.00000000000E+00 -0.59119531436E+03  0.59119531436E+03  0.00000000000E+00 0. -1.
         25    2    1    2    0    0 -0.25768544961E+02 -0.79067870873E+02 -0.22041309382E+03  0.26672631178E+03  0.12508096320E+03 0.  0.
          5    1    3    3  502    0  0.13460983240E+02 -0.45345490081E+02 -0.81121736651E+01  0.48173553969E+02  0.41800000000E+01 0. -1.
         -5    1    3    3    0  502 -0.39229528201E+02 -0.33722380793E+02 -0.21230092015E+03  0.21855275781E+03  0.41800000000E+01 0. -1.
        -11    1    1    2    0    0  0.55417499362E+02  0.68410009724E+02 -0.29101773872E+03  0.30404334053E+03  0.00000000000E+00 0. -1.
         11    1    1    2    0    0 -0.29648954401E+02  0.10657861149E+02 -0.45141238842E+02  0.55048905035E+02  0.00000000000E+00 0.  1.
</event>
<event>
 7    1  0.2840156E-009  0.1716428E+03  0.7561462E-02  0.1176145E+00
         -2   -1    0    0    0  501 -0.00000000000E+00  0.00000000000E+00  0.30558884585E+02  0.30558884585E+02  0.00000000000E+00 0.  1.
          2   -1    0    0  501    0  0.00000000000E+00 -0.00000000000E+00 -0.12174653506E+04  0.12174653506E+04  0.00000000000E+00 0. -1.
         25    2    1    2    0    0 -0.11980342595E+03 -0.74272797169E+02 -0.85734763659E+03  0.87781644819E+03  0.12508971774E+03 0.  0.
          5    1    3    3  502    0 -0.66136287150E+02  0.24306967144E+02 -0.23339774115E+03  0.24383768187E+03  0.41800000000E+01 0.  1.
         -5    1    3    3    0  502 -0.53667138803E+02 -0.98579764313E+02 -0.62394989544E+03  0.63397876632E+03  0.41800000000E+01 0.  1.
        -11    1    1    2    0    0  0.94801278638E+02  0.14908554554E+02 -0.13783572216E+03  0.16795307003E+03  0.00000000000E+00 0.  1.
         11    1    1    2    0    0  0.25002147315E+02  0.59364242615E+02 -0.19172310725E+03  0.20225471694E+03  0.00000000000E+00 0. -1.
</event>
<event>
 7    1  0.2840156E-009  0.1692177E+03  0.7561462E-02  0.1178666E+00
          1   -1    0    0  501    0  0.00000000000E+00  0.00000000000E+00  0.80615682608E+02  0.80615682608E+02  0.00000000000E+00 0. -1.
         -1   -1    0    0    0  501 -0.00000000000E+00 -0.00000000000E+00 -0.65725068946E+03  0.65725068946E+03  0.00000000000E+00 0.  1.
         25    2    1    2    0    0  0.15523229264E+03  0.25040210950E+01 -0.50740608952E+03  0.54517077298E+03  0.12508755825E+03 0.  0.
          5    1    3    3  502    0  0.15989704140E+03 -0.12210068573E+02 -0.50387402932E+03  0.52879358870E+03  0.41800000000E+01 0. -1.
         -5    1    3    3    0  502 -0.46647487533E+01  0.14714089668E+02 -0.35320601942E+01  0.16377184279E+02  0.41800000000E+01 0. -1.
        -11    1    1    2    0    0 -0.68407398452E+02 -0.24148368332E+02 -0.73289285767E+02  0.10312145880E+03  0.00000000000E+00 0.  1.
         11    1    1    2    0    0 -0.86824894192E+02  0.21644347237E+02  0.40603684261E+01  0.89574140300E+02  0.00000000000E+00 0. -1.
</event>
<event>
 7    1  0.2840156E-009  0.1151008E+03  0.7561462E-02  0.1251405E+00
         -2   -1    0    0    0  501 -0.00000000000E+00  0.00000000000E+00  0.26762277152E+02  0.26762277152E+02  0.00000000000E+00 0.  1.
          2   -1    0    0  501    0  0.00000000000E+00 -0.00000000000E+00 -0.85862527035E+03  0.85862527035E+03  0.00000000000E+00 0. -1.
         25    2    1    2    0    0  0.74802630115E+02 -0.79691095488E+01 -0.66744094560E+03  0.68321583745E+03  0.12509006556E+03 0.  0.
          5    1    3    3  502    0  0.61606071198E+02 -0.42774377315E+02 -0.61021624355E+03  0.61482216263E+03  0.41800000000E+01 0. -1.
         -5    1    3    3    0  502  0.13196558917E+02  0.34805267766E+02 -0.57224702049E+02  0.68393674826E+02  0.41800000000E+01 0. -1.
        -11    1    1    2    0    0 -0.17653774107E+02 -0.39545749461E+02 -0.61797804661E+02  0.75461849312E+02  0.00000000000E+00 0.  1.
         11    1    1    2    0    0 -0.57148856009E+02  0.47514859010E+02 -0.10262424294E+03  0.12670986074E+03  0.00000000000E+00 0. -1.
</event>
<event>
 7    1  0.2840156E-009  0.1103530E+03  0.7561462E-02  0.1259918E+00
          1   -1    0    0  501    0  0.00000000000E+00  0.00000000000E+00  0.26527604677E+03  0.26527604677E+03  0.00000000000E+00 0.  1.
         -1   -1    0    0    0  501 -0.00000000000E+00 -0.00000000000E+00 -0.79223489126E+02  0.79223489126E+02  0.00000000000E+00 0. -1.
         25    2    1    2    0    0 -0.82488732583E+02  0.19679287302E+01  0.15927133789E+03  0.21868531528E+03  0.12509054440E+03 0.  0.
          5    1    3    3  502    0  0.42855877094E+01  0.42075932729E+02  0.14026733044E+02  0.44754575374E+02  0.41800000000E+01 0. -1.
         -5    1    3    3    0  502 -0.86774320292E+02 -0.40108003999E+02  0.14524460485E+03  0.17393073991E+03  0.41800000000E+01 0. -1.
        -11    1    1    2    0    0  0.13525543814E+02 -0.73788665306E+00  0.50956413437E+02  0.52726092995E+02  0.00000000000E+00 0.  1.
         11    1    1    2    0    0  0.68963188768E+02 -0.12300420771E+01 -0.24175193689E+02  0.73088127616E+02  0.00000000000E+00 0. -1.
</event>
<event>
 7    1  0.2840156E-009  0.1249892E+03  0.7561462E-02  0.1235086E+00
          2   -1    0    0  501    0  0.00000000000E+00  0.00000000000E+00  0.14784300727E+03  0.14784300727E+03  0.00000000000E+00 0. -1.
         -2   -1    0    0    0  501 -0.00000000000E+00 -0.00000000000E+00 -0.17059226956E+03  0.17059226956E+03  0.00000000000E+00 0.  1.
         25    2    1    2    0    0 -0.21511578527E+02 -0.11200236616E+03 -0.30410023443E+02  0.17199248538E+03  0.12509743188E+03 0.  0.
          5    1    3    3  502    0 -0.20712366310E+00 -0.72785399064E+02 -0.77896076605E+02  0.10669127597E+03  0.41800000000E+01 0.  1.
         -5    1    3    3    0  502 -0.21304454864E+02 -0.39216967098E+02  0.47486053162E+02  0.65301209409E+02  0.41800000000E+01 0.  1.
        -11    1    1    2    0    0 -0.16495586754E+02  0.29443573608E+01  0.24549970315E+02  0.29723301720E+02  0.00000000000E+00 0. -1.
         11    1    1    2    0    0  0.38007165281E+02  0.10905800880E+03 -0.16889209169E+02  0.11671948973E+03  0.00000000000E+00 0.  1.
</event>
<event>
 7    1  0.2840156E-009  0.1954408E+03  0.7561462E-02  0.1153644E+00
         -2   -1    0    0    0  501 -0.00000000000E+00  0.00000000000E+00  0.12769927855E+03  0.12769927855E+03  0.00000000000E+00 0.  1.
          2   -1    0    0  501    0  0.00000000000E+00 -0.00000000000E+00 -0.69948330559E+03  0.69948330559E+03  0.00000000000E+00 0. -1.
         25    2    1    2    0    0 -0.17749112618E+03 -0.50944375740E+02 -0.57992485198E+03  0.62133802346E+03  0.12509866570E+03 0.  0.
          5    1    3    3  502    0 -0.12890254420E+03 -0.16642293379E+02 -0.21268398543E+03  0.24928855146E+03  0.41800000000E+01 0.  1.
         -5    1    3    3    0  502 -0.48588581988E+02 -0.34302082361E+02 -0.36724086655E+03  0.37204947200E+03  0.41800000000E+01 0.  1.
        -11    1    1    2    0    0  0.30089651618E+02 -0.21495310526E+02  0.18362518633E+02  0.41287014903E+02  0.00000000000E+00 0.  1.
         11    1    1    2    0    0  0.14740147457E+03  0.72439686266E+02 -0.10221693696E+02  0.16455754578E+03  0.00000000000E+00 0. -1.
</event>
<event>
 7    1  0.3304339E-009  0.1925576E+03  0.7561462E-02  0.1156175E+00
          1   -1    0    0  501    0  0.00000000000E+00  0.00000000000E+00  0.24837758421E+03  0.24837758421E+03  0.00000000000E+00 0. -1.
         -1   -1    0    0    0  501 -0.00000000000E+00 -0.00000000000E+00 -0.15869591988E+03  0.15869591988E+03  0.00000000000E+00 0.  1.
         25    2    1    2    0    0 -0.13345796654E+03  0.92748066081E+02  0.80165929834E+02  0.22019853222E+03  0.12509030614E+03 0.  0.
          5    1    3    3  502    0 -0.13134972822E+03  0.21682430105E+02  0.43648814526E+02  0.14016265654E+03  0.41800000000E+01 0. -1.
         -5    1    3    3    0  502 -0.21082383202E+01  0.71065635975E+02  0.36517115308E+02  0.80035875680E+02  0.41800000000E+01 0. -1.
        -11    1    1    2    0    0  0.64684018724E+02 -0.91327610180E+02 -0.16911482766E+02  0.11318459661E+03  0.00000000000E+00 0.  1.
         11    1    1    2    0    0  0.68773947821E+02 -0.14204559009E+01  0.26427217259E+02  0.73690375260E+02  0.00000000000E+00 0. -1.
</event>
<event>
 7    1  0.2840156E-009  0.1586182E+03  0.7561462E-02  0.1190266E+00
          1   -1    0    0  501    0  0.00000000000E+00  0.00000000000E+00  0.79537268967E+03  0.79537268967E+03  0.00000000000E+00 0.  1.
         -1   -1    0    0    0  501 -0.00000000000E+00 -0.00000000000E+00 -0.45784245626E+02  0.45784245626E+02  0.00000000000E+00 0. -1.
         25    2    1    2    0    0  0.12310874293E+03  0.96910895298E+02  0.34151952554E+03  0.39601667953E+03  0.12508453112E+03 0.  0.
          5    1    3    3  502    0  0.89638980579E+02  0.75394642295E+02  0.10892073677E+03  0.16000218194E+03  0.41800000000E+01 0. -1.
         -5    1    3    3    0  502  0.33469762355E+02  0.21516253003E+02  0.23259878877E+03  0.23601449759E+03  0.41800000000E+01 0. -1.
        -11    1    1    2    0    0 -0.54984233999E+02 -0.63969718832E+02  0.30999721677E+03  0.32126883652E+03  0.00000000000E+00 0.  1.
         11    1    1    2    0    0 -0.68124508934E+02 -0.32941176466E+02  0.98071701733E+02  0.12387141924E+03  0.00000000000E+00 0. -1.
</event>
<event>
 7    1  0.2840156E-009  0.2516006E+03  0.7561462E-02  0.1112297E+00
         -2   -1    0    0    0  501 -0.00000000000E+00  0.00000000000E+00  0.77651381499E+02  0.77651381499E+02  0.00000000000E+00 0.  1.
          2   -1    0    0  501    0  0.00000000000E+00 -0.00000000000E+00 -0.11159131079E+04  0.11159131079E+04  0.00000000000E+00 0. -1.
         25    2    1    2    0    0  0.16671116629E+03 -0.17126382442E+03 -0.79900537249E+03  0.84331548845E+03  0.12509003668E+03 0.  0.
          5    1    3    3  502    0  0.12008642412E+03 -0.16339878680E+03 -0.48438540676E+03  0.52513484694E+03  0.41800000000E+01 0. -1.
         -5    1    3    3    0  502  0.46624742176E+02 -0.78650376164E+01 -0.31461996573E+03  0.31818064152E+03  0.41800000000E+01 0. -1.
        -11    1    1    2    0    0 -0.76168858763E+02  0.13573539423E+03 -0.17215789303E+03  0.23208647618E+03  0.00000000000E+00 0.  1.
         11    1    1    2    0    0 -0.90542307529E+02  0.35528430190E+02 -0.67098460851E+02  0.11816252474E+03  0.00000000000E+00 0. -1.
</event>
<event>
 7    1  0.2840156E-009  0.7209713E+02  0.7561462E-02  0.1353103E+00
          1   -1    0    0  501    0  0.00000000000E+00  0.00000000000E+00  0.44112750079E+03  0.44112750079E+03  0.00000000000E+00 0. -1.
         -1   -1    0    0    0  501 -0.00000000000E+00 -0.00000000000E+00 -0.30859507399E+02  0.30859507399E+02  0.00000000000E+00 0.  1.
         25    2    1    2    0    0  0.81687220358E+01  0.33139751274E+02  0.18427053998E+03  0.22531984767E+03  0.12509368774E+03 0.  0.
          5    1    3    3  502    0 -0.88213405282E+01 -0.82584202477E+00  0.18677390591E+03  0.18703064560E+03  0.41800000000E+01 0. -1.
         -5    1    3    3    0  502  0.16990062564E+02  0.33965593299E+02 -0.25033659296E+01  0.38289202069E+02  0.41800000000E+01 0. -1.
        -11    1    1    2    0    0  0.22027714382E+02  0.23372372006E+02  0.10429860371E+03  0.10913151108E+03  0.00000000000E+00 0. -1.
         11    1    1    2    0    0 -0.30196436418E+02 -0.56512123280E+02  0.12169884970E+03  0.13753564945E+03  0.00000000000E+00 0.  1.
</event>
<event>
 7    1  0.2840156E-009  0.1539446E+03  0.7561462E-02  0.1195708E+00
         -2   -1    0    0    0  501 -0.00000000000E+00  0.00000000000E+00  0.30340397488E+03  0.30340397488E+03  0.00000000000E+00 0.  1.
          2   -1    0    0  501    0  0.00000000000E+00 -0.00000000000E+00 -0.17546073318E+03  0.17546073318E+03  0.00000000000E+00 0. -1.
         25    2    1    2    0    0  0.82826891343E+02  0.10407897389E+03  0.22606070596E+03  0.29059028374E+03  0.12508614428E+03 0.  0.
          5    1    3    3  502    0  0.70408937111E+02  0.11324392189E+03  0.10854448500E+03  0.17199122621E+03  0.41800000000E+01 0. -1.
         -5    1    3    3    0  502  0.12417954232E+02 -0.91649479975E+01  0.11751622096E+03  0.11859905753E+03  0.41800000000E+01 0. -1.
        -11    1    1    2    0    0  0.16850527648E+02 -0.29586719490E+02 -0.90036651126E+01  0.35219032321E+02  0.00000000000E+00 0.  1.
         11    1    1    2    0    0 -0.99677418991E+02 -0.74492254398E+02 -0.89113799147E+02  0.15305539200E+03  0.00000000000E+00 0. -1.
</event>
<event>
 7    1  0.2840156E-009  0.9210966E+02  0.7561462E-02  0.1297822E+00
         -2   -1    0    0    0  501 -0.00000000000E+00  0.00000000000E+00  0.32868419840E+02  0.32868419840E+02  0.00000000000E+00 0.  1.
          2   -1    0    0  501    0  0.00000000000E+00 -0.00000000000E+00 -0.51761946758E+03  0.51761946758E+03  0.00000000000E+00 0. -1.
         25    2    1    2    0    0  0.65246937632E+02 -0.17362374700E+02 -0.31596861836E+03  0.34647805096E+03  0.12510898084E+03 0.  0.
          5    1    3    3  502    0  0.55146047067E+01 -0.14761332920E+02 -0.27114811599E+03  0.27163777539E+03  0.41800000000E+01 0. -1.
         -5    1    3    3    0  502  0.59732332925E+02 -0.26010417797E+01 -0.44820502365E+02  0.74840275569E+02  0.41800000000E+01 0. -1.
        -11    1    1    2    0    0 -0.59454019580E+02 -0.25527280902E+02 -0.65703014102E+02  0.92213386103E+02  0.00000000000E+00 0. -1.
         11    1    1    2    0    0 -0.57929180523E+01  0.42889655602E+02 -0.10307941528E+03  0.11179645036E+03  0.00000000000E+00 0.  1.
</event>
<event>
 7    1  0.2840156E-009  0.9725179E+02  0.7561462E-02  0.1286184E+00
         -4   -1    0    0    0  501 -0.00000000000E+00  0.00000000000E+00  0.11290585893E+03  0.11290585893E+03  0.00000000000E+00 0.  1.
          4   -1    0    0  501    0  0.00000000000E+00 -0.00000000000E+00 -0.20039805725E+03  0.20039805725E+03  0.00000000000E+00 0. -1.
         25    2    1    2    0    0  0.65021602114E+01 -0.31008920635E+02  0.55829943101E+02  0.14059881414E+03  0.12508881942E+03 0.  0.
          5    1    3    3  502    0 -0.10778494129E+02  0.33855824346E+02 -0.18567632627E+02  0.40306601931E+02  0.41800000000E+01 0. -1.
         -5    1    3    3    0  502  0.17280654340E+02 -0.64864744981E+02  0.74397575729E+02  0.10029221221E+03  0.41800000000E+01 0. -1.
        -11    1    1    2    0    0 -0.35483067443E+02  0.46593089614E+02 -0.63592475207E+02  0.86452108001E+02  0.00000000000E+00 0. -1.
         11    1    1    2    0    0  0.28980907231E+02 -0.15584168979E+02 -0.79729666214E+02  0.86252994042E+02  0.00000000000E+00 0.  1.
</event>
<event>
 7    1  0.2840156E-009  0.6336682E+02  0.7561462E-02  0.1384222E+00
         -3   -1    0    0    0  501 -0.00000000000E+00  0.00000000000E+00  0.24955159620E+03  0.24955159620E+03  0.00000000000E+00 0.  1.
          3   -1    0    0  501    0  0.00000000000E+00 -0.00000000000E+00 -0.54819837074E+02  0.54819837074E+02  0.00000000000E+00 0. -1.
         25    2    1    2    0    0  0.23199733498E+02  0.27510349574E+02  0.71923800163E+02  0.14871202418E+03  0.12508871307E+03 0.  0.
          5    1    3    3  502    0  0.29776967987E+02  0.32091165547E+02  0.10531007324E+03  0.11412359377E+03  0.41800000000E+01 0. -1.
         -5    1    3    3    0  502 -0.65772344893E+01 -0.45808159727E+01 -0.33386273078E+02  0.34588430414E+02  0.41800000000E+01 0. -1.
        -11    1    1    2    0    0  0.94065828844E+01 -0.38248225898E+02  0.14386538576E+02  0.41933078567E+02  0.00000000000E+00 0. -1.
         11    1    1    2    0    0 -0.32606316382E+02  0.10737876324E+02  0.10842142039E+03  0.11372633053E+03  0.00000000000E+00 0.  1.
</event>
<event>
 7    1  0.2840156E-009  0.1118712E+03  0.7561462E-02  0.1257143E+00
         -1   -1    0    0    0  501 -0.00000000000E+00  0.00000000000E+00  0.17399625016E+02  0.17399625016E+02  0.00000000000E+00 0.  1.
          1   -1    0    0  501    0  0.00000000000E+00 -0.00000000000E+00 -0.13326162484E+04  0.13326162484E+04  0.00000000000E+00 0. -1.
         25    2    1    2    0    0  0.18041515364E+02 -0.91597971929E+02 -0.93186733670E+03  0.94484892695E+03  0.12508827603E+03 0.  0.
          5    1    3    3  502    0  0.27281125173E+02 -0.67792690107E+02 -0.90347299325E+03  0.90643313629E+03  0.41800000000E+01 0. -1.
         -5    1    3    3    0  502 -0.92396098081E+01 -0.23805281822E+02 -0.28394343452E+02  0.38415790661E+02  0.41800000000E+01 0. -1.
        -11    1    1    2    0    0 -0.17849613712E+02 -0.11720017967E+02 -0.28685907466E+02  0.35760995763E+02  0.00000000000E+00 0.  1.
         11    1    1    2    0    0 -0.19190165289E+00  0.10331798990E+03 -0.35466337924E+03  0.36940595073E+03  0.00000000000E+00 0. -1.
</event>
<event>
 7    1  0.2840156E-009  0.1792959E+03  0.7561462E-02  0.1168486E+00
         -2   -1    0    0    0  501 -0.00000000000E+00  0.00000000000E+00  0.30810412114E+02  0.30810412114E+02  0.00000000000E+00 0.  1.
          2   -1    0    0  501    0  0.00000000000E+00 -0.00000000000E+00 -0.11632701763E+04  0.11632701763E+04  0.00000000000E+00 0. -1.
         25    2    1    2    0    0  0.14311346880E+03  0.36232954105E+01 -0.40840792584E+03  0.45048834874E+03  0.12509246678E+03 0.  0.
          5    1    3    3  502    0  0.73069842249E+02 -0.60455022292E+02 -0.19488340672E+03  0.21677413633E+03  0.41800000000E+01 0.  1.
         -5    1    3    3    0  502  0.70043626550E+02  0.64078317703E+02 -0.21352451912E+03  0.23371421242E+03  0.41800000000E+01 0.  1.
        -11    1    1    2    0    0 -0.96336078985E+02 -0.44870444696E+02 -0.48830274510E+03  0.49973349677E+03  0.00000000000E+00 0.  1.
         11    1    1    2    0    0 -0.46777389814E+02  0.41247149285E+02 -0.23574909324E+03  0.24385874290E+03  0.00000000000E+00 0. -1.
</event>
<event>
 7    1  0.2840156E-009  0.7679425E+02  0.7561462E-02  0.1338403E+00
         -1   -1    0    0    0  501 -0.00000000000E+00  0.00000000000E+00  0.19872356126E+03  0.19872356126E+03  0.00000000000E+00 0.  1.
          1   -1    0    0  501    0  0.00000000000E+00 -0.00000000000E+00 -0.11459855202E+03  0.11459855202E+03  0.00000000000E+00 0. -1.
         25    2    1    2    0    0  0.32696417300E+02 -0.36699858224E+02  0.14256460000E+03  0.19593059597E+03  0.12509275744E+03 0.  0.
          5    1    3    3  502    0 -0.48945392101E+01 -0.21130634770E+02  0.15229398740E+03  0.15388759287E+03  0.41800000000E+01 0.  1.
         -5    1    3    3    0  502  0.37590956510E+02 -0.15569223454E+02 -0.97293874020E+01  0.42043003098E+02  0.41800000000E+01 0.  1.
        -11    1    1    2    0    0  0.12032177764E+02  0.43698490060E+02 -0.24535844931E+01  0.45391093974E+02  0.00000000000E+00 0.  1.
         11    1    1    2    0    0 -0.44728595064E+02 -0.69986318363E+01 -0.55986006263E+02  0.72000423341E+02  0.00000000000E+00 0. -1.
</event>
<event>
 7    1  0.2840156E-009  0.2150355E+03  0.7561462E-02  0.1137639E+00
         -1   -1    0    0    0  501 -0.00000000000E+00  0.00000000000E+00  0.15222501607E+03  0.15222501607E+03  0.00000000000E+00 0.  1.
          1   -1    0    0  501    0  0.00000000000E+00 -0.00000000000E+00 -0.32492235154E+03  0.32492235154E+03  0.00000000000E+00 0. -1.
         25    2    1    2    0    0 -0.88661388164E+02 -0.16842388093E+03 -0.50374418147E+02  0.23326702784E+03  0.12509388015E+03 0.  0.
          5    1    3    3  502    0 -0.11591962509E+03 -0.12137739307E+03 -0.15653820567E+02  0.16861893586E+03  0.41800000000E+01 0. -1.
         -5    1    3    3    0  502  0.27258236929E+02 -0.47046487858E+02 -0.34720597579E+02  0.64648091979E+02  0.41800000000E+01 0. -1.
        -11    1    1    2    0    0  0.52173954442E+01  0.98894889270E+02 -0.80009937846E+02  0.12731461225E+03  0.00000000000E+00 0. -1.
         11    1    1    2    0    0  0.83443992719E+02  0.69528991662E+02 -0.42312979478E+02  0.11656572753E+03  0.00000000000E+00 0.  1.
</event>
<event>
 7    1  0.2840156E-009  0.1046257E+03  0.7561462E-02  0.1270859E+00
          1   -1    0    0  501    0  0.00000000000E+00  0.00000000000E+00  0.19132680110E+03  0.19132680110E+03  0.00000000000E+00 0. -1.
         -1   -1    0    0    0  501 -0.00000000000E+00 -0.00000000000E+00 -0.74513873489E+02  0.74513873489E+02  0.00000000000E+00 0.  1.
         25    2    1    2    0    0  0.94476539190E+01 -0.42667614763E+02  0.54932793893E+02  0.14345065138E+03  0.12510273387E+03 0.  0.
          5    1    3    3  502    0 -0.47414422081E+02 -0.16774532854E+02 -0.11914412027E+02  0.51854970713E+02  0.41800000000E+01 0.  1.
         -5    1    3    3    0  502  0.56862076000E+02 -0.25893081909E+02  0.66847205920E+02  0.91595680668E+02  0.41800000000E+01 0.  1.
        -11    1    1    2    0    0  0.38331127121E+02  0.20924155969E+02  0.53775907495E+02  0.69274409679E+02  0.00000000000E+00 0. -1.
         11    1    1    2    0    0 -0.47778781040E+02  0.21743458794E+02  0.81042262236E+01  0.53115613530E+02  0.00000000000E+00 0.  1.
</event>
<event>
 7    1  0.2840156E-009  0.1004039E+03  0.7561462E-02  0.1279449E+00
          2   -1    0    0  501    0  0.00000000000E+00  0.00000000000E+00  0.86259357849E+03  0.86259357849E+03  0.00000000000E+00 0. -1.
         -2   -1    0    0    0  501 -0.00000000000E+00 -0.00000000000E+00 -0.42313287707E+02  0.42313287707E+02  0.00000000000E+00 0.  1.
         25    2    1    2    0    0 -0.26554987664E+02 -0.92530770993E+02  0.72341275989E+03  0.74043294517E+03  0.12509122341E+03 0.  0.
          5    1    3    3  502    0 -0.18893648133E+02 -0.12582644757E+02  0.15129247161E+02  0.27598177630E+02  0.41800000000E+01 0.  1.
         -5    1    3    3    0  502 -0.76613395313E+01 -0.79948126236E+02  0.70828351273E+03  0.71283476754E+03  0.41800000000E+01 0.  1.
        -11    1    1    2    0    0  0.59395752373E+01  0.46358331537E+02 -0.85900472651E+01  0.47520125936E+02  0.00000000000E+00 0.  1.
         11    1    1    2    0    0  0.20615412427E+02  0.46172439456E+02  0.10545757816E+03  0.11695379509E+03  0.00000000000E+00 0. -1.
</event>
<event>
 7    1  0.2840156E-009  0.1101908E+03  0.7561462E-02  0.1260217E+00
          2   -1    0    0  501    0  0.00000000000E+00  0.00000000000E+00  0.19759134375E+03  0.19759134375E+03  0.00000000000E+00 0. -1.
         -2   -1    0    0    0  501 -0.00000000000E+00 -0.00000000000E+00 -0.65281690738E+02  0.65281690738E+02  0.00000000000E+00 0.  1.
         25    2    1    2    0    0 -0.31583749434E+02 -0.18667333974E+02  0.69083559184E+02  0.14753228166E+03  0.12508890197E+03 0.  0.
          5    1    3    3  502    0 -0.23059654861E+02  0.53060086457E+02  0.30721247748E+02  0.65638311377E+02  0.41800000000E+01 0.  1.
         -5    1    3    3    0  502 -0.85240945732E+01 -0.71727420432E+02  0.38362311435E+02  0.81893970283E+02  0.41800000000E+01 0.  1.
        -11    1    1    2    0    0  0.77824230264E+00 -0.31307378161E+02  0.33657809778E+01  0.31497397829E+02  0.00000000000E+00 0.  1.
         11    1    1    2    0    0  0.30805507132E+02  0.49974712136E+02  0.59860312848E+02  0.83843354996E+02  0.00000000000E+00 0. -1.
</event>
<event>
 7    1  0.2840156E-009  0.1027828E+03  0.7561462E-02  0.1274551E+00
         -1   -1    0    0    0  501 -0.00000000000E+00  0.00000000000E+00  0.12390732993E+02  0.12390732993E+02  0.00000000000E+00 0.  1.
          1   -1    0    0  501    0  0.00000000000E+00 -0.00000000000E+00 -0.13017358734E+04  0.13017358734E+04  0.00000000000E+00 0. -1.
         25    2    1    2    0    0  0.40369606190E+02  0.52423277500E+02 -0.75177178311E+03  0.76497472105E+03  0.12509038669E+03 0.  0.
          5    1    3    3  502    0 -0.90098171923E+01 -0.10080680501E+02 -0.51371403125E+03  0.51390891725E+03  0.41800000000E+01 0. -1.
         -5    1    3    3    0  502  0.49379423382E+02  0.62503958001E+02 -0.23805775186E+03  0.25106580380E+03  0.41800000000E+01 0. -1.
        -11    1    1    2    0    0 -0.18690139741E+02 -0.76790936782E+02 -0.35535450346E+03  0.36403707562E+03  0.00000000000E+00 0.  1.
         11    1    1    2    0    0 -0.21679466449E+02  0.24367659282E+02 -0.18221885384E+03  0.18511480972E+03  0.00000000000E+00 0. -1.
</event>
<event>
 7    1  0.2840156E-009  0.9708849E+02  0.7561462E-02  0.1286540E+00
         -1   -1    0    0    0  501 -0.00000000000E+00  0.00000000000E+00  0.73148284051E+02  0.73148284051E+02  0.00000000000E+00 0.  1.
          1   -1    0    0  501    0  0.00000000000E+00 -0.00000000000E+00 -0.21856758709E+03  0.21856758709E+03  0.00000000000E+00 0. -1.
         25    2    1    2    0    0  0.32586540314E+02  0.53037946161E+02 -0.10013630105E+03  0.17190266817E+03  0.12509333392E+03 0.  0.
          5    1    3    3  502    0  0.40834704051E+02  0.85279486170E+02 -0.10091491688E+03  0.13835229187E+03  0.41800000000E+01 0.  1.
         -5    1    3    3    0  502 -0.82481637368E+01 -0.32241540008E+02  0.77861582823E+00  0.33550376298E+02  0.41800000000E+01 0.  1.
        -11    1    1    2    0    0 -0.23976224374E+02 -0.18189937070E+02 -0.70023651412E+02  0.76217090622E+02  0.00000000000E+00 0. -1.
         11    1    1    2    0    0 -0.86103159403E+01 -0.34848009091E+02  0.24740649425E+02  0.43596112352E+02  0.00000000000E+00 0.  1.
</event>
<event>
 7    1  0.2840156E-009  0.9929741E+02  0.7561462E-02  0.1281780E+00
         -1   -1    0    0    0  501 -0.00000000000E+00  0.00000000000E+00  0.21436875430E+03  0.21436875430E+03  0.00000000000E+00 0.  1.
          1   -1    0    0  501    0  0.00000000000E+00 -0.00000000000E+00 -0.83299786696E+02  0.83299786696E+02  0.00000000000E+00 0. -1.
         25    2    1    2    0    0  0.46709264393E+02 -0.62479032708E+02  0.86098849129E+02  0.17071479509E+03  0.12508055217E+03 0.  0.
          5    1    3    3  502    0 -0.17892442915E+02  0.52328690085E+00  0.77866721242E+02  0.80006949821E+02  0.41800000000E+01 0.  1.
         -5    1    3    3    0  502  0.64601707308E+02 -0.63002319608E+02  0.82321278867E+01  0.90707845265E+02  0.41800000000E+01 0.  1.
        -11    1    1    2    0    0 -0.12493054346E+02  0.52889568928E+02  0.66130672883E+02  0.85595845718E+02  0.00000000000E+00 0.  1.
         11    1    1    2    0    0 -0.34216210048E+02  0.95894637795E+01 -0.21160554407E+02  0.41357900193E+02  0.00000000000E+00 0. -1.
</event>
<event>
 7    1  0.2840156E-009  0.9405382E+02  0.7561462E-02  0.1293321E+00
          2   -1    0    0  501    0  0.00000000000E+00  0.00000000000E+00  0.17925965660E+03  0.17925965660E+03  0.00000000000E+00 0. -1.
         -2   -1    0    0    0  501 -0.00000000000E+00 -0.00000000000E+00 -0.15996733324E+03  0.15996733324E+03  0.00000000000E+00 0.  1.
         25    2    1    2    0    0 -0.37535957959E+02 -0.65164548414E+02 -0.93932336498E+02  0.17357293148E+03  0.12509561220E+03 0.  0.
          5    1    3    3  502    0 -0.28998807956E+02  0.23307396681E+01  0.23608429992E+02  0.37698721158E+02  0.41800000000E+01 0. -1.
         -5    1    3    3    0  502 -0.85371500029E+01 -0.67495288083E+02 -0.11754076649E+03  0.13587421032E+03  0.41800000000E+01 0. -1.
        -11    1    1    2    0    0  0.12728505472E+02  0.64494675738E+02  0.12261051761E+03  0.13912195038E+03  0.00000000000E+00 0. -1.
         11    1    1    2    0    0  0.24807452486E+02  0.66987267605E+00 -0.93858577535E+01  0.26532107983E+02  0.00000000000E+00 0.  1.
</event>
<event>
 7    1  0.2840156E-009  0.2722967E+03  0.7561462E-02  0.1099972E+00
          2   -1    0    0  501    0  0.00000000000E+00  0.00000000000E+00  0.21767283729E+04  0.21767283729E+04  0.00000000000E+00 0.  1.
         -2   -1    0    0    0  501 -0.00000000000E+00 -0.00000000000E+00 -0.37774590116E+02  0.37774590116E+02  0.00000000000E+00 0. -1.
         25    2    1    2    0    0  0.23325388122E+03 -0.10689205352E+03  0.13472407863E+04  0.13771485945E+04  0.12508889205E+03 0.  0.
          5    1    3    3  502    0  0.79543998470E+02 -0.87425059935E+02  0.78802580230E+03  0.79685163380E+03  0.41800000000E+01 0. -1.
         -5    1    3    3    0  502  0.15370988275E+03 -0.19466993583E+02  0.55921498398E+03  0.58029696070E+03  0.41800000000E+01 0. -1.
        -11    1    1    2    0    0 -0.22240749291E+03  0.70437366020E+02  0.64889721095E+03  0.68956080647E+03  0.00000000000E+00 0. -1.
         11    1    1    2    0    0 -0.10846388313E+02  0.36454687499E+02  0.14281578560E+03  0.14779356209E+03  0.00000000000E+00 0.  1.
</event>
<event>
 7    1  0.2840156E-009  0.1671390E+03  0.7561462E-02  0.1180865E+00
         -1   -1    0    0    0  501 -0.00000000000E+00  0.00000000000E+00  0.35919711937E+02  0.35919711937E+02  0.00000000000E+00 0.  1.
          1   -1    0    0  501    0  0.00000000000E+00 -0.00000000000E+00 -0.82403245223E+03  0.82403245223E+03  0.00000000000E+00 0. -1.
         25    2    1    2    0    0 -0.85943885221E+02 -0.10078496219E+03 -0.41494549548E+03  0.45317982298E+03  0.12509287638E+03 0.  0.
          5    1    3    3  502    0 -0.11684430827E+03 -0.71357566461E+02 -0.28227426840E+03  0.31375265682E+03  0.41800000000E+01 0.  1.
         -5    1    3    3    0  502  0.30900423049E+02 -0.29427395733E+02 -0.13267122709E+03  0.13942716615E+03  0.41800000000E+01 0.  1.
        -11    1    1    2    0    0  0.44462588026E+02 -0.10438103116E+01 -0.58762812188E+02  0.73695857212E+02  0.00000000000E+00 0.  1.
         11    1    1    2    0    0  0.41481297196E+02  0.10182877251E+03 -0.31440443262E+03  0.33307648398E+03  0.00000000000E+00 0. -1.
</event>
<event>
 7    1  0.2840156E-009  0.8388909E+02  0.7561462E-02  0.1318364E+00
         -1   -1    0    0    0  501 -0.00000000000E+00  0.00000000000E+00  0.86328029733E+02  0.86328029733E+02  0.00000000000E+00 0.  1.
          1   -1    0    0  501    0  0.00000000000E+00 -0.00000000000E+00 -0.18328019662E+03  0.18328019662E+03  0.00000000000E+00 0. -1.
         25    2    1    2    0    0 -0.62062413332E+02 -0.25076837224E+01 -0.72087568091E+02  0.15716451513E+03  0.12508411456E+03 0.  0.
          5    1    3    3  502    0 -0.55563509156E+02  0.19175554969E+02 -0.10297459927E+03  0.11864335613E+03  0.41800000000E+01 0. -1.
         -5    1    3    3    0  502 -0.64989041764E+01 -0.21683238692E+02  0.30887031179E+02  0.38521159000E+02  0.41800000000E+01 0. -1.
        -11    1    1    2    0    0  0.73902767879E+02  0.11312598440E+01 -0.46797529892E+02  0.87480898790E+02  0.00000000000E+00 0. -1.
         11    1    1    2    0    0 -0.11840354547E+02  0.13764238783E+01  0.21932931093E+02  0.24962812439E+02  0.00000000000E+00 0.  1.
</event>
<event>
 7    1  0.2840156E-009  0.5661271E+02  0.7561462E-02  0.1412623E+00
          1   -1    0    0  501    0  0.00000000000E+00  0.00000000000E+00  0.28682986660E+03  0.28682986660E+03  0.00000000000E+00 0. -1.
         -1   -1    0    0    0  501 -0.00000000000E+00 -0.00000000000E+00 -0.44386663814E+02  0.44386663814E+02  0.00000000000E+00 0.  1.
         25    2    1    2    0    0 -0.30681787350E+01 -0.33833989859E+02  0.14160553256E+03  0.19197266374E+03  0.12508886513E+03 0.  0.
          5    1    3    3  502    0 -0.28556911517E+02 -0.21775239769E+02 -0.10158879119E+02  0.37554407029E+02  0.41800000000E+01 0.  1.
         -5    1    3    3    0  502  0.25488732782E+02 -0.12058750090E+02  0.15176441168E+03  0.15441825671E+03  0.41800000000E+01 0.  1.
        -11    1    1    2    0    0  0.17521814622E+02  0.86779173209E+01 -0.11861926467E+02  0.22869751555E+02  0.00000000000E+00 0.  1.
         11    1    1    2    0    0 -0.14453635887E+02  0.25156072538E+02  0.11269959669E+03  0.11637411512E+03  0.00000000000E+00 0. -1.
</event>
<event>
 7    1  0.2840156E-009  0.1424774E+03  0.7561462E-02  0.1210034E+00
         -2   -1    0    0    0  501 -0.00000000000E+00  0.00000000000E+00  0.91703687491E+03  0.91703687491E+03  0.00000000000E+00 0.  1.
          2   -1    0    0  501    0  0.00000000000E+00 -0.00000000000E+00 -0.31992682854E+02  0.31992682854E+02  0.00000000000E+00 0. -1.
         25    2    1    2    0    0 -0.13203331143E+03  0.17204248378E+01  0.44362766331E+03  0.47946763209E+03  0.12509177181E+03 0.  0.
          5    1    3    3  502    0 -0.10419836599E+03 -0.31754168293E+02  0.16716969340E+03  0.19957155477E+03  0.41800000000E+01 0. -1.
         -5    1    3    3    0  502 -0.27834945441E+02  0.33474593130E+02  0.27645796991E+03  0.27989607732E+03  0.41800000000E+01 0. -1.
        -11    1    1    2    0    0  0.11337713553E+03 -0.37787927938E+01  0.43527335212E+03  0.44981278906E+03  0.00000000000E+00 0.  1.
         11    1    1    2    0    0  0.18656175908E+02  0.20583679560E+01  0.61431766233E+01  0.19749136618E+02  0.00000000000E+00 0. -1.
</event>
<event>
 7    1  0.2840156E-009  0.1106590E+03  0.7561462E-02  0.1259354E+00
          3   -1    0    0  501    0  0.00000000000E+00  0.00000000000E+00  0.59165947920E+03  0.59165947920E+03  0.00000000000E+00 0. -1.
         -3   -1    0    0    0  501 -0.00000000000E+00 -0.00000000000E+00 -0.23539715199E+02  0.23539715199E+02  0.00000000000E+00 0.  1.
         25    2    1    2    0    0 -0.29626625015E+02  0.31428721932E+02  0.27911241991E+03  0.30889677903E+03  0.12509186895E+03 0.  0.
          5    1    3    3  502    0 -0.48904174183E+02 -0.35988051010E+02  0.10877614634E+03  0.12464541901E+03  0.41800000000E+01 0.  1.
         -5    1    3    3    0  502  0.19277549168E+02  0.67416772942E+02  0.17033627357E+03  0.18425136002E+03  0.41800000000E+01 0.  1.
        -11    1    1    2    0    0 -0.19930586344E+02 -0.35264484959E+02  0.20267822541E+03  0.20668641761E+03  0.00000000000E+00 0. -1.
         11    1    1    2    0    0  0.49557211360E+02  0.38357630271E+01  0.86329118683E+02  0.99615997753E+02  0.00000000000E+00 0.  1.
</event>
<event>
 7    1  0.2840156E-009  0.8860725E+02  0.7561462E-02  0.1306260E+00
         -1   -1    0    0    0  501 -0.00000000000E+00  0.00000000000E+00  0.89182960431E+02  0.89182960431E+02  0.00000000000E+00 0. -1.
          1   -1    0    0  501    0  0.00000000000E+00 -0.00000000000E+00 -0.21282420106E+03  0.21282420106E+03  0.00000000000E+00 0.  1.
         25    2    1    2    0    0  0.39864078211E+02 -0.37330881896E+02 -0.15132102237E+03  0.20378679357E+03  0.12509302917E+03 0.  0.
          5    1    3    3  502    0 -0.24946332780E+02 -0.45083640959E+02 -0.17051896251E+02  0.54434306894E+02  0.41800000000E+01 0. -1.
         -5    1    3    3    0  502  0.64810410991E+02  0.77527590637E+01 -0.13426912612E+03  0.14935248667E+03  0.41800000000E+01 0. -1.
        -11    1    1    2    0    0 -0.71918866471E+01  0.23603592230E+02  0.50405396629E+02  0.56120912404E+02  0.00000000000E+00 0. -1.
         11    1    1    2    0    0 -0.32672191563E+02  0.13727289666E+02 -0.22725614885E+02  0.42099455519E+02  0.00000000000E+00 0.  1.
</event>
<event>
 7    1  0.2840156E-009  0.1214991E+03  0.7561462E-02  0.1240644E+00
          1   -1    0    0  501    0  0.00000000000E+00  0.00000000000E+00  0.32150489091E+02  0.32150489091E+02  0.00000000000E+00 0. -1.
         -1   -1    0    0    0  501 -0.00000000000E+00 -0.00000000000E+00 -0.57154120283E+03  0.57154120283E+03  0.00000000000E+00 0.  1.
         25    2    1    2    0    0  0.53820147104E+02  0.55432080773E+02 -0.24367712372E+03  0.28459661033E+03  0.12508943271E+03 0.  0.
          5    1    3    3  502    0  0.96012206022E+01 -0.39565360850E+02 -0.52752315958E+02  0.66767360702E+02  0.41800000000E+01 0. -1.
         -5    1    3    3    0  502  0.44218926501E+02  0.94997441623E+02 -0.19092480776E+03  0.21782924963E+03  0.41800000000E+01 0. -1.
        -11    1    1    2    0    0 -0.40372205156E+01 -0.46438636557E+02 -0.23723564187E+03  0.24177178472E+03  0.00000000000E+00 0.  1.
         11    1    1    2    0    0 -0.49782926588E+02 -0.89934442164E+01 -0.58477948154E+02  0.77323296870E+02  0.00000000000E+00 0. -1.
</event>
<event>
 7    1  0.2840156E-009  0.1525753E+03  0.7561462E-02  0.1197344E+00
          2   -1    0    0  501    0  0.00000000000E+00  0.00000000000E+00  0.45629734872E+03  0.45629734872E+03  0.00000000000E+00 0. -1.
         -2   -1    0    0    0  501 -0.00000000000E+00 -0.00000000000E+00 -0.58769991015E+02  0.58769991015E+02  0.00000000000E+00 0.  1.
         25    2    1    2    0    0  0.99097650917E+02  0.65045612737E+02  0.16337562795E+03  0.23746768848E+03  0.12509209053E+03 0.  0.
          5    1    3    3  502    0  0.87079494818E+02 -0.13964700150E+02  0.11096516931E+03  0.14180476885E+03  0.41800000000E+01 0.  1.
         -5    1    3    3    0  502  0.12018156099E+02  0.79010312887E+02  0.52410458635E+02  0.95662919634E+02  0.41800000000E+01 0.  1.
        -11    1    1    2    0    0 -0.74646240598E+02 -0.78991922158E+02  0.22152341276E+03  0.24674765937E+03  0.00000000000E+00 0. -1.
         11    1    1    2    0    0 -0.24451410319E+02  0.13946309421E+02  0.12628316993E+02  0.30851991882E+02  0.00000000000E+00 0.  1.
</event>
<event>
 7    1  0.2840156E-009  0.2271145E+03  0.7561462E-02  0.1128687E+00
          1   -1    0    0  501    0  0.00000000000E+00  0.00000000000E+00  0.13049099037E+03  0.13049099037E+03  0.00000000000E+00 0. -1.
         -1   -1    0    0    0  501 -0.00000000000E+00 -0.00000000000E+00 -0.41305560309E+03  0.41305560309E+03  0.00000000000E+00 0.  1.
         25    2    1    2    0    0 -0.13286446316E+03  0.15441243027E+03 -0.17314917115E+03  0.29516914325E+03  0.12509205994E+03 0.  0.
          5    1    3    3  502    0 -0.41900490897E+01  0.88608556427E+02 -0.35813536370E+02  0.95755493684E+02  0.41800000000E+01 0. -1.
         -5    1    3    3    0  502 -0.12867441407E+03  0.65803873842E+02 -0.13733563478E+03  0.19941364956E+03  0.41800000000E+01 0. -1.
        -11    1    1    2    0    0  0.69981538695E+02 -0.13971367420E+03 -0.61337728615E+02  0.16786793461E+03  0.00000000000E+00 0.  1.
         11    1    1    2    0    0  0.62882924470E+02 -0.14698756068E+02 -0.48077712952E+02  0.80509515603E+02  0.00000000000E+00 0. -1.
</event>
<event>
 7    1  0.2840156E-009  0.1188695E+03  0.7561462E-02  0.1244974E+00
          2   -1    0    0  501    0  0.00000000000E+00  0.00000000000E+00  0.60729875949E+03  0.60729875949E+03  0.00000000000E+00 0. -1.
         -2   -1    0    0    0  501 -0.00000000000E+00 -0.00000000000E+00 -0.25569872182E+02  0.25569872182E+02  0.00000000000E+00 0.  1.
         25    2    1    2    0    0  0.59715116243E+02  0.17150939765E+01  0.34705987661E+03  0.37372163133E+03  0.12509381727E+03 0.  0.
          5    1    3    3  502    0  0.94462053650E+02  0.23450423118E+02  0.24592837665E+03  0.26452077568E+03  0.41800000000E+01 0.  1.
         -5    1    3    3    0  502 -0.34746937406E+02 -0.21735329141E+02  0.10113149996E+03  0.10920085565E+03  0.41800000000E+01 0.  1.
        -11    1    1    2    0    0 -0.56332004492E+02 -0.34569910485E+02  0.95687080956E+02  0.11629441475E+03  0.00000000000E+00 0.  1.
         11    1    1    2    0    0 -0.33831117514E+01  0.32854816508E+02  0.13898192974E+03  0.14285258558E+03  0.00000000000E+00 0. -1.
</event>
<event>
 7    1  0.2840156E-009  0.7734440E+02  0.7561462E-02  0.1336761E+00
          3   -1    0    0  501    0  0.00000000000E+00  0.00000000000E+00  0.25947427640E+02  0.25947427640E+02  0.00000000000E+00 0. -1.
         -3   -1    0    0    0  501 -0.00000000000E+00 -0.00000000000E+00 -0.42514111790E+03  0.42514111790E+03  0.00000000000E+00 0.  1.
         25    2    1    2    0    0  0.42917831062E+01  0.46479082780E+01 -0.24678460101E+03  0.27674804433E+03  0.12508724271E+03 0.  0.
          5    1    3    3  502    0  0.48201514494E+02  0.78989887078E+01 -0.34601068966E+02  0.60004053161E+02  0.41800000000E+01 0. -1.
         -5    1    3    3    0  502 -0.43909731388E+02 -0.32510804298E+01 -0.21218353205E+03  0.21674399117E+03  0.41800000000E+01 0. -1.
        -11    1    1    2    0    0 -0.26417809312E+02 -0.21145597008E+02 -0.14008569204E+03  0.14411466974E+03  0.00000000000E+00 0.  1.
         11    1    1    2    0    0  0.22126026206E+02  0.16497688730E+02 -0.12323397206E+02  0.30225831465E+02  0.00000000000E+00 0. -1.
</event>
<event>
 7    1  0.2840156E-009  0.1223576E+03  0.7561462E-02  0.1239258E+00
         -1   -1    0    0    0  501 -0.00000000000E+00  0.00000000000E+00  0.68889229571E+02  0.68889229571E+02  0.00000000000E+00 0.  1.
          1   -1    0    0  501    0  0.00000000000E+00 -0.00000000000E+00 -0.27412442225E+03  0.27412442225E+03  0.00000000000E+00 0. -1.
         25    2    1    2    0    0 -0.43991369382E+02  0.71340503345E+02 -0.96483745649E+02  0.17883013210E+03  0.12508555063E+03 0.  0.
          5    1    3    3  502    0  0.15825426291E+02 -0.14322638325E+02 -0.66626394194E+02  0.70086595645E+02  0.41800000000E+01 0. -1.
         -5    1    3    3    0  502 -0.59816795673E+02  0.85663141670E+02 -0.29857351455E+02  0.10874353646E+03  0.41800000000E+01 0. -1.
        -11    1    1    2    0    0 -0.24116136178E+02 -0.30882367543E+02 -0.58369347473E+02  0.70301418006E+02  0.00000000000E+00 0. -1.
         11    1    1    2    0    0  0.68107505560E+02 -0.40458135802E+02 -0.50382099557E+02  0.93882101712E+02  0.00000000000E+00 0.  1.
</event>
<event>
 7    1  0.2840156E-009  0.1283348E+03  0.7561462E-02  0.1229948E+00
         -2   -1    0    0    0  501 -0.00000000000E+00  0.00000000000E+00  0.11866573211E+03  0.11866573211E+03  0.00000000000E+00 0.  1.
          2   -1    0    0  501    0  0.00000000000E+00 -0.00000000000E+00 -0.24424546592E+03  0.24424546592E+03  0.00000000000E+00 0. -1.
         25    2    1    2    0    0 -0.43031521144E+02  0.91980707824E+02  0.19254421636E+02  0.16226714030E+03  0.12509088554E+03 0.  0.
          5    1    3    3  502    0 -0.61542450269E+02  0.18183939967E+02  0.48606693082E+02  0.80611487210E+02  0.41800000000E+01 0. -1.
         -5    1    3    3    0  502  0.18510929124E+02  0.73796767857E+02 -0.29352271446E+02  0.81655653094E+02  0.41800000000E+01 0. -1.
        -11    1    1    2    0    0 -0.13403697737E+02 -0.26659631831E+02 -0.97983004197E+02  0.10242589611E+03  0.00000000000E+00 0. -1.
         11    1    1    2    0    0  0.56435218882E+02 -0.65321075992E+02 -0.46851151250E+02  0.98218161622E+02  0.00000000000E+00 0.  1.
</event>
<event>
 7    1  0.2840156E-009  0.1011260E+03  0.7561462E-02  0.1277946E+00
          1   -1    0    0  501    0  0.00000000000E+00  0.00000000000E+00  0.41771022961E+03  0.41771022961E+03  0.00000000000E+00 0. -1.
         -1   -1    0    0    0  501 -0.00000000000E+00 -0.00000000000E+00 -0.44971751003E+02  0.44971751003E+02  0.00000000000E+00 0.  1.
         25    2    1    2    0    0  0.13512083260E+02  0.72206872378E+02  0.13355854464E+03  0.19718221525E+03  0.12508609976E+03 0.  0.
          5    1    3    3  502    0 -0.17841719907E+02  0.62638186362E+02  0.14751649699E+03  0.16130858205E+03  0.41800000000E+01 0. -1.
         -5    1    3    3    0  502  0.31353803167E+02  0.95686860154E+01 -0.13957952348E+02  0.35873633198E+02  0.41800000000E+01 0. -1.
        -11    1    1    2    0    0 -0.25409741219E+02  0.49376098074E+01  0.19628800199E+02  0.32485762061E+02  0.00000000000E+00 0.  1.
         11    1    1    2    0    0  0.11897657959E+02 -0.77144482185E+02  0.21955113376E+03  0.23301400330E+03  0.00000000000E+00 0. -1.
</event>
<event>
 7    1  0.2840156E-009  0.7076929E+02  0.7561462E-02  0.1357496E+00
         -2   -1    0    0    0  501 -0.00000000000E+00  0.00000000000E+00  0.21700881571E+02  0.21700881571E+02  0.00000000000E+00 0.  1.
          2   -1    0    0  501    0  0.00000000000E+00 -0.00000000000E+00 -0.73510987105E+03  0.73510987105E+03  0.00000000000E+00 0. -1.
         25    2    1    2    0    0  0.30220497913E+01  0.97094289943E+00 -0.36985452945E+03  0.39044771644E+03  0.12508785234E+03 0.  0.
          5    1    3    3  502    0  0.23040288676E+01 -0.52232212705E+01 -0.37874536794E+03  0.37881145274E+03  0.41800000000E+01 0. -1.
         -5    1    3    3    0  502  0.71802092370E+00  0.61941641699E+01  0.88908384916E+01  0.11636263700E+02  0.41800000000E+01 0. -1.
        -11    1    1    2    0    0 -0.11080670529E+02  0.62247487586E+02 -0.15868357600E+03  0.17081571433E+03  0.00000000000E+00 0.  1.
         11    1    1    2    0    0  0.80586207382E+01 -0.63218430485E+02 -0.18487088403E+03  0.19554732185E+03  0.00000000000E+00 0. -1.
</event>
<event>
 7    1  0.2840156E-009  0.9791663E+02  0.7561462E-02  0.1284739E+00
         -1   -1    0    0    0  501 -0.00000000000E+00  0.00000000000E+00  0.14714306434E+02  0.14714306434E+02  0.00000000000E+00 0.  1.
          1   -1    0    0  501    0  0.00000000000E+00 -0.00000000000E+00 -0.99849026646E+03  0.99849026646E+03  0.00000000000E+00 0. -1.
         25    2    1    2    0    0  0.83343134991E+01  0.67500063357E+02 -0.77122381164E+03  0.78425877601E+03  0.12509972332E+03 0.  0.
          5    1    3    3  502    0  0.57671162061E+02  0.45168256069E+02 -0.60386487310E+03  0.60830616605E+03  0.41800000000E+01 0. -1.
         -5    1    3    3    0  502 -0.49336848562E+02  0.22331807288E+02 -0.16735893854E+03  0.17595260996E+03  0.41800000000E+01 0. -1.
        -11    1    1    2    0    0 -0.30839159270E+01 -0.41740263798E+02 -0.18922692356E+03  0.19380038379E+03  0.00000000000E+00 0. -1.
         11    1    1    2    0    0 -0.52503975721E+01 -0.25759799558E+02 -0.23325224824E+02  0.35145413087E+02  0.00000000000E+00 0.  1.
</event>
<event>
 7    1  0.2840156E-009  0.9546144E+02  0.7561462E-02  0.1290140E+00
         -2   -1    0    0    0  501 -0.00000000000E+00  0.00000000000E+00  0.66420471908E+02  0.66420471908E+02  0.00000000000E+00 0.  1.
          2   -1    0    0  501    0  0.00000000000E+00 -0.00000000000E+00 -0.21678265181E+03  0.21678265181E+03  0.00000000000E+00 0. -1.
         25    2    1    2    0    0  0.14507369602E+02  0.27590214397E+02 -0.13213145871E+03  0.18460158402E+03  0.12508932304E+03 0.  0.
          5    1    3    3  502    0 -0.88414482058E+01 -0.30530402970E+02 -0.11520881140E+03  0.11958603320E+03  0.41800000000E+01 0. -1.
         -5    1    3    3    0  502  0.23348817807E+02  0.58120617368E+02 -0.16922647307E+02  0.65015550817E+02  0.41800000000E+01 0. -1.
        -11    1    1    2    0    0  0.13779102919E+02 -0.55001168541E+02 -0.16995681617E+02  0.59193288570E+02  0.00000000000E+00 0.  1.
         11    1    1    2    0    0 -0.28286472521E+02  0.27410954144E+02 -0.12350395802E+01  0.39408251135E+02  0.00000000000E+00 0. -1.
</event>
<event>
 7    1  0.2840156E-009  0.6711683E+02  0.7561462E-02  0.1370181E+00
         -1   -1    0    0    0  501 -0.00000000000E+00  0.00000000000E+00  0.30932843011E+02  0.30932843011E+02  0.00000000000E+00 0.  1.
          1   -1    0    0  501    0  0.00000000000E+00 -0.00000000000E+00 -0.48694388149E+03  0.48694388149E+03  0.00000000000E+00 0. -1.
         25    2    1    2    0    0 -0.46712721099E+02  0.69427309461E+01 -0.33383645941E+03  0.35961572913E+03  0.12508561540E+03 0.  0.
          5    1    3    3  502    0 -0.31555730667E+01 -0.10258553934E+02  0.83423222185E+01  0.14221895450E+02  0.41800000000E+01 0.  1.
         -5    1    3    3    0  502 -0.43557148033E+02  0.17201284880E+02 -0.34217878163E+03  0.34539383368E+03  0.41800000000E+01 0.  1.
        -11    1    1    2    0    0  0.12036540636E+02 -0.31159451542E+02 -0.10893603487E+03  0.11394230743E+03  0.00000000000E+00 0. -1.
         11    1    1    2    0    0  0.34676180464E+02  0.24216720596E+02 -0.13238544202E+02  0.44318687938E+02  0.00000000000E+00 0.  1.
</event>
<event>
 7    1  0.2840156E-009  0.1197940E+03  0.7561462E-02  0.1243437E+00
          1   -1    0    0  501    0  0.00000000000E+00  0.00000000000E+00  0.41218130643E+02  0.41218130643E+02  0.00000000000E+00 0. -1.
         -1   -1    0    0    0  501 -0.00000000000E+00 -0.00000000000E+00 -0.41511244758E+03  0.41511244758E+03  0.00000000000E+00 0.  1.
         25    2    1    2    0    0 -0.36479864449E+02  0.60768623700E+02 -0.23696757018E+03  0.27717709311E+03  0.12509958229E+03 0.  0.
          5    1    3    3  502    0  0.21284680174E+02 -0.17111063767E+02 -0.84302939493E+01  0.28885435247E+02  0.41800000000E+01 0. -1.
         -5    1    3    3    0  502 -0.57764544623E+02  0.77879687467E+02 -0.22853727623E+03  0.24829165786E+03  0.41800000000E+01 0. -1.
        -11    1    1    2    0    0  0.26616650904E+02  0.20153140300E+02 -0.48538717249E+02  0.58911817503E+02  0.00000000000E+00 0. -1.
         11    1    1    2    0    0  0.98632135449E+01 -0.80921764000E+02 -0.88388029505E+02  0.12024166761E+03  0.00000000000E+00 0.  1.
</event>
<event>
 7    1  0.2840156E-009  0.8805530E+02  0.7561462E-02  0.1307631E+00
         -3   -1    0    0    0  501 -0.00000000000E+00  0.00000000000E+00  0.15804319823E+03  0.15804319823E+03  0.00000000000E+00 0. -1.
          3   -1    0    0  501    0  0.00000000000E+00 -0.00000000000E+00 -0.88961998120E+02  0.88961998120E+02  0.00000000000E+00 0.  1.
         25    2    1    2    0    0 -0.14483610155E+02 -0.38393541137E+02  0.59463988265E+02  0.14445387738E+03  0.12508844002E+03 0.  0.
          5    1    3    3  502    0  0.23560591775E+02 -0.48249750709E+01  0.84333708952E+02  0.87795379917E+02  0.41800000000E+01 0. -1.
         -5    1    3    3    0  502 -0.38044201930E+02 -0.33568566067E+02 -0.24869720686E+02  0.56658497468E+02  0.41800000000E+01 0. -1.
        -11    1    1    2    0    0 -0.38598464156E+02  0.25194570555E+02  0.12559076244E+02  0.47773823552E+02  0.00000000000E+00 0.  1.
         11    1    1    2    0    0  0.53082074311E+02  0.13198970582E+02 -0.29418643990E+01  0.54777495413E+02  0.00000000000E+00 0. -1.
</event>
<event>
 7    1  0.2840156E-009  0.2027965E+03  0.7561462E-02  0.1147401E+00
         -2   -1    0    0    0  501 -0.00000000000E+00  0.00000000000E+00  0.11563592391E+03  0.11563592391E+03  0.00000000000E+00 0.  1.
          2   -1    0    0  501    0  0.00000000000E+00 -0.00000000000E+00 -0.41992370671E+03  0.41992370671E+03  0.00000000000E+00 0. -1.
         25    2    1    2    0    0 -0.25492675509E+02  0.18871702772E+03 -0.17606293971E+03  0.28794256770E+03  0.12509504587E+03 0.  0.
          5    1    3    3  502    0  0.12981797708E+02  0.28841448902E+02 -0.10322818897E+03  0.10804576643E+03  0.41800000000E+01 0. -1.
         -5    1    3    3    0  502 -0.38474473217E+02  0.15987557882E+03 -0.72834750740E+02  0.17989680127E+03  0.41800000000E+01 0. -1.
        -11    1    1    2    0    0 -0.32388479340E+02 -0.66973625178E+02 -0.27397655821E+02  0.79278695801E+02  0.00000000000E+00 0. -1.
         11    1    1    2    0    0  0.57881154849E+02 -0.12174340254E+03 -0.10082718727E+03  0.16833836711E+03  0.00000000000E+00 0.  1.
</event>
<event>
 7    1  0.2840156E-009  0.1215472E+03  0.7561462E-02  0.1240566E+00
          4   -1    0    0  501    0  0.00000000000E+00  0.00000000000E+00  0.16402167678E+02  0.16402167678E+02  0.00000000000E+00 0. -1.
         -4   -1    0    0    0  501 -0.00000000000E+00 -0.00000000000E+00 -0.10692600675E+04  0.10692600675E+04  0.00000000000E+00 0.  1.
         25    2    1    2    0    0  0.42322436307E+02 -0.43769578482E+02 -0.77034804287E+03  0.78280959244E+03  0.12509111178E+03 0.  0.
          5    1    3    3  502    0  0.85727831443E+02 -0.18957257116E+02 -0.53507509137E+03  0.54224668232E+03  0.41800000000E+01 0. -1.
         -5    1    3    3    0  502 -0.43405395137E+02 -0.24812321366E+02 -0.23527295150E+03  0.24056291012E+03  0.41800000000E+01 0. -1.
        -11    1    1    2    0    0  0.24136118323E+02  0.27527590117E+02 -0.14095792064E+03  0.14563466558E+03  0.00000000000E+00 0.  1.
         11    1    1    2    0    0 -0.66458554630E+02  0.16241988365E+02 -0.14155193630E+03  0.15721797715E+03  0.00000000000E+00 0. -1.
</event>
<event>
 7    1  0.2840156E-009  0.8312296E+02  0.7561462E-02  0.1320415E+00
          2   -1    0    0  501    0  0.00000000000E+00  0.00000000000E+00  0.16465376295E+03  0.16465376295E+03  0.00000000000E+00 0. -1.
         -2   -1    0    0    0  501 -0.00000000000E+00 -0.00000000000E+00 -0.86568267649E+02  0.86568267649E+02  0.00000000000E+00 0.  1.
         25    2    1    2    0    0  0.46186774150E+02  0.15960151102E+01  0.70389841382E+02  0.15079304039E+03  0.12509214959E+03 0.  0.
          5    1    3    3  502    0  0.75037394884E+02 -0.14423961867E+02  0.85078032938E+02  0.11443078867E+03  0.41800000000E+01 0.  1.
         -5    1    3    3    0  502 -0.28850620734E+02  0.16019976978E+02 -0.14688191556E+02  0.36362251721E+02  0.41800000000E+01 0.  1.
        -11    1    1    2    0    0 -0.39414788681E+02 -0.14407692506E+02  0.44323689991E+02  0.61038485110E+02  0.00000000000E+00 0. -1.
         11    1    1    2    0    0 -0.67719854689E+01  0.12811677396E+02 -0.36628036075E+02  0.39390505095E+02  0.00000000000E+00 0.  1.
</event>
<event>
 7    1  0.2840156E-009  0.1018926E+03  0.7561462E-02  0.1276366E+00
          4   -1    0    0  501    0  0.00000000000E+00  0.00000000000E+00  0.19248596850E+03  0.19248596850E+03  0.00000000000E+00 0.  1.
         -4   -1    0    0    0  501 -0.00000000000E+00 -0.00000000000E+00 -0.77988537792E+02  0.77988537792E+02  0.00000000000E+00 0. -1.
         25    2    1    2    0    0 -0.37164822284E+02 -0.42526323947E+02  0.70371174615E+02  0.15423692023E+03  0.12508882086E+03 0.  0.
          5    1    3    3  502    0 -0.64146110161E+02 -0.16012697393E+02 -0.83772253464E+01  0.66774098504E+02  0.41800000000E+01 0.  1.
         -5    1    3    3    0  502  0.26981287877E+02 -0.26513626554E+02  0.78748399962E+02  0.87462821731E+02  0.41800000000E+01 0.  1.
        -11    1    1    2    0    0  0.56041321306E+01 -0.24639656573E+02  0.32426375580E+02  0.41109473437E+02  0.00000000000E+00 0.  1.
         11    1    1    2    0    0  0.31560690153E+02  0.67165980520E+02  0.11699880515E+02  0.75128112622E+02  0.00000000000E+00 0. -1.
</event>
<event>
 7    1  0.2840156E-009  0.4019232E+02  0.7561462E-02  0.1506801E+00
         -3   -1    0    0    0  501 -0.00000000000E+00  0.00000000000E+00  0.16555970819E+03  0.16555970819E+03  0.00000000000E+00 0.  1.
          3   -1    0    0  501    0  0.00000000000E+00 -0.00000000000E+00 -0.79700928138E+02  0.79700928138E+02  0.00000000000E+00 0. -1.
         25    2    1    2    0    0  0.63157371314E+01 -0.27258624606E+00  0.89871769599E+02  0.15417028105E+03  0.12510626583E+03 0.  0.
          5    1    3    3  502    0  0.10762617610E+02 -0.27681835171E+02  0.11354675494E+03  0.11744128701E+03  0.41800000000E+01 0. -1.
         -5    1    3    3    0  502 -0.44468804789E+01  0.27409248925E+02 -0.23674985344E+02  0.36728994046E+02  0.41800000000E+01 0. -1.
        -11    1    1    2    0    0 -0.20840115863E+01  0.10782005421E+02  0.42150202986E+02  0.43557253781E+02  0.00000000000E+00 0.  1.
         11    1    1    2    0    0 -0.42317255451E+01 -0.10509419175E+02 -0.46163192534E+02  0.47533101492E+02  0.00000000000E+00 0. -1.
</event>
<event>
 7    1  0.2840156E-009  0.1009653E+03  0.7561462E-02  0.1278279E+00
         -2   -1    0    0    0  501 -0.00000000000E+00  0.00000000000E+00  0.54661815906E+02  0.54661815906E+02  0.00000000000E+00 0.  1.
          2   -1    0    0  501    0  0.00000000000E+00 -0.00000000000E+00 -0.25191762594E+03  0.25191762594E+03  0.00000000000E+00 0. -1.
         25    2    1    2    0    0  0.27632954376E+02 -0.77565728413E+01 -0.61087781334E+02  0.14214169740E+03  0.12509516587E+03 0.  0.
          5    1    3    3  502    0  0.21487872406E+02 -0.66047351072E+02 -0.33533552513E+02  0.77239580451E+02  0.41800000000E+01 0.  1.
         -5    1    3    3    0  502  0.61450819696E+01  0.58290778230E+02 -0.27554228821E+02  0.64902116954E+02  0.41800000000E+01 0.  1.
        -11    1    1    2    0    0 -0.95786851422E+01  0.37548985565E+02 -0.20915653711E+02  0.44035691163E+02  0.00000000000E+00 0.  1.
         11    1    1    2    0    0 -0.18054269234E+02 -0.29792412723E+02 -0.11525237499E+03  0.12040205328E+03  0.00000000000E+00 0. -1.
</event>
<event>
 7    1  0.2840156E-009  0.1539546E+03  0.7561462E-02  0.1195696E+00
          1   -1    0    0  501    0  0.00000000000E+00  0.00000000000E+00  0.95047163478E+03  0.95047163478E+03  0.00000000000E+00 0. -1.
         -1   -1    0    0    0  501 -0.00000000000E+00 -0.00000000000E+00 -0.32121592335E+02  0.32121592335E+02  0.00000000000E+00 0.  1.
         25    2    1    2    0    0  0.49311580751E+02  0.12401758176E+03  0.39246428906E+03  0.43299706092E+03  0.12508494713E+03 0.  0.
          5    1    3    3  502    0  0.30644839510E+02  0.13853847362E+03  0.24144957074E+03  0.28008459878E+03  0.41800000000E+01 0.  1.
         -5    1    3    3    0  502  0.18666741242E+02 -0.14520891865E+02  0.15101471832E+03  0.15291246214E+03  0.41800000000E+01 0.  1.
        -11    1    1    2    0    0  0.10285164249E+01 -0.62262591302E+02  0.11232986410E+03  0.12843553437E+03  0.00000000000E+00 0.  1.
         11    1    1    2    0    0 -0.50340097176E+02 -0.61754990457E+02  0.41355588929E+03  0.42116063182E+03  0.00000000000E+00 0. -1.
</event>
<event>
 7    1  0.2840156E-009  0.8799531E+02  0.7561462E-02  0.1307780E+00
          2   -1    0    0  501    0  0.00000000000E+00  0.00000000000E+00  0.53850507896E+02  0.53850507896E+02  0.00000000000E+00 0. -1.
         -2   -1    0    0    0  501 -0.00000000000E+00 -0.00000000000E+00 -0.30082432027E+03  0.30082432027E+03  0.00000000000E+00 0.  1.
         25    2    1    2    0    0  0.56814645455E+02  0.92004672912E+00 -0.18724851602E+03  0.23224556384E+03  0.12508894735E+03 0.  0.
          5    1    3    3  502    0  0.61575694330E+02  0.21142213828E+02 -0.27004635522E+02  0.70606529991E+02  0.41800000000E+01 0. -1.
         -5    1    3    3    0  502 -0.47610488745E+01 -0.20222167099E+02 -0.16024388049E+03  0.16163903385E+03  0.41800000000E+01 0. -1.
        -11    1    1    2    0    0 -0.72519319488E+02  0.52009309278E+01 -0.14462645357E+02  0.74130084934E+02  0.00000000000E+00 0. -1.
         11    1    1    2    0    0  0.15704674033E+02 -0.61209776569E+01 -0.45262651000E+02  0.48299179387E+02  0.00000000000E+00 0.  1.
</event>
<event>
 7    1  0.2840156E-009  0.1352110E+03  0.7561462E-02  0.1219922E+00
         -2   -1    0    0    0  501 -0.00000000000E+00  0.00000000000E+00  0.10990477926E+03  0.10990477926E+03  0.00000000000E+00 0.  1.
          2   -1    0    0  501    0  0.00000000000E+00 -0.00000000000E+00 -0.22992253302E+03  0.22992253302E+03  0.00000000000E+00 0. -1.
         25    2    1    2    0    0  0.67918998700E+02 -0.87345906374E+02 -0.99990812326E+02  0.19464914836E+03  0.12509128932E+03 0.  0.
          5    1    3    3  502    0  0.62841377418E+02 -0.10324780913E+03 -0.32827929686E+02  0.12531677530E+03  0.41800000000E+01 0.  1.
         -5    1    3    3    0  502  0.50776212823E+01  0.15901902753E+02 -0.67162882640E+02  0.69332373056E+02  0.41800000000E+01 0.  1.
        -11    1    1    2    0    0 -0.90802108637E+01  0.70483305246E+02 -0.39043321335E+02  0.81084693306E+02  0.00000000000E+00 0.  1.
         11    1    1    2    0    0 -0.58838787836E+02  0.16862601129E+02  0.19016379907E+02  0.64093470616E+02  0.00000000000E+00 0. -1.
</event>
<event>
 7    1  0.2840156E-009  0.1081562E+03  0.7561462E-02  0.1264023E+00
          2   -1    0    0  501    0  0.00000000000E+00  0.00000000000E+00  0.93825055898E+03  0.93825055898E+03  0.00000000000E+00 0.  1.
         -2   -1    0    0    0  501 -0.00000000000E+00 -0.00000000000E+00 -0.14298979866E+02  0.14298979866E+02  0.00000000000E+00 0. -1.
         25    2    1    2    0    0  0.23616747599E+01 -0.30978611689E+02  0.46717316932E+03  0.48462627141E+03  0.12508637384E+03 0.  0.
          5    1    3    3  502    0  0.47033594039E+02  0.17034597501E+02  0.31348383385E+03  0.31747743693E+03  0.41800000000E+01 0.  1.
         -5    1    3    3    0  502 -0.44671919279E+02 -0.48013209190E+02  0.15368933547E+03  0.16714883448E+03  0.41800000000E+01 0.  1.
        -11    1    1    2    0    0  0.21837626120E+02  0.59273867322E+02  0.25264873597E+03  0.26042591470E+03  0.00000000000E+00 0. -1.
         11    1    1    2    0    0 -0.24199300879E+02 -0.28295255633E+02  0.20412967383E+03  0.20749735274E+03  0.00000000000E+00 0.  1.
</event>
<event>
 7    1  0.2840156E-009  0.1997039E+03  0.7561462E-02  0.1149989E+00
         -3   -1    0    0    0  501 -0.00000000000E+00  0.00000000000E+00  0.13368416518E+04  0.13368416518E+04  0.00000000000E+00 0.  1.
          3   -1    0    0  501    0  0.00000000000E+00 -0.00000000000E+00 -0.31550532574E+02  0.31550532574E+02  0.00000000000E+00 0. -1.
         25    2    1    2    0    0  0.90960508046E+02  0.14326952484E+03  0.55110604428E+03  0.59005587861E+03  0.12509235416E+03 0.  0.
          5    1    3    3  502    0  0.80016767458E+01  0.12478754979E+03  0.34986756118E+03  0.37156525966E+03  0.41800000000E+01 0.  1.
         -5    1    3    3    0  502  0.82958831300E+02  0.18481975049E+02  0.20123848310E+03  0.21849061896E+03  0.41800000000E+01 0.  1.
        -11    1    1    2    0    0 -0.49827892766E+02 -0.13921874670E+03  0.52371233978E+03  0.54418681826E+03  0.00000000000E+00 0. -1.
         11    1    1    2    0    0 -0.41132615280E+02 -0.40507781446E+01  0.23047273513E+03  0.23414948747E+03  0.00000000000E+00 0.  1.
</event>
<event>
 7    1  0.2840156E-009  0.1017274E+03  0.7561462E-02  0.1276705E+00
          2   -1    0    0  501    0  0.00000000000E+00  0.00000000000E+00  0.61632829279E+03  0.61632829279E+03  0.00000000000E+00 0.  1.
         -2   -1    0    0    0  501 -0.00000000000E+00 -0.00000000000E+00 -0.19502744941E+02  0.19502744941E+02  0.00000000000E+00 0. -1.
         25    2    1    2    0    0 -0.18912428061E+02 -0.20066864626E+02  0.31507168765E+03  0.34011433443E+03  0.12508890093E+03 0.  0.
          5    1    3    3  502    0 -0.64812562310E+02 -0.26785278975E+01  0.25108101148E+03  0.25935880449E+03  0.41800000000E+01 0. -1.
         -5    1    3    3    0  502  0.45900134249E+02 -0.17388336729E+02  0.63990676176E+02  0.80755529939E+02  0.41800000000E+01 0. -1.
        -11    1    1    2    0    0  0.24954697901E+02 -0.29851735050E+02  0.14012867598E+03  0.14543008240E+03  0.00000000000E+00 0. -1.
         11    1    1    2    0    0 -0.60422698405E+01  0.49918599676E+02  0.14162518422E+03  0.15028662091E+03  0.00000000000E+00 0.  1.
</event>
<event>
 7    1  0.2840156E-009  0.1533930E+03  0.7561462E-02  0.1196365E+00
          1   -1    0    0  501    0  0.00000000000E+00  0.00000000000E+00  0.12394088702E+03  0.12394088702E+03  0.00000000000E+00 0. -1.
         -1   -1    0    0    0  501 -0.00000000000E+00 -0.00000000000E+00 -0.21615370561E+03  0.21615370561E+03  0.00000000000E+00 0.  1.
         25    2    1    2    0    0  0.92151968150E+01  0.12135348701E+03 -0.41553260272E+02  0.17940297128E+03  0.12508862460E+03 0.  0.
          5    1    3    3  502    0 -0.36847227510E+02  0.12899394325E+02  0.22468946935E+02  0.45237578687E+02  0.41800000000E+01 0.  1.
         -5    1    3    3    0  502  0.46062424325E+02  0.10845409268E+03 -0.64022207206E+02  0.13416539260E+03  0.41800000000E+01 0.  1.
        -11    1    1    2    0    0 -0.37062841505E+02 -0.11531323971E+03 -0.28081226296E+02  0.12433564551E+03  0.00000000000E+00 0. -1.
         11    1    1    2    0    0  0.27847644690E+02 -0.60402472954E+01 -0.22578332028E+02  0.36355975841E+02  0.00000000000E+00 0.  1.
</event>
<event>
 7    1  0.2840156E-009  0.9402808E+02  0.7561462E-02  0.1293380E+00
         -1   -1    0    0    0  501 -0.00000000000E+00  0.00000000000E+00  0.23672700825E+03  0.23672700825E+03  0.00000000000E+00 0.  1.
          1   -1    0    0  501    0  0.00000000000E+00 -0.00000000000E+00 -0.73975361115E+02  0.73975361115E+02  0.00000000000E+00 0. -1.
         25    2    1    2    0    0  0.50239730915E+02  0.24366335011E+01  0.23064279960E+02  0.13678502089E+03  0.12509281828E+03 0.  0.
          5    1    3    3  502    0  0.50073846936E+02  0.48302918868E+02  0.47791048257E+02  0.84510465693E+02  0.41800000000E+01 0. -1.
         -5    1    3    3    0  502  0.16588397894E+00 -0.45866285367E+02 -0.24726768297E+02  0.52274555199E+02  0.41800000000E+01 0. -1.
        -11    1    1    2    0    0 -0.27918522779E+02 -0.27188422388E+02  0.10302893757E+02  0.40308855675E+02  0.00000000000E+00 0. -1.
         11    1    1    2    0    0 -0.22321208136E+02  0.24751788887E+02  0.12938447342E+03  0.13360849280E+03  0.00000000000E+00 0.  1.
</event>
<event>
 7    1  0.2840156E-009  0.1797247E+03  0.7561462E-02  0.1168070E+00
         -2   -1    0    0    0  501 -0.00000000000E+00  0.00000000000E+00  0.67549093373E+02  0.67549093373E+02  0.00000000000E+00 0.  1.
          2   -1    0    0  501    0  0.00000000000E+00 -0.00000000000E+00 -0.62793898736E+03  0.62793898736E+03  0.00000000000E+00 0. -1.
         25    2    1    2    0    0 -0.14253846086E+03 -0.98066086514E+02 -0.33639333914E+03  0.39842329380E+03  0.12508585963E+03 0.  0.
          5    1    3    3  502    0 -0.57352989022E+02 -0.37255967254E+02 -0.25973794839E+03  0.26862361527E+03  0.41800000000E+01 0.  1.
         -5    1    3    3    0  502 -0.85185471837E+02 -0.60810119260E+02 -0.76655390746E+02  0.12979967853E+03  0.41800000000E+01 0.  1.
        -11    1    1    2    0    0  0.37304107555E+02 -0.64605028623E+01 -0.14862391686E+02  0.40672167687E+02  0.00000000000E+00 0.  1.
         11    1    1    2    0    0  0.10523435330E+03  0.10452658938E+03 -0.20913416317E+03  0.25639261925E+03  0.00000000000E+00 0. -1.
</event>
<event>
 7    1  0.2840156E-009  0.8471651E+02  0.7561462E-02  0.1316176E+00
         -2   -1    0    0    0  501 -0.00000000000E+00  0.00000000000E+00  0.45394478816E+02  0.45394478816E+02  0.00000000000E+00 0.  1.
          2   -1    0    0  501    0  0.00000000000E+00 -0.00000000000E+00 -0.26869895265E+03  0.26869895265E+03  0.00000000000E+00 0. -1.
         25    2    1    2    0    0  0.16936496135E+02 -0.49737975883E+01 -0.11620207946E+03  0.17164598067E+03  0.12509131003E+03 0.  0.
          5    1    3    3  502    0 -0.40657125199E+02  0.27659259160E+02 -0.85130566815E+02  0.98400824453E+02  0.41800000000E+01 0. -1.
         -5    1    3    3    0  502  0.57593621334E+02 -0.32633056748E+02 -0.31071512648E+02  0.73245156218E+02  0.41800000000E+01 0. -1.
        -11    1    1    2    0    0 -0.28265844147E+02  0.20224191707E+02 -0.11626962893E+03  0.12135321375E+03  0.00000000000E+00 0. -1.
         11    1    1    2    0    0  0.11329348011E+02 -0.15250394119E+02  0.91672345590E+01  0.21094237047E+02  0.00000000000E+00 0.  1.
</event>
<event>
 7    1  0.2840156E-009  0.1325494E+03  0.7561462E-02  0.1223721E+00
         -2   -1    0    0    0  501 -0.00000000000E+00  0.00000000000E+00  0.20474218516E+03  0.20474218516E+03  0.00000000000E+00 0. -1.
          2   -1    0    0  501    0  0.00000000000E+00 -0.00000000000E+00 -0.10631043548E+03  0.10631043548E+03  0.00000000000E+00 0.  1.
         25    2    1    2    0    0  0.47175689276E+02 -0.70838101670E+02  0.10533295878E+03  0.18435309716E+03  0.12508976746E+03 0.  0.
          5    1    3    3  502    0 -0.33627313570E+02 -0.39500512816E+02  0.58876642810E+01  0.52375793276E+02  0.41800000000E+01 0.  1.
         -5    1    3    3    0  502  0.80803002846E+02 -0.31337588855E+02  0.99445294497E+02  0.13197730389E+03  0.41800000000E+01 0.  1.
        -11    1    1    2    0    0 -0.62526075239E+02  0.84920224126E+02 -0.85572817322E+01  0.10580255962E+03  0.00000000000E+00 0.  1.
         11    1    1    2    0    0  0.15350385964E+02 -0.14082122456E+02  0.16560726409E+01  0.20896963863E+02  0.00000000000E+00 0. -1.
</event>
<event>
 7    1  0.2840156E-009  0.1665724E+03  0.7561462E-02  0.1181470E+00
          2   -1    0    0  501    0  0.00000000000E+00  0.00000000000E+00  0.79202735473E+03  0.79202735473E+03  0.00000000000E+00 0. -1.
         -2   -1    0    0    0  501 -0.00000000000E+00 -0.00000000000E+00 -0.42844413416E+02  0.42844413416E+02  0.00000000000E+00 0.  1.
         25    2    1    2    0    0 -0.10391292089E+03 -0.10757690999E+03  0.42359205071E+03  0.46631347887E+03  0.12508936187E+03 0.  0.
          5    1    3    3  502    0  0.19858356368E+02 -0.32677037838E+02  0.36409342279E+02  0.52964664869E+02  0.41800000000E+01 0. -1.
         -5    1    3    3    0  502 -0.12377127726E+03 -0.74899872149E+02  0.38718270844E+03  0.41334881400E+03  0.41800000000E+01 0. -1.
        -11    1    1    2    0    0  0.30399569307E+02  0.38684215264E+02  0.20786092319E+03  0.21360422682E+03  0.00000000000E+00 0. -1.
         11    1    1    2    0    0  0.73513351583E+02  0.68892694723E+02  0.11772996741E+03  0.15495406246E+03  0.00000000000E+00 0.  1.
</event>
<event>
 7    1  0.3031253E-009  0.1516230E+03  0.7561462E-02  0.1198493E+00
         -2   -1    0    0    0  501 -0.00000000000E+00  0.00000000000E+00  0.54490038560E+02  0.54490038560E+02  0.00000000000E+00 0.  1.
          2   -1    0    0  501    0  0.00000000000E+00 -0.00000000000E+00 -0.69937961321E+03  0.69937961321E+03  0.00000000000E+00 0. -1.
         25    2    1    2    0    0  0.81590330205E+02  0.73361981102E+02 -0.56689456393E+03  0.59080861477E+03  0.12508561236E+03 0.  0.
          5    1    3    3  502    0 -0.26351434991E+02  0.47151721186E+02 -0.21820352345E+03  0.22482867474E+03  0.41800000000E+01 0.  1.
         -5    1    3    3    0  502  0.10794176520E+03  0.26210259917E+02 -0.34869104048E+03  0.36597994004E+03  0.41800000000E+01 0.  1.
        -11    1    1    2    0    0 -0.74277660559E+02 -0.10958847530E+02 -0.64078211396E+02  0.98708076534E+02  0.00000000000E+00 0. -1.
         11    1    1    2    0    0 -0.73126696459E+01 -0.62403133573E+02 -0.13916799322E+02  0.64352960463E+02  0.00000000000E+00 0.  1.
</event>
<event>
 7    1  0.2840156E-009  0.1383335E+03  0.7561462E-02  0.1215589E+00
          1   -1    0    0  501    0  0.00000000000E+00  0.00000000000E+00  0.34926976216E+03  0.34926976216E+03  0.00000000000E+00 0. -1.
         -1   -1    0    0    0  501 -0.00000000000E+00 -0.00000000000E+00 -0.66794991417E+02  0.66794991417E+02  0.00000000000E+00 0.  1.
         25    2    1    2    0    0  0.25573764190E+00  0.10629021982E+03  0.15078366932E+03  0.22289139215E+03  0.12508869467E+03 0.  0.
          5    1    3    3  502    0 -0.42333093247E+02  0.10853344818E+03  0.84558351110E+02  0.14401106659E+03  0.41800000000E+01 0.  1.
         -5    1    3    3    0  502  0.42588830889E+02 -0.22432283635E+01  0.66225318206E+02  0.78880325566E+02  0.41800000000E+01 0.  1.
        -11    1    1    2    0    0  0.18547337337E+02 -0.91385850954E+02  0.45600341459E+02  0.10380158293E+03  0.00000000000E+00 0.  1.
         11    1    1    2    0    0 -0.18803074979E+02 -0.14904368862E+02  0.86090759968E+02  0.89371778497E+02  0.00000000000E+00 0. -1.
</event>
<event>
 7    1  0.2840156E-009  0.1090867E+03  0.7561462E-02  0.1262271E+00
         -1   -1    0    0    0  501 -0.00000000000E+00  0.00000000000E+00  0.18015169315E+02  0.18015169315E+02  0.00000000000E+00 0.  1.
          1   -1    0    0  501    0  0.00000000000E+00 -0.00000000000E+00 -0.82441795129E+03  0.82441795129E+03  0.00000000000E+00 0. -1.
         25    2    1    2    0    0  0.35454773842E+02 -0.22501377413E+02 -0.57605012775E+03  0.59096765084E+03  0.12508261945E+03 0.  0.
          5    1    3    3  502    0  0.59626136869E+02 -0.58983251983E+02 -0.44157813053E+03  0.44949195541E+03  0.41800000000E+01 0.  1.
         -5    1    3    3    0  502 -0.24171363027E+02  0.36481874570E+02 -0.13447199722E+03  0.14147569543E+03  0.41800000000E+01 0.  1.
        -11    1    1    2    0    0  0.16838040559E+02 -0.17585308808E+02 -0.21552487644E+02  0.32515725724E+02  0.00000000000E+00 0.  1.
         11    1    1    2    0    0 -0.52292814400E+02  0.40086686221E+02 -0.20880016658E+03  0.21894974404E+03  0.00000000000E+00 0. -1.
</event>
<event>
 7    1  0.2840156E-009  0.1038455E+03  0.7561462E-02  0.1272411E+00
         -4   -1    0    0    0  501 -0.00000000000E+00  0.00000000000E+00  0.59320091520E+03  0.59320091520E+03  0.00000000000E+00 0.  1.
          4   -1    0    0  501    0  0.00000000000E+00 -0.00000000000E+00 -0.26070068999E+02  0.26070068999E+02  0.00000000000E+00 0. -1.
         25    2    1    2    0    0  0.50759503882E+02  0.31950766123E+02  0.34825302413E+03  0.37486779193E+03  0.12509322091E+03 0.  0.
          5    1    3    3  502    0 -0.19333705612E-01  0.61785959020E+02  0.85550077014E+02  0.10561152012E+03  0.41800000000E+01 0. -1.
         -5    1    3    3    0  502  0.50778837588E+02 -0.29835192896E+02  0.26270294712E+03  0.26925627180E+03  0.41800000000E+01 0. -1.
        -11    1    1    2    0    0 -0.23040483659E+02 -0.49021946381E+02  0.19904478045E+03  0.20628339666E+03  0.00000000000E+00 0.  1.
         11    1    1    2    0    0 -0.27719020223E+02  0.17071180257E+02  0.19833041625E+02  0.38119795613E+02  0.00000000000E+00 0. -1.
</event>
<event>
 7    1  0.2840156E-009  0.8672478E+02  0.7561462E-02  0.1310983E+00
         -1   -1    0    0    0  501 -0.00000000000E+00  0.00000000000E+00  0.30215414594E+02  0.30215414594E+02  0.00000000000E+00 0.  1.
          1   -1    0    0  501    0  0.00000000000E+00 -0.00000000000E+00 -0.10528013508E+04  0.10528013508E+04  0.00000000000E+00 0. -1.
         25    2    1    2    0    0 -0.67581766336E+02 -0.10257007118E+02 -0.91815254099E+03  0.92915217256E+03  0.12508864818E+03 0.  0.
          5    1    3    3  502    0 -0.38007180489E+02  0.16285823609E+02 -0.80938206432E+02  0.90984831042E+02  0.41800000000E+01 0.  1.
         -5    1    3    3    0  502 -0.29574585847E+02 -0.26542830727E+02 -0.83721433456E+03  0.83816734152E+03  0.41800000000E+01 0.  1.
        -11    1    1    2    0    0  0.23022133643E+02  0.34291669013E+02 -0.41311760313E+01  0.41509081134E+02  0.00000000000E+00 0.  1.
         11    1    1    2    0    0  0.44559632693E+02 -0.24034661894E+02 -0.10030221923E+03  0.11235551175E+03  0.00000000000E+00 0. -1.
</event>
<event>
 7    1  0.2840156E-009  0.9872015E+02  0.7561462E-02  0.1283011E+00
          4   -1    0    0  501    0  0.00000000000E+00  0.00000000000E+00  0.13607363966E+03  0.13607363966E+03  0.00000000000E+00 0. -1.
         -4   -1    0    0    0  501 -0.00000000000E+00 -0.00000000000E+00 -0.12758269781E+03  0.12758269781E+03  0.00000000000E+00 0.  1.
         25    2    1    2    0    0 -0.22367233855E+01 -0.20414684775E+02  0.75380866856E+02  0.14748333367E+03  0.12508915355E+03 0.  0.
          5    1    3    3  502    0 -0.17107362222E+02  0.39707475249E+02  0.73504808393E+02  0.85380177382E+02  0.41800000000E+01 0.  1.
         -5    1    3    3    0  502  0.14870638837E+02 -0.60122160023E+02  0.18760584622E+01  0.62103156286E+02  0.41800000000E+01 0.  1.
        -11    1    1    2    0    0  0.45918135691E+02  0.92151754636E+01 -0.48650371796E+02  0.67529647711E+02  0.00000000000E+00 0.  1.
         11    1    1    2    0    0 -0.43681412305E+02  0.11199509311E+02 -0.18239553210E+02  0.48643356084E+02  0.00000000000E+00 0. -1.
</event>
<event>
 7    1  0.2840156E-009  0.1197846E+03  0.7561462E-02  0.1243453E+00
         -1   -1    0    0    0  501 -0.00000000000E+00  0.00000000000E+00  0.18981698131E+03  0.18981698131E+03  0.00000000000E+00 0.  1.
          1   -1    0    0  501    0  0.00000000000E+00 -0.00000000000E+00 -0.86866672685E+02  0.86866672685E+02  0.00000000000E+00 0. -1.
         25    2    1    2    0    0 -0.65317926392E+02  0.56273583000E+00  0.81615023627E+02  0.16301198936E+03  0.12508056770E+03 0.  0.
          5    1    3    3  502    0 -0.63748890919E+02 -0.47627036048E+02  0.82375307377E+02  0.11460985700E+03  0.41800000000E+01 0. -1.
         -5    1    3    3    0  502 -0.15690354726E+01  0.48189771878E+02 -0.76028375003E+00  0.48402132364E+02  0.41800000000E+01 0. -1.
        -11    1    1    2    0    0  0.76451556083E+02 -0.28361325820E+02  0.18317351559E+02  0.83574700705E+02  0.00000000000E+00 0.  1.
         11    1    1    2    0    0 -0.11133629692E+02  0.27798589990E+02  0.30179334432E+01  0.30096963931E+02  0.00000000000E+00 0. -1.
</event>
<event>
 7    1  0.2840156E-009  0.1623789E+03  0.7561462E-02  0.1186037E+00
         -1   -1    0    0    0  501 -0.00000000000E+00  0.00000000000E+00  0.30984054973E+02  0.30984054973E+02  0.00000000000E+00 0.  1.
          1   -1    0    0  501    0  0.00000000000E+00 -0.00000000000E+00 -0.95570644687E+03  0.95570644687E+03  0.00000000000E+00 0. -1.
         25    2    1    2    0    0  0.60127748866E+02 -0.11740316134E+03 -0.43587537272E+03  0.47226387694E+03  0.12508789088E+03 0.  0.
          5    1    3    3  502    0  0.76533322375E+02 -0.34870292368E+02 -0.12914189498E+03  0.15416999761E+03  0.41800000000E+01 0.  1.
         -5    1    3    3    0  502 -0.16405573509E+02 -0.82532868970E+02 -0.30673347774E+03  0.31809387934E+03  0.41800000000E+01 0.  1.
        -11    1    1    2    0    0  0.36214538221E+01 -0.11736442801E+02 -0.16228481249E+02  0.20352459828E+02  0.00000000000E+00 0.  1.
         11    1    1    2    0    0 -0.63749202688E+02  0.12913960414E+03 -0.47261853792E+03  0.49407416507E+03  0.00000000000E+00 0. -1.
</event>
<event>
 7    1  0.2840156E-009  0.1361299E+03  0.7561462E-02  0.1218633E+00
         -1   -1    0    0    0  501 -0.00000000000E+00  0.00000000000E+00  0.38944352005E+03  0.38944352005E+03  0.00000000000E+00 0.  1.
          1   -1    0    0  501    0  0.00000000000E+00 -0.00000000000E+00 -0.58997252449E+02  0.58997252449E+02  0.00000000000E+00 0. -1.
         25    2    1    2    0    0  0.77773021155E+02 -0.69471062167E+02  0.14917433614E+03  0.22085142158E+03  0.12508995385E+03 0.  0.
          5    1    3    3  502    0  0.81595901858E+02 -0.51528555414E+01  0.12976447793E+03  0.15342990338E+03  0.41800000000E+01 0. -1.
         -5    1    3    3    0  502 -0.38228807036E+01 -0.64318206625E+02  0.19409858210E+02  0.67421518198E+02  0.41800000000E+01 0. -1.
        -11    1    1    2    0    0 -0.90471460770E+02  0.52397581263E+02  0.17746729197E+03  0.20597386110E+03  0.00000000000E+00 0. -1.
         11    1    1    2    0    0  0.12698439615E+02  0.17073480904E+02  0.38046395018E+01  0.21615489829E+02  0.00000000000E+00 0.  1.
</event>
<event>
 7    1  0.2840156E-009  0.1238211E+03  0.7561462E-02  0.1236923E+00
         -1   -1    0    0    0  501 -0.00000000000E+00  0.00000000000E+00  0.49477194355E+02  0.49477194355E+02  0.00000000000E+00 0.  1.
          1   -1    0    0  501    0  0.00000000000E+00 -0.00000000000E+00 -0.48315475865E+03  0.48315475865E+03  0.00000000000E+00 0. -1.
         25    2    1    2    0    0  0.50669427309E+02 -0.81785437345E+02 -0.14353869277E+03  0.21332546650E+03  0.12509256457E+03 0.  0.
          5    1    3    3  502    0  0.37395674867E+02 -0.69108944088E+01  0.12039490282E+02  0.40107588889E+02  0.41800000000E+01 0. -1.
         -5    1    3    3    0  502  0.13273752442E+02 -0.74874542936E+02 -0.15557818305E+03  0.17321787761E+03  0.41800000000E+01 0. -1.
        -11    1    1    2    0    0 -0.41063263556E+02  0.10248614482E+03 -0.23565064565E+03  0.26023225835E+03  0.00000000000E+00 0.  1.
         11    1    1    2    0    0 -0.96061637529E+01 -0.20700707473E+02 -0.54488225881E+02  0.59074228151E+02  0.00000000000E+00 0. -1.
</event>
<event>
 7    1  0.2840156E-009  0.1096921E+03  0.7561462E-02  0.1261141E+00
          2   -1    0    0  501    0  0.00000000000E+00  0.00000000000E+00  0.26430772012E+03  0.26430772012E+03  0.00000000000E+00 0. -1.
         -2   -1    0    0    0  501 -0.00000000000E+00 -0.00000000000E+00 -0.65122202150E+02  0.65122202150E+02  0.00000000000E+00 0.  1.
         25    2    1    2    0    0 -0.28208750493E+02 -0.28018020759E+02  0.33167626807E+02  0.13537944590E+03  0.12508700896E+03 0.  0.
          5    1    3    3  502    0  0.25186895202E+02 -0.55283334356E+02  0.42911671540E+02  0.74495038101E+02  0.41800000000E+01 0.  1.
         -5    1    3    3    0  502 -0.53395645694E+02  0.27265313597E+02 -0.97440447334E+01  0.60884407794E+02  0.41800000000E+01 0.  1.
        -11    1    1    2    0    0 -0.33053436365E+02  0.10047611882E+02  0.40530571325E+02  0.53256092346E+02  0.00000000000E+00 0.  1.
         11    1    1    2    0    0  0.61262186858E+02  0.17970408877E+02  0.12548731984E+03  0.14079438403E+03  0.00000000000E+00 0. -1.
</event>
<event>
 7    1  0.2840156E-009  0.1274183E+03  0.7561462E-02  0.1231338E+00
         -1   -1    0    0    0  501 -0.00000000000E+00  0.00000000000E+00  0.19816652114E+03  0.19816652114E+03  0.00000000000E+00 0.  1.
          1   -1    0    0  501    0  0.00000000000E+00 -0.00000000000E+00 -0.13906670305E+03  0.13906670305E+03  0.00000000000E+00 0. -1.
         25    2    1    2    0    0 -0.16434155566E+02 -0.95322570415E+02  0.11210019512E+03  0.19383541754E+03  0.12509692821E+03 0.  0.
          5    1    3    3  502    0 -0.66225664472E+02 -0.23157097259E+02  0.52809414448E+02  0.87911298720E+02  0.41800000000E+01 0.  1.
         -5    1    3    3    0  502  0.49791508906E+02 -0.72165473157E+02  0.59290780669E+02  0.10592411882E+03  0.41800000000E+01 0.  1.
        -11    1    1    2    0    0  0.65147522593E+01  0.46958882342E+02 -0.75493322736E+02  0.89144940437E+02  0.00000000000E+00 0. -1.
         11    1    1    2    0    0  0.99194033069E+01  0.48363688074E+02  0.22492945708E+02  0.54252866216E+02  0.00000000000E+00 0.  1.
</event>
<event>
 7    1  0.2840156E-009  0.1027076E+03  0.7561462E-02  0.1274703E+00
          1   -1    0    0  501    0  0.00000000000E+00  0.00000000000E+00  0.37318518662E+02  0.37318518662E+02  0.00000000000E+00 0. -1.
         -1   -1    0    0    0  501 -0.00000000000E+00 -0.00000000000E+00 -0.51284833292E+03  0.51284833292E+03  0.00000000000E+00 0.  1.
         25    2    1    2    0    0  0.47611262113E+02 -0.57972388577E+02 -0.19748625512E+03  0.24551041639E+03  0.12508762319E+03 0.  0.
          5    1    3    3  502    0  0.48827768802E+02  0.82921754282E+00 -0.11421262666E+02  0.50326496488E+02  0.41800000000E+01 0. -1.
         -5    1    3    3    0  502 -0.12165066887E+01 -0.58801606120E+02 -0.18606499245E+03  0.19518391990E+03  0.41800000000E+01 0. -1.
        -11    1    1    2    0    0  0.36307784080E+00  0.48546258549E+02 -0.23357471828E+03  0.23856659461E+03  0.00000000000E+00 0.  1.
         11    1    1    2    0    0 -0.47974339954E+02  0.94261300278E+01 -0.44468840864E+02  0.66089840589E+02  0.00000000000E+00 0. -1.
</event>
<event>
 7    1  0.2840156E-009  0.1312314E+03  0.7561462E-02  0.1225640E+00
          2   -1    0    0  501    0  0.00000000000E+00  0.00000000000E+00  0.36600319752E+03  0.36600319752E+03  0.00000000000E+00 0.  1.
         -2   -1    0    0    0  501 -0.00000000000E+00 -0.00000000000E+00 -0.11691301981E+03  0.11691301981E+03  0.00000000000E+00 0. -1.
         25    2    1    2    0    0  0.69161718673E+02  0.21894309556E+02  0.25649486313E+03  0.29444924118E+03  0.12509211286E+03 0.  0.
          5    1    3    3  502    0  0.93587790539E+02 -0.19740343323E+01  0.11255156627E+03  0.14645101167E+03  0.41800000000E+01 0. -1.
         -5    1    3    3    0  502 -0.24426071865E+02  0.23868343889E+02  0.14394329686E+03  0.14799822951E+03  0.41800000000E+01 0. -1.
        -11    1    1    2    0    0 -0.32454419459E+02  0.46515641385E+02 -0.69032085746E+02  0.89344407203E+02  0.00000000000E+00 0. -1.
         11    1    1    2    0    0 -0.36707299214E+02 -0.68409950942E+02  0.61627400331E+02  0.99122568948E+02  0.00000000000E+00 0.  1.
</event>
<event>
 7    1  0.2840156E-009  0.9877740E+02  0.7561462E-02  0.1282888E+00
         -1   -1    0    0    0  501 -0.00000000000E+00  0.00000000000E+00  0.49610500953E+02  0.49610500953E+02  0.00000000000E+00 0.  1.
          1   -1    0    0  501    0  0.00000000000E+00 -0.00000000000E+00 -0.34427284179E+03  0.34427284179E+03  0.00000000000E+00 0. -1.
         25    2    1    2    0    0 -0.30707590304E+02  0.19884646210E+02 -0.67499891924E+02  0.14677181672E+03  0.12508947005E+03 0.  0.
          5    1    3    3  502    0 -0.69812709276E+02  0.74165853437E+01 -0.77156035753E+02  0.10439993471E+03  0.41800000000E+01 0.  1.
         -5    1    3    3    0  502  0.39105118971E+02  0.12468060866E+02  0.96561438284E+01  0.42371882011E+02  0.41800000000E+01 0.  1.
        -11    1    1    2    0    0  0.35124491809E+02  0.23563303761E+02 -0.54362899354E+02  0.68878763310E+02  0.00000000000E+00 0.  1.
         11    1    1    2    0    0 -0.44169015043E+01 -0.43447949971E+02 -0.17279954956E+03  0.17823276271E+03  0.00000000000E+00 0. -1.
</event>
<event>
 7    1  0.2840156E-009  0.7606352E+02  0.7561462E-02  0.1340609E+00
          1   -1    0    0  501    0  0.00000000000E+00  0.00000000000E+00  0.24864020284E+03  0.24864020284E+03  0.00000000000E+00 0. -1.
         -1   -1    0    0    0  501 -0.00000000000E+00 -0.00000000000E+00 -0.50228730898E+02  0.50228730898E+02  0.00000000000E+00 0.  1.
         25    2    1    2    0    0  0.11265481643E+02 -0.15868914517E+02  0.85601471496E+02  0.15281021688E+03  0.12507844313E+03 0.  0.
          5    1    3    3  502    0  0.11680294147E+01  0.27186232963E+02  0.10185461787E+03  0.10550967319E+03  0.41800000000E+01 0. -1.
         -5    1    3    3    0  502  0.10097452229E+02 -0.43055147480E+02 -0.16253146376E+02  0.47300543688E+02  0.41800000000E+01 0. -1.
        -11    1    1    2    0    0 -0.97165379900E+01  0.47511867894E+02  0.10137490385E+03  0.11237731013E+03  0.00000000000E+00 0. -1.
         11    1    1    2    0    0 -0.15489436534E+01 -0.31642953377E+02  0.11435096591E+02  0.33681406724E+02  0.00000000000E+00 0.  1.
</event>
<event>
 7    1  0.3138102E-009  0.1100177E+03  0.7561462E-02  0.1260537E+00
         -2   -1    0    0    0  501 -0.00000000000E+00  0.00000000000E+00  0.23293200270E+02  0.23293200270E+02  0.00000000000E+00 0.  1.
          2   -1    0    0  501    0  0.00000000000E+00 -0.00000000000E+00 -0.76089847115E+03  0.76089847115E+03  0.00000000000E+00 0. -1.
         25    2    1    2    0    0 -0.41911696825E+02  0.57178074639E+02 -0.49896452989E+03  0.51926857746E+03  0.12509328880E+03 0.  0.
          5    1    3    3  502    0 -0.74812413437E+02  0.23848354803E+02 -0.17428908422E+03  0.19120616755E+03  0.41800000000E+01 0.  1.
         -5    1    3    3    0  502  0.32900716613E+02  0.33329719836E+02 -0.32467544567E+03  0.32806240991E+03  0.41800000000E+01 0.  1.
        -11    1    1    2    0    0  0.46648177345E+02 -0.10953452073E+02 -0.44824335441E+02  0.65614416173E+02  0.00000000000E+00 0.  1.
         11    1    1    2    0    0 -0.47364805206E+01 -0.46224622566E+02 -0.19381640555E+03  0.19930867779E+03  0.00000000000E+00 0. -1.
</event>
<event>
 7    1  0.2840156E-009  0.8883679E+02  0.7561462E-02  0.1305693E+00
         -4   -1    0    0    0  501 -0.00000000000E+00  0.00000000000E+00  0.32843227431E+02  0.32843227431E+02  0.00000000000E+00 0.  1.
          4   -1    0    0  501    0  0.00000000000E+00 -0.00000000000E+00 -0.43911829271E+03  0.43911829271E+03  0.00000000000E+00 0. -1.
         25    2    1    2    0    0 -0.18297609518E+02  0.47066742574E+02 -0.19288955056E+03  0.23538208145E+03  0.12509302452E+03 0.  0.
          5    1    3    3  502    0 -0.32757635585E+02 -0.76112427499E+01  0.45463876945E+00  0.33892075795E+02  0.41800000000E+01 0. -1.
         -5    1    3    3    0  502  0.14460026067E+02  0.54677985324E+02 -0.19334418933E+03  0.20149000566E+03  0.41800000000E+01 0. -1.
        -11    1    1    2    0    0  0.26385915750E+02 -0.63496064550E+02 -0.20539642695E+03  0.21660022845E+03  0.00000000000E+00 0. -1.
         11    1    1    2    0    0 -0.80883062315E+01  0.16429321977E+02 -0.79890877778E+01  0.19979210240E+02  0.00000000000E+00 0.  1.
</event>
<event>
 7    1  0.2840156E-009  0.1146065E+03  0.7561462E-02  0.1252270E+00
         -2   -1    0    0    0  501 -0.00000000000E+00  0.00000000000E+00  0.24331206178E+02  0.24331206178E+02  0.00000000000E+00 0.  1.
          2   -1    0    0  501    0  0.00000000000E+00 -0.00000000000E+00 -0.87553444252E+03  0.87553444252E+03  0.00000000000E+00 0. -1.
         25    2    1    2    0    0 -0.58979476330E+02 -0.11767221687E+02 -0.69665744720E+03  0.71034920891E+03  0.12508938295E+03 0.  0.
          5    1    3    3  502    0 -0.83864382379E+02  0.23319208880E+02 -0.33623435699E+03  0.34734426057E+03  0.41800000000E+01 0.  1.
         -5    1    3    3    0  502  0.24884906049E+02 -0.35086430568E+02 -0.36042309021E+03  0.36300494834E+03  0.41800000000E+01 0.  1.
        -11    1    1    2    0    0 -0.13538359317E+02  0.21777964853E+02 -0.10064121041E+02  0.27547294939E+02  0.00000000000E+00 0.  1.
         11    1    1    2    0    0  0.72517835647E+02 -0.10010743165E+02 -0.14448166810E+03  0.16196914485E+03  0.00000000000E+00 0. -1.
</event>
<event>
 7    1  0.2840156E-009  0.7451737E+02  0.7561462E-02  0.1345372E+00
          1   -1    0    0  501    0  0.00000000000E+00  0.00000000000E+00  0.11246595667E+03  0.11246595667E+03  0.00000000000E+00 0. -1.
         -1   -1    0    0    0  501 -0.00000000000E+00 -0.00000000000E+00 -0.12293466323E+03  0.12293466323E+03  0.00000000000E+00 0.  1.
         25    2    1    2    0    0 -0.28300713930E+02  0.32942558670E+02 -0.12127677851E+02  0.13296795047E+03  0.12508897914E+03 0.  0.
          5    1    3    3  502    0 -0.31641966400E+02  0.19917588366E+02 -0.66716061012E+02  0.76592620799E+02  0.41800000000E+01 0.  1.
         -5    1    3    3    0  502  0.33412524698E+01  0.13024970304E+02  0.54588383160E+02  0.56375329671E+02  0.41800000000E+01 0.  1.
        -11    1    1    2    0    0  0.59925185950E+02 -0.20233085274E+02 -0.14227535267E+02  0.64829224973E+02  0.00000000000E+00 0.  1.
         11    1    1    2    0    0 -0.31624472019E+02 -0.12709473396E+02  0.15886506552E+02  0.37603444456E+02  0.00000000000E+00 0. -1.
</event>
<event>
 7    1  0.3366470E-009  0.1428485E+03  0.7561462E-02  0.1209547E+00
          2   -1    0    0  501    0  0.00000000000E+00  0.00000000000E+00  0.67629233469E+03  0.67629233469E+03  0.00000000000E+00 0. -1.
         -2   -1    0    0    0  501 -0.00000000000E+00 -0.00000000000E+00 -0.48868212358E+02  0.48868212358E+02  0.00000000000E+00 0.  1.
         25    2    1    2    0    0  0.13945009150E+03 -0.12454326931E+02  0.41195913835E+03  0.45272439901E+03  0.12509041334E+03 0.  0.
          5    1    3    3  502    0  0.56042447637E+02  0.13758779106E+02  0.39346557342E+02  0.69969164024E+02  0.41800000000E+01 0. -1.
         -5    1    3    3    0  502  0.83407643866E+02 -0.26213106037E+02  0.37261258101E+03  0.38275523499E+03  0.41800000000E+01 0. -1.
        -11    1    1    2    0    0 -0.73514777990E+02  0.11194685800E+02  0.38825948093E+02  0.83888007596E+02  0.00000000000E+00 0.  1.
         11    1    1    2    0    0 -0.65935313513E+02  0.12596411310E+01  0.17663903588E+03  0.18854814044E+03  0.00000000000E+00 0. -1.
</event>
<event>
 7    1  0.2840156E-009  0.1152193E+03  0.7561462E-02  0.1251199E+00
         -2   -1    0    0    0  501 -0.00000000000E+00  0.00000000000E+00  0.10655688953E+03  0.10655688953E+03  0.00000000000E+00 0.  1.
          2   -1    0    0  501    0  0.00000000000E+00 -0.00000000000E+00 -0.18631200857E+03  0.18631200857E+03  0.00000000000E+00 0. -1.
         25    2    1    2    0    0 -0.43793489159E+02  0.67790981444E+02 -0.66792796773E+02  0.16316125487E+03  0.12508729164E+03 0.  0.
          5    1    3    3  502    0  0.14596499767E+02  0.28663874992E+02 -0.84538550906E+02  0.90547857646E+02  0.41800000000E+01 0. -1.
         -5    1    3    3    0  502 -0.58389988926E+02  0.39127106452E+02  0.17745754133E+02  0.72613397220E+02  0.41800000000E+01 0. -1.
        -11    1    1    2    0    0  0.16130020209E+02  0.25561410030E+02 -0.11478427470E+02  0.32331370708E+02  0.00000000000E+00 0.  1.
         11    1    1    2    0    0  0.27663468950E+02 -0.93352391474E+02 -0.14838947933E+01  0.97376272531E+02  0.00000000000E+00 0. -1.
</event>
<event>
 7    1  0.2840156E-009  0.1501817E+03  0.7561462E-02  0.1200250E+00
          2   -1    0    0  501    0  0.00000000000E+00  0.00000000000E+00  0.13466734633E+04  0.13466734633E+04  0.00000000000E+00 0. -1.
         -2   -1    0    0    0  501 -0.00000000000E+00 -0.00000000000E+00 -0.26735655063E+02  0.26735655063E+02  0.00000000000E+00 0.  1.
         25    2    1    2    0    0 -0.99914517077E+02  0.63251875952E+01  0.10979061126E+04  0.11095346148E+04  0.12508521339E+03 0.  0.
          5    1    3    3  502    0  0.19168210126E+02  0.32684240032E+02  0.24868665794E+03  0.25159134736E+03  0.41800000000E+01 0. -1.
         -5    1    3    3    0  502 -0.11908272720E+03 -0.26359052437E+02  0.84921945463E+03  0.85794326740E+03  0.41800000000E+01 0. -1.
        -11    1    1    2    0    0  0.15487372701E+02 -0.44817922197E+02  0.99053043695E+02  0.10981807833E+03  0.00000000000E+00 0.  1.
         11    1    1    2    0    0  0.84427144377E+02  0.38492734602E+02  0.12297865194E+03  0.15405642524E+03  0.00000000000E+00 0. -1.
</event>
<event>
 7    1  0.2840156E-009  0.1059038E+03  0.7561462E-02  0.1268349E+00
          1   -1    0    0  501    0  0.00000000000E+00  0.00000000000E+00  0.91297747803E+02  0.91297747803E+02  0.00000000000E+00 0. -1.
         -1   -1    0    0    0  501 -0.00000000000E+00 -0.00000000000E+00 -0.13807947250E+03  0.13807947250E+03  0.00000000000E+00 0.  1.
         25    2    1    2    0    0  0.25789255387E+02  0.35951286041E+01 -0.33475183569E+02  0.13207750233E+03  0.12508344440E+03 0.  0.
          5    1    3    3  502    0  0.70308336233E+02 -0.22400543715E+02 -0.77593232812E+01  0.74315045586E+02  0.41800000000E+01 0.  1.
         -5    1    3    3    0  502 -0.44519080846E+02  0.25995672319E+02 -0.25715860287E+02  0.57762456743E+02  0.41800000000E+01 0.  1.
        -11    1    1    2    0    0  0.55300016385E+01  0.35587677021E+02  0.15774445377E+02  0.39317894155E+02  0.00000000000E+00 0. -1.
         11    1    1    2    0    0 -0.31319257026E+02 -0.39182805625E+02 -0.29080986505E+02  0.57981823819E+02  0.00000000000E+00 0.  1.
</event>
<event>
 7    1  0.2840156E-009  0.3652416E+03  0.7561462E-02  0.1056527E+00
         -2   -1    0    0    0  501 -0.00000000000E+00  0.00000000000E+00  0.17303062305E+03  0.17303062305E+03  0.00000000000E+00 0. -1.
          2   -1    0    0  501    0  0.00000000000E+00 -0.00000000000E+00 -0.94232479029E+03  0.94232479029E+03  0.00000000000E+00 0.  1.
         25    2    1    2    0    0 -0.30960493189E+03  0.18812409184E+03 -0.19498231264E+03  0.43001255110E+03  0.12508718591E+03 0.  0.
          5    1    3    3  502    0 -0.21197279049E+03  0.15647345696E+03 -0.19412522532E+03  0.32728959981E+03  0.41800000000E+01 0. -1.
         -5    1    3    3    0  502 -0.97632141397E+02  0.31650634885E+02 -0.85708732376E+00  0.10272295129E+03  0.41800000000E+01 0. -1.
        -11    1    1    2    0    0  0.16312190362E+03 -0.12116837898E+03 -0.39579110114E+03  0.44490575097E+03  0.00000000000E+00 0.  1.
         11    1    1    2    0    0  0.14648302827E+03 -0.66955712860E+02 -0.17852075347E+03  0.24043711127E+03  0.00000000000E+00 0. -1.
</event>
<event>
 7    1  0.2840156E-009  0.3369592E+03  0.7561462E-02  0.1068098E+00
          2   -1    0    0  501    0  0.00000000000E+00  0.00000000000E+00  0.28343764199E+04  0.28343764199E+04  0.00000000000E+00 0. -1.
         -2   -1    0    0    0  501 -0.00000000000E+00 -0.00000000000E+00 -0.44203836086E+02  0.44203836086E+02  0.00000000000E+00 0.  1.
         25    2    1    2    0    0 -0.42165828350E+02  0.31774154291E+03  0.18289404108E+04  0.18610233081E+04  0.12508829509E+03 0.  0.
          5    1    3    3  502    0 -0.77981164539E+02  0.12579364027E+03  0.73029036625E+03  0.74514870555E+03  0.41800000000E+01 0.  1.
         -5    1    3    3    0  502  0.35815336189E+02  0.19194790264E+03  0.10986500446E+04  0.11158746025E+04  0.41800000000E+01 0.  1.
        -11    1    1    2    0    0 -0.20904891020E+02 -0.14801421161E+03  0.36457547043E+03  0.39403108373E+03  0.00000000000E+00 0.  1.
         11    1    1    2    0    0  0.63070719369E+02 -0.16972733129E+03  0.59665670256E+03  0.62352586421E+03  0.00000000000E+00 0. -1.
</event>
<event>
 7    1  0.2840156E-009  0.1178095E+03  0.7561462E-02  0.1246755E+00
          2   -1    0    0  501    0  0.00000000000E+00  0.00000000000E+00  0.35866889894E+03  0.35866889894E+03  0.00000000000E+00 0. -1.
         -2   -1    0    0    0  501 -0.00000000000E+00 -0.00000000000E+00 -0.58526393240E+02  0.58526393240E+02  0.00000000000E+00 0.  1.
         25    2    1    2    0    0 -0.44944835232E+02 -0.68876397867E+02  0.90769729523E+02  0.17507339340E+03  0.12509017900E+03 0.  0.
          5    1    3    3  502    0  0.17795939446E+02  0.22985730109E+02 -0.30004595918E+01  0.29521422851E+02  0.41800000000E+01 0.  1.
         -5    1    3    3    0  502 -0.62740774677E+02 -0.91862127976E+02  0.93770189115E+02  0.14555197055E+03  0.41800000000E+01 0.  1.
        -11    1    1    2    0    0  0.27613701056E+02  0.41520380372E+01  0.67788642928E+01  0.28735151069E+02  0.00000000000E+00 0.  1.
         11    1    1    2    0    0  0.17331134176E+02  0.64724359830E+02  0.20259391189E+03  0.21338674772E+03  0.00000000000E+00 0. -1.
</event>
<event>
 7    1  0.2840156E-009  0.1125640E+03  0.7561462E-02  0.1255894E+00
         -2   -1    0    0    0  501 -0.00000000000E+00  0.00000000000E+00  0.25856725412E+02  0.25856725412E+02  0.00000000000E+00 0.  1.
          2   -1    0    0  501    0  0.00000000000E+00 -0.00000000000E+00 -0.57594987840E+03  0.57594987840E+03  0.00000000000E+00 0. -1.
         25    2    1    2    0    0  0.49742853521E+02 -0.95898038030E+01 -0.25156362642E+03  0.28547891102E+03  0.12509050598E+03 0.  0.
          5    1    3    3  502    0 -0.38281958942E+02 -0.67115221903E+01 -0.12691270194E+03  0.13279630727E+03  0.41800000000E+01 0.  1.
         -5    1    3    3    0  502  0.88024812463E+02 -0.28782816127E+01 -0.12465092448E+03  0.15268260375E+03  0.41800000000E+01 0.  1.
        -11    1    1    2    0    0 -0.51613951949E+02 -0.29019339334E+02 -0.12192920980E+03  0.13554650233E+03  0.00000000000E+00 0.  1.
         11    1    1    2    0    0  0.18710984275E+01  0.38609143137E+02 -0.17660031676E+03  0.18078119046E+03  0.00000000000E+00 0. -1.
</event>
<event>
 7    1  0.2840156E-009  0.9667798E+02  0.7561462E-02  0.1287441E+00
          1   -1    0    0  501    0  0.00000000000E+00  0.00000000000E+00  0.51387175200E+03  0.51387175200E+03  0.00000000000E+00 0. -1.
         -1   -1    0    0    0  501 -0.00000000000E+00 -0.00000000000E+00 -0.26553817074E+02  0.26553817074E+02  0.00000000000E+00 0.  1.
         25    2    1    2    0    0  0.12138042813E+02  0.16687902704E+02  0.32455267100E+03  0.34843557473E+03  0.12508834999E+03 0.  0.
          5    1    3    3  502    0  0.36676805948E+02  0.61436768161E+02  0.14535788590E+03  0.16206804735E+03  0.41800000000E+01 0. -1.
         -5    1    3    3    0  502 -0.24538763135E+02 -0.44748865457E+02  0.17919478510E+03  0.18636752738E+03  0.41800000000E+01 0. -1.
        -11    1    1    2    0    0 -0.35674222547E+02  0.77936249818E+01  0.13533453528E+02  0.38942844132E+02  0.00000000000E+00 0.  1.
         11    1    1    2    0    0  0.23536179734E+02 -0.24481527686E+02  0.14923181040E+03  0.15304715021E+03  0.00000000000E+00 0. -1.
</event>
<event>
 7    1  0.2840156E-009  0.7878921E+02  0.7561462E-02  0.1332523E+00
          1   -1    0    0  501    0  0.00000000000E+00  0.00000000000E+00  0.35389296660E+03  0.35389296660E+03  0.00000000000E+00 0. -1.
         -1   -1    0    0    0  501 -0.00000000000E+00 -0.00000000000E+00 -0.46092234197E+02  0.46092234197E+02  0.00000000000E+00 0.  1.
         25    2    1    2    0    0  0.24176321760E+02 -0.34996048147E+02  0.24731304093E+03  0.28039429649E+03  0.12509197965E+03 0.  0.
          5    1    3    3  502    0 -0.16299289681E+02 -0.46635973753E+02  0.22895467926E+03  0.23426117571E+03  0.41800000000E+01 0. -1.
         -5    1    3    3    0  502  0.40475611442E+02  0.11639925606E+02  0.18358361671E+02  0.46133120780E+02  0.41800000000E+01 0. -1.
        -11    1    1    2    0    0  0.15633672418E+02  0.11944268388E+02 -0.19256118819E+02  0.27529536367E+02  0.00000000000E+00 0.  1.
         11    1    1    2    0    0 -0.39809994178E+02  0.23051779758E+02  0.79743810297E+02  0.92061367941E+02  0.00000000000E+00 0. -1.
</event>
<event>
 7    1  0.2840156E-009  0.1260918E+03  0.7561462E-02  0.1233373E+00
          1   -1    0    0  501    0  0.00000000000E+00  0.00000000000E+00  0.73020137877E+03  0.73020137877E+03  0.00000000000E+00 0. -1.
         -1   -1    0    0    0  501 -0.00000000000E+00 -0.00000000000E+00 -0.29690521887E+02  0.29690521887E+02  0.00000000000E+00 0.  1.
         25    2    1    2    0    0  0.82079077823E+02  0.26399294222E+02  0.24916093350E+03  0.29182567795E+03  0.12508859970E+03 0.  0.
          5    1    3    3  502    0  0.72991234533E+02  0.64302845401E+02  0.10839675356E+03  0.14570485520E+03  0.41800000000E+01 0.  1.
         -5    1    3    3    0  502  0.90878432899E+01 -0.37903551179E+02  0.14076417994E+03  0.14612082275E+03  0.41800000000E+01 0.  1.
        -11    1    1    2    0    0  0.79282910519E+01  0.14675474139E+02  0.22835828840E+02  0.28279010220E+02  0.00000000000E+00 0.  1.
         11    1    1    2    0    0 -0.90007368875E+02 -0.41074768361E+02  0.42851409454E+03  0.43978721248E+03  0.00000000000E+00 0. -1.
</event>
<event>
 7    1  0.2840156E-009  0.1020014E+03  0.7561462E-02  0.1276143E+00
          3   -1    0    0  501    0  0.00000000000E+00  0.00000000000E+00  0.38766373066E+03  0.38766373066E+03  0.00000000000E+00 0. -1.
         -3   -1    0    0    0  501 -0.00000000000E+00 -0.00000000000E+00 -0.58953890038E+02  0.58953890038E+02  0.00000000000E+00 0.  1.
         25    2    1    2    0    0 -0.31840731134E+02 -0.29349220095E+02  0.32149520759E+03  0.34767953225E+03  0.12508668899E+03 0.  0.
          5    1    3    3  502    0  0.43003494640E+01  0.42461684741E+02  0.57803892201E+02  0.71973953831E+02  0.41800000000E+01 0. -1.
         -5    1    3    3    0  502 -0.36141080598E+02 -0.71810904835E+02  0.26369131539E+03  0.27570557842E+03  0.41800000000E+01 0. -1.
        -11    1    1    2    0    0  0.34416453840E+02 -0.14027521142E+02 -0.25047319851E+02  0.44817762952E+02  0.00000000000E+00 0.  1.
         11    1    1    2    0    0 -0.25757227055E+01  0.43376741237E+02  0.32261952880E+02  0.54120325493E+02  0.00000000000E+00 0. -1.
</event>
<event>
 7    1  0.2840156E-009  0.1322547E+03  0.7561462E-02  0.1224148E+00
          1   -1    0    0  501    0  0.00000000000E+00  0.00000000000E+00  0.49547041817E+03  0.49547041817E+03  0.00000000000E+00 0. -1.
         -1   -1    0    0    0  501 -0.00000000000E+00 -0.00000000000E+00 -0.49723200443E+02  0.49723200443E+02  0.00000000000E+00 0.  1.
         25    2    1    2    0    0 -0.10251337297E+03  0.30514259370E+02  0.29612089135E+03  0.33878243944E+03  0.12508336146E+03 0.  0.
          5    1    3    3  502    0 -0.80019516534E+02  0.73014208013E+02  0.15128024933E+03  0.18611121362E+03  0.41800000000E+01 0. -1.
         -5    1    3    3    0  502 -0.22493856437E+02 -0.42499948643E+02  0.14484064201E+03  0.15267122581E+03  0.41800000000E+01 0. -1.
        -11    1    1    2    0    0  0.51200869397E+02 -0.22403737461E+02  0.91437121119E+01  0.56630945167E+02  0.00000000000E+00 0.  1.
         11    1    1    2    0    0  0.51312503574E+02 -0.81105219092E+01  0.14048261427E+03  0.14978023401E+03  0.00000000000E+00 0. -1.
</event>
<event>
 7    1  0.2840156E-009  0.1146608E+03  0.7561462E-02  0.1252174E+00
          1   -1    0    0  501    0  0.00000000000E+00  0.00000000000E+00  0.36513610030E+03  0.36513610030E+03  0.00000000000E+00 0. -1.
         -1   -1    0    0    0  501 -0.00000000000E+00 -0.00000000000E+00 -0.93191856358E+02  0.93191856358E+02  0.00000000000E+00 0.  1.
         25    2    1    2    0    0 -0.34608742032E+02 -0.26703934877E+02 -0.33883824043E+02  0.13677315686E+03  0.12509163738E+03 0.  0.
          5    1    3    3  502    0 -0.97413060552E+01  0.50114889436E+02 -0.77748229216E+01  0.51810379831E+02  0.41800000000E+01 0.  1.
         -5    1    3    3    0  502 -0.24867435977E+02 -0.76818824313E+02 -0.26109001121E+02  0.84962777029E+02  0.41800000000E+01 0.  1.
        -11    1    1    2    0    0  0.42999337586E+02  0.53804920309E+02  0.24388150530E+03  0.25342079850E+03  0.00000000000E+00 0. -1.
         11    1    1    2    0    0 -0.83905955544E+01 -0.27100985432E+02  0.61946562685E+02  0.68134001304E+02  0.00000000000E+00 0.  1.
</event>
<event>
 7    1  0.2840156E-009  0.6612593E+02  0.7561462E-02  0.1373786E+00
         -1   -1    0    0    0  501 -0.00000000000E+00  0.00000000000E+00  0.33319053151E+03  0.33319053151E+03  0.00000000000E+00 0.  1.
          1   -1    0    0  501    0  0.00000000000E+00 -0.00000000000E+00 -0.61571722146E+02  0.61571722146E+02  0.00000000000E+00 0. -1.
         25    2    1    2    0    0 -0.20251802038E+02  0.23455050660E+02  0.26128357577E+02  0.13149727446E+03  0.12509423341E+03 0.  0.
          5    1    3    3  502    0 -0.29160294840E+00 -0.44474339949E+01 -0.48695498161E+02  0.49077374039E+02  0.41800000000E+01 0.  1.
         -5    1    3    3    0  502 -0.19960199090E+02  0.27902484654E+02  0.74823855737E+02  0.82419900419E+02  0.41800000000E+01 0.  1.
        -11    1    1    2    0    0 -0.12725462614E+02 -0.48518890732E+02  0.98309616795E+02  0.11036666576E+03  0.00000000000E+00 0. -1.
         11    1    1    2    0    0  0.32977264653E+02  0.25063840072E+02  0.14718083499E+03  0.15289831344E+03  0.00000000000E+00 0.  1.
</event>
<event>
 7    1  0.2840156E-009  0.2409192E+03  0.7561462E-02  0.1119182E+00
         -2   -1    0    0    0  501 -0.00000000000E+00  0.00000000000E+00  0.33897937874E+03  0.33897937874E+03  0.00000000000E+00 0.  1.
          2   -1    0    0  501    0  0.00000000000E+00 -0.00000000000E+00 -0.25395678103E+03  0.25395678103E+03  0.00000000000E+00 0. -1.
         25    2    1    2    0    0  0.75416804929E+02 -0.21995300773E+03 -0.99885995082E+02  0.28229660186E+03  0.12508852597E+03 0.  0.
          5    1    3    3  502    0  0.25837619455E+02 -0.85910710999E+02 -0.10631794879E+03  0.13917331453E+03  0.41800000000E+01 0.  1.
         -5    1    3    3    0  502  0.49579185475E+02 -0.13404229673E+03  0.64319537077E+01  0.14312328732E+03  0.41800000000E+01 0.  1.
        -11    1    1    2    0    0  0.99529983514E+01  0.10701695552E+03  0.90161794362E+02  0.14028841758E+03  0.00000000000E+00 0.  1.
         11    1    1    2    0    0 -0.85369803281E+02  0.11293605221E+03  0.94746798432E+02  0.17035114034E+03  0.00000000000E+00 0. -1.
</event>
<event>
 7    1  0.2840156E-009  0.5495940E+02  0.7561462E-02  0.1420291E+00
         -1   -1    0    0    0  501 -0.00000000000E+00  0.00000000000E+00  0.13224991817E+02  0.13224991817E+02  0.00000000000E+00 0.  1.
          1   -1    0    0  501    0  0.00000000000E+00 -0.00000000000E+00 -0.98661675737E+03  0.98661675737E+03  0.00000000000E+00 0. -1.
         25    2    1    2    0    0  0.37558960914E+01 -0.78733986981E+01 -0.70859813609E+03  0.71960730587E+03  0.12508900441E+03 0.  0.
          5    1    3    3  502    0 -0.75568455634E+01 -0.24958824420E+01 -0.70611351272E+03  0.70617073048E+03  0.41800000000E+01 0. -1.
         -5    1    3    3    0  502  0.11312741655E+02 -0.53775162560E+01 -0.24846233731E+01  0.13436575387E+02  0.41800000000E+01 0. -1.
        -11    1    1    2    0    0  0.37572557165E+02 -0.15038084873E+02 -0.16390755998E+03  0.16882988262E+03  0.00000000000E+00 0. -1.
         11    1    1    2    0    0 -0.41328453257E+02  0.22911483571E+02 -0.10088606948E+03  0.11140456070E+03  0.00000000000E+00 0.  1.
</event>
<event>
 7    1  0.2840156E-009  0.1145962E+03  0.7561462E-02  0.1252288E+00
         -2   -1    0    0    0  501 -0.00000000000E+00  0.00000000000E+00  0.80545845480E+03  0.80545845480E+03  0.00000000000E+00 0. -1.
          2   -1    0    0  501    0  0.00000000000E+00 -0.00000000000E+00 -0.22065322839E+02  0.22065322839E+02  0.00000000000E+00 0.  1.
         25    2    1    2    0    0  0.14751540519E+02 -0.57607651073E+02  0.54207447857E+03  0.55948928564E+03  0.12508905234E+03 0.  0.
          5    1    3    3  502    0  0.99251212396E+01  0.29113140006E+02  0.43799723864E+02  0.53683993548E+02  0.41800000000E+01 0.  1.
         -5    1    3    3    0  502  0.48264192791E+01 -0.86720791080E+02  0.49827475471E+03  0.50580529209E+03  0.41800000000E+01 0.  1.
        -11    1    1    2    0    0 -0.54709557848E+02  0.27961497252E+02  0.17248730401E+03  0.18310338908E+03  0.00000000000E+00 0.  1.
         11    1    1    2    0    0  0.39958017330E+02  0.29646153821E+02  0.68831349373E+02  0.84931102912E+02  0.00000000000E+00 0. -1.
</event>
<event>
 7    1  0.2840156E-009  0.1171533E+03  0.7561462E-02  0.1247868E+00
         -1   -1    0    0    0  501 -0.00000000000E+00  0.00000000000E+00  0.28208953819E+03  0.28208953819E+03  0.00000000000E+00 0.  1.
          1   -1    0    0  501    0  0.00000000000E+00 -0.00000000000E+00 -0.66132076892E+02  0.66132076892E+02  0.00000000000E+00 0. -1.
         25    2    1    2    0    0 -0.36500355584E+02  0.69430986932E+02  0.88156234678E+02  0.17196461056E+03  0.12508943867E+03 0.  0.
          5    1    3    3  502    0  0.36415917725E+02  0.50323822679E+02  0.95662685358E+01  0.62988825092E+02  0.41800000000E+01 0. -1.
         -5    1    3    3    0  502 -0.72916273309E+02  0.19107164253E+02  0.78589966143E+02  0.10897578546E+03  0.41800000000E+01 0. -1.
        -11    1    1    2    0    0  0.31474578028E+02 -0.49304491957E+01  0.10156356486E+03  0.10644301808E+03  0.00000000000E+00 0.  1.
         11    1    1    2    0    0  0.50257775564E+01 -0.64500537736E+02  0.26237661755E+02  0.69813986440E+02  0.00000000000E+00 0. -1.
</event>
<event>
 7    1  0.2840156E-009  0.1103003E+03  0.7561462E-02  0.1260015E+00
          3   -1    0    0  501    0  0.00000000000E+00  0.00000000000E+00  0.10277577019E+03  0.10277577019E+03  0.00000000000E+00 0. -1.
         -3   -1    0    0    0  501 -0.00000000000E+00 -0.00000000000E+00 -0.13625775128E+03  0.13625775128E+03  0.00000000000E+00 0.  1.
         25    2    1    2    0    0 -0.57697911363E+02  0.36573044899E+01 -0.56305373052E+02  0.14886992112E+03  0.12509809562E+03 0.  0.
          5    1    3    3  502    0  0.39093455471E+02 -0.62862465791E+01 -0.22773206619E+02  0.45868360516E+02  0.41800000000E+01 0.  1.
         -5    1    3    3    0  502 -0.96791366834E+02  0.99435510690E+01 -0.33532166433E+02  0.10300156061E+03  0.41800000000E+01 0.  1.
        -11    1    1    2    0    0  0.22979492744E+02  0.28129376952E+02 -0.30488283149E+01  0.36450161708E+02  0.00000000000E+00 0.  1.
         11    1    1    2    0    0  0.34718418619E+02 -0.31786681442E+02  0.25872220278E+02  0.53713438641E+02  0.00000000000E+00 0. -1.
</event>
<event>
 7    1  0.2840156E-009  0.3345609E+03  0.7561462E-02  0.1069136E+00
          2   -1    0    0  501    0  0.00000000000E+00  0.00000000000E+00  0.84288308778E+03  0.84288308778E+03  0.00000000000E+00 0. -1.
         -2   -1    0    0    0  501 -0.00000000000E+00 -0.00000000000E+00 -0.14880029026E+03  0.14880029026E+03  0.00000000000E+00 0.  1.
         25    2    1    2    0    0  0.29236626652E+03 -0.13150877969E+03  0.49989725041E+03  0.60689183559E+03  0.12509135142E+03 0.  0.
          5    1    3    3  502    0  0.28127648878E+03 -0.84542763348E+02  0.44971918870E+03  0.53714873458E+03  0.41800000000E+01 0.  1.
         -5    1    3    3    0  502  0.11089777743E+02 -0.46966016342E+02  0.50178061711E+02  0.69743101010E+02  0.41800000000E+01 0.  1.
        -11    1    1    2    0    0 -0.13712479190E+03  0.26870788403E+02  0.11716383244E+03  0.18235298587E+03  0.00000000000E+00 0.  1.
         11    1    1    2    0    0 -0.15524147462E+03  0.10463799129E+03  0.77021714674E+02  0.20243855659E+03  0.00000000000E+00 0. -1.
</event>
<event>
 7    1  0.2840156E-009  0.1294019E+03  0.7561462E-02  0.1228346E+00
          1   -1    0    0  501    0  0.00000000000E+00  0.00000000000E+00  0.17557983720E+03  0.17557983720E+03  0.00000000000E+00 0. -1.
         -1   -1    0    0    0  501 -0.00000000000E+00 -0.00000000000E+00 -0.15031570071E+03  0.15031570071E+03  0.00000000000E+00 0.  1.
         25    2    1    2    0    0  0.45921475659E-01  0.11321193390E+03  0.59147140084E+02  0.17878289110E+03  0.12509194173E+03 0.  0.
          5    1    3    3  502    0 -0.17662143709E+02  0.81511509417E+01  0.68897995614E+02  0.71713309655E+02  0.41800000000E+01 0. -1.
         -5    1    3    3    0  502  0.17708065185E+02  0.10506078296E+03 -0.97508555292E+01  0.10706958145E+03  0.41800000000E+01 0. -1.
        -11    1    1    2    0    0  0.33466195041E+02 -0.43046782095E+02 -0.42149226762E+02  0.68917116712E+02  0.00000000000E+00 0.  1.
         11    1    1    2    0    0 -0.33512116517E+02 -0.70165151804E+02  0.82662231642E+01  0.78195530093E+02  0.00000000000E+00 0. -1.
</event>
<event>
 7    1  0.2840156E-009  0.9899558E+02  0.7561462E-02  0.1282422E+00
         -2   -1    0    0    0  501 -0.00000000000E+00  0.00000000000E+00  0.33914749785E+02  0.33914749785E+02  0.00000000000E+00 0. -1.
          2   -1    0    0  501    0  0.00000000000E+00 -0.00000000000E+00 -0.42287554009E+03  0.42287554009E+03  0.00000000000E+00 0.  1.
         25    2    1    2    0    0  0.48601260149E+02  0.60081984049E+01 -0.25686897471E+03  0.28987514837E+03  0.12509096905E+03 0.  0.
          5    1    3    3  502    0 -0.27616396587E+02 -0.35723363808E+02 -0.65553913235E+02  0.79709547876E+02  0.41800000000E+01 0.  1.
         -5    1    3    3    0  502  0.76217656736E+02  0.41731562213E+02 -0.19131506148E+03  0.21016560050E+03  0.41800000000E+01 0.  1.
        -11    1    1    2    0    0  0.49735728555E+01  0.87629161488E+01  0.10089258310E+02  0.14258971198E+02  0.00000000000E+00 0. -1.
         11    1    1    2    0    0 -0.53574833004E+02 -0.14771114554E+02 -0.14218107390E+03  0.15265617031E+03  0.00000000000E+00 0.  1.
</event>
<event>
 7    1  0.2840156E-009  0.3656618E+03  0.7561462E-02  0.1056364E+00
         -1   -1    0    0    0  501 -0.00000000000E+00  0.00000000000E+00  0.43199541711E+03  0.43199541711E+03  0.00000000000E+00 0.  1.
          1   -1    0    0  501    0  0.00000000000E+00 -0.00000000000E+00 -0.41442714872E+03  0.41442714872E+03  0.00000000000E+00 0. -1.
         25    2    1    2    0    0  0.79319980743E+02  0.35487266935E+03  0.19555315813E+03  0.43140963490E+03  0.12508782768E+03 0.  0.
          5    1    3    3  502    0  0.78202902347E+02  0.34214099462E+03  0.14613739967E+03  0.38019700961E+03  0.41800000000E+01 0.  1.
         -5    1    3    3    0  502  0.11170783960E+01  0.12731674733E+02  0.49415758453E+02  0.51212625291E+02  0.41800000000E+01 0.  1.
        -11    1    1    2    0    0 -0.37296728568E+02 -0.26574517877E+03 -0.16650409182E+03  0.31580873736E+03  0.00000000000E+00 0. -1.
         11    1    1    2    0    0 -0.42023252175E+02 -0.89127490584E+02 -0.11480797911E+02  0.99204193570E+02  0.00000000000E+00 0.  1.
</event>
<event>
 7    1  0.2840156E-009  0.1057018E+03  0.7561462E-02  0.1268743E+00
          1   -1    0    0  501    0  0.00000000000E+00  0.00000000000E+00  0.10382635497E+04  0.10382635497E+04  0.00000000000E+00 0. -1.
         -1   -1    0    0    0  501 -0.00000000000E+00 -0.00000000000E+00 -0.11141119563E+02  0.11141119563E+02  0.00000000000E+00 0.  1.
         25    2    1    2    0    0 -0.17035155968E+01  0.10832248938E+02  0.56931131193E+03  0.58299514109E+03  0.12509086722E+03 0.  0.
          5    1    3    3  502    0 -0.59221533670E+01 -0.55348063770E+02  0.32738801079E+03  0.33211272495E+03  0.41800000000E+01 0.  1.
         -5    1    3    3    0  502  0.42186377702E+01  0.66180312708E+02  0.24192330114E+03  0.25088241614E+03  0.41800000000E+01 0.  1.
        -11    1    1    2    0    0 -0.38045205163E+02  0.15900904659E+02  0.21497022801E+03  0.21888918505E+03  0.00000000000E+00 0.  1.
         11    1    1    2    0    0  0.39748720760E+02 -0.26733153597E+02  0.24284089021E+03  0.24752034312E+03  0.00000000000E+00 0. -1.
</event>
<event>
 7    1  0.2840156E-009  0.1348308E+03  0.7561462E-02  0.1220459E+00
          1   -1    0    0  501    0  0.00000000000E+00  0.00000000000E+00  0.12240883436E+03  0.12240883436E+03  0.00000000000E+00 0. -1.
         -1   -1    0    0    0  501 -0.00000000000E+00 -0.00000000000E+00 -0.20810291751E+03  0.20810291751E+03  0.00000000000E+00 0.  1.
         25    2    1    2    0    0 -0.11562592306E+03  0.10778210641E+02 -0.55494681358E+02  0.17947879029E+03  0.12508977815E+03 0.  0.
          5    1    3    3  502    0 -0.35328284139E+02  0.36237769136E+02 -0.77186519523E+02  0.92393153254E+02  0.41800000000E+01 0.  1.
         -5    1    3    3    0  502 -0.80297638918E+02 -0.25459558495E+02  0.21691838165E+02  0.87085637033E+02  0.41800000000E+01 0.  1.
        -11    1    1    2    0    0  0.48477132749E+01  0.19178979260E+02 -0.30406811984E+02  0.36275443270E+02  0.00000000000E+00 0.  1.
         11    1    1    2    0    0  0.11077820978E+03 -0.29957189900E+02  0.20741019607E+00  0.11475751831E+03  0.00000000000E+00 0. -1.
</event>
<event>
 7    1  0.2840156E-009  0.8275298E+02  0.7561462E-02  0.1321416E+00
         -1   -1    0    0    0  501 -0.00000000000E+00  0.00000000000E+00  0.15015564219E+02  0.15015564219E+02  0.00000000000E+00 0.  1.
          1   -1    0    0  501    0  0.00000000000E+00 -0.00000000000E+00 -0.90808612171E+03  0.90808612171E+03  0.00000000000E+00 0. -1.
         25    2    1    2    0    0 -0.24226791172E+02 -0.37684447051E+02 -0.51541952714E+03  0.53227289334E+03  0.12510031599E+03 0.  0.
          5    1    3    3  502    0 -0.44571931716E+02 -0.23691708747E+02 -0.50063502800E+03  0.50319067740E+03  0.41800000000E+01 0. -1.
         -5    1    3    3    0  502  0.20345140543E+02 -0.13992738304E+02 -0.14784499145E+02  0.29082215939E+02  0.41800000000E+01 0. -1.
        -11    1    1    2    0    0  0.13864372149E+01  0.58734621372E+02 -0.31994293752E+03  0.32529242418E+03  0.00000000000E+00 0. -1.
         11    1    1    2    0    0  0.22840353957E+02 -0.21050174322E+02 -0.57708092826E+02  0.65536368419E+02  0.00000000000E+00 0.  1.
</event>
<event>
 7    1  0.2840156E-009  0.1678125E+03  0.7561462E-02  0.1180148E+00
          1   -1    0    0  501    0  0.00000000000E+00  0.00000000000E+00  0.61554589711E+03  0.61554589711E+03  0.00000000000E+00 0. -1.
         -1   -1    0    0    0  501 -0.00000000000E+00 -0.00000000000E+00 -0.61869215966E+02  0.61869215966E+02  0.00000000000E+00 0.  1.
         25    2    1    2    0    0 -0.13646736626E+02  0.14787027316E+03  0.40367568287E+03  0.44794401412E+03  0.12509169335E+03 0.  0.
          5    1    3    3  502    0 -0.40014139393E+02  0.75963765172E+02  0.33205960156E+03  0.34300535908E+03  0.41800000000E+01 0.  1.
         -5    1    3    3    0  502  0.26367402767E+02  0.71906507990E+02  0.71616081304E+02  0.10493865504E+03  0.41800000000E+01 0.  1.
        -11    1    1    2    0    0 -0.31692349077E+02 -0.10810877656E+03  0.87749926017E+02  0.14280042743E+03  0.00000000000E+00 0. -1.
         11    1    1    2    0    0  0.45339085703E+02 -0.39761496602E+02  0.62251072266E+02  0.86670671525E+02  0.00000000000E+00 0.  1.
</event>
<event>
 7    1  0.2840156E-009  0.9397395E+02  0.7561462E-02  0.1293504E+00
         -1   -1    0    0    0  501 -0.00000000000E+00  0.00000000000E+00  0.54653623927E+02  0.54653623927E+02  0.00000000000E+00 0.  1.
          1   -1    0    0  501    0  0.00000000000E+00 -0.00000000000E+00 -0.52892367665E+03  0.52892367665E+03  0.00000000000E+00 0. -1.
         25    2    1    2    0    0  0.51111896431E+02  0.15013728473E+02 -0.45666359936E+03  0.47647407782E+03  0.12509222940E+03 0.  0.
          5    1    3    3  502    0 -0.24520978608E+02 -0.35073589941E+02 -0.10977421988E+03  0.11789523677E+03  0.41800000000E+01 0.  1.
         -5    1    3    3    0  502  0.75632875039E+02  0.50087318414E+02 -0.34688937948E+03  0.35857884105E+03  0.41800000000E+01 0.  1.
        -11    1    1    2    0    0 -0.29563037816E+02 -0.36809542455E+01  0.36888850344E+02  0.47416346430E+02  0.00000000000E+00 0.  1.
         11    1    1    2    0    0 -0.21548858615E+02 -0.11332774228E+02 -0.54495303708E+02  0.59686876326E+02  0.00000000000E+00 0. -1.
</event>
<event>
 7    1  0.2840156E-009  0.1271567E+03  0.7561462E-02  0.1231737E+00
          2   -1    0    0  501    0  0.00000000000E+00  0.00000000000E+00  0.82135166138E+03  0.82135166138E+03  0.00000000000E+00 0.  1.
         -2   -1    0    0    0  501 -0.00000000000E+00 -0.00000000000E+00 -0.23021347556E+02  0.23021347556E+02  0.00000000000E+00 0. -1.
         25    2    1    2    0    0 -0.59042200773E+01 -0.80118905089E+02  0.35697751984E+03  0.38669495107E+03  0.12508451841E+03 0.  0.
          5    1    3    3  502    0 -0.37151606307E+02 -0.10045891599E+03  0.22079110209E+03  0.24543516214E+03  0.41800000000E+01 0.  1.
         -5    1    3    3    0  502  0.31247386230E+02  0.20340010898E+02  0.13618641775E+03  0.14125978894E+03  0.41800000000E+01 0.  1.
        -11    1    1    2    0    0  0.26568636727E+02  0.84416633538E+02  0.41274848825E+03  0.42212957137E+03  0.00000000000E+00 0.  1.
         11    1    1    2    0    0 -0.20664416650E+02 -0.42977284484E+01  0.28604305737E+02  0.35548486494E+02  0.00000000000E+00 0. -1.
</event>
<event>
 7    1  0.2840156E-009  0.7462878E+02  0.7561462E-02  0.1345024E+00
         -2   -1    0    0    0  501 -0.00000000000E+00  0.00000000000E+00  0.10609045541E+03  0.10609045541E+03  0.00000000000E+00 0. -1.
          2   -1    0    0  501    0  0.00000000000E+00 -0.00000000000E+00 -0.14895373332E+03  0.14895373332E+03  0.00000000000E+00 0.  1.
         25    2    1    2    0    0 -0.46132642999E+00 -0.15021735031E+02 -0.87011796004E+02  0.15312015226E+03  0.12509541574E+03 0.  0.
          5    1    3    3  502    0  0.45099700346E+02  0.13500687103E+02  0.39007069514E+01  0.47422984283E+02  0.41800000000E+01 0. -1.
         -5    1    3    3    0  502 -0.45561026776E+02 -0.28522422135E+02 -0.90912502955E+02  0.10569716798E+03  0.41800000000E+01 0. -1.
        -11    1    1    2    0    0  0.16919849565E+02 -0.88424427171E+01 -0.22342631805E+02  0.29388148946E+02  0.00000000000E+00 0.  1.
         11    1    1    2    0    0 -0.16458523135E+02  0.23864177749E+02  0.66491149905E+02  0.72535887525E+02  0.00000000000E+00 0. -1.
</event>
<event>
 7    1  0.2840156E-009  0.1032740E+03  0.7561462E-02  0.1273558E+00
         -1   -1    0    0    0  501 -0.00000000000E+00  0.00000000000E+00  0.12305646621E+03  0.12305646621E+03  0.00000000000E+00 0.  1.
          1   -1    0    0  501    0  0.00000000000E+00 -0.00000000000E+00 -0.13551760838E+03  0.13551760838E+03  0.00000000000E+00 0. -1.
         25    2    1    2    0    0 -0.82215302590E+01 -0.13612856651E+02 -0.74752142838E+02  0.14657879448E+03  0.12507820236E+03 0.  0.
          5    1    3    3  502    0  0.41226777693E+02 -0.46294357604E+02 -0.18677657033E+02  0.64877900838E+02  0.41800000000E+01 0. -1.
         -5    1    3    3    0  502 -0.49448307952E+02  0.32681500953E+02 -0.56074485805E+02  0.81700893643E+02  0.41800000000E+01 0. -1.
        -11    1    1    2    0    0  0.45931669655E+02  0.10787195800E+02  0.11306386446E+02  0.48517174743E+02  0.00000000000E+00 0. -1.
         11    1    1    2    0    0 -0.37710139396E+02  0.28256608509E+01  0.50984614231E+02  0.63478105365E+02  0.00000000000E+00 0.  1.
</event>
<event>
 7    1  0.2840156E-009  0.1122812E+03  0.7561462E-02  0.1256403E+00
         -2   -1    0    0    0  501 -0.00000000000E+00  0.00000000000E+00  0.34635904683E+02  0.34635904683E+02  0.00000000000E+00 0.  1.
          2   -1    0    0  501    0  0.00000000000E+00 -0.00000000000E+00 -0.40945091396E+03  0.40945091396E+03  0.00000000000E+00 0. -1.
         25    2    1    2    0    0 -0.21662719528E+02 -0.42968490643E+02 -0.24095831057E+03  0.27572542087E+03  0.12509210877E+03 0.  0.
          5    1    3    3  502    0 -0.58367778759E+02  0.19080666813E+02 -0.10227338201E+03  0.11936576776E+03  0.41800000000E+01 0.  1.
         -5    1    3    3    0  502  0.36705059231E+02 -0.62049157456E+02 -0.13868492855E+03  0.15635965311E+03  0.41800000000E+01 0.  1.
        -11    1    1    2    0    0  0.46327866302E+02  0.46783738863E+02 -0.12605137991E+03  0.14221089900E+03  0.00000000000E+00 0.  1.
         11    1    1    2    0    0 -0.24665146775E+02 -0.38152482199E+01 -0.78053188016E+01  0.26150498771E+02  0.00000000000E+00 0. -1.
</event>
<event>
 7    1  0.2840156E-009  0.1110085E+03  0.7561462E-02  0.1258714E+00
          2   -1    0    0  501    0  0.00000000000E+00  0.00000000000E+00  0.56372344468E+03  0.56372344468E+03  0.00000000000E+00 0. -1.
         -2   -1    0    0    0  501 -0.00000000000E+00 -0.00000000000E+00 -0.26422766027E+02  0.26422766027E+02  0.00000000000E+00 0.  1.
         25    2    1    2    0    0  0.21889207261E+01 -0.42148269286E+02  0.38384346551E+03  0.40591156578E+03  0.12508846967E+03 0.  0.
          5    1    3    3  502    0 -0.53226498425E+02  0.48215907882E+01  0.10716899657E+03  0.11982893682E+03  0.41800000000E+01 0.  1.
         -5    1    3    3    0  502  0.55415419151E+02 -0.46969860074E+02  0.27667446894E+03  0.28608262897E+03  0.41800000000E+01 0.  1.
        -11    1    1    2    0    0  0.32074774377E+02 -0.96906795384E+01  0.25910143462E+02  0.42356061614E+02  0.00000000000E+00 0.  1.
         11    1    1    2    0    0 -0.34263695103E+02  0.51838948824E+02  0.12754706968E+03  0.14187858331E+03  0.00000000000E+00 0. -1.
</event>
<event>
 7    1  0.2840156E-009  0.8681675E+02  0.7561462E-02  0.1310749E+00
          1   -1    0    0  501    0  0.00000000000E+00  0.00000000000E+00  0.34905614123E+02  0.34905614123E+02  0.00000000000E+00 0. -1.
         -1   -1    0    0    0  501 -0.00000000000E+00 -0.00000000000E+00 -0.37269395490E+03  0.37269395490E+03  0.00000000000E+00 0.  1.
         25    2    1    2    0    0  0.26963519687E+02 -0.16823532389E+02 -0.15764056680E+03  0.20373605203E+03  0.12509103869E+03 0.  0.
          5    1    3    3  502    0  0.61818957876E+02  0.15912845152E+02 -0.13755527213E+03  0.15170276031E+03  0.41800000000E+01 0. -1.
         -5    1    3    3    0  502 -0.34855438189E+02 -0.32736377541E+02 -0.20085294666E+02  0.52033291724E+02  0.41800000000E+01 0. -1.
        -11    1    1    2    0    0  0.63794041881E+01  0.26248624134E+02 -0.78699526662E+01  0.28135799646E+02  0.00000000000E+00 0. -1.
         11    1    1    2    0    0 -0.33342923875E+02 -0.94250917456E+01 -0.17227782132E+03  0.17572771735E+03  0.00000000000E+00 0.  1.
</event>
<event>
 7    1  0.2840156E-009  0.9378155E+02  0.7561462E-02  0.1293944E+00
         -1   -1    0    0    0  501 -0.00000000000E+00  0.00000000000E+00  0.11973543609E+03  0.11973543609E+03  0.00000000000E+00 0.  1.
          1   -1    0    0  501    0  0.00000000000E+00 -0.00000000000E+00 -0.10498589685E+03  0.10498589685E+03  0.00000000000E+00 0. -1.
         25    2    1    2    0    0  0.22658536272E+02 -0.70452779820E+01  0.19511554525E+02  0.12880961016E+03  0.12509264448E+03 0.  0.
          5    1    3    3  502    0 -0.36223019713E+02 -0.60346659532E+01 -0.33186938219E+02  0.49672624439E+02  0.41800000000E+01 0. -1.
         -5    1    3    3    0  502  0.58881555985E+02 -0.10106120289E+01  0.52698492744E+02  0.79136985724E+02  0.41800000000E+01 0. -1.
        -11    1    1    2    0    0 -0.65027431140E+01 -0.40671327748E+02 -0.16187880237E+02  0.44254830645E+02  0.00000000000E+00 0. -1.
         11    1    1    2    0    0 -0.16155793158E+02  0.47716605730E+02  0.11425864959E+02  0.51656892135E+02  0.00000000000E+00 0.  1.
</event>
<event>
 7    1  0.2840156E-009  0.5952157E+02  0.7561462E-02  0.1399851E+00
          2   -1    0    0  501    0  0.00000000000E+00  0.00000000000E+00  0.33436105277E+03  0.33436105277E+03  0.00000000000E+00 0. -1.
         -2   -1    0    0    0  501 -0.00000000000E+00 -0.00000000000E+00 -0.43541358914E+02  0.43541358914E+02  0.00000000000E+00 0.  1.
         25    2    1    2    0    0 -0.29871095451E+02  0.12451791638E+02  0.93947870323E+02  0.15974839467E+03  0.12508404296E+03 0.  0.
          5    1    3    3  502    0 -0.18430490235E+02  0.13597619183E+02 -0.28437850791E+02  0.36752713850E+02  0.41800000000E+01 0.  1.
         -5    1    3    3    0  502 -0.11440605216E+02 -0.11458275447E+01  0.12238572111E+03  0.12299568082E+03  0.41800000000E+01 0.  1.
        -11    1    1    2    0    0  0.38202037741E+02  0.24674371317E+02  0.55507909071E+02  0.71758959419E+02  0.00000000000E+00 0.  1.
         11    1    1    2    0    0 -0.83309422900E+01 -0.37126162955E+02  0.14136391446E+03  0.14639505759E+03  0.00000000000E+00 0. -1.
</event>
<event>
 7    1  0.2840156E-009  0.1107405E+03  0.7561462E-02  0.1259205E+00
         -1   -1    0    0    0  501 -0.00000000000E+00  0.00000000000E+00  0.34357796924E+02  0.34357796924E+02  0.00000000000E+00 0.  1.
          1   -1    0    0  501    0  0.00000000000E+00 -0.00000000000E+00 -0.43910803803E+03  0.43910803803E+03  0.00000000000E+00 0. -1.
         25    2    1    2    0    0  0.32769904328E+02  0.51270357730E+01 -0.31904363728E+03  0.34429183290E+03  0.12509144890E+03 0.  0.
          5    1    3    3  502    0  0.34761167795E+02 -0.57075567217E+02 -0.15908107930E+03  0.17259843960E+03  0.41800000000E+01 0.  1.
         -5    1    3    3    0  502 -0.19912634665E+01  0.62202602990E+02 -0.15996255798E+03  0.17169339330E+03  0.41800000000E+01 0.  1.
        -11    1    1    2    0    0  0.16639987921E+02 -0.31879100117E+02 -0.15260126857E+02  0.39064532430E+02  0.00000000000E+00 0.  1.
         11    1    1    2    0    0 -0.49409892250E+02  0.26752064344E+02 -0.70446476972E+02  0.90109469628E+02  0.00000000000E+00 0. -1.
</event>
<event>
 7    1  0.2840156E-009  0.8909601E+02  0.7561462E-02  0.1305056E+00
         -2   -1    0    0    0  501 -0.00000000000E+00  0.00000000000E+00  0.14218794893E+03  0.14218794893E+03  0.00000000000E+00 0.  1.
          2   -1    0    0  501    0  0.00000000000E+00 -0.00000000000E+00 -0.13449076198E+03  0.13449076198E+03  0.00000000000E+00 0. -1.
         25    2    1    2    0    0 -0.44327231586E+01  0.38938331687E+02  0.79687755365E+02  0.15340790852E+03  0.12509198748E+03 0.  0.
          5    1    3    3  502    0  0.31993637050E+02  0.66334925131E+02  0.16846377423E+02  0.75664971658E+02  0.41800000000E+01 0. -1.
         -5    1    3    3    0  502 -0.36426360208E+02 -0.27396593443E+02  0.62841377942E+02  0.77742936862E+02  0.41800000000E+01 0. -1.
        -11    1    1    2    0    0 -0.14080662356E+02  0.15204760466E+01  0.17986981646E+02  0.22893414086E+02  0.00000000000E+00 0.  1.
         11    1    1    2    0    0  0.18513385515E+02 -0.40458807734E+02 -0.89977550061E+02  0.10037738830E+03  0.00000000000E+00 0. -1.
</event>
<event>
 7    1  0.2840156E-009  0.9198140E+02  0.7561462E-02  0.1298123E+00
         -1   -1    0    0    0  501 -0.00000000000E+00  0.00000000000E+00  0.16177255024E+03  0.16177255024E+03  0.00000000000E+00 0.  1.
          1   -1    0    0  501    0  0.00000000000E+00 -0.00000000000E+00 -0.84687103640E+02  0.84687103640E+02  0.00000000000E+00 0. -1.
         25    2    1    2    0    0  0.31751718992E+02 -0.63441409688E+01  0.76061898318E+02  0.14993659116E+03  0.12508856546E+03 0.  0.
          5    1    3    3  502    0 -0.41072554283E+02 -0.28286371506E+02  0.46229867219E+02  0.68130364387E+02  0.41800000000E+01 0.  1.
         -5    1    3    3    0  502  0.72824273275E+02  0.21942230537E+02  0.29832031099E+02  0.81806226771E+02  0.41800000000E+01 0.  1.
        -11    1    1    2    0    0 -0.57328564322E+01 -0.19947435968E+02 -0.37660125774E+02  0.43000592064E+02  0.00000000000E+00 0. -1.
         11    1    1    2    0    0 -0.26018862560E+02  0.26291576937E+02  0.38683674051E+02  0.53522470653E+02  0.00000000000E+00 0.  1.
</event>
<event>
 7    1  0.2840156E-009  0.1211727E+03  0.7561462E-02  0.1241175E+00
         -1   -1    0    0    0  501 -0.00000000000E+00  0.00000000000E+00  0.19423762461E+03  0.19423762461E+03  0.00000000000E+00 0.  1.
          1   -1    0    0  501    0  0.00000000000E+00 -0.00000000000E+00 -0.29619171592E+03  0.29619171592E+03  0.00000000000E+00 0. -1.
         25    2    1    2    0    0 -0.85304553794E+02  0.38353642120E+02  0.14378718272E+03  0.21229527508E+03  0.12508661457E+03 0.  0.
          5    1    3    3  502    0 -0.10633799190E+03  0.54628054527E+02  0.14148409329E+03  0.18527604788E+03  0.41800000000E+01 0.  1.
         -5    1    3    3    0  502  0.21033438103E+02 -0.16274412407E+02  0.23030894272E+01  0.27019227201E+02  0.41800000000E+01 0.  1.
        -11    1    1    2    0    0  0.37610714841E+02 -0.28279041468E+02 -0.27473289344E+02  0.54489005171E+02  0.00000000000E+00 0.  1.
         11    1    1    2    0    0  0.47693838953E+02 -0.10074600653E+02 -0.21826798469E+03  0.22364506029E+03  0.00000000000E+00 0. -1.
</event>
<event>
 7    1  0.2840156E-009  0.1026679E+03  0.7561462E-02  0.1274784E+00
          3   -1    0    0  501    0  0.00000000000E+00  0.00000000000E+00  0.71988854360E+02  0.71988854360E+02  0.00000000000E+00 0. -1.
         -3   -1    0    0    0  501 -0.00000000000E+00 -0.00000000000E+00 -0.23830481807E+03  0.23830481807E+03  0.00000000000E+00 0.  1.
         25    2    1    2    0    0  0.28484370629E+02 -0.52037540446E+02 -0.14782024116E+03  0.20252414713E+03  0.12508373792E+03 0.  0.
          5    1    3    3  502    0 -0.38023814520E+02  0.11415429447E+02 -0.75816597960E+02  0.85684020834E+02  0.41800000000E+01 0. -1.
         -5    1    3    3    0  502  0.66508185150E+02 -0.63452969893E+02 -0.72003643196E+02  0.11684012630E+03  0.41800000000E+01 0. -1.
        -11    1    1    2    0    0  0.10455269058E+02  0.21521590916E+02 -0.45499458320E+02  0.51407122405E+02  0.00000000000E+00 0.  1.
         11    1    1    2    0    0 -0.38939639687E+02  0.30515949530E+02  0.27003735764E+02  0.56362402893E+02  0.00000000000E+00 0. -1.
</event>
<event>
 7    1  0.2840156E-009  0.1271092E+03  0.7561462E-02  0.1231809E+00
         -2   -1    0    0    0  501 -0.00000000000E+00  0.00000000000E+00  0.10710051127E+03  0.10710051127E+03  0.00000000000E+00 0.  1.
          2   -1    0    0  501    0  0.00000000000E+00 -0.00000000000E+00 -0.22887246559E+03  0.22887246559E+03  0.00000000000E+00 0. -1.
         25    2    1    2    0    0 -0.34335861656E+02 -0.10268936252E+03 -0.85617897172E+02  0.18628698245E+03  0.12509340088E+03 0.  0.
          5    1    3    3  502    0 -0.25073570195E+02 -0.54829355243E+02 -0.11450044429E+03  0.12947110203E+03  0.41800000000E+01 0.  1.
         -5    1    3    3    0  502 -0.92622914607E+01 -0.47860007273E+02  0.28882547121E+02  0.56815880416E+02  0.41800000000E+01 0.  1.
        -11    1    1    2    0    0  0.28115485800E+01  0.11196140284E+03 -0.32540924606E+02  0.11662835121E+03  0.00000000000E+00 0. -1.
         11    1    1    2    0    0  0.31524313076E+02 -0.92720403281E+01 -0.36131325395E+01  0.33057643193E+02  0.00000000000E+00 0.  1.
</event>
<event>
 7    1  0.2840156E-009  0.4666336E+03  0.7561462E-02  0.1022875E+00
          2   -1    0    0  501    0  0.00000000000E+00  0.00000000000E+00  0.77278741977E+03  0.77278741977E+03  0.00000000000E+00 0. -1.
         -2   -1    0    0    0  501 -0.00000000000E+00 -0.00000000000E+00 -0.62861656635E+03  0.62861656635E+03  0.00000000000E+00 0.  1.
         25    2    1    2    0    0 -0.11296437453E+03  0.45195417809E+03  0.58146746471E+03  0.75549736229E+03  0.12509325686E+03 0.  0.
          5    1    3    3  502    0 -0.66802890857E+02  0.30799849523E+03  0.29571625705E+03  0.43219356356E+03  0.41800000000E+01 0.  1.
         -5    1    3    3    0  502 -0.46161483675E+02  0.14395568285E+03  0.28575120765E+03  0.32330379874E+03  0.41800000000E+01 0.  1.
        -11    1    1    2    0    0  0.79818884227E+02 -0.25750240389E+03 -0.19118264014E+03  0.33049862962E+03  0.00000000000E+00 0.  1.
         11    1    1    2    0    0  0.33145490306E+02 -0.19445177420E+03 -0.24611397116E+03  0.31540799422E+03  0.00000000000E+00 0. -1.
</event>
<event>
 7    1  0.2840156E-009  0.1179160E+03  0.7561462E-02  0.1246575E+00
         -2   -1    0    0    0  501 -0.00000000000E+00  0.00000000000E+00  0.12265365812E+03  0.12265365812E+03  0.00000000000E+00 0.  1.
          2   -1    0    0  501    0  0.00000000000E+00 -0.00000000000E+00 -0.17360429039E+03  0.17360429039E+03  0.00000000000E+00 0. -1.
         25    2    1    2    0    0  0.84220115890E+02 -0.40077586171E+02 -0.39572949661E+02  0.16097369654E+03  0.12508905547E+03 0.  0.
          5    1    3    3  502    0  0.13035283987E+02 -0.48770731395E+02  0.31718882444E+02  0.59766736342E+02  0.41800000000E+01 0.  1.
         -5    1    3    3    0  502  0.71184831902E+02  0.86931452242E+01 -0.71291832105E+02  0.10120696019E+03  0.41800000000E+01 0.  1.
        -11    1    1    2    0    0 -0.10742303647E+02  0.38367949700E+02 -0.39955247690E+02  0.56426221474E+02  0.00000000000E+00 0. -1.
         11    1    1    2    0    0 -0.73477812243E+02  0.17096364710E+01  0.28577565073E+02  0.78858030500E+02  0.00000000000E+00 0.  1.
</event>
<event>
 7    1  0.2840156E-009  0.2180913E+03  0.7561462E-02  0.1135314E+00
         -2   -1    0    0    0  501 -0.00000000000E+00  0.00000000000E+00  0.39078140068E+02  0.39078140068E+02  0.00000000000E+00 0.  1.
          2   -1    0    0  501    0  0.00000000000E+00 -0.00000000000E+00 -0.14347848729E+04  0.14347848729E+04  0.00000000000E+00 0. -1.
         25    2    1    2    0    0 -0.20200231041E+03  0.26596704067E+02 -0.54228880258E+03  0.59265252451E+03  0.12509017281E+03 0.  0.
          5    1    3    3  502    0  0.14265001247E+01 -0.16467169310E+02 -0.70920438369E+01  0.18465428602E+02  0.41800000000E+01 0.  1.
         -5    1    3    3    0  502 -0.20342881054E+03  0.43063873376E+02 -0.53519675874E+03  0.57418709591E+03  0.41800000000E+01 0.  1.
        -11    1    1    2    0    0  0.19038211114E+03 -0.96759701358E+01 -0.82099997234E+03  0.84284039249E+03  0.00000000000E+00 0. -1.
         11    1    1    2    0    0  0.11620199271E+02 -0.16920733931E+02 -0.32417957874E+02  0.38370095916E+02  0.00000000000E+00 0.  1.
</event>
<event>
 7    1  0.2840156E-009  0.1490117E+03  0.7561462E-02  0.1201693E+00
          1   -1    0    0  501    0  0.00000000000E+00  0.00000000000E+00  0.14841297518E+03  0.14841297518E+03  0.00000000000E+00 0. -1.
         -1   -1    0    0    0  501 -0.00000000000E+00 -0.00000000000E+00 -0.16984063695E+03  0.16984063695E+03  0.00000000000E+00 0.  1.
         25    2    1    2    0    0 -0.59589329250E+02  0.96816215202E+02  0.97823160713E+01  0.16931576848E+03  0.12509143881E+03 0.  0.
          5    1    3    3  502    0 -0.59570477904E+02 -0.24834509381E+01  0.31531895873E+02  0.67576195687E+02  0.41800000000E+01 0.  1.
         -5    1    3    3    0  502 -0.18851346312E-01  0.99299666140E+02 -0.21749579802E+02  0.10173957279E+03  0.41800000000E+01 0.  1.
        -11    1    1    2    0    0  0.76564288129E+02 -0.56595527684E+02  0.10629727608E+00  0.95211108962E+02  0.00000000000E+00 0.  1.
         11    1    1    2    0    0 -0.16974958879E+02 -0.40220687518E+02 -0.31316275117E+02  0.53726734691E+02  0.00000000000E+00 0. -1.
</event>
<event>
 7    1  0.2840156E-009  0.2197265E+03  0.7561462E-02  0.1134087E+00
         -1   -1    0    0    0  501 -0.00000000000E+00  0.00000000000E+00  0.57121167616E+03  0.57121167616E+03  0.00000000000E+00 0.  1.
          1   -1    0    0  501    0  0.00000000000E+00 -0.00000000000E+00 -0.92924194499E+02  0.92924194499E+02  0.00000000000E+00 0. -1.
         25    2    1    2    0    0  0.19861804545E+03 -0.37886989040E+02  0.23941112588E+03  0.33741961257E+03  0.12509898413E+03 0.  0.
          5    1    3    3  502    0 -0.37002018212E+01 -0.33736148699E+02  0.47254380367E+02  0.58328964386E+02  0.41800000000E+01 0. -1.
         -5    1    3    3    0  502  0.20231824727E+03 -0.41508403412E+01  0.19215674551E+03  0.27909064818E+03  0.41800000000E+01 0. -1.
        -11    1    1    2    0    0 -0.67996901977E+02  0.20879574572E+02  0.24741635460E+02  0.75310582510E+02  0.00000000000E+00 0. -1.
         11    1    1    2    0    0 -0.13062114347E+03  0.17007414468E+02  0.21413472032E+03  0.25140567558E+03  0.00000000000E+00 0.  1.
</event>
<event>
 7    1  0.2840156E-009  0.1139500E+03  0.7561462E-02  0.1253425E+00
         -2   -1    0    0    0  501 -0.00000000000E+00  0.00000000000E+00  0.43200626524E+02  0.43200626524E+02  0.00000000000E+00 0.  1.
          2   -1    0    0  501    0  0.00000000000E+00 -0.00000000000E+00 -0.32328540295E+03  0.32328540295E+03  0.00000000000E+00 0. -1.
         25    2    1    2    0    0  0.45373073640E+02 -0.45717048453E+01 -0.14077676879E+03  0.19375641010E+03  0.12507530342E+03 0.  0.
          5    1    3    3  502    0  0.77646578785E+02  0.30202024022E+02 -0.72567280238E+02  0.11056507592E+03  0.41800000000E+01 0. -1.
         -5    1    3    3    0  502 -0.32273505145E+02 -0.34773728867E+02 -0.68209488554E+02  0.83191334179E+02  0.41800000000E+01 0. -1.
        -11    1    1    2    0    0 -0.66913904282E+02  0.20591560169E+02 -0.72767926504E+02  0.10097848317E+03  0.00000000000E+00 0.  1.
         11    1    1    2    0    0  0.21540830642E+02 -0.16019855324E+02 -0.66540081131E+02  0.71751136202E+02  0.00000000000E+00 0. -1.
</event>
<event>
 7    1  0.2840156E-009  0.1077280E+03  0.7561462E-02  0.1264836E+00
         -2   -1    0    0    0  501 -0.00000000000E+00  0.00000000000E+00  0.19221759181E+02  0.19221759181E+02  0.00000000000E+00 0.  1.
          2   -1    0    0  501    0  0.00000000000E+00 -0.00000000000E+00 -0.71663610620E+03  0.71663610620E+03  0.00000000000E+00 0. -1.
         25    2    1    2    0    0  0.35161039073E+02 -0.26986422190E+02 -0.36632183320E+03  0.38962132519E+03  0.12509406825E+03 0.  0.
          5    1    3    3  502    0  0.80147618129E+02 -0.52404210210E+01 -0.25825077216E+03  0.27048481737E+03  0.41800000000E+01 0.  1.
         -5    1    3    3    0  502 -0.44986579056E+02 -0.21746001169E+02 -0.10807106104E+03  0.11913650782E+03  0.41800000000E+01 0.  1.
        -11    1    1    2    0    0  0.15996938120E+02 -0.12468387413E+02 -0.19920487193E+02  0.28428656737E+02  0.00000000000E+00 0.  1.
         11    1    1    2    0    0 -0.51157977192E+02  0.39454809603E+02 -0.31117202663E+03  0.31780788346E+03  0.00000000000E+00 0. -1.
</event>
<event>
 7    1  0.2840156E-009  0.1034550E+03  0.7561462E-02  0.1273194E+00
         -1   -1    0    0    0  501 -0.00000000000E+00  0.00000000000E+00  0.26116942012E+03  0.26116942012E+03  0.00000000000E+00 0.  1.
          1   -1    0    0  501    0  0.00000000000E+00 -0.00000000000E+00 -0.65188533204E+02  0.65188533204E+02  0.00000000000E+00 0. -1.
         25    2    1    2    0    0 -0.58885434201E+02  0.40679345509E+02  0.99704535172E+02  0.17524619241E+03  0.12509168681E+03 0.  0.
          5    1    3    3  502    0  0.88128293743E+01  0.30755646822E+02  0.10167180515E+03  0.10666866520E+03  0.41800000000E+01 0. -1.
         -5    1    3    3    0  502 -0.67698263576E+02  0.99236986871E+01 -0.19672699824E+01  0.68577527208E+02  0.41800000000E+01 0. -1.
        -11    1    1    2    0    0 -0.12284587336E+01 -0.45751482121E+02  0.11727023308E+02  0.47246484555E+02  0.00000000000E+00 0. -1.
         11    1    1    2    0    0  0.60113892935E+02  0.50721366119E+01  0.84549328432E+02  0.10386527635E+03  0.00000000000E+00 0.  1.
</event>
<event>
 7    1  0.2840156E-009  0.1104890E+03  0.7561462E-02  0.1259667E+00
          2   -1    0    0  501    0  0.00000000000E+00  0.00000000000E+00  0.17957004925E+03  0.17957004925E+03  0.00000000000E+00 0. -1.
         -2   -1    0    0    0  501 -0.00000000000E+00 -0.00000000000E+00 -0.77258259186E+02  0.77258259186E+02  0.00000000000E+00 0.  1.
         25    2    1    2    0    0 -0.40003483468E+02  0.11013463593E-01  0.72431710648E+02  0.14997994260E+03  0.12508937471E+03 0.  0.
          5    1    3    3  502    0 -0.23006757263E+02 -0.59190908884E+02  0.59036748756E+02  0.86808321479E+02  0.41800000000E+01 0. -1.
         -5    1    3    3    0  502 -0.16996726205E+02  0.59201922347E+02  0.13394961892E+02  0.63171621124E+02  0.41800000000E+01 0. -1.
        -11    1    1    2    0    0  0.53913536030E+02  0.30589396308E+02  0.17062029398E+00  0.61987173230E+02  0.00000000000E+00 0.  1.
         11    1    1    2    0    0 -0.13910052562E+02 -0.30600409772E+02  0.29709459118E+02  0.44861192601E+02  0.00000000000E+00 0. -1.
</event>
<event>
 7    1  0.2840156E-009  0.2373945E+03  0.7561462E-02  0.1121541E+00
          2   -1    0    0  501    0  0.00000000000E+00  0.00000000000E+00  0.35450112848E+03  0.35450112848E+03  0.00000000000E+00 0. -1.
         -2   -1    0    0    0  501 -0.00000000000E+00 -0.00000000000E+00 -0.17254161621E+03  0.17254161621E+03  0.00000000000E+00 0.  1.
         25    2    1    2    0    0  0.21492466470E+03 -0.28493282778E+02  0.14294970542E+03  0.28824933928E+03  0.12509430304E+03 0.  0.
          5    1    3    3  502    0  0.40184710984E+02 -0.57011195607E+02  0.62434574545E+02  0.93705047463E+02  0.41800000000E+01 0.  1.
         -5    1    3    3    0  502  0.17473995372E+03  0.28517912829E+02  0.80515130872E+02  0.19454429181E+03  0.41800000000E+01 0.  1.
        -11    1    1    2    0    0 -0.12719051643E+03  0.51326086874E+02 -0.65904404811E+01  0.13731434218E+03  0.00000000000E+00 0.  1.
         11    1    1    2    0    0 -0.87734148275E+02 -0.22832804097E+02  0.45600247342E+02  0.10147906323E+03  0.00000000000E+00 0. -1.
</event>
<event>
 7    1  0.2840156E-009  0.1115714E+03  0.7561462E-02  0.1257687E+00
          3   -1    0    0  501    0  0.00000000000E+00  0.00000000000E+00  0.10027039150E+03  0.10027039150E+03  0.00000000000E+00 0. -1.
         -3   -1    0    0    0  501 -0.00000000000E+00 -0.00000000000E+00 -0.15404875699E+03  0.15404875699E+03  0.00000000000E+00 0.  1.
         25    2    1    2    0    0 -0.49176571493E+02  0.22013200884E+02 -0.59067155268E+02  0.14845548225E+03  0.12508870925E+03 0.  0.
          5    1    3    3  502    0 -0.21569612847E+02 -0.42211809343E+02 -0.62244706212E+02  0.78351521350E+02  0.41800000000E+01 0. -1.
         -5    1    3    3    0  502 -0.27606958646E+02  0.64225010228E+02  0.31775509432E+01  0.70103960904E+02  0.41800000000E+01 0. -1.
        -11    1    1    2    0    0 -0.14813150175E+02  0.22950676232E+02 -0.15337282828E+01  0.27359007293E+02  0.00000000000E+00 0.  1.
         11    1    1    2    0    0  0.63989721668E+02 -0.44963877116E+02  0.68225180626E+01  0.78504658952E+02  0.00000000000E+00 0. -1.
</event>
<event>
 7    1  0.2840156E-009  0.1064281E+03  0.7561462E-02  0.1267331E+00
         -1   -1    0    0    0  501 -0.00000000000E+00  0.00000000000E+00  0.93687891348E+02  0.93687891348E+02  0.00000000000E+00 0.  1.
          1   -1    0    0  501    0  0.00000000000E+00 -0.00000000000E+00 -0.15696285759E+03  0.15696285759E+03  0.00000000000E+00 0. -1.
         25    2    1    2    0    0  0.11673348222E+02 -0.50783272014E+02 -0.52551925695E+02  0.14534695649E+03  0.12509526406E+03 0.  0.
          5    1    3    3  502    0  0.67878645287E+02 -0.20987743936E+02 -0.20943767303E+02  0.74189687089E+02  0.41800000000E+01 0. -1.
         -5    1    3    3    0  502 -0.56205297065E+02 -0.29795528078E+02 -0.31608158392E+02  0.71157269401E+02  0.41800000000E+01 0. -1.
        -11    1    1    2    0    0 -0.29880278479E+02  0.72530085304E+01 -0.39484359245E+02  0.50044498196E+02  0.00000000000E+00 0. -1.
         11    1    1    2    0    0  0.18206930257E+02  0.43530263484E+02  0.28761318696E+02  0.55259294254E+02  0.00000000000E+00 0.  1.
</event>
<event>
 7    1  0.2840156E-009  0.4323060E+03  0.7561462E-02  0.1033134E+00
         -3   -1    0    0    0  501 -0.00000000000E+00  0.00000000000E+00  0.21269162961E+03  0.21269162961E+03  0.00000000000E+00 0.  1.
          3   -1    0    0  501    0  0.00000000000E+00 -0.00000000000E+00 -0.93810734149E+03  0.93810734149E+03  0.00000000000E+00 0. -1.
         25    2    1    2    0    0 -0.28534431311E+03 -0.31393357573E+03 -0.25290631895E+03  0.50949419572E+03  0.12508821812E+03 0.  0.
          5    1    3    3  502    0 -0.79767183038E+02 -0.22020175614E+02 -0.69163538917E+02  0.10792941740E+03  0.41800000000E+01 0. -1.
         -5    1    3    3    0  502 -0.20557713007E+03 -0.29191340012E+03 -0.18374278003E+03  0.40156477832E+03  0.41800000000E+01 0. -1.
        -11    1    1    2    0    0  0.14284732910E+03  0.14250639310E+03 -0.16040267011E+03  0.25776432663E+03  0.00000000000E+00 0. -1.
         11    1    1    2    0    0  0.14249698401E+03  0.17142718263E+03 -0.31210672282E+03  0.38354044875E+03  0.00000000000E+00 0.  1.
</event>
<event>
 7    1  0.2840156E-009  0.1177937E+03  0.7561462E-02  0.1246782E+00
         -2   -1    0    0    0  501 -0.00000000000E+00  0.00000000000E+00  0.25915475201E+02  0.25915475201E+02  0.00000000000E+00 0.  1.
          2   -1    0    0  501    0  0.00000000000E+00 -0.00000000000E+00 -0.74521962576E+03  0.74521962576E+03  0.00000000000E+00 0. -1.
         25    2    1    2    0    0  0.64226002664E+02 -0.53453243936E+02 -0.37555613473E+03  0.40456425423E+03  0.12509035441E+03 0.  0.
          5    1    3    3  502    0  0.33729790217E+01 -0.78746652523E+02 -0.14943938626E+03  0.16900300245E+03  0.41800000000E+01 0. -1.
         -5    1    3    3    0  502  0.60853023642E+02  0.25293408588E+02 -0.22611674847E+03  0.23556125179E+03  0.41800000000E+01 0. -1.
        -11    1    1    2    0    0 -0.28835813853E+02  0.46259743147E+02 -0.31694207684E+03  0.32159562819E+03  0.00000000000E+00 0. -1.
         11    1    1    2    0    0 -0.35390188811E+02  0.71935007887E+01 -0.26805938988E+02  0.44975218540E+02  0.00000000000E+00 0.  1.
</event>
<event>
 7    1  0.2840156E-009  0.1423488E+03  0.7561462E-02  0.1210203E+00
          1   -1    0    0  501    0  0.00000000000E+00  0.00000000000E+00  0.12186506653E+04  0.12186506653E+04  0.00000000000E+00 0. -1.
         -1   -1    0    0    0  501 -0.00000000000E+00 -0.00000000000E+00 -0.24686782130E+02  0.24686782130E+02  0.00000000000E+00 0.  1.
         25    2    1    2    0    0 -0.94602256374E+02 -0.79232745735E+02  0.44033302323E+03  0.47409712430E+03  0.12508995568E+03 0.  0.
          5    1    3    3  502    0 -0.83337353799E+02 -0.28383840388E+02  0.39564693049E+03  0.40534518986E+03  0.41800000000E+01 0.  1.
         -5    1    3    3    0  502 -0.11264902575E+02 -0.50848905347E+02  0.44686092738E+02  0.68751934439E+02  0.41800000000E+01 0.  1.
        -11    1    1    2    0    0  0.93223404250E+02  0.92290912830E+02  0.73395235565E+03  0.74558317850E+03  0.00000000000E+00 0.  1.
         11    1    1    2    0    0  0.13788521241E+01 -0.13058167095E+02  0.19678504264E+02  0.23657144610E+02  0.00000000000E+00 0. -1.
</event>
<event>
 7    1  0.2840156E-009  0.1149553E+03  0.7561462E-02  0.1251659E+00
          1   -1    0    0  501    0  0.00000000000E+00  0.00000000000E+00  0.21798103200E+03  0.21798103200E+03  0.00000000000E+00 0. -1.
         -1   -1    0    0    0  501 -0.00000000000E+00 -0.00000000000E+00 -0.95423876770E+02  0.95423876770E+02  0.00000000000E+00 0.  1.
         25    2    1    2    0    0 -0.68448332963E+02 -0.38783230134E+02  0.12157124153E+03  0.19134910965E+03  0.12508237995E+03 0.  0.
          5    1    3    3  502    0 -0.49148322198E+02  0.27021754958E+02  0.10734661516E+03  0.12118787482E+03  0.41800000000E+01 0.  1.
         -5    1    3    3    0  502 -0.19300010765E+02 -0.65804985092E+02  0.14224626363E+02  0.70161234835E+02  0.41800000000E+01 0.  1.
        -11    1    1    2    0    0  0.69350909527E+02  0.55129129149E+02 -0.24361200682E+02  0.91881650135E+02  0.00000000000E+00 0.  1.
         11    1    1    2    0    0 -0.90257656369E+00 -0.16345899015E+02  0.25347114388E+02  0.30174148984E+02  0.00000000000E+00 0. -1.
</event>
<event>
 7    1  0.2840156E-009  0.1866764E+03  0.7561462E-02  0.1161494E+00
          1   -1    0    0  501    0  0.00000000000E+00  0.00000000000E+00  0.99761438828E+02  0.99761438828E+02  0.00000000000E+00 0. -1.
         -1   -1    0    0    0  501 -0.00000000000E+00 -0.00000000000E+00 -0.14515397558E+04  0.14515397558E+04  0.00000000000E+00 0.  1.
         25    2    1    2    0    0  0.13544515460E+03 -0.88795842908E+02 -0.13503257329E+04  0.13657444230E+04  0.12509257589E+03 0.  0.
          5    1    3    3  502    0  0.46032659685E+02  0.17830375222E+02 -0.16516661176E+03  0.17243668426E+03  0.41800000000E+01 0.  1.
         -5    1    3    3    0  502  0.89412494915E+02 -0.10662621813E+03 -0.11851591211E+04  0.11933077388E+04  0.41800000000E+01 0.  1.
        -11    1    1    2    0    0 -0.33703393837E+02  0.74609008571E+02  0.87043834604E+01  0.82329758943E+02  0.00000000000E+00 0. -1.
         11    1    1    2    0    0 -0.10174176076E+03  0.14186834337E+02 -0.10156967552E+02  0.10322701265E+03  0.00000000000E+00 0.  1.
</event>
<event>
 7    1  0.2840156E-009  0.2399214E+03  0.7561462E-02  0.1119845E+00
          2   -1    0    0  501    0  0.00000000000E+00  0.00000000000E+00  0.62200746122E+03  0.62200746122E+03  0.00000000000E+00 0. -1.
         -2   -1    0    0    0  501 -0.00000000000E+00 -0.00000000000E+00 -0.12486555362E+03  0.12486555362E+03  0.00000000000E+00 0.  1.
         25    2    1    2    0    0  0.20458822925E+03 -0.11668552534E+03  0.38968255713E+03  0.47219424279E+03  0.12507218803E+03 0.  0.
          5    1    3    3  502    0  0.14694947586E+03 -0.11190164394E+03  0.36515364251E+03  0.40923194084E+03  0.41800000000E+01 0. -1.
         -5    1    3    3    0  502  0.57638753389E+02 -0.47838814018E+01  0.24528914630E+02  0.62962301946E+02  0.41800000000E+01 0. -1.
        -11    1    1    2    0    0 -0.14842329728E+03  0.98221630530E+02  0.35394936891E+02  0.18146560400E+03  0.00000000000E+00 0.  1.
         11    1    1    2    0    0 -0.56164931969E+02  0.18463894813E+02  0.72064413574E+02  0.93213168053E+02  0.00000000000E+00 0. -1.
</event>
<event>
 7    1  0.9117284E-009  0.1434178E+03  0.7561462E-02  0.1208803E+00
          2   -1    0    0  501    0  0.00000000000E+00  0.00000000000E+00  0.15358292187E+04  0.15358292187E+04  0.00000000000E+00 0. -1.
         -2   -1    0    0    0  501 -0.00000000000E+00 -0.00000000000E+00 -0.13877627622E+02  0.13877627622E+02  0.00000000000E+00 0.  1.
         25    2    1    2    0    0 -0.96006364575E+02  0.97900362778E+01  0.90025735837E+03  0.91401611033E+03  0.12509625008E+03 0.  0.
          5    1    3    3  502    0 -0.11475653239E+03 -0.24416364622E+02  0.61885923863E+03  0.62989638054E+03  0.41800000000E+01 0. -1.
         -5    1    3    3    0  502  0.18750167816E+02  0.34206400900E+02  0.28139811975E+03  0.28411972978E+03  0.41800000000E+01 0. -1.
        -11    1    1    2    0    0  0.39080829405E+02 -0.47809495213E+02  0.35623880990E+03  0.36155103200E+03  0.00000000000E+00 0. -1.
         11    1    1    2    0    0  0.56925535170E+02  0.38019458936E+02  0.26545542285E+03  0.27413970404E+03  0.00000000000E+00 0.  1.
</event>
<event>
 7    1  0.2840156E-009  0.9821495E+02  0.7561462E-02  0.1284095E+00
         -1   -1    0    0    0  501 -0.00000000000E+00  0.00000000000E+00  0.51899874338E+02  0.51899874338E+02  0.00000000000E+00 0.  1.
          1   -1    0    0  501    0  0.00000000000E+00 -0.00000000000E+00 -0.32829484075E+03  0.32829484075E+03  0.00000000000E+00 0. -1.
         25    2    1    2    0    0 -0.47039429468E+02 -0.47927103633E+02 -0.12161549231E+03  0.18694103235E+03  0.12508759499E+03 0.  0.
          5    1    3    3  502    0 -0.62798977129E+02  0.11313196962E+02 -0.17922063115E+02  0.66410636951E+02  0.41800000000E+01 0.  1.
         -5    1    3    3    0  502  0.15759547661E+02 -0.59240300596E+02 -0.10369342919E+03  0.12053039540E+03  0.41800000000E+01 0.  1.
        -11    1    1    2    0    0  0.21226198573E+02  0.37719931567E+02 -0.81786700767E+01  0.44048103109E+02  0.00000000000E+00 0.  1.
         11    1    1    2    0    0  0.25813230896E+02  0.10207172066E+02 -0.14660080403E+03  0.14920557963E+03  0.00000000000E+00 0. -1.
</event>
<event>
 7    1  0.2840156E-009  0.4131059E+03  0.7561462E-02  0.1039334E+00
         -1   -1    0    0    0  501 -0.00000000000E+00  0.00000000000E+00  0.99297611657E+02  0.99297611657E+02  0.00000000000E+00 0.  1.
          1   -1    0    0  501    0  0.00000000000E+00 -0.00000000000E+00 -0.17410027939E+04  0.17410027939E+04  0.00000000000E+00 0. -1.
         25    2    1    2    0    0 -0.31906874512E+03  0.24056091697E+03 -0.90908544838E+03  0.10008786140E+04  0.12508888302E+03 0.  0.
          5    1    3    3  502    0  0.74558550634E+01  0.24853725988E+02 -0.41740264748E+02  0.49325648212E+02  0.41800000000E+01 0.  1.
         -5    1    3    3    0  502 -0.32652460018E+03  0.21570719099E+03 -0.86734518363E+03  0.95155296581E+03  0.41800000000E+01 0.  1.
        -11    1    1    2    0    0  0.10616350244E+03 -0.32867680834E+02 -0.22868001195E+03  0.25425483586E+03  0.00000000000E+00 0. -1.
         11    1    1    2    0    0  0.21290524267E+03 -0.20769323614E+03 -0.50393972193E+03  0.58516695569E+03  0.00000000000E+00 0.  1.
</event>
<event>
 7    1  0.2840156E-009  0.8570749E+02  0.7561462E-02  0.1313593E+00
         -4   -1    0    0    0  501 -0.00000000000E+00  0.00000000000E+00  0.67787797799E+02  0.67787797799E+02  0.00000000000E+00 0.  1.
          4   -1    0    0  501    0  0.00000000000E+00 -0.00000000000E+00 -0.25990009576E+03  0.25990009576E+03  0.00000000000E+00 0. -1.
         25    2    1    2    0    0 -0.28973538267E+02  0.52097911717E+02 -0.16235672194E+03  0.21344806701E+03  0.12508682514E+03 0.  0.
          5    1    3    3  502    0 -0.49435944980E+02  0.37859847071E+02 -0.15328405419E+02  0.64262843767E+02  0.41800000000E+01 0. -1.
         -5    1    3    3    0  502  0.20462406712E+02  0.14238064646E+02 -0.14702831652E+03  0.14918522324E+03  0.41800000000E+01 0. -1.
        -11    1    1    2    0    0 -0.18158451159E+02 -0.17908677612E+02 -0.47034024573E+02  0.53503733980E+02  0.00000000000E+00 0. -1.
         11    1    1    2    0    0  0.47131989426E+02 -0.34189234105E+02  0.17278448557E+02  0.60736092569E+02  0.00000000000E+00 0.  1.
</event>
<event>
 7    1  0.2840156E-009  0.1050690E+03  0.7561462E-02  0.1269984E+00
         -1   -1    0    0    0  501 -0.00000000000E+00  0.00000000000E+00  0.65418310358E+02  0.65418310358E+02  0.00000000000E+00 0.  1.
          1   -1    0    0  501    0  0.00000000000E+00 -0.00000000000E+00 -0.21154481858E+03  0.21154481858E+03  0.00000000000E+00 0. -1.
         25    2    1    2    0    0 -0.12550701197E+02  0.14569002689E+02 -0.13058375789E+03  0.18184057765E+03  0.12507638433E+03 0.  0.
          5    1    3    3  502    0 -0.60997162804E+02  0.32254862851E+02 -0.47188678286E+02  0.83697513739E+02  0.41800000000E+01 0.  1.
         -5    1    3    3    0  502  0.48446461606E+02 -0.17685860163E+02 -0.83395079604E+02  0.98143063912E+02  0.41800000000E+01 0.  1.
        -11    1    1    2    0    0 -0.20294181530E+02 -0.41889252812E+02 -0.22730465788E+02  0.51799974711E+02  0.00000000000E+00 0. -1.
         11    1    1    2    0    0  0.32844882728E+02  0.27320250123E+02  0.71877154512E+01  0.43322576581E+02  0.00000000000E+00 0.  1.
</event>
<event>
 7    1  0.2840156E-009  0.1254688E+03  0.7561462E-02  0.1234338E+00
         -2   -1    0    0    0  501 -0.00000000000E+00  0.00000000000E+00  0.52228100570E+02  0.52228100570E+02  0.00000000000E+00 0.  1.
          2   -1    0    0  501    0  0.00000000000E+00 -0.00000000000E+00 -0.39062757079E+03  0.39062757079E+03  0.00000000000E+00 0. -1.
         25    2    1    2    0    0  0.96768340351E+01 -0.91612930142E+02 -0.18699496676E+03  0.24310810482E+03  0.12509141837E+03 0.  0.
          5    1    3    3  502    0  0.31923582718E+02 -0.10743912735E+03 -0.18377997100E+03  0.21530172169E+03  0.41800000000E+01 0.  1.
         -5    1    3    3    0  502 -0.22246748683E+02  0.15826197212E+02 -0.32149957594E+01  0.27806383132E+02  0.41800000000E+01 0.  1.
        -11    1    1    2    0    0 -0.61167774812E+01 -0.87808325681E+01  0.65557596068E+01  0.12549739892E+02  0.00000000000E+00 0.  1.
         11    1    1    2    0    0 -0.35600565539E+01  0.10039376271E+03 -0.15796026306E+03  0.18719782664E+03  0.00000000000E+00 0. -1.
</event>
<event>
 7    1  0.2840156E-009  0.1117108E+03  0.7561462E-02  0.1257434E+00
         -2   -1    0    0    0  501 -0.00000000000E+00  0.00000000000E+00  0.27756217683E+03  0.27756217683E+03  0.00000000000E+00 0.  1.
          2   -1    0    0  501    0  0.00000000000E+00 -0.00000000000E+00 -0.85745607756E+02  0.85745607756E+02  0.00000000000E+00 0. -1.
         25    2    1    2    0    0 -0.39528598946E+02  0.72174311936E+02  0.26824839501E+02  0.15210862327E+03  0.12508325156E+03 0.  0.
          5    1    3    3  502    0 -0.79518599768E+01 -0.46216139902E+01 -0.42607922564E+02  0.43789255054E+02  0.41800000000E+01 0.  1.
         -5    1    3    3    0  502 -0.31576738969E+02  0.76795925926E+02  0.69432762065E+02  0.10831936822E+03  0.41800000000E+01 0.  1.
        -11    1    1    2    0    0  0.73182764249E+02 -0.39011577294E+02  0.88438746056E+02  0.12123956429E+03  0.00000000000E+00 0.  1.
         11    1    1    2    0    0 -0.33654165303E+02 -0.33162734642E+02  0.76552983515E+02  0.89959597021E+02  0.00000000000E+00 0. -1.
</event>
<event>
 7    1  0.2840156E-009  0.2490151E+03  0.7561462E-02  0.1113929E+00
         -2   -1    0    0    0  501 -0.00000000000E+00  0.00000000000E+00  0.17235548598E+03  0.17235548598E+03  0.00000000000E+00 0.  1.
          2   -1    0    0  501    0  0.00000000000E+00 -0.00000000000E+00 -0.41744088053E+03  0.41744088053E+03  0.00000000000E+00 0. -1.
         25    2    1    2    0    0  0.22797006906E+03 -0.43238906958E+01 -0.22455794635E+03  0.34360214900E+03  0.12508843716E+03 0.  0.
          5    1    3    3  502    0  0.10412604121E+03  0.52779880947E+02 -0.65062768016E+02  0.13371082407E+03  0.41800000000E+01 0.  1.
         -5    1    3    3    0  502  0.12384402785E+03 -0.57103771643E+02 -0.15949517833E+03  0.20989132493E+03  0.41800000000E+01 0.  1.
        -11    1    1    2    0    0 -0.94411790014E+02  0.45790222532E+02 -0.17030498878E+02  0.10630319123E+03  0.00000000000E+00 0.  1.
         11    1    1    2    0    0 -0.13355827905E+03 -0.41466331836E+02 -0.34969493256E+01  0.13989102628E+03  0.00000000000E+00 0. -1.
</event>
<event>
 7    1  0.2840156E-009  0.1056516E+03  0.7561462E-02  0.1268841E+00
         -2   -1    0    0    0  501 -0.00000000000E+00  0.00000000000E+00  0.16179281635E+02  0.16179281635E+02  0.00000000000E+00 0.  1.
          2   -1    0    0  501    0  0.00000000000E+00 -0.00000000000E+00 -0.15552630289E+04  0.15552630289E+04  0.00000000000E+00 0. -1.
         25    2    1    2    0    0  0.39794361394E+01  0.36103110245E+02 -0.13706612349E+04  0.13768366761E+04  0.12509093152E+03 0.  0.
          5    1    3    3  502    0 -0.26820328706E+02 -0.31357774545E+02 -0.22641880901E+03  0.23018598899E+03  0.41800000000E+01 0.  1.
         -5    1    3    3    0  502  0.30799764846E+02  0.67460884790E+02 -0.11442424259E+04  0.11466506871E+04  0.41800000000E+01 0.  1.
        -11    1    1    2    0    0 -0.39909323567E+02 -0.43323212604E+02 -0.12186907877E+03  0.13535777487E+03  0.00000000000E+00 0. -1.
         11    1    1    2    0    0  0.35929887428E+02  0.72201023591E+01 -0.46553433519E+02  0.59247859548E+02  0.00000000000E+00 0.  1.
</event>
<event>
 7    1  0.2840156E-009  0.1823875E+03  0.7561462E-02  0.1165512E+00
         -2   -1    0    0    0  501 -0.00000000000E+00  0.00000000000E+00  0.85383755459E+02  0.85383755459E+02  0.00000000000E+00 0.  1.
          2   -1    0    0  501    0  0.00000000000E+00 -0.00000000000E+00 -0.88808514199E+03  0.88808514199E+03  0.00000000000E+00 0. -1.
         25    2    1    2    0    0 -0.15576360595E+03  0.66032931263E+02 -0.74398681445E+03  0.77316641552E+03  0.12508907647E+03 0.  0.
          5    1    3    3  502    0 -0.44769123094E+02 -0.21652729609E+00 -0.44681550662E+03  0.44907225546E+03  0.41800000000E+01 0. -1.
         -5    1    3    3    0  502 -0.11099448286E+03  0.66249458559E+02 -0.29717130784E+03  0.32409416006E+03  0.41800000000E+01 0. -1.
        -11    1    1    2    0    0  0.12744166970E+03 -0.10167907764E+02 -0.49020974295E+02  0.13692268419E+03  0.00000000000E+00 0.  1.
         11    1    1    2    0    0  0.28321936253E+02 -0.55865023499E+02 -0.96935977782E+01  0.63379797740E+02  0.00000000000E+00 0. -1.
</event>
<event>
 7    1  0.2840156E-009  0.1996154E+03  0.7561462E-02  0.1150064E+00
          2   -1    0    0  501    0  0.00000000000E+00  0.00000000000E+00  0.11399134986E+04  0.11399134986E+04  0.00000000000E+00 0. -1.
         -2   -1    0    0    0  501 -0.00000000000E+00 -0.00000000000E+00 -0.38297679801E+02  0.38297679801E+02  0.00000000000E+00 0.  1.
         25    2    1    2    0    0  0.17145548305E+03 -0.43790667741E+02  0.52444501519E+03  0.56745418465E+03  0.12508825872E+03 0.  0.
          5    1    3    3  502    0  0.48599223019E+02  0.42574248513E+02  0.19246357535E+03  0.20306193969E+03  0.41800000000E+01 0. -1.
         -5    1    3    3    0  502  0.12285626003E+03 -0.86364916253E+02  0.33198143984E+03  0.36439224496E+03  0.41800000000E+01 0. -1.
        -11    1    1    2    0    0 -0.97931382812E+02  0.50929125185E+02  0.45317894894E+03  0.46642844177E+03  0.00000000000E+00 0.  1.
         11    1    1    2    0    0 -0.73524100239E+02 -0.71384574445E+01  0.12399185463E+03  0.14432855194E+03  0.00000000000E+00 0. -1.
</event>
<event>
 7    1  0.2840156E-009  0.1099892E+03  0.7561462E-02  0.1260590E+00
         -2   -1    0    0    0  501 -0.00000000000E+00  0.00000000000E+00  0.47631139560E+02  0.47631139560E+02  0.00000000000E+00 0. -1.
          2   -1    0    0  501    0  0.00000000000E+00 -0.00000000000E+00 -0.31046842610E+03  0.31046842610E+03  0.00000000000E+00 0.  1.
         25    2    1    2    0    0  0.33355154053E+02  0.34110984993E+01 -0.20959624651E+03  0.24637628294E+03  0.12508590788E+03 0.  0.
          5    1    3    3  502    0 -0.27519014515E+02  0.46505209060E+02 -0.99998065394E+02  0.11374144413E+03  0.41800000000E+01 0.  1.
         -5    1    3    3    0  502  0.60874168567E+02 -0.43094110561E+02 -0.10959818112E+03  0.13263483882E+03  0.41800000000E+01 0.  1.
        -11    1    1    2    0    0 -0.14853450682E+02 -0.44017382992E+02 -0.47990875647E+02  0.66792807606E+02  0.00000000000E+00 0.  1.
         11    1    1    2    0    0 -0.18501703370E+02  0.40606284492E+02 -0.52501643859E+01  0.44930475114E+02  0.00000000000E+00 0. -1.
</event>
<event>
 7    1  0.2840156E-009  0.1838011E+03  0.7561462E-02  0.1164174E+00
          1   -1    0    0  501    0  0.00000000000E+00  0.00000000000E+00  0.45748114914E+03  0.45748114914E+03  0.00000000000E+00 0. -1.
         -1   -1    0    0    0  501 -0.00000000000E+00 -0.00000000000E+00 -0.98104002303E+02  0.98104002303E+02  0.00000000000E+00 0.  1.
         25    2    1    2    0    0 -0.12452882338E+02 -0.17756795672E+03  0.23489469158E+03  0.32016908829E+03  0.12508907000E+03 0.  0.
          5    1    3    3  502    0 -0.13578563885E+02 -0.34306348158E+02  0.14793694158E+03  0.15252578144E+03  0.41800000000E+01 0. -1.
         -5    1    3    3    0  502  0.11256815473E+01 -0.14326160856E+03  0.86957749999E+02  0.16764330685E+03  0.41800000000E+01 0. -1.
        -11    1    1    2    0    0  0.35045029807E+02  0.86836165395E+02  0.21036016083E+02  0.95974932703E+02  0.00000000000E+00 0. -1.
         11    1    1    2    0    0 -0.22592147469E+02  0.90731791320E+02  0.10344643918E+03  0.13944113045E+03  0.00000000000E+00 0.  1.
</event>
<event>
 7    1  0.2840156E-009  0.1733336E+03  0.7561462E-02  0.1174415E+00
         -1   -1    0    0    0  501 -0.00000000000E+00  0.00000000000E+00  0.20254725409E+02  0.20254725409E+02  0.00000000000E+00 0.  1.
          1   -1    0    0  501    0  0.00000000000E+00 -0.00000000000E+00 -0.16886692923E+04  0.16886692923E+04  0.00000000000E+00 0. -1.
         25    2    1    2    0    0 -0.14929876984E+03 -0.16231529829E+02 -0.88325501325E+03  0.90462156676E+03  0.12508867006E+03 0.  0.
          5    1    3    3  502    0 -0.15858967425E+03 -0.29971615633E+02 -0.86361606097E+03  0.87857791668E+03  0.41800000000E+01 0.  1.
         -5    1    3    3    0  502  0.92909044045E+01  0.13740085804E+02 -0.19638952283E+02  0.26043650077E+02  0.41800000000E+01 0.  1.
        -11    1    1    2    0    0  0.32250586930E+02  0.37163456245E+02 -0.14304949843E+03  0.15127584685E+03  0.00000000000E+00 0. -1.
         11    1    1    2    0    0  0.11704818291E+03 -0.20931926415E+02 -0.64211005525E+03  0.65302660415E+03  0.00000000000E+00 0.  1.
</event>
<event>
 7    1  0.3348608E-009  0.1735382E+03  0.7561462E-02  0.1174207E+00
         -2   -1    0    0    0  501 -0.00000000000E+00  0.00000000000E+00  0.40983720449E+02  0.40983720449E+02  0.00000000000E+00 0.  1.
          2   -1    0    0  501    0  0.00000000000E+00 -0.00000000000E+00 -0.79510778859E+03  0.79510778859E+03  0.00000000000E+00 0. -1.
         25    2    1    2    0    0  0.73983101591E+02 -0.11960857237E+03 -0.46931877785E+03  0.50565566431E+03  0.12509126948E+03 0.  0.
          5    1    3    3  502    0 -0.19403323400E+02  0.13307093879E+02 -0.87334409697E+02  0.90544680813E+02  0.41800000000E+01 0. -1.
         -5    1    3    3    0  502  0.93386424991E+02 -0.13291566625E+03 -0.38198436815E+03  0.41511098350E+03  0.41800000000E+01 0. -1.
        -11    1    1    2    0    0 -0.79629808943E+01  0.86428723429E+02 -0.10624004675E+03  0.13718702866E+03  0.00000000000E+00 0.  1.
         11    1    1    2    0    0 -0.66020120697E+02  0.33179848939E+02 -0.17856524353E+03  0.19324881606E+03  0.00000000000E+00 0. -1.
</event>
<event>
 7    1  0.2840156E-009  0.7595459E+02  0.7561462E-02  0.1340940E+00
         -1   -1    0    0    0  501 -0.00000000000E+00  0.00000000000E+00  0.11806113957E+03  0.11806113957E+03  0.00000000000E+00 0.  1.
          1   -1    0    0  501    0  0.00000000000E+00 -0.00000000000E+00 -0.21194676050E+03  0.21194676050E+03  0.00000000000E+00 0. -1.
         25    2    1    2    0    0  0.38718246620E+02  0.15967667752E+02 -0.16200117558E+03  0.20891605432E+03  0.12508983902E+03 0.  0.
          5    1    3    3  502    0  0.54225790100E+02  0.41250994771E+02 -0.16524373518E+03  0.17878771014E+03  0.41800000000E+01 0.  1.
         -5    1    3    3    0  502 -0.15507543481E+02 -0.25283327019E+02  0.32425595952E+01  0.30128344174E+02  0.41800000000E+01 0.  1.
        -11    1    1    2    0    0 -0.24259713331E+02 -0.26408972339E+02 -0.12920089420E+02  0.38116875810E+02  0.00000000000E+00 0. -1.
         11    1    1    2    0    0 -0.14458533289E+02  0.10441304587E+02  0.81035644073E+02  0.82974969941E+02  0.00000000000E+00 0.  1.
</event>
<event>
 7    1  0.2840156E-009  0.1153514E+03  0.7561462E-02  0.1250969E+00
         -1   -1    0    0    0  501 -0.00000000000E+00  0.00000000000E+00  0.53439271440E+02  0.53439271440E+02  0.00000000000E+00 0.  1.
          1   -1    0    0  501    0  0.00000000000E+00 -0.00000000000E+00 -0.37732953101E+03  0.37732953101E+03  0.00000000000E+00 0. -1.
         25    2    1    2    0    0  0.38350859224E+01  0.83140912972E+02 -0.11938651580E+03  0.19190900654E+03  0.12509519313E+03 0.  0.
          5    1    3    3  502    0  0.69344891461E+01  0.95348244660E+02 -0.13868127633E+03  0.16849137576E+03  0.41800000000E+01 0. -1.
         -5    1    3    3    0  502 -0.30994032236E+01 -0.12207331687E+02  0.19294760536E+02  0.23417630782E+02  0.41800000000E+01 0. -1.
        -11    1    1    2    0    0 -0.37841967547E+02 -0.71822643715E+01 -0.84008712503E+02  0.92417872762E+02  0.00000000000E+00 0. -1.
         11    1    1    2    0    0  0.34006881625E+02 -0.75958648601E+02 -0.12049503127E+03  0.14644192315E+03  0.00000000000E+00 0.  1.
</event>
<event>
 7    1  0.2840156E-009  0.9807937E+02  0.7561462E-02  0.1284387E+00
         -1   -1    0    0    0  501 -0.00000000000E+00  0.00000000000E+00  0.28033902509E+02  0.28033902509E+02  0.00000000000E+00 0.  1.
          1   -1    0    0  501    0  0.00000000000E+00 -0.00000000000E+00 -0.59758040202E+03  0.59758040202E+03  0.00000000000E+00 0. -1.
         25    2    1    2    0    0  0.66687330309E+02  0.20543822552E+02 -0.29836112071E+03  0.33096299833E+03  0.12509156344E+03 0.  0.
          5    1    3    3  502    0  0.66996555494E+02  0.51406806138E+01 -0.30596287911E+03  0.31328217447E+03  0.41800000000E+01 0.  1.
         -5    1    3    3    0  502 -0.30922518530E+00  0.15403141938E+02  0.76017583988E+01  0.17680823864E+02  0.41800000000E+01 0.  1.
        -11    1    1    2    0    0 -0.72449561411E+02 -0.46629056920E+02 -0.17871099571E+03  0.19839563475E+03  0.00000000000E+00 0.  1.
         11    1    1    2    0    0  0.57622311023E+01  0.26085234368E+02 -0.92474383081E+02  0.96255671446E+02  0.00000000000E+00 0. -1.
</event>
<event>
 7    1  0.2840156E-009  0.1279526E+03  0.7561462E-02  0.1230526E+00
         -2   -1    0    0    0  501 -0.00000000000E+00  0.00000000000E+00  0.34874903309E+02  0.34874903309E+02  0.00000000000E+00 0.  1.
          2   -1    0    0  501    0  0.00000000000E+00 -0.00000000000E+00 -0.56093528391E+03  0.56093528391E+03  0.00000000000E+00 0. -1.
         25    2    1    2    0    0  0.34529358138E+01 -0.91202209254E+02 -0.31464187461E+03  0.35067816603E+03  0.12508357658E+03 0.  0.
          5    1    3    3  502    0 -0.31508566256E+01  0.28930136242E+02 -0.31941006202E+02  0.43411760591E+02  0.41800000000E+01 0.  1.
         -5    1    3    3    0  502  0.66037924394E+01 -0.12013234550E+03 -0.28270086841E+03  0.30726640543E+03  0.41800000000E+01 0.  1.
        -11    1    1    2    0    0  0.24742510770E+02  0.31180436667E+02 -0.14841649484E+03  0.15366153524E+03  0.00000000000E+00 0. -1.
         11    1    1    2    0    0 -0.28195446583E+02  0.60021772587E+02 -0.63002011147E+02  0.91470485956E+02  0.00000000000E+00 0.  1.
</event>
<event>
 7    1  0.2840156E-009  0.1648913E+03  0.7561462E-02  0.1183283E+00
          2   -1    0    0  501    0  0.00000000000E+00  0.00000000000E+00  0.96437374455E+03  0.96437374455E+03  0.00000000000E+00 0. -1.
         -2   -1    0    0    0  501 -0.00000000000E+00 -0.00000000000E+00 -0.37566210616E+02  0.37566210616E+02  0.00000000000E+00 0.  1.
         25    2    1    2    0    0 -0.14591737358E+03  0.55005740651E+01  0.33831705379E+03  0.38913562282E+03  0.12508384322E+03 0.  0.
          5    1    3    3  502    0 -0.33786526632E+02  0.28427121483E+02  0.16122440898E+02  0.47191483534E+02  0.41800000000E+01 0.  1.
         -5    1    3    3    0  502 -0.11213084695E+03 -0.22926547418E+02  0.32219461290E+03  0.34194413929E+03  0.41800000000E+01 0.  1.
        -11    1    1    2    0    0  0.13812343721E+03  0.24173773705E+02  0.48259440905E+03  0.50255329955E+03  0.00000000000E+00 0.  1.
         11    1    1    2    0    0  0.77939363696E+01 -0.29674347770E+02  0.10589607110E+03  0.11025103280E+03  0.00000000000E+00 0. -1.
</event>
<event>
 7    1  0.2840156E-009  0.1581250E+03  0.7561462E-02  0.1190830E+00
          1   -1    0    0  501    0  0.00000000000E+00  0.00000000000E+00  0.38660284923E+03  0.38660284923E+03  0.00000000000E+00 0. -1.
         -1   -1    0    0    0  501 -0.00000000000E+00 -0.00000000000E+00 -0.70447755408E+02  0.70447755408E+02  0.00000000000E+00 0.  1.
         25    2    1    2    0    0  0.37784842894E+02 -0.11751393672E+03  0.15904075967E+03  0.23702129100E+03  0.12509160434E+03 0.  0.
          5    1    3    3  502    0 -0.42257673063E+02 -0.34824672116E+02  0.25103118597E+02  0.60383008238E+02  0.41800000000E+01 0.  1.
         -5    1    3    3    0  502  0.80042515956E+02 -0.82689264606E+02  0.13393764108E+03  0.17663828277E+03  0.41800000000E+01 0.  1.
        -11    1    1    2    0    0  0.29736807773E+01  0.10279461004E+03  0.75339520059E+02  0.12748183366E+03  0.00000000000E+00 0.  1.
         11    1    1    2    0    0 -0.40758523671E+02  0.14719326684E+02  0.81774814090E+02  0.92547479973E+02  0.00000000000E+00 0. -1.
</event>
<event>
 7    1  0.2840156E-009  0.9232153E+02  0.7561462E-02  0.1297325E+00
         -1   -1    0    0    0  501 -0.00000000000E+00  0.00000000000E+00  0.68155967993E+03  0.68155967993E+03  0.00000000000E+00 0.  1.
          1   -1    0    0  501    0  0.00000000000E+00 -0.00000000000E+00 -0.19777436082E+02  0.19777436082E+02  0.00000000000E+00 0. -1.
         25    2    1    2    0    0 -0.11264747196E+02  0.24487593967E+02  0.30546365260E+03  0.33118398617E+03  0.12509297680E+03 0.  0.
          5    1    3    3  502    0 -0.25897591873E+02  0.54639965353E+02  0.67029181993E+02  0.90369213327E+02  0.41800000000E+01 0. -1.
         -5    1    3    3    0  502  0.14632844677E+02 -0.30152371386E+02  0.23843447061E+03  0.24081477284E+03  0.41800000000E+01 0. -1.
        -11    1    1    2    0    0  0.29451805211E+02 -0.50533560120E+02  0.29855587523E+03  0.30423126099E+03  0.00000000000E+00 0.  1.
         11    1    1    2    0    0 -0.18187058015E+02  0.26045966153E+02  0.57762716021E+02  0.65921868862E+02  0.00000000000E+00 0. -1.
</event>
<event>
 7    1  0.3136319E-009  0.1852967E+03  0.7561462E-02  0.1162773E+00
          1   -1    0    0  501    0  0.00000000000E+00  0.00000000000E+00  0.95634073970E+03  0.95634073970E+03  0.00000000000E+00 0. -1.
         -1   -1    0    0    0  501 -0.00000000000E+00 -0.00000000000E+00 -0.44208821038E+02  0.44208821038E+02  0.00000000000E+00 0.  1.
         25    2    1    2    0    0 -0.13642897630E+03  0.10005335504E+03  0.37288394872E+03  0.42815142611E+03  0.12509062730E+03 0.  0.
          5    1    3    3  502    0 -0.62000084540E+02  0.88040666860E+02  0.10741662454E+03  0.15215443842E+03  0.41800000000E+01 0. -1.
         -5    1    3    3    0  502 -0.74428891756E+02  0.12012688184E+02  0.26546732418E+03  0.27599698769E+03  0.41800000000E+01 0. -1.
        -11    1    1    2    0    0  0.36973000978E+02 -0.76724176897E+02  0.30866227173E+03  0.32019681465E+03  0.00000000000E+00 0. -1.
         11    1    1    2    0    0  0.99455975317E+02 -0.23329178148E+02  0.23058569821E+03  0.25220131998E+03  0.00000000000E+00 0.  1.
</event>
<event>
 7    1  0.2840156E-009  0.1005449E+03  0.7561462E-02  0.1279154E+00
         -1   -1    0    0    0  501 -0.00000000000E+00  0.00000000000E+00  0.21968880980E+03  0.21968880980E+03  0.00000000000E+00 0.  1.
          1   -1    0    0  501    0  0.00000000000E+00 -0.00000000000E+00 -0.69087647624E+02  0.69087647624E+02  0.00000000000E+00 0. -1.
         25    2    1    2    0    0 -0.29255258686E+02 -0.12481098327E+02  0.33452206860E+02  0.13333404679E+03  0.12508904794E+03 0.  0.
          5    1    3    3  502    0 -0.11485446494E+02  0.42494995883E+02  0.55843052742E+02  0.71229622320E+02  0.41800000000E+01 0. -1.
         -5    1    3    3    0  502 -0.17769812191E+02 -0.54976094211E+02 -0.22390845882E+02  0.62104424474E+02  0.41800000000E+01 0. -1.
        -11    1    1    2    0    0 -0.37426208057E+01  0.49334839067E+02  0.39207584877E+02  0.63128189172E+02  0.00000000000E+00 0. -1.
         11    1    1    2    0    0  0.32997879491E+02 -0.36853740739E+02  0.77941370435E+02  0.92314221454E+02  0.00000000000E+00 0.  1.
</event>
<event>
 7    1  0.2840156E-009  0.9714668E+02  0.7561462E-02  0.1286413E+00
          2   -1    0    0  501    0  0.00000000000E+00  0.00000000000E+00  0.53797580175E+03  0.53797580175E+03  0.00000000000E+00 0. -1.
         -2   -1    0    0    0  501 -0.00000000000E+00 -0.00000000000E+00 -0.26367563472E+02  0.26367563472E+02  0.00000000000E+00 0.  1.
         25    2    1    2    0    0 -0.30183353425E+02  0.35418217473E+02  0.29808685888E+03  0.32660140741E+03  0.12508884414E+03 0.  0.
          5    1    3    3  502    0 -0.65349914998E+02  0.21957745886E+02  0.81966677549E+02  0.10718564560E+03  0.41800000000E+01 0. -1.
         -5    1    3    3    0  502  0.35166561573E+02  0.13460471587E+02  0.21612018134E+03  0.21941576181E+03  0.41800000000E+01 0. -1.
        -11    1    1    2    0    0  0.49210867986E+01 -0.55098143607E+02  0.62944549092E+02  0.83797606079E+02  0.00000000000E+00 0.  1.
         11    1    1    2    0    0  0.25262266627E+02  0.19679926135E+02  0.15057683030E+03  0.15394435174E+03  0.00000000000E+00 0. -1.
</event>
<event>
 7    1  0.2840156E-009  0.1149863E+03  0.7561462E-02  0.1251605E+00
         -2   -1    0    0    0  501 -0.00000000000E+00  0.00000000000E+00  0.32228962906E+02  0.32228962906E+02  0.00000000000E+00 0. -1.
          2   -1    0    0  501    0  0.00000000000E+00 -0.00000000000E+00 -0.52446702602E+03  0.52446702602E+03  0.00000000000E+00 0.  1.
         25    2    1    2    0    0  0.31227232674E+02 -0.54293386976E+02 -0.19920078561E+03  0.24341554566E+03  0.12508902010E+03 0.  0.
          5    1    3    3  502    0 -0.14641220153E+02  0.35256474976E+02 -0.67056171861E+02  0.77274749691E+02  0.41800000000E+01 0.  1.
         -5    1    3    3    0  502  0.45868452827E+02 -0.89549861952E+02 -0.13214461375E+03  0.16614079597E+03  0.41800000000E+01 0.  1.
        -11    1    1    2    0    0  0.20818609680E+02  0.15634843391E+02 -0.20499555098E+02  0.33137510409E+02  0.00000000000E+00 0. -1.
         11    1    1    2    0    0 -0.52045842354E+02  0.38658543585E+02 -0.27253772240E+03  0.28014293286E+03  0.00000000000E+00 0.  1.
</event>
<event>
 7    1  0.2840156E-009  0.8875986E+02  0.7561462E-02  0.1305883E+00
          1   -1    0    0  501    0  0.00000000000E+00  0.00000000000E+00  0.19728430035E+03  0.19728430035E+03  0.00000000000E+00 0. -1.
         -1   -1    0    0    0  501 -0.00000000000E+00 -0.00000000000E+00 -0.95578755185E+02  0.95578755185E+02  0.00000000000E+00 0.  1.
         25    2    1    2    0    0  0.47195055729E+02 -0.10147002521E+02  0.12867325920E+03  0.18583404230E+03  0.12508856342E+03 0.  0.
          5    1    3    3  502    0  0.69435992479E+02 -0.24936931557E+01  0.17024509895E+02  0.71658090222E+02  0.41800000000E+01 0. -1.
         -5    1    3    3    0  502 -0.22240936750E+02 -0.76533093648E+01  0.11164874930E+03  0.11417595207E+03  0.41800000000E+01 0. -1.
        -11    1    1    2    0    0 -0.90977592509E+01 -0.28403402934E+02 -0.41322263043E+02  0.50961278875E+02  0.00000000000E+00 0.  1.
         11    1    1    2    0    0 -0.38097296478E+02  0.38550405454E+02  0.14354549017E+02  0.56067734368E+02  0.00000000000E+00 0. -1.
</event>
<event>
 7    1  0.2840156E-009  0.1109677E+03  0.7561462E-02  0.1258788E+00
          2   -1    0    0  501    0  0.00000000000E+00  0.00000000000E+00  0.31083021319E+03  0.31083021319E+03  0.00000000000E+00 0. -1.
         -2   -1    0    0    0  501 -0.00000000000E+00 -0.00000000000E+00 -0.62921710299E+02  0.62921710299E+02  0.00000000000E+00 0.  1.
         25    2    1    2    0    0 -0.79051374665E+02 -0.49066010989E+01  0.18621898125E+03  0.23790247238E+03  0.12508750063E+03 0.  0.
          5    1    3    3  502    0 -0.93207470677E+02 -0.83339684698E+01  0.61030357303E+02  0.11180010972E+03  0.41800000000E+01 0. -1.
         -5    1    3    3    0  502  0.14156096011E+02  0.34273673709E+01  0.12518862395E+03  0.12610236266E+03  0.41800000000E+01 0. -1.
        -11    1    1    2    0    0  0.94109533001E+02 -0.63285582185E+01  0.29944100544E+02  0.98961123721E+02  0.00000000000E+00 0.  1.
         11    1    1    2    0    0 -0.15058158335E+02  0.11235159317E+02  0.31745421090E+02  0.36888327388E+02  0.00000000000E+00 0. -1.
</event>
<event>
 7    1  0.2840156E-009  0.1103114E+03  0.7561462E-02  0.1259994E+00
          1   -1    0    0  501    0  0.00000000000E+00  0.00000000000E+00  0.12495566040E+03  0.12495566040E+03  0.00000000000E+00 0.  1.
         -1   -1    0    0    0  501 -0.00000000000E+00 -0.00000000000E+00 -0.11492055401E+03  0.11492055401E+03  0.00000000000E+00 0. -1.
         25    2    1    2    0    0  0.39649970443E+02 -0.23265161234E+02  0.15305210487E+02  0.13413917506E+03  0.12508269639E+03 0.  0.
          5    1    3    3  502    0 -0.42388960588E+02 -0.25102166156E+02 -0.44217723561E+01  0.49638364157E+02  0.41800000000E+01 0.  1.
         -5    1    3    3    0  502  0.82038931031E+02  0.18370049220E+01  0.19726982843E+02  0.84500810907E+02  0.41800000000E+01 0.  1.
        -11    1    1    2    0    0 -0.96614644489E+00 -0.26201569394E+02  0.24819812964E+02  0.36103722706E+02  0.00000000000E+00 0.  1.
         11    1    1    2    0    0 -0.38683823998E+02  0.49466730628E+02 -0.30089917053E+02  0.69633316640E+02  0.00000000000E+00 0. -1.
</event>
<event>
 7    1  0.2840156E-009  0.1021616E+03  0.7561462E-02  0.1275815E+00
         -2   -1    0    0    0  501 -0.00000000000E+00  0.00000000000E+00  0.36907101582E+03  0.36907101582E+03  0.00000000000E+00 0.  1.
          2   -1    0    0  501    0  0.00000000000E+00 -0.00000000000E+00 -0.61254354090E+02  0.61254354090E+02  0.00000000000E+00 0. -1.
         25    2    1    2    0    0 -0.17865523675E+02  0.43754213970E+01  0.19477991086E+02  0.12792534804E+03  0.12508869368E+03 0.  0.
          5    1    3    3  502    0 -0.44663628436E+02  0.45561929285E+02 -0.17495528072E+02  0.66289478861E+02  0.41800000000E+01 0.  1.
         -5    1    3    3    0  502  0.26798104760E+02 -0.41186507888E+02  0.36973519158E+02  0.61635869180E+02  0.41800000000E+01 0.  1.
        -11    1    1    2    0    0  0.31839509828E+02 -0.40975986547E+02  0.17017228696E+03  0.17790838403E+03  0.00000000000E+00 0.  1.
         11    1    1    2    0    0 -0.13973986153E+02  0.36600565149E+02  0.11816638368E+03  0.12449163784E+03  0.00000000000E+00 0. -1.
</event>
<event>
 7    1  0.2840156E-009  0.5555720E+02  0.7561462E-02  0.1417482E+00
          2   -1    0    0  501    0  0.00000000000E+00  0.00000000000E+00  0.23397461105E+03  0.23397461105E+03  0.00000000000E+00 0. -1.
         -2   -1    0    0    0  501 -0.00000000000E+00 -0.00000000000E+00 -0.53422286194E+02  0.53422286194E+02  0.00000000000E+00 0.  1.
         25    2    1    2    0    0  0.93798374117E+01  0.18736934684E+02  0.11855669396E+03  0.17361506258E+03  0.12508975258E+03 0.  0.
          5    1    3    3  502    0  0.12252600855E+02  0.15129924448E+02 -0.23851458736E+02  0.31070972392E+02  0.41800000000E+01 0.  1.
         -5    1    3    3    0  502 -0.28727634434E+01  0.36070102363E+01  0.14240815270E+03  0.14254409019E+03  0.41800000000E+01 0.  1.
        -11    1    1    2    0    0 -0.18732865261E+02 -0.49446303057E+02  0.11764485368E+02  0.54168812455E+02  0.00000000000E+00 0.  1.
         11    1    1    2    0    0  0.93530278496E+01  0.30709368372E+02  0.50231145522E+02  0.59613022203E+02  0.00000000000E+00 0. -1.
</event>
<event>
 7    1  0.2840156E-009  0.8434498E+02  0.7561462E-02  0.1317154E+00
         -2   -1    0    0    0  501 -0.00000000000E+00  0.00000000000E+00  0.56425635884E+02  0.56425635884E+02  0.00000000000E+00 0.  1.
          2   -1    0    0  501    0  0.00000000000E+00 -0.00000000000E+00 -0.25642669376E+03  0.25642669376E+03  0.00000000000E+00 0. -1.
         25    2    1    2    0    0 -0.21088082562E+02 -0.21635760678E+02 -0.16853146612E+03  0.21204353087E+03  0.12508713181E+03 0.  0.
          5    1    3    3  502    0 -0.30628590384E+02 -0.45149438483E+02 -0.17676493523E+03  0.18504025798E+03  0.41800000000E+01 0. -1.
         -5    1    3    3    0  502  0.95405078218E+01  0.23513677805E+02  0.82334691110E+01  0.27003272895E+02  0.41800000000E+01 0. -1.
        -11    1    1    2    0    0 -0.32193003507E+02  0.62222143767E+01  0.67158535999E+01  0.33469510247E+02  0.00000000000E+00 0.  1.
         11    1    1    2    0    0  0.53281086069E+02  0.15413546301E+02 -0.38185445352E+02  0.67339288525E+02  0.00000000000E+00 0. -1.
</event>
<event>
 7    1  0.2840156E-009  0.2180560E+03  0.7561462E-02  0.1135341E+00
         -1   -1    0    0    0  501 -0.00000000000E+00  0.00000000000E+00  0.35266946244E+03  0.35266946244E+03  0.00000000000E+00 0.  1.
          1   -1    0    0  501    0  0.00000000000E+00 -0.00000000000E+00 -0.14201822816E+03  0.14201822816E+03  0.00000000000E+00 0. -1.
         25    2    1    2    0    0 -0.13763187337E+03 -0.13870220334E+03  0.11972907617E+03  0.26107964850E+03  0.12508675950E+03 0.  0.
          5    1    3    3  502    0  0.91960513646E+01  0.10380387936E+02  0.30106357974E+02  0.33409355050E+02  0.41800000000E+01 0.  1.
         -5    1    3    3    0  502 -0.14682792473E+03 -0.14908259127E+03  0.89622718195E+02  0.22767029345E+03  0.41800000000E+01 0.  1.
        -11    1    1    2    0    0 -0.49851758048E+01  0.36608983038E+02  0.31100617572E+02  0.48294078625E+02  0.00000000000E+00 0.  1.
         11    1    1    2    0    0  0.14261704917E+03  0.10209322030E+03  0.59821540544E+02  0.18531396347E+03  0.00000000000E+00 0. -1.
</event>
<event>
 7    1  0.2840156E-009  0.1069644E+03  0.7561462E-02  0.1266297E+00
          2   -1    0    0  501    0  0.00000000000E+00  0.00000000000E+00  0.40729024580E+03  0.40729024580E+03  0.00000000000E+00 0. -1.
         -2   -1    0    0    0  501 -0.00000000000E+00 -0.00000000000E+00 -0.11937440190E+03  0.11937440190E+03  0.00000000000E+00 0.  1.
         25    2    1    2    0    0  0.15852474983E+02 -0.10317993134E+03  0.34119898414E+03  0.37809986527E+03  0.12508142206E+03 0.  0.
          5    1    3    3  502    0  0.95956583813E+01 -0.87338024211E+02  0.88450465046E+02  0.12474359422E+03  0.41800000000E+01 0. -1.
         -5    1    3    3    0  502  0.62568166021E+01 -0.15841907133E+02  0.25274851909E+03  0.25335627104E+03  0.41800000000E+01 0. -1.
        -11    1    1    2    0    0 -0.22237701948E+02  0.48250517353E+02  0.19991399920E+02  0.56765164349E+02  0.00000000000E+00 0. -1.
         11    1    1    2    0    0  0.63852269646E+01  0.54929413991E+02 -0.73274540160E+02  0.91799618085E+02  0.00000000000E+00 0.  1.
</event>
<event>
 7    1  0.2840156E-009  0.1196910E+03  0.7561462E-02  0.1243608E+00
         -3   -1    0    0    0  501 -0.00000000000E+00  0.00000000000E+00  0.12971760618E+03  0.12971760618E+03  0.00000000000E+00 0.  1.
          3   -1    0    0  501    0  0.00000000000E+00 -0.00000000000E+00 -0.35893715858E+03  0.35893715858E+03  0.00000000000E+00 0. -1.
         25    2    1    2    0    0  0.66264337343E+02  0.29835484665E+02 -0.31358289629E+03  0.34534397793E+03  0.12508841551E+03 0.  0.
          5    1    3    3  502    0  0.10952406805E+02  0.60476102597E+02 -0.24210902354E+03  0.24982306915E+03  0.41800000000E+01 0.  1.
         -5    1    3    3    0  502  0.55311930539E+02 -0.30640617933E+02 -0.71473872749E+02  0.95520908773E+02  0.41800000000E+01 0.  1.
        -11    1    1    2    0    0 -0.25684548283E+02  0.31637836042E+02  0.41139072569E+02  0.57905716313E+02  0.00000000000E+00 0.  1.
         11    1    1    2    0    0 -0.40579789060E+02 -0.61473320707E+02  0.43224271319E+02  0.85405070517E+02  0.00000000000E+00 0. -1.
</event>
<event>
 7    1  0.2840156E-009  0.1247692E+03  0.7561462E-02  0.1235430E+00
         -1   -1    0    0    0  501 -0.00000000000E+00  0.00000000000E+00  0.14567616706E+03  0.14567616706E+03  0.00000000000E+00 0.  1.
          1   -1    0    0  501    0  0.00000000000E+00 -0.00000000000E+00 -0.15873841174E+03  0.15873841174E+03  0.00000000000E+00 0. -1.
         25    2    1    2    0    0  0.41999747412E+00  0.93917694407E+02 -0.55711367326E+02  0.16605207898E+03  0.12509527074E+03 0.  0.
          5    1    3    3  502    0 -0.12256569117E+02 -0.17027435118E+02 -0.49742656701E+02  0.54147588394E+02  0.41800000000E+01 0.  1.
         -5    1    3    3    0  502  0.12676566591E+02  0.11094512953E+03 -0.59687106254E+01  0.11190449058E+03  0.41800000000E+01 0.  1.
        -11    1    1    2    0    0 -0.34241584484E+02 -0.38948393487E+02  0.51655002563E+02  0.73196330188E+02  0.00000000000E+00 0.  1.
         11    1    1    2    0    0  0.33821587010E+02 -0.54969300921E+02 -0.90058799246E+01  0.65166169634E+02  0.00000000000E+00 0. -1.
</event>
<event>
 7    1  0.2840156E-009  0.1031394E+03  0.7561462E-02  0.1273829E+00
          1   -1    0    0  501    0  0.00000000000E+00  0.00000000000E+00  0.27177662958E+03  0.27177662958E+03  0.00000000000E+00 0. -1.
         -1   -1    0    0    0  501 -0.00000000000E+00 -0.00000000000E+00 -0.44443278050E+02  0.44443278050E+02  0.00000000000E+00 0.  1.
         25    2    1    2    0    0  0.60113207635E+01 -0.79655657920E+01  0.16413696246E+03  0.20661154639E+03  0.12509117651E+03 0.  0.
          5    1    3    3  502    0  0.59896024505E+02 -0.16352647155E+02  0.49213608033E+02  0.79337219740E+02  0.41800000000E+01 0. -1.
         -5    1    3    3    0  502 -0.53884703742E+02  0.83870813630E+01  0.11492335443E+03  0.12727432665E+03  0.41800000000E+01 0. -1.
        -11    1    1    2    0    0 -0.27601089654E+02  0.41280428721E+02  0.31475324973E+02  0.58792771900E+02  0.00000000000E+00 0.  1.
         11    1    1    2    0    0  0.21589768891E+02 -0.33314862929E+02  0.31721064098E+02  0.50815589343E+02  0.00000000000E+00 0. -1.
</event>
<event>
 7    1  0.2840156E-009  0.2130642E+03  0.7561462E-02  0.1139162E+00
          1   -1    0    0  501    0  0.00000000000E+00  0.00000000000E+00  0.49349475762E+03  0.49349475762E+03  0.00000000000E+00 0. -1.
         -1   -1    0    0    0  501 -0.00000000000E+00 -0.00000000000E+00 -0.98417610740E+02  0.98417610740E+02  0.00000000000E+00 0.  1.
         25    2    1    2    0    0 -0.12351680754E+03  0.14581586932E+03  0.22397661234E+03  0.31989300782E+03  0.12508934441E+03 0.  0.
          5    1    3    3  502    0  0.15567466424E+02 -0.43916530082E+01  0.38040555071E+00  0.16710767049E+02  0.41800000000E+01 0.  1.
         -5    1    3    3    0  502 -0.13908427396E+03  0.15020752233E+03  0.22359620679E+03  0.30318224077E+03  0.41800000000E+01 0.  1.
        -11    1    1    2    0    0  0.17027419410E+02 -0.74698441242E+02  0.98598077978E+02  0.12486541201E+03  0.00000000000E+00 0. -1.
         11    1    1    2    0    0  0.10648938813E+03 -0.71117428077E+02  0.72502456555E+02  0.14715394852E+03  0.00000000000E+00 0.  1.
</event>
<event>
 7    1  0.3373308E-009  0.1312942E+03  0.7561462E-02  0.1225548E+00
         -2   -1    0    0    0  501 -0.00000000000E+00  0.00000000000E+00  0.30363299062E+02  0.30363299062E+02  0.00000000000E+00 0.  1.
          2   -1    0    0  501    0  0.00000000000E+00 -0.00000000000E+00 -0.61457725160E+03  0.61457725160E+03  0.00000000000E+00 0. -1.
         25    2    1    2    0    0 -0.68501313485E+02 -0.43905528836E+02 -0.28502359073E+03  0.32172351623E+03  0.12508976063E+03 0.  0.
          5    1    3    3  502    0 -0.67296818551E+02 -0.79614582390E+02 -0.15519600582E+03  0.18700432118E+03  0.41800000000E+01 0.  1.
         -5    1    3    3    0  502 -0.12044949337E+01  0.35709053554E+02 -0.12982758490E+03  0.13471919505E+03  0.41800000000E+01 0.  1.
        -11    1    1    2    0    0  0.30345393507E+02  0.69841318663E+02 -0.18519063124E+03  0.20023541794E+03  0.00000000000E+00 0.  1.
         11    1    1    2    0    0  0.38155919978E+02 -0.25935789827E+02 -0.11399973057E+03  0.12298161649E+03  0.00000000000E+00 0. -1.
</event>
<event>
 7    1  0.2840156E-009  0.1710105E+03  0.7561462E-02  0.1176798E+00
         -2   -1    0    0    0  501 -0.00000000000E+00  0.00000000000E+00  0.44821154988E+02  0.44821154988E+02  0.00000000000E+00 0.  1.
          2   -1    0    0  501    0  0.00000000000E+00 -0.00000000000E+00 -0.10726574070E+04  0.10726574070E+04  0.00000000000E+00 0. -1.
         25    2    1    2    0    0  0.13351742894E+03  0.18281907378E+02 -0.87899667168E+03  0.89802218022E+03  0.12509018890E+03 0.  0.
          5    1    3    3  502    0  0.66846205312E+02 -0.52646481397E+02 -0.46250833463E+03  0.47028874021E+03  0.41800000000E+01 0.  1.
         -5    1    3    3    0  502  0.66671223631E+02  0.70928388776E+02 -0.41648833706E+03  0.42773344001E+03  0.41800000000E+01 0.  1.
        -11    1    1    2    0    0 -0.23333991385E+02  0.30911311882E+02 -0.51413092206E+02  0.64368396022E+02  0.00000000000E+00 0. -1.
         11    1    1    2    0    0 -0.11018343756E+03 -0.49193219261E+02 -0.97426488097E+02  0.15508798573E+03  0.00000000000E+00 0.  1.
</event>
<event>
 7    1  0.2840156E-009  0.1121274E+03  0.7561462E-02  0.1256680E+00
         -1   -1    0    0    0  501 -0.00000000000E+00  0.00000000000E+00  0.46066397927E+03  0.46066397927E+03  0.00000000000E+00 0.  1.
          1   -1    0    0  501    0  0.00000000000E+00 -0.00000000000E+00 -0.54971579079E+02  0.54971579079E+02  0.00000000000E+00 0. -1.
         25    2    1    2    0    0  0.42237943044E+02 -0.59946321867E+02  0.35453332215E+03  0.38303867323E+03  0.12508854198E+03 0.  0.
          5    1    3    3  502    0 -0.87724527973E+00  0.36665023049E+02  0.64948724419E+02  0.74705439415E+02  0.41800000000E+01 0.  1.
         -5    1    3    3    0  502  0.43115188324E+02 -0.96611344916E+02  0.28958459773E+03  0.30833323381E+03  0.41800000000E+01 0.  1.
        -11    1    1    2    0    0 -0.32845514828E+02  0.16018921485E+02  0.73756323596E+02  0.82312993872E+02  0.00000000000E+00 0.  1.
         11    1    1    2    0    0 -0.93924282161E+01  0.43927400382E+02 -0.22597245558E+02  0.50283891246E+02  0.00000000000E+00 0. -1.
</event>
<event>
 7    1  0.2840156E-009  0.2929251E+03  0.7561462E-02  0.1088832E+00
          1   -1    0    0  501    0  0.00000000000E+00  0.00000000000E+00  0.20391385243E+04  0.20391385243E+04  0.00000000000E+00 0. -1.
         -1   -1    0    0    0  501 -0.00000000000E+00 -0.00000000000E+00 -0.48381327471E+02  0.48381327471E+02  0.00000000000E+00 0.  1.
         25    2    1    2    0    0 -0.88926252836E+02  0.26846820285E+03  0.12894245548E+04  0.13259887931E+04  0.12509013773E+03 0.  0.
          5    1    3    3  502    0  0.71335710881E+01 -0.34991487019E+01  0.16191219569E+03  0.16216091820E+03  0.41800000000E+01 0.  1.
         -5    1    3    3    0  502 -0.96059823924E+02  0.27196735155E+03  0.11275123591E+04  0.11638278749E+04  0.41800000000E+01 0.  1.
        -11    1    1    2    0    0  0.18401913858E+02 -0.14544660126E+03  0.26653783600E+03  0.30419691364E+03  0.00000000000E+00 0. -1.
         11    1    1    2    0    0  0.70524338978E+02 -0.12302160160E+03  0.43479480610E+03  0.45733414508E+03  0.00000000000E+00 0.  1.
</event>
<event>
 7    1  0.2840156E-009  0.1146245E+03  0.7561462E-02  0.1252238E+00
         -2   -1    0    0    0  501 -0.00000000000E+00  0.00000000000E+00  0.11757521100E+02  0.11757521100E+02  0.00000000000E+00 0.  1.
          2   -1    0    0  501    0  0.00000000000E+00 -0.00000000000E+00 -0.11245879923E+04  0.11245879923E+04  0.00000000000E+00 0. -1.
         25    2    1    2    0    0  0.88704838950E+01  0.29980619134E+02 -0.66681043645E+03  0.67916234049E+03  0.12509118105E+03 0.  0.
          5    1    3    3  502    0 -0.68961893479E+01 -0.48257753034E+02 -0.26575219892E+03  0.27021856300E+03  0.41800000000E+01 0. -1.
         -5    1    3    3    0  502  0.15766673243E+02  0.78238372167E+02 -0.40105823752E+03  0.40894377749E+03  0.41800000000E+01 0. -1.
        -11    1    1    2    0    0 -0.13846062859E+02  0.33748562672E+02 -0.15888765321E+03  0.16302136450E+03  0.00000000000E+00 0.  1.
         11    1    1    2    0    0  0.49755789638E+01 -0.63729181805E+02 -0.28713238154E+03  0.29416180841E+03  0.00000000000E+00 0. -1.
</event>
<event>
 7    1  0.2840156E-009  0.8160953E+02  0.7561462E-02  0.1324545E+00
         -3   -1    0    0    0  501 -0.00000000000E+00  0.00000000000E+00  0.15079259528E+03  0.15079259528E+03  0.00000000000E+00 0.  1.
          3   -1    0    0  501    0  0.00000000000E+00 -0.00000000000E+00 -0.10231282643E+03  0.10231282643E+03  0.00000000000E+00 0. -1.
         25    2    1    2    0    0  0.26721853065E+02  0.10655242575E+00  0.82071533438E+02  0.15197828392E+03  0.12509034095E+03 0.  0.
          5    1    3    3  502    0 -0.51318465257E+01 -0.38939080655E+02 -0.15222644557E+02  0.42329530571E+02  0.41800000000E+01 0. -1.
         -5    1    3    3    0  502  0.31853699591E+02  0.39045633081E+02  0.97294177995E+02  0.10964875335E+03  0.41800000000E+01 0. -1.
        -11    1    1    2    0    0 -0.38358019614E+02  0.24793221861E+02 -0.51102539953E+02  0.68538391494E+02  0.00000000000E+00 0. -1.
         11    1    1    2    0    0  0.11636166549E+02 -0.24899774287E+02  0.17510775363E+02  0.32588746299E+02  0.00000000000E+00 0.  1.
</event>
<event>
 7    1  0.2840156E-009  0.7820607E+02  0.7561462E-02  0.1334221E+00
          2   -1    0    0  501    0  0.00000000000E+00  0.00000000000E+00  0.34206532508E+02  0.34206532508E+02  0.00000000000E+00 0. -1.
         -2   -1    0    0    0  501 -0.00000000000E+00 -0.00000000000E+00 -0.51900168762E+03  0.51900168762E+03  0.00000000000E+00 0.  1.
         25    2    1    2    0    0  0.39732368857E+02 -0.24172492409E+02 -0.39485804097E+03  0.41680064983E+03  0.12508772384E+03 0.  0.
          5    1    3    3  502    0  0.15080431052E+02 -0.54292983620E+02 -0.35992764651E+03  0.36433573884E+03  0.41800000000E+01 0. -1.
         -5    1    3    3    0  502  0.24651937804E+02  0.30120491211E+02 -0.34930394457E+02  0.52464910991E+02  0.41800000000E+01 0. -1.
        -11    1    1    2    0    0 -0.24575851926E+02  0.34546192192E+02 -0.10462611412E+03  0.11288948422E+03  0.00000000000E+00 0.  1.
         11    1    1    2    0    0 -0.15156516931E+02 -0.10373699783E+02  0.14688999971E+02  0.23518086079E+02  0.00000000000E+00 0. -1.
</event>
<event>
 7    1  0.2840156E-009  0.6356015E+02  0.7561462E-02  0.1383471E+00
         -2   -1    0    0    0  501 -0.00000000000E+00  0.00000000000E+00  0.41579893759E+03  0.41579893759E+03  0.00000000000E+00 0. -1.
          2   -1    0    0  501    0  0.00000000000E+00 -0.00000000000E+00 -0.40003775082E+02  0.40003775082E+02  0.00000000000E+00 0.  1.
         25    2    1    2    0    0 -0.52056179172E+02 -0.29905933466E+02  0.14937953096E+03  0.20387959856E+03  0.12509370805E+03 0.  0.
          5    1    3    3  502    0 -0.20732225713E+02  0.13674926325E+01  0.15729854385E+03  0.15871987751E+03  0.41800000000E+01 0. -1.
         -5    1    3    3    0  502 -0.31323953459E+02 -0.31273426099E+02 -0.79190128912E+01  0.45159721051E+02  0.41800000000E+01 0. -1.
        -11    1    1    2    0    0  0.33633988121E+02  0.26297898144E+02  0.22902490580E+03  0.23297045323E+03  0.00000000000E+00 0. -1.
         11    1    1    2    0    0  0.18422191051E+02  0.36080353226E+01 -0.26092742544E+01  0.18952660873E+02  0.00000000000E+00 0.  1.
</event>
<event>
 7    1  0.2840156E-009  0.1102316E+03  0.7561462E-02  0.1260142E+00
         -1   -1    0    0    0  501 -0.00000000000E+00  0.00000000000E+00  0.29567398404E+03  0.29567398404E+03  0.00000000000E+00 0.  1.
          1   -1    0    0  501    0  0.00000000000E+00 -0.00000000000E+00 -0.70362968165E+02  0.70362968165E+02  0.00000000000E+00 0. -1.
         25    2    1    2    0    0  0.45116955120E+02  0.56198617661E+02  0.45314503836E+02  0.15130893221E+03  0.12508862634E+03 0.  0.
          5    1    3    3  502    0  0.25868498673E+02 -0.15656263317E+02  0.67071958144E+02  0.73691368382E+02  0.41800000000E+01 0.  1.
         -5    1    3    3    0  502  0.19248456446E+02  0.71854880978E+02 -0.21757454308E+02  0.77617563824E+02  0.41800000000E+01 0.  1.
        -11    1    1    2    0    0 -0.43851778397E+02  0.13375983536E+02  0.89620399522E+02  0.10066633705E+03  0.00000000000E+00 0.  1.
         11    1    1    2    0    0 -0.12651767230E+01 -0.69574601198E+02  0.90376112515E+02  0.11406168295E+03  0.00000000000E+00 0. -1.
</event>
<event>
 7    1  0.2840156E-009  0.3981372E+03  0.7561462E-02  0.1044427E+00
          2   -1    0    0  501    0  0.00000000000E+00  0.00000000000E+00  0.27095184301E+03  0.27095184301E+03  0.00000000000E+00 0. -1.
         -2   -1    0    0    0  501 -0.00000000000E+00 -0.00000000000E+00 -0.64822482190E+03  0.64822482190E+03  0.00000000000E+00 0.  1.
         25    2    1    2    0    0  0.48845764685E+02 -0.38397111567E+03 -0.61206287039E+02  0.41135594567E+03  0.12509107909E+03 0.  0.
          5    1    3    3  502    0 -0.28723215928E+02 -0.55065970907E+02  0.16884651678E+02  0.64496884789E+02  0.41800000000E+01 0.  1.
         -5    1    3    3    0  502  0.77568980613E+02 -0.32890514476E+03 -0.78090938717E+02  0.34685906088E+03  0.41800000000E+01 0.  1.
        -11    1    1    2    0    0 -0.21414109961E+00  0.29230580872E+03 -0.25146918384E+03  0.38558978473E+03  0.00000000000E+00 0.  1.
         11    1    1    2    0    0 -0.48631623585E+02  0.91665306947E+02 -0.64597508012E+02  0.12223093451E+03  0.00000000000E+00 0. -1.
</event>
<event>
 7    1  0.2840156E-009  0.7549513E+02  0.7561462E-02  0.1342345E+00
          2   -1    0    0  501    0  0.00000000000E+00  0.00000000000E+00  0.10108218977E+03  0.10108218977E+03  0.00000000000E+00 0. -1.
         -2   -1    0    0    0  501 -0.00000000000E+00 -0.00000000000E+00 -0.17718628521E+03  0.17718628521E+03  0.00000000000E+00 0.  1.
         25    2    1    2    0    0  0.88723194236E+01  0.51364537058E+02 -0.10231160668E+03  0.16980639955E+03  0.12509802056E+03 0.  0.
          5    1    3    3  502    0  0.14792515184E+02  0.28536239656E+01  0.27169301000E+02  0.31346530782E+02  0.41800000000E+01 0.  1.
         -5    1    3    3    0  502 -0.59201957605E+01  0.48510913093E+02 -0.12948090768E+03  0.13845986877E+03  0.41800000000E+01 0.  1.
        -11    1    1    2    0    0  0.26652980810E+02 -0.37739817923E+01 -0.19734932973E+02  0.33378015281E+02  0.00000000000E+00 0.  1.
         11    1    1    2    0    0 -0.35525300234E+02 -0.47590555266E+02  0.45942444214E+02  0.75084060143E+02  0.00000000000E+00 0. -1.
</event>
<event>
 7    1  0.2840156E-009  0.9959953E+02  0.7561462E-02  0.1281140E+00
          1   -1    0    0  501    0  0.00000000000E+00  0.00000000000E+00  0.19747357458E+03  0.19747357458E+03  0.00000000000E+00 0. -1.
         -1   -1    0    0    0  501 -0.00000000000E+00 -0.00000000000E+00 -0.63077201273E+02  0.63077201273E+02  0.00000000000E+00 0.  1.
         25    2    1    2    0    0 -0.73651156979E+01 -0.21488358116E+02  0.62785984334E+02  0.14179367938E+03  0.12508946086E+03 0.  0.
          5    1    3    3  502    0 -0.34117507734E+02 -0.60279307375E+02  0.64103794252E+02  0.94468873547E+02  0.41800000000E+01 0.  1.
         -5    1    3    3    0  502  0.26752392037E+02  0.38790949260E+02 -0.13178099178E+01  0.47324805833E+02  0.41800000000E+01 0.  1.
        -11    1    1    2    0    0 -0.34616985133E+02 -0.14778708289E+01  0.25562283078E+01  0.34742683619E+02  0.00000000000E+00 0.  1.
         11    1    1    2    0    0  0.41982100830E+02  0.22966228945E+02  0.69054160663E+02  0.84014412853E+02  0.00000000000E+00 0. -1.
</event>
<event>
 7    1  0.2840156E-009  0.1492128E+03  0.7561462E-02  0.1201444E+00
         -1   -1    0    0    0  501 -0.00000000000E+00  0.00000000000E+00  0.30919255193E+03  0.30919255193E+03  0.00000000000E+00 0.  1.
          1   -1    0    0  501    0  0.00000000000E+00 -0.00000000000E+00 -0.10080729657E+03  0.10080729657E+03  0.00000000000E+00 0. -1.
         25    2    1    2    0    0 -0.88416676319E+02  0.83078916218E+02  0.19092845754E+03  0.25849766948E+03  0.12509098391E+03 0.  0.
          5    1    3    3  502    0 -0.53624224949E+02 -0.57211924547E+01  0.14045740915E+03  0.15051260987E+03  0.41800000000E+01 0.  1.
         -5    1    3    3    0  502 -0.34792451370E+02  0.88800108673E+02  0.50471048391E+02  0.10798505961E+03  0.41800000000E+01 0.  1.
        -11    1    1    2    0    0  0.33219547645E+02 -0.87404662716E+02  0.18657761400E+00  0.93504803200E+02  0.00000000000E+00 0. -1.
         11    1    1    2    0    0  0.55197128674E+02  0.43257464981E+01  0.17270220200E+02  0.57997375824E+02  0.00000000000E+00 0.  1.
</event>
<event>
 7    1  0.2840156E-009  0.2476735E+03  0.7561462E-02  0.1114784E+00
          2   -1    0    0  501    0  0.00000000000E+00  0.00000000000E+00  0.14535429886E+04  0.14535429886E+04  0.00000000000E+00 0. -1.
         -2   -1    0    0    0  501 -0.00000000000E+00 -0.00000000000E+00 -0.44203430079E+02  0.44203430079E+02  0.00000000000E+00 0.  1.
         25    2    1    2    0    0 -0.19317921405E+03  0.12087135242E+03  0.74458156840E+03  0.78865547097E+03  0.12509055642E+03 0.  0.
          5    1    3    3  502    0 -0.11950458256E+03  0.13751934020E+03  0.56900789408E+03  0.59747834280E+03  0.41800000000E+01 0. -1.
         -5    1    3    3    0  502 -0.73674631487E+02 -0.16647987775E+02  0.17557367432E+03  0.19117712817E+03  0.41800000000E+01 0. -1.
        -11    1    1    2    0    0  0.12904563364E+03 -0.11536090916E+03  0.38657600286E+03  0.42355863928E+03  0.00000000000E+00 0.  1.
         11    1    1    2    0    0  0.64133580409E+02 -0.55104432577E+01  0.27818198724E+03  0.28553230841E+03  0.00000000000E+00 0. -1.
</event>
<event>
 7    1  0.2840156E-009  0.1199861E+03  0.7561462E-02  0.1243120E+00
         -2   -1    0    0    0  501 -0.00000000000E+00  0.00000000000E+00  0.23080486850E+02  0.23080486850E+02  0.00000000000E+00 0.  1.
          2   -1    0    0  501    0  0.00000000000E+00 -0.00000000000E+00 -0.96254967211E+03  0.96254967211E+03  0.00000000000E+00 0. -1.
         25    2    1    2    0    0  0.87546592721E+02 -0.58021141025E+01 -0.34019367780E+03  0.37293089710E+03  0.12509054789E+03 0.  0.
          5    1    3    3  502    0  0.38340556568E+01  0.23113052602E+02 -0.23123049759E+03  0.23245199203E+03  0.41800000000E+01 0.  1.
         -5    1    3    3    0  502  0.83712537064E+02 -0.28915166705E+02 -0.10896318020E+03  0.14047890506E+03  0.41800000000E+01 0.  1.
        -11    1    1    2    0    0  0.92462420548E+01 -0.24416699722E+02 -0.11648923738E+03  0.11937927225E+03  0.00000000000E+00 0. -1.
         11    1    1    2    0    0 -0.96792834776E+02  0.30218813825E+02 -0.48278627009E+03  0.49331998962E+03  0.00000000000E+00 0.  1.
</event>
<event>
 7    1  0.2840156E-009  0.1154341E+03  0.7561462E-02  0.1250825E+00
         -1   -1    0    0    0  501 -0.00000000000E+00  0.00000000000E+00  0.22634292540E+02  0.22634292540E+02  0.00000000000E+00 0.  1.
          1   -1    0    0  501    0  0.00000000000E+00 -0.00000000000E+00 -0.97147538098E+03  0.97147538098E+03  0.00000000000E+00 0. -1.
         25    2    1    2    0    0  0.86692871174E+02 -0.43244089201E+02 -0.61019267705E+03  0.63037163992E+03  0.12509035186E+03 0.  0.
          5    1    3    3  502    0  0.57297098389E+02 -0.38780290642E+02 -0.11502713308E+03  0.13429662011E+03  0.41800000000E+01 0.  1.
         -5    1    3    3    0  502  0.29395772785E+02 -0.44637985592E+01 -0.49516554396E+03  0.49607501981E+03  0.41800000000E+01 0.  1.
        -11    1    1    2    0    0 -0.85196225892E+02 -0.30119121558E+01 -0.24209413805E+03  0.25666522982E+03  0.00000000000E+00 0. -1.
         11    1    1    2    0    0 -0.14966452823E+01  0.46256001357E+02 -0.96554273349E+02  0.10707280379E+03  0.00000000000E+00 0.  1.
</event>
<event>
 7    1  0.2840156E-009  0.1587774E+03  0.7561462E-02  0.1190084E+00
          2   -1    0    0  501    0  0.00000000000E+00  0.00000000000E+00  0.54836295394E+02  0.54836295394E+02  0.00000000000E+00 0. -1.
         -2   -1    0    0    0  501 -0.00000000000E+00 -0.00000000000E+00 -0.68158561326E+03  0.68158561326E+03  0.00000000000E+00 0.  1.
         25    2    1    2    0    0 -0.11144678677E+03  0.10152264034E+03 -0.22765682946E+03  0.30033639434E+03  0.12508830874E+03 0.  0.
          5    1    3    3  502    0 -0.43449206505E+02  0.85222122190E+02 -0.20575515841E+03  0.22694338780E+03  0.41800000000E+01 0.  1.
         -5    1    3    3    0  502 -0.67997580264E+02  0.16300518146E+02 -0.21901671054E+02  0.73393006538E+02  0.41800000000E+01 0.  1.
        -11    1    1    2    0    0  0.73687410417E+02 -0.77827425355E+02 -0.36370788370E+03  0.37917063080E+03  0.00000000000E+00 0.  1.
         11    1    1    2    0    0  0.37759376353E+02 -0.23695214982E+02 -0.35384604696E+02  0.56914883511E+02  0.00000000000E+00 0. -1.
</event>
<event>
 7    1  0.2840156E-009  0.7062054E+02  0.7561462E-02  0.1357996E+00
          1   -1    0    0  501    0  0.00000000000E+00  0.00000000000E+00  0.27969993509E+03  0.27969993509E+03  0.00000000000E+00 0. -1.
         -1   -1    0    0    0  501 -0.00000000000E+00 -0.00000000000E+00 -0.53864777535E+02  0.53864777535E+02  0.00000000000E+00 0.  1.
         25    2    1    2    0    0  0.41659449605E+02 -0.28148563416E+02  0.17297124039E+03  0.21930131342E+03  0.12508463015E+03 0.  0.
          5    1    3    3  502    0  0.22336330514E+02  0.38913365277E+01  0.17959998977E+03  0.18107369463E+03  0.41800000000E+01 0.  1.
         -5    1    3    3    0  502  0.19323119091E+02 -0.32039899943E+02 -0.66287493828E+01  0.38227618787E+02  0.41800000000E+01 0.  1.
        -11    1    1    2    0    0 -0.29232927925E+02  0.48537211844E+02  0.44479388438E+00  0.56662358318E+02  0.00000000000E+00 0.  1.
         11    1    1    2    0    0 -0.12426521680E+02 -0.20388648428E+02  0.52419123278E+02  0.57601040885E+02  0.00000000000E+00 0. -1.
</event>
<event>
 7    1  0.2840156E-009  0.8265957E+02  0.7561462E-02  0.1321669E+00
          1   -1    0    0  501    0  0.00000000000E+00  0.00000000000E+00  0.17891759145E+03  0.17891759145E+03  0.00000000000E+00 0. -1.
         -1   -1    0    0    0  501 -0.00000000000E+00 -0.00000000000E+00 -0.67607579701E+02  0.67607579701E+02  0.00000000000E+00 0.  1.
         25    2    1    2    0    0  0.83231518940E+01  0.28411956393E+01  0.66854531220E+02  0.14210697682E+03  0.12509003663E+03 0.  0.
          5    1    3    3  502    0  0.36215558216E+02 -0.30569976381E+02  0.82858547823E+02  0.95546331485E+02  0.41800000000E+01 0. -1.
         -5    1    3    3    0  502 -0.27892406322E+02  0.33411172021E+02 -0.16004016603E+02  0.46560645331E+02  0.41800000000E+01 0. -1.
        -11    1    1    2    0    0  0.32816367480E+02 -0.18036003015E+01 -0.11622539550E+02  0.34860441394E+02  0.00000000000E+00 0.  1.
         11    1    1    2    0    0 -0.41139519374E+02 -0.10375953378E+01  0.56078020081E+02  0.69557752944E+02  0.00000000000E+00 0. -1.
</event>
<event>
 7    1  0.2840156E-009  0.1221101E+03  0.7561462E-02  0.1239656E+00
         -2   -1    0    0    0  501 -0.00000000000E+00  0.00000000000E+00  0.21425360578E+03  0.21425360578E+03  0.00000000000E+00 0.  1.
          2   -1    0    0  501    0  0.00000000000E+00 -0.00000000000E+00 -0.17948977739E+03  0.17948977739E+03  0.00000000000E+00 0. -1.
         25    2    1    2    0    0  0.10296364829E+03 -0.19159447040E+02 -0.10499360912E+03  0.19400497203E+03  0.12508266841E+03 0.  0.
          5    1    3    3  502    0  0.81851859750E+02  0.17837000290E+02 -0.36073556349E+01  0.83954576639E+02  0.41800000000E+01 0.  1.
         -5    1    3    3    0  502  0.21111788535E+02 -0.36996447331E+02 -0.10138625349E+03  0.11005039539E+03  0.41800000000E+01 0.  1.
        -11    1    1    2    0    0 -0.28371931376E+02 -0.18612447930E+02 -0.32452243493E+01  0.34086965090E+02  0.00000000000E+00 0. -1.
         11    1    1    2    0    0 -0.74591716909E+02  0.37771894970E+02  0.14300266185E+03  0.16565144605E+03  0.00000000000E+00 0.  1.
</event>
<event>
 7    1  0.2840156E-009  0.1098225E+03  0.7561462E-02  0.1260899E+00
          1   -1    0    0  501    0  0.00000000000E+00  0.00000000000E+00  0.76046258561E+02  0.76046258561E+02  0.00000000000E+00 0. -1.
         -1   -1    0    0    0  501 -0.00000000000E+00 -0.00000000000E+00 -0.29234349135E+03  0.29234349135E+03  0.00000000000E+00 0.  1.
         25    2    1    2    0    0  0.61215867072E+02 -0.27894424263E+02 -0.21468949599E+03  0.25742108370E+03  0.12509417796E+03 0.  0.
          5    1    3    3  502    0 -0.33230326926E+02  0.10560320454E+02 -0.29049057818E+02  0.45575159416E+02  0.41800000000E+01 0. -1.
         -5    1    3    3    0  502  0.94446193998E+02 -0.38454744717E+02 -0.18564043817E+03  0.21184592428E+03  0.41800000000E+01 0. -1.
        -11    1    1    2    0    0 -0.44211075755E+02  0.41539695810E+02 -0.35782645936E+02  0.70431266477E+02  0.00000000000E+00 0.  1.
         11    1    1    2    0    0 -0.17004791317E+02 -0.13645271547E+02  0.34174909131E+02  0.40537399738E+02  0.00000000000E+00 0. -1.
</event>
<event>
 7    1  0.2840156E-009  0.9737733E+02  0.7561462E-02  0.1285910E+00
         -1   -1    0    0    0  501 -0.00000000000E+00  0.00000000000E+00  0.10469514259E+03  0.10469514259E+03  0.00000000000E+00 0.  1.
          1   -1    0    0  501    0  0.00000000000E+00 -0.00000000000E+00 -0.96845109524E+02  0.96845109524E+02  0.00000000000E+00 0. -1.
         25    2    1    2    0    0 -0.21545992253E+01  0.27060032500E+02  0.14028110477E+02  0.12876694004E+03  0.12508896556E+03 0.  0.
          5    1    3    3  502    0 -0.48483285144E+02 -0.25590904761E+02 -0.70137237106E+01  0.55427322370E+02  0.41800000000E+01 0. -1.
         -5    1    3    3    0  502  0.46328685918E+02  0.52650937260E+02  0.21041834188E+02  0.73339617665E+02  0.41800000000E+01 0. -1.
        -11    1    1    2    0    0 -0.27119327275E+02  0.33269697491E+01 -0.12609537770E+02  0.30091977042E+02  0.00000000000E+00 0.  1.
         11    1    1    2    0    0  0.29273926500E+02 -0.30387002249E+02  0.64314603615E+01  0.42681335040E+02  0.00000000000E+00 0. -1.
</event>
<event>
 7    1  0.2840156E-009  0.1071793E+03  0.7561462E-02  0.1265884E+00
         -2   -1    0    0    0  501 -0.00000000000E+00  0.00000000000E+00  0.30905261040E+02  0.30905261040E+02  0.00000000000E+00 0.  1.
          2   -1    0    0  501    0  0.00000000000E+00 -0.00000000000E+00 -0.60863637554E+03  0.60863637554E+03  0.00000000000E+00 0. -1.
         25    2    1    2    0    0  0.43766177618E+02  0.28905827734E+02 -0.46484899255E+03  0.48423384816E+03  0.12508720417E+03 0.  0.
          5    1    3    3  502    0 -0.45474171746E+00 -0.39039480836E+02 -0.62747551035E+02  0.74020371621E+02  0.41800000000E+01 0. -1.
         -5    1    3    3    0  502  0.44220919335E+02  0.67945308570E+02 -0.40210144151E+03  0.41021347654E+03  0.41800000000E+01 0. -1.
        -11    1    1    2    0    0  0.12021992659E+02 -0.35744144618E+02 -0.11565707444E+02  0.39445377050E+02  0.00000000000E+00 0.  1.
         11    1    1    2    0    0 -0.55788170277E+02  0.68383168841E+01 -0.10131641450E+03  0.11586241137E+03  0.00000000000E+00 0. -1.
</event>
<event>
 7    1  0.2840156E-009  0.8457974E+02  0.7561462E-02  0.1316535E+00
          1   -1    0    0  501    0  0.00000000000E+00  0.00000000000E+00  0.33308828254E+03  0.33308828254E+03  0.00000000000E+00 0. -1.
         -1   -1    0    0    0  501 -0.00000000000E+00 -0.00000000000E+00 -0.43202211438E+02  0.43202211438E+02  0.00000000000E+00 0.  1.
         25    2    1    2    0    0 -0.33318961830E+02  0.23491368031E+02  0.18418403815E+03  0.22634608845E+03  0.12508714666E+03 0.  0.
          5    1    3    3  502    0  0.78607343240E+01  0.63572236985E+02  0.53644425782E+02  0.83656543539E+02  0.41800000000E+01 0. -1.
         -5    1    3    3    0  502 -0.41179696154E+02 -0.40080868954E+02  0.13053961236E+03  0.14268954491E+03  0.41800000000E+01 0. -1.
        -11    1    1    2    0    0  0.21323941843E+02 -0.39861792102E+00 -0.15253745760E+02  0.26221101267E+02  0.00000000000E+00 0.  1.
         11    1    1    2    0    0  0.11995019988E+02 -0.23092750110E+02  0.12095577871E+03  0.12372330425E+03  0.00000000000E+00 0. -1.
</event>
<event>
 7    1  0.2840156E-009  0.1020546E+03  0.7561462E-02  0.1276034E+00
         -3   -1    0    0    0  501 -0.00000000000E+00  0.00000000000E+00  0.64017001087E+02  0.64017001087E+02  0.00000000000E+00 0.  1.
          3   -1    0    0  501    0  0.00000000000E+00 -0.00000000000E+00 -0.21528910715E+03  0.21528910715E+03  0.00000000000E+00 0. -1.
         25    2    1    2    0    0 -0.31159338793E+02  0.15889143042E+02 -0.52732483183E+02  0.14018189751E+03  0.12508749076E+03 0.  0.
          5    1    3    3  502    0  0.46357093256E+02 -0.12425962922E+01 -0.36214101371E+02  0.58986928034E+02  0.41800000000E+01 0.  1.
         -5    1    3    3    0  502 -0.77516432050E+02  0.17131739335E+02 -0.16518381812E+02  0.81194969475E+02  0.41800000000E+01 0.  1.
        -11    1    1    2    0    0  0.48152617949E+02 -0.29332048673E+02 -0.10260725613E+03  0.11707814785E+03  0.00000000000E+00 0. -1.
         11    1    1    2    0    0 -0.16993279156E+02  0.13442905631E+02  0.40676332446E+01  0.22046062879E+02  0.00000000000E+00 0.  1.
</event>
<event>
 7    1  0.2840156E-009  0.9695009E+02  0.7561462E-02  0.1286843E+00
          2   -1    0    0  501    0  0.00000000000E+00  0.00000000000E+00  0.10005213489E+04  0.10005213489E+04  0.00000000000E+00 0.  1.
         -2   -1    0    0    0  501 -0.00000000000E+00 -0.00000000000E+00 -0.20057400593E+02  0.20057400593E+02  0.00000000000E+00 0. -1.
         25    2    1    2    0    0 -0.72757355278E+02  0.39736725365E+02  0.67615562598E+03  0.69260837416E+03  0.12508912551E+03 0.  0.
          5    1    3    3  502    0 -0.38163512447E+02  0.31067029746E+02  0.71562405324E+02  0.86949780191E+02  0.41800000000E+01 0. -1.
         -5    1    3    3    0  502 -0.34593842831E+02  0.86696956190E+01  0.60459322066E+03  0.60565859397E+03  0.41800000000E+01 0. -1.
        -11    1    1    2    0    0  0.85392305517E+02 -0.24552988322E+02  0.29071999140E+03  0.30399475074E+03  0.00000000000E+00 0.  1.
         11    1    1    2    0    0 -0.12634950240E+02 -0.15183737043E+02  0.13588330967E+02  0.23975624635E+02  0.00000000000E+00 0. -1.
</event>
<event>
 7    1  0.2840156E-009  0.1834594E+03  0.7561462E-02  0.1164496E+00
          1   -1    0    0  501    0  0.00000000000E+00  0.00000000000E+00  0.11815670131E+03  0.11815670131E+03  0.00000000000E+00 0. -1.
         -1   -1    0    0    0  501 -0.00000000000E+00 -0.00000000000E+00 -0.29531170030E+03  0.29531170030E+03  0.00000000000E+00 0.  1.
         25    2    1    2    0    0  0.78199490586E+02 -0.12808706032E+03 -0.68741985889E+02  0.20710553948E+03  0.12508312641E+03 0.  0.
          5    1    3    3  502    0  0.70684295425E+02 -0.79740328493E+01 -0.65018173335E+01  0.71551386068E+02  0.41800000000E+01 0. -1.
         -5    1    3    3    0  502  0.75151951614E+01 -0.12011302747E+03 -0.62240168555E+02  0.13555415341E+03  0.41800000000E+01 0. -1.
        -11    1    1    2    0    0 -0.33759474734E+02 -0.57276154317E+01 -0.26471168103E+02  0.43280832404E+02  0.00000000000E+00 0.  1.
         11    1    1    2    0    0 -0.44440015853E+02  0.13381467575E+03 -0.81941845003E+02  0.16308202972E+03  0.00000000000E+00 0. -1.
</event>
<event>
 7    1  0.2840156E-009  0.9830590E+02  0.7561462E-02  0.1283899E+00
          1   -1    0    0  501    0  0.00000000000E+00  0.00000000000E+00  0.38776411243E+02  0.38776411243E+02  0.00000000000E+00 0. -1.
         -1   -1    0    0    0  501 -0.00000000000E+00 -0.00000000000E+00 -0.49357908563E+03  0.49357908563E+03  0.00000000000E+00 0.  1.
         25    2    1    2    0    0 -0.28833557535E+02  0.68084112473E+02 -0.16785289491E+03  0.22201191707E+03  0.12509147285E+03 0.  0.
          5    1    3    3  502    0 -0.44396807431E+02  0.29260406297E+02 -0.17170734620E+03  0.17980025869E+03  0.41800000000E+01 0.  1.
         -5    1    3    3    0  502  0.15563249896E+02  0.38823706176E+02  0.38544512871E+01  0.42211658381E+02  0.41800000000E+01 0.  1.
        -11    1    1    2    0    0  0.49247012840E+02 -0.63429818013E+02 -0.27445406205E+03  0.28596091038E+03  0.00000000000E+00 0.  1.
         11    1    1    2    0    0 -0.20413455305E+02 -0.46542944597E+01 -0.12495717429E+02  0.24382669428E+02  0.00000000000E+00 0. -1.
</event>
<event>
 7    1  0.2840156E-009  0.1908164E+03  0.7561462E-02  0.1157727E+00
          2   -1    0    0  501    0  0.00000000000E+00  0.00000000000E+00  0.23037771247E+03  0.23037771247E+03  0.00000000000E+00 0. -1.
         -2   -1    0    0    0  501 -0.00000000000E+00 -0.00000000000E+00 -0.20097396062E+03  0.20097396062E+03  0.00000000000E+00 0.  1.
         25    2    1    2    0    0  0.79883392299E+02  0.15990063994E+03  0.64285201136E+02  0.22743737918E+03  0.12508238623E+03 0.  0.
          5    1    3    3  502    0  0.64877851817E+01 -0.86492938916E+01  0.40373652155E+02  0.42004831029E+02  0.41800000000E+01 0.  1.
         -5    1    3    3    0  502  0.73395607118E+02  0.16854993383E+03  0.23911548981E+02  0.18543254815E+03  0.41800000000E+01 0.  1.
        -11    1    1    2    0    0 -0.13167281776E+02 -0.84321694195E+02 -0.54430562965E+02  0.10122357238E+03  0.00000000000E+00 0.  1.
         11    1    1    2    0    0 -0.66716110523E+02 -0.75578945743E+02  0.19549113682E+02  0.10269072153E+03  0.00000000000E+00 0. -1.
</event>
<event>
 7    1  0.2840156E-009  0.1729454E+03  0.7561462E-02  0.1174811E+00
          2   -1    0    0  501    0  0.00000000000E+00  0.00000000000E+00  0.56422530377E+03  0.56422530377E+03  0.00000000000E+00 0. -1.
         -2   -1    0    0    0  501 -0.00000000000E+00 -0.00000000000E+00 -0.82205089417E+02  0.82205089417E+02  0.00000000000E+00 0.  1.
         25    2    1    2    0    0 -0.16972417518E+03 -0.14577485481E+02  0.13921750732E+03  0.25307643291E+03  0.12508943931E+03 0.  0.
          5    1    3    3  502    0 -0.90183837605E+02 -0.14089882028E+02  0.14695920860E+03  0.17304950371E+03  0.41800000000E+01 0. -1.
         -5    1    3    3    0  502 -0.79540337573E+02 -0.48760345237E+00 -0.77417012819E+01  0.80026929199E+02  0.41800000000E+01 0. -1.
        -11    1    1    2    0    0  0.11120463621E+03 -0.94498865849E+01  0.29073961225E+03  0.31142461946E+03  0.00000000000E+00 0.  1.
         11    1    1    2    0    0  0.58519538967E+02  0.24027372065E+02  0.52063094774E+02  0.81929340817E+02  0.00000000000E+00 0. -1.
</event>
<event>
 7    1  0.2840156E-009  0.8832664E+02  0.7561462E-02  0.1306955E+00
          1   -1    0    0  501    0  0.00000000000E+00  0.00000000000E+00  0.14203345506E+04  0.14203345506E+04  0.00000000000E+00 0. -1.
         -1   -1    0    0    0  501 -0.00000000000E+00 -0.00000000000E+00 -0.10622550134E+02  0.10622550134E+02  0.00000000000E+00 0.  1.
         25    2    1    2    0    0 -0.86937025878E+01 -0.56435426397E+02  0.99550921292E+03  0.10049613388E+04  0.12509261231E+03 0.  0.
          5    1    3    3  502    0 -0.28380576454E+02 -0.12529353210E+02  0.86872551331E+03  0.86928932565E+03  0.41800000000E+01 0.  1.
         -5    1    3    3    0  502  0.19686873867E+02 -0.43906073187E+02  0.12678369961E+03  0.13567201315E+03  0.41800000000E+01 0.  1.
        -11    1    1    2    0    0 -0.32547481240E+02  0.81541334311E+01  0.19151329506E+03  0.19443037471E+03  0.00000000000E+00 0.  1.
         11    1    1    2    0    0  0.41241183828E+02  0.48281292966E+02  0.22268949247E+03  0.23156538721E+03  0.00000000000E+00 0. -1.
</event>
<event>
 7    1  0.2840156E-009  0.7763223E+02  0.7561462E-02  0.1335908E+00
          2   -1    0    0  501    0  0.00000000000E+00  0.00000000000E+00  0.11659005578E+04  0.11659005578E+04  0.00000000000E+00 0. -1.
         -2   -1    0    0    0  501 -0.00000000000E+00 -0.00000000000E+00 -0.13279939990E+02  0.13279939990E+02  0.00000000000E+00 0.  1.
         25    2    1    2    0    0 -0.55538822647E+02  0.17636327162E+02  0.76425266301E+03  0.77661025760E+03  0.12508300616E+03 0.  0.
          5    1    3    3  502    0 -0.31113117189E+02  0.20391015454E+02  0.74272908638E+03  0.74367182798E+03  0.41800000000E+01 0.  1.
         -5    1    3    3    0  502 -0.24425705458E+02 -0.27546882919E+01  0.21523576624E+02  0.32938429614E+02  0.41800000000E+01 0.  1.
        -11    1    1    2    0    0  0.26316432354E+02  0.28178464092E+02  0.73017207031E+02  0.82571744399E+02  0.00000000000E+00 0.  1.
         11    1    1    2    0    0  0.29222390293E+02 -0.45814791254E+02  0.31535074779E+03  0.31999849582E+03  0.00000000000E+00 0. -1.
</event>
<event>
 7    1  0.2840156E-009  0.8740730E+02  0.7561462E-02  0.1309255E+00
         -1   -1    0    0    0  501 -0.00000000000E+00  0.00000000000E+00  0.22285965604E+03  0.22285965604E+03  0.00000000000E+00 0.  1.
          1   -1    0    0  501    0  0.00000000000E+00 -0.00000000000E+00 -0.56519460016E+02  0.56519460016E+02  0.00000000000E+00 0. -1.
         25    2    1    2    0    0 -0.56324114703E+01  0.20148785444E+02  0.12594757896E+03  0.17873888833E+03  0.12508836852E+03 0.  0.
          5    1    3    3  502    0  0.30269401091E+02  0.62589197546E+02  0.56497752862E+02  0.89683402981E+02  0.41800000000E+01 0.  1.
         -5    1    3    3    0  502 -0.35901812562E+02 -0.42440412102E+02  0.69449826100E+02  0.89055485345E+02  0.41800000000E+01 0.  1.
        -11    1    1    2    0    0  0.90421163863E+01  0.13142911895E+02  0.59842813383E+02  0.61932691815E+02  0.00000000000E+00 0.  1.
         11    1    1    2    0    0 -0.34097049159E+01 -0.33291697339E+02 -0.19450196324E+02  0.38707535912E+02  0.00000000000E+00 0. -1.
</event>
<event>
 7    1  0.2840156E-009  0.1148936E+03  0.7561462E-02  0.1251767E+00
          1   -1    0    0  501    0  0.00000000000E+00  0.00000000000E+00  0.34458251047E+02  0.34458251047E+02  0.00000000000E+00 0. -1.
         -1   -1    0    0    0  501 -0.00000000000E+00 -0.00000000000E+00 -0.42628110288E+03  0.42628110288E+03  0.00000000000E+00 0.  1.
         25    2    1    2    0    0 -0.29621205542E+02 -0.30963103207E+02 -0.15687710824E+03  0.20516811824E+03  0.12508956821E+03 0.  0.
          5    1    3    3  502    0  0.25586649198E+02 -0.60993261515E+02 -0.10194170975E+03  0.12159127910E+03  0.41800000000E+01 0. -1.
         -5    1    3    3    0  502 -0.55207854740E+02  0.30030158307E+02 -0.54935398494E+02  0.83576839140E+02  0.41800000000E+01 0. -1.
        -11    1    1    2    0    0 -0.24018400865E+02  0.39483212624E+02 -0.10372617849E+03  0.11355583544E+03  0.00000000000E+00 0.  1.
         11    1    1    2    0    0  0.53639606407E+02 -0.85201094172E+01 -0.13121956511E+03  0.14201540024E+03  0.00000000000E+00 0. -1.
</event>
<event>
 7    1  0.2840156E-009  0.1224352E+03  0.7561462E-02  0.1239133E+00
         -2   -1    0    0    0  501 -0.00000000000E+00  0.00000000000E+00  0.52506235049E+02  0.52506235049E+02  0.00000000000E+00 0.  1.
          2   -1    0    0  501    0  0.00000000000E+00 -0.00000000000E+00 -0.31499598770E+03  0.31499598770E+03  0.00000000000E+00 0. -1.
         25    2    1    2    0    0  0.24181000428E+02 -0.57893998195E+02 -0.10359392621E+03  0.17411393216E+03  0.12509006362E+03 0.  0.
          5    1    3    3  502    0  0.72464189982E+02 -0.42083252502E+02 -0.86096398149E+02  0.12021697528E+03  0.41800000000E+01 0. -1.
         -5    1    3    3    0  502 -0.48283189554E+02 -0.15810745692E+02 -0.17497528060E+02  0.53896956881E+02  0.41800000000E+01 0. -1.
        -11    1    1    2    0    0 -0.41454702623E+02 -0.76971270358E+01 -0.54770557135E+02  0.69119838419E+02  0.00000000000E+00 0.  1.
         11    1    1    2    0    0  0.17273702195E+02  0.65591125230E+02 -0.10412526931E+03  0.12426845217E+03  0.00000000000E+00 0. -1.
</event>
<event>
 7    1  0.2840156E-009  0.8146183E+02  0.7561462E-02  0.1324953E+00
          2   -1    0    0  501    0  0.00000000000E+00  0.00000000000E+00  0.50252873825E+03  0.50252873825E+03  0.00000000000E+00 0. -1.
         -2   -1    0    0    0  501 -0.00000000000E+00 -0.00000000000E+00 -0.37037864815E+02  0.37037864815E+02  0.00000000000E+00 0.  1.
         25    2    1    2    0    0 -0.20989520542E+02  0.54324725806E+02  0.14032160812E+03  0.19679641545E+03  0.12508772771E+03 0.  0.
          5    1    3    3  502    0 -0.19229960609E+02  0.67508138030E+02  0.16546347264E+02  0.72238453008E+02  0.41800000000E+01 0. -1.
         -5    1    3    3    0  502 -0.17595599331E+01 -0.13183412224E+02  0.12377526086E+03  0.12455796245E+03  0.41800000000E+01 0. -1.
        -11    1    1    2    0    0  0.55323091066E+01 -0.61411148100E+02  0.31864716848E+03  0.32455808962E+03  0.00000000000E+00 0. -1.
         11    1    1    2    0    0  0.15457211436E+02  0.70864222940E+01  0.65220968400E+01  0.18212097998E+02  0.00000000000E+00 0.  1.
</event>
<event>
 7    1  0.2840156E-009  0.8891773E+02  0.7561462E-02  0.1305494E+00
         -3   -1    0    0    0  501 -0.00000000000E+00  0.00000000000E+00  0.10724969103E+03  0.10724969103E+03  0.00000000000E+00 0.  1.
          3   -1    0    0  501    0  0.00000000000E+00 -0.00000000000E+00 -0.21553998776E+03  0.21553998776E+03  0.00000000000E+00 0. -1.
         25    2    1    2    0    0 -0.43836586601E+02 -0.33251065246E+02  0.38195304463E+02  0.14190786301E+03  0.12510667702E+03 0.  0.
          5    1    3    3  502    0 -0.31625355893E+02  0.60680559119E+01  0.77999394142E+02  0.84488829584E+02  0.41800000000E+01 0. -1.
         -5    1    3    3    0  502 -0.12211230708E+02 -0.39319121158E+02 -0.39804089680E+02  0.57419033423E+02  0.41800000000E+01 0. -1.
        -11    1    1    2    0    0  0.34101606643E+02 -0.26658077474E+02 -0.79271145854E+02  0.90318808867E+02  0.00000000000E+00 0.  1.
         11    1    1    2    0    0  0.97349799579E+01  0.59909142720E+02 -0.67214455331E+02  0.90563006915E+02  0.00000000000E+00 0. -1.
</event>
<event>
 7    1  0.2840156E-009  0.1082066E+03  0.7561462E-02  0.1263927E+00
         -2   -1    0    0    0  501 -0.00000000000E+00  0.00000000000E+00  0.10307147863E+03  0.10307147863E+03  0.00000000000E+00 0.  1.
          2   -1    0    0  501    0  0.00000000000E+00 -0.00000000000E+00 -0.19583737438E+03  0.19583737438E+03  0.00000000000E+00 0. -1.
         25    2    1    2    0    0 -0.70857474174E+02  0.58497759242E+02 -0.42069138129E+02  0.16081027250E+03  0.12508941553E+03 0.  0.
          5    1    3    3  502    0 -0.26806479946E+02  0.73009717198E+02  0.22617506875E+02  0.81105056498E+02  0.41800000000E+01 0. -1.
         -5    1    3    3    0  502 -0.44050994229E+02 -0.14511957956E+02 -0.64686645003E+02  0.79705216003E+02  0.41800000000E+01 0. -1.
        -11    1    1    2    0    0  0.41997531511E+02 -0.36995698042E+02 -0.75796633938E+02  0.94221038219E+02  0.00000000000E+00 0. -1.
         11    1    1    2    0    0  0.28859942663E+02 -0.21502061200E+02  0.25099876312E+02  0.43877542288E+02  0.00000000000E+00 0.  1.
</event>
<event>
 7    1  0.2840156E-009  0.8982914E+02  0.7561462E-02  0.1303266E+00
         -2   -1    0    0    0  501 -0.00000000000E+00  0.00000000000E+00  0.79858362672E+02  0.79858362672E+02  0.00000000000E+00 0.  1.
          2   -1    0    0  501    0  0.00000000000E+00 -0.00000000000E+00 -0.17643442188E+03  0.17643442188E+03  0.00000000000E+00 0. -1.
         25    2    1    2    0    0  0.20589404421E+02  0.43506408415E+02 -0.70354285984E+02  0.15137360527E+03  0.12509001427E+03 0.  0.
          5    1    3    3  502    0 -0.87123621625E-01 -0.19226178526E+02  0.27149234587E+02  0.33529194292E+02  0.41800000000E+01 0.  1.
         -5    1    3    3    0  502  0.20676528043E+02  0.62732586940E+02 -0.97503520571E+02  0.11784441098E+03  0.41800000000E+01 0.  1.
        -11    1    1    2    0    0  0.40967918729E+01  0.22737826084E+02 -0.25240296793E+02  0.34217904975E+02  0.00000000000E+00 0. -1.
         11    1    1    2    0    0 -0.24686196294E+02 -0.66244234498E+02 -0.98147642842E+00  0.70701274300E+02  0.00000000000E+00 0.  1.
</event>
<event>
 7    1  0.2840156E-009  0.6475534E+02  0.7561462E-02  0.1378894E+00
         -2   -1    0    0    0  501 -0.00000000000E+00  0.00000000000E+00  0.14479876379E+03  0.14479876379E+03  0.00000000000E+00 0.  1.
          2   -1    0    0  501    0  0.00000000000E+00 -0.00000000000E+00 -0.84244743877E+02  0.84244743877E+02  0.00000000000E+00 0. -1.
         25    2    1    2    0    0 -0.19140923577E+02 -0.50476892941E+01  0.21075391472E+02  0.12839265751E+03  0.12509455725E+03 0.  0.
          5    1    3    3  502    0 -0.29695396392E+02  0.18987018397E+00 -0.48870613646E+02  0.57338136486E+02  0.41800000000E+01 0.  1.
         -5    1    3    3    0  502  0.10554472815E+02 -0.52375594780E+01  0.69946005117E+02  0.71054521021E+02  0.41800000000E+01 0.  1.
        -11    1    1    2    0    0  0.49887787374E+02  0.18832844359E+02  0.40467074654E+02  0.66940656456E+02  0.00000000000E+00 0. -1.
         11    1    1    2    0    0 -0.30746863797E+02 -0.13785155065E+02 -0.98844621478E+00  0.33710193702E+02  0.00000000000E+00 0.  1.
</event>
<event>
 7    1  0.2840156E-009  0.1120378E+03  0.7561462E-02  0.1256842E+00
         -2   -1    0    0    0  501 -0.00000000000E+00  0.00000000000E+00  0.15506955373E+02  0.15506955373E+02  0.00000000000E+00 0.  1.
          2   -1    0    0  501    0  0.00000000000E+00 -0.00000000000E+00 -0.20558454370E+04  0.20558454370E+04  0.00000000000E+00 0. -1.
         25    2    1    2    0    0  0.65622915271E+01  0.29904818572E+02 -0.18786138153E+04  0.18830239972E+04  0.12510853314E+03 0.  0.
          5    1    3    3  502    0  0.58238408182E+02  0.45592550647E+02 -0.99774672788E+03  0.10004930776E+04  0.41800000000E+01 0.  1.
         -5    1    3    3    0  502 -0.51676116655E+02 -0.15687732074E+02 -0.88086708743E+03  0.88253091962E+03  0.41800000000E+01 0.  1.
        -11    1    1    2    0    0  0.41685220541E+02 -0.64456458496E+01 -0.60294337580E+02  0.73584041111E+02  0.00000000000E+00 0.  1.
         11    1    1    2    0    0 -0.48247512068E+02 -0.23459172723E+02 -0.10143032878E+03  0.11474435412E+03  0.00000000000E+00 0. -1.
</event>
<event>
 7    1  0.2840156E-009  0.1003166E+03  0.7561462E-02  0.1279632E+00
          1   -1    0    0  501    0  0.00000000000E+00  0.00000000000E+00  0.20751459052E+03  0.20751459052E+03  0.00000000000E+00 0. -1.
         -1   -1    0    0    0  501 -0.00000000000E+00 -0.00000000000E+00 -0.72758557320E+02  0.72758557320E+02  0.00000000000E+00 0.  1.
         25    2    1    2    0    0  0.15876556983E+02  0.58045714427E+02  0.81621770135E+02  0.16103131707E+03  0.12509037410E+03 0.  0.
          5    1    3    3  502    0 -0.25730574888E+02  0.85066739576E+02  0.50166247650E+02  0.10213979376E+03  0.41800000000E+01 0. -1.
         -5    1    3    3    0  502  0.41607131871E+02 -0.27021025148E+02  0.31455522486E+02  0.58891523307E+02  0.41800000000E+01 0. -1.
        -11    1    1    2    0    0 -0.16301128920E+02 -0.32818973627E+02 -0.20091789472E+02  0.41791049738E+02  0.00000000000E+00 0.  1.
         11    1    1    2    0    0  0.42457193743E+00 -0.25226740801E+02  0.73226052539E+02  0.77450781037E+02  0.00000000000E+00 0. -1.
</event>
<event>
 7    1  0.2840156E-009  0.1011334E+03  0.7561462E-02  0.1277930E+00
         -2   -1    0    0    0  501 -0.00000000000E+00  0.00000000000E+00  0.29984288536E+02  0.29984288536E+02  0.00000000000E+00 0.  1.
          2   -1    0    0  501    0  0.00000000000E+00 -0.00000000000E+00 -0.56516983989E+03  0.56516983989E+03  0.00000000000E+00 0. -1.
         25    2    1    2    0    0 -0.57860726293E+02 -0.40693605002E+02 -0.28593799429E+03  0.32001629025E+03  0.12508419689E+03 0.  0.
          5    1    3    3  502    0 -0.22351316673E+02  0.17727488289E+02 -0.30951102392E+01  0.28998229350E+02  0.41800000000E+01 0. -1.
         -5    1    3    3    0  502 -0.35509409619E+02 -0.58421093291E+02 -0.28284288405E+03  0.29101806090E+03  0.41800000000E+01 0. -1.
        -11    1    1    2    0    0  0.74633591693E+02  0.18092351313E+02 -0.11716412738E+03  0.14008903929E+03  0.00000000000E+00 0.  1.
         11    1    1    2    0    0 -0.16772865401E+02  0.22601253688E+02 -0.13208342970E+03  0.13504879889E+03  0.00000000000E+00 0. -1.
</event>
<event>
 7    1  0.2840156E-009  0.7586619E+02  0.7561462E-02  0.1341210E+00
          1   -1    0    0  501    0  0.00000000000E+00  0.00000000000E+00  0.16065331743E+03  0.16065331743E+03  0.00000000000E+00 0. -1.
         -1   -1    0    0    0  501 -0.00000000000E+00 -0.00000000000E+00 -0.80806047265E+02  0.80806047265E+02  0.00000000000E+00 0.  1.
         25    2    1    2    0    0  0.18431649000E+02 -0.14312657555E+02  0.71965547568E+02  0.14618712661E+03  0.12508820127E+03 0.  0.
          5    1    3    3  502    0 -0.20460688870E+02 -0.17787649274E+02 -0.27748295210E+02  0.39018976701E+02  0.41800000000E+01 0.  1.
         -5    1    3    3    0  502  0.38892337870E+02  0.34749917190E+01  0.99713842778E+02  0.10716814990E+03  0.41800000000E+01 0.  1.
        -11    1    1    2    0    0  0.89065406548E+01 -0.30920271537E+02  0.23858454816E+02  0.40057652510E+02  0.00000000000E+00 0. -1.
         11    1    1    2    0    0 -0.27338189654E+02  0.45232929092E+02 -0.15976732223E+02  0.55214585576E+02  0.00000000000E+00 0.  1.
</event>
<event>
 7    1  0.2840156E-009  0.1416475E+03  0.7561462E-02  0.1211129E+00
          2   -1    0    0  501    0  0.00000000000E+00  0.00000000000E+00  0.60908877635E+03  0.60908877635E+03  0.00000000000E+00 0.  1.
         -2   -1    0    0    0  501 -0.00000000000E+00 -0.00000000000E+00 -0.41737170771E+02  0.41737170771E+02  0.00000000000E+00 0. -1.
         25    2    1    2    0    0  0.99775657820E+02 -0.46097547746E+02  0.37761988802E+03  0.41270309842E+03  0.12508757657E+03 0.  0.
          5    1    3    3  502    0 -0.13364462127E+02 -0.48301789110E+02  0.82701933417E+02  0.96792323404E+02  0.41800000000E+01 0. -1.
         -5    1    3    3    0  502  0.11314011995E+03  0.22042413639E+01  0.29491795461E+03  0.31591077502E+03  0.41800000000E+01 0. -1.
        -11    1    1    2    0    0 -0.14610648058E+02  0.29611192392E+02  0.12660176442E+03  0.13083692333E+03  0.00000000000E+00 0.  1.
         11    1    1    2    0    0 -0.85165009762E+02  0.16486355354E+02  0.63129953138E+02  0.10728592538E+03  0.00000000000E+00 0. -1.
</event>
<event>
 7    1  0.2840156E-009  0.1351589E+03  0.7561462E-02  0.1219996E+00
          1   -1    0    0  501    0  0.00000000000E+00  0.00000000000E+00  0.31418974512E+03  0.31418974512E+03  0.00000000000E+00 0. -1.
         -1   -1    0    0    0  501 -0.00000000000E+00 -0.00000000000E+00 -0.83845366525E+02  0.83845366525E+02  0.00000000000E+00 0.  1.
         25    2    1    2    0    0 -0.92432735090E+02 -0.87071869608E+01  0.21653662770E+03  0.26675024279E+03  0.12509178737E+03 0.  0.
          5    1    3    3  502    0 -0.79489383618E+01 -0.50444375119E+02  0.12594567321E+03  0.13596913475E+03  0.41800000000E+01 0.  1.
         -5    1    3    3    0  502 -0.84483796728E+02  0.41737188158E+02  0.90590954489E+02  0.13078110804E+03  0.41800000000E+01 0.  1.
        -11    1    1    2    0    0  0.38227098236E+02 -0.37484596323E+02  0.25181036797E+02  0.59164944141E+02  0.00000000000E+00 0. -1.
         11    1    1    2    0    0  0.54205636853E+02  0.46191783283E+02 -0.11373285903E+02  0.72119924721E+02  0.00000000000E+00 0.  1.
</event>
<event>
 7    1  0.2840156E-009  0.1386038E+03  0.7561462E-02  0.1215220E+00
          2   -1    0    0  501    0  0.00000000000E+00  0.00000000000E+00  0.80477472145E+03  0.80477472145E+03  0.00000000000E+00 0. -1.
         -2   -1    0    0    0  501 -0.00000000000E+00 -0.00000000000E+00 -0.30742262225E+02  0.30742262225E+02  0.00000000000E+00 0.  1.
         25    2    1    2    0    0 -0.81441053272E+02 -0.48567113126E+02  0.58574452648E+03  0.60641216398E+03  0.12509057792E+03 0.  0.
          5    1    3    3  502    0 -0.69764558256E+01 -0.76270537856E+02  0.25887247070E+03  0.26999684140E+03  0.41800000000E+01 0.  1.
         -5    1    3    3    0  502 -0.74464597446E+02  0.27703424730E+02  0.32687205578E+03  0.33641532258E+03  0.41800000000E+01 0.  1.
        -11    1    1    2    0    0  0.76311518820E+02  0.67160235279E+02  0.11577592945E+03  0.15407144754E+03  0.00000000000E+00 0.  1.
         11    1    1    2    0    0  0.51295344514E+01 -0.18593122153E+02  0.72512003298E+02  0.75033372158E+02  0.00000000000E+00 0. -1.
</event>
<event>
 7    1  0.2840156E-009  0.1037589E+03  0.7561462E-02  0.1272584E+00
         -2   -1    0    0    0  501 -0.00000000000E+00  0.00000000000E+00  0.29488616284E+02  0.29488616284E+02  0.00000000000E+00 0. -1.
          2   -1    0    0  501    0  0.00000000000E+00 -0.00000000000E+00 -0.11456687413E+04  0.11456687413E+04  0.00000000000E+00 0.  1.
         25    2    1    2    0    0 -0.82185153518E+02  0.27980395954E+02 -0.95947514740E+03  0.97148203565E+03  0.12508990810E+03 0.  0.
          5    1    3    3  502    0 -0.15003324657E+02  0.28517200915E+02 -0.50709102080E+02  0.60226372401E+02  0.41800000000E+01 0. -1.
         -5    1    3    3    0  502 -0.67181828861E+02 -0.53680496081E+00 -0.90876604532E+03  0.91125566325E+03  0.41800000000E+01 0. -1.
        -11    1    1    2    0    0  0.37754839081E+02 -0.46221939868E+02 -0.27270216309E+02  0.65616768412E+02  0.00000000000E+00 0. -1.
         11    1    1    2    0    0  0.44430314436E+02  0.18241543914E+02 -0.12943476134E+03  0.13805855355E+03  0.00000000000E+00 0.  1.
</event>
<event>
 7    1  0.2840156E-009  0.1338139E+03  0.7561462E-02  0.1221904E+00
         -2   -1    0    0    0  501 -0.00000000000E+00  0.00000000000E+00  0.37975201626E+02  0.37975201626E+02  0.00000000000E+00 0.  1.
          2   -1    0    0  501    0  0.00000000000E+00 -0.00000000000E+00 -0.50723762836E+03  0.50723762836E+03  0.00000000000E+00 0. -1.
         25    2    1    2    0    0 -0.21863236046E+02  0.77980965156E+02 -0.31549593193E+03  0.34891797322E+03  0.12508811674E+03 0.  0.
          5    1    3    3  502    0  0.30596387420E+01 -0.32252660876E+02 -0.10501184344E+03  0.10997524806E+03  0.41800000000E+01 0. -1.
         -5    1    3    3    0  502 -0.24922874788E+02  0.11023362603E+03 -0.21048408849E+03  0.23894272516E+03  0.41800000000E+01 0. -1.
        -11    1    1    2    0    0 -0.99487104591E+00 -0.93968745687E+02 -0.12250619367E+03  0.15439845343E+03  0.00000000000E+00 0.  1.
         11    1    1    2    0    0  0.22858107092E+02  0.15987780530E+02 -0.31260301127E+02  0.41896403338E+02  0.00000000000E+00 0. -1.
</event>
<event>
 7    1  0.2840156E-009  0.1416823E+03  0.7561462E-02  0.1211083E+00
          4   -1    0    0  501    0  0.00000000000E+00  0.00000000000E+00  0.40786347666E+02  0.40786347666E+02  0.00000000000E+00 0. -1.
         -4   -1    0    0    0  501 -0.00000000000E+00 -0.00000000000E+00 -0.63275580567E+03  0.63275580567E+03  0.00000000000E+00 0.  1.
         25    2    1    2    0    0 -0.68336099448E+02 -0.88980966109E+02 -0.39238365912E+03  0.42684901322E+03  0.12509080431E+03 0.  0.
          5    1    3    3  502    0  0.56851924360E+01 -0.85061366835E+02 -0.27514466275E+03  0.28807952961E+03  0.41800000000E+01 0.  1.
         -5    1    3    3    0  502 -0.74021291884E+02 -0.39195992738E+01 -0.11723899637E+03  0.13876948361E+03  0.41800000000E+01 0.  1.
        -11    1    1    2    0    0 -0.20218036374E+01  0.35076104041E+02 -0.86433350821E+01  0.36181873997E+02  0.00000000000E+00 0. -1.
         11    1    1    2    0    0  0.70357903086E+02  0.53904862068E+02 -0.19094246380E+03  0.21051126612E+03  0.00000000000E+00 0.  1.
</event>
<event>
 7    1  0.3005080E-009  0.7653417E+02  0.7561462E-02  0.1339185E+00
          1   -1    0    0  501    0  0.00000000000E+00  0.00000000000E+00  0.24516535810E+03  0.24516535810E+03  0.00000000000E+00 0. -1.
         -1   -1    0    0    0  501 -0.00000000000E+00 -0.00000000000E+00 -0.58772866265E+02  0.58772866265E+02  0.00000000000E+00 0.  1.
         25    2    1    2    0    0  0.42663266010E+01 -0.84446503209E+01  0.16912325462E+03  0.21057506422E+03  0.12509863610E+03 0.  0.
          5    1    3    3  502    0  0.24891219583E+02 -0.57439746615E+02  0.50575896500E+02  0.80587164055E+02  0.41800000000E+01 0. -1.
         -5    1    3    3    0  502 -0.20624892982E+02  0.48995096294E+02  0.11854735812E+03  0.12998790016E+03  0.41800000000E+01 0. -1.
        -11    1    1    2    0    0  0.15878759854E+02  0.40039394870E+01 -0.34197499182E+02  0.37916164049E+02  0.00000000000E+00 0.  1.
         11    1    1    2    0    0 -0.20145086455E+02  0.44407108339E+01  0.51466736393E+02  0.55446996095E+02  0.00000000000E+00 0. -1.
</event>
<event>
 7    1  0.2840156E-009  0.1377695E+03  0.7561462E-02  0.1216362E+00
          2   -1    0    0  501    0  0.00000000000E+00  0.00000000000E+00  0.35505223957E+03  0.35505223957E+03  0.00000000000E+00 0.  1.
         -2   -1    0    0    0  501 -0.00000000000E+00 -0.00000000000E+00 -0.69886591547E+02  0.69886591547E+02  0.00000000000E+00 0. -1.
         25    2    1    2    0    0 -0.50636969264E+02  0.10196709130E+03  0.12903964287E+03  0.21274369697E+03  0.12508901153E+03 0.  0.
          5    1    3    3  502    0 -0.31007754496E+02  0.12304257495E+03  0.13241604635E+03  0.18344600792E+03  0.41800000000E+01 0.  1.
         -5    1    3    3    0  502 -0.19629214768E+02 -0.21075483649E+02 -0.33764034856E+01  0.29297689055E+02  0.41800000000E+01 0.  1.
        -11    1    1    2    0    0  0.13558923546E+02 -0.67520391255E+02  0.14478599320E+03  0.16033038224E+03  0.00000000000E+00 0.  1.
         11    1    1    2    0    0  0.37078045718E+02 -0.34446700048E+02  0.11340011954E+02  0.51864751900E+02  0.00000000000E+00 0. -1.
</event>
<event>
 7    1  0.2840156E-009  0.2216422E+03  0.7561462E-02  0.1132665E+00
         -2   -1    0    0    0  501 -0.00000000000E+00  0.00000000000E+00  0.24915268738E+02  0.24915268738E+02  0.00000000000E+00 0.  1.
          2   -1    0    0  501    0  0.00000000000E+00 -0.00000000000E+00 -0.24186615318E+04  0.24186615318E+04  0.00000000000E+00 0. -1.
         25    2    1    2    0    0  0.14917293997E+03  0.13785296587E+03 -0.16547723939E+04  0.16718771494E+04  0.12508205594E+03 0.  0.
          5    1    3    3  502    0  0.48103179751E+01 -0.21993636436E+02 -0.13925812471E+03  0.14112815772E+03  0.41800000000E+01 0. -1.
         -5    1    3    3    0  502  0.14436262200E+03  0.15984660230E+03 -0.15155142692E+04  0.15307489917E+04  0.41800000000E+01 0. -1.
        -11    1    1    2    0    0 -0.25556656929E+02 -0.39233978815E+02 -0.69490593138E+02  0.83793736889E+02  0.00000000000E+00 0.  1.
         11    1    1    2    0    0 -0.12361628304E+03 -0.98618987053E+02 -0.66948327600E+03  0.68790591426E+03  0.00000000000E+00 0. -1.
</event>
<event>
 7    1  0.2840156E-009  0.9148696E+02  0.7561462E-02  0.1299290E+00
         -1   -1    0    0    0  501 -0.00000000000E+00  0.00000000000E+00  0.91691269451E+02  0.91691269451E+02  0.00000000000E+00 0.  1.
          1   -1    0    0  501    0  0.00000000000E+00 -0.00000000000E+00 -0.42369308581E+03  0.42369308581E+03  0.00000000000E+00 0. -1.
         25    2    1    2    0    0  0.25760349338E+02  0.46581827375E+02 -0.37767739748E+03  0.40139613987E+03  0.12508070311E+03 0.  0.
          5    1    3    3  502    0 -0.45828770179E+02  0.19992293501E+02 -0.22629295819E+03  0.23178857457E+03  0.41800000000E+01 0.  1.
         -5    1    3    3    0  502  0.71589119517E+02  0.26589533874E+02 -0.15138443929E+03  0.16960756529E+03  0.41800000000E+01 0.  1.
        -11    1    1    2    0    0 -0.21234968872E+02 -0.19401813187E+02 -0.25013568804E+02  0.38118668422E+02  0.00000000000E+00 0. -1.
         11    1    1    2    0    0 -0.45253804659E+01 -0.27180014188E+02  0.70689149930E+02  0.75869546970E+02  0.00000000000E+00 0.  1.
</event>
<event>
 7    1  0.2840156E-009  0.1835740E+03  0.7561462E-02  0.1164388E+00
         -2   -1    0    0    0  501 -0.00000000000E+00  0.00000000000E+00  0.12309092914E+04  0.12309092914E+04  0.00000000000E+00 0.  1.
          2   -1    0    0  501    0  0.00000000000E+00 -0.00000000000E+00 -0.28030980774E+02  0.28030980774E+02  0.00000000000E+00 0. -1.
         25    2    1    2    0    0  0.95599248804E+02  0.11561263888E+03  0.59832883430E+03  0.62940465791E+03  0.12508929134E+03 0.  0.
          5    1    3    3  502    0 -0.13226668514E+02  0.74278378642E+02  0.29368094900E+03  0.30324609560E+03  0.41800000000E+01 0. -1.
         -5    1    3    3    0  502  0.10882591732E+03  0.41334260237E+02  0.30464788530E+03  0.32615856231E+03  0.41800000000E+01 0. -1.
        -11    1    1    2    0    0 -0.17475442284E+02  0.14917061208E+02  0.96679110394E+02  0.99371827923E+02  0.00000000000E+00 0. -1.
         11    1    1    2    0    0 -0.78123806520E+02 -0.13052970009E+03  0.50787036589E+03  0.53016378629E+03  0.00000000000E+00 0.  1.
</event>
<event>
 7    1  0.2840156E-009  0.9454762E+02  0.7561462E-02  0.1292198E+00
          2   -1    0    0  501    0  0.00000000000E+00  0.00000000000E+00  0.28936527669E+03  0.28936527669E+03  0.00000000000E+00 0. -1.
         -2   -1    0    0    0  501 -0.00000000000E+00 -0.00000000000E+00 -0.51959350270E+02  0.51959350270E+02  0.00000000000E+00 0.  1.
         25    2    1    2    0    0 -0.45846872093E+02  0.19428373374E+02  0.10964871383E+03  0.17363624978E+03  0.12508920585E+03 0.  0.
          5    1    3    3  502    0  0.30113374872E+02 -0.28090260983E+02  0.54150157032E+02  0.68158565235E+02  0.41800000000E+01 0.  1.
         -5    1    3    3    0  502 -0.75960246966E+02  0.47518634357E+02  0.55498556800E+02  0.10547768455E+03  0.41800000000E+01 0.  1.
        -11    1    1    2    0    0  0.15096806417E+02  0.77472454595E+01 -0.12805102648E+02  0.21258034482E+02  0.00000000000E+00 0.  1.
         11    1    1    2    0    0  0.30750065676E+02 -0.27175618833E+02  0.14056231523E+03  0.14643034269E+03  0.00000000000E+00 0. -1.
</event>
<event>
 7    1  0.2840156E-009  0.9128511E+02  0.7561462E-02  0.1299769E+00
          2   -1    0    0  501    0  0.00000000000E+00  0.00000000000E+00  0.14515187201E+03  0.14515187201E+03  0.00000000000E+00 0. -1.
         -2   -1    0    0    0  501 -0.00000000000E+00 -0.00000000000E+00 -0.84087826022E+02  0.84087826022E+02  0.00000000000E+00 0.  1.
         25    2    1    2    0    0 -0.22530535385E+02 -0.15097822074E+01  0.30756629340E+02  0.13078898056E+03  0.12509949129E+03 0.  0.
          5    1    3    3  502    0  0.40438915649E+02 -0.19121765671E+02  0.45164066669E+02  0.63704106142E+02  0.41800000000E+01 0.  1.
         -5    1    3    3    0  502 -0.62969451034E+02  0.17611983463E+02 -0.14407437329E+02  0.67084874416E+02  0.41800000000E+01 0.  1.
        -11    1    1    2    0    0 -0.30759230873E+01 -0.30768683202E+02 -0.17346143401E+02  0.35455068181E+02  0.00000000000E+00 0.  1.
         11    1    1    2    0    0  0.25606458472E+02  0.32278465409E+02  0.47653560052E+02  0.62995649297E+02  0.00000000000E+00 0. -1.
</event>
<event>
 7    1  0.2840156E-009  0.1130765E+03  0.7561462E-02  0.1254976E+00
          2   -1    0    0  501    0  0.00000000000E+00  0.00000000000E+00  0.41210020439E+03  0.41210020439E+03  0.00000000000E+00 0.  1.
         -2   -1    0    0    0  501 -0.00000000000E+00 -0.00000000000E+00 -0.58659445475E+02  0.58659445475E+02  0.00000000000E+00 0. -1.
         25    2    1    2    0    0  0.50113143006E+02  0.98948058386E+02  0.20040367065E+03  0.26098173667E+03  0.12509112800E+03 0.  0.
          5    1    3    3  502    0  0.14540797470E+02  0.52885723540E+02  0.29490819630E+01  0.55086332514E+02  0.41800000000E+01 0. -1.
         -5    1    3    3    0  502  0.35572345536E+02  0.46062334847E+02  0.19745458868E+03  0.20589540415E+03  0.41800000000E+01 0. -1.
        -11    1    1    2    0    0 -0.32181003448E+02 -0.82139070317E+02  0.16129958703E+03  0.18384776482E+03  0.00000000000E+00 0.  1.
         11    1    1    2    0    0 -0.17932139557E+02 -0.16808988070E+02 -0.82624987596E+01  0.25930148376E+02  0.00000000000E+00 0. -1.
</event>
<event>
 7    1  0.2840156E-009  0.2761520E+03  0.7561462E-02  0.1097809E+00
         -1   -1    0    0    0  501 -0.00000000000E+00  0.00000000000E+00  0.59586237692E+02  0.59586237692E+02  0.00000000000E+00 0.  1.
          1   -1    0    0  501    0  0.00000000000E+00 -0.00000000000E+00 -0.13093656347E+04  0.13093656347E+04  0.00000000000E+00 0. -1.
         25    2    1    2    0    0  0.21601017400E+03  0.13972542365E+03 -0.63114953996E+03  0.69295020162E+03  0.12508657340E+03 0.  0.
          5    1    3    3  502    0  0.23072116685E+03  0.13695572916E+03 -0.61230182215E+03  0.66852084664E+03  0.41800000000E+01 0.  1.
         -5    1    3    3    0  502 -0.14710992846E+02  0.27696944866E+01 -0.18847717808E+02  0.24429354978E+02  0.41800000000E+01 0.  1.
        -11    1    1    2    0    0 -0.12842195613E+03 -0.37459702687E+02 -0.24983367657E+03  0.28339423793E+03  0.00000000000E+00 0.  1.
         11    1    1    2    0    0 -0.87588217870E+02 -0.10226572096E+03 -0.36879618047E+03  0.39260743284E+03  0.00000000000E+00 0. -1.
</event>
<event>
 7    1  0.2840156E-009  0.1145448E+03  0.7561462E-02  0.1252378E+00
         -2   -1    0    0    0  501 -0.00000000000E+00  0.00000000000E+00  0.38007913467E+02  0.38007913467E+02  0.00000000000E+00 0.  1.
          2   -1    0    0  501    0  0.00000000000E+00 -0.00000000000E+00 -0.40850020972E+03  0.40850020972E+03  0.00000000000E+00 0. -1.
         25    2    1    2    0    0  0.11108426754E+02  0.58494515465E+02 -0.23174987863E+03  0.26999819673E+03  0.12508402980E+03 0.  0.
          5    1    3    3  502    0 -0.50591989187E+01  0.88211600295E+02 -0.98192887501E+02  0.13215974227E+03  0.41800000000E+01 0.  1.
         -5    1    3    3    0  502  0.16167625672E+02 -0.29717084830E+02 -0.13355699112E+03  0.13783845446E+03  0.41800000000E+01 0.  1.
        -11    1    1    2    0    0 -0.50077813659E+02 -0.33533131623E+02 -0.59173552187E+02  0.84461633987E+02  0.00000000000E+00 0.  1.
         11    1    1    2    0    0  0.38969386905E+02 -0.24961383842E+02 -0.79568865444E+02  0.92048292473E+02  0.00000000000E+00 0. -1.
</event>
<event>
 7    1  0.2840156E-009  0.1178832E+03  0.7561462E-02  0.1246631E+00
         -3   -1    0    0    0  501 -0.00000000000E+00  0.00000000000E+00  0.10829292962E+03  0.10829292962E+03  0.00000000000E+00 0.  1.
          3   -1    0    0  501    0  0.00000000000E+00 -0.00000000000E+00 -0.17899257180E+03  0.17899257180E+03  0.00000000000E+00 0. -1.
         25    2    1    2    0    0  0.62770913704E+02  0.17576117621E+02  0.12761317721E+02  0.14163170063E+03  0.12509028689E+03 0.  0.
          5    1    3    3  502    0  0.66195196776E+02 -0.36601964557E+02  0.34197368158E+02  0.83117027585E+02  0.41800000000E+01 0. -1.
         -5    1    3    3    0  502 -0.34242830719E+01  0.54178082178E+02 -0.21436050438E+02  0.58514673044E+02  0.41800000000E+01 0. -1.
        -11    1    1    2    0    0 -0.14576820399E+02  0.32771558025E+02  0.13334411418E+01  0.35892015458E+02  0.00000000000E+00 0.  1.
         11    1    1    2    0    0 -0.48194093305E+02 -0.50347675647E+02 -0.84794401044E+02  0.10976178534E+03  0.00000000000E+00 0. -1.
</event>
<event>
 7    1  0.2840156E-009  0.2156160E+03  0.7561462E-02  0.1137194E+00
          2   -1    0    0  501    0  0.00000000000E+00  0.00000000000E+00  0.10472240112E+04  0.10472240112E+04  0.00000000000E+00 0. -1.
         -2   -1    0    0    0  501 -0.00000000000E+00 -0.00000000000E+00 -0.56378008537E+02  0.56378008537E+02  0.00000000000E+00 0.  1.
         25    2    1    2    0    0 -0.33603419192E+02 -0.20754463094E+03  0.63536975576E+03  0.68084250151E+03  0.12509125354E+03 0.  0.
          5    1    3    3  502    0  0.48460509592E+01 -0.58672371510E+02  0.55845858246E+02  0.81253699434E+02  0.41800000000E+01 0. -1.
         -5    1    3    3    0  502 -0.38449470152E+02 -0.14887225943E+03  0.57952389751E+03  0.59958880207E+03  0.41800000000E+01 0. -1.
        -11    1    1    2    0    0  0.47458378663E+02  0.10899934491E+03  0.25496162503E+03  0.28131581032E+03  0.00000000000E+00 0. -1.
         11    1    1    2    0    0 -0.13854959471E+02  0.98545286028E+02  0.10051462190E+03  0.14144370794E+03  0.00000000000E+00 0.  1.
</event>
<event>
 7    1  0.2840156E-009  0.1117421E+03  0.7561462E-02  0.1257377E+00
         -1   -1    0    0    0  501 -0.00000000000E+00  0.00000000000E+00  0.11089502170E+03  0.11089502170E+03  0.00000000000E+00 0.  1.
          1   -1    0    0  501    0  0.00000000000E+00 -0.00000000000E+00 -0.19803030302E+03  0.19803030302E+03  0.00000000000E+00 0. -1.
         25    2    1    2    0    0 -0.78124968313E+02  0.53513202777E+02 -0.87147967280E+02  0.17946906422E+03  0.12508878153E+03 0.  0.
          5    1    3    3  502    0 -0.75927958317E+02  0.32029912688E+01 -0.10156786271E+03  0.12692051506E+03  0.41800000000E+01 0.  1.
         -5    1    3    3    0  502 -0.21970099966E+01  0.50310211509E+02  0.14419895427E+02  0.52548549163E+02  0.41800000000E+01 0.  1.
        -11    1    1    2    0    0  0.46499961132E+02 -0.19571273696E+02  0.42940131520E+02  0.66250554974E+02  0.00000000000E+00 0.  1.
         11    1    1    2    0    0  0.31625007181E+02 -0.33941929081E+02 -0.42927445565E+02  0.63205705531E+02  0.00000000000E+00 0. -1.
</event>
<event>
 7    1  0.2840156E-009  0.2556933E+03  0.7561462E-02  0.1109759E+00
         -1   -1    0    0    0  501 -0.00000000000E+00  0.00000000000E+00  0.39091204332E+02  0.39091204332E+02  0.00000000000E+00 0.  1.
          1   -1    0    0  501    0  0.00000000000E+00 -0.00000000000E+00 -0.17865384262E+04  0.17865384262E+04  0.00000000000E+00 0. -1.
         25    2    1    2    0    0  0.21277447280E+03  0.10205276936E+03 -0.10627851930E+04  0.10958314501E+04  0.12508579704E+03 0.  0.
          5    1    3    3  502    0  0.77315461899E+02  0.10545406456E+03 -0.48259401716E+03  0.50001269802E+03  0.41800000000E+01 0. -1.
         -5    1    3    3    0  502  0.13545901090E+03 -0.34012952016E+01 -0.58019117580E+03  0.59581875207E+03  0.41800000000E+01 0. -1.
        -11    1    1    2    0    0 -0.10650215430E+03 -0.14869156334E+02 -0.39166921239E+03  0.40616323395E+03  0.00000000000E+00 0. -1.
         11    1    1    2    0    0 -0.10627231850E+03 -0.87183613028E+02 -0.29299281657E+03  0.32363494654E+03  0.00000000000E+00 0.  1.
</event>
<event>
 7    1  0.2840156E-009  0.1190805E+03  0.7561462E-02  0.1244622E+00
         -1   -1    0    0    0  501 -0.00000000000E+00  0.00000000000E+00  0.12627385105E+03  0.12627385105E+03  0.00000000000E+00 0.  1.
          1   -1    0    0  501    0  0.00000000000E+00 -0.00000000000E+00 -0.13863217418E+03  0.13863217418E+03  0.00000000000E+00 0. -1.
         25    2    1    2    0    0  0.45517898635E+02  0.56694308484E+02 -0.13281193071E+02  0.14529229926E+03  0.12508932178E+03 0.  0.
          5    1    3    3  502    0  0.45192185018E+02  0.85673781031E+02  0.22025997012E+02  0.99423072208E+02  0.41800000000E+01 0. -1.
         -5    1    3    3    0  502  0.32571361694E+00 -0.28979472547E+02 -0.35307190083E+02  0.45869227049E+02  0.41800000000E+01 0. -1.
        -11    1    1    2    0    0 -0.44434615635E+02  0.97355347274E+01 -0.20377137894E+02  0.49844191755E+02  0.00000000000E+00 0. -1.
         11    1    1    2    0    0 -0.10832830002E+01 -0.66429843211E+02  0.21300007832E+02  0.69769534216E+02  0.00000000000E+00 0.  1.
</event>
<event>
 7    1  0.2840156E-009  0.1986718E+03  0.7561462E-02  0.1150864E+00
         -2   -1    0    0    0  501 -0.00000000000E+00  0.00000000000E+00  0.10291217270E+03  0.10291217270E+03  0.00000000000E+00 0.  1.
          2   -1    0    0  501    0  0.00000000000E+00 -0.00000000000E+00 -0.45587275770E+03  0.45587275770E+03  0.00000000000E+00 0. -1.
         25    2    1    2    0    0 -0.15111708747E+03  0.83641860358E+02 -0.27570701652E+03  0.34856126857E+03  0.12509302163E+03 0.  0.
          5    1    3    3  502    0 -0.79483983597E+02 -0.22591872582E+02 -0.83702960164E+02  0.11769347601E+03  0.41800000000E+01 0.  1.
         -5    1    3    3    0  502 -0.71633103871E+02  0.10623373294E+03 -0.19200405636E+03  0.23086779256E+03  0.41800000000E+01 0.  1.
        -11    1    1    2    0    0  0.46070931961E+02 -0.65078081437E+02 -0.64953913221E+02  0.10284307608E+03  0.00000000000E+00 0. -1.
         11    1    1    2    0    0  0.10504615551E+03 -0.18563778921E+02 -0.12299655258E+02  0.10738058574E+03  0.00000000000E+00 0.  1.
</event>
<event>
 7    1  0.3059670E-009  0.1642945E+03  0.7561462E-02  0.1183932E+00
          2   -1    0    0  501    0  0.00000000000E+00  0.00000000000E+00  0.83947374293E+03  0.83947374293E+03  0.00000000000E+00 0. -1.
         -2   -1    0    0    0  501 -0.00000000000E+00 -0.00000000000E+00 -0.34081052332E+02  0.34081052332E+02  0.00000000000E+00 0.  1.
         25    2    1    2    0    0 -0.98667808225E+02 -0.74349521401E+02  0.52190503016E+03  0.55072305725E+03  0.12509131691E+03 0.  0.
          5    1    3    3  502    0  0.11955141919E+02 -0.63168399976E+02  0.18148603995E+03  0.19258200142E+03  0.41800000000E+01 0.  1.
         -5    1    3    3    0  502 -0.11062295014E+03 -0.11181121425E+02  0.34041899021E+03  0.35814105582E+03  0.41800000000E+01 0.  1.
        -11    1    1    2    0    0  0.43876567337E+01  0.56836375020E+02  0.84321131075E+02  0.10178250440E+03  0.00000000000E+00 0.  1.
         11    1    1    2    0    0  0.94280151491E+02  0.17513146381E+02  0.19916652937E+03  0.22104923361E+03  0.00000000000E+00 0. -1.
</event>
<event>
 7    1  0.2840156E-009  0.1088835E+03  0.7561462E-02  0.1262651E+00
          2   -1    0    0  501    0  0.00000000000E+00  0.00000000000E+00  0.50628374379E+03  0.50628374379E+03  0.00000000000E+00 0. -1.
         -2   -1    0    0    0  501 -0.00000000000E+00 -0.00000000000E+00 -0.31327261919E+02  0.31327261919E+02  0.00000000000E+00 0.  1.
         25    2    1    2    0    0 -0.15561499254E+02  0.15213640788E+02  0.39677158355E+03  0.41659270358E+03  0.12509266980E+03 0.  0.
          5    1    3    3  502    0 -0.54494318210E+02 -0.33717310502E+02  0.19322959007E+03  0.20362130199E+03  0.41800000000E+01 0. -1.
         -5    1    3    3    0  502  0.38932818956E+02  0.48930951290E+02  0.20354199348E+03  0.21297140160E+03  0.41800000000E+01 0. -1.
        -11    1    1    2    0    0  0.83966919890E+01 -0.52369875127E+02  0.34735310262E+02  0.63400710061E+02  0.00000000000E+00 0.  1.
         11    1    1    2    0    0  0.71648072651E+01  0.37156234339E+02  0.43449588063E+02  0.57617592072E+02  0.00000000000E+00 0. -1.
</event>
<event>
 7    1  0.2840156E-009  0.1401415E+03  0.7561462E-02  0.1213139E+00
          1   -1    0    0  501    0  0.00000000000E+00  0.00000000000E+00  0.96770526852E+02  0.96770526852E+02  0.00000000000E+00 0. -1.
         -1   -1    0    0    0  501 -0.00000000000E+00 -0.00000000000E+00 -0.23425565294E+03  0.23425565294E+03  0.00000000000E+00 0.  1.
         25    2    1    2    0    0 -0.45128092508E+02  0.86738302866E+02 -0.13469941846E+03  0.20821066680E+03  0.12509064921E+03 0.  0.
          5    1    3    3  502    0 -0.81431433782E+02  0.90002897307E+02 -0.95294398439E+02  0.15436999289E+03  0.41800000000E+01 0. -1.
         -5    1    3    3    0  502  0.36303341274E+02 -0.32645944410E+01 -0.39405020020E+02  0.53840673912E+02  0.41800000000E+01 0. -1.
        -11    1    1    2    0    0 -0.19356162081E+02 -0.32773613083E+02  0.49112264334E+01  0.38378260384E+02  0.00000000000E+00 0. -1.
         11    1    1    2    0    0  0.64484254589E+02 -0.53964689783E+02 -0.76969340621E+01  0.84437252604E+02  0.00000000000E+00 0.  1.
</event>
<event>
 7    1  0.2840156E-009  0.1343021E+03  0.7561462E-02  0.1221208E+00
         -1   -1    0    0    0  501 -0.00000000000E+00  0.00000000000E+00  0.16094918799E+03  0.16094918799E+03  0.00000000000E+00 0.  1.
          1   -1    0    0  501    0  0.00000000000E+00 -0.00000000000E+00 -0.14425756362E+03  0.14425756362E+03  0.00000000000E+00 0. -1.
         25    2    1    2    0    0 -0.84500127407E+02 -0.52651748359E+02  0.50391159945E+02  0.16762929418E+03  0.12509129918E+03 0.  0.
          5    1    3    3  502    0 -0.10145698106E+03  0.29598707171E+01  0.32174603961E+02  0.10655964236E+03  0.41800000000E+01 0. -1.
         -5    1    3    3    0  502  0.16956853650E+02 -0.55611619076E+02  0.18216555984E+02  0.61069651824E+02  0.41800000000E+01 0. -1.
        -11    1    1    2    0    0  0.59621056228E+02  0.58112793784E+02  0.13113319181E+02  0.84283606277E+02  0.00000000000E+00 0.  1.
         11    1    1    2    0    0  0.24879071180E+02 -0.54610454248E+01 -0.46812854757E+02  0.53293851150E+02  0.00000000000E+00 0. -1.
</event>
<event>
 7    1  0.2840156E-009  0.9274093E+02  0.7561462E-02  0.1296347E+00
          1   -1    0    0  501    0  0.00000000000E+00  0.00000000000E+00  0.10863905429E+04  0.10863905429E+04  0.00000000000E+00 0. -1.
         -1   -1    0    0    0  501 -0.00000000000E+00 -0.00000000000E+00 -0.18354332959E+02  0.18354332959E+02  0.00000000000E+00 0.  1.
         25    2    1    2    0    0 -0.12854679590E+02 -0.42847627902E+02  0.89855675907E+03  0.90832448617E+03  0.12509180990E+03 0.  0.
          5    1    3    3  502    0 -0.36725880889E+02  0.64694286786E+00  0.76329506339E+03  0.76418978994E+03  0.41800000000E+01 0. -1.
         -5    1    3    3    0  502  0.23871201299E+02 -0.43494570770E+02  0.13526169569E+03  0.14413469623E+03  0.41800000000E+01 0. -1.
        -11    1    1    2    0    0  0.45840547012E+02  0.15474413446E+01  0.89226738053E+02  0.10032527652E+03  0.00000000000E+00 0.  1.
         11    1    1    2    0    0 -0.32985867422E+02  0.41300186557E+02  0.80252712794E+02  0.96095113143E+02  0.00000000000E+00 0. -1.
</event>
<event>
 7    1  0.2840156E-009  0.7036661E+02  0.7561462E-02  0.1358851E+00
          2   -1    0    0  501    0  0.00000000000E+00  0.00000000000E+00  0.23821560719E+03  0.23821560719E+03  0.00000000000E+00 0. -1.
         -2   -1    0    0    0  501 -0.00000000000E+00 -0.00000000000E+00 -0.53466720418E+02  0.53466720418E+02  0.00000000000E+00 0.  1.
         25    2    1    2    0    0 -0.43757511384E+01  0.97306041070E+01  0.67616038430E+02  0.14259471859E+03  0.12508994070E+03 0.  0.
          5    1    3    3  502    0 -0.22906693970E+01 -0.19188913786E+02  0.98243354062E+02  0.10021322565E+03  0.41800000000E+01 0. -1.
         -5    1    3    3    0  502 -0.20850817414E+01  0.28919517893E+02 -0.30627315632E+02  0.42381492940E+02  0.41800000000E+01 0. -1.
        -11    1    1    2    0    0 -0.14540629662E+02  0.37805416458E+02  0.43646605469E+02  0.59545827675E+02  0.00000000000E+00 0. -1.
         11    1    1    2    0    0  0.18916380801E+02 -0.47536020565E+02  0.73486242871E+02  0.89541781337E+02  0.00000000000E+00 0.  1.
</event>
<event>
 7    1  0.2840156E-009  0.8246380E+02  0.7561462E-02  0.1322201E+00
          2   -1    0    0  501    0  0.00000000000E+00  0.00000000000E+00  0.10573030734E+04  0.10573030734E+04  0.00000000000E+00 0.  1.
         -2   -1    0    0    0  501 -0.00000000000E+00 -0.00000000000E+00 -0.13540369249E+02  0.13540369249E+02  0.00000000000E+00 0. -1.
         25    2    1    2    0    0  0.37348556321E+02  0.90463160809E+01  0.71884917108E+03  0.73066299027E+03  0.12509006394E+03 0.  0.
          5    1    3    3  502    0 -0.26914897014E+01  0.23459596644E+02  0.22125245606E+02  0.32628142525E+02  0.41800000000E+01 0.  1.
         -5    1    3    3    0  502  0.40040046022E+02 -0.14413280563E+02  0.69672392547E+03  0.69803484774E+03  0.41800000000E+01 0.  1.
        -11    1    1    2    0    0 -0.18780180277E+02  0.40843197383E+02  0.11133933087E+03  0.12007209727E+03  0.00000000000E+00 0.  1.
         11    1    1    2    0    0 -0.18568376043E+02 -0.49889513464E+02  0.21357420217E+03  0.22010835508E+03  0.00000000000E+00 0. -1.
</event>
<event>
 7    1  0.2840156E-009  0.1184658E+03  0.7561462E-02  0.1245650E+00
         -2   -1    0    0    0  501 -0.00000000000E+00  0.00000000000E+00  0.24992993431E+02  0.24992993431E+02  0.00000000000E+00 0.  1.
          2   -1    0    0  501    0  0.00000000000E+00 -0.00000000000E+00 -0.78481321251E+03  0.78481321251E+03  0.00000000000E+00 0. -1.
         25    2    1    2    0    0  0.68456718090E+02 -0.48261486937E+02 -0.34353489739E+03  0.37507326513E+03  0.12509290593E+03 0.  0.
          5    1    3    3  502    0 -0.11934489063E+02  0.33494267483E+02 -0.80115989996E+02  0.87751593926E+02  0.41800000000E+01 0.  1.
         -5    1    3    3    0  502  0.80391207153E+02 -0.81755754419E+02 -0.26341890740E+03  0.28732167120E+03  0.41800000000E+01 0.  1.
        -11    1    1    2    0    0 -0.27665783203E+01  0.99958734431E+01  0.11466079944E+01  0.10434852725E+02  0.00000000000E+00 0.  1.
         11    1    1    2    0    0 -0.65690139770E+02  0.38265613493E+02 -0.41743192968E+03  0.42429808809E+03  0.00000000000E+00 0. -1.
</event>
<event>
 7    1  0.2840156E-009  0.7974909E+02  0.7561462E-02  0.1329765E+00
          4   -1    0    0  501    0  0.00000000000E+00  0.00000000000E+00  0.29160327791E+02  0.29160327791E+02  0.00000000000E+00 0. -1.
         -4   -1    0    0    0  501 -0.00000000000E+00 -0.00000000000E+00 -0.49693331600E+03  0.49693331600E+03  0.00000000000E+00 0.  1.
         25    2    1    2    0    0 -0.43758833240E+02 -0.29402194327E+02 -0.27940764947E+03  0.31063673011E+03  0.12508884439E+03 0.  0.
          5    1    3    3  502    0 -0.28799257131E+01 -0.18789521561E+02 -0.26515306486E+03  0.26586643319E+03  0.41800000000E+01 0. -1.
         -5    1    3    3    0  502 -0.40878907527E+02 -0.10612672766E+02 -0.14254584613E+02  0.44770296920E+02  0.41800000000E+01 0. -1.
        -11    1    1    2    0    0  0.50779191635E+02  0.52746904205E+02 -0.16948267375E+03  0.18462161008E+03  0.00000000000E+00 0.  1.
         11    1    1    2    0    0 -0.70203583945E+01 -0.23344709879E+02 -0.18882664984E+02  0.30835303602E+02  0.00000000000E+00 0. -1.
</event>
<event>
 7    1  0.2840156E-009  0.1103504E+03  0.7561462E-02  0.1259922E+00
         -3   -1    0    0    0  501 -0.00000000000E+00  0.00000000000E+00  0.25417791326E+03  0.25417791326E+03  0.00000000000E+00 0.  1.
          3   -1    0    0  501    0  0.00000000000E+00 -0.00000000000E+00 -0.54727743675E+02  0.54727743675E+02  0.00000000000E+00 0. -1.
         25    2    1    2    0    0 -0.31268977951E+02  0.31505599949E+02  0.12961914978E+03  0.18552443923E+03  0.12509133364E+03 0.  0.
          5    1    3    3  502    0  0.21779943007E+02 -0.37338205917E+02  0.60113795626E+02  0.74159614097E+02  0.41800000000E+01 0.  1.
         -5    1    3    3    0  502 -0.53048920958E+02  0.68843805866E+02  0.69505354153E+02  0.11136482513E+03  0.41800000000E+01 0.  1.
        -11    1    1    2    0    0 -0.15234244125E+01 -0.51717393557E+02  0.10739248934E+02  0.52842606729E+02  0.00000000000E+00 0. -1.
         11    1    1    2    0    0  0.32792402363E+02  0.20211793608E+02  0.59091770870E+02  0.70538610974E+02  0.00000000000E+00 0.  1.
</event>
<event>
 7    1  0.2840156E-009  0.1280646E+03  0.7561462E-02  0.1230356E+00
         -1   -1    0    0    0  501 -0.00000000000E+00  0.00000000000E+00  0.10479572843E+03  0.10479572843E+03  0.00000000000E+00 0.  1.
          1   -1    0    0  501    0  0.00000000000E+00 -0.00000000000E+00 -0.18548753568E+03  0.18548753568E+03  0.00000000000E+00 0. -1.
         25    2    1    2    0    0  0.53048881402E+02 -0.71061264485E+02 -0.54881223255E+02  0.16285979941E+03  0.12508988156E+03 0.  0.
          5    1    3    3  502    0  0.56063372277E+02  0.74052586241E+01 -0.61857692887E+02  0.83915351013E+02  0.41800000000E+01 0. -1.
         -5    1    3    3    0  502 -0.30144908748E+01 -0.78466523109E+02  0.69764696322E+01  0.78944448397E+02  0.41800000000E+01 0. -1.
        -11    1    1    2    0    0  0.18172467966E+02  0.38303079096E+02 -0.24609904824E+02  0.49020525045E+02  0.00000000000E+00 0. -1.
         11    1    1    2    0    0 -0.71221349368E+02  0.32758185390E+02 -0.12006791778E+01  0.78402939654E+02  0.00000000000E+00 0.  1.
</event>
<event>
 7    1  0.2840156E-009  0.1137099E+03  0.7561462E-02  0.1253850E+00
          1   -1    0    0  501    0  0.00000000000E+00  0.00000000000E+00  0.15721494857E+03  0.15721494857E+03  0.00000000000E+00 0. -1.
         -1   -1    0    0    0  501 -0.00000000000E+00 -0.00000000000E+00 -0.27068302496E+03  0.27068302496E+03  0.00000000000E+00 0.  1.
         25    2    1    2    0    0  0.32277211438E+02  0.68148474680E+02  0.10644786482E+03  0.18073678151E+03  0.12509437752E+03 0.  0.
          5    1    3    3  502    0 -0.25460025995E+02 -0.25241536877E+02  0.23571581080E+02  0.43109627025E+02  0.41800000000E+01 0.  1.
         -5    1    3    3    0  502  0.57737237433E+02  0.93390011557E+02  0.82876283744E+02  0.13762715449E+03  0.41800000000E+01 0.  1.
        -11    1    1    2    0    0 -0.26691855590E+02 -0.20977415941E+02 -0.15537188650E+02  0.37335122413E+02  0.00000000000E+00 0. -1.
         11    1    1    2    0    0 -0.55853558476E+01 -0.47171058739E+02 -0.20437875257E+03  0.20982606960E+03  0.00000000000E+00 0.  1.
</event>
<event>
 7    1  0.2840156E-009  0.1276065E+03  0.7561462E-02  0.1231051E+00
         -1   -1    0    0    0  501 -0.00000000000E+00  0.00000000000E+00  0.32876345156E+02  0.32876345156E+02  0.00000000000E+00 0.  1.
          1   -1    0    0  501    0  0.00000000000E+00 -0.00000000000E+00 -0.66310587532E+03  0.66310587532E+03  0.00000000000E+00 0. -1.
         25    2    1    2    0    0  0.20625597238E+02  0.72707140922E+02 -0.49274025869E+03  0.51395791946E+03  0.12509211341E+03 0.  0.
          5    1    3    3  502    0 -0.50843456021E+02  0.28095600904E+02 -0.14798093527E+03  0.15902908355E+03  0.41800000000E+01 0. -1.
         -5    1    3    3    0  502  0.71469053260E+02  0.44611540018E+02 -0.34475932341E+03  0.35492883590E+03  0.41800000000E+01 0. -1.
        -11    1    1    2    0    0 -0.45931541767E+02 -0.12945622368E+02 -0.29708707695E+02  0.56213014334E+02  0.00000000000E+00 0.  1.
         11    1    1    2    0    0  0.25305944529E+02 -0.59761518554E+02 -0.10778056378E+03  0.12581128668E+03  0.00000000000E+00 0. -1.
</event>
<event>
 7    1  0.2840156E-009  0.1019614E+03  0.7561462E-02  0.1276225E+00
         -2   -1    0    0    0  501 -0.00000000000E+00  0.00000000000E+00  0.54402943319E+02  0.54402943319E+02  0.00000000000E+00 0.  1.
          2   -1    0    0  501    0  0.00000000000E+00 -0.00000000000E+00 -0.30085609717E+03  0.30085609717E+03  0.00000000000E+00 0. -1.
         25    2    1    2    0    0 -0.28887296952E+02 -0.81562783310E+01 -0.54261127413E+02  0.13961674483E+03  0.12509022618E+03 0.  0.
          5    1    3    3  502    0 -0.66220075786E+02  0.31531359657E+02 -0.37351227626E+02  0.82413055301E+02  0.41800000000E+01 0.  1.
         -5    1    3    3    0  502  0.37332778834E+02 -0.39687637988E+02 -0.16909899787E+02  0.57203689526E+02  0.41800000000E+01 0.  1.
        -11    1    1    2    0    0 -0.21524724331E+02  0.13036956780E+02 -0.10927892989E+02  0.27435284668E+02  0.00000000000E+00 0.  1.
         11    1    1    2    0    0  0.50412021283E+02 -0.48806784493E+01 -0.18126413345E+03  0.18820701100E+03  0.00000000000E+00 0. -1.
</event>
<event>
 7    1  0.2840156E-009  0.1399364E+03  0.7561462E-02  0.1213415E+00
         -3   -1    0    0    0  501 -0.00000000000E+00  0.00000000000E+00  0.14912427912E+03  0.14912427912E+03  0.00000000000E+00 0.  1.
          3   -1    0    0  501    0  0.00000000000E+00 -0.00000000000E+00 -0.18852434698E+03  0.18852434698E+03  0.00000000000E+00 0. -1.
         25    2    1    2    0    0  0.37584407643E+02 -0.11571073593E+03  0.16533819869E+02  0.17527466483E+03  0.12508508634E+03 0.  0.
          5    1    3    3  502    0  0.35821397333E+02 -0.37208390217E+02  0.64829847617E+02  0.82994086244E+02  0.41800000000E+01 0.  1.
         -5    1    3    3    0  502  0.17630103099E+01 -0.78502345709E+02 -0.48296027748E+02  0.92280578582E+02  0.41800000000E+01 0.  1.
        -11    1    1    2    0    0 -0.64139210140E+02  0.60566456869E+02 -0.48636448322E+02  0.10073548571E+03  0.00000000000E+00 0. -1.
         11    1    1    2    0    0  0.26554802496E+02  0.55144279058E+02 -0.72974394048E+01  0.61638475567E+02  0.00000000000E+00 0.  1.
</event>
<event>
 7    1  0.2840156E-009  0.1293184E+03  0.7561462E-02  0.1228471E+00
          2   -1    0    0  501    0  0.00000000000E+00  0.00000000000E+00  0.44837856408E+03  0.44837856408E+03  0.00000000000E+00 0.  1.
         -2   -1    0    0    0  501 -0.00000000000E+00 -0.00000000000E+00 -0.83948373432E+02  0.83948373432E+02  0.00000000000E+00 0. -1.
         25    2    1    2    0    0  0.22447307395E+02 -0.10386460557E+03  0.26419550848E+02  0.16624333828E+03  0.12508843654E+03 0.  0.
          5    1    3    3  502    0  0.22959567729E+02 -0.10194705878E+02 -0.42726472584E+02  0.49740301946E+02  0.41800000000E+01 0.  1.
         -5    1    3    3    0  502 -0.51226033415E+00 -0.93669899691E+02  0.69146023431E+02  0.11650303633E+03  0.41800000000E+01 0.  1.
        -11    1    1    2    0    0  0.32460483376E+02  0.63303994013E+02  0.19615443888E+03  0.20865675770E+03  0.00000000000E+00 0.  1.
         11    1    1    2    0    0 -0.54907790771E+02  0.40560611556E+02  0.14185620091E+03  0.15742684153E+03  0.00000000000E+00 0. -1.
</event>
<event>
 7    1  0.2840156E-009  0.1043058E+03  0.7561462E-02  0.1271494E+00
         -3   -1    0    0    0  501 -0.00000000000E+00  0.00000000000E+00  0.45214188449E+02  0.45214188449E+02  0.00000000000E+00 0.  1.
          3   -1    0    0  501    0  0.00000000000E+00 -0.00000000000E+00 -0.31709994723E+03  0.31709994723E+03  0.00000000000E+00 0. -1.
         25    2    1    2    0    0 -0.26164289721E+02 -0.43686236550E+02 -0.15443123356E+03  0.20515781491E+03  0.12509063035E+03 0.  0.
          5    1    3    3  502    0  0.50087250458E+02 -0.85007621376E+01 -0.57900820304E+02  0.77142549914E+02  0.41800000000E+01 0.  1.
         -5    1    3    3    0  502 -0.76251540179E+02 -0.35185474413E+02 -0.96530413253E+02  0.12801526500E+03  0.41800000000E+01 0.  1.
        -11    1    1    2    0    0  0.41854414721E+02  0.23543383915E+02 -0.12210047438E+03  0.13120445419E+03  0.00000000000E+00 0. -1.
         11    1    1    2    0    0 -0.15690125000E+02  0.20142852636E+02  0.46459491559E+01  0.25951866568E+02  0.00000000000E+00 0.  1.
</event>
<event>
 7    1  0.2840156E-009  0.9464564E+02  0.7561462E-02  0.1291976E+00
          1   -1    0    0  501    0  0.00000000000E+00  0.00000000000E+00  0.11568558622E+03  0.11568558622E+03  0.00000000000E+00 0. -1.
         -1   -1    0    0    0  501 -0.00000000000E+00 -0.00000000000E+00 -0.13994565845E+03  0.13994565845E+03  0.00000000000E+00 0.  1.
         25    2    1    2    0    0 -0.65126808233E+02 -0.10605258529E+02 -0.11124413334E+02  0.14187749075E+03  0.12510594371E+03 0.  0.
          5    1    3    3  502    0 -0.21641050095E+02  0.17001544609E+02 -0.62863302363E+02  0.68750670923E+02  0.41800000000E+01 0. -1.
         -5    1    3    3    0  502 -0.43485758138E+02 -0.27606803138E+02  0.51738889029E+02  0.73126819829E+02  0.41800000000E+01 0. -1.
        -11    1    1    2    0    0  0.17754811902E+02  0.46868343495E+02  0.73956774410E+01  0.50661336466E+02  0.00000000000E+00 0. -1.
         11    1    1    2    0    0  0.47371996331E+02 -0.36263084967E+02 -0.20531336344E+02  0.63092417450E+02  0.00000000000E+00 0.  1.
</event>
<event>
 7    1  0.2840156E-009  0.1316686E+03  0.7561462E-02  0.1225001E+00
          1   -1    0    0  501    0  0.00000000000E+00  0.00000000000E+00  0.11786723666E+03  0.11786723666E+03  0.00000000000E+00 0. -1.
         -1   -1    0    0    0  501 -0.00000000000E+00 -0.00000000000E+00 -0.18415942600E+03  0.18415942600E+03  0.00000000000E+00 0.  1.
         25    2    1    2    0    0  0.21262807119E+02  0.98345523464E+02 -0.42641393870E+02  0.16610642925E+03  0.12509639649E+03 0.  0.
          5    1    3    3  502    0  0.29207665827E+01  0.10949611161E+03  0.90417229657E+01  0.10998706510E+03  0.41800000000E+01 0.  1.
         -5    1    3    3    0  502  0.18342040536E+02 -0.11150588143E+02 -0.51683116836E+02  0.56119364152E+02  0.41800000000E+01 0.  1.
        -11    1    1    2    0    0 -0.50765890134E+02 -0.86012581890E+02 -0.27804186060E+02  0.10367455139E+03  0.00000000000E+00 0. -1.
         11    1    1    2    0    0  0.29503083015E+02 -0.12332941575E+02  0.41533905901E+01  0.32245682016E+02  0.00000000000E+00 0.  1.
</event>
<event>
 7    1  0.2840156E-009  0.1446071E+03  0.7561462E-02  0.1207261E+00
          2   -1    0    0  501    0  0.00000000000E+00  0.00000000000E+00  0.19299163569E+03  0.19299163569E+03  0.00000000000E+00 0. -1.
         -2   -1    0    0    0  501 -0.00000000000E+00 -0.00000000000E+00 -0.15267511719E+03  0.15267511719E+03  0.00000000000E+00 0.  1.
         25    2    1    2    0    0  0.81889900802E+02 -0.86318963683E+02  0.79164325129E+02  0.18992383703E+03  0.12508858523E+03 0.  0.
          5    1    3    3  502    0 -0.10069621336E+02  0.23600564601E+02 -0.30279598131E+00  0.25999000149E+02  0.41800000000E+01 0. -1.
         -5    1    3    3    0  502  0.91959522138E+02 -0.10991952828E+03  0.79467121110E+02  0.16392483688E+03  0.41800000000E+01 0. -1.
        -11    1    1    2    0    0 -0.26370307057E+02  0.18583025746E+02  0.30220151347E+02  0.44203840190E+02  0.00000000000E+00 0. -1.
         11    1    1    2    0    0 -0.55519593745E+02  0.67735937937E+02 -0.69067957975E+02  0.11153907565E+03  0.00000000000E+00 0.  1.
</event>
<event>
 7    1  0.4013981E-009  0.1012242E+03  0.7561462E-02  0.1277743E+00
         -2   -1    0    0    0  501 -0.00000000000E+00  0.00000000000E+00  0.17280643757E+02  0.17280643757E+02  0.00000000000E+00 0.  1.
          2   -1    0    0  501    0  0.00000000000E+00 -0.00000000000E+00 -0.10387518796E+04  0.10387518796E+04  0.00000000000E+00 0. -1.
         25    2    1    2    0    0  0.52245556782E+02  0.52416490534E+02 -0.66662222139E+03  0.68228296887E+03  0.12509107432E+03 0.  0.
          5    1    3    3  502    0  0.13662899656E+02  0.76901377028E+02 -0.56973169021E+03  0.57507579313E+03  0.41800000000E+01 0.  1.
         -5    1    3    3    0  502  0.38582657126E+02 -0.24484886494E+02 -0.96890531176E+02  0.10720717573E+03  0.41800000000E+01 0.  1.
        -11    1    1    2    0    0  0.15303342039E+00 -0.12430114851E+02  0.40003091798E+00  0.12437491676E+02  0.00000000000E+00 0.  1.
         11    1    1    2    0    0 -0.52398590202E+02 -0.39986375683E+02 -0.35524904537E+03  0.36131206281E+03  0.00000000000E+00 0. -1.
</event>
<event>
 7    1  0.2840156E-009  0.1379430E+03  0.7561462E-02  0.1216124E+00
          2   -1    0    0  501    0  0.00000000000E+00  0.00000000000E+00  0.22280920175E+04  0.22280920175E+04  0.00000000000E+00 0.  1.
         -2   -1    0    0    0  501 -0.00000000000E+00 -0.00000000000E+00 -0.24563392789E+02  0.24563392789E+02  0.00000000000E+00 0. -1.
         25    2    1    2    0    0 -0.66460679677E+02  0.10069325036E+03  0.19472923817E+04  0.19550323316E+04  0.12509054727E+03 0.  0.
          5    1    3    3  502    0  0.39593727105E+01  0.72103922024E+02  0.44737854966E+03  0.45318836183E+03  0.41800000000E+01 0. -1.
         -5    1    3    3    0  502 -0.70420052387E+02  0.28589328338E+02  0.14999138321E+04  0.15018439698E+04  0.41800000000E+01 0. -1.
        -11    1    1    2    0    0  0.64945134669E+02 -0.65603185929E+02  0.94456149081E+02  0.13207426934E+03  0.00000000000E+00 0. -1.
         11    1    1    2    0    0  0.15155450084E+01 -0.35090064432E+02  0.16178009390E+03  0.16554880937E+03  0.00000000000E+00 0.  1.
</event>
<event>
 7    1  0.2840156E-009  0.1513357E+03  0.7561462E-02  0.1198841E+00
          1   -1    0    0  501    0  0.00000000000E+00  0.00000000000E+00  0.20988097283E+03  0.20988097283E+03  0.00000000000E+00 0.  1.
         -1   -1    0    0    0  501 -0.00000000000E+00 -0.00000000000E+00 -0.11975122275E+03  0.11975122275E+03  0.00000000000E+00 0. -1.
         25    2    1    2    0    0 -0.90021522963E+02  0.64280053774E+02  0.12530173437E+02  0.16745151900E+03  0.12508879271E+03 0.  0.
          5    1    3    3  502    0 -0.18955782708E+02  0.89062517750E+02  0.74145019021E+00  0.91156326793E+02  0.41800000000E+01 0. -1.
         -5    1    3    3    0  502 -0.71065740255E+02 -0.24782463976E+02  0.11788723247E+02  0.76295192211E+02  0.41800000000E+01 0. -1.
        -11    1    1    2    0    0  0.67987687809E+02  0.21084247177E+00  0.14957379913E+02  0.69613887709E+02  0.00000000000E+00 0.  1.
         11    1    1    2    0    0  0.22033835154E+02 -0.64490896246E+02  0.62642196734E+02  0.92566788871E+02  0.00000000000E+00 0. -1.
</event>
<event>
 7    1  0.2840156E-009  0.1163988E+03  0.7561462E-02  0.1249159E+00
         -2   -1    0    0    0  501 -0.00000000000E+00  0.00000000000E+00  0.27119507486E+03  0.27119507486E+03  0.00000000000E+00 0.  1.
          2   -1    0    0  501    0  0.00000000000E+00 -0.00000000000E+00 -0.69104515604E+02  0.69104515604E+02  0.00000000000E+00 0. -1.
         25    2    1    2    0    0  0.65570156850E+02 -0.44834664229E+02  0.84124328927E+02  0.17039121206E+03  0.12508664934E+03 0.  0.
          5    1    3    3  502    0  0.91535265177E+02 -0.67038359757E+02  0.68428486007E+02  0.13256234966E+03  0.41800000000E+01 0. -1.
         -5    1    3    3    0  502 -0.25965108327E+02  0.22203695528E+02  0.15695842920E+02  0.37828862401E+02  0.41800000000E+01 0. -1.
        -11    1    1    2    0    0 -0.40228291646E+02  0.94563028975E+01  0.11941779111E+03  0.12636592083E+03  0.00000000000E+00 0.  1.
         11    1    1    2    0    0 -0.25341865203E+02  0.35378361332E+02 -0.14515607858E+01  0.43542457570E+02  0.00000000000E+00 0. -1.
</event>
<event>
 7    1  0.2840156E-009  0.9931920E+02  0.7561462E-02  0.1281734E+00
         -4   -1    0    0    0  501 -0.00000000000E+00  0.00000000000E+00  0.97857427572E+02  0.97857427572E+02  0.00000000000E+00 0. -1.
          4   -1    0    0  501    0  0.00000000000E+00 -0.00000000000E+00 -0.12731357801E+03  0.12731357801E+03  0.00000000000E+00 0.  1.
         25    2    1    2    0    0  0.26748431013E+02 -0.15725040438E+01 -0.16411440807E+02  0.12897660352E+03  0.12509067725E+03 0.  0.
          5    1    3    3  502    0  0.17319934163E+02  0.48945117909E+02 -0.46033257456E+02  0.69513580533E+02  0.41800000000E+01 0.  1.
         -5    1    3    3    0  502  0.94284968501E+01 -0.50517621953E+02  0.29621816648E+02  0.59463022983E+02  0.41800000000E+01 0.  1.
        -11    1    1    2    0    0 -0.81468229053E+01 -0.44534515772E+02 -0.10117840594E+02  0.46390349392E+02  0.00000000000E+00 0.  1.
         11    1    1    2    0    0 -0.18601608108E+02  0.46107019815E+02 -0.29268690367E+01  0.49804052675E+02  0.00000000000E+00 0. -1.
</event>
<event>
 7    1  0.2840156E-009  0.1617903E+03  0.7561462E-02  0.1186690E+00
          2   -1    0    0  501    0  0.00000000000E+00  0.00000000000E+00  0.10830527773E+04  0.10830527773E+04  0.00000000000E+00 0. -1.
         -2   -1    0    0    0  501 -0.00000000000E+00 -0.00000000000E+00 -0.26188890173E+02  0.26188890173E+02  0.00000000000E+00 0.  1.
         25    2    1    2    0    0 -0.59803289685E+02  0.10624072147E+03  0.42881955110E+03  0.46303182368E+03  0.12509491590E+03 0.  0.
          5    1    3    3  502    0  0.25473037132E+02  0.77537608360E+02  0.16249549617E+03  0.18188791880E+03  0.41800000000E+01 0.  1.
         -5    1    3    3    0  502 -0.85276326817E+02  0.28703113109E+02  0.26632405493E+03  0.28114390488E+03  0.41800000000E+01 0.  1.
        -11    1    1    2    0    0 -0.18510709927E+02 -0.55410742983E+02  0.22049701151E+03  0.22810508303E+03  0.00000000000E+00 0.  1.
         11    1    1    2    0    0  0.78313999612E+02 -0.50829978486E+02  0.40754732453E+03  0.41810476077E+03  0.00000000000E+00 0. -1.
</event>
<event>
 7    1  0.2840156E-009  0.9569449E+02  0.7561462E-02  0.1289620E+00
          2   -1    0    0  501    0  0.00000000000E+00  0.00000000000E+00  0.33986138396E+02  0.33986138396E+02  0.00000000000E+00 0. -1.
         -2   -1    0    0    0  501 -0.00000000000E+00 -0.00000000000E+00 -0.48793790069E+03  0.48793790069E+03  0.00000000000E+00 0.  1.
         25    2    1    2    0    0 -0.12587112815E+01  0.57123204498E+02 -0.17569894322E+03  0.22311976639E+03  0.12509063377E+03 0.  0.
          5    1    3    3  502    0  0.82034443657E+00  0.69364272245E+02 -0.19083876721E+03  0.20309845568E+03  0.41800000000E+01 0. -1.
         -5    1    3    3    0  502 -0.20790557181E+01 -0.12241067747E+02  0.15139823985E+02  0.20021310710E+02  0.41800000000E+01 0. -1.
        -11    1    1    2    0    0 -0.40227367410E+02 -0.53796509541E+02 -0.17820034161E+03  0.19044071854E+03  0.00000000000E+00 0.  1.
         11    1    1    2    0    0  0.41486078691E+02 -0.33266949570E+01 -0.10005247747E+03  0.10836355417E+03  0.00000000000E+00 0. -1.
</event>
<event>
 7    1  0.2840156E-009  0.1559089E+03  0.7561462E-02  0.1193395E+00
          2   -1    0    0  501    0  0.00000000000E+00  0.00000000000E+00  0.89534532041E+03  0.89534532041E+03  0.00000000000E+00 0. -1.
         -2   -1    0    0    0  501 -0.00000000000E+00 -0.00000000000E+00 -0.31992271443E+02  0.31992271443E+02  0.00000000000E+00 0.  1.
         25    2    1    2    0    0 -0.11831900901E+03 -0.42085191924E+02  0.41168952462E+03  0.44822900842E+03  0.12510167079E+03 0.  0.
          5    1    3    3  502    0 -0.86634914492E+02  0.25653280478E+02  0.30314487675E+03  0.31635105170E+03  0.41800000000E+01 0.  1.
         -5    1    3    3    0  502 -0.31684094522E+02 -0.67738472402E+02  0.10854464787E+03  0.13187795672E+03  0.41800000000E+01 0.  1.
        -11    1    1    2    0    0  0.96022275447E+02 -0.31103905538E+01  0.19309770051E+03  0.21567724464E+03  0.00000000000E+00 0.  1.
         11    1    1    2    0    0  0.22296733567E+02  0.45195582478E+02  0.25856582383E+03  0.26343133879E+03  0.00000000000E+00 0. -1.
</event>
<event>
 7    1  0.2840156E-009  0.1362059E+03  0.7561462E-02  0.1218527E+00
          2   -1    0    0  501    0  0.00000000000E+00  0.00000000000E+00  0.27420932904E+03  0.27420932904E+03  0.00000000000E+00 0. -1.
         -2   -1    0    0    0  501 -0.00000000000E+00 -0.00000000000E+00 -0.83136575942E+02  0.83136575942E+02  0.00000000000E+00 0.  1.
         25    2    1    2    0    0 -0.75891679458E+02 -0.70663914348E+02  0.11438521110E+03  0.19870733731E+03  0.12509074139E+03 0.  0.
          5    1    3    3  502    0 -0.11025512684E+03 -0.62873520819E+02  0.90268274157E+02  0.15580470575E+03  0.41800000000E+01 0.  1.
         -5    1    3    3    0  502  0.34363447381E+02 -0.77903935285E+01  0.24116936938E+02  0.42902631557E+02  0.41800000000E+01 0.  1.
        -11    1    1    2    0    0  0.26172998212E+02  0.49314474119E+02  0.87177689384E+02  0.10352242617E+03  0.00000000000E+00 0. -1.
         11    1    1    2    0    0  0.49718681246E+02  0.21349440229E+02 -0.10490147379E+02  0.55116141510E+02  0.00000000000E+00 0.  1.
</event>
<event>
 7    1  0.2840156E-009  0.1081260E+03  0.7561462E-02  0.1264080E+00
          2   -1    0    0  501    0  0.00000000000E+00  0.00000000000E+00  0.34792743927E+03  0.34792743927E+03  0.00000000000E+00 0.  1.
         -2   -1    0    0    0  501 -0.00000000000E+00 -0.00000000000E+00 -0.45756036005E+02  0.45756036005E+02  0.00000000000E+00 0. -1.
         25    2    1    2    0    0  0.58470125403E+02 -0.56760156801E+01  0.20211481782E+03  0.24484737202E+03  0.12509541672E+03 0.  0.
          5    1    3    3  502    0  0.11561343885E+02 -0.51104506356E+02  0.29563966170E+02  0.60306183249E+02  0.41800000000E+01 0.  1.
         -5    1    3    3    0  502  0.46908781518E+02  0.45428490676E+02  0.17255085165E+03  0.18454118878E+03  0.41800000000E+01 0.  1.
        -11    1    1    2    0    0  0.70812508726E+01  0.28096841317E+02  0.65056129819E+02  0.71217109130E+02  0.00000000000E+00 0.  1.
         11    1    1    2    0    0 -0.65551376276E+02 -0.22420825637E+02  0.35000455620E+02  0.77618994115E+02  0.00000000000E+00 0. -1.
</event>
<event>
 7    1  0.2840156E-009  0.1284772E+03  0.7561462E-02  0.1229733E+00
         -2   -1    0    0    0  501 -0.00000000000E+00  0.00000000000E+00  0.37520230566E+02  0.37520230566E+02  0.00000000000E+00 0.  1.
          2   -1    0    0  501    0  0.00000000000E+00 -0.00000000000E+00 -0.55544380435E+03  0.55544380435E+03  0.00000000000E+00 0. -1.
         25    2    1    2    0    0  0.34020720413E+02 -0.92908310176E+02 -0.28473465663E+03  0.32636059722E+03  0.12509217086E+03 0.  0.
          5    1    3    3  502    0 -0.27549502207E+02  0.14756121410E+02 -0.32669530063E+02  0.45403620841E+02  0.41800000000E+01 0. -1.
         -5    1    3    3    0  502  0.61570222620E+02 -0.10766443159E+03 -0.25206512657E+03  0.28095697638E+03  0.41800000000E+01 0. -1.
        -11    1    1    2    0    0 -0.14647951830E+01  0.33914653161E+02 -0.13024764816E+02  0.36359232974E+02  0.00000000000E+00 0.  1.
         11    1    1    2    0    0 -0.32555925230E+02  0.58993657016E+02 -0.22016415233E+03  0.23024420472E+03  0.00000000000E+00 0. -1.
</event>
<event>
 7    1  0.2840156E-009  0.1227603E+03  0.7561462E-02  0.1238612E+00
          1   -1    0    0  501    0  0.00000000000E+00  0.00000000000E+00  0.13945871585E+03  0.13945871585E+03  0.00000000000E+00 0. -1.
         -1   -1    0    0    0  501 -0.00000000000E+00 -0.00000000000E+00 -0.36398878130E+03  0.36398878130E+03  0.00000000000E+00 0.  1.
         25    2    1    2    0    0  0.60955269779E+02  0.99282151003E+02  0.60572358617E+02  0.18135238206E+03  0.12508871024E+03 0.  0.
          5    1    3    3  502    0  0.66231262030E+02  0.73850428406E+02  0.95409063652E+02  0.13769832124E+03  0.41800000000E+01 0.  1.
         -5    1    3    3    0  502 -0.52759922508E+01  0.25431722597E+02 -0.34836705035E+02  0.43654060821E+02  0.41800000000E+01 0.  1.
        -11    1    1    2    0    0 -0.14909291477E+02 -0.51305812450E+02 -0.36383208029E+02  0.64639857596E+02  0.00000000000E+00 0. -1.
         11    1    1    2    0    0 -0.46045978302E+02 -0.47976338552E+02 -0.24871921604E+03  0.25745525749E+03  0.00000000000E+00 0.  1.
</event>
<event>
 7    1  0.2840156E-009  0.1292794E+03  0.7561462E-02  0.1228529E+00
          2   -1    0    0  501    0  0.00000000000E+00  0.00000000000E+00  0.13581391446E+04  0.13581391446E+04  0.00000000000E+00 0.  1.
         -2   -1    0    0    0  501 -0.00000000000E+00 -0.00000000000E+00 -0.13154980500E+02  0.13154980500E+02  0.00000000000E+00 0. -1.
         25    2    1    2    0    0  0.78389588610E+02 -0.18013623038E+01  0.70375505302E+03  0.71907361894E+03  0.12509005676E+03 0.  0.
          5    1    3    3  502    0  0.28030773298E+02  0.56410767536E+02  0.43232148563E+03  0.43690644111E+03  0.41800000000E+01 0. -1.
         -5    1    3    3    0  502  0.50358815312E+02 -0.58212129839E+02  0.27143356739E+03  0.28216717783E+03  0.41800000000E+01 0. -1.
        -11    1    1    2    0    0 -0.87672607915E+02  0.26799832520E+02  0.52747003044E+03  0.53537776402E+03  0.00000000000E+00 0.  1.
         11    1    1    2    0    0  0.92830193056E+01 -0.24998470216E+02  0.11375908060E+03  0.11684274209E+03  0.00000000000E+00 0. -1.
</event>
<event>
 7    1  0.2840156E-009  0.1700332E+03  0.7561462E-02  0.1177813E+00
         -1   -1    0    0    0  501 -0.00000000000E+00  0.00000000000E+00  0.42020124830E+03  0.42020124830E+03  0.00000000000E+00 0.  1.
          1   -1    0    0  501    0  0.00000000000E+00 -0.00000000000E+00 -0.95265177559E+02  0.95265177559E+02  0.00000000000E+00 0. -1.
         25    2    1    2    0    0 -0.62729725831E+02 -0.15538951380E+03  0.16878294371E+03  0.26873288598E+03  0.12509501357E+03 0.  0.
          5    1    3    3  502    0 -0.13906301261E+02 -0.16309260625E+02  0.10640380025E+03  0.10862144495E+03  0.41800000000E+01 0. -1.
         -5    1    3    3    0  502 -0.48823424570E+02 -0.13908025317E+03  0.62379143460E+02  0.16011144103E+03  0.41800000000E+01 0. -1.
        -11    1    1    2    0    0  0.47128116429E+02  0.14382343111E+03  0.16626802482E+03  0.22483615095E+03  0.00000000000E+00 0.  1.
         11    1    1    2    0    0  0.15601609401E+02  0.11566082688E+02 -0.10114897789E+02  0.21897388930E+02  0.00000000000E+00 0. -1.
</event>
<event>
 7    1  0.2840156E-009  0.1283233E+03  0.7561462E-02  0.1229965E+00
          2   -1    0    0  501    0  0.00000000000E+00  0.00000000000E+00  0.59446111130E+03  0.59446111130E+03  0.00000000000E+00 0. -1.
         -2   -1    0    0    0  501 -0.00000000000E+00 -0.00000000000E+00 -0.39036025868E+02  0.39036025868E+02  0.00000000000E+00 0.  1.
         25    2    1    2    0    0  0.60383330877E+01  0.97649040859E+02  0.35725280736E+03  0.39095885523E+03  0.12508981362E+03 0.  0.
          5    1    3    3  502    0 -0.16435414142E+02  0.97047964988E+02  0.35449016142E+03  0.36792550508E+03  0.41800000000E+01 0. -1.
         -5    1    3    3    0  502  0.22473747230E+02  0.60107587191E+00  0.27626459451E+01  0.23033350155E+02  0.41800000000E+01 0. -1.
        -11    1    1    2    0    0  0.27717536003E+02 -0.97647522217E+02  0.17242358514E+03  0.20008296557E+03  0.00000000000E+00 0. -1.
         11    1    1    2    0    0 -0.33755869090E+02 -0.15186423101E-02  0.25748692934E+02  0.42455316371E+02  0.00000000000E+00 0.  1.
</event>
<event>
 7    1  0.2840156E-009  0.1038169E+03  0.7561462E-02  0.1272468E+00
          1   -1    0    0  501    0  0.00000000000E+00  0.00000000000E+00  0.17564417373E+03  0.17564417373E+03  0.00000000000E+00 0. -1.
         -1   -1    0    0    0  501 -0.00000000000E+00 -0.00000000000E+00 -0.66335351760E+02  0.66335351760E+02  0.00000000000E+00 0.  1.
         25    2    1    2    0    0  0.71250684813E+01  0.58019408919E+01  0.54333850060E+02  0.13669047761E+03  0.12509072823E+03 0.  0.
          5    1    3    3  502    0  0.37574684005E+02  0.54352966706E+02  0.40407998458E+02  0.77565331220E+02  0.41800000000E+01 0. -1.
         -5    1    3    3    0  502 -0.30449615524E+02 -0.48551025814E+02  0.13925851602E+02  0.59125146393E+02  0.41800000000E+01 0. -1.
        -11    1    1    2    0    0 -0.12252952061E+02 -0.43871346467E+02  0.10923900256E+02  0.46841877331E+02  0.00000000000E+00 0.  1.
         11    1    1    2    0    0  0.51278835795E+01  0.38069405576E+02  0.44051071651E+02  0.58447170543E+02  0.00000000000E+00 0. -1.
</event>
<event>
 7    1  0.2840156E-009  0.1149000E+03  0.7561462E-02  0.1251756E+00
          2   -1    0    0  501    0  0.00000000000E+00  0.00000000000E+00  0.49869959589E+02  0.49869959589E+02  0.00000000000E+00 0. -1.
         -2   -1    0    0    0  501 -0.00000000000E+00 -0.00000000000E+00 -0.30925884986E+03  0.30925884986E+03  0.00000000000E+00 0.  1.
         25    2    1    2    0    0  0.35632922498E+02 -0.47216050236E+02 -0.11884152650E+03  0.18240019689E+03  0.12508981910E+03 0.  0.
          5    1    3    3  502    0  0.81407423665E+02 -0.34844219568E+02 -0.61589216724E+02  0.10794439440E+03  0.41800000000E+01 0. -1.
         -5    1    3    3    0  502 -0.45774501167E+02 -0.12371830668E+02 -0.57252309771E+02  0.74455802496E+02  0.41800000000E+01 0. -1.
        -11    1    1    2    0    0  0.22083790533E+02  0.19765928750E+02 -0.91457767795E+02  0.96140049062E+02  0.00000000000E+00 0.  1.
         11    1    1    2    0    0 -0.57716713032E+02  0.27450121486E+02 -0.49089595985E+02  0.80588563499E+02  0.00000000000E+00 0. -1.
</event>
<event>
 7    1  0.2840156E-009  0.9416728E+02  0.7561462E-02  0.1293063E+00
         -1   -1    0    0    0  501 -0.00000000000E+00  0.00000000000E+00  0.71762280711E+02  0.71762280711E+02  0.00000000000E+00 0.  1.
          1   -1    0    0  501    0  0.00000000000E+00 -0.00000000000E+00 -0.20826162919E+03  0.20826162919E+03  0.00000000000E+00 0. -1.
         25    2    1    2    0    0  0.50932195747E+02 -0.85647544942E+01 -0.49667520213E+02  0.14415659636E+03  0.12508724206E+03 0.  0.
          5    1    3    3  502    0  0.58795877571E+02  0.13132766886E+02  0.25397468001E+02  0.65512812231E+02  0.41800000000E+01 0. -1.
         -5    1    3    3    0  502 -0.78636818242E+01 -0.21697521380E+02 -0.75064988214E+02  0.78643784125E+02  0.41800000000E+01 0. -1.
        -11    1    1    2    0    0  0.75357381256E+01 -0.32293748639E+02 -0.28371528311E+02  0.43641919859E+02  0.00000000000E+00 0.  1.
         11    1    1    2    0    0 -0.58467933873E+02  0.40858503134E+02 -0.58460299951E+02  0.92225393683E+02  0.00000000000E+00 0. -1.
</event>
<event>
 7    1  0.2840156E-009  0.8902568E+02  0.7561462E-02  0.1305228E+00
          2   -1    0    0  501    0  0.00000000000E+00  0.00000000000E+00  0.54497880058E+03  0.54497880058E+03  0.00000000000E+00 0. -1.
         -2   -1    0    0    0  501 -0.00000000000E+00 -0.00000000000E+00 -0.28611115076E+02  0.28611115076E+02  0.00000000000E+00 0.  1.
         25    2    1    2    0    0  0.25279839783E+02  0.52395067254E+02  0.30483830184E+03  0.33459851433E+03  0.12508182180E+03 0.  0.
          5    1    3    3  502    0  0.30780270909E+02  0.26948473658E+02  0.15323381603E+02  0.43885347594E+02  0.41800000000E+01 0.  1.
         -5    1    3    3    0  502 -0.55004311259E+01  0.25446593596E+02  0.28951492024E+03  0.29071316673E+03  0.41800000000E+01 0.  1.
        -11    1    1    2    0    0 -0.18958063100E+02  0.25852064786E+02  0.73768876788E+02  0.80433727956E+02  0.00000000000E+00 0. -1.
         11    1    1    2    0    0 -0.63217766834E+01 -0.78247132041E+02  0.13776050687E+03  0.15855767338E+03  0.00000000000E+00 0.  1.
</event>
<event>
 7    1  0.2840156E-009  0.1240456E+03  0.7561462E-02  0.1236568E+00
          2   -1    0    0  501    0  0.00000000000E+00  0.00000000000E+00  0.12222479947E+03  0.12222479947E+03  0.00000000000E+00 0.  1.
         -2   -1    0    0    0  501 -0.00000000000E+00 -0.00000000000E+00 -0.13070914150E+03  0.13070914150E+03  0.00000000000E+00 0. -1.
         25    2    1    2    0    0  0.14301080106E+02 -0.61011406550E+02 -0.48351232178E+01  0.14000908475E+03  0.12510896361E+03 0.  0.
          5    1    3    3  502    0  0.65983262145E+02 -0.57886296991E+02 -0.41567873713E+00  0.87876387337E+02  0.41800000000E+01 0. -1.
         -5    1    3    3    0  502 -0.51682182039E+02 -0.31251095589E+01 -0.44194444806E+01  0.52132697414E+02  0.41800000000E+01 0. -1.
        -11    1    1    2    0    0  0.10339008713E+02  0.77781288799E+02  0.11809325198E+02  0.79349128225E+02  0.00000000000E+00 0.  1.
         11    1    1    2    0    0 -0.24640088819E+02 -0.16769882250E+02 -0.15458544014E+02  0.33575727999E+02  0.00000000000E+00 0. -1.
</event>
<event>
 7    1  0.2840156E-009  0.1074632E+03  0.7561462E-02  0.1265341E+00
         -1   -1    0    0    0  501 -0.00000000000E+00  0.00000000000E+00  0.15245311340E+02  0.15245311340E+02  0.00000000000E+00 0.  1.
          1   -1    0    0  501    0  0.00000000000E+00 -0.00000000000E+00 -0.10304857659E+04  0.10304857659E+04  0.00000000000E+00 0. -1.
         25    2    1    2    0    0  0.43661721510E+02  0.43333970067E+02 -0.65026982132E+03  0.66504302698E+03  0.12508880181E+03 0.  0.
          5    1    3    3  502    0 -0.20900352155E+02  0.38121896654E+02 -0.49264877295E+03  0.49458102432E+03  0.41800000000E+01 0.  1.
         -5    1    3    3    0  502  0.64562073665E+02  0.52120734133E+01 -0.15762104836E+03  0.17046200267E+03  0.41800000000E+01 0.  1.
        -11    1    1    2    0    0 -0.31245643345E+02  0.23037900702E+02 -0.16932068453E+03  0.17371392951E+03  0.00000000000E+00 0. -1.
         11    1    1    2    0    0 -0.12416078166E+02 -0.66371870770E+02 -0.19564994871E+03  0.20697412074E+03  0.00000000000E+00 0.  1.
</event>
<event>
 7    1  0.2840156E-009  0.9449423E+02  0.7561462E-02  0.1292319E+00
          2   -1    0    0  501    0  0.00000000000E+00  0.00000000000E+00  0.96107539074E+02  0.96107539074E+02  0.00000000000E+00 0. -1.
         -2   -1    0    0    0  501 -0.00000000000E+00 -0.00000000000E+00 -0.14450772843E+03  0.14450772843E+03  0.00000000000E+00 0.  1.
         25    2    1    2    0    0  0.28460339850E+02 -0.30239287295E+02 -0.31174892262E+02  0.13543857701E+03  0.12508928329E+03 0.  0.
          5    1    3    3  502    0 -0.36299337800E+02 -0.12605432527E+02 -0.52225519456E+02  0.64973195522E+02  0.41800000000E+01 0.  1.
         -5    1    3    3    0  502  0.64759677650E+02 -0.17633854767E+02  0.21050627194E+02  0.70465381490E+02  0.41800000000E+01 0.  1.
        -11    1    1    2    0    0 -0.35467156147E+02  0.50465941715E+02  0.17736868447E+02  0.64181982991E+02  0.00000000000E+00 0. -1.
         11    1    1    2    0    0  0.70068162974E+01 -0.20226654420E+02 -0.34962165543E+02  0.40994707501E+02  0.00000000000E+00 0.  1.
</event>
<event>
 7    1  0.2840156E-009  0.1347085E+03  0.7561462E-02  0.1220632E+00
         -2   -1    0    0    0  501 -0.00000000000E+00  0.00000000000E+00  0.11292828119E+02  0.11292828119E+02  0.00000000000E+00 0.  1.
          2   -1    0    0  501    0  0.00000000000E+00 -0.00000000000E+00 -0.18922893012E+04  0.18922893012E+04  0.00000000000E+00 0. -1.
         25    2    1    2    0    0  0.55101698608E+02  0.56412890319E+02 -0.13484594077E+04  0.13565430359E+04  0.12509045798E+03 0.  0.
          5    1    3    3  502    0 -0.21063210000E+02  0.66947140422E+02 -0.70283235644E+03  0.70634012493E+03  0.41800000000E+01 0.  1.
         -5    1    3    3    0  502  0.76164908608E+02 -0.10534250103E+02 -0.64562705128E+03  0.65020291100E+03  0.41800000000E+01 0.  1.
        -11    1    1    2    0    0 -0.30765297995E+01 -0.68603372977E+02 -0.23865160749E+03  0.24833541345E+03  0.00000000000E+00 0.  1.
         11    1    1    2    0    0 -0.52025168809E+02  0.12190482658E+02 -0.29388545787E+03  0.29870367993E+03  0.00000000000E+00 0. -1.
</event>
<event>
 7    1  0.2840156E-009  0.1063988E+03  0.7561462E-02  0.1267388E+00
         -2   -1    0    0    0  501 -0.00000000000E+00  0.00000000000E+00  0.84130446594E+01  0.84130446594E+01  0.00000000000E+00 0. -1.
          2   -1    0    0  501    0  0.00000000000E+00 -0.00000000000E+00 -0.22630306064E+04  0.22630306064E+04  0.00000000000E+00 0.  1.
         25    2    1    2    0    0 -0.38698261428E+02  0.21496405786E+02 -0.18486120454E+04  0.18533684508E+04  0.12509384111E+03 0.  0.
          5    1    3    3  502    0 -0.12943982390E+02 -0.42205241910E+02 -0.30334659513E+03  0.30657047852E+03  0.41800000000E+01 0. -1.
         -5    1    3    3    0  502 -0.25754279038E+02  0.63701647696E+02 -0.15452654503E+04  0.15467979723E+04  0.41800000000E+01 0. -1.
        -11    1    1    2    0    0  0.30807544450E+02 -0.56166049338E+02 -0.25133914805E+03  0.25937443443E+03  0.00000000000E+00 0.  1.
         11    1    1    2    0    0  0.78907169780E+01  0.34669643552E+02 -0.15466636831E+03  0.15870076586E+03  0.00000000000E+00 0. -1.
</event>
<event>
 7    1  0.2840156E-009  0.2074627E+03  0.7561462E-02  0.1143591E+00
          2   -1    0    0  501    0  0.00000000000E+00  0.00000000000E+00  0.20247849794E+03  0.20247849794E+03  0.00000000000E+00 0.  1.
         -2   -1    0    0    0  501 -0.00000000000E+00 -0.00000000000E+00 -0.25771592904E+03  0.25771592904E+03  0.00000000000E+00 0. -1.
         25    2    1    2    0    0  0.11157159623E+03 -0.15275926894E+03  0.38374967134E+02  0.23001462084E+03  0.12510184797E+03 0.  0.
          5    1    3    3  502    0  0.85003748037E+02 -0.16544280473E+03  0.61279176591E+01  0.18615043000E+03  0.41800000000E+01 0.  1.
         -5    1    3    3    0  502  0.26567848188E+02  0.12683535789E+02  0.32247049475E+02  0.43864190831E+02  0.41800000000E+01 0.  1.
        -11    1    1    2    0    0 -0.91150918621E+02  0.72916280061E+02 -0.17566019349E+02  0.11804168289E+03  0.00000000000E+00 0.  1.
         11    1    1    2    0    0 -0.20420677604E+02  0.79842988875E+02 -0.76046378884E+02  0.11213812326E+03  0.00000000000E+00 0. -1.
</event>
<event>
 7    1  0.2840156E-009  0.1071696E+03  0.7561462E-02  0.1265903E+00
         -2   -1    0    0    0  501 -0.00000000000E+00  0.00000000000E+00  0.15647864115E+02  0.15647864115E+02  0.00000000000E+00 0.  1.
          2   -1    0    0  501    0  0.00000000000E+00 -0.00000000000E+00 -0.10291814509E+04  0.10291814509E+04  0.00000000000E+00 0. -1.
         25    2    1    2    0    0 -0.64190948252E+02 -0.49063839301E+02 -0.64978127470E+03  0.66662609781E+03  0.12508761393E+03 0.  0.
          5    1    3    3  502    0 -0.40238498735E+00 -0.54784288053E+02 -0.50838378918E+03  0.51134433568E+03  0.41800000000E+01 0.  1.
         -5    1    3    3    0  502 -0.63788563265E+02  0.57204487520E+01 -0.14139748552E+03  0.15528176213E+03  0.41800000000E+01 0.  1.
        -11    1    1    2    0    0  0.13429066024E+02  0.41837295013E+02 -0.95893035879E+02  0.10548067784E+03  0.00000000000E+00 0.  1.
         11    1    1    2    0    0  0.50761882228E+02  0.72265442879E+01 -0.26785927625E+03  0.27272253941E+03  0.00000000000E+00 0. -1.
</event>
<event>
 7    1  0.2840156E-009  0.1030283E+03  0.7561462E-02  0.1274054E+00
         -1   -1    0    0    0  501 -0.00000000000E+00  0.00000000000E+00  0.55431274754E+02  0.55431274754E+02  0.00000000000E+00 0.  1.
          1   -1    0    0  501    0  0.00000000000E+00 -0.00000000000E+00 -0.43228936057E+03  0.43228936057E+03  0.00000000000E+00 0. -1.
         25    2    1    2    0    0 -0.75109694023E+02  0.93838687864E+01 -0.76235217477E+02  0.16489081931E+03  0.12509057031E+03 0.  0.
          5    1    3    3  502    0  0.23970361145E+01  0.11498406862E+02  0.30471205090E+02  0.32923029662E+02  0.41800000000E+01 0. -1.
         -5    1    3    3    0  502 -0.77506730138E+02 -0.21145380753E+01 -0.10670642257E+03  0.13196778965E+03  0.41800000000E+01 0. -1.
        -11    1    1    2    0    0  0.95060494046E+02 -0.12018782991E+02 -0.26666371015E+03  0.28335575340E+03  0.00000000000E+00 0. -1.
         11    1    1    2    0    0 -0.19950800023E+02  0.26349142046E+01 -0.33959158187E+02  0.39474062613E+02  0.00000000000E+00 0.  1.
</event>
<event>
 7    1  0.2840156E-009  0.1315655E+03  0.7561462E-02  0.1225151E+00
         -1   -1    0    0    0  501 -0.00000000000E+00  0.00000000000E+00  0.56496293785E+02  0.56496293785E+02  0.00000000000E+00 0.  1.
          1   -1    0    0  501    0  0.00000000000E+00 -0.00000000000E+00 -0.38630852524E+03  0.38630852524E+03  0.00000000000E+00 0. -1.
         25    2    1    2    0    0 -0.74393693023E+02  0.66813199688E+02 -0.16337374826E+03  0.22877229581E+03  0.12508939403E+03 0.  0.
          5    1    3    3  502    0  0.32925817857E+02  0.26345289366E+02 -0.25805966934E+02  0.49614555150E+02  0.41800000000E+01 0.  1.
         -5    1    3    3    0  502 -0.10731951088E+03  0.40467910322E+02 -0.13756778132E+03  0.17915774066E+03  0.41800000000E+01 0.  1.
        -11    1    1    2    0    0  0.61426488703E+02 -0.32913549877E+02 -0.16336429989E+03  0.17760745975E+03  0.00000000000E+00 0. -1.
         11    1    1    2    0    0  0.12967204320E+02 -0.33899649811E+02 -0.30741833063E+01  0.36425063461E+02  0.00000000000E+00 0.  1.
</event>
<event>
 7    1  0.2840156E-009  0.1651180E+03  0.7561462E-02  0.1183037E+00
          1   -1    0    0  501    0  0.00000000000E+00  0.00000000000E+00  0.96927117121E+02  0.96927117121E+02  0.00000000000E+00 0. -1.
         -1   -1    0    0    0  501 -0.00000000000E+00 -0.00000000000E+00 -0.43771894810E+03  0.43771894810E+03  0.00000000000E+00 0.  1.
         25    2    1    2    0    0 -0.11871414531E+03 -0.85098645663E+02 -0.30277280550E+03  0.35868290102E+03  0.12508886420E+03 0.  0.
          5    1    3    3  502    0 -0.42355442312E+02  0.93837800481E+01 -0.14667295616E+02  0.45985223520E+02  0.41800000000E+01 0.  1.
         -5    1    3    3    0  502 -0.76358702997E+02 -0.94482425711E+02 -0.28810550988E+03  0.31269767750E+03  0.41800000000E+01 0.  1.
        -11    1    1    2    0    0  0.12366961211E+03  0.56306706337E+02 -0.49433823726E+02  0.14459709909E+03  0.00000000000E+00 0.  1.
         11    1    1    2    0    0 -0.49554667988E+01  0.28791939326E+02  0.11414798245E+02  0.31366065107E+02  0.00000000000E+00 0. -1.
</event>
<event>
 7    1  0.2840156E-009  0.1163755E+03  0.7561462E-02  0.1249199E+00
         -1   -1    0    0    0  501 -0.00000000000E+00  0.00000000000E+00  0.34429533206E+02  0.34429533206E+02  0.00000000000E+00 0.  1.
          1   -1    0    0  501    0  0.00000000000E+00 -0.00000000000E+00 -0.42535996691E+03  0.42535996691E+03  0.00000000000E+00 0. -1.
         25    2    1    2    0    0 -0.31968646225E+02  0.43527813436E+02 -0.20534368784E+03  0.24643514972E+03  0.12509031938E+03 0.  0.
          5    1    3    3  502    0  0.44727557894E+02  0.86274901312E+01 -0.10995114722E+03  0.11908700683E+03  0.41800000000E+01 0.  1.
         -5    1    3    3    0  502 -0.76696204119E+02  0.34900323305E+02 -0.95392540616E+02  0.12734814289E+03  0.41800000000E+01 0.  1.
        -11    1    1    2    0    0  0.39782845188E+02 -0.66989356248E+02 -0.11814599674E+03  0.14152287860E+03  0.00000000000E+00 0.  1.
         11    1    1    2    0    0 -0.78141989629E+01  0.23461542812E+02 -0.67440749132E+02  0.71831471793E+02  0.00000000000E+00 0. -1.
</event>
<event>
 7    1  0.2840156E-009  0.2631862E+03  0.7561462E-02  0.1105244E+00
         -2   -1    0    0    0  501 -0.00000000000E+00  0.00000000000E+00  0.11571276107E+03  0.11571276107E+03  0.00000000000E+00 0.  1.
          2   -1    0    0  501    0  0.00000000000E+00 -0.00000000000E+00 -0.87255566975E+03  0.87255566975E+03  0.00000000000E+00 0. -1.
         25    2    1    2    0    0  0.82717174410E+02  0.24138742738E+03 -0.61630584416E+03  0.67866830186E+03  0.12509096436E+03 0.  0.
          5    1    3    3  502    0  0.38574474034E+02  0.88726773013E+02 -0.10328868661E+03  0.14158550589E+03  0.41800000000E+01 0.  1.
         -5    1    3    3    0  502  0.44142700375E+02  0.15266065437E+03 -0.51301715755E+03  0.53708279597E+03  0.41800000000E+01 0.  1.
        -11    1    1    2    0    0  0.15763782623E+02 -0.79710195006E+02 -0.15483809952E+02  0.82716143534E+02  0.00000000000E+00 0. -1.
         11    1    1    2    0    0 -0.98480957032E+02 -0.16167723237E+03 -0.12505325456E+03  0.22688398542E+03  0.00000000000E+00 0.  1.
</event>
<event>
 7    1  0.2840156E-009  0.1015685E+03  0.7561462E-02  0.1277032E+00
          1   -1    0    0  501    0  0.00000000000E+00  0.00000000000E+00  0.22791446297E+03  0.22791446297E+03  0.00000000000E+00 0. -1.
         -1   -1    0    0    0  501 -0.00000000000E+00 -0.00000000000E+00 -0.56795002539E+02  0.56795002539E+02  0.00000000000E+00 0.  1.
         25    2    1    2    0    0  0.93123331906E+01  0.63766991346E+01  0.57149730897E+02  0.13799102617E+03  0.12509216491E+03 0.  0.
          5    1    3    3  502    0 -0.46565361256E+02  0.31731435343E+02  0.38991896409E+01  0.56638263901E+02  0.41800000000E+01 0. -1.
         -5    1    3    3    0  502  0.55877694447E+02 -0.25354736208E+02  0.53250541256E+02  0.81352762270E+02  0.41800000000E+01 0. -1.
        -11    1    1    2    0    0 -0.29274808489E+02 -0.37855829433E+02  0.34666782098E+02  0.59091996202E+02  0.00000000000E+00 0.  1.
         11    1    1    2    0    0  0.19962475299E+02  0.31479130299E+02  0.79302947434E+02  0.87626443133E+02  0.00000000000E+00 0. -1.
</event>
<event>
 7    1  0.2840156E-009  0.1532815E+03  0.7561462E-02  0.1196498E+00
         -1   -1    0    0    0  501 -0.00000000000E+00  0.00000000000E+00  0.40243203207E+02  0.40243203207E+02  0.00000000000E+00 0.  1.
          1   -1    0    0  501    0  0.00000000000E+00 -0.00000000000E+00 -0.82435501022E+03  0.82435501022E+03  0.00000000000E+00 0. -1.
         25    2    1    2    0    0  0.14356704644E+03 -0.93335387303E+01 -0.42883173209E+03  0.46930038233E+03  0.12509029793E+03 0.  0.
          5    1    3    3  502    0  0.58337332322E+02 -0.37664146826E+02 -0.67429574388E+02  0.96881640163E+02  0.41800000000E+01 0.  1.
         -5    1    3    3    0  502  0.85229714119E+02  0.28330608096E+02 -0.36140215770E+03  0.37241874216E+03  0.41800000000E+01 0.  1.
        -11    1    1    2    0    0 -0.53391995883E+02  0.18358749835E+02 -0.45434954400E+02  0.72471263279E+02  0.00000000000E+00 0.  1.
         11    1    1    2    0    0 -0.90175050558E+02 -0.90252111050E+01 -0.30984512052E+03  0.32282656782E+03  0.00000000000E+00 0. -1.
</event>
<event>
 7    1  0.2840156E-009  0.2263793E+03  0.7561462E-02  0.1129214E+00
          1   -1    0    0  501    0  0.00000000000E+00  0.00000000000E+00  0.14511738446E+04  0.14511738446E+04  0.00000000000E+00 0. -1.
         -1   -1    0    0    0  501 -0.00000000000E+00 -0.00000000000E+00 -0.44760351765E+02  0.44760351765E+02  0.00000000000E+00 0.  1.
         25    2    1    2    0    0 -0.71185546777E+02 -0.18768908316E+03  0.39059554995E+03  0.45662660070E+03  0.12509354427E+03 0.  0.
          5    1    3    3  502    0 -0.13557988594E+02 -0.17701124358E+03  0.30116807430E+03  0.34962334131E+03  0.41800000000E+01 0.  1.
         -5    1    3    3    0  502 -0.57627558183E+02 -0.10677839585E+02  0.89427475642E+02  0.10700325939E+03  0.41800000000E+01 0.  1.
        -11    1    1    2    0    0  0.73993685064E+02  0.81048596597E+02  0.42529031936E+03  0.43922180750E+03  0.00000000000E+00 0.  1.
         11    1    1    2    0    0 -0.28081382876E+01  0.10664048656E+03  0.59052762357E+03  0.60008578822E+03  0.00000000000E+00 0. -1.
</event>
<event>
 7    1  0.2840156E-009  0.7496702E+02  0.7561462E-02  0.1343973E+00
         -1   -1    0    0    0  501 -0.00000000000E+00  0.00000000000E+00  0.22173969408E+03  0.22173969408E+03  0.00000000000E+00 0.  1.
          1   -1    0    0  501    0  0.00000000000E+00 -0.00000000000E+00 -0.13528157602E+03  0.13528157602E+03  0.00000000000E+00 0. -1.
         25    2    1    2    0    0 -0.38522130170E+02  0.75828093392E+00 -0.87037649823E+02  0.15718733216E+03  0.12509106843E+03 0.  0.
          5    1    3    3  502    0 -0.92658054756E+01 -0.22445517019E+02  0.27334724765E+02  0.36801032096E+02  0.41800000000E+01 0.  1.
         -5    1    3    3    0  502 -0.29256324695E+02  0.23203797953E+02 -0.11437237459E+03  0.12038630006E+03  0.41800000000E+01 0.  1.
        -11    1    1    2    0    0 -0.94300515245E+01  0.29532647651E+02  0.11184380403E+03  0.11606093076E+03  0.00000000000E+00 0.  1.
         11    1    1    2    0    0  0.47952181695E+02 -0.30290928585E+02  0.61651963855E+02  0.83773007174E+02  0.00000000000E+00 0. -1.
</event>
<event>
 7    1  0.2840156E-009  0.1035029E+03  0.7561462E-02  0.1273098E+00
          2   -1    0    0  501    0  0.00000000000E+00  0.00000000000E+00  0.92570740831E+03  0.92570740831E+03  0.00000000000E+00 0. -1.
         -2   -1    0    0    0  501 -0.00000000000E+00 -0.00000000000E+00 -0.19738020080E+02  0.19738020080E+02  0.00000000000E+00 0.  1.
         25    2    1    2    0    0 -0.32519079390E+02  0.67808612590E+02  0.59197661575E+03  0.60970441136E+03  0.12509059584E+03 0.  0.
          5    1    3    3  502    0  0.66282778139E+00  0.70446454581E+02  0.55619880775E+03  0.56065829918E+03  0.41800000000E+01 0. -1.
         -5    1    3    3    0  502 -0.33181907171E+02 -0.26378419906E+01  0.35777808000E+02  0.49046112172E+02  0.41800000000E+01 0. -1.
        -11    1    1    2    0    0 -0.17900056484E+02 -0.43238024916E+02  0.23020583494E+03  0.23491416573E+03  0.00000000000E+00 0.  1.
         11    1    1    2    0    0  0.50419135874E+02 -0.24570587675E+02  0.83786937541E+02  0.10082685130E+03  0.00000000000E+00 0. -1.
</event>
<event>
 7    1  0.2840156E-009  0.1051226E+03  0.7561462E-02  0.1269878E+00
         -1   -1    0    0    0  501 -0.00000000000E+00  0.00000000000E+00  0.49575122369E+03  0.49575122369E+03  0.00000000000E+00 0.  1.
          1   -1    0    0  501    0  0.00000000000E+00 -0.00000000000E+00 -0.29558598666E+02  0.29558598666E+02  0.00000000000E+00 0. -1.
         25    2    1    2    0    0 -0.60431200259E+01 -0.33690741223E+02  0.34284732197E+03  0.36656006980E+03  0.12510161168E+03 0.  0.
          5    1    3    3  502    0 -0.58543510668E+02 -0.20608454478E+02  0.10036112490E+03  0.11807573344E+03  0.41800000000E+01 0. -1.
         -5    1    3    3    0  502  0.52500390642E+02 -0.13082286745E+02  0.24248619708E+03  0.24848433636E+03  0.41800000000E+01 0. -1.
        -11    1    1    2    0    0  0.11915378786E+02 -0.28716197088E+02  0.17340728765E+02  0.35599116575E+02  0.00000000000E+00 0. -1.
         11    1    1    2    0    0 -0.58722587598E+01  0.62406938311E+02  0.10600457428E+03  0.12315063597E+03  0.00000000000E+00 0.  1.
</event>
<event>
 7    1  0.2840156E-009  0.8361328E+02  0.7561462E-02  0.1319099E+00
          2   -1    0    0  501    0  0.00000000000E+00  0.00000000000E+00  0.46157964375E+02  0.46157964375E+02  0.00000000000E+00 0. -1.
         -2   -1    0    0    0  501 -0.00000000000E+00 -0.00000000000E+00 -0.24503382811E+03  0.24503382811E+03  0.00000000000E+00 0.  1.
         25    2    1    2    0    0 -0.16505534716E+02 -0.85727748044E+01 -0.97781391312E+02  0.15985918351E+03  0.12509129835E+03 0.  0.
          5    1    3    3  502    0 -0.59913849289E+02 -0.16335914072E+02 -0.12101829611E+02  0.63407082453E+02  0.41800000000E+01 0.  1.
         -5    1    3    3    0  502  0.43408314574E+02  0.77631392677E+01 -0.85679561702E+02  0.96452101059E+02  0.41800000000E+01 0.  1.
        -11    1    1    2    0    0  0.38293418253E+02  0.53405246758E+01 -0.13409347077E+02  0.40923314557E+02  0.00000000000E+00 0. -1.
         11    1    1    2    0    0 -0.21787883537E+02  0.32322501286E+01 -0.87685125350E+02  0.90409294420E+02  0.00000000000E+00 0.  1.
</event>
<event>
 7    1  0.2840156E-009  0.1719885E+03  0.7561462E-02  0.1175790E+00
         -1   -1    0    0    0  501 -0.00000000000E+00  0.00000000000E+00  0.66142804222E+02  0.66142804222E+02  0.00000000000E+00 0.  1.
          1   -1    0    0  501    0  0.00000000000E+00 -0.00000000000E+00 -0.73907569137E+03  0.73907569137E+03  0.00000000000E+00 0. -1.
         25    2    1    2    0    0  0.60029776205E+02 -0.13679113172E+03 -0.56918775463E+03  0.60161195693E+03  0.12508740525E+03 0.  0.
          5    1    3    3  502    0 -0.26568440892E+02 -0.51165728337E+02 -0.88388629230E+02  0.10561172276E+03  0.41800000000E+01 0.  1.
         -5    1    3    3    0  502  0.86598217097E+02 -0.85625403379E+02 -0.48079912540E+03  0.49600023417E+03  0.41800000000E+01 0.  1.
        -11    1    1    2    0    0  0.14229295199E+02  0.39095904659E+02  0.19479105303E+01  0.41650413665E+02  0.00000000000E+00 0.  1.
         11    1    1    2    0    0 -0.74259071404E+02  0.97695227056E+02 -0.10569304305E+03  0.16195612500E+03  0.00000000000E+00 0. -1.
</event>
<event>
 7    1  0.2840156E-009  0.1767668E+03  0.7561462E-02  0.1170969E+00
         -1   -1    0    0    0  501 -0.00000000000E+00  0.00000000000E+00  0.12479755002E+03  0.12479755002E+03  0.00000000000E+00 0.  1.
          1   -1    0    0  501    0  0.00000000000E+00 -0.00000000000E+00 -0.32195337941E+03  0.32195337941E+03  0.00000000000E+00 0. -1.
         25    2    1    2    0    0  0.13385282397E+03 -0.70501376108E+02 -0.18278459083E+02  0.19715571460E+03  0.12509696724E+03 0.  0.
          5    1    3    3  502    0  0.15541163806E+03 -0.47559973452E+02 -0.25552046283E+02  0.16457553824E+03  0.41800000000E+01 0.  1.
         -5    1    3    3    0  502 -0.21558814085E+02 -0.22941402656E+02  0.72735872008E+01  0.32580176355E+02  0.41800000000E+01 0.  1.
        -11    1    1    2    0    0 -0.10954259816E+03  0.32820661747E+02 -0.75823402469E+02  0.13720774399E+03  0.00000000000E+00 0.  1.
         11    1    1    2    0    0 -0.24310225816E+02  0.37680714361E+02 -0.10305396785E+03  0.11238747085E+03  0.00000000000E+00 0. -1.
</event>
<event>
 7    1  0.2840156E-009  0.1234942E+03  0.7561462E-02  0.1237442E+00
         -1   -1    0    0    0  501 -0.00000000000E+00  0.00000000000E+00  0.13422498268E+03  0.13422498268E+03  0.00000000000E+00 0.  1.
          1   -1    0    0  501    0  0.00000000000E+00 -0.00000000000E+00 -0.14350010126E+03  0.14350010126E+03  0.00000000000E+00 0. -1.
         25    2    1    2    0    0 -0.34025868995E+01  0.64059467095E+02 -0.62840426719E+02  0.15398617321E+03  0.12509048480E+03 0.  0.
          5    1    3    3  502    0 -0.60206034335E+02  0.15207359763E+02 -0.12098095472E+02  0.63402418529E+02  0.41800000000E+01 0. -1.
         -5    1    3    3    0  502  0.56803447435E+02  0.48852107332E+02 -0.50742331247E+02  0.90583754679E+02  0.41800000000E+01 0. -1.
        -11    1    1    2    0    0  0.46066249932E+02 -0.38031469779E+02  0.17967237146E+02  0.62380395054E+02  0.00000000000E+00 0. -1.
         11    1    1    2    0    0 -0.42663663033E+02 -0.26027997315E+02  0.35598070997E+02  0.61358515679E+02  0.00000000000E+00 0.  1.
</event>
<event>
 7    1  0.2840156E-009  0.1358936E+03  0.7561462E-02  0.1218964E+00
         -2   -1    0    0    0  501 -0.00000000000E+00  0.00000000000E+00  0.26479249228E+02  0.26479249228E+02  0.00000000000E+00 0.  1.
          2   -1    0    0  501    0  0.00000000000E+00 -0.00000000000E+00 -0.89597741867E+03  0.89597741867E+03  0.00000000000E+00 0. -1.
         25    2    1    2    0    0  0.25971839865E+02 -0.95490689393E+02 -0.33316034218E+03  0.36937176039E+03  0.12508667213E+03 0.  0.
          5    1    3    3  502    0  0.60045534245E+02 -0.42913256298E+02 -0.27143632781E+03  0.28132217510E+03  0.41800000000E+01 0. -1.
         -5    1    3    3    0  502 -0.34073694381E+02 -0.52577433095E+02 -0.61724014372E+02  0.88049585291E+02  0.41800000000E+01 0. -1.
        -11    1    1    2    0    0 -0.57378489991E+02  0.35819730004E+02 -0.26846409562E+03  0.27685432056E+03  0.00000000000E+00 0. -1.
         11    1    1    2    0    0  0.31406650126E+02  0.59670959390E+02 -0.26787373163E+03  0.27623058695E+03  0.00000000000E+00 0.  1.
</event>
<event>
 7    1  0.2840156E-009  0.1208218E+03  0.7561462E-02  0.1241747E+00
          2   -1    0    0  501    0  0.00000000000E+00  0.00000000000E+00  0.82011916867E+03  0.82011916867E+03  0.00000000000E+00 0.  1.
         -2   -1    0    0    0  501 -0.00000000000E+00 -0.00000000000E+00 -0.18801676397E+02  0.18801676397E+02  0.00000000000E+00 0. -1.
         25    2    1    2    0    0 -0.31512122397E+02  0.51478539746E+02  0.43980900033E+03  0.46121800736E+03  0.12508812743E+03 0.  0.
          5    1    3    3  502    0 -0.70408453398E+01  0.87890877948E+02  0.22025887501E+03  0.23728848339E+03  0.41800000000E+01 0. -1.
         -5    1    3    3    0  502 -0.24471277058E+02 -0.36412338202E+02  0.21955012532E+03  0.22392952397E+03  0.41800000000E+01 0. -1.
        -11    1    1    2    0    0  0.52554908510E+02 -0.65528392231E+02  0.28477984133E+03  0.29690999751E+03  0.00000000000E+00 0.  1.
         11    1    1    2    0    0 -0.21042786112E+02  0.14049852485E+02  0.76728650607E+02  0.80792840192E+02  0.00000000000E+00 0. -1.
</event>
<event>
 7    1  0.2840156E-009  0.1017852E+03  0.7561462E-02  0.1276586E+00
          2   -1    0    0  501    0  0.00000000000E+00  0.00000000000E+00  0.76913440433E+03  0.76913440433E+03  0.00000000000E+00 0. -1.
         -2   -1    0    0    0  501 -0.00000000000E+00 -0.00000000000E+00 -0.15567369680E+02  0.15567369680E+02  0.00000000000E+00 0.  1.
         25    2    1    2    0    0 -0.48963237968E+01 -0.14315226928E+02  0.54165549741E+03  0.55611770782E+03  0.12508927761E+03 0.  0.
          5    1    3    3  502    0 -0.43444689256E+02  0.35268993030E+02  0.16606910178E+03  0.17529335943E+03  0.41800000000E+01 0. -1.
         -5    1    3    3    0  502  0.38548365459E+02 -0.49584219958E+02  0.37558639562E+03  0.38082434839E+03  0.41800000000E+01 0. -1.
        -11    1    1    2    0    0  0.36049650130E+02 -0.17422230661E+02  0.81619857942E+02  0.90911564755E+02  0.00000000000E+00 0.  1.
         11    1    1    2    0    0 -0.31153326333E+02  0.31737457589E+02  0.13029167930E+03  0.13767250143E+03  0.00000000000E+00 0. -1.
</event>
<event>
 7    1  0.2840156E-009  0.1418685E+03  0.7561462E-02  0.1210837E+00
         -1   -1    0    0    0  501 -0.00000000000E+00  0.00000000000E+00  0.55081263222E+02  0.55081263222E+02  0.00000000000E+00 0.  1.
          1   -1    0    0  501    0  0.00000000000E+00 -0.00000000000E+00 -0.47570677086E+03  0.47570677086E+03  0.00000000000E+00 0. -1.
         25    2    1    2    0    0  0.64368140893E+02  0.10085894886E+03 -0.20941916987E+03  0.27169811380E+03  0.12509073190E+03 0.  0.
          5    1    3    3  502    0  0.10897476232E+02  0.96334307472E+02 -0.62991208308E+02  0.11569104766E+03  0.41800000000E+01 0.  1.
         -5    1    3    3    0  502  0.53470664661E+02  0.45246413925E+01 -0.14642796156E+03  0.15600706614E+03  0.41800000000E+01 0.  1.
        -11    1    1    2    0    0 -0.25074559483E+02 -0.48106963059E+00 -0.38288974762E+01  0.25369773692E+02  0.00000000000E+00 0.  1.
         11    1    1    2    0    0 -0.39293581409E+02 -0.10037787923E+03 -0.20737744029E+03  0.23372014658E+03  0.00000000000E+00 0. -1.
</event>
<event>
 7    1  0.2840156E-009  0.1918279E+03  0.7561462E-02  0.1156823E+00
         -2   -1    0    0    0  501 -0.00000000000E+00  0.00000000000E+00  0.29878834739E+03  0.29878834739E+03  0.00000000000E+00 0.  1.
          2   -1    0    0  501    0  0.00000000000E+00 -0.00000000000E+00 -0.16717428451E+03  0.16717428451E+03  0.00000000000E+00 0. -1.
         25    2    1    2    0    0 -0.34796845741E+02  0.16631972719E+03  0.16794624119E+03  0.26967997760E+03  0.12509307840E+03 0.  0.
          5    1    3    3  502    0 -0.40549905325E+01 -0.19316822987E+02  0.30724643225E+02  0.36756750399E+02  0.41800000000E+01 0.  1.
         -5    1    3    3    0  502 -0.30741855209E+02  0.18563655018E+03  0.13722159797E+03  0.23292322721E+03  0.41800000000E+01 0.  1.
        -11    1    1    2    0    0  0.15891403857E+02 -0.12305565413E+02  0.22648949972E+02  0.30280993899E+02  0.00000000000E+00 0.  1.
         11    1    1    2    0    0  0.18905441884E+02 -0.15401416178E+03 -0.58981128280E+02  0.16600166039E+03  0.00000000000E+00 0. -1.
</event>
<event>
 7    1  0.2840156E-009  0.8321406E+02  0.7561462E-02  0.1320170E+00
          4   -1    0    0  501    0  0.00000000000E+00  0.00000000000E+00  0.82497595753E+02  0.82497595753E+02  0.00000000000E+00 0.  1.
         -4   -1    0    0    0  501 -0.00000000000E+00 -0.00000000000E+00 -0.19350507423E+03  0.19350507423E+03  0.00000000000E+00 0. -1.
         25    2    1    2    0    0  0.33504781313E+02 -0.56453955462E+02 -0.52047853083E+02  0.15054116184E+03  0.12507614856E+03 0.  0.
          5    1    3    3  502    0  0.50918645988E+02 -0.11541859994E+02  0.26196288610E+02  0.58563136685E+02  0.41800000000E+01 0.  1.
         -5    1    3    3    0  502 -0.17413864675E+02 -0.44912095468E+02 -0.78244141693E+02  0.91978025156E+02  0.41800000000E+01 0.  1.
        -11    1    1    2    0    0 -0.22298692396E+02  0.35102429677E+02  0.17627539005E+02  0.45167935343E+02  0.00000000000E+00 0.  1.
         11    1    1    2    0    0 -0.11206088917E+02  0.21351525785E+02 -0.76587164400E+02  0.80293572800E+02  0.00000000000E+00 0. -1.
</event>
<event>
 7    1  0.2840156E-009  0.1335583E+03  0.7561462E-02  0.1222269E+00
         -1   -1    0    0    0  501 -0.00000000000E+00  0.00000000000E+00  0.19349673604E+02  0.19349673604E+02  0.00000000000E+00 0.  1.
          1   -1    0    0  501    0  0.00000000000E+00 -0.00000000000E+00 -0.13502143330E+04  0.13502143330E+04  0.00000000000E+00 0. -1.
         25    2    1    2    0    0  0.26424977246E+02 -0.10190341767E+03 -0.10842767145E+04  0.10965335171E+04  0.12508866615E+03 0.  0.
          5    1    3    3  502    0  0.67928880359E+02 -0.97372712572E+02 -0.70454604228E+03  0.71449169067E+03  0.41800000000E+01 0.  1.
         -5    1    3    3    0  502 -0.41503903113E+02 -0.45307050989E+01 -0.37973067227E+03  0.38204182641E+03  0.41800000000E+01 0.  1.
        -11    1    1    2    0    0 -0.15286884424E+02  0.83174077372E+02 -0.23166985679E+03  0.24662225878E+03  0.00000000000E+00 0. -1.
         11    1    1    2    0    0 -0.11138092822E+02  0.18729340299E+02 -0.14918088051E+02  0.26408230740E+02  0.00000000000E+00 0.  1.
</event>
<event>
 7    1  0.2840156E-009  0.5625298E+02  0.7561462E-02  0.1414265E+00
          1   -1    0    0  501    0  0.00000000000E+00  0.00000000000E+00  0.26093051513E+03  0.26093051513E+03  0.00000000000E+00 0. -1.
         -1   -1    0    0    0  501 -0.00000000000E+00 -0.00000000000E+00 -0.43373965486E+02  0.43373965486E+02  0.00000000000E+00 0.  1.
         25    2    1    2    0    0 -0.73708342136E+01  0.40804250199E+01  0.14475472557E+03  0.19150052774E+03  0.12509013744E+03 0.  0.
          5    1    3    3  502    0  0.80627601834E+01 -0.21085678904E+02  0.15743491614E+03  0.15910009170E+03  0.41800000000E+01 0. -1.
         -5    1    3    3    0  502 -0.15433594397E+02  0.25166103924E+02 -0.12680190578E+02  0.32400436044E+02  0.41800000000E+01 0. -1.
        -11    1    1    2    0    0  0.21327111365E+02  0.21693661845E+02  0.77373791617E+02  0.83139426703E+02  0.00000000000E+00 0. -1.
         11    1    1    2    0    0 -0.13956277151E+02 -0.25774086865E+02 -0.45719675422E+01  0.29664526169E+02  0.00000000000E+00 0.  1.
</event>
<event>
 7    1  0.2840156E-009  0.8443190E+02  0.7561462E-02  0.1316925E+00
          2   -1    0    0  501    0  0.00000000000E+00  0.00000000000E+00  0.86919342660E+02  0.86919342660E+02  0.00000000000E+00 0. -1.
         -2   -1    0    0    0  501 -0.00000000000E+00 -0.00000000000E+00 -0.12415959799E+03  0.12415959799E+03  0.00000000000E+00 0.  1.
         25    2    1    2    0    0  0.19991939681E+02  0.11165671884E+02 -0.17480449719E+02  0.12836398636E+03  0.12508955589E+03 0.  0.
          5    1    3    3  502    0 -0.38641972553E+02 -0.17556242800E+02  0.25869405705E+02  0.49881081139E+02  0.41800000000E+01 0.  1.
         -5    1    3    3    0  502  0.58633912234E+02  0.28721914684E+02 -0.43349855424E+02  0.78482905223E+02  0.41800000000E+01 0.  1.
        -11    1    1    2    0    0  0.17279504209E+01  0.21496714302E+02  0.18133151184E+02  0.28176332450E+02  0.00000000000E+00 0. -1.
         11    1    1    2    0    0 -0.21719890102E+02 -0.32662386186E+02 -0.37892956799E+02  0.54538621842E+02  0.00000000000E+00 0.  1.
</event>
<event>
 7    1  0.2840156E-009  0.1268688E+03  0.7561462E-02  0.1232177E+00
         -1   -1    0    0    0  501 -0.00000000000E+00  0.00000000000E+00  0.45398904189E+02  0.45398904189E+02  0.00000000000E+00 0.  1.
          1   -1    0    0  501    0  0.00000000000E+00 -0.00000000000E+00 -0.39012469542E+03  0.39012469542E+03  0.00000000000E+00 0. -1.
         25    2    1    2    0    0  0.19038948525E+01 -0.70153248841E+02 -0.14244362405E+03  0.20214713296E+03  0.12509266242E+03 0.  0.
          5    1    3    3  502    0  0.91576581207E+01 -0.10419019301E+03 -0.12486049064E+03  0.16293272705E+03  0.41800000000E+01 0. -1.
         -5    1    3    3    0  502 -0.72537632682E+01  0.34036944169E+02 -0.17583133406E+02  0.39214405903E+02  0.41800000000E+01 0. -1.
        -11    1    1    2    0    0 -0.44682171046E+02  0.22685450055E+02 -0.11270863636E+03  0.12334651500E+03  0.00000000000E+00 0. -1.
         11    1    1    2    0    0  0.42778276193E+02  0.47467798786E+02 -0.89573530827E+02  0.11002995165E+03  0.00000000000E+00 0.  1.
</event>
<event>
 7    1  0.2840156E-009  0.1083543E+03  0.7561462E-02  0.1263648E+00
          1   -1    0    0  501    0  0.00000000000E+00  0.00000000000E+00  0.88007903600E+02  0.88007903600E+02  0.00000000000E+00 0. -1.
         -1   -1    0    0    0  501 -0.00000000000E+00 -0.00000000000E+00 -0.16705327956E+03  0.16705327956E+03  0.00000000000E+00 0.  1.
         25    2    1    2    0    0 -0.33495727253E+02  0.36829775259E+02 -0.24133847552E+02  0.13677788808E+03  0.12508937597E+03 0.  0.
          5    1    3    3  502    0  0.20655910822E+02 -0.32997813425E+02 -0.28151333860E+02  0.48223358871E+02  0.41800000000E+01 0.  1.
         -5    1    3    3    0  502 -0.54151638075E+02  0.69827588684E+02  0.40174863080E+01  0.88554529212E+02  0.41800000000E+01 0.  1.
        -11    1    1    2    0    0  0.35213285135E+02  0.14246894866E+02  0.63399582311E+01  0.38511615569E+02  0.00000000000E+00 0. -1.
         11    1    1    2    0    0 -0.17175578820E+01 -0.51076670126E+02 -0.61251486638E+02  0.79771679509E+02  0.00000000000E+00 0.  1.
</event>
<event>
 7    1  0.2840156E-009  0.1151634E+03  0.7561462E-02  0.1251296E+00
          1   -1    0    0  501    0  0.00000000000E+00  0.00000000000E+00  0.62470753556E+03  0.62470753556E+03  0.00000000000E+00 0. -1.
         -1   -1    0    0    0  501 -0.00000000000E+00 -0.00000000000E+00 -0.34019229641E+02  0.34019229641E+02  0.00000000000E+00 0.  1.
         25    2    1    2    0    0  0.45660988690E+02  0.85076656596E+02  0.35200513189E+03  0.38584775994E+03  0.12509163676E+03 0.  0.
          5    1    3    3  502    0 -0.17839642323E+02  0.23320183356E+02  0.81708353024E+01  0.30762294120E+02  0.41800000000E+01 0. -1.
         -5    1    3    3    0  502  0.63500631012E+02  0.61756473240E+02  0.34383429658E+03  0.35508546582E+03  0.41800000000E+01 0. -1.
        -11    1    1    2    0    0  0.11105338436E+01 -0.57875266307E+02  0.49673030057E+02  0.76277058482E+02  0.00000000000E+00 0.  1.
         11    1    1    2    0    0 -0.46771522533E+02 -0.27201390289E+02  0.18901014397E+03  0.19660194678E+03  0.00000000000E+00 0. -1.
</event>
<event>
 7    1  0.2840156E-009  0.8020366E+02  0.7561462E-02  0.1328474E+00
          1   -1    0    0  501    0  0.00000000000E+00  0.00000000000E+00  0.33772632705E+03  0.33772632705E+03  0.00000000000E+00 0. -1.
         -1   -1    0    0    0  501 -0.00000000000E+00 -0.00000000000E+00 -0.34846626075E+02  0.34846626075E+02  0.00000000000E+00 0.  1.
         25    2    1    2    0    0 -0.11560354414E+01 -0.26676165383E+01  0.16512177789E+03  0.20717372233E+03  0.12508915658E+03 0.  0.
          5    1    3    3  502    0  0.40848849390E+02 -0.11419816620E+02  0.15778973312E+03  0.16344452572E+03  0.41800000000E+01 0. -1.
         -5    1    3    3    0  502 -0.42004884832E+02  0.87522000814E+01  0.73320447680E+01  0.43729196614E+02  0.41800000000E+01 0. -1.
        -11    1    1    2    0    0 -0.18882033492E+02 -0.30531759579E+02  0.19304631703E+02  0.40760131710E+02  0.00000000000E+00 0.  1.
         11    1    1    2    0    0  0.20038068934E+02  0.33199376118E+02  0.11845329138E+03  0.12463909908E+03  0.00000000000E+00 0. -1.
</event>
<event>
 7    1  0.2840156E-009  0.7019133E+02  0.7561462E-02  0.1359444E+00
         -1   -1    0    0    0  501 -0.00000000000E+00  0.00000000000E+00  0.22765763319E+02  0.22765763319E+02  0.00000000000E+00 0.  1.
          1   -1    0    0  501    0  0.00000000000E+00 -0.00000000000E+00 -0.51440221882E+03  0.51440221882E+03  0.00000000000E+00 0. -1.
         25    2    1    2    0    0 -0.11157469700E+02 -0.57134438962E+01 -0.27292170722E+03  0.30048579009E+03  0.12509324202E+03 0.  0.
          5    1    3    3  502    0 -0.61950628884E+01 -0.30751484501E+02 -0.58723671877E+01  0.32186793869E+02  0.41800000000E+01 0.  1.
         -5    1    3    3    0  502 -0.49624068114E+01  0.25038040605E+02 -0.26704934003E+03  0.26829899622E+03  0.41800000000E+01 0.  1.
        -11    1    1    2    0    0  0.39935207647E+02  0.26007571256E+02 -0.17012501008E+03  0.17667408872E+03  0.00000000000E+00 0. -1.
         11    1    1    2    0    0 -0.28777737947E+02 -0.20294127360E+02 -0.48589738204E+02  0.60008103331E+02  0.00000000000E+00 0.  1.
</event>
<event>
 7    1  0.2840156E-009  0.1003950E+03  0.7561462E-02  0.1279468E+00
          2   -1    0    0  501    0  0.00000000000E+00  0.00000000000E+00  0.66453291353E+02  0.66453291353E+02  0.00000000000E+00 0. -1.
         -2   -1    0    0    0  501 -0.00000000000E+00 -0.00000000000E+00 -0.27090172332E+03  0.27090172332E+03  0.00000000000E+00 0.  1.
         25    2    1    2    0    0  0.34986836617E+01 -0.16074946752E+02 -0.15863829019E+02  0.12716082688E+03  0.12509024790E+03 0.  0.
          5    1    3    3  502    0 -0.54464878033E+02 -0.34075172849E+01  0.19336532308E+02  0.58046601923E+02  0.41800000000E+01 0.  1.
         -5    1    3    3    0  502  0.57963561694E+02 -0.12667429467E+02 -0.35200361327E+02  0.69114224955E+02  0.41800000000E+01 0.  1.
        -11    1    1    2    0    0 -0.28455137290E+02 -0.25421683160E+02 -0.12224537933E+03  0.12806205363E+03  0.00000000000E+00 0.  1.
         11    1    1    2    0    0  0.24956453629E+02  0.41496629912E+02 -0.66339223619E+02  0.82132134163E+02  0.00000000000E+00 0. -1.
</event>
<event>
 7    1  0.2840156E-009  0.1668840E+03  0.7561462E-02  0.1181137E+00
         -2   -1    0    0    0  501 -0.00000000000E+00  0.00000000000E+00  0.20107566104E+02  0.20107566104E+02  0.00000000000E+00 0.  1.
          2   -1    0    0  501    0  0.00000000000E+00 -0.00000000000E+00 -0.14443087909E+04  0.14443087909E+04  0.00000000000E+00 0. -1.
         25    2    1    2    0    0 -0.13179250952E+03 -0.49886727223E+01 -0.75602738951E+03  0.77757276388E+03  0.12509131476E+03 0.  0.
          5    1    3    3  502    0 -0.15407400292E+03  0.55793016097E+01 -0.68846113461E+03  0.70552543062E+03  0.41800000000E+01 0.  1.
         -5    1    3    3    0  502  0.22281493401E+02 -0.10567974332E+02 -0.67566254896E+02  0.72047333264E+02  0.41800000000E+01 0.  1.
        -11    1    1    2    0    0  0.10041639700E+03  0.39478197441E+02 -0.53421092808E+03  0.54499843719E+03  0.00000000000E+00 0. -1.
         11    1    1    2    0    0  0.31376112522E+02 -0.34489524719E+02 -0.13396290716E+03  0.14184515588E+03  0.00000000000E+00 0.  1.
</event>
<event>
 7    1  0.2840156E-009  0.2253390E+03  0.7561462E-02  0.1129964E+00
         -2   -1    0    0    0  501 -0.00000000000E+00  0.00000000000E+00  0.14370117134E+03  0.14370117134E+03  0.00000000000E+00 0. -1.
          2   -1    0    0  501    0  0.00000000000E+00 -0.00000000000E+00 -0.37290596571E+03  0.37290596571E+03  0.00000000000E+00 0.  1.
         25    2    1    2    0    0 -0.25918689410E+02  0.20076962642E+03 -0.94184841881E+02  0.25592656410E+03  0.12508956957E+03 0.  0.
          5    1    3    3  502    0  0.31442514307E+02  0.14866236801E+03 -0.29384819093E+02  0.15482270945E+03  0.41800000000E+01 0. -1.
         -5    1    3    3    0  502 -0.57361203718E+02  0.52107258418E+02 -0.64800022788E+02  0.10110385465E+03  0.41800000000E+01 0. -1.
        -11    1    1    2    0    0  0.57303850484E+02 -0.97127059404E+02 -0.85949273154E+02  0.14179095354E+03  0.00000000000E+00 0.  1.
         11    1    1    2    0    0 -0.31385161073E+02 -0.10364256702E+03 -0.49070679338E+02  0.11888961941E+03  0.00000000000E+00 0. -1.
</event>
<event>
 7    1  0.2840156E-009  0.9419655E+02  0.7561462E-02  0.1292996E+00
          1   -1    0    0  501    0  0.00000000000E+00  0.00000000000E+00  0.22555506540E+03  0.22555506540E+03  0.00000000000E+00 0. -1.
         -1   -1    0    0    0  501 -0.00000000000E+00 -0.00000000000E+00 -0.99215600393E+02  0.99215600393E+02  0.00000000000E+00 0.  1.
         25    2    1    2    0    0  0.27923587649E+02 -0.55028996662E+02  0.13057345903E+03  0.19106289945E+03  0.12509071158E+03 0.  0.
          5    1    3    3  502    0  0.29212889432E+02 -0.48912309552E+02  0.15516543177E+03  0.16534687947E+03  0.41800000000E+01 0.  1.
         -5    1    3    3    0  502 -0.12893017830E+01 -0.61166871096E+01 -0.24591972740E+02  0.25716019978E+02  0.41800000000E+01 0.  1.
        -11    1    1    2    0    0 -0.67915777647E+02  0.47943170110E+02  0.21190552757E+02  0.85791257944E+02  0.00000000000E+00 0.  1.
         11    1    1    2    0    0  0.39992189998E+02  0.70858265516E+01 -0.25424546776E+02  0.47916508402E+02  0.00000000000E+00 0. -1.
</event>
<event>
 7    1  0.2840156E-009  0.1700597E+03  0.7561462E-02  0.1177786E+00
          1   -1    0    0  501    0  0.00000000000E+00  0.00000000000E+00  0.26999512128E+03  0.26999512128E+03  0.00000000000E+00 0. -1.
         -1   -1    0    0    0  501 -0.00000000000E+00 -0.00000000000E+00 -0.18208981121E+03  0.18208981121E+03  0.00000000000E+00 0.  1.
         25    2    1    2    0    0 -0.99448828378E+02 -0.10810091422E+03  0.17258131972E+03  0.25885990222E+03  0.12509300516E+03 0.  0.
          5    1    3    3  502    0  0.23349454725E+02  0.35174593965E+01  0.39025408829E+02  0.45804197306E+02  0.41800000000E+01 0.  1.
         -5    1    3    3    0  502 -0.12279828310E+03 -0.11161837361E+03  0.13355591089E+03  0.21305570491E+03  0.41800000000E+01 0.  1.
        -11    1    1    2    0    0  0.46986179496E+02  0.73705237285E+02  0.53839809962E+00  0.87409684471E+02  0.00000000000E+00 0.  1.
         11    1    1    2    0    0  0.52462648883E+02  0.34395676933E+02 -0.85214407746E+02  0.10581534580E+03  0.00000000000E+00 0. -1.
</event>
<event>
 7    1  0.2840156E-009  0.4502336E+03  0.7561462E-02  0.1027652E+00
          2   -1    0    0  501    0  0.00000000000E+00  0.00000000000E+00  0.42611544253E+03  0.42611544253E+03  0.00000000000E+00 0. -1.
         -2   -1    0    0    0  501 -0.00000000000E+00 -0.00000000000E+00 -0.49557263604E+03  0.49557263604E+03  0.00000000000E+00 0.  1.
         25    2    1    2    0    0 -0.41763118991E+03 -0.15567507976E+03 -0.24352118747E+02  0.46356286747E+03  0.12508782979E+03 0.  0.
          5    1    3    3  502    0 -0.34852803727E+03 -0.14214292165E+03  0.25344968547E+02  0.37727475766E+03  0.41800000000E+01 0. -1.
         -5    1    3    3    0  502 -0.69103152644E+02 -0.13532158112E+02 -0.49697087294E+02  0.86288109807E+02  0.41800000000E+01 0. -1.
        -11    1    1    2    0    0  0.37099125420E+03  0.10704814385E+03 -0.54999648233E+02  0.39002407246E+03  0.00000000000E+00 0.  1.
         11    1    1    2    0    0  0.46639935717E+02  0.48626935913E+02  0.98945734640E+01  0.68101138640E+02  0.00000000000E+00 0. -1.
</event>
<event>
 7    1  0.2840156E-009  0.3719100E+03  0.7561462E-02  0.1053965E+00
         -2   -1    0    0    0  501 -0.00000000000E+00  0.00000000000E+00  0.47690183323E+03  0.47690183323E+03  0.00000000000E+00 0.  1.
          2   -1    0    0  501    0  0.00000000000E+00 -0.00000000000E+00 -0.31297792031E+03  0.31297792031E+03  0.00000000000E+00 0. -1.
         25    2    1    2    0    0 -0.30049554464E+03  0.21331059315E+03  0.12373236827E+03  0.40835775967E+03  0.12508948569E+03 0.  0.
          5    1    3    3  502    0 -0.16293738238E+03  0.97427080781E+02 -0.20122949210E+00  0.18988980894E+03  0.41800000000E+01 0. -1.
         -5    1    3    3    0  502 -0.13755816226E+03  0.11588351237E+03  0.12393359776E+03  0.21846795073E+03  0.41800000000E+01 0. -1.
        -11    1    1    2    0    0  0.16687291308E+03 -0.15664492175E+03 -0.67590305112E+01  0.22897573043E+03  0.00000000000E+00 0.  1.
         11    1    1    2    0    0  0.13362263156E+03 -0.56665671396E+02  0.46950575168E+02  0.15254626343E+03  0.00000000000E+00 0. -1.
</event>
<event>
 7    1  0.2840156E-009  0.1939547E+03  0.7561462E-02  0.1154942E+00
          2   -1    0    0  501    0  0.00000000000E+00  0.00000000000E+00  0.58310201483E+03  0.58310201483E+03  0.00000000000E+00 0. -1.
         -2   -1    0    0    0  501 -0.00000000000E+00 -0.00000000000E+00 -0.87310718689E+02  0.87310718689E+02  0.00000000000E+00 0.  1.
         25    2    1    2    0    0 -0.11826263233E+03  0.14054697163E+03  0.36688681029E+03  0.42894397795E+03  0.12508998050E+03 0.  0.
          5    1    3    3  502    0 -0.74473511712E+01  0.40644411675E+02  0.10908509574E+02  0.42940647654E+02  0.41800000000E+01 0. -1.
         -5    1    3    3    0  502 -0.11081528116E+03  0.99902559953E+02  0.35597830071E+03  0.38600333030E+03  0.41800000000E+01 0. -1.
        -11    1    1    2    0    0  0.44466643495E+02 -0.76670730977E+01  0.58709405732E+02  0.74046341672E+02  0.00000000000E+00 0. -1.
         11    1    1    2    0    0  0.73795988835E+02 -0.13287989853E+03  0.70195080127E+02  0.16742241390E+03  0.00000000000E+00 0.  1.
</event>
<event>
 7    1  0.2840156E-009  0.1039927E+03  0.7561462E-02  0.1272117E+00
         -2   -1    0    0    0  501 -0.00000000000E+00  0.00000000000E+00  0.15833889448E+02  0.15833889448E+02  0.00000000000E+00 0.  1.
          2   -1    0    0  501    0  0.00000000000E+00 -0.00000000000E+00 -0.10765924881E+04  0.10765924881E+04  0.00000000000E+00 0. -1.
         25    2    1    2    0    0  0.36226874756E+02 -0.51427769958E+02 -0.73962664517E+03  0.75276274572E+03  0.12508786963E+03 0.  0.
          5    1    3    3  502    0  0.47862444213E+02  0.16665321887E+02 -0.13625960747E+03  0.14543967666E+03  0.41800000000E+01 0.  1.
         -5    1    3    3    0  502 -0.11635569457E+02 -0.68093091845E+02 -0.60336703770E+03  0.60732306906E+03  0.41800000000E+01 0.  1.
        -11    1    1    2    0    0 -0.80444274059E+01  0.58353210107E+02 -0.29430746880E+03  0.30014445878E+03  0.00000000000E+00 0. -1.
         11    1    1    2    0    0 -0.28182447350E+02 -0.69254401491E+01 -0.26824484683E+02  0.39519173048E+02  0.00000000000E+00 0.  1.
</event>
<event>
 7    1  0.2840156E-009  0.1185904E+03  0.7561462E-02  0.1245441E+00
          1   -1    0    0  501    0  0.00000000000E+00  0.00000000000E+00  0.40413077841E+02  0.40413077841E+02  0.00000000000E+00 0. -1.
         -1   -1    0    0    0  501 -0.00000000000E+00 -0.00000000000E+00 -0.41488617555E+03  0.41488617555E+03  0.00000000000E+00 0.  1.
         25    2    1    2    0    0  0.81110784478E+01  0.67607039522E+02 -0.17604405704E+03  0.22643964093E+03  0.12508756766E+03 0.  0.
          5    1    3    3  502    0  0.60826911782E+02  0.54673342516E+02 -0.72134300997E+02  0.10913256782E+03  0.41800000000E+01 0. -1.
         -5    1    3    3    0  502 -0.52715833334E+02  0.12933697007E+02 -0.10390975604E+03  0.11730707311E+03  0.41800000000E+01 0. -1.
        -11    1    1    2    0    0  0.20400764749E+02 -0.69343926488E+02 -0.83528591520E+02  0.11046174426E+03  0.00000000000E+00 0. -1.
         11    1    1    2    0    0 -0.28511843197E+02  0.17368869654E+01 -0.11490044915E+03  0.11839786820E+03  0.00000000000E+00 0.  1.
</event>
<event>
 7    1  0.2840156E-009  0.8301372E+02  0.7561462E-02  0.1320710E+00
         -2   -1    0    0    0  501 -0.00000000000E+00  0.00000000000E+00  0.31070312280E+02  0.31070312280E+02  0.00000000000E+00 0. -1.
          2   -1    0    0  501    0  0.00000000000E+00 -0.00000000000E+00 -0.50230384169E+03  0.50230384169E+03  0.00000000000E+00 0.  1.
         25    2    1    2    0    0 -0.40299203446E+02 -0.16244824215E+02 -0.33973544646E+03  0.36463581025E+03  0.12510467784E+03 0.  0.
          5    1    3    3  502    0 -0.56424933140E+02  0.32634332523E+01 -0.55763925758E+02  0.79507929745E+02  0.41800000000E+01 0. -1.
         -5    1    3    3    0  502  0.16125729693E+02 -0.19508257468E+02 -0.28397152071E+03  0.28512788050E+03  0.41800000000E+01 0. -1.
        -11    1    1    2    0    0 -0.12750732848E+01  0.37146185164E+02 -0.11249303396E+03  0.11847424856E+03  0.00000000000E+00 0.  1.
         11    1    1    2    0    0  0.41574276731E+02 -0.20901360948E+02 -0.19005048992E+02  0.50264095162E+02  0.00000000000E+00 0. -1.
</event>
<event>
 7    1  0.2840156E-009  0.9573459E+02  0.7561462E-02  0.1289530E+00
          3   -1    0    0  501    0  0.00000000000E+00  0.00000000000E+00  0.14075830894E+03  0.14075830894E+03  0.00000000000E+00 0. -1.
         -3   -1    0    0    0  501 -0.00000000000E+00 -0.00000000000E+00 -0.96604931380E+02  0.96604931380E+02  0.00000000000E+00 0.  1.
         25    2    1    2    0    0  0.39847968597E+02  0.95627667284E+01  0.26025563956E+02  0.13417765675E+03  0.12508799496E+03 0.  0.
          5    1    3    3  502    0  0.59849277670E+02 -0.13141025228E+02  0.61806130467E+02  0.87132615851E+02  0.41800000000E+01 0.  1.
         -5    1    3    3    0  502 -0.20001309073E+02  0.22703791956E+02 -0.35780566510E+02  0.47045040903E+02  0.41800000000E+01 0.  1.
        -11    1    1    2    0    0 -0.12784988720E+02 -0.49577682343E+02 -0.10508117377E+01  0.51210416209E+02  0.00000000000E+00 0. -1.
         11    1    1    2    0    0 -0.27062979878E+02  0.40014915614E+02  0.19178625336E+02  0.51975167352E+02  0.00000000000E+00 0.  1.
</event>
<event>
 7    1  0.2840156E-009  0.9138917E+02  0.7561462E-02  0.1299522E+00
          1   -1    0    0  501    0  0.00000000000E+00  0.00000000000E+00  0.11301118781E+03  0.11301118781E+03  0.00000000000E+00 0. -1.
         -1   -1    0    0    0  501 -0.00000000000E+00 -0.00000000000E+00 -0.10899373897E+03  0.10899373897E+03  0.00000000000E+00 0.  1.
         25    2    1    2    0    0 -0.16318926167E+02 -0.97782779100E+00 -0.12151072374E+02  0.12673882223E+03  0.12509123471E+03 0.  0.
          5    1    3    3  502    0 -0.36227984037E+02 -0.34419606208E+02 -0.51046447834E+02  0.71556888944E+02  0.41800000000E+01 0.  1.
         -5    1    3    3    0  502  0.19909057871E+02  0.33441778417E+02  0.38895375459E+02  0.55181933285E+02  0.41800000000E+01 0.  1.
        -11    1    1    2    0    0 -0.22543217274E+02 -0.34271983534E+02  0.11436305879E+02  0.42585849676E+02  0.00000000000E+00 0. -1.
         11    1    1    2    0    0  0.38862143441E+02  0.35249811325E+02  0.47322153327E+01  0.52680254871E+02  0.00000000000E+00 0.  1.
</event>
<event>
 7    1  0.2840156E-009  0.1636164E+03  0.7561462E-02  0.1184673E+00
          3   -1    0    0  501    0  0.00000000000E+00  0.00000000000E+00  0.45542973082E+03  0.45542973082E+03  0.00000000000E+00 0. -1.
         -3   -1    0    0    0  501 -0.00000000000E+00 -0.00000000000E+00 -0.80921713139E+02  0.80921713139E+02  0.00000000000E+00 0.  1.
         25    2    1    2    0    0 -0.12987797714E+03  0.39161362053E+02  0.13910598610E+03  0.23108458185E+03  0.12509079654E+03 0.  0.
          5    1    3    3  502    0 -0.14305919470E+03  0.56691425187E+02  0.14089784828E+03  0.20868523410E+03  0.41800000000E+01 0. -1.
         -5    1    3    3    0  502  0.13181217563E+02 -0.17530063133E+02 -0.17918621892E+01  0.22399347758E+02  0.41800000000E+01 0. -1.
        -11    1    1    2    0    0  0.44681805533E+02 -0.47681037589E+02  0.20376747509E+03  0.21398861885E+03  0.00000000000E+00 0. -1.
         11    1    1    2    0    0  0.85196171606E+02  0.85196755358E+01  0.31634556495E+02  0.91278243257E+02  0.00000000000E+00 0.  1.
</event>
<event>
 7    1  0.2840156E-009  0.1828429E+03  0.7561462E-02  0.1165080E+00
         -2   -1    0    0    0  501 -0.00000000000E+00  0.00000000000E+00  0.11617507808E+03  0.11617507808E+03  0.00000000000E+00 0.  1.
          2   -1    0    0  501    0  0.00000000000E+00 -0.00000000000E+00 -0.10540313365E+04  0.10540313365E+04  0.00000000000E+00 0. -1.
         25    2    1    2    0    0 -0.77389170491E+02 -0.15767449200E+03 -0.94743474528E+03  0.97166361458E+03  0.12508898514E+03 0.  0.
          5    1    3    3  502    0 -0.54211682741E+02 -0.95898643200E+02 -0.27934715308E+03  0.30031277137E+03  0.41800000000E+01 0. -1.
         -5    1    3    3    0  502 -0.23177487750E+02 -0.61775848803E+02 -0.66808759220E+03  0.67135084321E+03  0.41800000000E+01 0. -1.
        -11    1    1    2    0    0  0.78127278338E+02  0.80586962016E+02  0.34665260481E+02  0.11747259405E+03  0.00000000000E+00 0.  1.
         11    1    1    2    0    0 -0.73810784791E+00  0.77087529987E+02 -0.25086773639E+02  0.81070205959E+02  0.00000000000E+00 0. -1.
</event>
<event>
 7    1  0.2840156E-009  0.8264906E+02  0.7561462E-02  0.1321698E+00
          2   -1    0    0  501    0  0.00000000000E+00  0.00000000000E+00  0.58030674615E+02  0.58030674615E+02  0.00000000000E+00 0. -1.
         -2   -1    0    0    0  501 -0.00000000000E+00 -0.00000000000E+00 -0.24100673226E+03  0.24100673226E+03  0.00000000000E+00 0.  1.
         25    2    1    2    0    0  0.39625220522E+02 -0.62603302092E+01 -0.10321406197E+03  0.16705456962E+03  0.12507892231E+03 0.  0.
          5    1    3    3  502    0  0.14060123333E+02  0.50568340843E+02 -0.81051412653E+01  0.53272975125E+02  0.41800000000E+01 0. -1.
         -5    1    3    3    0  502  0.25565097189E+02 -0.56828671052E+02 -0.95108920705E+02  0.11378159449E+03  0.41800000000E+01 0. -1.
        -11    1    1    2    0    0 -0.18608339119E+02  0.18191943853E+02 -0.98196999856E+02  0.10158675055E+03  0.00000000000E+00 0.  1.
         11    1    1    2    0    0 -0.21016881403E+02 -0.11931613644E+02  0.18435004182E+02  0.30396086709E+02  0.00000000000E+00 0. -1.
</event>
<event>
 7    1  0.2840156E-009  0.9983237E+02  0.7561462E-02  0.1280649E+00
          1   -1    0    0  501    0  0.00000000000E+00  0.00000000000E+00  0.28317598614E+03  0.28317598614E+03  0.00000000000E+00 0. -1.
         -1   -1    0    0    0  501 -0.00000000000E+00 -0.00000000000E+00 -0.61736301582E+02  0.61736301582E+02  0.00000000000E+00 0.  1.
         25    2    1    2    0    0 -0.19167304077E+02 -0.68959566119E+02  0.14933070981E+03  0.20753262665E+03  0.12508925983E+03 0.  0.
          5    1    3    3  502    0 -0.12234639712E+02  0.16014625633E+02  0.11283864402E+03  0.11470042122E+03  0.41800000000E+01 0.  1.
         -5    1    3    3    0  502 -0.69326643651E+01 -0.84974191752E+02  0.36492065785E+02  0.92832205427E+02  0.41800000000E+01 0.  1.
        -11    1    1    2    0    0 -0.16996777351E+02  0.50167281276E+02 -0.17777220892E+01  0.52998177769E+02  0.00000000000E+00 0.  1.
         11    1    1    2    0    0  0.36164081428E+02  0.18792284842E+02  0.73886696837E+02  0.84381483304E+02  0.00000000000E+00 0. -1.
</event>
<event>
 7    1  0.2840156E-009  0.2189871E+03  0.7561462E-02  0.1134640E+00
          2   -1    0    0  501    0  0.00000000000E+00  0.00000000000E+00  0.13023129743E+04  0.13023129743E+04  0.00000000000E+00 0.  1.
         -2   -1    0    0    0  501 -0.00000000000E+00 -0.00000000000E+00 -0.44300416423E+02  0.44300416423E+02  0.00000000000E+00 0. -1.
         25    2    1    2    0    0 -0.34919889276E+01 -0.19178505486E+03  0.38388566455E+03  0.44699845605E+03  0.12508283258E+03 0.  0.
          5    1    3    3  502    0  0.60659884790E+02 -0.90803252298E+02  0.18151554358E+03  0.21187311583E+03  0.41800000000E+01 0. -1.
         -5    1    3    3    0  502 -0.64151873717E+02 -0.10098180256E+03  0.20237012097E+03  0.23512534021E+03  0.41800000000E+01 0. -1.
        -11    1    1    2    0    0  0.38001889568E+02  0.48570639870E+02  0.33989130799E+03  0.34544080812E+03  0.00000000000E+00 0. -1.
         11    1    1    2    0    0 -0.34509900641E+02  0.14321441499E+03  0.53423558534E+03  0.55417412656E+03  0.00000000000E+00 0.  1.
</event>
<event>
 7    1  0.2840156E-009  0.1338514E+03  0.7561462E-02  0.1221850E+00
         -1   -1    0    0    0  501 -0.00000000000E+00  0.00000000000E+00  0.68170553545E+02  0.68170553545E+02  0.00000000000E+00 0.  1.
          1   -1    0    0  501    0  0.00000000000E+00 -0.00000000000E+00 -0.34184677323E+03  0.34184677323E+03  0.00000000000E+00 0. -1.
         25    2    1    2    0    0 -0.94419390385E+02  0.37023962463E+02 -0.10489886237E+03  0.19218847851E+03  0.12508734895E+03 0.  0.
          5    1    3    3  502    0 -0.93135225692E+02 -0.23830054100E+02 -0.43401571473E+02  0.10556140653E+03  0.41800000000E+01 0. -1.
         -5    1    3    3    0  502 -0.12841646928E+01  0.60854016562E+02 -0.61497290898E+02  0.86627071973E+02  0.41800000000E+01 0. -1.
        -11    1    1    2    0    0  0.55842330342E+02 -0.44210767079E+02 -0.36857114513E+02  0.80196039017E+02  0.00000000000E+00 0.  1.
         11    1    1    2    0    0  0.38577060043E+02  0.71868046164E+01 -0.13192024280E+03  0.13763280925E+03  0.00000000000E+00 0. -1.
</event>
<event>
 7    1  0.2840156E-009  0.1326592E+03  0.7561462E-02  0.1223562E+00
          2   -1    0    0  501    0  0.00000000000E+00  0.00000000000E+00  0.18711330680E+03  0.18711330680E+03  0.00000000000E+00 0.  1.
         -2   -1    0    0    0  501 -0.00000000000E+00 -0.00000000000E+00 -0.14815914360E+03  0.14815914360E+03  0.00000000000E+00 0. -1.
         25    2    1    2    0    0 -0.39542170323E+01 -0.11238649366E+03  0.78182165724E+02  0.18549109981E+03  0.12509251489E+03 0.  0.
          5    1    3    3  502    0  0.17935096624E+02 -0.79856839479E+02  0.10834334728E+03  0.13584747256E+03  0.41800000000E+01 0. -1.
         -5    1    3    3    0  502 -0.21889313657E+02 -0.32529654178E+02 -0.30161181553E+02  0.49643627244E+02  0.41800000000E+01 0. -1.
        -11    1    1    2    0    0  0.46256972294E+02  0.46145377704E+02 -0.10932610767E+02  0.66246700653E+02  0.00000000000E+00 0.  1.
         11    1    1    2    0    0 -0.42302755261E+02  0.66241115954E+02 -0.28295391766E+02  0.83534649941E+02  0.00000000000E+00 0. -1.
</event>
<event>
 7    1  0.2840156E-009  0.2477601E+03  0.7561462E-02  0.1114729E+00
         -1   -1    0    0    0  501 -0.00000000000E+00  0.00000000000E+00  0.25251219182E+03  0.25251219182E+03  0.00000000000E+00 0.  1.
          1   -1    0    0  501    0  0.00000000000E+00 -0.00000000000E+00 -0.27979925366E+03  0.27979925366E+03  0.00000000000E+00 0. -1.
         25    2    1    2    0    0 -0.22896658935E+03  0.11572420859E+02  0.65488005528E+02  0.26925041887E+03  0.12508992456E+03 0.  0.
          5    1    3    3  502    0 -0.38354470439E+02  0.41167545691E+02  0.50512999839E+02  0.75728909762E+02  0.41800000000E+01 0.  1.
         -5    1    3    3    0  502 -0.19061211891E+03 -0.29595124833E+02  0.14975005689E+02  0.19352150910E+03  0.41800000000E+01 0.  1.
        -11    1    1    2    0    0  0.13587104830E+03  0.37458853462E+02 -0.53232089428E+02  0.15065776719E+03  0.00000000000E+00 0.  1.
         11    1    1    2    0    0  0.93095541053E+02 -0.49031274321E+02 -0.39542977939E+02  0.11240325943E+03  0.00000000000E+00 0. -1.
</event>
<event>
 7    1  0.2840156E-009  0.9959599E+02  0.7561462E-02  0.1281148E+00
          1   -1    0    0  501    0  0.00000000000E+00  0.00000000000E+00  0.66096468308E+03  0.66096468308E+03  0.00000000000E+00 0. -1.
         -1   -1    0    0    0  501 -0.00000000000E+00 -0.00000000000E+00 -0.19630993792E+02  0.19630993792E+02  0.00000000000E+00 0.  1.
         25    2    1    2    0    0 -0.24682261673E+02  0.23108516796E+01  0.28691015795E+03  0.31397463488E+03  0.12509228008E+03 0.  0.
          5    1    3    3  502    0  0.99338705093E+01  0.50082543857E+02  0.57263276592E+02  0.76834225633E+02  0.41800000000E+01 0.  1.
         -5    1    3    3    0  502 -0.34616132182E+02 -0.47771692178E+02  0.22964688136E+03  0.23714040925E+03  0.41800000000E+01 0.  1.
        -11    1    1    2    0    0 -0.24631048766E+02 -0.24503133667E+02  0.85041775764E+02  0.91865095373E+02  0.00000000000E+00 0.  1.
         11    1    1    2    0    0  0.49313310439E+02  0.22192281987E+02  0.26938175557E+03  0.27475594661E+03  0.00000000000E+00 0. -1.
</event>
<event>
 7    1  0.2840156E-009  0.1074233E+03  0.7561462E-02  0.1265417E+00
          2   -1    0    0  501    0  0.00000000000E+00  0.00000000000E+00  0.20609438775E+03  0.20609438775E+03  0.00000000000E+00 0.  1.
         -2   -1    0    0    0  501 -0.00000000000E+00 -0.00000000000E+00 -0.62940733488E+02  0.62940733488E+02  0.00000000000E+00 0. -1.
         25    2    1    2    0    0  0.74700545949E+01  0.99468017002E+01  0.41995545476E+02  0.13253802766E+03  0.12509181570E+03 0.  0.
          5    1    3    3  502    0 -0.23577795131E+02 -0.51390246997E+02  0.22069775898E+02  0.60839274468E+02  0.41800000000E+01 0. -1.
         -5    1    3    3    0  502  0.31047849726E+02  0.61337048697E+02  0.19925769578E+02  0.71698753188E+02  0.41800000000E+01 0. -1.
        -11    1    1    2    0    0  0.19122002175E+02  0.33363391512E+02  0.28661805794E+02  0.47961088100E+02  0.00000000000E+00 0.  1.
         11    1    1    2    0    0 -0.26592056770E+02 -0.43310193212E+02  0.72496302991E+02  0.88536005482E+02  0.00000000000E+00 0. -1.
</event>
<event>
 7    1  0.2840156E-009  0.1106946E+03  0.7561462E-02  0.1259289E+00
          1   -1    0    0  501    0  0.00000000000E+00  0.00000000000E+00  0.97156225392E+02  0.97156225392E+02  0.00000000000E+00 0. -1.
         -1   -1    0    0    0  501 -0.00000000000E+00 -0.00000000000E+00 -0.16414365908E+03  0.16414365908E+03  0.00000000000E+00 0.  1.
         25    2    1    2    0    0 -0.34300179012E+02  0.20185463384E+01 -0.93544726973E+02  0.15993316172E+03  0.12508966170E+03 0.  0.
          5    1    3    3  502    0  0.16752200849E+02  0.53994142898E+02 -0.43330040806E+02  0.71351023376E+02  0.41800000000E+01 0.  1.
         -5    1    3    3    0  502 -0.51052379861E+02 -0.51975596559E+02 -0.50214686167E+02  0.88582138346E+02  0.41800000000E+01 0.  1.
        -11    1    1    2    0    0  0.62889530532E+02 -0.43707061594E+01  0.34144858235E+02  0.71694263834E+02  0.00000000000E+00 0. -1.
         11    1    1    2    0    0 -0.28589351520E+02  0.23521598210E+01 -0.75875649480E+01  0.29672458914E+02  0.00000000000E+00 0.  1.
</event>
<event>
 7    1  0.2840156E-009  0.1635318E+03  0.7561462E-02  0.1184766E+00
         -1   -1    0    0    0  501 -0.00000000000E+00  0.00000000000E+00  0.42218113487E+02  0.42218113487E+02  0.00000000000E+00 0.  1.
          1   -1    0    0  501    0  0.00000000000E+00 -0.00000000000E+00 -0.65530497470E+03  0.65530497470E+03  0.00000000000E+00 0. -1.
         25    2    1    2    0    0 -0.12439087707E+03  0.30501150736E+01 -0.35524374106E+03  0.39664644528E+03  0.12509154044E+03 0.  0.
          5    1    3    3  502    0  0.40249362415E+01  0.41513329991E+02 -0.73588323825E+02  0.84689258363E+02  0.41800000000E+01 0. -1.
         -5    1    3    3    0  502 -0.12841581331E+03 -0.38463214917E+02 -0.28165541723E+03  0.31195718691E+03  0.41800000000E+01 0. -1.
        -11    1    1    2    0    0  0.12479258908E+03  0.21367040380E+02 -0.18604267329E+03  0.22503692362E+03  0.00000000000E+00 0.  1.
         11    1    1    2    0    0 -0.40171201157E+00 -0.24417155454E+02 -0.71800446863E+02  0.75839719295E+02  0.00000000000E+00 0. -1.
</event>
<event>
 7    1  0.2840156E-009  0.8607360E+02  0.7561462E-02  0.1312649E+00
          2   -1    0    0  501    0  0.00000000000E+00  0.00000000000E+00  0.12084210428E+03  0.12084210428E+03  0.00000000000E+00 0. -1.
         -2   -1    0    0    0  501 -0.00000000000E+00 -0.00000000000E+00 -0.13911256483E+03  0.13911256483E+03  0.00000000000E+00 0.  1.
         25    2    1    2    0    0  0.37601999520E+02  0.58250277051E+02 -0.23329722467E+02  0.14490886649E+03  0.12508916217E+03 0.  0.
          5    1    3    3  502    0  0.31918421586E+02  0.61617614877E+02 -0.69369819335E+02  0.98209777182E+02  0.41800000000E+01 0. -1.
         -5    1    3    3    0  502  0.56835779347E+01 -0.33673378259E+01  0.46040096868E+02  0.46699089303E+02  0.41800000000E+01 0. -1.
        -11    1    1    2    0    0 -0.73930809671E+01 -0.63687862908E+02  0.34247481517E+02  0.72689005483E+02  0.00000000000E+00 0. -1.
         11    1    1    2    0    0 -0.30208918553E+02  0.54375858565E+01 -0.29188219600E+02  0.42356797135E+02  0.00000000000E+00 0.  1.
</event>
<event>
 7    1  0.2840156E-009  0.1457583E+03  0.7561462E-02  0.1205784E+00
          2   -1    0    0  501    0  0.00000000000E+00  0.00000000000E+00  0.96883244802E+02  0.96883244802E+02  0.00000000000E+00 0. -1.
         -2   -1    0    0    0  501 -0.00000000000E+00 -0.00000000000E+00 -0.24114503732E+03  0.24114503732E+03  0.00000000000E+00 0.  1.
         25    2    1    2    0    0 -0.10053310111E+03  0.34007180397E+02 -0.98075949228E+02  0.19111505496E+03  0.12507069871E+03 0.  0.
          5    1    3    3  502    0 -0.42281056313E+02 -0.42383827604E+02 -0.67256791985E+02  0.90138920747E+02  0.41800000000E+01 0.  1.
         -5    1    3    3    0  502 -0.58252044800E+02  0.76391008001E+02 -0.30819157242E+02  0.10097613421E+03  0.41800000000E+01 0.  1.
        -11    1    1    2    0    0  0.67806394090E+02 -0.62302428781E+02 -0.47536999579E+02  0.10362946512E+03  0.00000000000E+00 0.  1.
         11    1    1    2    0    0  0.32726707023E+02  0.28295248383E+02  0.13511562903E+01  0.43283762047E+02  0.00000000000E+00 0. -1.
</event>
<event>
 7    1  0.2840156E-009  0.1526157E+03  0.7561462E-02  0.1197295E+00
         -1   -1    0    0    0  501 -0.00000000000E+00  0.00000000000E+00  0.98780191962E+01  0.98780191962E+01  0.00000000000E+00 0.  1.
          1   -1    0    0  501    0  0.00000000000E+00 -0.00000000000E+00 -0.45142832120E+04  0.45142832120E+04  0.00000000000E+00 0. -1.
         25    2    1    2    0    0 -0.75904802632E+02 -0.91437344303E+02 -0.38122182860E+04  0.38161207384E+04  0.12508757987E+03 0.  0.
          5    1    3    3  502    0 -0.32832007064E+02 -0.10920585004E+03 -0.32342114886E+04  0.32362239236E+04  0.41800000000E+01 0.  1.
         -5    1    3    3    0  502 -0.43072795568E+02  0.17768505737E+02 -0.57800679743E+03  0.57989681478E+03  0.41800000000E+01 0.  1.
        -11    1    1    2    0    0 -0.71195029574E+01  0.51892170934E+02 -0.17239295733E+03  0.18017440568E+03  0.00000000000E+00 0. -1.
         11    1    1    2    0    0  0.83024305589E+02  0.39545173370E+02 -0.51979394948E+03  0.52786608715E+03  0.00000000000E+00 0.  1.
</event>
<event>
 7    1  0.2840156E-009  0.2154125E+03  0.7561462E-02  0.1137350E+00
          2   -1    0    0  501    0  0.00000000000E+00  0.00000000000E+00  0.73023551615E+03  0.73023551615E+03  0.00000000000E+00 0. -1.
         -2   -1    0    0    0  501 -0.00000000000E+00 -0.00000000000E+00 -0.71955913838E+02  0.71955913838E+02  0.00000000000E+00 0.  1.
         25    2    1    2    0    0 -0.15983617853E+03 -0.96892703429E+02  0.20820044560E+03  0.30648075228E+03  0.12508887253E+03 0.  0.
          5    1    3    3  502    0 -0.47765522589E+02  0.28146057266E+02  0.37912634985E+02  0.67294769331E+02  0.41800000000E+01 0.  1.
         -5    1    3    3    0  502 -0.11207065594E+03 -0.12503876069E+03  0.17028781061E+03  0.23918598295E+03  0.41800000000E+01 0.  1.
        -11    1    1    2    0    0  0.86578059684E+02  0.10204332505E+03  0.27414240977E+03  0.30506173382E+03  0.00000000000E+00 0.  1.
         11    1    1    2    0    0  0.73258118841E+02 -0.51506216207E+01  0.17593674694E+03  0.19064894388E+03  0.00000000000E+00 0. -1.
</event>
<event>
 7    1  0.2840156E-009  0.1020118E+03  0.7561462E-02  0.1276121E+00
          2   -1    0    0  501    0  0.00000000000E+00  0.00000000000E+00  0.16380048674E+03  0.16380048674E+03  0.00000000000E+00 0. -1.
         -2   -1    0    0    0  501 -0.00000000000E+00 -0.00000000000E+00 -0.84422813605E+02  0.84422813605E+02  0.00000000000E+00 0.  1.
         25    2    1    2    0    0  0.40608649640E+02  0.24353497415E+01  0.68371546987E+02  0.14824481415E+03  0.12508742196E+03 0.  0.
          5    1    3    3  502    0  0.87153278805E+01  0.48632161891E+02 -0.11144036713E+02  0.50820331212E+02  0.41800000000E+01 0.  1.
         -5    1    3    3    0  502  0.31893321759E+02 -0.46196812149E+02  0.79515583700E+02  0.97424482943E+02  0.41800000000E+01 0.  1.
        -11    1    1    2    0    0 -0.69327606675E+02 -0.18433845243E-01  0.14857583928E+02  0.70901799605E+02  0.00000000000E+00 0.  1.
         11    1    1    2    0    0  0.28718957036E+02 -0.24169158962E+01 -0.38514577816E+01  0.29076686584E+02  0.00000000000E+00 0. -1.
</event>
<event>
 7    1  0.2840156E-009  0.1431037E+03  0.7561462E-02  0.1209213E+00
          2   -1    0    0  501    0  0.00000000000E+00  0.00000000000E+00  0.84058295830E+03  0.84058295830E+03  0.00000000000E+00 0. -1.
         -2   -1    0    0    0  501 -0.00000000000E+00 -0.00000000000E+00 -0.32934709621E+02  0.32934709621E+02  0.00000000000E+00 0.  1.
         25    2    1    2    0    0 -0.67290919478E+02 -0.87274287843E+02  0.59073887323E+03  0.61381445080E+03  0.12510353514E+03 0.  0.
          5    1    3    3  502    0 -0.33433196689E+02 -0.10363788068E+03  0.53788489087E+03  0.54881346301E+03  0.41800000000E+01 0.  1.
         -5    1    3    3    0  502 -0.33857722788E+02  0.16363592833E+02  0.52853982356E+02  0.65000987790E+02  0.41800000000E+01 0.  1.
        -11    1    1    2    0    0  0.21975640311E+01  0.72643023676E+02  0.14109856635E+03  0.15871560604E+03  0.00000000000E+00 0. -1.
         11    1    1    2    0    0  0.65093355447E+02  0.14631264167E+02  0.75810809107E+02  0.10098761108E+03  0.00000000000E+00 0.  1.
</event>
<event>
 7    1  0.2840156E-009  0.2402748E+03  0.7561462E-02  0.1119610E+00
          2   -1    0    0  501    0  0.00000000000E+00  0.00000000000E+00  0.44851255838E+03  0.44851255838E+03  0.00000000000E+00 0. -1.
         -2   -1    0    0    0  501 -0.00000000000E+00 -0.00000000000E+00 -0.14971503466E+03  0.14971503466E+03  0.00000000000E+00 0.  1.
         25    2    1    2    0    0  0.18154414239E+03  0.12178232325E+03  0.54863946401E+02  0.25777189786E+03  0.12508832407E+03 0.  0.
          5    1    3    3  502    0  0.10324496911E+03 -0.39003478296E+01  0.16113053123E+02  0.10465103555E+03  0.41800000000E+01 0.  1.
         -5    1    3    3    0  502  0.78299173276E+02  0.12568267108E+03  0.38750893277E+02  0.15312086231E+03  0.41800000000E+01 0.  1.
        -11    1    1    2    0    0 -0.13074811646E+03 -0.47682786083E+02  0.10227095057E+03  0.17270803507E+03  0.00000000000E+00 0. -1.
         11    1    1    2    0    0 -0.50796025928E+02 -0.74099537164E+02  0.14166262674E+03  0.16774766012E+03  0.00000000000E+00 0.  1.
</event>
<event>
 7    1  0.2840156E-009  0.1207540E+03  0.7561462E-02  0.1241858E+00
         -1   -1    0    0    0  501 -0.00000000000E+00  0.00000000000E+00  0.47612891998E+02  0.47612891998E+02  0.00000000000E+00 0.  1.
          1   -1    0    0  501    0  0.00000000000E+00 -0.00000000000E+00 -0.41998200214E+03  0.41998200214E+03  0.00000000000E+00 0. -1.
         25    2    1    2    0    0 -0.24394316199E+02 -0.50828525693E+02 -0.32139909366E+03  0.34946260491E+03  0.12509241838E+03 0.  0.
          5    1    3    3  502    0 -0.24683809885E+02 -0.92200566168E+02 -0.21810337162E+03  0.23811087330E+03  0.41800000000E+01 0.  1.
         -5    1    3    3    0  502  0.28949368622E+00  0.41372040475E+02 -0.10329572205E+03  0.11135173161E+03  0.41800000000E+01 0.  1.
        -11    1    1    2    0    0  0.37071741075E+02  0.71268142286E+02 -0.28562878463E+02  0.85260190695E+02  0.00000000000E+00 0.  1.
         11    1    1    2    0    0 -0.12677424876E+02 -0.20439616593E+02 -0.22407138015E+02  0.32872098533E+02  0.00000000000E+00 0. -1.
</event>
<event>
 7    1  0.2840156E-009  0.1260635E+03  0.7561462E-02  0.1233417E+00
          3   -1    0    0  501    0  0.00000000000E+00  0.00000000000E+00  0.78819366592E+02  0.78819366592E+02  0.00000000000E+00 0. -1.
         -3   -1    0    0    0  501 -0.00000000000E+00 -0.00000000000E+00 -0.24195916298E+03  0.24195916298E+03  0.00000000000E+00 0.  1.
         25    2    1    2    0    0  0.22349199771E+02  0.81881040376E+02 -0.10170005148E+03  0.18219381820E+03  0.12509074871E+03 0.  0.
          5    1    3    3  502    0 -0.42312089931E+02  0.65542109151E+02 -0.80281058559E+02  0.11202054182E+03  0.41800000000E+01 0. -1.
         -5    1    3    3    0  502  0.64661289702E+02  0.16338931225E+02 -0.21418992926E+02  0.70173276376E+02  0.41800000000E+01 0. -1.
        -11    1    1    2    0    0 -0.43134898791E+02 -0.33815234771E+02  0.37834844374E+01  0.54940006833E+02  0.00000000000E+00 0. -1.
         11    1    1    2    0    0  0.20785699020E+02 -0.48065805605E+02 -0.65223229337E+02  0.83644704539E+02  0.00000000000E+00 0.  1.
</event>
<event>
 7    1  0.2840156E-009  0.1962142E+03  0.7561462E-02  0.1152973E+00
         -1   -1    0    0    0  501 -0.00000000000E+00  0.00000000000E+00  0.65208351997E+02  0.65208351997E+02  0.00000000000E+00 0.  1.
          1   -1    0    0  501    0  0.00000000000E+00 -0.00000000000E+00 -0.65745408210E+03  0.65745408210E+03  0.00000000000E+00 0. -1.
         25    2    1    2    0    0  0.15072625161E+03 -0.84891648976E+02 -0.23612915492E+03  0.31832450162E+03  0.12509402678E+03 0.  0.
          5    1    3    3  502    0  0.16692885598E+03 -0.75140624526E+02 -0.17158997115E+03  0.25094211885E+03  0.41800000000E+01 0.  1.
         -5    1    3    3    0  502 -0.16202604368E+02 -0.97510244501E+01 -0.64539183770E+02  0.67382382770E+02  0.41800000000E+01 0.  1.
        -11    1    1    2    0    0 -0.12021136005E+03  0.99568351149E+02 -0.31050666010E+03  0.34753275184E+03  0.00000000000E+00 0.  1.
         11    1    1    2    0    0 -0.30514891559E+02 -0.14676702173E+02 -0.45609915085E+02  0.56805180641E+02  0.00000000000E+00 0. -1.
</event>
<event>
 7    1  0.2840156E-009  0.1875781E+03  0.7561462E-02  0.1160664E+00
         -1   -1    0    0    0  501 -0.00000000000E+00  0.00000000000E+00  0.49787853669E+02  0.49787853669E+02  0.00000000000E+00 0.  1.
          1   -1    0    0  501    0  0.00000000000E+00 -0.00000000000E+00 -0.75913987082E+03  0.75913987082E+03  0.00000000000E+00 0. -1.
         25    2    1    2    0    0  0.70961594512E+02  0.14335664778E+03 -0.38382629508E+03  0.43423128951E+03  0.12509001416E+03 0.  0.
          5    1    3    3  502    0  0.76713576905E+02  0.40700699299E+02 -0.25462545735E+03  0.26905968805E+03  0.41800000000E+01 0. -1.
         -5    1    3    3    0  502 -0.57519823929E+01  0.10265594848E+03 -0.12920083773E+03  0.16517160146E+03  0.41800000000E+01 0. -1.
        -11    1    1    2    0    0 -0.39196916432E+02 -0.74341481958E+00 -0.61286681079E+02  0.72753063173E+02  0.00000000000E+00 0. -1.
         11    1    1    2    0    0 -0.31764678080E+02 -0.14261323296E+03 -0.26423904099E+03  0.30194337180E+03  0.00000000000E+00 0.  1.
</event>
<event>
 7    1  0.2840156E-009  0.8728975E+02  0.7561462E-02  0.1309551E+00
         -1   -1    0    0    0  501 -0.00000000000E+00  0.00000000000E+00  0.55296102415E+02  0.55296102415E+02  0.00000000000E+00 0.  1.
          1   -1    0    0  501    0  0.00000000000E+00 -0.00000000000E+00 -0.28605224093E+03  0.28605224093E+03  0.00000000000E+00 0. -1.
         25    2    1    2    0    0 -0.63595964168E+01 -0.53788243132E+02 -0.86496601749E+02  0.16144047238E+03  0.12509094469E+03 0.  0.
          5    1    3    3  502    0 -0.43869126208E+02 -0.14647907479E+02 -0.95626960924E+02  0.10630639437E+03  0.41800000000E+01 0.  1.
         -5    1    3    3    0  502  0.37509529791E+02 -0.39140335653E+02  0.91303591751E+01  0.55134078018E+02  0.41800000000E+01 0.  1.
        -11    1    1    2    0    0 -0.17383017044E+02  0.29128794497E+01  0.66926695529E+01  0.18853274888E+02  0.00000000000E+00 0.  1.
         11    1    1    2    0    0  0.23742613461E+02  0.50875363682E+02 -0.15095220632E+03  0.16105459607E+03  0.00000000000E+00 0. -1.
</event>
<event>
 7    1  0.2840156E-009  0.1261815E+03  0.7561462E-02  0.1233234E+00
         -2   -1    0    0    0  501 -0.00000000000E+00  0.00000000000E+00  0.29221836797E+03  0.29221836797E+03  0.00000000000E+00 0.  1.
          2   -1    0    0  501    0  0.00000000000E+00 -0.00000000000E+00 -0.79429271901E+02  0.79429271901E+02  0.00000000000E+00 0. -1.
         25    2    1    2    0    0  0.10462194091E+03  0.98637004033E+01  0.13544406728E+03  0.21222325113E+03  0.12510223760E+03 0.  0.
          5    1    3    3  502    0  0.20293496564E+02 -0.20770148356E+02 -0.18003903304E+02  0.34421475850E+02  0.41800000000E+01 0. -1.
         -5    1    3    3    0  502  0.84328444345E+02  0.30633848759E+02  0.15344797058E+03  0.17780177528E+03  0.41800000000E+01 0. -1.
        -11    1    1    2    0    0 -0.14288587113E+02 -0.36361612893E+02  0.45666092256E+02  0.60097608902E+02  0.00000000000E+00 0.  1.
         11    1    1    2    0    0 -0.90333353795E+02  0.26497912490E+02  0.31678936536E+02  0.99326779845E+02  0.00000000000E+00 0. -1.
</event>
<event>
 7    1  0.2840156E-009  0.1216860E+03  0.7561462E-02  0.1240341E+00
          2   -1    0    0  501    0  0.00000000000E+00  0.00000000000E+00  0.66408788779E+03  0.66408788779E+03  0.00000000000E+00 0. -1.
         -2   -1    0    0    0  501 -0.00000000000E+00 -0.00000000000E+00 -0.51638934954E+02  0.51638934954E+02  0.00000000000E+00 0.  1.
         25    2    1    2    0    0 -0.35768687753E+02 -0.89537488529E+02  0.53919376185E+03  0.56184823237E+03  0.12508861866E+03 0.  0.
          5    1    3    3  502    0  0.20958549670E+02  0.14358584596E+02  0.21791102672E+03  0.21942679354E+03  0.41800000000E+01 0. -1.
         -5    1    3    3    0  502 -0.56727237424E+02 -0.10389607313E+03  0.32128273513E+03  0.34242143883E+03  0.41800000000E+01 0. -1.
        -11    1    1    2    0    0  0.36588884124E+02  0.64721613542E+02 -0.22638492512E+01  0.74382516187E+02  0.00000000000E+00 0.  1.
         11    1    1    2    0    0 -0.82019637085E+00  0.24815874987E+02  0.75519040228E+02  0.79496074182E+02  0.00000000000E+00 0. -1.
</event>
<event>
 7    1  0.2840156E-009  0.1031826E+03  0.7561462E-02  0.1273742E+00
          2   -1    0    0  501    0  0.00000000000E+00  0.00000000000E+00  0.37343514329E+03  0.37343514329E+03  0.00000000000E+00 0. -1.
         -2   -1    0    0    0  501 -0.00000000000E+00 -0.00000000000E+00 -0.39011659021E+02  0.39011659021E+02  0.00000000000E+00 0.  1.
         25    2    1    2    0    0 -0.55779654425E+02  0.96299898921E+01  0.22005985427E+03  0.25937875503E+03  0.12508753954E+03 0.  0.
          5    1    3    3  502    0 -0.27903153028E+01  0.44121105925E+02  0.18521397825E+02  0.48114160337E+02  0.41800000000E+01 0. -1.
         -5    1    3    3    0  502 -0.52989339122E+02 -0.34491116033E+02  0.20153845644E+03  0.21126459469E+03  0.41800000000E+01 0. -1.
        -11    1    1    2    0    0 -0.20991378065E+02  0.13879379419E+01  0.42094298340E+02  0.47058413462E+02  0.00000000000E+00 0. -1.
         11    1    1    2    0    0  0.76771032491E+02 -0.11017927834E+02  0.72269331661E+02  0.10600963382E+03  0.00000000000E+00 0.  1.
</event>
<event>
 7    1  0.2840156E-009  0.8176733E+02  0.7561462E-02  0.1324110E+00
          2   -1    0    0  501    0  0.00000000000E+00  0.00000000000E+00  0.48073098695E+03  0.48073098695E+03  0.00000000000E+00 0. -1.
         -2   -1    0    0    0  501 -0.00000000000E+00 -0.00000000000E+00 -0.24435792898E+02  0.24435792898E+02  0.00000000000E+00 0.  1.
         25    2    1    2    0    0  0.74384510766E+01  0.60679667271E+00  0.21057281198E+03  0.24503946469E+03  0.12509089237E+03 0.  0.
          5    1    3    3  502    0  0.49913291082E+02 -0.14505942037E+01  0.19202959821E+03  0.19845976881E+03  0.41800000000E+01 0. -1.
         -5    1    3    3    0  502 -0.42474840005E+02  0.20573908764E+01  0.18543213773E+02  0.46579695874E+02  0.41800000000E+01 0. -1.
        -11    1    1    2    0    0 -0.13803738276E+02  0.33378301012E+02  0.51819220422E+02  0.63165542616E+02  0.00000000000E+00 0.  1.
         11    1    1    2    0    0  0.63652871998E+01 -0.33985097685E+02  0.19390316165E+03  0.19696177255E+03  0.00000000000E+00 0. -1.
</event>
<event>
 7    1  0.2840156E-009  0.1143286E+03  0.7561462E-02  0.1252758E+00
         -1   -1    0    0    0  501 -0.00000000000E+00  0.00000000000E+00  0.27854558878E+02  0.27854558878E+02  0.00000000000E+00 0.  1.
          1   -1    0    0  501    0  0.00000000000E+00 -0.00000000000E+00 -0.58305200762E+03  0.58305200762E+03  0.00000000000E+00 0. -1.
         25    2    1    2    0    0 -0.63001341786E+02 -0.63380063106E+01 -0.35172650266E+03  0.37864374190E+03  0.12510080423E+03 0.  0.
          5    1    3    3  502    0 -0.18856137603E+02 -0.51178358046E+02 -0.26962506255E+03  0.27511802015E+03  0.41800000000E+01 0.  1.
         -5    1    3    3    0  502 -0.44145204184E+02  0.44840351735E+02 -0.82101440110E+02  0.10352572175E+03  0.41800000000E+01 0.  1.
        -11    1    1    2    0    0  0.15710112837E+01  0.40548546022E+02 -0.59242543477E+02  0.71807601398E+02  0.00000000000E+00 0.  1.
         11    1    1    2    0    0  0.61430330503E+02 -0.34210539711E+02 -0.14422840261E+03  0.16045522320E+03  0.00000000000E+00 0. -1.
</event>
<event>
 7    1  0.2840156E-009  0.9892943E+02  0.7561462E-02  0.1282563E+00
         -2   -1    0    0    0  501 -0.00000000000E+00  0.00000000000E+00  0.54654363816E+02  0.54654363816E+02  0.00000000000E+00 0.  1.
          2   -1    0    0  501    0  0.00000000000E+00 -0.00000000000E+00 -0.24104698316E+03  0.24104698316E+03  0.00000000000E+00 0. -1.
         25    2    1    2    0    0  0.14225918350E+02  0.34321238991E+02 -0.10060835777E+03  0.16477264079E+03  0.12509059637E+03 0.  0.
          5    1    3    3  502    0  0.54217043084E+02  0.14720403992E+01 -0.33233022121E+01  0.54499278906E+02  0.41800000000E+01 0. -1.
         -5    1    3    3    0  502 -0.39991124734E+02  0.32849198592E+02 -0.97285055556E+02  0.11027336188E+03  0.41800000000E+01 0. -1.
        -11    1    1    2    0    0 -0.43827431496E+02  0.29697819416E+01 -0.66195132985E+02  0.79444691372E+02  0.00000000000E+00 0. -1.
         11    1    1    2    0    0  0.29601513146E+02 -0.37291020933E+02 -0.19589128590E+02  0.51484014817E+02  0.00000000000E+00 0.  1.
</event>
<event>
 7    1  0.2840156E-009  0.1728327E+03  0.7561462E-02  0.1174926E+00
          1   -1    0    0  501    0  0.00000000000E+00  0.00000000000E+00  0.84415000278E+03  0.84415000278E+03  0.00000000000E+00 0. -1.
         -1   -1    0    0    0  501 -0.00000000000E+00 -0.00000000000E+00 -0.41660855349E+02  0.41660855349E+02  0.00000000000E+00 0.  1.
         25    2    1    2    0    0  0.43728125561E+02 -0.14476383254E+03  0.48752510196E+03  0.52554234589E+03  0.12508123802E+03 0.  0.
          5    1    3    3  502    0 -0.25944944728E+02 -0.57294381956E+02  0.74314662548E+02  0.97447051419E+02  0.41800000000E+01 0. -1.
         -5    1    3    3    0  502  0.69673070289E+02 -0.87469450585E+02  0.41321043941E+03  0.42809529447E+03  0.41800000000E+01 0. -1.
        -11    1    1    2    0    0 -0.60613557925E+02  0.63728105120E+02  0.12291746592E+03  0.15114224497E+03  0.00000000000E+00 0. -1.
         11    1    1    2    0    0  0.16885432363E+02  0.81035727421E+02  0.19204657955E+03  0.20912626727E+03  0.00000000000E+00 0.  1.
</event>
<event>
 7    1  0.2840156E-009  0.1083228E+03  0.7561462E-02  0.1263708E+00
          1   -1    0    0  501    0  0.00000000000E+00  0.00000000000E+00  0.16033275209E+03  0.16033275209E+03  0.00000000000E+00 0. -1.
         -1   -1    0    0    0  501 -0.00000000000E+00 -0.00000000000E+00 -0.14097641054E+03  0.14097641054E+03  0.00000000000E+00 0.  1.
         25    2    1    2    0    0  0.10242183808E+03  0.18211305150E+01  0.84703070514E+01  0.16190499914E+03  0.12509169922E+03 0.  0.
          5    1    3    3  502    0  0.59341869010E+01 -0.14520133254E+02  0.52177967983E+02  0.54644867890E+02  0.41800000000E+01 0.  1.
         -5    1    3    3    0  502  0.96487651182E+02  0.16341263769E+02 -0.43707660932E+02  0.10726013125E+03  0.41800000000E+01 0.  1.
        -11    1    1    2    0    0 -0.24848390336E+02  0.49440359113E+00  0.47487600040E+02  0.53598125851E+02  0.00000000000E+00 0. -1.
         11    1    1    2    0    0 -0.77573447747E+02 -0.23155341061E+01 -0.36601565545E+02  0.85806037631E+02  0.00000000000E+00 0.  1.
</event>
<event>
 7    1  0.2840156E-009  0.1153624E+03  0.7561462E-02  0.1250950E+00
         -1   -1    0    0    0  501 -0.00000000000E+00  0.00000000000E+00  0.14613039051E+02  0.14613039051E+02  0.00000000000E+00 0.  1.
          1   -1    0    0  501    0  0.00000000000E+00 -0.00000000000E+00 -0.91433628429E+03  0.91433628429E+03  0.00000000000E+00 0. -1.
         25    2    1    2    0    0 -0.35796386560E+02 -0.27752721555E+02 -0.52554482949E+03  0.54212193821E+03  0.12508890132E+03 0.  0.
          5    1    3    3  502    0  0.36815653073E+02  0.23430421300E+02 -0.18985515828E+03  0.19485079030E+03  0.41800000000E+01 0. -1.
         -5    1    3    3    0  502 -0.72612039633E+02 -0.51183142855E+02 -0.33568967121E+03  0.34727114791E+03  0.41800000000E+01 0. -1.
        -11    1    1    2    0    0  0.19986571068E+02  0.59346037966E+02 -0.24973189203E+03  0.25746345982E+03  0.00000000000E+00 0. -1.
         11    1    1    2    0    0  0.15809815491E+02 -0.31593316411E+02 -0.12444652372E+03  0.12936392531E+03  0.00000000000E+00 0.  1.
</event>
<event>
 7    1  0.2840156E-009  0.1056904E+03  0.7561462E-02  0.1268765E+00
          1   -1    0    0  501    0  0.00000000000E+00  0.00000000000E+00  0.61900430177E+02  0.61900430177E+02  0.00000000000E+00 0. -1.
         -1   -1    0    0    0  501 -0.00000000000E+00 -0.00000000000E+00 -0.20232694412E+03  0.20232694412E+03  0.00000000000E+00 0.  1.
         25    2    1    2    0    0 -0.11272187666E+01 -0.21157676412E+02 -0.10997643803E+03  0.16790179365E+03  0.12508907825E+03 0.  0.
          5    1    3    3  502    0  0.59932015678E+02 -0.39656567429E+01 -0.71979420230E+02  0.93840728222E+02  0.41800000000E+01 0.  1.
         -5    1    3    3    0  502 -0.61059234445E+02 -0.17192019669E+02 -0.37997017796E+02  0.74061065430E+02  0.41800000000E+01 0.  1.
        -11    1    1    2    0    0  0.29260464126E+02 -0.21634295924E+02 -0.26393170820E+02  0.44953498050E+02  0.00000000000E+00 0.  1.
         11    1    1    2    0    0 -0.28133245359E+02  0.42791972336E+02 -0.40569050947E+01  0.51372082591E+02  0.00000000000E+00 0. -1.
</event>
<event>
 7    1  0.2840156E-009  0.3259412E+03  0.7561462E-02  0.1072947E+00
         -1   -1    0    0    0  501 -0.00000000000E+00  0.00000000000E+00  0.33647737027E+03  0.33647737027E+03  0.00000000000E+00 0.  1.
          1   -1    0    0  501    0  0.00000000000E+00 -0.00000000000E+00 -0.32822582067E+03  0.32822582067E+03  0.00000000000E+00 0. -1.
         25    2    1    2    0    0 -0.79396351725E+02  0.30409716945E+03  0.93473935457E+01  0.33839688012E+03  0.12508479354E+03 0.  0.
          5    1    3    3  502    0 -0.60866670182E+02  0.64259147835E+02  0.37399603023E+02  0.96177920157E+02  0.41800000000E+01 0.  1.
         -5    1    3    3    0  502 -0.18529681543E+02  0.23983802161E+03 -0.28052209477E+02  0.24221895996E+03  0.41800000000E+01 0.  1.
        -11    1    1    2    0    0  0.79851206625E+02 -0.16223049799E+03 -0.24673204658E+02  0.18249305933E+03  0.00000000000E+00 0. -1.
         11    1    1    2    0    0 -0.45485489980E+00 -0.14186667146E+03  0.23577360710E+02  0.14381325149E+03  0.00000000000E+00 0.  1.
</event>
<event>
 7    1  0.2840156E-009  0.1219635E+03  0.7561462E-02  0.1239893E+00
         -1   -1    0    0    0  501 -0.00000000000E+00  0.00000000000E+00  0.19740471882E+03  0.19740471882E+03  0.00000000000E+00 0.  1.
          1   -1    0    0  501    0  0.00000000000E+00 -0.00000000000E+00 -0.15999507290E+03  0.15999507290E+03  0.00000000000E+00 0. -1.
         25    2    1    2    0    0  0.80917321104E+02 -0.42929490351E+02 -0.87284698461E+02  0.17791689792E+03  0.12508097370E+03 0.  0.
          5    1    3    3  502    0 -0.28505196091E+02 -0.22584511427E+02 -0.46787312920E+02  0.59406493003E+02  0.41800000000E+01 0.  1.
         -5    1    3    3    0  502  0.10942251720E+03 -0.20344978923E+02 -0.40497385541E+02  0.11851040491E+03  0.41800000000E+01 0.  1.
        -11    1    1    2    0    0 -0.20153488757E+02 -0.21728703934E+01  0.96693198328E+02  0.98795035694E+02  0.00000000000E+00 0.  1.
         11    1    1    2    0    0 -0.60763832348E+02  0.45102360744E+02  0.28001146055E+02  0.80687858112E+02  0.00000000000E+00 0. -1.
</event>
<event>
 7    1  0.2840156E-009  0.1948181E+03  0.7561462E-02  0.1154186E+00
          1   -1    0    0  501    0  0.00000000000E+00  0.00000000000E+00  0.54624563458E+03  0.54624563458E+03  0.00000000000E+00 0. -1.
         -1   -1    0    0    0  501 -0.00000000000E+00 -0.00000000000E+00 -0.76610948545E+02  0.76610948545E+02  0.00000000000E+00 0.  1.
         25    2    1    2    0    0 -0.71226259459E+02 -0.15131041105E+03  0.17563216707E+03  0.27287813594E+03  0.12509116051E+03 0.  0.
          5    1    3    3  502    0 -0.10040751830E+03 -0.10593436747E+03  0.89825728198E+02  0.17143480915E+03  0.41800000000E+01 0. -1.
         -5    1    3    3    0  502  0.29181258841E+02 -0.45376043582E+02  0.85806438873E+02  0.10144332679E+03  0.41800000000E+01 0. -1.
        -11    1    1    2    0    0  0.91807417703E+02  0.10941360886E+03  0.21209274317E+03  0.25570152806E+03  0.00000000000E+00 0. -1.
         11    1    1    2    0    0 -0.20581158244E+02  0.41896802184E+02  0.81909775796E+02  0.94276919121E+02  0.00000000000E+00 0.  1.
</event>
<event>
 7    1  0.2840156E-009  0.9874406E+02  0.7561462E-02  0.1282959E+00
          4   -1    0    0  501    0  0.00000000000E+00  0.00000000000E+00  0.22610302789E+03  0.22610302789E+03  0.00000000000E+00 0. -1.
         -4   -1    0    0    0  501 -0.00000000000E+00 -0.00000000000E+00 -0.63296288015E+02  0.63296288015E+02  0.00000000000E+00 0.  1.
         25    2    1    2    0    0  0.40399511841E+01 -0.36993585583E+02  0.55259308742E+02  0.14172446748E+03  0.12508951554E+03 0.  0.
          5    1    3    3  502    0 -0.37650308585E+02  0.30292172300E+02  0.35288084586E+02  0.59982353679E+02  0.41800000000E+01 0.  1.
         -5    1    3    3    0  502  0.41690259769E+02 -0.67285757883E+02  0.19971224156E+02  0.81742113796E+02  0.41800000000E+01 0.  1.
        -11    1    1    2    0    0 -0.26818403323E+02  0.38467450241E+02  0.10599769971E+02  0.48076258260E+02  0.00000000000E+00 0.  1.
         11    1    1    2    0    0  0.22778452139E+02 -0.14738646576E+01  0.96947661168E+02  0.99598590174E+02  0.00000000000E+00 0. -1.
</event>
<event>
 7    1  0.2840156E-009  0.1027086E+03  0.7561462E-02  0.1274701E+00
          2   -1    0    0  501    0  0.00000000000E+00  0.00000000000E+00  0.14045846112E+04  0.14045846112E+04  0.00000000000E+00 0. -1.
         -2   -1    0    0    0  501 -0.00000000000E+00 -0.00000000000E+00 -0.25020622852E+02  0.25020622852E+02  0.00000000000E+00 0.  1.
         25    2    1    2    0    0 -0.34590240681E+02  0.78527495905E+02  0.12071398974E+04  0.12166336865E+04  0.12509093861E+03 0.  0.
          5    1    3    3  502    0 -0.50868468163E+02  0.48488905448E+02  0.27532327906E+03  0.28418155359E+03  0.41800000000E+01 0.  1.
         -5    1    3    3    0  502  0.16278227482E+02  0.30038590457E+02  0.93181661836E+03  0.93245213296E+03  0.41800000000E+01 0.  1.
        -11    1    1    2    0    0  0.63446459089E+01 -0.71110422757E+02  0.50120193857E+02  0.87229470872E+02  0.00000000000E+00 0.  1.
         11    1    1    2    0    0  0.28245594772E+02 -0.74170731480E+01  0.12230389702E+03  0.12574207659E+03  0.00000000000E+00 0. -1.
</event>
<event>
 7    1  0.2840156E-009  0.2696945E+03  0.7561462E-02  0.1101455E+00
         -3   -1    0    0    0  501 -0.00000000000E+00  0.00000000000E+00  0.18240975128E+03  0.18240975128E+03  0.00000000000E+00 0. -1.
          3   -1    0    0  501    0  0.00000000000E+00 -0.00000000000E+00 -0.44051625526E+03  0.44051625526E+03  0.00000000000E+00 0.  1.
         25    2    1    2    0    0 -0.25029032109E+03 -0.75409185172E+02 -0.12301468577E+03  0.31482099943E+03  0.12509140150E+03 0.  0.
          5    1    3    3  502    0  0.56168549042E+01 -0.21819124833E+00 -0.32315214548E+02  0.33065724818E+02  0.41800000000E+01 0.  1.
         -5    1    3    3    0  502 -0.25590717599E+03 -0.75190993924E+02 -0.90699471222E+02  0.28175527461E+03  0.41800000000E+01 0.  1.
        -11    1    1    2    0    0  0.22419890176E+03  0.81985515164E+02 -0.14514463062E+03  0.27938098726E+03  0.00000000000E+00 0.  1.
         11    1    1    2    0    0  0.26091419334E+02 -0.65763299924E+01  0.10052812407E+02  0.28724019849E+02  0.00000000000E+00 0. -1.
</event>
<event>
 7    1  0.2840156E-009  0.1187742E+03  0.7561462E-02  0.1245133E+00
          1   -1    0    0  501    0  0.00000000000E+00  0.00000000000E+00  0.16457942912E+03  0.16457942912E+03  0.00000000000E+00 0. -1.
         -1   -1    0    0    0  501 -0.00000000000E+00 -0.00000000000E+00 -0.12256891180E+03  0.12256891180E+03  0.00000000000E+00 0.  1.
         25    2    1    2    0    0 -0.24396775946E+02  0.71219559146E+02  0.76054810330E+02  0.16461772178E+03  0.12508889587E+03 0.  0.
          5    1    3    3  502    0 -0.54015011306E+02  0.14198285908E+02  0.82705822767E+02  0.99884624886E+02  0.41800000000E+01 0.  1.
         -5    1    3    3    0  502  0.29618235360E+02  0.57021273239E+02 -0.66510124373E+01  0.64733096898E+02  0.41800000000E+01 0.  1.
        -11    1    1    2    0    0  0.58231600091E+02 -0.52917761561E+02 -0.28392448778E+02  0.83650103917E+02  0.00000000000E+00 0.  1.
         11    1    1    2    0    0 -0.33834824144E+02 -0.18301797585E+02 -0.56518442330E+01  0.38880515210E+02  0.00000000000E+00 0. -1.
</event>
<event>
 7    1  0.2840156E-009  0.1493354E+03  0.7561462E-02  0.1201292E+00
         -2   -1    0    0    0  501 -0.00000000000E+00  0.00000000000E+00  0.22545814436E+03  0.22545814436E+03  0.00000000000E+00 0.  1.
          2   -1    0    0  501    0  0.00000000000E+00 -0.00000000000E+00 -0.12804068501E+03  0.12804068501E+03  0.00000000000E+00 0. -1.
         25    2    1    2    0    0 -0.20193889149E+02  0.12715458072E+03  0.61806754493E+02  0.18985178505E+03  0.12509014680E+03 0.  0.
          5    1    3    3  502    0 -0.35893444001E+02  0.55159910290E+02  0.89372479218E+02  0.11106695038E+03  0.41800000000E+01 0.  1.
         -5    1    3    3    0  502  0.15699554852E+02  0.71994670435E+02 -0.27565724725E+02  0.78784834665E+02  0.41800000000E+01 0.  1.
        -11    1    1    2    0    0  0.41700770982E+02 -0.14371472151E+02  0.17307589314E+02  0.47381918072E+02  0.00000000000E+00 0. -1.
         11    1    1    2    0    0 -0.21506881833E+02 -0.11278310857E+03  0.18303115542E+02  0.11626512626E+03  0.00000000000E+00 0.  1.
</event>
<event>
 7    1  0.2840156E-009  0.9961617E+02  0.7561462E-02  0.1281105E+00
          2   -1    0    0  501    0  0.00000000000E+00  0.00000000000E+00  0.22678646746E+03  0.22678646746E+03  0.00000000000E+00 0. -1.
         -2   -1    0    0    0  501 -0.00000000000E+00 -0.00000000000E+00 -0.62772370873E+02  0.62772370873E+02  0.00000000000E+00 0.  1.
         25    2    1    2    0    0  0.59500493936E+01  0.32758458574E+01  0.15475997049E+03  0.19911315732E+03  0.12509702912E+03 0.  0.
          5    1    3    3  502    0 -0.68064705679E+01  0.55404112981E+02  0.30618547719E+02  0.63803696141E+02  0.41800000000E+01 0. -1.
         -5    1    3    3    0  502  0.12756519961E+02 -0.52128267124E+02  0.12414142278E+03  0.13530946118E+03  0.41800000000E+01 0. -1.
        -11    1    1    2    0    0 -0.24379358310E+02 -0.40852420569E+02  0.98775007838E+01  0.48588459532E+02  0.00000000000E+00 0.  1.
         11    1    1    2    0    0  0.18429308917E+02  0.37576574712E+02 -0.62337469193E+00  0.41857221482E+02  0.00000000000E+00 0. -1.
</event>
<event>
 7    1  0.2840156E-009  0.1062693E+03  0.7561462E-02  0.1267639E+00
          1   -1    0    0  501    0  0.00000000000E+00  0.00000000000E+00  0.29381364553E+03  0.29381364553E+03  0.00000000000E+00 0. -1.
         -1   -1    0    0    0  501 -0.00000000000E+00 -0.00000000000E+00 -0.59001916939E+02  0.59001916939E+02  0.00000000000E+00 0.  1.
         25    2    1    2    0    0 -0.46840530928E+02  0.24090713489E+02  0.59007382685E+02  0.14799774312E+03  0.12508822064E+03 0.  0.
          5    1    3    3  502    0  0.30074330627E+02 -0.28886091078E+02  0.13552760945E+02  0.44045673450E+02  0.41800000000E+01 0.  1.
         -5    1    3    3    0  502 -0.76914861556E+02  0.52976804567E+02  0.45454621740E+02  0.10395206967E+03  0.41800000000E+01 0.  1.
        -11    1    1    2    0    0 -0.12687745489E+02  0.58769346728E+00 -0.43969166326E+01  0.13440875905E+02  0.00000000000E+00 0.  1.
         11    1    1    2    0    0  0.59528276418E+02 -0.24678406956E+02  0.18020126254E+03  0.19137694345E+03  0.00000000000E+00 0. -1.
</event>
<event>
 7    1  0.2840156E-009  0.1226847E+03  0.7561462E-02  0.1238733E+00
         -4   -1    0    0    0  501 -0.00000000000E+00  0.00000000000E+00  0.15702080751E+03  0.15702080751E+03  0.00000000000E+00 0. -1.
          4   -1    0    0  501    0  0.00000000000E+00 -0.00000000000E+00 -0.11115809896E+03  0.11115809896E+03  0.00000000000E+00 0.  1.
         25    2    1    2    0    0  0.43812345405E+02 -0.59042243461E+02  0.33773057176E+02  0.14897058198E+03  0.12508439863E+03 0.  0.
          5    1    3    3  502    0  0.24196954324E+02 -0.94730297411E+02  0.43183518141E+02  0.10696546398E+03  0.41800000000E+01 0.  1.
         -5    1    3    3    0  502  0.19615391082E+02  0.35688053950E+02 -0.94104609651E+01  0.42005117993E+02  0.41800000000E+01 0.  1.
        -11    1    1    2    0    0  0.68837722195E+00  0.61970136407E+02  0.32708284690E+02  0.70075698761E+02  0.00000000000E+00 0. -1.
         11    1    1    2    0    0 -0.44500722627E+02 -0.29278929469E+01 -0.20618633315E+02  0.49132625731E+02  0.00000000000E+00 0.  1.
</event>
<event>
 7    1  0.2840156E-009  0.9103712E+02  0.7561462E-02  0.1300359E+00
          4   -1    0    0  501    0  0.00000000000E+00  0.00000000000E+00  0.10126191102E+03  0.10126191102E+03  0.00000000000E+00 0. -1.
         -4   -1    0    0    0  501 -0.00000000000E+00 -0.00000000000E+00 -0.13437071610E+03  0.13437071610E+03  0.00000000000E+00 0.  1.
         25    2    1    2    0    0  0.22831412969E+02 -0.98662306286E+01  0.14879489553E+02  0.12840699328E+03  0.12509332832E+03 0.  0.
          5    1    3    3  502    0  0.90573932110E+01  0.49133568309E+02  0.38532941315E+02  0.63232933451E+02  0.41800000000E+01 0.  1.
         -5    1    3    3    0  502  0.13774019758E+02 -0.58999798937E+02 -0.23653451762E+02  0.65174059833E+02  0.41800000000E+01 0.  1.
        -11    1    1    2    0    0 -0.25082850353E+01  0.37123479199E+02 -0.60475575524E+02  0.71005207109E+02  0.00000000000E+00 0.  1.
         11    1    1    2    0    0 -0.20323127933E+02 -0.27257248571E+02  0.12487280887E+02  0.36220426731E+02  0.00000000000E+00 0. -1.
</event>
<event>
 7    1  0.2840156E-009  0.8545736E+02  0.7561462E-02  0.1314241E+00
          2   -1    0    0  501    0  0.00000000000E+00  0.00000000000E+00  0.25670253697E+03  0.25670253697E+03  0.00000000000E+00 0. -1.
         -2   -1    0    0    0  501 -0.00000000000E+00 -0.00000000000E+00 -0.59387522803E+02  0.59387522803E+02  0.00000000000E+00 0.  1.
         25    2    1    2    0    0 -0.25240359642E+02 -0.72288802055E+01  0.17674525213E+03  0.21812053546E+03  0.12509337063E+03 0.  0.
          5    1    3    3  502    0 -0.11410169096E+01  0.30159726381E+02 -0.50769575723E+01  0.30889462818E+02  0.41800000000E+01 0.  1.
         -5    1    3    3    0  502 -0.24099342732E+02 -0.37388606587E+02  0.18182220970E+03  0.18723107265E+03  0.41800000000E+01 0.  1.
        -11    1    1    2    0    0 -0.23568292264E+02 -0.27235225326E+02  0.86779371186E+01  0.37047651631E+02  0.00000000000E+00 0.  1.
         11    1    1    2    0    0  0.48808651906E+02  0.34464105531E+02  0.11891824920E+02  0.60921872680E+02  0.00000000000E+00 0. -1.
</event>
<event>
 7    1  0.2840156E-009  0.7538062E+02  0.7561462E-02  0.1342696E+00
         -2   -1    0    0    0  501 -0.00000000000E+00  0.00000000000E+00  0.15564135853E+02  0.15564135853E+02  0.00000000000E+00 0.  1.
          2   -1    0    0  501    0  0.00000000000E+00 -0.00000000000E+00 -0.89702215085E+03  0.89702215085E+03  0.00000000000E+00 0. -1.
         25    2    1    2    0    0  0.42064793791E+02 -0.11876522493E+02 -0.54047472341E+03  0.55648111830E+03  0.12509120561E+03 0.  0.
          5    1    3    3  502    0  0.76562439571E+01  0.96555513489E+01 -0.49581978742E+03  0.49599050569E+03  0.41800000000E+01 0.  1.
         -5    1    3    3    0  502  0.34408549834E+02 -0.21532073842E+02 -0.44654935991E+02  0.60490612610E+02  0.41800000000E+01 0.  1.
        -11    1    1    2    0    0  0.19882823322E+02  0.26658924881E+02 -0.66778810666E+02  0.74601839743E+02  0.00000000000E+00 0.  1.
         11    1    1    2    0    0 -0.61947617113E+02 -0.14782402388E+02 -0.27420448093E+03  0.28150332866E+03  0.00000000000E+00 0. -1.
</event>
<event>
 7    1  0.2840156E-009  0.1181871E+03  0.7561462E-02  0.1246118E+00
         -1   -1    0    0    0  501 -0.00000000000E+00  0.00000000000E+00  0.15636419916E+03  0.15636419916E+03  0.00000000000E+00 0.  1.
          1   -1    0    0  501    0  0.00000000000E+00 -0.00000000000E+00 -0.14459903011E+03  0.14459903011E+03  0.00000000000E+00 0. -1.
         25    2    1    2    0    0 -0.79628753255E+01 -0.10314532953E+03 -0.66784828818E+01  0.16246306671E+03  0.12508908635E+03 0.  0.
          5    1    3    3  502    0  0.49205880725E+01 -0.38842055900E+02 -0.64078821547E+02  0.75209608857E+02  0.41800000000E+01 0. -1.
         -5    1    3    3    0  502 -0.12883463398E+02 -0.64303273633E+02  0.57400338665E+02  0.87253457856E+02  0.41800000000E+01 0. -1.
        -11    1    1    2    0    0  0.31764162761E+02  0.73855462632E+01  0.22701500969E+02  0.39734952822E+02  0.00000000000E+00 0.  1.
         11    1    1    2    0    0 -0.23801287436E+02  0.95759783270E+02 -0.42578490282E+01  0.98765209734E+02  0.00000000000E+00 0. -1.
</event>
<event>
 7    1  0.2840156E-009  0.1173326E+03  0.7561462E-02  0.1247563E+00
          1   -1    0    0  501    0  0.00000000000E+00  0.00000000000E+00  0.23443180475E+03  0.23443180475E+03  0.00000000000E+00 0. -1.
         -1   -1    0    0    0  501 -0.00000000000E+00 -0.00000000000E+00 -0.94469663606E+02  0.94469663606E+02  0.00000000000E+00 0.  1.
         25    2    1    2    0    0 -0.64840080869E+01 -0.54364739802E+02  0.17093531134E+03  0.21877677595E+03  0.12508728846E+03 0.  0.
          5    1    3    3  502    0 -0.63259719424E+02 -0.47229477934E+02  0.10342955535E+03  0.13018279843E+03  0.41800000000E+01 0.  1.
         -5    1    3    3    0  502  0.56775711337E+02 -0.71352618677E+01  0.67505755991E+02  0.88593977514E+02  0.41800000000E+01 0.  1.
        -11    1    1    2    0    0  0.12810876268E+02  0.75290671027E+02 -0.40304042907E+02  0.86355194222E+02  0.00000000000E+00 0.  1.
         11    1    1    2    0    0 -0.63268681808E+01 -0.20925931225E+02  0.93308727091E+01  0.23769498188E+02  0.00000000000E+00 0. -1.
</event>
<event>
 7    1  0.2840156E-009  0.9427374E+02  0.7561462E-02  0.1292820E+00
         -1   -1    0    0    0  501 -0.00000000000E+00  0.00000000000E+00  0.35716791136E+02  0.35716791136E+02  0.00000000000E+00 0.  1.
          1   -1    0    0  501    0  0.00000000000E+00 -0.00000000000E+00 -0.47760748234E+03  0.47760748234E+03  0.00000000000E+00 0. -1.
         25    2    1    2    0    0 -0.55687514644E+02 -0.21118316464E+02 -0.16378518663E+03  0.21452209104E+03  0.12508819932E+03 0.  0.
          5    1    3    3  502    0 -0.25691192036E+02  0.18443292979E+02  0.10240844294E+02  0.33504323542E+02  0.41800000000E+01 0. -1.
         -5    1    3    3    0  502 -0.29996322608E+02 -0.39561609443E+02 -0.17402603092E+03  0.18101776750E+03  0.41800000000E+01 0. -1.
        -11    1    1    2    0    0 -0.86937788035E+01  0.39038188676E+02 -0.75189346967E+02  0.85164545806E+02  0.00000000000E+00 0.  1.
         11    1    1    2    0    0  0.64381293448E+02 -0.17919872212E+02 -0.20291615761E+03  0.21363763663E+03  0.00000000000E+00 0. -1.
</event>
<event>
 7    1  0.2840156E-009  0.1542049E+03  0.7561462E-02  0.1195399E+00
         -2   -1    0    0    0  501 -0.00000000000E+00  0.00000000000E+00  0.89407524026E+02  0.89407524026E+02  0.00000000000E+00 0.  1.
          2   -1    0    0  501    0  0.00000000000E+00 -0.00000000000E+00 -0.30590714333E+03  0.30590714333E+03  0.00000000000E+00 0. -1.
         25    2    1    2    0    0  0.12371605548E+03  0.11343479318E+02 -0.10843634014E+03  0.20697214464E+03  0.12507874274E+03 0.  0.
          5    1    3    3  502    0  0.56140252786E+02 -0.49357037815E+02 -0.14549633463E+02  0.76269321477E+02  0.41800000000E+01 0.  1.
         -5    1    3    3    0  502  0.67575802699E+02  0.60700517133E+02 -0.93886706681E+02  0.13070282316E+03  0.41800000000E+01 0.  1.
        -11    1    1    2    0    0 -0.30902130893E+02  0.28094795299E+02 -0.17394759652E+01  0.41800538193E+02  0.00000000000E+00 0. -1.
         11    1    1    2    0    0 -0.92813924592E+02 -0.39438274617E+02 -0.10632380320E+03  0.14654198453E+03  0.00000000000E+00 0.  1.
</event>
<event>
 7    1  0.2840156E-009  0.9516842E+02  0.7561462E-02  0.1290797E+00
          1   -1    0    0  501    0  0.00000000000E+00  0.00000000000E+00  0.58908791140E+03  0.58908791140E+03  0.00000000000E+00 0. -1.
         -1   -1    0    0    0  501 -0.00000000000E+00 -0.00000000000E+00 -0.23214745590E+02  0.23214745590E+02  0.00000000000E+00 0.  1.
         25    2    1    2    0    0 -0.28826267236E+01 -0.20387967503E+02  0.22144331522E+03  0.25516332463E+03  0.12508877498E+03 0.  0.
          5    1    3    3  502    0 -0.48166427905E+02  0.82323501456E+01  0.18204146177E+03  0.18853207305E+03  0.41800000000E+01 0.  1.
         -5    1    3    3    0  502  0.45283801181E+02 -0.28620317648E+02  0.39401853453E+02  0.66631251580E+02  0.41800000000E+01 0.  1.
        -11    1    1    2    0    0  0.75866740019E+01 -0.33053279107E+02  0.20421546762E+03  0.20701215930E+03  0.00000000000E+00 0. -1.
         11    1    1    2    0    0 -0.47040472783E+01  0.53441246609E+02  0.14021438297E+03  0.15012717306E+03  0.00000000000E+00 0.  1.
</event>
<event>
 7    1  0.2840156E-009  0.1128357E+03  0.7561462E-02  0.1255407E+00
          1   -1    0    0  501    0  0.00000000000E+00  0.00000000000E+00  0.15002342263E+03  0.15002342263E+03  0.00000000000E+00 0. -1.
         -1   -1    0    0    0  501 -0.00000000000E+00 -0.00000000000E+00 -0.99182243724E+02  0.99182243724E+02  0.00000000000E+00 0.  1.
         25    2    1    2    0    0 -0.23580775666E+02 -0.38285174484E+02 -0.32395754749E+01  0.13297026375E+03  0.12509511832E+03 0.  0.
          5    1    3    3  502    0  0.47011270871E+02 -0.16670910365E+01 -0.20505636993E+02  0.51485845918E+02  0.41800000000E+01 0. -1.
         -5    1    3    3    0  502 -0.70592046537E+02 -0.36618083448E+02  0.17266061518E+02  0.81484417835E+02  0.41800000000E+01 0. -1.
        -11    1    1    2    0    0  0.57046423852E+02  0.18687216442E+02  0.48252158999E+02  0.77018032829E+02  0.00000000000E+00 0. -1.
         11    1    1    2    0    0 -0.33465648186E+02  0.19597958042E+02  0.58285953856E+01  0.39217369775E+02  0.00000000000E+00 0.  1.
</event>
<event>
 7    1  0.2840156E-009  0.1132702E+03  0.7561462E-02  0.1254631E+00
         -1   -1    0    0    0  501 -0.00000000000E+00  0.00000000000E+00  0.59922044696E+03  0.59922044696E+03  0.00000000000E+00 0.  1.
          1   -1    0    0  501    0  0.00000000000E+00 -0.00000000000E+00 -0.31805751547E+02  0.31805751547E+02  0.00000000000E+00 0. -1.
         25    2    1    2    0    0  0.15036593799E+02  0.53358574228E+02  0.16484163296E+03  0.21423055753E+03  0.12509488889E+03 0.  0.
          5    1    3    3  502    0  0.20219825781E+02  0.84440497560E+02  0.62495279417E+02  0.10706153059E+03  0.41800000000E+01 0. -1.
         -5    1    3    3    0  502 -0.51832319826E+01 -0.31081923331E+02  0.10234635355E+03  0.10716902694E+03  0.41800000000E+01 0. -1.
        -11    1    1    2    0    0  0.39151953620E+02 -0.17777031839E+02  0.15075881872E+03  0.15677091489E+03  0.00000000000E+00 0. -1.
         11    1    1    2    0    0 -0.54188547419E+02 -0.35581542389E+02  0.25181424372E+03  0.26002472608E+03  0.00000000000E+00 0.  1.
</event>
<event>
 7    1  0.2840156E-009  0.1112250E+03  0.7561462E-02  0.1258318E+00
          1   -1    0    0  501    0  0.00000000000E+00  0.00000000000E+00  0.47977648294E+03  0.47977648294E+03  0.00000000000E+00 0. -1.
         -1   -1    0    0    0  501 -0.00000000000E+00 -0.00000000000E+00 -0.32875158254E+02  0.32875158254E+02  0.00000000000E+00 0.  1.
         25    2    1    2    0    0  0.32688377933E+02 -0.14690037374E+01  0.13554388470E+03  0.18732507847E+03  0.12509137588E+03 0.  0.
          5    1    3    3  502    0  0.71807218336E+02 -0.31643927318E+02  0.94918946290E+02  0.12322618839E+03  0.41800000000E+01 0. -1.
         -5    1    3    3    0  502 -0.39118840403E+02  0.30174923580E+02  0.40624938411E+02  0.64098890072E+02  0.41800000000E+01 0. -1.
        -11    1    1    2    0    0 -0.43198037821E+02  0.37221453638E+02  0.18497415438E+03  0.19356380052E+03  0.00000000000E+00 0.  1.
         11    1    1    2    0    0  0.10509659888E+02 -0.35752449901E+02  0.12638328561E+03  0.13176276221E+03  0.00000000000E+00 0. -1.
</event>
<event>
 7    1  0.2840156E-009  0.8640756E+02  0.7561462E-02  0.1311792E+00
          3   -1    0    0  501    0  0.00000000000E+00  0.00000000000E+00  0.39416395747E+03  0.39416395747E+03  0.00000000000E+00 0. -1.
         -3   -1    0    0    0  501 -0.00000000000E+00 -0.00000000000E+00 -0.45747718515E+02  0.45747718515E+02  0.00000000000E+00 0.  1.
         25    2    1    2    0    0 -0.53899621994E+02  0.33139999561E+02  0.11416391739E+03  0.18078825440E+03  0.12509022374E+03 0.  0.
          5    1    3    3  502    0 -0.65434965323E+02  0.11672378753E+01  0.12802485767E+03  0.14384343472E+03  0.41800000000E+01 0. -1.
         -5    1    3    3    0  502  0.11535343329E+02  0.31972761686E+02 -0.13860940285E+02  0.36944819679E+02  0.41800000000E+01 0. -1.
        -11    1    1    2    0    0  0.38867674808E+02 -0.26038370360E+01  0.21791594469E+03  0.22137035723E+03  0.00000000000E+00 0. -1.
         11    1    1    2    0    0  0.15031947186E+02 -0.30536162525E+02  0.16336376873E+02  0.37753064343E+02  0.00000000000E+00 0.  1.
</event>
<event>
 7    1  0.2840156E-009  0.1364373E+03  0.7561462E-02  0.1218205E+00
          1   -1    0    0  501    0  0.00000000000E+00  0.00000000000E+00  0.34124663760E+02  0.34124663760E+02  0.00000000000E+00 0. -1.
         -1   -1    0    0    0  501 -0.00000000000E+00 -0.00000000000E+00 -0.70942041281E+03  0.70942041281E+03  0.00000000000E+00 0.  1.
         25    2    1    2    0    0  0.10906295321E+03  0.31944134416E+00 -0.38482367602E+03  0.41908433079E+03  0.12509030692E+03 0.  0.
          5    1    3    3  502    0  0.44781446138E+01  0.24147980066E+02 -0.22610339896E+03  0.22747175241E+03  0.41800000000E+01 0. -1.
         -5    1    3    3    0  502  0.10458480860E+03 -0.23828538722E+02 -0.15872027706E+03  0.19161257838E+03  0.41800000000E+01 0. -1.
        -11    1    1    2    0    0 -0.10395495880E+02 -0.34626841091E+02 -0.45274286904E+02  0.57938290561E+02  0.00000000000E+00 0. -1.
         11    1    1    2    0    0 -0.98667457329E+02  0.34307399747E+02 -0.24519778613E+03  0.26652245522E+03  0.00000000000E+00 0.  1.
</event>
<event>
 7    1  0.2840156E-009  0.7621265E+02  0.7561462E-02  0.1340156E+00
          1   -1    0    0  501    0  0.00000000000E+00  0.00000000000E+00  0.40608200932E+03  0.40608200932E+03  0.00000000000E+00 0. -1.
         -1   -1    0    0    0  501 -0.00000000000E+00 -0.00000000000E+00 -0.42609403430E+02  0.42609403430E+02  0.00000000000E+00 0.  1.
         25    2    1    2    0    0  0.23488437695E+02  0.69924521869E+02  0.20113385212E+03  0.24807975395E+03  0.12509033691E+03 0.  0.
          5    1    3    3  502    0 -0.97847558876E+00  0.39222308677E+00 -0.17131607377E+02  0.17665662307E+02  0.41800000000E+01 0.  1.
         -5    1    3    3    0  502  0.24466913284E+02  0.69532298782E+02  0.21826545950E+03  0.23041409165E+03  0.41800000000E+01 0.  1.
        -11    1    1    2    0    0 -0.90980483708E+01 -0.40759891125E+02  0.75457138326E+01  0.42439144736E+02  0.00000000000E+00 0.  1.
         11    1    1    2    0    0 -0.14390389324E+02 -0.29164630744E+02  0.15479303994E+03  0.15817251406E+03  0.00000000000E+00 0. -1.
</event>
<event>
 7    1  0.2840156E-009  0.7118662E+02  0.7561462E-02  0.1356104E+00
         -2   -1    0    0    0  501 -0.00000000000E+00  0.00000000000E+00  0.15288990826E+03  0.15288990826E+03  0.00000000000E+00 0.  1.
          2   -1    0    0  501    0  0.00000000000E+00 -0.00000000000E+00 -0.95382778106E+02  0.95382778106E+02  0.00000000000E+00 0. -1.
         25    2    1    2    0    0  0.13473807114E+02 -0.74630295990E+01  0.19982619853E+01  0.12605167456E+03  0.12509113206E+03 0.  0.
          5    1    3    3  502    0 -0.43830628737E+02  0.25619400032E+01  0.37397497061E+02  0.57825018275E+02  0.41800000000E+01 0. -1.
         -5    1    3    3    0  502  0.57304435851E+02 -0.10024969602E+02 -0.35399235076E+02  0.68226656284E+02  0.41800000000E+01 0. -1.
        -11    1    1    2    0    0  0.23054205520E+01 -0.13506239580E+02 -0.29890049187E+02  0.32880822859E+02  0.00000000000E+00 0. -1.
         11    1    1    2    0    0 -0.15779227666E+02  0.20969269179E+02  0.85398917352E+02  0.89340188944E+02  0.00000000000E+00 0.  1.
</event>
<event>
 7    1  0.2840156E-009  0.6253436E+02  0.7561462E-02  0.1387494E+00
          2   -1    0    0  501    0  0.00000000000E+00  0.00000000000E+00  0.28744544946E+02  0.28744544946E+02  0.00000000000E+00 0. -1.
         -2   -1    0    0    0  501 -0.00000000000E+00 -0.00000000000E+00 -0.51587944700E+03  0.51587944700E+03  0.00000000000E+00 0.  1.
         25    2    1    2    0    0 -0.54429311477E+02  0.96982104587E+01 -0.27707322225E+03  0.30898860452E+03  0.12509109481E+03 0.  0.
          5    1    3    3  502    0 -0.77172364559E+01 -0.14445907704E+02 -0.24835380677E+03  0.24892835461E+03  0.41800000000E+01 0. -1.
         -5    1    3    3    0  502 -0.46712075021E+02  0.24144118163E+02 -0.28719415481E+02  0.60060249917E+02  0.41800000000E+01 0. -1.
        -11    1    1    2    0    0  0.10473393654E+02 -0.34040475312E+01  0.76709512854E+01  0.13420991314E+02  0.00000000000E+00 0. -1.
         11    1    1    2    0    0  0.43955917822E+02 -0.62941629276E+01 -0.21773263109E+03  0.22221439611E+03  0.00000000000E+00 0.  1.
</event>
<event>
 7    1  0.2840156E-009  0.1283255E+03  0.7561462E-02  0.1229962E+00
          2   -1    0    0  501    0  0.00000000000E+00  0.00000000000E+00  0.13301875378E+03  0.13301875378E+03  0.00000000000E+00 0. -1.
         -2   -1    0    0    0  501 -0.00000000000E+00 -0.00000000000E+00 -0.17227984523E+03  0.17227984523E+03  0.00000000000E+00 0.  1.
         25    2    1    2    0    0  0.90621036217E+02 -0.15207374597E+02  0.30801472169E+02  0.15825173159E+03  0.12510572895E+03 0.  0.
          5    1    3    3  502    0  0.30919731757E+02 -0.66285925403E+02 -0.13006970862E+01  0.73273582766E+02  0.41800000000E+01 0. -1.
         -5    1    3    3    0  502  0.59701304460E+02  0.51078550806E+02  0.32102169255E+02  0.84978148824E+02  0.41800000000E+01 0. -1.
        -11    1    1    2    0    0 -0.81428962213E+02  0.30426664753E+02 -0.86644730836E+02  0.12273453954E+03  0.00000000000E+00 0.  1.
         11    1    1    2    0    0 -0.91920740044E+01 -0.15219290156E+02  0.16582167220E+02  0.24312327882E+02  0.00000000000E+00 0. -1.
</event>
<event>
 7    1  0.2840156E-009  0.9572884E+02  0.7561462E-02  0.1289543E+00
         -2   -1    0    0    0  501 -0.00000000000E+00  0.00000000000E+00  0.30178996187E+02  0.30178996187E+02  0.00000000000E+00 0.  1.
          2   -1    0    0  501    0  0.00000000000E+00 -0.00000000000E+00 -0.42335058372E+03  0.42335058372E+03  0.00000000000E+00 0. -1.
         25    2    1    2    0    0 -0.21026050970E+02  0.10008127920E+02 -0.20825032885E+03  0.24405132907E+03  0.12510233536E+03 0.  0.
          5    1    3    3  502    0 -0.39753556571E+01  0.50022531816E+02 -0.26067098782E+02  0.56701174422E+02  0.41800000000E+01 0. -1.
         -5    1    3    3    0  502 -0.17050695313E+02 -0.40014403896E+02 -0.18218323007E+03  0.18735015465E+03  0.41800000000E+01 0. -1.
        -11    1    1    2    0    0 -0.10493040634E+02  0.38308248450E+02 -0.90439616908E+02  0.98777275259E+02  0.00000000000E+00 0. -1.
         11    1    1    2    0    0  0.31519091605E+02 -0.48316376370E+02 -0.94481641779E+02  0.11070097558E+03  0.00000000000E+00 0.  1.
</event>
<event>
 7    1  0.2840156E-009  0.9567654E+02  0.7561462E-02  0.1289660E+00
         -1   -1    0    0    0  501 -0.00000000000E+00  0.00000000000E+00  0.22403228123E+02  0.22403228123E+02  0.00000000000E+00 0.  1.
          1   -1    0    0  501    0  0.00000000000E+00 -0.00000000000E+00 -0.64777240479E+03  0.64777240479E+03  0.00000000000E+00 0. -1.
         25    2    1    2    0    0 -0.36426607638E+01  0.47443692835E+02 -0.41407122548E+03  0.43516204657E+03  0.12508738559E+03 0.  0.
          5    1    3    3  502    0 -0.73128899256E+01  0.67993560277E+02 -0.10510795631E+03  0.12546616069E+03  0.41800000000E+01 0. -1.
         -5    1    3    3    0  502  0.36702291618E+01 -0.20549867442E+02 -0.30896326917E+03  0.30969588588E+03  0.41800000000E+01 0. -1.
        -11    1    1    2    0    0  0.22724739715E+02 -0.69068050459E+02 -0.13307549679E+03  0.15164398187E+03  0.00000000000E+00 0.  1.
         11    1    1    2    0    0 -0.19082078951E+02  0.21624357624E+02 -0.78222454394E+02  0.83369604480E+02  0.00000000000E+00 0. -1.
</event>
<event>
 7    1  0.3682847E-009  0.1195771E+03  0.7561462E-02  0.1243796E+00
          3   -1    0    0  501    0  0.00000000000E+00  0.00000000000E+00  0.73129558887E+02  0.73129558887E+02  0.00000000000E+00 0. -1.
         -3   -1    0    0    0  501 -0.00000000000E+00 -0.00000000000E+00 -0.27301851664E+03  0.27301851664E+03  0.00000000000E+00 0.  1.
         25    2    1    2    0    0  0.93938754181E+00  0.84448282877E+02 -0.70391199434E+02  0.16653686777E+03  0.12508881820E+03 0.  0.
          5    1    3    3  502    0  0.57007593616E+02  0.15103023743E+02 -0.13398075961E+02  0.60621348513E+02  0.41800000000E+01 0.  1.
         -5    1    3    3    0  502 -0.56068206074E+02  0.69345259134E+02 -0.56993123473E+02  0.10591551926E+03  0.41800000000E+01 0.  1.
        -11    1    1    2    0    0 -0.17000063616E+02 -0.48221923856E+02 -0.13030328895E+03  0.13997608086E+03  0.00000000000E+00 0. -1.
         11    1    1    2    0    0  0.16060676074E+02 -0.36226359021E+02  0.80553063219E+00  0.39635126889E+02  0.00000000000E+00 0.  1.
</event>
<event>
 7    1  0.2840156E-009  0.1126331E+03  0.7561462E-02  0.1255770E+00
         -3   -1    0    0    0  501 -0.00000000000E+00  0.00000000000E+00  0.22682371160E+02  0.22682371160E+02  0.00000000000E+00 0.  1.
          3   -1    0    0  501    0  0.00000000000E+00 -0.00000000000E+00 -0.79095669639E+03  0.79095669639E+03  0.00000000000E+00 0. -1.
         25    2    1    2    0    0  0.50340129028E+02 -0.12074173087E+02 -0.60731655762E+03  0.62222236136E+03  0.12508937433E+03 0.  0.
          5    1    3    3  502    0 -0.32048205904E+02  0.28559114590E+02 -0.17539042901E+03  0.18061557385E+03  0.41800000000E+01 0. -1.
         -5    1    3    3    0  502  0.82388334931E+02 -0.40633287677E+02 -0.43192612861E+03  0.44160678751E+03  0.41800000000E+01 0. -1.
        -11    1    1    2    0    0 -0.17477839646E+02 -0.31246844562E+02 -0.11427187211E+03  0.11974932538E+03  0.00000000000E+00 0. -1.
         11    1    1    2    0    0 -0.32862289382E+02  0.43321017649E+02 -0.46685895501E+02  0.71667380811E+02  0.00000000000E+00 0.  1.
</event>
<event>
 7    1  0.2840156E-009  0.7687082E+02  0.7561462E-02  0.1338174E+00
         -1   -1    0    0    0  501 -0.00000000000E+00  0.00000000000E+00  0.40741854874E+02  0.40741854874E+02  0.00000000000E+00 0.  1.
          1   -1    0    0  501    0  0.00000000000E+00 -0.00000000000E+00 -0.31150518458E+03  0.31150518458E+03  0.00000000000E+00 0. -1.
         25    2    1    2    0    0 -0.12194441769E+02  0.63230618683E+01 -0.19288631687E+03  0.23030832626E+03  0.12509239939E+03 0.  0.
          5    1    3    3  502    0 -0.19657112085E+02  0.29763717376E+02 -0.99366007505E-01  0.35913273329E+02  0.41800000000E+01 0.  1.
         -5    1    3    3    0  502  0.74626703153E+01 -0.23440655508E+02 -0.19278695087E+03  0.19439505293E+03  0.41800000000E+01 0.  1.
        -11    1    1    2    0    0 -0.36991523315E+02 -0.19690786406E+02 -0.43850410836E+02  0.60654417786E+02  0.00000000000E+00 0.  1.
         11    1    1    2    0    0  0.49185965084E+02  0.13367724538E+02 -0.34026601997E+02  0.61284295411E+02  0.00000000000E+00 0. -1.
</event>
<event>
 7    1  0.2840156E-009  0.1786690E+03  0.7561462E-02  0.1169097E+00
         -2   -1    0    0    0  501 -0.00000000000E+00  0.00000000000E+00  0.54890384715E+02  0.54890384715E+02  0.00000000000E+00 0.  1.
          2   -1    0    0  501    0  0.00000000000E+00 -0.00000000000E+00 -0.92714823755E+03  0.92714823755E+03  0.00000000000E+00 0. -1.
         25    2    1    2    0    0  0.14558130576E+03  0.70588256725E+02 -0.18813281866E+03  0.27788020581E+03  0.12508730052E+03 0.  0.
          5    1    3    3  502    0  0.10037018391E+03 -0.11640000611E+02 -0.13894083632E+03  0.17184787409E+03  0.41800000000E+01 0.  1.
         -5    1    3    3    0  502  0.45211121848E+02  0.82228257336E+02 -0.49191982342E+02  0.10603233172E+03  0.41800000000E+01 0.  1.
        -11    1    1    2    0    0 -0.44515381634E+02 -0.15259603883E+02 -0.28009312263E+03  0.28401871779E+03  0.00000000000E+00 0. -1.
         11    1    1    2    0    0 -0.10106592412E+03 -0.55328652842E+02 -0.40403191155E+03  0.42013969867E+03  0.00000000000E+00 0.  1.
</event>
<event>
 7    1  0.2840156E-009  0.2775530E+03  0.7561462E-02  0.1097033E+00
          1   -1    0    0  501    0  0.00000000000E+00  0.00000000000E+00  0.93811951867E+02  0.93811951867E+02  0.00000000000E+00 0. -1.
         -1   -1    0    0    0  501 -0.00000000000E+00 -0.00000000000E+00 -0.86494973198E+03  0.86494973198E+03  0.00000000000E+00 0.  1.
         25    2    1    2    0    0  0.21220304192E+03 -0.15626752364E+03 -0.41898628262E+03  0.51053524892E+03  0.12508823055E+03 0.  0.
          5    1    3    3  502    0  0.50639641684E+02 -0.11097130000E+03 -0.20490765857E+03  0.23850287980E+03  0.41800000000E+01 0.  1.
         -5    1    3    3    0  502  0.16156340023E+03 -0.45296223640E+02 -0.21407862405E+03  0.27203236911E+03  0.41800000000E+01 0.  1.
        -11    1    1    2    0    0 -0.80989979100E+02  0.77911854505E+02 -0.86755211663E+02  0.14197218227E+03  0.00000000000E+00 0. -1.
         11    1    1    2    0    0 -0.13121306282E+03  0.78355669140E+02 -0.26539628584E+03  0.30625425267E+03  0.00000000000E+00 0.  1.
</event>
<event>
 7    1  0.2840156E-009  0.9485506E+02  0.7561462E-02  0.1291503E+00
         -1   -1    0    0    0  501 -0.00000000000E+00  0.00000000000E+00  0.29205274441E+02  0.29205274441E+02  0.00000000000E+00 0.  1.
          1   -1    0    0  501    0  0.00000000000E+00 -0.00000000000E+00 -0.51821835408E+03  0.51821835408E+03  0.00000000000E+00 0. -1.
         25    2    1    2    0    0  0.41340879262E+01 -0.55121197982E+02 -0.22585408675E+03  0.26403214707E+03  0.12508984385E+03 0.  0.
          5    1    3    3  502    0 -0.28474221556E+02 -0.74241541936E+02 -0.20658363411E+03  0.22139751156E+03  0.41800000000E+01 0.  1.
         -5    1    3    3    0  502  0.32608309482E+02  0.19120343955E+02 -0.19270452639E+02  0.42634635511E+02  0.41800000000E+01 0.  1.
        -11    1    1    2    0    0  0.13311606519E+02  0.52803521565E+02 -0.25983668402E+03  0.26548166249E+03  0.00000000000E+00 0. -1.
         11    1    1    2    0    0 -0.17445694446E+02  0.23176764167E+01 -0.33223088624E+01  0.17909818950E+02  0.00000000000E+00 0.  1.
</event>
<event>
 7    1  0.2840156E-009  0.8461353E+02  0.7561462E-02  0.1316446E+00
          2   -1    0    0  501    0  0.00000000000E+00  0.00000000000E+00  0.26313174590E+03  0.26313174590E+03  0.00000000000E+00 0.  1.
         -2   -1    0    0    0  501 -0.00000000000E+00 -0.00000000000E+00 -0.50661336976E+02  0.50661336976E+02  0.00000000000E+00 0. -1.
         25    2    1    2    0    0 -0.58730645679E+01  0.35128606967E+02  0.97264615141E+02  0.16241183731E+03  0.12509471461E+03 0.  0.
          5    1    3    3  502    0 -0.10875902528E+02 -0.27249120304E+02 -0.15451525169E+02  0.33421876716E+02  0.41800000000E+01 0.  1.
         -5    1    3    3    0  502  0.50028379602E+01  0.62377727272E+02  0.11271614031E+03  0.12898996059E+03  0.41800000000E+01 0.  1.
        -11    1    1    2    0    0 -0.31243505677E+02 -0.16938147000E+02  0.79241890650E+01  0.36412226561E+02  0.00000000000E+00 0. -1.
         11    1    1    2    0    0  0.37116570245E+02 -0.18190459967E+02  0.10728160472E+03  0.11496901901E+03  0.00000000000E+00 0.  1.
</event>
<event>
 7    1  0.3664021E-009  0.1216865E+03  0.7561462E-02  0.1240340E+00
          1   -1    0    0  501    0  0.00000000000E+00  0.00000000000E+00  0.33963192566E+03  0.33963192566E+03  0.00000000000E+00 0. -1.
         -1   -1    0    0    0  501 -0.00000000000E+00 -0.00000000000E+00 -0.70628862801E+02  0.70628862801E+02  0.00000000000E+00 0.  1.
         25    2    1    2    0    0 -0.80475162204E+02 -0.68433211040E+02  0.18759315185E+03  0.24899443846E+03  0.12509070173E+03 0.  0.
          5    1    3    3  502    0  0.13418563365E+02 -0.15509890051E+02 -0.10516846104E+02  0.23424153862E+02  0.41800000000E+01 0.  1.
         -5    1    3    3    0  502 -0.93893725569E+02 -0.52923320989E+02  0.19810999795E+03  0.22557028460E+03  0.41800000000E+01 0.  1.
        -11    1    1    2    0    0  0.46996631528E+02  0.11261452294E+02 -0.90221688314E+01  0.49162009857E+02  0.00000000000E+00 0.  1.
         11    1    1    2    0    0  0.33478530675E+02  0.57171758746E+02  0.90432079840E+02  0.11210434014E+03  0.00000000000E+00 0. -1.
</event>
<event>
 7    1  0.2840156E-009  0.1194392E+03  0.7561462E-02  0.1244025E+00
         -4   -1    0    0    0  501 -0.00000000000E+00  0.00000000000E+00  0.64562038978E+02  0.64562038978E+02  0.00000000000E+00 0.  1.
          4   -1    0    0  501    0  0.00000000000E+00 -0.00000000000E+00 -0.23087909378E+03  0.23087909378E+03  0.00000000000E+00 0. -1.
         25    2    1    2    0    0  0.55382039225E+02  0.29267514146E+02 -0.88921006450E+02  0.16576770190E+03  0.12509287731E+03 0.  0.
          5    1    3    3  502    0  0.95037070947E+02  0.29763815321E+02 -0.58154013322E+02  0.11540056855E+03  0.41800000000E+01 0. -1.
         -5    1    3    3    0  502 -0.39655031722E+02 -0.49630117521E+00 -0.30766993128E+02  0.50367133350E+02  0.41800000000E+01 0. -1.
        -11    1    1    2    0    0 -0.25861780718E+02 -0.54606019044E+02 -0.65226551148E+02  0.88910921671E+02  0.00000000000E+00 0. -1.
         11    1    1    2    0    0 -0.29520258507E+02  0.25338504898E+02 -0.12169497201E+02  0.40762509183E+02  0.00000000000E+00 0.  1.
</event>
<event>
 7    1  0.2840156E-009  0.1603037E+03  0.7561462E-02  0.1188354E+00
          1   -1    0    0  501    0  0.00000000000E+00  0.00000000000E+00  0.44846686725E+03  0.44846686725E+03  0.00000000000E+00 0. -1.
         -1   -1    0    0    0  501 -0.00000000000E+00 -0.00000000000E+00 -0.71804414284E+02  0.71804414284E+02  0.00000000000E+00 0.  1.
         25    2    1    2    0    0 -0.13524330999E+03 -0.24724108251E+02  0.14229807707E+03  0.23409029661E+03  0.12508992687E+03 0.  0.
          5    1    3    3  502    0 -0.12017506915E+03  0.31355422935E+02  0.75178438699E+02  0.14523938804E+03  0.41800000000E+01 0. -1.
         -5    1    3    3    0  502 -0.15068240842E+02 -0.56079531186E+02  0.67119638369E+02  0.88850908576E+02  0.41800000000E+01 0. -1.
        -11    1    1    2    0    0  0.69853627195E+02  0.19486632978E+02  0.43985752273E+02  0.84817477563E+02  0.00000000000E+00 0.  1.
         11    1    1    2    0    0  0.65389682793E+02  0.52374752734E+01  0.19037862362E+03  0.20136350736E+03  0.00000000000E+00 0. -1.
</event>
<event>
 7    1  0.3025905E-009  0.1746319E+03  0.7561462E-02  0.1173102E+00
         -2   -1    0    0    0  501 -0.00000000000E+00  0.00000000000E+00  0.36272831569E+02  0.36272831569E+02  0.00000000000E+00 0.  1.
          2   -1    0    0  501    0  0.00000000000E+00 -0.00000000000E+00 -0.10752894003E+04  0.10752894003E+04  0.00000000000E+00 0. -1.
         25    2    1    2    0    0 -0.14811788479E+03  0.71153212635E+02 -0.54921146096E+03  0.58675809974E+03  0.12510056472E+03 0.  0.
          5    1    3    3  502    0 -0.84949569293E+02  0.84883900533E+02 -0.21476405066E+03  0.24609505430E+03  0.41800000000E+01 0. -1.
         -5    1    3    3    0  502 -0.63168315500E+02 -0.13730687897E+02 -0.33444741030E+03  0.34066304544E+03  0.41800000000E+01 0. -1.
        -11    1    1    2    0    0  0.30162548537E+02 -0.14334657378E+02 -0.24469949952E+02  0.41400968432E+02  0.00000000000E+00 0.  1.
         11    1    1    2    0    0  0.11795533626E+03 -0.56818555257E+02 -0.46533515778E+03  0.48340316366E+03  0.00000000000E+00 0. -1.
</event>
<event>
 7    1  0.2840156E-009  0.1228853E+03  0.7561462E-02  0.1238412E+00
          1   -1    0    0  501    0  0.00000000000E+00  0.00000000000E+00  0.19292098830E+02  0.19292098830E+02  0.00000000000E+00 0. -1.
         -1   -1    0    0    0  501 -0.00000000000E+00 -0.00000000000E+00 -0.98510838071E+03  0.98510838071E+03  0.00000000000E+00 0.  1.
         25    2    1    2    0    0 -0.14094488967E+02 -0.83563657253E+02 -0.49975735705E+03  0.52209571367E+03  0.12507988997E+03 0.  0.
          5    1    3    3  502    0 -0.10500748411E+02 -0.10503166695E+03 -0.48270934632E+03  0.49413328385E+03  0.41800000000E+01 0. -1.
         -5    1    3    3    0  502 -0.35937405555E+01  0.21468009702E+02 -0.17048010724E+02  0.27962429819E+02  0.41800000000E+01 0. -1.
        -11    1    1    2    0    0  0.44404047635E+02  0.22462256456E+02 -0.27429462408E+03  0.27877197350E+03  0.00000000000E+00 0.  1.
         11    1    1    2    0    0 -0.30309558668E+02  0.61101400798E+02 -0.19176430076E+03  0.20353279237E+03  0.00000000000E+00 0. -1.
</event>
<event>
 7    1  0.2840156E-009  0.1591924E+03  0.7561462E-02  0.1189612E+00
          1   -1    0    0  501    0  0.00000000000E+00  0.00000000000E+00  0.16153505510E+04  0.16153505510E+04  0.00000000000E+00 0. -1.
         -1   -1    0    0    0  501 -0.00000000000E+00 -0.00000000000E+00 -0.17211228248E+02  0.17211228248E+02  0.00000000000E+00 0.  1.
         25    2    1    2    0    0  0.10324051838E+03 -0.57054385553E+02  0.10624510693E+04  0.10762733036E+04  0.12509253265E+03 0.  0.
          5    1    3    3  502    0 -0.92902478832E+01  0.27834410843E+02  0.23949033344E+03  0.24131754048E+03  0.41800000000E+01 0. -1.
         -5    1    3    3    0  502  0.11253076626E+03 -0.84888796396E+02  0.82296073587E+03  0.83495576308E+03  0.41800000000E+01 0. -1.
        -11    1    1    2    0    0 -0.70105907310E+01  0.50810568150E+02  0.23430838585E+03  0.23985679456E+03  0.00000000000E+00 0. -1.
         11    1    1    2    0    0 -0.96229927650E+02  0.62438174024E+01  0.30137986756E+03  0.31643168109E+03  0.00000000000E+00 0.  1.
</event>
<event>
 7    1  0.2840156E-009  0.2341640E+03  0.7561462E-02  0.1123743E+00
         -2   -1    0    0    0  501 -0.00000000000E+00  0.00000000000E+00  0.48308224899E+03  0.48308224899E+03  0.00000000000E+00 0. -1.
          2   -1    0    0  501    0  0.00000000000E+00 -0.00000000000E+00 -0.13388445554E+03  0.13388445554E+03  0.00000000000E+00 0.  1.
         25    2    1    2    0    0  0.17248404827E+03  0.12772955827E+03  0.80256724451E+02  0.26106335102E+03  0.12508934591E+03 0.  0.
          5    1    3    3  502    0 -0.11269766032E+02  0.31459479264E+02  0.35248663812E+02  0.48750868326E+02  0.41800000000E+01 0.  1.
         -5    1    3    3    0  502  0.18375381431E+03  0.96270079011E+02  0.45008060639E+02  0.21231248269E+03  0.41800000000E+01 0.  1.
        -11    1    1    2    0    0 -0.12386813516E+03 -0.46129566313E+02  0.11597005200E+03  0.17584170369E+03  0.00000000000E+00 0.  1.
         11    1    1    2    0    0 -0.48615913113E+02 -0.81599991962E+02  0.15297101700E+03  0.18006164982E+03  0.00000000000E+00 0. -1.
</event>
<event>
 7    1  0.3191964E-009  0.1442677E+03  0.7561462E-02  0.1207699E+00
         -2   -1    0    0    0  501 -0.00000000000E+00  0.00000000000E+00  0.46435793934E+02  0.46435793934E+02  0.00000000000E+00 0.  1.
          2   -1    0    0  501    0  0.00000000000E+00 -0.00000000000E+00 -0.54188920814E+03  0.54188920814E+03  0.00000000000E+00 0. -1.
         25    2    1    2    0    0  0.48797323854E+02  0.98003781392E+02 -0.33287171195E+03  0.37207086837E+03  0.12508890635E+03 0.  0.
          5    1    3    3  502    0 -0.42289223512E+02  0.30826873899E+02 -0.92669936268E+02  0.10650757751E+03  0.41800000000E+01 0.  1.
         -5    1    3    3    0  502  0.91086547366E+02  0.67176907493E+02 -0.24020177568E+03  0.26556329086E+03  0.41800000000E+01 0.  1.
        -11    1    1    2    0    0 -0.45605497556E+02 -0.29748359427E+02 -0.19753554724E+02  0.57922614065E+02  0.00000000000E+00 0.  1.
         11    1    1    2    0    0 -0.31918262978E+01 -0.68255421966E+02 -0.14282814753E+03  0.15833151964E+03  0.00000000000E+00 0. -1.
</event>
<event>
 7    1  0.2840156E-009  0.1187027E+03  0.7561462E-02  0.1245253E+00
          2   -1    0    0  501    0  0.00000000000E+00  0.00000000000E+00  0.19295733460E+04  0.19295733460E+04  0.00000000000E+00 0. -1.
         -2   -1    0    0    0  501 -0.00000000000E+00 -0.00000000000E+00 -0.11516261993E+02  0.11516261993E+02  0.00000000000E+00 0.  1.
         25    2    1    2    0    0  0.13536371350E+02  0.53494571798E+02  0.15904657612E+04  0.15963314116E+04  0.12509090937E+03 0.  0.
          5    1    3    3  502    0  0.19873713134E+01 -0.37758502800E+02  0.72123770480E+03  0.72224023247E+03  0.41800000000E+01 0.  1.
         -5    1    3    3    0  502  0.11549000037E+02  0.91253074598E+02  0.86922805643E+03  0.87409117917E+03  0.41800000000E+01 0.  1.
        -11    1    1    2    0    0  0.10532706941E+01  0.26224257618E+02  0.88093255304E+02  0.91919762275E+02  0.00000000000E+00 0. -1.
         11    1    1    2    0    0 -0.14589642044E+02 -0.79718829416E+02  0.23949806743E+03  0.25283843403E+03  0.00000000000E+00 0.  1.
</event>
<event>
 7    1  0.2840156E-009  0.1192913E+03  0.7561462E-02  0.1244271E+00
         -2   -1    0    0    0  501 -0.00000000000E+00  0.00000000000E+00  0.40004081939E+02  0.40004081939E+02  0.00000000000E+00 0.  1.
          2   -1    0    0  501    0  0.00000000000E+00 -0.00000000000E+00 -0.66886206859E+03  0.66886206859E+03  0.00000000000E+00 0. -1.
         25    2    1    2    0    0 -0.34639833284E+02 -0.63875059386E+02 -0.55685682400E+03  0.57534138216E+03  0.12509293476E+03 0.  0.
          5    1    3    3  502    0 -0.46175347316E+02  0.16332633036E+02 -0.34488034590E+03  0.34836596130E+03  0.41800000000E+01 0. -1.
         -5    1    3    3    0  502  0.11535514032E+02 -0.80207692422E+02 -0.21197647810E+03  0.22697542086E+03  0.41800000000E+01 0. -1.
        -11    1    1    2    0    0 -0.54521680276E+01  0.67784018386E+02 -0.61990247910E+02  0.92017335979E+02  0.00000000000E+00 0. -1.
         11    1    1    2    0    0  0.40092001312E+02 -0.39089590005E+01 -0.10010914739E+02  0.41507432390E+02  0.00000000000E+00 0.  1.
</event>
<event>
 7    1  0.2840156E-009  0.1171963E+03  0.7561462E-02  0.1247795E+00
          1   -1    0    0  501    0  0.00000000000E+00  0.00000000000E+00  0.19345219249E+03  0.19345219249E+03  0.00000000000E+00 0. -1.
         -1   -1    0    0    0  501 -0.00000000000E+00 -0.00000000000E+00 -0.73656537953E+02  0.73656537953E+02  0.00000000000E+00 0.  1.
         25    2    1    2    0    0 -0.35598197186E+02  0.32501835458E+02  0.83454510447E+02  0.15791751791E+03  0.12509870582E+03 0.  0.
          5    1    3    3  502    0 -0.62227569205E+02  0.66164565811E+02  0.57655242005E+02  0.10766438347E+03  0.41800000000E+01 0.  1.
         -5    1    3    3    0  502  0.26629372018E+02 -0.33662730353E+02  0.25799268442E+02  0.50253134440E+02  0.41800000000E+01 0.  1.
        -11    1    1    2    0    0  0.30640221760E+02 -0.62675146744E+02  0.36235635129E+02  0.78613093452E+02  0.00000000000E+00 0.  1.
         11    1    1    2    0    0  0.49579754261E+01  0.30173311286E+02  0.10550896293E+00  0.30578119080E+02  0.00000000000E+00 0. -1.
</event>
<event>
 7    1  0.2840156E-009  0.1117074E+03  0.7561462E-02  0.1257440E+00
          3   -1    0    0  501    0  0.00000000000E+00  0.00000000000E+00  0.12191508585E+03  0.12191508585E+03  0.00000000000E+00 0. -1.
         -3   -1    0    0    0  501 -0.00000000000E+00 -0.00000000000E+00 -0.11119221848E+03  0.11119221848E+03  0.00000000000E+00 0.  1.
         25    2    1    2    0    0  0.72183517722E+00 -0.39500842606E+02  0.20988946463E+02  0.13284858464E+03  0.12508945980E+03 0.  0.
          5    1    3    3  502    0  0.60395269798E+02 -0.39520617862E+01  0.19249557024E+01  0.60699137233E+02  0.41800000000E+01 0. -1.
         -5    1    3    3    0  502 -0.59673434621E+02 -0.35548780820E+02  0.19063990761E+02  0.72149447406E+02  0.41800000000E+01 0. -1.
        -11    1    1    2    0    0  0.40249280873E+02  0.69759537977E+01 -0.22358166109E+02  0.46567758524E+02  0.00000000000E+00 0.  1.
         11    1    1    2    0    0 -0.40971116050E+02  0.32524888808E+02  0.12092087024E+02  0.53690961166E+02  0.00000000000E+00 0. -1.
</event>
<event>
 7    1  0.2840156E-009  0.1448153E+03  0.7561462E-02  0.1206993E+00
         -1   -1    0    0    0  501 -0.00000000000E+00  0.00000000000E+00  0.39936561334E+02  0.39936561334E+02  0.00000000000E+00 0.  1.
          1   -1    0    0  501    0  0.00000000000E+00 -0.00000000000E+00 -0.74711867412E+03  0.74711867412E+03  0.00000000000E+00 0. -1.
         25    2    1    2    0    0 -0.10214645836E+03  0.84948720528E+02 -0.33216378922E+03  0.37898535375E+03  0.12508769489E+03 0.  0.
          5    1    3    3  502    0 -0.39237202610E+02  0.21234273055E+02 -0.11827482795E+02  0.46344516074E+02  0.41800000000E+01 0. -1.
         -5    1    3    3    0  502 -0.62909255750E+02  0.63714447473E+02 -0.32033630642E+03  0.33264083768E+03  0.41800000000E+01 0. -1.
        -11    1    1    2    0    0  0.11167280864E+03 -0.56436724853E+02 -0.33779241154E+03  0.36022164482E+03  0.00000000000E+00 0. -1.
         11    1    1    2    0    0 -0.95263502774E+01 -0.28511995675E+02 -0.37225912028E+02  0.47848236888E+02  0.00000000000E+00 0.  1.
</event>
<event>
 7    1  0.2840156E-009  0.1274916E+03  0.7561462E-02  0.1231226E+00
          3   -1    0    0  501    0  0.00000000000E+00  0.00000000000E+00  0.91309553258E+02  0.91309553258E+02  0.00000000000E+00 0. -1.
         -3   -1    0    0    0  501 -0.00000000000E+00 -0.00000000000E+00 -0.25533385418E+03  0.25533385418E+03  0.00000000000E+00 0.  1.
         25    2    1    2    0    0 -0.21563021976E+02 -0.10000980851E+03 -0.56189286508E+02  0.17108915213E+03  0.12508931346E+03 0.  0.
          5    1    3    3  502    0 -0.63156632320E+02 -0.28247426380E+02 -0.54246688557E+02  0.88016208294E+02  0.41800000000E+01 0. -1.
         -5    1    3    3    0  502  0.41593610344E+02 -0.71762382132E+02 -0.19425979514E+01  0.83072943835E+02  0.41800000000E+01 0. -1.
        -11    1    1    2    0    0  0.82075846590E+01  0.56923528511E+02  0.12338120570E+01  0.57525427737E+02  0.00000000000E+00 0. -1.
         11    1    1    2    0    0  0.13355437317E+02  0.43086280000E+02 -0.10906882647E+03  0.11802882757E+03  0.00000000000E+00 0.  1.
</event>
<event>
 7    1  0.2840156E-009  0.1040558E+03  0.7561462E-02  0.1271991E+00
         -2   -1    0    0    0  501 -0.00000000000E+00  0.00000000000E+00  0.18120872040E+02  0.18120872040E+02  0.00000000000E+00 0. -1.
          2   -1    0    0  501    0  0.00000000000E+00 -0.00000000000E+00 -0.77386334409E+03  0.77386334409E+03  0.00000000000E+00 0.  1.
         25    2    1    2    0    0 -0.43809217960E+01  0.68201186331E+01 -0.58596185084E+03  0.59922019801E+03  0.12509136087E+03 0.  0.
          5    1    3    3  502    0  0.43331258192E+02 -0.37826996532E+02 -0.21921351080E+03  0.22667270529E+03  0.41800000000E+01 0.  1.
         -5    1    3    3    0  502 -0.47712179988E+02  0.44647115165E+02 -0.36674834004E+03  0.37254749272E+03  0.41800000000E+01 0.  1.
        -11    1    1    2    0    0  0.39097150618E+02 -0.24362475468E+02 -0.12622521106E+03  0.13436860238E+03  0.00000000000E+00 0. -1.
         11    1    1    2    0    0 -0.34716228822E+02  0.17542356835E+02 -0.43555410145E+02  0.58395415744E+02  0.00000000000E+00 0.  1.
</event>
<event>
 7    1  0.2840156E-009  0.1034884E+03  0.7561462E-02  0.1273127E+00
          2   -1    0    0  501    0  0.00000000000E+00  0.00000000000E+00  0.91488632836E+02  0.91488632836E+02  0.00000000000E+00 0.  1.
         -2   -1    0    0    0  501 -0.00000000000E+00 -0.00000000000E+00 -0.22306689870E+03  0.22306689870E+03  0.00000000000E+00 0. -1.
         25    2    1    2    0    0 -0.84606521514E+02 -0.21452444056E+02 -0.11072131758E+03  0.18848224235E+03  0.12509146524E+03 0.  0.
          5    1    3    3  502    0 -0.41902967392E+02  0.26791986548E+02  0.10623920746E+02  0.51029494525E+02  0.41800000000E+01 0. -1.
         -5    1    3    3    0  502 -0.42703554122E+02 -0.48244430604E+02 -0.12134523833E+03  0.13745274782E+03  0.41800000000E+01 0. -1.
        -11    1    1    2    0    0  0.98083377626E+01 -0.74457637604E+01  0.29099821931E+02  0.31598141149E+02  0.00000000000E+00 0.  1.
         11    1    1    2    0    0  0.74798183752E+02  0.28898207816E+02 -0.49956770215E+02  0.94475148043E+02  0.00000000000E+00 0. -1.
</event>
<event>
 7    1  0.2840156E-009  0.1475598E+03  0.7561462E-02  0.1203504E+00
         -1   -1    0    0    0  501 -0.00000000000E+00  0.00000000000E+00  0.30068198061E+02  0.30068198061E+02  0.00000000000E+00 0.  1.
          1   -1    0    0  501    0  0.00000000000E+00 -0.00000000000E+00 -0.80913590612E+03  0.80913590612E+03  0.00000000000E+00 0. -1.
         25    2    1    2    0    0 -0.14962234685E+02 -0.10974850561E+03 -0.41216080940E+03  0.44473905945E+03  0.12509074802E+03 0.  0.
          5    1    3    3  502    0  0.27940035249E+02  0.17080634120E+02 -0.88222108836E+02  0.94196637515E+02  0.41800000000E+01 0. -1.
         -5    1    3    3    0  502 -0.42902269934E+02 -0.12682913973E+03 -0.32393870057E+03  0.35054242194E+03  0.41800000000E+01 0. -1.
        -11    1    1    2    0    0 -0.22322003266E+02  0.70797059267E+02 -0.29724202325E+03  0.30637120592E+03  0.00000000000E+00 0.  1.
         11    1    1    2    0    0  0.37284237951E+02  0.38951446344E+02 -0.69664875410E+02  0.88093838818E+02  0.00000000000E+00 0. -1.
</event>
<event>
 7    1  0.2840156E-009  0.2081382E+03  0.7561462E-02  0.1143049E+00
          2   -1    0    0  501    0  0.00000000000E+00  0.00000000000E+00  0.39165315466E+03  0.39165315466E+03  0.00000000000E+00 0. -1.
         -2   -1    0    0    0  501 -0.00000000000E+00 -0.00000000000E+00 -0.14646731879E+03  0.14646731879E+03  0.00000000000E+00 0.  1.
         25    2    1    2    0    0  0.11107695162E+03  0.16233247744E+03  0.34491547104E+02  0.23564264107E+03  0.12509142678E+03 0.  0.
          5    1    3    3  502    0  0.60250044856E+02  0.52300030097E+02 -0.43974890946E+02  0.91195528876E+02  0.41800000000E+01 0.  1.
         -5    1    3    3    0  502  0.50826906762E+02  0.11003244735E+03  0.78466438049E+02  0.14444711219E+03  0.41800000000E+01 0.  1.
        -11    1    1    2    0    0 -0.32294994358E+02  0.25242138619E+01  0.47503268311E+02  0.57496946148E+02  0.00000000000E+00 0. -1.
         11    1    1    2    0    0 -0.78781957261E+02 -0.16485669131E+03  0.16319102046E+03  0.24498088623E+03  0.00000000000E+00 0.  1.
</event>
<event>
 7    1  0.2840156E-009  0.1059557E+03  0.7561462E-02  0.1268248E+00
          2   -1    0    0  501    0  0.00000000000E+00  0.00000000000E+00  0.19694001922E+03  0.19694001922E+03  0.00000000000E+00 0. -1.
         -2   -1    0    0    0  501 -0.00000000000E+00 -0.00000000000E+00 -0.67098187181E+02  0.67098187181E+02  0.00000000000E+00 0.  1.
         25    2    1    2    0    0 -0.28205949779E+02 -0.88743406803E+01  0.49031386470E+02  0.13757254560E+03  0.12509116243E+03 0.  0.
          5    1    3    3  502    0  0.11298425265E+02  0.46377884924E+02  0.50353628919E+02  0.69509157446E+02  0.41800000000E+01 0.  1.
         -5    1    3    3    0  502 -0.39504375044E+02 -0.55252225605E+02 -0.13222424487E+01  0.68063388154E+02  0.41800000000E+01 0.  1.
        -11    1    1    2    0    0  0.22853929082E+02 -0.40380481173E+02  0.49551871207E+02  0.67884263820E+02  0.00000000000E+00 0. -1.
         11    1    1    2    0    0  0.53520206973E+01  0.49254821854E+02  0.31258574365E+02  0.58581396985E+02  0.00000000000E+00 0.  1.
</event>
<event>
 7    1  0.2840156E-009  0.1003122E+03  0.7561462E-02  0.1279641E+00
         -1   -1    0    0    0  501 -0.00000000000E+00  0.00000000000E+00  0.10564034610E+03  0.10564034610E+03  0.00000000000E+00 0.  1.
          1   -1    0    0  501    0  0.00000000000E+00 -0.00000000000E+00 -0.12753700559E+03  0.12753700559E+03  0.00000000000E+00 0. -1.
         25    2    1    2    0    0 -0.19866564930E+02  0.50077090995E+01 -0.50892459795E+02  0.13659082857E+03  0.12508898606E+03 0.  0.
          5    1    3    3  502    0  0.46443335786E+02 -0.25933341754E+02 -0.18692951933E+02  0.56536895081E+02  0.41800000000E+01 0.  1.
         -5    1    3    3    0  502 -0.66309900715E+02  0.30941050853E+02 -0.32199507862E+02  0.80053933491E+02  0.41800000000E+01 0.  1.
        -11    1    1    2    0    0  0.46835404728E+02 -0.32964105051E+01 -0.11089564666E+02  0.48243133219E+02  0.00000000000E+00 0. -1.
         11    1    1    2    0    0 -0.26968839799E+02 -0.17112985943E+01  0.40085364966E+02  0.48343389904E+02  0.00000000000E+00 0.  1.
</event>
<event>
 7    1  0.2840156E-009  0.6752397E+02  0.7561462E-02  0.1368721E+00
          2   -1    0    0  501    0  0.00000000000E+00  0.00000000000E+00  0.75133275271E+02  0.75133275271E+02  0.00000000000E+00 0. -1.
         -2   -1    0    0    0  501 -0.00000000000E+00 -0.00000000000E+00 -0.17563218132E+03  0.17563218132E+03  0.00000000000E+00 0.  1.
         25    2    1    2    0    0 -0.66470525806E+01  0.28783193304E+02 -0.77268110303E+02  0.14996678641E+03  0.12508805152E+03 0.  0.
          5    1    3    3  502    0  0.15325638786E+02 -0.70094361380E+01 -0.10036367061E+03  0.10185453440E+03  0.41800000000E+01 0.  1.
         -5    1    3    3    0  502 -0.21972691366E+02  0.35792629442E+02  0.23095560306E+02  0.48112252016E+02  0.41800000000E+01 0.  1.
        -11    1    1    2    0    0  0.29042288576E+02 -0.40785927364E+02 -0.45015047024E+02  0.67329791736E+02  0.00000000000E+00 0.  1.
         11    1    1    2    0    0 -0.22395235995E+02  0.12002734060E+02  0.21784251281E+02  0.33468878440E+02  0.00000000000E+00 0. -1.
</event>
<event>
 7    1  0.2840156E-009  0.1890021E+03  0.7561462E-02  0.1159364E+00
          2   -1    0    0  501    0  0.00000000000E+00  0.00000000000E+00  0.19781708340E+03  0.19781708340E+03  0.00000000000E+00 0. -1.
         -2   -1    0    0    0  501 -0.00000000000E+00 -0.00000000000E+00 -0.19280934758E+03  0.19280934758E+03  0.00000000000E+00 0.  1.
         25    2    1    2    0    0  0.14936075187E+03 -0.61417182632E+02 -0.80503869931E+01  0.20443352986E+03  0.12509018698E+03 0.  0.
          5    1    3    3  502    0 -0.19538051444E+02 -0.12970279112E+02  0.13463275848E+02  0.27362306026E+02  0.41800000000E+01 0.  1.
         -5    1    3    3    0  502  0.16889880331E+03 -0.48446903520E+02 -0.21513662841E+02  0.17707122383E+03  0.41800000000E+01 0.  1.
        -11    1    1    2    0    0 -0.58452620392E+02 -0.14228128418E+02 -0.19996884871E+02  0.63395771732E+02  0.00000000000E+00 0.  1.
         11    1    1    2    0    0 -0.90908131477E+02  0.75645311050E+02  0.33055007681E+02  0.12279712939E+03  0.00000000000E+00 0. -1.
</event>
<event>
 7    1  0.2840156E-009  0.2412941E+03  0.7561462E-02  0.1118934E+00
         -2   -1    0    0    0  501 -0.00000000000E+00  0.00000000000E+00  0.53135077844E+03  0.53135077844E+03  0.00000000000E+00 0.  1.
          2   -1    0    0  501    0  0.00000000000E+00 -0.00000000000E+00 -0.11502467768E+03  0.11502467768E+03  0.00000000000E+00 0. -1.
         25    2    1    2    0    0  0.22292295640E+03 -0.50762934651E+01  0.23188237402E+03  0.34516407177E+03  0.12509351629E+03 0.  0.
          5    1    3    3  502    0 -0.46209331169E+01  0.23123038540E+02  0.96251269220E+01  0.25809754018E+02  0.41800000000E+01 0.  1.
         -5    1    3    3    0  502  0.22754388951E+03 -0.28199332005E+02  0.22225724710E+03  0.31935431775E+03  0.41800000000E+01 0.  1.
        -11    1    1    2    0    0 -0.13271387860E+03  0.29306360902E+02  0.68119651300E+02  0.15202671888E+03  0.00000000000E+00 0. -1.
         11    1    1    2    0    0 -0.90209077799E+02 -0.24230067436E+02  0.11632407544E+03  0.14918466547E+03  0.00000000000E+00 0.  1.
</event>
<event>
 7    1  0.2840156E-009  0.1017343E+03  0.7561462E-02  0.1276691E+00
         -1   -1    0    0    0  501 -0.00000000000E+00  0.00000000000E+00  0.11115670729E+03  0.11115670729E+03  0.00000000000E+00 0.  1.
          1   -1    0    0  501    0  0.00000000000E+00 -0.00000000000E+00 -0.12417748853E+03  0.12417748853E+03  0.00000000000E+00 0. -1.
         25    2    1    2    0    0 -0.15884480414E+02 -0.14568034843E+02  0.31629244795E+02  0.13081874161E+03  0.12509432311E+03 0.  0.
          5    1    3    3  502    0  0.29889100863E+02 -0.45075148139E+02  0.48878045519E+02  0.73018237885E+02  0.41800000000E+01 0.  1.
         -5    1    3    3    0  502 -0.45773581277E+02  0.30507113296E+02 -0.17248800723E+02  0.57800503726E+02  0.41800000000E+01 0.  1.
        -11    1    1    2    0    0  0.14642796281E+02  0.53314979152E+02 -0.21240315888E+02  0.59228789486E+02  0.00000000000E+00 0.  1.
         11    1    1    2    0    0  0.12416841329E+01 -0.38746944310E+02 -0.23409710147E+02  0.45286664726E+02  0.00000000000E+00 0. -1.
</event>
<event>
 7    1  0.2840156E-009  0.2010950E+03  0.7561462E-02  0.1148818E+00
         -2   -1    0    0    0  501 -0.00000000000E+00  0.00000000000E+00  0.17952810602E+03  0.17952810602E+03  0.00000000000E+00 0.  1.
          2   -1    0    0  501    0  0.00000000000E+00 -0.00000000000E+00 -0.29855678846E+03  0.29855678846E+03  0.00000000000E+00 0. -1.
         25    2    1    2    0    0 -0.16867912918E+03 -0.49541138374E+02  0.44625519515E+02  0.22033115372E+03  0.12508959708E+03 0.  0.
          5    1    3    3  502    0 -0.10131042494E+03  0.24114348122E+02 -0.12944237347E+02  0.10502537630E+03  0.41800000000E+01 0.  1.
         -5    1    3    3    0  502 -0.67368704239E+02 -0.73655486496E+02  0.57569756862E+02  0.11530577742E+03  0.41800000000E+01 0.  1.
        -11    1    1    2    0    0  0.10758087150E+03 -0.15649371353E+02 -0.10304707571E+03  0.14979067577E+03  0.00000000000E+00 0.  1.
         11    1    1    2    0    0  0.61098257679E+02  0.65190509726E+02 -0.60607126238E+02  0.10796306498E+03  0.00000000000E+00 0. -1.
</event>
<event>
 7    1  0.2840156E-009  0.1223548E+03  0.7561462E-02  0.1239262E+00
          2   -1    0    0  501    0  0.00000000000E+00  0.00000000000E+00  0.85693117906E+03  0.85693117906E+03  0.00000000000E+00 0. -1.
         -2   -1    0    0    0  501 -0.00000000000E+00 -0.00000000000E+00 -0.22091127742E+02  0.22091127742E+02  0.00000000000E+00 0.  1.
         25    2    1    2    0    0 -0.58027965499E+02  0.60423763062E+02  0.38123681478E+03  0.40988665683E+03  0.12508911455E+03 0.  0.
          5    1    3    3  502    0  0.14777798587E+02 -0.14015322971E+02  0.19801412518E+03  0.19910268400E+03  0.41800000000E+01 0.  1.
         -5    1    3    3    0  502 -0.72805764086E+02  0.74439086033E+02  0.18322268961E+03  0.21078397283E+03  0.41800000000E+01 0.  1.
        -11    1    1    2    0    0  0.17305014714E+02  0.21871946098E+02  0.10795894484E+03  0.11150327049E+03  0.00000000000E+00 0. -1.
         11    1    1    2    0    0  0.40722950785E+02 -0.82295709160E+02  0.34564429170E+03  0.35763237948E+03  0.00000000000E+00 0.  1.
</event>
<event>
 7    1  0.3292356E-009  0.1781586E+03  0.7561462E-02  0.1169597E+00
         -2   -1    0    0    0  501 -0.00000000000E+00  0.00000000000E+00  0.85845654479E+02  0.85845654479E+02  0.00000000000E+00 0.  1.
          2   -1    0    0  501    0  0.00000000000E+00 -0.00000000000E+00 -0.42883325551E+03  0.42883325551E+03  0.00000000000E+00 0. -1.
         25    2    1    2    0    0  0.87791283351E+02 -0.12852043976E+03 -0.21253384212E+03  0.29162221710E+03  0.12509224833E+03 0.  0.
          5    1    3    3  502    0  0.11612989131E+03 -0.73148904522E+02 -0.14843881525E+03  0.20220897152E+03  0.41800000000E+01 0.  1.
         -5    1    3    3    0  502 -0.28338607964E+02 -0.55371535242E+02 -0.64095026868E+02  0.89413245583E+02  0.41800000000E+01 0.  1.
        -11    1    1    2    0    0 -0.33380338757E+02  0.64651316716E+02 -0.11743576608E+03  0.13814919082E+03  0.00000000000E+00 0. -1.
         11    1    1    2    0    0 -0.54410944595E+02  0.63869123048E+02 -0.13017992832E+02  0.84907502071E+02  0.00000000000E+00 0.  1.
</event>
<event>
 7    1  0.2840156E-009  0.1068535E+03  0.7561462E-02  0.1266510E+00
         -1   -1    0    0    0  501 -0.00000000000E+00  0.00000000000E+00  0.19604970132E+03  0.19604970132E+03  0.00000000000E+00 0.  1.
          1   -1    0    0  501    0  0.00000000000E+00 -0.00000000000E+00 -0.10503133635E+03  0.10503133635E+03  0.00000000000E+00 0. -1.
         25    2    1    2    0    0  0.43030055385E+02  0.42853741115E+02  0.12566230668E+03  0.18742211588E+03  0.12509198778E+03 0.  0.
          5    1    3    3  502    0  0.70970232891E+02  0.34279140564E+01  0.24571547239E+02  0.75297794690E+02  0.41800000000E+01 0.  1.
         -5    1    3    3    0  502 -0.27940177506E+02  0.39425827058E+02  0.10109075944E+03  0.11212432119E+03  0.41800000000E+01 0.  1.
        -11    1    1    2    0    0 -0.63350319937E+02 -0.31461936872E+02 -0.49225738947E+02  0.86175924032E+02  0.00000000000E+00 0. -1.
         11    1    1    2    0    0  0.20320264552E+02 -0.11391804243E+02  0.14581797233E+02  0.27482997761E+02  0.00000000000E+00 0.  1.
</event>
<event>
 7    1  0.2840156E-009  0.1241926E+03  0.7561462E-02  0.1236336E+00
          2   -1    0    0  501    0  0.00000000000E+00  0.00000000000E+00  0.11549304571E+03  0.11549304571E+03  0.00000000000E+00 0. -1.
         -2   -1    0    0    0  501 -0.00000000000E+00 -0.00000000000E+00 -0.21179974468E+03  0.21179974468E+03  0.00000000000E+00 0.  1.
         25    2    1    2    0    0  0.91370262598E+02 -0.47238549518E+02 -0.90592842930E+02  0.18556413817E+03  0.12508789205E+03 0.  0.
          5    1    3    3  502    0  0.24893974392E+02  0.20653792253E+02 -0.84134339349E+02  0.90234963031E+02  0.41800000000E+01 0.  1.
         -5    1    3    3    0  502  0.66476288206E+02 -0.67892341771E+02 -0.64585035805E+01  0.95329175142E+02  0.41800000000E+01 0.  1.
        -11    1    1    2    0    0 -0.28962778024E+02  0.50446880025E+02  0.34296347782E+02  0.67527547610E+02  0.00000000000E+00 0. -1.
         11    1    1    2    0    0 -0.62407484574E+02 -0.32083305073E+01 -0.40010203820E+02  0.74201104609E+02  0.00000000000E+00 0.  1.
</event>
<event>
 7    1  0.2840156E-009  0.2221049E+03  0.7561462E-02  0.1132323E+00
         -2   -1    0    0    0  501 -0.00000000000E+00  0.00000000000E+00  0.65150895758E+02  0.65150895758E+02  0.00000000000E+00 0.  1.
          2   -1    0    0  501    0  0.00000000000E+00 -0.00000000000E+00 -0.78395685565E+03  0.78395685565E+03  0.00000000000E+00 0. -1.
         25    2    1    2    0    0 -0.63041353758E+02 -0.18382974083E+03 -0.39060879575E+03  0.45386186399E+03  0.12509106432E+03 0.  0.
          5    1    3    3  502    0 -0.96968953793E+02 -0.15355184274E+03 -0.34145860319E+03  0.38677202135E+03  0.41800000000E+01 0. -1.
         -5    1    3    3    0  502  0.33927600034E+02 -0.30277898098E+02 -0.49150192556E+02  0.67089842641E+02  0.41800000000E+01 0. -1.
        -11    1    1    2    0    0 -0.25351363105E+02  0.28285506291E+02 -0.87089546150E+02  0.95012370384E+02  0.00000000000E+00 0.  1.
         11    1    1    2    0    0  0.88392716863E+02  0.15554423454E+03 -0.24110761799E+03  0.30023351703E+03  0.00000000000E+00 0. -1.
</event>
<event>
 7    1  0.2840156E-009  0.2979737E+03  0.7561462E-02  0.1086258E+00
         -1   -1    0    0    0  501 -0.00000000000E+00  0.00000000000E+00  0.31933947505E+03  0.31933947505E+03  0.00000000000E+00 0.  1.
          1   -1    0    0  501    0  0.00000000000E+00 -0.00000000000E+00 -0.32958619791E+03  0.32958619791E+03  0.00000000000E+00 0. -1.
         25    2    1    2    0    0  0.13801504393E+03 -0.25761569117E+03 -0.94297729108E+02  0.33159230760E+03  0.12508956814E+03 0.  0.
          5    1    3    3  502    0  0.21528722470E+02 -0.55280006942E+02 -0.77210697799E+02  0.97459372629E+02  0.41800000000E+01 0. -1.
         -5    1    3    3    0  502  0.11648632146E+03 -0.20233568423E+03 -0.17087031309E+02  0.23413293497E+03  0.41800000000E+01 0. -1.
        -11    1    1    2    0    0 -0.12285028598E+03  0.14816357880E+03  0.31704497234E+02  0.19506361524E+03  0.00000000000E+00 0. -1.
         11    1    1    2    0    0 -0.15164757953E+02  0.10945211237E+03  0.52346509019E+02  0.12226975011E+03  0.00000000000E+00 0.  1.
</event>
<event>
 7    1  0.2840156E-009  0.7447479E+02  0.7561462E-02  0.1345505E+00
          2   -1    0    0  501    0  0.00000000000E+00  0.00000000000E+00  0.44905913267E+03  0.44905913267E+03  0.00000000000E+00 0. -1.
         -2   -1    0    0    0  501 -0.00000000000E+00 -0.00000000000E+00 -0.28775226270E+02  0.28775226270E+02  0.00000000000E+00 0.  1.
         25    2    1    2    0    0 -0.24969040382E+02 -0.23394238317E+02  0.23747725960E+03  0.27058048004E+03  0.12509038327E+03 0.  0.
          5    1    3    3  502    0 -0.30484940097E+02 -0.29206864707E+02  0.10872581317E+02  0.43795638404E+02  0.41800000000E+01 0.  1.
         -5    1    3    3    0  502  0.55158997151E+01  0.58126263901E+01  0.22660467829E+03  0.22678484164E+03  0.41800000000E+01 0.  1.
        -11    1    1    2    0    0 -0.33733957716E+02 -0.13992889211E+01  0.69135487861E+02  0.76939285118E+02  0.00000000000E+00 0.  1.
         11    1    1    2    0    0  0.58702998098E+02  0.24793527238E+02  0.11367115893E+03  0.13031459378E+03  0.00000000000E+00 0. -1.
</event>
<event>
 7    1  0.2840156E-009  0.1467346E+03  0.7561462E-02  0.1204544E+00
          2   -1    0    0  501    0  0.00000000000E+00  0.00000000000E+00  0.58013531741E+03  0.58013531741E+03  0.00000000000E+00 0. -1.
         -2   -1    0    0    0  501 -0.00000000000E+00 -0.00000000000E+00 -0.38604741617E+02  0.38604741617E+02  0.00000000000E+00 0.  1.
         25    2    1    2    0    0  0.62046925338E+02  0.84657457899E+02  0.29263310036E+03  0.33510901392E+03  0.12508882310E+03 0.  0.
          5    1    3    3  502    0 -0.35095704978E+02  0.16918505049E+01  0.58986108783E+02  0.68785204044E+02  0.41800000000E+01 0.  1.
         -5    1    3    3    0  502  0.97142630316E+02  0.82965607394E+02  0.23364699158E+03  0.26632380988E+03  0.41800000000E+01 0.  1.
        -11    1    1    2    0    0  0.15216083052E+02 -0.35677564655E+02  0.40698797664E+02  0.56221080872E+02  0.00000000000E+00 0.  1.
         11    1    1    2    0    0 -0.77263008390E+02 -0.48979893245E+02  0.20819867777E+03  0.22740996423E+03  0.00000000000E+00 0. -1.
</event>
<event>
 7    1  0.2840156E-009  0.8280897E+02  0.7561462E-02  0.1321264E+00
         -1   -1    0    0    0  501 -0.00000000000E+00  0.00000000000E+00  0.43469050419E+02  0.43469050419E+02  0.00000000000E+00 0.  1.
          1   -1    0    0  501    0  0.00000000000E+00 -0.00000000000E+00 -0.37476670672E+03  0.37476670672E+03  0.00000000000E+00 0. -1.
         25    2    1    2    0    0 -0.24270019956E+02  0.43905463590E+02 -0.10770627033E+03  0.17252339468E+03  0.12508779893E+03 0.  0.
          5    1    3    3  502    0 -0.51718691859E+02  0.35544645375E+02 -0.20151382991E+01  0.62926767634E+02  0.41800000000E+01 0. -1.
         -5    1    3    3    0  502  0.27448671903E+02  0.83608182143E+01 -0.10569113203E+03  0.10959662705E+03  0.41800000000E+01 0. -1.
        -11    1    1    2    0    0  0.34225721351E+02 -0.62680731057E+01 -0.19323951737E+03  0.19634714109E+03  0.00000000000E+00 0. -1.
         11    1    1    2    0    0 -0.99557013951E+01 -0.37637390484E+02 -0.30351868602E+02  0.49365221364E+02  0.00000000000E+00 0.  1.
</event>
<event>
 7    1  0.2840156E-009  0.1199585E+03  0.7561462E-02  0.1243166E+00
         -2   -1    0    0    0  501 -0.00000000000E+00  0.00000000000E+00  0.40402989540E+02  0.40402989540E+02  0.00000000000E+00 0.  1.
          2   -1    0    0  501    0  0.00000000000E+00 -0.00000000000E+00 -0.41095736111E+03  0.41095736111E+03  0.00000000000E+00 0. -1.
         25    2    1    2    0    0 -0.40845617559E+02  0.57933144792E+01 -0.16044903774E+03  0.20759034408E+03  0.12509168748E+03 0.  0.
          5    1    3    3  502    0  0.31421984322E+02 -0.22337855047E+02 -0.10564709494E+03  0.11253933506E+03  0.41800000000E+01 0.  1.
         -5    1    3    3    0  502 -0.72267601880E+02  0.28131169527E+02 -0.54801942800E+02  0.95051009017E+02  0.41800000000E+01 0.  1.
        -11    1    1    2    0    0  0.81655438682E+02 -0.10774086655E+02 -0.13470904934E+03  0.15789306376E+03  0.00000000000E+00 0. -1.
         11    1    1    2    0    0 -0.40809821123E+02  0.49807721758E+01 -0.75396284497E+02  0.85876942817E+02  0.00000000000E+00 0.  1.
</event>
<event>
 7    1  0.2840156E-009  0.1199161E+03  0.7561462E-02  0.1243235E+00
          2   -1    0    0  501    0  0.00000000000E+00  0.00000000000E+00  0.22532405705E+03  0.22532405705E+03  0.00000000000E+00 0. -1.
         -2   -1    0    0    0  501 -0.00000000000E+00 -0.00000000000E+00 -0.10595110607E+03  0.10595110607E+03  0.00000000000E+00 0.  1.
         25    2    1    2    0    0 -0.18635625266E+01 -0.51535115956E+02  0.16092021580E+03  0.21024307365E+03  0.12508994013E+03 0.  0.
          5    1    3    3  502    0  0.60558264762E+02 -0.35666512059E+02  0.91538758693E+02  0.11548255391E+03  0.41800000000E+01 0. -1.
         -5    1    3    3    0  502 -0.62421827289E+02 -0.15868603897E+02  0.69381457112E+02  0.94760519747E+02  0.41800000000E+01 0. -1.
        -11    1    1    2    0    0  0.21076702690E+02 -0.21056801391E+02  0.82686880351E+01  0.30919047252E+02  0.00000000000E+00 0. -1.
         11    1    1    2    0    0 -0.19213140164E+02  0.72591917347E+02 -0.49815952863E+02  0.90113042223E+02  0.00000000000E+00 0.  1.
</event>
<event>
 7    1  0.2840156E-009  0.1230052E+03  0.7561462E-02  0.1238220E+00
          1   -1    0    0  501    0  0.00000000000E+00  0.00000000000E+00  0.89266025212E+01  0.89266025212E+01  0.00000000000E+00 0. -1.
         -1   -1    0    0    0  501 -0.00000000000E+00 -0.00000000000E+00 -0.24803101917E+04  0.24803101917E+04  0.00000000000E+00 0.  1.
         25    2    1    2    0    0 -0.48628544132E+02 -0.33579465203E+02 -0.20293240031E+04  0.20340348675E+04  0.12509842817E+03 0.  0.
          5    1    3    3  502    0  0.12878146475E+02 -0.66302560473E+02 -0.88412626418E+03  0.88671224171E+03  0.41800000000E+01 0.  1.
         -5    1    3    3    0  502 -0.61506690607E+02  0.32723095270E+02 -0.11451977389E+04  0.11473226258E+04  0.41800000000E+01 0.  1.
        -11    1    1    2    0    0  0.20912833203E+02  0.64036343601E+02 -0.28079917675E+03  0.28876664897E+03  0.00000000000E+00 0.  1.
         11    1    1    2    0    0  0.27715710929E+02 -0.30456878398E+02 -0.16126040937E+03  0.16643527783E+03  0.00000000000E+00 0. -1.
</event>
<event>
 7    1  0.2840156E-009  0.1549561E+03  0.7561462E-02  0.1194512E+00
          2   -1    0    0  501    0  0.00000000000E+00  0.00000000000E+00  0.98904312715E+03  0.98904312715E+03  0.00000000000E+00 0. -1.
         -2   -1    0    0    0  501 -0.00000000000E+00 -0.00000000000E+00 -0.29637773613E+02  0.29637773613E+02  0.00000000000E+00 0.  1.
         25    2    1    2    0    0 -0.60463090252E+02  0.10751633344E+03  0.35318778887E+03  0.39446777080E+03  0.12509061016E+03 0.  0.
          5    1    3    3  502    0 -0.86027928019E+02  0.10446834816E+03  0.33840759004E+03  0.36448814736E+03  0.41800000000E+01 0.  1.
         -5    1    3    3    0  502  0.25564837767E+02  0.30479852886E+01  0.14780198833E+02  0.29979623445E+02  0.41800000000E+01 0.  1.
        -11    1    1    2    0    0  0.70551728228E+02 -0.41919677985E+02  0.35685210231E+03  0.36616694100E+03  0.00000000000E+00 0.  1.
         11    1    1    2    0    0 -0.10088637976E+02 -0.65596655459E+02  0.24936546236E+03  0.25804618897E+03  0.00000000000E+00 0. -1.
</event>
<event>
 7    1  0.2840156E-009  0.9621225E+02  0.7561462E-02  0.1288469E+00
         -2   -1    0    0    0  501 -0.00000000000E+00  0.00000000000E+00  0.43613060530E+03  0.43613060530E+03  0.00000000000E+00 0.  1.
          2   -1    0    0  501    0  0.00000000000E+00 -0.00000000000E+00 -0.28487258155E+02  0.28487258155E+02  0.00000000000E+00 0. -1.
         25    2    1    2    0    0  0.20861426350E+02  0.22165719863E+02  0.22693971235E+03  0.26091294165E+03  0.12508961522E+03 0.  0.
          5    1    3    3  502    0  0.37442792922E+02  0.51900782164E+02  0.21536478821E+03  0.22471118871E+03  0.41800000000E+01 0.  1.
         -5    1    3    3    0  502 -0.16581366572E+02 -0.29735062301E+02  0.11574924138E+02  0.36201752944E+02  0.41800000000E+01 0.  1.
        -11    1    1    2    0    0  0.15742226324E+02 -0.47125764391E+02  0.92484761780E+02  0.10498612537E+03  0.00000000000E+00 0.  1.
         11    1    1    2    0    0 -0.36603652674E+02  0.24960044527E+02  0.88218873018E+02  0.98718796430E+02  0.00000000000E+00 0. -1.
</event>
<event>
 7    1  0.2840156E-009  0.1253044E+03  0.7561462E-02  0.1234594E+00
          1   -1    0    0  501    0  0.00000000000E+00  0.00000000000E+00  0.92119046857E+02  0.92119046857E+02  0.00000000000E+00 0. -1.
         -1   -1    0    0    0  501 -0.00000000000E+00 -0.00000000000E+00 -0.20604739904E+03  0.20604739904E+03  0.00000000000E+00 0.  1.
         25    2    1    2    0    0 -0.81561719066E+02  0.19304880819E+02 -0.61596168182E+02  0.16269962318E+03  0.12510830112E+03 0.  0.
          5    1    3    3  502    0  0.19679675941E+02  0.14387845646E+02  0.20555754713E+02  0.32160708936E+02  0.41800000000E+01 0. -1.
         -5    1    3    3    0  502 -0.10124139501E+03  0.49170351721E+01 -0.82151922895E+02  0.13053891425E+03  0.41800000000E+01 0. -1.
        -11    1    1    2    0    0  0.10021481551E+03 -0.39915515127E+01 -0.46953417226E+02  0.11074098212E+03  0.00000000000E+00 0.  1.
         11    1    1    2    0    0 -0.18653096442E+02 -0.15313329306E+02 -0.53787667775E+01  0.24725840599E+02  0.00000000000E+00 0. -1.
</event>
<event>
 7    1  0.2840156E-009  0.6822182E+02  0.7561462E-02  0.1366246E+00
         -2   -1    0    0    0  501 -0.00000000000E+00  0.00000000000E+00  0.40648616883E+02  0.40648616883E+02  0.00000000000E+00 0. -1.
          2   -1    0    0  501    0  0.00000000000E+00 -0.00000000000E+00 -0.34284372040E+03  0.34284372040E+03  0.00000000000E+00 0.  1.
         25    2    1    2    0    0 -0.76742543419E+01 -0.13652386789E+02 -0.24197872502E+03  0.27284956487E+03  0.12509156582E+03 0.  0.
          5    1    3    3  502    0  0.37062905221E+02 -0.20335428791E+02 -0.21677803821E+03  0.22090128759E+03  0.41800000000E+01 0. -1.
         -5    1    3    3    0  502 -0.44737159563E+02  0.66830420028E+01 -0.25200686809E+02  0.51948277275E+02  0.41800000000E+01 0. -1.
        -11    1    1    2    0    0 -0.10029266306E+02  0.25387199267E+02  0.15919720265E+02  0.31599581683E+02  0.00000000000E+00 0. -1.
         11    1    1    2    0    0  0.17703520648E+02 -0.11734812478E+02 -0.76136098761E+02  0.79043190737E+02  0.00000000000E+00 0.  1.
</event>
<event>
 7    1  0.2840156E-009  0.1501612E+03  0.7561462E-02  0.1200275E+00
         -1   -1    0    0    0  501 -0.00000000000E+00  0.00000000000E+00  0.13590745937E+03  0.13590745937E+03  0.00000000000E+00 0.  1.
          1   -1    0    0  501    0  0.00000000000E+00 -0.00000000000E+00 -0.31157295977E+03  0.31157295977E+03  0.00000000000E+00 0. -1.
         25    2    1    2    0    0  0.10549094120E+03  0.90036449143E+02 -0.21789441641E+03  0.28698319724E+03  0.12508588228E+03 0.  0.
          5    1    3    3  502    0  0.42147244406E+02  0.64398107490E+02 -0.20269174388E+03  0.21685230434E+03  0.41800000000E+01 0. -1.
         -5    1    3    3    0  502  0.63343696798E+02  0.25638341653E+02 -0.15202672525E+02  0.70130892897E+02  0.41800000000E+01 0. -1.
        -11    1    1    2    0    0 -0.10763813643E+02 -0.51338203332E+02  0.16445186328E+02  0.54971947017E+02  0.00000000000E+00 0.  1.
         11    1    1    2    0    0 -0.94727127561E+02 -0.38698245812E+02  0.25783729682E+02  0.10552527489E+03  0.00000000000E+00 0. -1.
</event>
<event>
 7    1  0.2840156E-009  0.2077456E+03  0.7561462E-02  0.1143364E+00
         -2   -1    0    0    0  501 -0.00000000000E+00  0.00000000000E+00  0.17280864816E+03  0.17280864816E+03  0.00000000000E+00 0.  1.
          2   -1    0    0  501    0  0.00000000000E+00 -0.00000000000E+00 -0.27872947033E+03  0.27872947033E+03  0.00000000000E+00 0. -1.
         25    2    1    2    0    0  0.61023158318E+02 -0.17687732380E+03 -0.93945355395E+02  0.24388923177E+03  0.12508722575E+03 0.  0.
          5    1    3    3  502    0  0.66429100315E+02 -0.54151760328E+02  0.52111487180E+01  0.85964335549E+02  0.41800000000E+01 0.  1.
         -5    1    3    3    0  502 -0.54059419977E+01 -0.12272556347E+03 -0.99156504113E+02  0.15792489622E+03  0.41800000000E+01 0.  1.
        -11    1    1    2    0    0  0.16293498680E+01  0.12613618231E+03 -0.33749515947E-01  0.12614670986E+03  0.00000000000E+00 0.  1.
         11    1    1    2    0    0 -0.62652508186E+02  0.50741141490E+02 -0.11941717262E+02  0.81502176859E+02  0.00000000000E+00 0. -1.
</event>
<event>
 7    1  0.2840156E-009  0.8415496E+02  0.7561462E-02  0.1317657E+00
          1   -1    0    0  501    0  0.00000000000E+00  0.00000000000E+00  0.13803734722E+03  0.13803734722E+03  0.00000000000E+00 0. -1.
         -1   -1    0    0    0  501 -0.00000000000E+00 -0.00000000000E+00 -0.17867756346E+03  0.17867756346E+03  0.00000000000E+00 0.  1.
         25    2    1    2    0    0  0.39014194598E+02  0.51728150927E+02  0.70788641896E+02  0.15765993699E+03  0.12509082673E+03 0.  0.
          5    1    3    3  502    0  0.22750225427E+02  0.10708992434E+02  0.10090390537E+03  0.10407365562E+03  0.41800000000E+01 0. -1.
         -5    1    3    3    0  502  0.16263969171E+02  0.41019158493E+02 -0.30115263472E+02  0.53586281366E+02  0.41800000000E+01 0. -1.
        -11    1    1    2    0    0 -0.15095574156E+02 -0.67943183614E+02 -0.36166400959E+02  0.78435713276E+02  0.00000000000E+00 0. -1.
         11    1    1    2    0    0 -0.23918620441E+02  0.16215032687E+02 -0.75262457183E+02  0.80619260417E+02  0.00000000000E+00 0.  1.
</event>
<event>
 7    1  0.2840156E-009  0.1128733E+03  0.7561462E-02  0.1255340E+00
          1   -1    0    0  501    0  0.00000000000E+00  0.00000000000E+00  0.15682330031E+04  0.15682330031E+04  0.00000000000E+00 0. -1.
         -1   -1    0    0    0  501 -0.00000000000E+00 -0.00000000000E+00 -0.20949112644E+02  0.20949112644E+02  0.00000000000E+00 0.  1.
         25    2    1    2    0    0 -0.30772808564E+01 -0.53640939054E+02  0.14038582398E+04  0.14104440260E+04  0.12509025960E+03 0.  0.
          5    1    3    3  502    0 -0.62367228480E+02 -0.12208616656E+02  0.65630333746E+03  0.65938627880E+03  0.41800000000E+01 0. -1.
         -5    1    3    3    0  502  0.59289947623E+02 -0.41432322398E+02  0.74755490231E+03  0.75105774717E+03  0.41800000000E+01 0. -1.
        -11    1    1    2    0    0  0.35503919797E+02  0.13453916659E+02  0.11206746297E+03  0.11832435274E+03  0.00000000000E+00 0.  1.
         11    1    1    2    0    0 -0.32426638941E+02  0.40187022395E+02  0.31358187668E+02  0.60413736979E+02  0.00000000000E+00 0. -1.
</event>
<event>
 7    1  0.2840156E-009  0.1303655E+03  0.7561462E-02  0.1226914E+00
         -2   -1    0    0    0  501 -0.00000000000E+00  0.00000000000E+00  0.63041150006E+03  0.63041150006E+03  0.00000000000E+00 0.  1.
          2   -1    0    0  501    0  0.00000000000E+00 -0.00000000000E+00 -0.31393385893E+02  0.31393385893E+02  0.00000000000E+00 0. -1.
         25    2    1    2    0    0 -0.67533037909E+02 -0.36249070587E+02  0.22142878157E+03  0.26561693849E+03  0.12508775471E+03 0.  0.
          5    1    3    3  502    0  0.10885856567E+02  0.37256747377E+02  0.54715391045E+02  0.67214682291E+02  0.41800000000E+01 0.  1.
         -5    1    3    3    0  502 -0.78418894477E+02 -0.73505817964E+02  0.16671339053E+03  0.19840225620E+03  0.41800000000E+01 0.  1.
        -11    1    1    2    0    0  0.85606136106E+02  0.16182930293E+02  0.22598702223E+03  0.24219915769E+03  0.00000000000E+00 0. -1.
         11    1    1    2    0    0 -0.18073098197E+02  0.20066140293E+02  0.15160231036E+03  0.15398878976E+03  0.00000000000E+00 0.  1.
</event>
<event>
 7    1  0.2840156E-009  0.1076792E+03  0.7561462E-02  0.1264929E+00
          2   -1    0    0  501    0  0.00000000000E+00  0.00000000000E+00  0.30285121231E+03  0.30285121231E+03  0.00000000000E+00 0. -1.
         -2   -1    0    0    0  501 -0.00000000000E+00 -0.00000000000E+00 -0.41868578404E+02  0.41868578404E+02  0.00000000000E+00 0.  1.
         25    2    1    2    0    0 -0.20060981974E+01 -0.23144896212E+02  0.12024798242E+03  0.17506179234E+03  0.12508934091E+03 0.  0.
          5    1    3    3  502    0  0.53290158257E+02 -0.36494696236E+02  0.38265020186E+02  0.75189015090E+02  0.41800000000E+01 0. -1.
         -5    1    3    3    0  502 -0.55296256454E+02  0.13349800025E+02  0.81982962231E+02  0.99872777245E+02  0.41800000000E+01 0. -1.
        -11    1    1    2    0    0  0.92265494733E+01 -0.34391941269E+02  0.66774448180E+02  0.75675370955E+02  0.00000000000E+00 0.  1.
         11    1    1    2    0    0 -0.72204512760E+01  0.57536837481E+02  0.73960203309E+02  0.93982627424E+02  0.00000000000E+00 0. -1.
</event>
<event>
 7    1  0.2840156E-009  0.2378920E+03  0.7561462E-02  0.1121205E+00
          3   -1    0    0  501    0  0.00000000000E+00  0.00000000000E+00  0.76479101916E+03  0.76479101916E+03  0.00000000000E+00 0. -1.
         -3   -1    0    0    0  501 -0.00000000000E+00 -0.00000000000E+00 -0.86548006221E+02  0.86548006221E+02  0.00000000000E+00 0.  1.
         25    2    1    2    0    0  0.14336092921E+03 -0.17149838230E+03  0.44309013843E+03  0.51180383265E+03  0.12510092398E+03 0.  0.
          5    1    3    3  502    0  0.78244593333E+02 -0.20112796959E+02  0.83669979978E+02  0.11638246834E+03  0.41800000000E+01 0. -1.
         -5    1    3    3    0  502  0.65116335879E+02 -0.15138558534E+03  0.35942015846E+03  0.39542136431E+03  0.41800000000E+01 0. -1.
        -11    1    1    2    0    0 -0.26783724868E+02  0.71837510099E+02  0.27644438880E+02  0.81499759362E+02  0.00000000000E+00 0.  1.
         11    1    1    2    0    0 -0.11657720434E+03  0.99660872199E+02  0.20750843563E+03  0.25803543338E+03  0.00000000000E+00 0. -1.
</event>
<event>
 7    1  0.2840156E-009  0.8446794E+02  0.7561462E-02  0.1316830E+00
          1   -1    0    0  501    0  0.00000000000E+00  0.00000000000E+00  0.18446983237E+03  0.18446983237E+03  0.00000000000E+00 0. -1.
         -1   -1    0    0    0  501 -0.00000000000E+00 -0.00000000000E+00 -0.16322110435E+03  0.16322110435E+03  0.00000000000E+00 0.  1.
         25    2    1    2    0    0  0.17211347491E+02 -0.19808680100E+01  0.14446404387E+03  0.19187817314E+03  0.12508884458E+03 0.  0.
          5    1    3    3  502    0 -0.60916983753E+01  0.56251100306E+02  0.38141863672E+02  0.68363508095E+02  0.41800000000E+01 0.  1.
         -5    1    3    3    0  502  0.23303045867E+02 -0.58231968316E+02  0.10632218019E+03  0.12351466505E+03  0.41800000000E+01 0.  1.
        -11    1    1    2    0    0 -0.59871934488E+01  0.23941228058E+02 -0.12828281453E+03  0.13063502360E+03  0.00000000000E+00 0.  1.
         11    1    1    2    0    0 -0.11224154043E+02 -0.21960360048E+02  0.50674986851E+01  0.25177739977E+02  0.00000000000E+00 0. -1.
</event>
<event>
 7    1  0.2840156E-009  0.1121351E+03  0.7561462E-02  0.1256666E+00
          2   -1    0    0  501    0  0.00000000000E+00  0.00000000000E+00  0.65530544630E+02  0.65530544630E+02  0.00000000000E+00 0.  1.
         -2   -1    0    0    0  501 -0.00000000000E+00 -0.00000000000E+00 -0.24664203140E+03  0.24664203140E+03  0.00000000000E+00 0. -1.
         25    2    1    2    0    0 -0.27420294499E+02 -0.60859673182E+02 -0.10412025772E+03  0.17591010548E+03  0.12509022653E+03 0.  0.
          5    1    3    3  502    0 -0.36708521132E+02  0.18343459829E+02  0.40606327498E+01  0.41448271140E+02  0.41800000000E+01 0.  1.
         -5    1    3    3    0  502  0.92882266323E+01 -0.79203133011E+02 -0.10818089047E+03  0.13446183434E+03  0.41800000000E+01 0.  1.
        -11    1    1    2    0    0  0.20374153729E+02  0.80113359619E+02 -0.35463833999E+02  0.89949652870E+02  0.00000000000E+00 0.  1.
         11    1    1    2    0    0  0.70461407706E+01 -0.19253686437E+02 -0.41527395050E+02  0.46312817673E+02  0.00000000000E+00 0. -1.
</event>
<event>
 7    1  0.2840156E-009  0.1140457E+03  0.7561462E-02  0.1253256E+00
          2   -1    0    0  501    0  0.00000000000E+00  0.00000000000E+00  0.71767256570E+03  0.71767256570E+03  0.00000000000E+00 0. -1.
         -2   -1    0    0    0  501 -0.00000000000E+00 -0.00000000000E+00 -0.26234109426E+02  0.26234109426E+02  0.00000000000E+00 0.  1.
         25    2    1    2    0    0 -0.45129649308E+02 -0.54192517067E+02  0.55402864686E+03  0.57233596984E+03  0.12508879516E+03 0.  0.
          5    1    3    3  502    0  0.13646736710E+02 -0.77128559698E+02  0.25945965671E+03  0.27105688334E+03  0.41800000000E+01 0.  1.
         -5    1    3    3    0  502 -0.58776386018E+02  0.22936042631E+02  0.29456899015E+03  0.30127908650E+03  0.41800000000E+01 0.  1.
        -11    1    1    2    0    0  0.23512584579E+02  0.59658424629E+02  0.49865287073E+02  0.81231250868E+02  0.00000000000E+00 0.  1.
         11    1    1    2    0    0  0.21617064729E+02 -0.54659075617E+01  0.87544522338E+02  0.90339454417E+02  0.00000000000E+00 0. -1.
</event>
<event>
 7    1  0.2840156E-009  0.1422165E+03  0.7561462E-02  0.1210377E+00
         -2   -1    0    0    0  501 -0.00000000000E+00  0.00000000000E+00  0.40615310638E+03  0.40615310638E+03  0.00000000000E+00 0.  1.
          2   -1    0    0  501    0  0.00000000000E+00 -0.00000000000E+00 -0.71149795861E+02  0.71149795861E+02  0.00000000000E+00 0. -1.
         25    2    1    2    0    0 -0.58958782604E+02 -0.10028498376E+03  0.94901512396E+02  0.19541627666E+03  0.12509199860E+03 0.  0.
          5    1    3    3  502    0  0.37720903507E+02 -0.32308764402E+02  0.44675036275E+02  0.66933206144E+02  0.41800000000E+01 0. -1.
         -5    1    3    3    0  502 -0.96679686111E+02 -0.67976219358E+02  0.50226476121E+02  0.12848307051E+03  0.41800000000E+01 0. -1.
        -11    1    1    2    0    0  0.25343029984E+02  0.43115571895E+02  0.19590730342E+03  0.20219024023E+03  0.00000000000E+00 0.  1.
         11    1    1    2    0    0  0.33615752620E+02  0.57169411865E+02  0.44194494700E+02  0.79696385357E+02  0.00000000000E+00 0. -1.
</event>
<event>
 7    1  0.2840156E-009  0.1018776E+03  0.7561462E-02  0.1276396E+00
         -1   -1    0    0    0  501 -0.00000000000E+00  0.00000000000E+00  0.14068680301E+02  0.14068680301E+02  0.00000000000E+00 0.  1.
          1   -1    0    0  501    0  0.00000000000E+00 -0.00000000000E+00 -0.99106963467E+03  0.99106963467E+03  0.00000000000E+00 0. -1.
         25    2    1    2    0    0 -0.82933921187E+01  0.42645965779E+02 -0.48110768760E+03  0.49899823065E+03  0.12508864204E+03 0.  0.
          5    1    3    3  502    0  0.42178585551E+02  0.15324219130E+02 -0.65999169870E+02  0.79920132598E+02  0.41800000000E+01 0.  1.
         -5    1    3    3    0  502 -0.50471977670E+02  0.27321746649E+02 -0.41510851773E+03  0.41907809805E+03  0.41800000000E+01 0.  1.
        -11    1    1    2    0    0  0.43650784686E+02 -0.48556269862E+02 -0.30507721053E+03  0.31198590790E+03  0.00000000000E+00 0.  1.
         11    1    1    2    0    0 -0.35357392568E+02  0.59103040837E+01 -0.19081605624E+03  0.19415417642E+03  0.00000000000E+00 0. -1.
</event>
<event>
 7    1  0.2840156E-009  0.1139473E+03  0.7561462E-02  0.1253430E+00
         -1   -1    0    0    0  501 -0.00000000000E+00  0.00000000000E+00  0.85358687976E+02  0.85358687976E+02  0.00000000000E+00 0.  1.
          1   -1    0    0  501    0  0.00000000000E+00 -0.00000000000E+00 -0.46130708179E+03  0.46130708179E+03  0.00000000000E+00 0. -1.
         25    2    1    2    0    0  0.59939772686E+02  0.47771783200E+02  0.54141842290E+01  0.14680192530E+03  0.12508625928E+03 0.  0.
          5    1    3    3  502    0 -0.80638809910E+00  0.60314568022E+02  0.42963033526E+02  0.74174065732E+02  0.41800000000E+01 0.  1.
         -5    1    3    3    0  502  0.60746160785E+02 -0.12542784823E+02 -0.37548849297E+02  0.72627859563E+02  0.41800000000E+01 0.  1.
        -11    1    1    2    0    0 -0.16478002383E+02  0.19276360580E+02 -0.28859432241E+02  0.38418348077E+02  0.00000000000E+00 0.  1.
         11    1    1    2    0    0 -0.43461770303E+02 -0.67048143780E+02 -0.35250314580E+03  0.36144549639E+03  0.00000000000E+00 0. -1.
</event>
<event>
 7    1  0.2840156E-009  0.1205085E+03  0.7561462E-02  0.1242261E+00
          3   -1    0    0  501    0  0.00000000000E+00  0.00000000000E+00  0.62757183374E+02  0.62757183374E+02  0.00000000000E+00 0. -1.
         -3   -1    0    0    0  501 -0.00000000000E+00 -0.00000000000E+00 -0.36702203096E+03  0.36702203096E+03  0.00000000000E+00 0.  1.
         25    2    1    2    0    0 -0.83206469776E+02 -0.52680451124E+02 -0.22589028621E+03  0.27635630507E+03  0.12509132427E+03 0.  0.
          5    1    3    3  502    0 -0.32518598410E+02 -0.66303888964E+02 -0.41963917082E+02  0.85041799553E+02  0.41800000000E+01 0. -1.
         -5    1    3    3    0  502 -0.50687871366E+02  0.13623437840E+02 -0.18392636912E+03  0.19131450552E+03  0.41800000000E+01 0. -1.
        -11    1    1    2    0    0  0.66021995664E+02  0.79743762597E+01 -0.61835168744E+01  0.66788700160E+02  0.00000000000E+00 0.  1.
         11    1    1    2    0    0  0.17184474112E+02  0.44706074864E+02 -0.72191044510E+02  0.86634209108E+02  0.00000000000E+00 0. -1.
</event>
<event>
 7    1  0.2840156E-009  0.1164950E+03  0.7561462E-02  0.1248994E+00
         -3   -1    0    0    0  501 -0.00000000000E+00  0.00000000000E+00  0.46661714944E+03  0.46661714944E+03  0.00000000000E+00 0.  1.
          3   -1    0    0  501    0  0.00000000000E+00 -0.00000000000E+00 -0.39826493611E+02  0.39826493611E+02  0.00000000000E+00 0. -1.
         25    2    1    2    0    0  0.77331962135E+02 -0.19549211788E+02  0.22035208060E+03  0.26564044855E+03  0.12508958563E+03 0.  0.
          5    1    3    3  502    0  0.41073823857E+02 -0.56435932860E+02  0.45924527473E+02  0.83657684331E+02  0.41800000000E+01 0. -1.
         -5    1    3    3    0  502  0.36258138278E+02  0.36886721071E+02  0.17442755313E+03  0.18198276422E+03  0.41800000000E+01 0. -1.
        -11    1    1    2    0    0 -0.44874825795E+02 -0.28520780041E+02  0.15285422267E+03  0.16183818546E+03  0.00000000000E+00 0. -1.
         11    1    1    2    0    0 -0.32457136340E+02  0.48069991829E+02  0.53584352555E+02  0.78965009039E+02  0.00000000000E+00 0.  1.
</event>
<event>
 7    1  0.2840156E-009  0.1214962E+03  0.7561462E-02  0.1240649E+00
         -2   -1    0    0    0  501 -0.00000000000E+00  0.00000000000E+00  0.32552486495E+02  0.32552486495E+02  0.00000000000E+00 0.  1.
          2   -1    0    0  501    0  0.00000000000E+00 -0.00000000000E+00 -0.81025766037E+03  0.81025766037E+03  0.00000000000E+00 0. -1.
         25    2    1    2    0    0  0.55439898672E+02  0.59889296538E+02 -0.64719022281E+03  0.66419915781E+03  0.12508008046E+03 0.  0.
          5    1    3    3  502    0 -0.10218709821E+02  0.54741329314E+02 -0.11402550928E+03  0.12696583923E+03  0.41800000000E+01 0. -1.
         -5    1    3    3    0  502  0.65658608493E+02  0.51479672246E+01 -0.53316471353E+03  0.53723331857E+03  0.41800000000E+01 0. -1.
        -11    1    1    2    0    0 -0.49847712842E+02  0.10169477847E+02 -0.44998232417E+02  0.67919464632E+02  0.00000000000E+00 0.  1.
         11    1    1    2    0    0 -0.55921858292E+01 -0.70058774385E+02 -0.85516718649E+02  0.11069152442E+03  0.00000000000E+00 0. -1.
</event>
<event>
 7    1  0.2840156E-009  0.9921737E+02  0.7561462E-02  0.1281950E+00
          2   -1    0    0  501    0  0.00000000000E+00  0.00000000000E+00  0.10995853471E+04  0.10995853471E+04  0.00000000000E+00 0. -1.
         -2   -1    0    0    0  501 -0.00000000000E+00 -0.00000000000E+00 -0.13535438335E+02  0.13535438335E+02  0.00000000000E+00 0.  1.
         25    2    1    2    0    0 -0.98845242917E+00 -0.56253242300E+02  0.67760732249E+03  0.69135004178E+03  0.12509113663E+03 0.  0.
          5    1    3    3  502    0 -0.27696416390E+02 -0.61254026012E+02  0.16796075801E+03  0.18096252600E+03  0.41800000000E+01 0.  1.
         -5    1    3    3    0  502  0.26707963961E+02  0.50007837118E+01  0.50964656448E+03  0.51038751578E+03  0.41800000000E+01 0.  1.
        -11    1    1    2    0    0 -0.33959334720E+02 -0.37336598835E+01  0.17135938235E+03  0.17473183611E+03  0.00000000000E+00 0. -1.
         11    1    1    2    0    0  0.34947787149E+02  0.59986902183E+02  0.23708320389E+03  0.24703890752E+03  0.00000000000E+00 0.  1.
</event>
<event>
 7    1  0.2840156E-009  0.1988561E+03  0.7561462E-02  0.1150708E+00
         -1   -1    0    0    0  501 -0.00000000000E+00  0.00000000000E+00  0.63650723831E+02  0.63650723831E+02  0.00000000000E+00 0.  1.
          1   -1    0    0  501    0  0.00000000000E+00 -0.00000000000E+00 -0.10589887822E+04  0.10589887822E+04  0.00000000000E+00 0. -1.
         25    2    1    2    0    0 -0.15586193730E+03  0.89153359125E+02 -0.83969218112E+03  0.86773922174E+03  0.12508850057E+03 0.  0.
          5    1    3    3  502    0  0.15847413245E+02 -0.37042053828E+01 -0.26065674482E+02  0.31012149720E+02  0.41800000000E+01 0.  1.
         -5    1    3    3    0  502 -0.17170935055E+03  0.92857564507E+02 -0.81362650664E+03  0.83672707202E+03  0.41800000000E+01 0.  1.
        -11    1    1    2    0    0  0.10071278379E+03 -0.82337798853E+02 -0.57742971028E+02  0.14232648609E+03  0.00000000000E+00 0.  1.
         11    1    1    2    0    0  0.55149153510E+02 -0.68155602719E+01 -0.97902906219E+02  0.11257379820E+03  0.00000000000E+00 0. -1.
</event>
<event>
 7    1  0.2840156E-009  0.1191655E+03  0.7561462E-02  0.1244480E+00
          1   -1    0    0  501    0  0.00000000000E+00  0.00000000000E+00  0.31441356738E+03  0.31441356738E+03  0.00000000000E+00 0. -1.
         -1   -1    0    0    0  501 -0.00000000000E+00 -0.00000000000E+00 -0.51496193309E+02  0.51496193309E+02  0.00000000000E+00 0.  1.
         25    2    1    2    0    0  0.25612632878E+02  0.42031243858E+02  0.20955217972E+03  0.24896287475E+03  0.12509102508E+03 0.  0.
          5    1    3    3  502    0  0.28361357258E+02  0.85677839955E+02  0.14637679832E+03  0.17201365740E+03  0.41800000000E+01 0.  1.
         -5    1    3    3    0  502 -0.27487243808E+01 -0.43646596097E+02  0.63175381404E+02  0.76949217358E+02  0.41800000000E+01 0.  1.
        -11    1    1    2    0    0 -0.60360642452E+02 -0.28672966252E+02  0.35016423743E+02  0.75443330273E+02  0.00000000000E+00 0.  1.
         11    1    1    2    0    0  0.34748009574E+02 -0.13358277606E+02  0.18348770608E+02  0.41503555664E+02  0.00000000000E+00 0. -1.
</event>
<event>
 7    1  0.2840156E-009  0.1234255E+03  0.7561462E-02  0.1237551E+00
          1   -1    0    0  501    0  0.00000000000E+00  0.00000000000E+00  0.12305166441E+03  0.12305166441E+03  0.00000000000E+00 0. -1.
         -1   -1    0    0    0  501 -0.00000000000E+00 -0.00000000000E+00 -0.18201643430E+03  0.18201643430E+03  0.00000000000E+00 0.  1.
         25    2    1    2    0    0 -0.76478739777E+02  0.48779743616E+02 -0.81995327690E+02  0.17492165038E+03  0.12508352803E+03 0.  0.
          5    1    3    3  502    0 -0.17836531355E+02  0.83992353367E+02 -0.46898516715E+02  0.97927527003E+02  0.41800000000E+01 0.  1.
         -5    1    3    3    0  502 -0.58642208422E+02 -0.35212609751E+02 -0.35096810975E+02  0.76994123377E+02  0.41800000000E+01 0.  1.
        -11    1    1    2    0    0  0.41686294606E+02 -0.36654909500E+02  0.57335503232E+02  0.79804069315E+02  0.00000000000E+00 0. -1.
         11    1    1    2    0    0  0.34792445170E+02 -0.12124834116E+02 -0.34304945434E+02  0.50342379011E+02  0.00000000000E+00 0.  1.
</event>
<event>
 7    1  0.2840156E-009  0.9298552E+02  0.7561462E-02  0.1295779E+00
          2   -1    0    0  501    0  0.00000000000E+00  0.00000000000E+00  0.32851103819E+03  0.32851103819E+03  0.00000000000E+00 0. -1.
         -2   -1    0    0    0  501 -0.00000000000E+00 -0.00000000000E+00 -0.57091300224E+02  0.57091300224E+02  0.00000000000E+00 0.  1.
         25    2    1    2    0    0 -0.66570057288E+02  0.21551361522E+02  0.20621601534E+03  0.25113166793E+03  0.12508411547E+03 0.  0.
          5    1    3    3  502    0  0.52949605371E+00  0.35409138723E+02  0.20304415829E+01  0.35716698674E+02  0.41800000000E+01 0. -1.
         -5    1    3    3    0  502 -0.67099553342E+02 -0.13857777201E+02  0.20418557376E+03  0.21541496925E+03  0.41800000000E+01 0. -1.
        -11    1    1    2    0    0  0.42158670189E+02  0.84436371999E+01 -0.14912628548E+02  0.45508625243E+02  0.00000000000E+00 0.  1.
         11    1    1    2    0    0  0.24411387098E+02 -0.29994998722E+02  0.80116351172E+02  0.88962045241E+02  0.00000000000E+00 0. -1.
</event>
<event>
 7    1  0.2840156E-009  0.1264492E+03  0.7561462E-02  0.1232822E+00
         -2   -1    0    0    0  501 -0.00000000000E+00  0.00000000000E+00  0.10711483502E+03  0.10711483502E+03  0.00000000000E+00 0. -1.
          2   -1    0    0  501    0  0.00000000000E+00 -0.00000000000E+00 -0.32158478583E+03  0.32158478583E+03  0.00000000000E+00 0.  1.
         25    2    1    2    0    0 -0.11429274558E+03 -0.20952571429E+02 -0.16675189544E+02  0.17154465107E+03  0.12509062084E+03 0.  0.
          5    1    3    3  502    0 -0.27156447332E+02  0.13524665262E+02 -0.60652130108E+02  0.67945143232E+02  0.41800000000E+01 0.  1.
         -5    1    3    3    0  502 -0.87136298246E+02 -0.34477236691E+02  0.43976940564E+02  0.10359950783E+03  0.41800000000E+01 0.  1.
        -11    1    1    2    0    0  0.99878189223E+02  0.37355174522E+02 -0.20747096724E+03  0.23327079542E+03  0.00000000000E+00 0.  1.
         11    1    1    2    0    0  0.14414556356E+02 -0.16402603093E+02  0.96762059719E+01  0.23884174367E+02  0.00000000000E+00 0. -1.
</event>
<event>
 7    1  0.2840156E-009  0.1815804E+03  0.7561462E-02  0.1166282E+00
          2   -1    0    0  501    0  0.00000000000E+00  0.00000000000E+00  0.16805130784E+04  0.16805130784E+04  0.00000000000E+00 0. -1.
         -2   -1    0    0    0  501 -0.00000000000E+00 -0.00000000000E+00 -0.24861866660E+02  0.24861866660E+02  0.00000000000E+00 0.  1.
         25    2    1    2    0    0 -0.95021720917E+02  0.14094020129E+03  0.73389316653E+03  0.76363602805E+03  0.12509011024E+03 0.  0.
          5    1    3    3  502    0 -0.16590198018E+02  0.64176180741E+02  0.50947128528E+03  0.51378232722E+03  0.41800000000E+01 0.  1.
         -5    1    3    3    0  502 -0.78431522899E+02  0.76764020544E+02  0.22442188125E+03  0.24985370083E+03  0.41800000000E+01 0.  1.
        -11    1    1    2    0    0  0.92144670435E+02 -0.69491637415E+02  0.67632100174E+03  0.68609753341E+03  0.00000000000E+00 0. -1.
         11    1    1    2    0    0  0.28770504820E+01 -0.71448563871E+02  0.24543704352E+03  0.25564138364E+03  0.00000000000E+00 0.  1.
</event>
<event>
 7    1  0.2840156E-009  0.9969203E+02  0.7561462E-02  0.1280945E+00
         -2   -1    0    0    0  501 -0.00000000000E+00  0.00000000000E+00  0.28415545448E+02  0.28415545448E+02  0.00000000000E+00 0.  1.
          2   -1    0    0  501    0  0.00000000000E+00 -0.00000000000E+00 -0.48026097589E+03  0.48026097589E+03  0.00000000000E+00 0. -1.
         25    2    1    2    0    0 -0.38745084715E+02  0.66892350443E+01 -0.29982690960E+03  0.32725047615E+03  0.12510304138E+03 0.  0.
          5    1    3    3  502    0 -0.22537009044E+02 -0.52328562446E+02 -0.21566933875E+03  0.22310744340E+03  0.41800000000E+01 0. -1.
         -5    1    3    3    0  502 -0.16208075671E+02  0.59017797491E+02 -0.84157570850E+02  0.10414303274E+03  0.41800000000E+01 0. -1.
        -11    1    1    2    0    0  0.20461579839E+02  0.32077596930E+02 -0.20752775901E+02  0.43339660612E+02  0.00000000000E+00 0.  1.
         11    1    1    2    0    0  0.18283504875E+02 -0.38766831974E+02 -0.13126574494E+03  0.13808638458E+03  0.00000000000E+00 0. -1.
</event>
<event>
 7    1  0.2840156E-009  0.1092098E+03  0.7561462E-02  0.1262040E+00
          1   -1    0    0  501    0  0.00000000000E+00  0.00000000000E+00  0.80067006183E+03  0.80067006183E+03  0.00000000000E+00 0. -1.
         -1   -1    0    0    0  501 -0.00000000000E+00 -0.00000000000E+00 -0.17210767848E+02  0.17210767848E+02  0.00000000000E+00 0.  1.
         25    2    1    2    0    0  0.14206848885E+02 -0.35766008638E+02  0.53251031588E+03  0.54835835027E+03  0.12509437182E+03 0.  0.
          5    1    3    3  502    0  0.64629728836E+02 -0.45743898832E+02  0.32726197392E+03  0.33673042349E+03  0.41800000000E+01 0. -1.
         -5    1    3    3    0  502 -0.50422879951E+02  0.99778901940E+01  0.20524834196E+03  0.21162792678E+03  0.41800000000E+01 0. -1.
        -11    1    1    2    0    0 -0.43282445691E+02  0.24674931583E+01  0.63204045026E+02  0.76643394595E+02  0.00000000000E+00 0.  1.
         11    1    1    2    0    0  0.29075596806E+02  0.33298515479E+02  0.18774493307E+03  0.19287908481E+03  0.00000000000E+00 0. -1.
</event>
<event>
 7    1  0.2840156E-009  0.5483218E+02  0.7561462E-02  0.1420894E+00
          3   -1    0    0  501    0  0.00000000000E+00  0.00000000000E+00  0.78727333332E+02  0.78727333332E+02  0.00000000000E+00 0. -1.
         -3   -1    0    0    0  501 -0.00000000000E+00 -0.00000000000E+00 -0.15672377126E+03  0.15672377126E+03  0.00000000000E+00 0.  1.
         25    2    1    2    0    0 -0.32771171185E+01 -0.11622389081E+02 -0.71645883750E+02  0.14465155563E+03  0.12508045596E+03 0.  0.
          5    1    3    3  502    0  0.16984247295E+02  0.16248015738E+02  0.29364192711E+02  0.37844297921E+02  0.41800000000E+01 0. -1.
         -5    1    3    3    0  502 -0.20261364414E+02 -0.27870404818E+02 -0.10101007646E+03  0.10680725771E+03  0.41800000000E+01 0. -1.
        -11    1    1    2    0    0 -0.23195554283E+02  0.68136313255E+01  0.34353044537E+02  0.42007034879E+02  0.00000000000E+00 0. -1.
         11    1    1    2    0    0  0.26472671401E+02  0.48087577553E+01 -0.40703598718E+02  0.48792514087E+02  0.00000000000E+00 0.  1.
</event>
<event>
 7    1  0.3792370E-009  0.8683478E+02  0.7561462E-02  0.1310703E+00
          2   -1    0    0  501    0  0.00000000000E+00  0.00000000000E+00  0.68982821678E+02  0.68982821678E+02  0.00000000000E+00 0. -1.
         -2   -1    0    0    0  501 -0.00000000000E+00 -0.00000000000E+00 -0.26159265055E+03  0.26159265055E+03  0.00000000000E+00 0.  1.
         25    2    1    2    0    0  0.18774941232E+02 -0.70319213356E+02 -0.67895591723E+02  0.15985886023E+03  0.12509098143E+03 0.  0.
          5    1    3    3  502    0 -0.10441836295E+02  0.84490418031E+01 -0.74185850025E+02  0.75507820764E+02  0.41800000000E+01 0.  1.
         -5    1    3    3    0  502  0.29216777527E+02 -0.78768255159E+02  0.62902583019E+01  0.84351039469E+02  0.41800000000E+01 0.  1.
        -11    1    1    2    0    0 -0.13254210609E+02  0.15520036648E+02 -0.11245516277E+03  0.11429221001E+03  0.00000000000E+00 0.  1.
         11    1    1    2    0    0 -0.55207306237E+01  0.54799176708E+02 -0.12259074381E+02  0.56424401983E+02  0.00000000000E+00 0. -1.
</event>
<event>
 7    1  0.2840156E-009  0.1803741E+03  0.7561462E-02  0.1167441E+00
          2   -1    0    0  501    0  0.00000000000E+00  0.00000000000E+00  0.45978070261E+03  0.45978070261E+03  0.00000000000E+00 0. -1.
         -2   -1    0    0    0  501 -0.00000000000E+00 -0.00000000000E+00 -0.80021704600E+02  0.80021704600E+02  0.00000000000E+00 0.  1.
         25    2    1    2    0    0 -0.15053316510E+03 -0.23769018201E+02  0.25760812047E+03  0.32439718107E+03  0.12508552008E+03 0.  0.
          5    1    3    3  502    0 -0.16974773039E+03 -0.36356570464E+02  0.22264372179E+03  0.28235401793E+03  0.41800000000E+01 0. -1.
         -5    1    3    3    0  502  0.19214565297E+02  0.12587552263E+02  0.34964398674E+02  0.42043163132E+02  0.41800000000E+01 0. -1.
        -11    1    1    2    0    0  0.10254369384E+03  0.44112390202E+02  0.11903570741E+03  0.16318888368E+03  0.00000000000E+00 0. -1.
         11    1    1    2    0    0  0.47989471253E+02 -0.20343372000E+02  0.31151701291E+01  0.52216342465E+02  0.00000000000E+00 0.  1.
</event>
<event>
 7    1  0.4099463E-009  0.9997855E+02  0.7561462E-02  0.1280341E+00
          2   -1    0    0  501    0  0.00000000000E+00  0.00000000000E+00  0.54442867445E+03  0.54442867445E+03  0.00000000000E+00 0. -1.
         -2   -1    0    0    0  501 -0.00000000000E+00 -0.00000000000E+00 -0.26714307453E+02  0.26714307453E+02  0.00000000000E+00 0.  1.
         25    2    1    2    0    0 -0.23859347039E+02 -0.47254339715E+02  0.29921870626E+03  0.32860784794E+03  0.12509613299E+03 0.  0.
          5    1    3    3  502    0 -0.46830328906E+02 -0.66009107749E+02  0.10782390570E+03  0.13488420609E+03  0.41800000000E+01 0.  1.
         -5    1    3    3    0  502  0.22970981867E+02  0.18754768034E+02  0.19139480055E+03  0.19372364185E+03  0.41800000000E+01 0.  1.
        -11    1    1    2    0    0  0.38878271112E+02  0.58474939824E+02  0.21094270097E+03  0.22232332681E+03  0.00000000000E+00 0. -1.
         11    1    1    2    0    0 -0.15018924074E+02 -0.11220600109E+02  0.75529597714E+01  0.20211807154E+02  0.00000000000E+00 0.  1.
</event>
<event>
 7    1  0.2840156E-009  0.1056483E+03  0.7561462E-02  0.1268847E+00
         -2   -1    0    0    0  501 -0.00000000000E+00  0.00000000000E+00  0.13470576843E+02  0.13470576843E+02  0.00000000000E+00 0. -1.
          2   -1    0    0  501    0  0.00000000000E+00 -0.00000000000E+00 -0.10445195184E+04  0.10445195184E+04  0.00000000000E+00 0.  1.
         25    2    1    2    0    0  0.19808615280E+02 -0.17319520411E+02 -0.78200966894E+03  0.79238830266E+03  0.12509097832E+03 0.  0.
          5    1    3    3  502    0 -0.34403145227E+02 -0.47985600470E+02 -0.50356813791E+03  0.50703504433E+03  0.41800000000E+01 0.  1.
         -5    1    3    3    0  502  0.54211760508E+02  0.30666080059E+02 -0.27844153102E+03  0.28535325833E+03  0.41800000000E+01 0.  1.
        -11    1    1    2    0    0  0.24214318739E+02 -0.20435635162E+02 -0.59806961731E+02  0.67681763334E+02  0.00000000000E+00 0. -1.
         11    1    1    2    0    0 -0.44022934020E+02  0.37755155573E+02 -0.18923231086E+03  0.19792002922E+03  0.00000000000E+00 0.  1.
</event>
<event>
 7    1  0.2840156E-009  0.8931971E+02  0.7561462E-02  0.1304508E+00
          1   -1    0    0  501    0  0.00000000000E+00  0.00000000000E+00  0.27348628615E+03  0.27348628615E+03  0.00000000000E+00 0. -1.
         -1   -1    0    0    0  501 -0.00000000000E+00 -0.00000000000E+00 -0.71534494301E+02  0.71534494301E+02  0.00000000000E+00 0.  1.
         25    2    1    2    0    0 -0.79726404487E+02  0.13560790243E+02  0.15098379742E+03  0.21209480143E+03  0.12509157888E+03 0.  0.
          5    1    3    3  502    0 -0.25864277593E+02  0.51291882388E+01  0.15498776952E+03  0.15727031039E+03  0.41800000000E+01 0. -1.
         -5    1    3    3    0  502 -0.53862126894E+02  0.84316020045E+01 -0.40039721021E+01  0.54824491046E+02  0.41800000000E+01 0. -1.
        -11    1    1    2    0    0  0.47977998141E+02  0.19169195176E+02 -0.14022375601E+02  0.53534786511E+02  0.00000000000E+00 0.  1.
         11    1    1    2    0    0  0.31748406346E+02 -0.32729985419E+02  0.64990370031E+02  0.79391192508E+02  0.00000000000E+00 0. -1.
</event>
<event>
 7    1  0.2840156E-009  0.1675768E+03  0.7561462E-02  0.1180399E+00
         -4   -1    0    0    0  501 -0.00000000000E+00  0.00000000000E+00  0.17431498353E+03  0.17431498353E+03  0.00000000000E+00 0.  1.
          4   -1    0    0  501    0  0.00000000000E+00 -0.00000000000E+00 -0.21695424696E+03  0.21695424696E+03  0.00000000000E+00 0. -1.
         25    2    1    2    0    0  0.14911879158E+03  0.42451910976E+02 -0.64280473215E+02  0.20932754531E+03  0.12508982070E+03 0.  0.
          5    1    3    3  502    0  0.78079132045E+02  0.27450097225E+02 -0.98692651850E+02  0.12887036365E+03  0.41800000000E+01 0.  1.
         -5    1    3    3    0  502  0.71039659530E+02  0.15001813751E+02  0.34412178635E+02  0.80457181658E+02  0.41800000000E+01 0.  1.
        -11    1    1    2    0    0 -0.35828795554E+02 -0.54930398399E+02  0.17563976387E+02  0.67893626547E+02  0.00000000000E+00 0. -1.
         11    1    1    2    0    0 -0.11328999602E+03  0.12478487423E+02  0.40772333938E+01  0.11404805864E+03  0.00000000000E+00 0.  1.
</event>
<event>
 7    1  0.2840156E-009  0.1078681E+03  0.7561462E-02  0.1264570E+00
         -2   -1    0    0    0  501 -0.00000000000E+00  0.00000000000E+00  0.48157978638E+02  0.48157978638E+02  0.00000000000E+00 0.  1.
          2   -1    0    0  501    0  0.00000000000E+00 -0.00000000000E+00 -0.31358932641E+03  0.31358932641E+03  0.00000000000E+00 0. -1.
         25    2    1    2    0    0 -0.23460424366E+02  0.36387617211E+02 -0.20496246596E+03  0.24399014447E+03  0.12508848047E+03 0.  0.
          5    1    3    3  502    0 -0.29542780544E+02  0.72948596791E+02 -0.18629530192E+03  0.20228120420E+03  0.41800000000E+01 0. -1.
         -5    1    3    3    0  502  0.60823561782E+01 -0.36560979581E+02 -0.18667164040E+02  0.41708940263E+02  0.41800000000E+01 0. -1.
        -11    1    1    2    0    0  0.21472887493E+02  0.27954838842E+02 -0.12215159140E+02  0.37306407289E+02  0.00000000000E+00 0.  1.
         11    1    1    2    0    0  0.19875368725E+01 -0.64342456052E+02 -0.48253722670E+02  0.80450753291E+02  0.00000000000E+00 0. -1.
</event>
<event>
 7    1  0.2840156E-009  0.1053696E+03  0.7561462E-02  0.1269393E+00
          1   -1    0    0  501    0  0.00000000000E+00  0.00000000000E+00  0.17364727779E+03  0.17364727779E+03  0.00000000000E+00 0. -1.
         -1   -1    0    0    0  501 -0.00000000000E+00 -0.00000000000E+00 -0.10601523448E+03  0.10601523448E+03  0.00000000000E+00 0.  1.
         25    2    1    2    0    0 -0.20794537114E+02 -0.54726010565E+02 -0.22340075970E+02  0.13990650893E+03  0.12508958086E+03 0.  0.
          5    1    3    3  502    0 -0.39088893263E+02  0.28903603396E+02 -0.23570286024E+02  0.54188473397E+02  0.41800000000E+01 0.  1.
         -5    1    3    3    0  502  0.18294356150E+02 -0.83629613961E+02  0.12302100540E+01  0.85718035529E+02  0.41800000000E+01 0.  1.
        -11    1    1    2    0    0  0.34920760704E+02  0.23867190510E+02 -0.13624980232E+01  0.42319720130E+02  0.00000000000E+00 0.  1.
         11    1    1    2    0    0 -0.14126223591E+02  0.30858820055E+02  0.91334617305E+02  0.97436283213E+02  0.00000000000E+00 0. -1.
</event>
<event>
 7    1  0.2840156E-009  0.3722122E+03  0.7561462E-02  0.1053850E+00
         -3   -1    0    0    0  501 -0.00000000000E+00  0.00000000000E+00  0.94070357409E+03  0.94070357409E+03  0.00000000000E+00 0.  1.
          3   -1    0    0  501    0  0.00000000000E+00 -0.00000000000E+00 -0.32010542044E+03  0.32010542044E+03  0.00000000000E+00 0. -1.
         25    2    1    2    0    0  0.20441738449E+03  0.29770980336E+03 -0.14511446154E+03  0.40880651551E+03  0.12508783345E+03 0.  0.
          5    1    3    3  502    0  0.89551126958E+02  0.46763198226E+02 -0.69248456170E+02  0.12255212005E+03  0.41800000000E+01 0.  1.
         -5    1    3    3    0  502  0.11486625754E+03  0.25094660513E+03 -0.75866005373E+02  0.28625439546E+03  0.41800000000E+01 0.  1.
        -11    1    1    2    0    0 -0.32778254061E+02 -0.10122196108E+03  0.15614214742E+03  0.18894620807E+03  0.00000000000E+00 0.  1.
         11    1    1    2    0    0 -0.17163913043E+03 -0.19648784228E+03  0.60957046777E+03  0.66305627094E+03  0.00000000000E+00 0. -1.
</event>
<event>
 7    1  0.2840156E-009  0.1075199E+03  0.7561462E-02  0.1265233E+00
         -1   -1    0    0    0  501 -0.00000000000E+00  0.00000000000E+00  0.20623283262E+03  0.20623283262E+03  0.00000000000E+00 0.  1.
          1   -1    0    0  501    0  0.00000000000E+00 -0.00000000000E+00 -0.76268900549E+02  0.76268900549E+02  0.00000000000E+00 0. -1.
         25    2    1    2    0    0 -0.18481670215E+02  0.51854052137E+02  0.76814220314E+02  0.15677260030E+03  0.12508720520E+03 0.  0.
          5    1    3    3  502    0 -0.64529502159E+02  0.59121226141E+02  0.63184317871E+02  0.10802363840E+03  0.41800000000E+01 0. -1.
         -5    1    3    3    0  502  0.46047831945E+02 -0.72671740042E+01  0.13629902443E+02  0.48748961891E+02  0.41800000000E+01 0. -1.
        -11    1    1    2    0    0  0.35408247979E+02 -0.12114887348E+02  0.69991258974E+02  0.79368072001E+02  0.00000000000E+00 0.  1.
         11    1    1    2    0    0 -0.16926577764E+02 -0.39739164789E+02 -0.16841547215E+02  0.46361060876E+02  0.00000000000E+00 0. -1.
</event>
<event>
 7    1  0.2840156E-009  0.1553645E+03  0.7561462E-02  0.1194032E+00
         -2   -1    0    0    0  501 -0.00000000000E+00  0.00000000000E+00  0.59573091342E+02  0.59573091342E+02  0.00000000000E+00 0.  1.
          2   -1    0    0  501    0  0.00000000000E+00 -0.00000000000E+00 -0.43967281914E+03  0.43967281914E+03  0.00000000000E+00 0. -1.
         25    2    1    2    0    0 -0.61035117419E+01  0.11907209324E+03 -0.18228339747E+03  0.25118415031E+03  0.12510325388E+03 0.  0.
          5    1    3    3  502    0 -0.61549581058E+01 -0.22196212567E+02 -0.59602299179E+02  0.64034848552E+02  0.41800000000E+01 0. -1.
         -5    1    3    3    0  502  0.51446363975E-01  0.14126830581E+03 -0.12268109829E+03  0.18714930176E+03  0.41800000000E+01 0. -1.
        -11    1    1    2    0    0  0.45283165481E+02 -0.64517352672E+02 -0.79139011689E+02  0.11169618186E+03  0.00000000000E+00 0.  1.
         11    1    1    2    0    0 -0.39179653739E+02 -0.54554740572E+02 -0.11867731864E+03  0.13636557831E+03  0.00000000000E+00 0. -1.
</event>
<event>
 7    1  0.2840156E-009  0.1188383E+03  0.7561462E-02  0.1245026E+00
         -3   -1    0    0    0  501 -0.00000000000E+00  0.00000000000E+00  0.33199619428E+02  0.33199619428E+02  0.00000000000E+00 0.  1.
          3   -1    0    0  501    0  0.00000000000E+00 -0.00000000000E+00 -0.58304875142E+03  0.58304875142E+03  0.00000000000E+00 0. -1.
         25    2    1    2    0    0  0.16987227722E+02  0.84936866055E+02 -0.27535943691E+03  0.31459962930E+03  0.12508904884E+03 0.  0.
          5    1    3    3  502    0 -0.46101073545E+02  0.66182552443E+02 -0.19208521050E+03  0.20837379807E+03  0.41800000000E+01 0.  1.
         -5    1    3    3    0  502  0.63088301267E+02  0.18754313612E+02 -0.83274226412E+02  0.10622583123E+03  0.41800000000E+01 0.  1.
        -11    1    1    2    0    0  0.77686352151E+01 -0.18612899538E+02 -0.21791916845E+01  0.20286463435E+02  0.00000000000E+00 0.  1.
         11    1    1    2    0    0 -0.24755862937E+02 -0.66323966517E+02 -0.27231050339E+03  0.28136227811E+03  0.00000000000E+00 0. -1.
</event>
<event>
 7    1  0.2840156E-009  0.1081336E+03  0.7561462E-02  0.1264066E+00
         -1   -1    0    0    0  501 -0.00000000000E+00  0.00000000000E+00  0.15491272634E+03  0.15491272634E+03  0.00000000000E+00 0.  1.
          1   -1    0    0  501    0  0.00000000000E+00 -0.00000000000E+00 -0.11881049268E+03  0.11881049268E+03  0.00000000000E+00 0. -1.
         25    2    1    2    0    0  0.77288349463E+02 -0.26032035994E+02  0.18114581581E+02  0.15042265209E+03  0.12509068844E+03 0.  0.
          5    1    3    3  502    0  0.81374238916E+02  0.21163514007E+02  0.45346695475E+02  0.95621421632E+02  0.41800000000E+01 0. -1.
         -5    1    3    3    0  502 -0.40858894536E+01 -0.47195550001E+02 -0.27232113894E+02  0.54801230457E+02  0.41800000000E+01 0. -1.
        -11    1    1    2    0    0 -0.17788316185E+02  0.16508935615E+02  0.49626013722E+02  0.55242288021E+02  0.00000000000E+00 0.  1.
         11    1    1    2    0    0 -0.59500033277E+02  0.95231003791E+01 -0.31638361647E+02  0.68058278913E+02  0.00000000000E+00 0. -1.
</event>
<event>
 7    1  0.2840156E-009  0.8126197E+02  0.7561462E-02  0.1325508E+00
         -1   -1    0    0    0  501 -0.00000000000E+00  0.00000000000E+00  0.11746506539E+03  0.11746506539E+03  0.00000000000E+00 0.  1.
          1   -1    0    0  501    0  0.00000000000E+00 -0.00000000000E+00 -0.12161219077E+03  0.12161219077E+03  0.00000000000E+00 0. -1.
         25    2    1    2    0    0  0.33858481224E+02 -0.29001003097E+02  0.21095454342E+02  0.13446293092E+03  0.12509119340E+03 0.  0.
          5    1    3    3  502    0  0.27823243454E+02  0.69272981499E+01 -0.48098659426E+02  0.56152237485E+02  0.41800000000E+01 0.  1.
         -5    1    3    3    0  502  0.60352377701E+01 -0.35928301247E+02  0.69194113768E+02  0.78310693431E+02  0.41800000000E+01 0.  1.
        -11    1    1    2    0    0 -0.29047025435E+01 -0.30058209219E+02 -0.22890833508E+02  0.37893581211E+02  0.00000000000E+00 0.  1.
         11    1    1    2    0    0 -0.30953778681E+02  0.59059212316E+02 -0.23517462193E+01  0.66720744033E+02  0.00000000000E+00 0. -1.
</event>
<event>
 7    1  0.2840156E-009  0.1209629E+03  0.7561462E-02  0.1241517E+00
          1   -1    0    0  501    0  0.00000000000E+00  0.00000000000E+00  0.53437729941E+03  0.53437729941E+03  0.00000000000E+00 0. -1.
         -1   -1    0    0    0  501 -0.00000000000E+00 -0.00000000000E+00 -0.46474306270E+02  0.46474306270E+02  0.00000000000E+00 0.  1.
         25    2    1    2    0    0 -0.59211909122E+02  0.97321747969E+02  0.28140311776E+03  0.32835026413E+03  0.12509439819E+03 0.  0.
          5    1    3    3  502    0  0.26881878415E+01  0.12852318242E+02 -0.11063904283E+02  0.17671751924E+02  0.41800000000E+01 0. -1.
         -5    1    3    3    0  502 -0.61900096963E+02  0.84469429727E+02  0.29246702204E+03  0.31067851220E+03  0.41800000000E+01 0. -1.
        -11    1    1    2    0    0  0.27729136661E+02 -0.83439372564E+01  0.41909025317E+01  0.29259015242E+02  0.00000000000E+00 0. -1.
         11    1    1    2    0    0  0.31482772461E+02 -0.88977810713E+02  0.20230897285E+03  0.22324232631E+03  0.00000000000E+00 0.  1.
</event>
<event>
 7    1  0.2840156E-009  0.1070440E+03  0.7561462E-02  0.1266144E+00
         -1   -1    0    0    0  501 -0.00000000000E+00  0.00000000000E+00  0.93844415856E+02  0.93844415856E+02  0.00000000000E+00 0.  1.
          1   -1    0    0  501    0  0.00000000000E+00 -0.00000000000E+00 -0.19506046504E+03  0.19506046504E+03  0.00000000000E+00 0. -1.
         25    2    1    2    0    0 -0.79818920284E+02  0.12950819710E+02 -0.42528885992E+02  0.15490403300E+03  0.12509104496E+03 0.  0.
          5    1    3    3  502    0 -0.25921842486E+02 -0.19347268184E+02  0.39670005691E+02  0.51356016741E+02  0.41800000000E+01 0.  1.
         -5    1    3    3    0  502 -0.53897077798E+02  0.32298087894E+02 -0.82198891683E+02  0.10354801626E+03  0.41800000000E+01 0.  1.
        -11    1    1    2    0    0  0.66473913746E+02  0.30434174097E+02 -0.47714741736E+02  0.87302444070E+02  0.00000000000E+00 0.  1.
         11    1    1    2    0    0  0.13345006538E+02 -0.43384993807E+02 -0.10972421451E+02  0.46698403824E+02  0.00000000000E+00 0. -1.
</event>
<event>
 7    1  0.2840156E-009  0.1121114E+03  0.7561462E-02  0.1256709E+00
         -2   -1    0    0    0  501 -0.00000000000E+00  0.00000000000E+00  0.59249540483E+02  0.59249540483E+02  0.00000000000E+00 0.  1.
          2   -1    0    0  501    0  0.00000000000E+00 -0.00000000000E+00 -0.31493461439E+03  0.31493461439E+03  0.00000000000E+00 0. -1.
         25    2    1    2    0    0 -0.42331299558E+02  0.29975690794E+02 -0.22742660190E+03  0.26468982069E+03  0.12508941189E+03 0.  0.
          5    1    3    3  502    0 -0.59614204407E+02 -0.22177410491E+02 -0.56769104078E+02  0.85357451233E+02  0.41800000000E+01 0.  1.
         -5    1    3    3    0  502  0.17282904850E+02  0.52153101285E+02 -0.17065749782E+03  0.17933236946E+03  0.41800000000E+01 0.  1.
        -11    1    1    2    0    0  0.21160746013E+01 -0.56927925081E+02 -0.20044545786E+02  0.60390812559E+02  0.00000000000E+00 0.  1.
         11    1    1    2    0    0  0.40215224957E+02  0.26952234287E+02 -0.82139262189E+01  0.49103521618E+02  0.00000000000E+00 0. -1.
</event>
<event>
 7    1  0.2840156E-009  0.1169306E+03  0.7561462E-02  0.1248248E+00
         -2   -1    0    0    0  501 -0.00000000000E+00  0.00000000000E+00  0.62124588237E+02  0.62124588237E+02  0.00000000000E+00 0.  1.
          2   -1    0    0  501    0  0.00000000000E+00 -0.00000000000E+00 -0.28807252686E+03  0.28807252686E+03  0.00000000000E+00 0. -1.
         25    2    1    2    0    0 -0.36691098866E+02  0.81021980265E+01 -0.39119409133E+02  0.13634072043E+03  0.12508629633E+03 0.  0.
          5    1    3    3  502    0 -0.34943915272E+02  0.64568636856E+02 -0.16642303642E+02  0.75396450516E+02  0.41800000000E+01 0.  1.
         -5    1    3    3    0  502 -0.17471835943E+01 -0.56466438829E+02 -0.22477105491E+02  0.60944269918E+02  0.41800000000E+01 0.  1.
        -11    1    1    2    0    0  0.19406693845E+01  0.42361080730E+02 -0.67457671210E+02  0.79679136311E+02  0.00000000000E+00 0. -1.
         11    1    1    2    0    0  0.34750429482E+02 -0.50463278756E+02 -0.11937085828E+03  0.13417725835E+03  0.00000000000E+00 0.  1.
</event>
<event>
 7    1  0.2840156E-009  0.1213501E+03  0.7561462E-02  0.1240886E+00
          1   -1    0    0  501    0  0.00000000000E+00  0.00000000000E+00  0.15875725815E+04  0.15875725815E+04  0.00000000000E+00 0.  1.
         -1   -1    0    0    0  501 -0.00000000000E+00 -0.00000000000E+00 -0.18944184094E+02  0.18944184094E+02  0.00000000000E+00 0. -1.
         25    2    1    2    0    0 -0.85269034977E+02 -0.12463476814E+02  0.13108444706E+04  0.13196161194E+04  0.12508928829E+03 0.  0.
          5    1    3    3  502    0 -0.62172251822E+02 -0.61695398447E+02  0.10154208155E+04  0.10191999882E+04  0.41800000000E+01 0. -1.
         -5    1    3    3    0  502 -0.23096783155E+02  0.49231921633E+02  0.29542365510E+03  0.30041613121E+03  0.41800000000E+01 0. -1.
        -11    1    1    2    0    0  0.16630558551E+01  0.16676419037E+02  0.96962722677E+00  0.16787164252E+02  0.00000000000E+00 0. -1.
         11    1    1    2    0    0  0.83605979122E+02 -0.42129422229E+01  0.25681429956E+03  0.27011348186E+03  0.00000000000E+00 0.  1.
</event>
<event>
 7    1  0.2840156E-009  0.8750937E+02  0.7561462E-02  0.1308998E+00
         -2   -1    0    0    0  501 -0.00000000000E+00  0.00000000000E+00  0.75443737605E+02  0.75443737605E+02  0.00000000000E+00 0.  1.
          2   -1    0    0  501    0  0.00000000000E+00 -0.00000000000E+00 -0.15220958995E+03  0.15220958995E+03  0.00000000000E+00 0. -1.
         25    2    1    2    0    0 -0.13638007172E+02  0.83767631840E+01 -0.60429784748E+02  0.13984031401E+03  0.12508952449E+03 0.  0.
          5    1    3    3  502    0  0.43763711688E+02  0.31432157912E+01  0.13413671042E+02  0.46071045539E+02  0.41800000000E+01 0.  1.
         -5    1    3    3    0  502 -0.57401718861E+02  0.52335473929E+01 -0.73843455790E+02  0.93769268471E+02  0.41800000000E+01 0.  1.
        -11    1    1    2    0    0 -0.70271503243E+01 -0.37104554982E+02 -0.31630822464E+02  0.49260915255E+02  0.00000000000E+00 0. -1.
         11    1    1    2    0    0  0.20665157497E+02  0.28727791798E+02  0.15294754869E+02  0.38552098288E+02  0.00000000000E+00 0.  1.
</event>
<event>
 7    1  0.2840156E-009  0.1493178E+03  0.7561462E-02  0.1201314E+00
          2   -1    0    0  501    0  0.00000000000E+00  0.00000000000E+00  0.16778923959E+03  0.16778923959E+03  0.00000000000E+00 0. -1.
         -2   -1    0    0    0  501 -0.00000000000E+00 -0.00000000000E+00 -0.14000999100E+03  0.14000999100E+03  0.00000000000E+00 0.  1.
         25    2    1    2    0    0  0.80488843858E+02 -0.71179903384E+02  0.52729766386E+01  0.16498526898E+03  0.12508917646E+03 0.  0.
          5    1    3    3  502    0  0.84826884717E+02 -0.99023484678E+02 -0.13060476134E+02  0.13110796820E+03  0.41800000000E+01 0. -1.
         -5    1    3    3    0  502 -0.43380408599E+01  0.27843581294E+02  0.18333452773E+02  0.33877300783E+02  0.41800000000E+01 0. -1.
        -11    1    1    2    0    0 -0.83435180120E+02  0.88788094117E+02  0.12844496056E+02  0.12251422782E+03  0.00000000000E+00 0.  1.
         11    1    1    2    0    0  0.29463362629E+01 -0.17608190733E+02  0.96617759012E+01  0.20299733787E+02  0.00000000000E+00 0. -1.
</event>
<event>
 7    1  0.2840156E-009  0.1313668E+03  0.7561462E-02  0.1225442E+00
          2   -1    0    0  501    0  0.00000000000E+00  0.00000000000E+00  0.50163069923E+03  0.50163069923E+03  0.00000000000E+00 0. -1.
         -2   -1    0    0    0  501 -0.00000000000E+00 -0.00000000000E+00 -0.55896675573E+02  0.55896675573E+02  0.00000000000E+00 0.  1.
         25    2    1    2    0    0 -0.10532193059E+03  0.21135165211E+02  0.35866901396E+03  0.39475459498E+03  0.12509326286E+03 0.  0.
          5    1    3    3  502    0 -0.10863580224E+03 -0.54180558450E+01  0.15564117483E+03  0.18992825109E+03  0.41800000000E+01 0.  1.
         -5    1    3    3    0  502  0.33138716466E+01  0.26553221056E+02  0.20302783912E+03  0.20482634389E+03  0.41800000000E+01 0.  1.
        -11    1    1    2    0    0  0.70511672667E+01  0.19289822980E+02 -0.61306413996E+01  0.21433641650E+02  0.00000000000E+00 0.  1.
         11    1    1    2    0    0  0.98270763326E+02 -0.40424988191E+02  0.93195651096E+02  0.14133913817E+03  0.00000000000E+00 0. -1.
</event>
<event>
 7    1  0.2840156E-009  0.9071888E+02  0.7561462E-02  0.1301120E+00
          2   -1    0    0  501    0  0.00000000000E+00  0.00000000000E+00  0.55030494385E+03  0.55030494385E+03  0.00000000000E+00 0. -1.
         -2   -1    0    0    0  501 -0.00000000000E+00 -0.00000000000E+00 -0.24589694766E+02  0.24589694766E+02  0.00000000000E+00 0.  1.
         25    2    1    2    0    0 -0.18161844491E+02 -0.25059763842E+02  0.34322921018E+03  0.36662117301E+03  0.12508776684E+03 0.  0.
          5    1    3    3  502    0 -0.62681001687E+02  0.99433656255E+01  0.11481970506E+03  0.13125858281E+03  0.41800000000E+01 0.  1.
         -5    1    3    3    0  502  0.44519157196E+02 -0.35003129468E+02  0.22840950513E+03  0.23536259019E+03  0.41800000000E+01 0.  1.
        -11    1    1    2    0    0  0.27673292508E+01 -0.16499843581E+02 -0.34892693199E+01  0.17090288171E+02  0.00000000000E+00 0.  1.
         11    1    1    2    0    0  0.15394515240E+02  0.41559607423E+02  0.18597530822E+03  0.19118317744E+03  0.00000000000E+00 0. -1.
</event>
<event>
 7    1  0.2840156E-009  0.1097693E+03  0.7561462E-02  0.1260998E+00
         -1   -1    0    0    0  501 -0.00000000000E+00  0.00000000000E+00  0.60140078120E+02  0.60140078120E+02  0.00000000000E+00 0.  1.
          1   -1    0    0  501    0  0.00000000000E+00 -0.00000000000E+00 -0.24810883995E+03  0.24810883995E+03  0.00000000000E+00 0. -1.
         25    2    1    2    0    0 -0.96264460808E+01  0.58090589045E+02 -0.72287363206E+02  0.15601612830E+03  0.12509350268E+03 0.  0.
          5    1    3    3  502    0 -0.57666848534E+02  0.13727432154E+02 -0.13408959427E+01  0.59440543531E+02  0.41800000000E+01 0. -1.
         -5    1    3    3    0  502  0.48040402453E+02  0.44363156891E+02 -0.70946467263E+02  0.96575584773E+02  0.41800000000E+01 0. -1.
        -11    1    1    2    0    0  0.10591640714E+02  0.16708900485E+02 -0.45690734186E+02  0.49789691693E+02  0.00000000000E+00 0.  1.
         11    1    1    2    0    0 -0.96519463278E+00 -0.74799489530E+02 -0.69990664442E+02  0.10244309808E+03  0.00000000000E+00 0. -1.
</event>
<event>
 7    1  0.2840156E-009  0.7404902E+02  0.7561462E-02  0.1346841E+00
         -2   -1    0    0    0  501 -0.00000000000E+00  0.00000000000E+00  0.46754016592E+02  0.46754016592E+02  0.00000000000E+00 0.  1.
          2   -1    0    0  501    0  0.00000000000E+00 -0.00000000000E+00 -0.25048401598E+03  0.25048401598E+03  0.00000000000E+00 0. -1.
         25    2    1    2    0    0  0.13124115761E+01 -0.72018601410E+01 -0.12750677398E+03  0.17876886714E+03  0.12508693470E+03 0.  0.
          5    1    3    3  502    0  0.48045880698E+02  0.22420596123E+02 -0.18248834096E+02  0.56227947930E+02  0.41800000000E+01 0. -1.
         -5    1    3    3    0  502 -0.46733469122E+02 -0.29622456264E+02 -0.10925793989E+03  0.12254091921E+03  0.41800000000E+01 0. -1.
        -11    1    1    2    0    0 -0.18468530232E+02 -0.40514968698E+01  0.15518763859E+02  0.24460851734E+02  0.00000000000E+00 0.  1.
         11    1    1    2    0    0  0.17156118656E+02  0.11253357011E+02 -0.91741989260E+02  0.94008313700E+02  0.00000000000E+00 0. -1.
</event>
<event>
 7    1  0.2840156E-009  0.1297594E+03  0.7561462E-02  0.1227813E+00
          2   -1    0    0  501    0  0.00000000000E+00  0.00000000000E+00  0.76730443524E+03  0.76730443524E+03  0.00000000000E+00 0.  1.
         -2   -1    0    0    0  501 -0.00000000000E+00 -0.00000000000E+00 -0.33228137892E+02  0.33228137892E+02  0.00000000000E+00 0. -1.
         25    2    1    2    0    0 -0.87209440411E+02  0.19719273026E+02  0.57814313926E+03  0.59824040059E+03  0.12509097170E+03 0.  0.
          5    1    3    3  502    0  0.12746588074E+02  0.31871703681E+02  0.51439963160E+02  0.61982442780E+02  0.41800000000E+01 0.  1.
         -5    1    3    3    0  502 -0.99956028485E+02 -0.12152430655E+02  0.52670317610E+03  0.53625795781E+03  0.41800000000E+01 0.  1.
        -11    1    1    2    0    0  0.23552144469E+02  0.33661999542E+02  0.27877724911E+02  0.49648779124E+02  0.00000000000E+00 0. -1.
         11    1    1    2    0    0  0.63657295942E+02 -0.53381272568E+02  0.12805543317E+03  0.15264339341E+03  0.00000000000E+00 0.  1.
</event>
<event>
 7    1  0.2840156E-009  0.1062185E+03  0.7561462E-02  0.1267737E+00
          1   -1    0    0  501    0  0.00000000000E+00  0.00000000000E+00  0.74313178414E+03  0.74313178414E+03  0.00000000000E+00 0. -1.
         -1   -1    0    0    0  501 -0.00000000000E+00 -0.00000000000E+00 -0.19052700948E+02  0.19052700948E+02  0.00000000000E+00 0.  1.
         25    2    1    2    0    0  0.39410652446E+01 -0.24106999546E+02  0.54710493969E+03  0.56175503153E+03  0.12509284949E+03 0.  0.
          5    1    3    3  502    0 -0.59112385129E+02 -0.17386698954E+01  0.29441901804E+03  0.30032869932E+03  0.41800000000E+01 0. -1.
         -5    1    3    3    0  502  0.63053450373E+02 -0.22368329651E+02  0.25268592165E+03  0.26142633221E+03  0.41800000000E+01 0. -1.
        -11    1    1    2    0    0 -0.10749652019E+02  0.54204166380E+02  0.14847402648E+03  0.15842406134E+03  0.00000000000E+00 0. -1.
         11    1    1    2    0    0  0.68085867745E+01 -0.30097166834E+02  0.28500117022E+02  0.42005392220E+02  0.00000000000E+00 0.  1.
</event>
<event>
 7    1  0.2840156E-009  0.1259880E+03  0.7561462E-02  0.1233533E+00
         -4   -1    0    0    0  501 -0.00000000000E+00  0.00000000000E+00  0.43760777014E+03  0.43760777014E+03  0.00000000000E+00 0.  1.
          4   -1    0    0  501    0  0.00000000000E+00 -0.00000000000E+00 -0.51777881063E+02  0.51777881063E+02  0.00000000000E+00 0. -1.
         25    2    1    2    0    0 -0.76084759364E+02 -0.10967963253E+02  0.94408643269E+02  0.17455833663E+03  0.12509370143E+03 0.  0.
          5    1    3    3  502    0 -0.23076138880E+02 -0.65901084287E+02  0.38507144089E+02  0.79848191223E+02  0.41800000000E+01 0. -1.
         -5    1    3    3    0  502 -0.53008620484E+02  0.54933121034E+02  0.55901499180E+02  0.94710145405E+02  0.41800000000E+01 0. -1.
        -11    1    1    2    0    0  0.47827108971E+02 -0.29517175269E+02  0.80326893861E+02  0.98036247713E+02  0.00000000000E+00 0. -1.
         11    1    1    2    0    0  0.28257650392E+02  0.40485138522E+02  0.21109435194E+03  0.21679106686E+03  0.00000000000E+00 0.  1.
</event>
<event>
 7    1  0.2840156E-009  0.1496775E+03  0.7561462E-02  0.1200870E+00
          1   -1    0    0  501    0  0.00000000000E+00  0.00000000000E+00  0.26959228627E+03  0.26959228627E+03  0.00000000000E+00 0. -1.
         -1   -1    0    0    0  501 -0.00000000000E+00 -0.00000000000E+00 -0.13313316462E+03  0.13313316462E+03  0.00000000000E+00 0.  1.
         25    2    1    2    0    0 -0.53007822455E+02  0.91729804109E+02  0.19243091968E+03  0.25278736176E+03  0.12509038816E+03 0.  0.
          5    1    3    3  502    0  0.41225637020E+02  0.28421039489E+02  0.55475414572E+02  0.74848531417E+02  0.41800000000E+01 0.  1.
         -5    1    3    3    0  502 -0.94233459475E+02  0.63308764620E+02  0.13695550511E+03  0.17793883034E+03  0.41800000000E+01 0.  1.
        -11    1    1    2    0    0  0.11151048167E+02 -0.92964503972E+02 -0.22415323612E+02  0.96276641023E+02  0.00000000000E+00 0.  1.
         11    1    1    2    0    0  0.41856774288E+02  0.12346998631E+01 -0.33556474427E+02  0.53661448113E+02  0.00000000000E+00 0. -1.
</event>
<event>
 7    1  0.2840156E-009  0.1007514E+03  0.7561462E-02  0.1278724E+00
          2   -1    0    0  501    0  0.00000000000E+00  0.00000000000E+00  0.14507130577E+04  0.14507130577E+04  0.00000000000E+00 0. -1.
         -2   -1    0    0    0  501 -0.00000000000E+00 -0.00000000000E+00 -0.91123565488E+01  0.91123565488E+01  0.00000000000E+00 0.  1.
         25    2    1    2    0    0  0.34637470439E+02 -0.26879278648E+01  0.90577141811E+03  0.91502769128E+03  0.12508730806E+03 0.  0.
          5    1    3    3  502    0  0.39595318625E+02  0.42033758573E+02  0.21132859393E+03  0.21911611791E+03  0.41800000000E+01 0. -1.
         -5    1    3    3    0  502 -0.49578481865E+01 -0.44721686438E+02  0.69444282418E+03  0.69591157337E+03  0.41800000000E+01 0. -1.
        -11    1    1    2    0    0 -0.58981303307E+02  0.26230028847E+02  0.34505483400E+03  0.35104080535E+03  0.00000000000E+00 0.  1.
         11    1    1    2    0    0  0.24343832868E+02 -0.23542100983E+02  0.19077444908E+03  0.19375691765E+03  0.00000000000E+00 0. -1.
</event>
<event>
 7    1  0.2840156E-009  0.1368451E+03  0.7561462E-02  0.1217638E+00
          2   -1    0    0  501    0  0.00000000000E+00  0.00000000000E+00  0.17096492500E+03  0.17096492500E+03  0.00000000000E+00 0. -1.
         -2   -1    0    0    0  501 -0.00000000000E+00 -0.00000000000E+00 -0.15914153242E+03  0.15914153242E+03  0.00000000000E+00 0.  1.
         25    2    1    2    0    0 -0.20938261893E+02  0.10762569774E+03 -0.52703439685E+02  0.17449444139E+03  0.12509578689E+03 0.  0.
          5    1    3    3  502    0 -0.18698226630E+02  0.12771910919E+03 -0.13072251785E+02  0.12980813033E+03  0.41800000000E+01 0. -1.
         -5    1    3    3    0  502 -0.22400352632E+01 -0.20093411458E+02 -0.39631187900E+02  0.44686311062E+02  0.41800000000E+01 0. -1.
        -11    1    1    2    0    0  0.37930085569E+02 -0.96234377651E+02  0.79333122951E+02  0.13035908572E+03  0.00000000000E+00 0.  1.
         11    1    1    2    0    0 -0.16991823676E+02 -0.11391320085E+02 -0.14806290691E+02  0.25252930308E+02  0.00000000000E+00 0. -1.
</event>
<event>
 7    1  0.2840156E-009  0.1609449E+03  0.7561462E-02  0.1187634E+00
          3   -1    0    0  501    0  0.00000000000E+00  0.00000000000E+00  0.30212595484E+03  0.30212595484E+03  0.00000000000E+00 0. -1.
         -3   -1    0    0    0  501 -0.00000000000E+00 -0.00000000000E+00 -0.93244366725E+02  0.93244366725E+02  0.00000000000E+00 0.  1.
         25    2    1    2    0    0  0.12249815365E+03 -0.30700628694E+02  0.10332427043E+03  0.20559644144E+03  0.12508263518E+03 0.  0.
          5    1    3    3  502    0  0.98725950324E+02  0.37258243064E+02  0.59741080895E+02  0.12133202005E+03  0.41800000000E+01 0. -1.
         -5    1    3    3    0  502  0.23772203328E+02 -0.67958871759E+02  0.43583189531E+02  0.84264421386E+02  0.41800000000E+01 0. -1.
        -11    1    1    2    0    0 -0.88040208340E+02 -0.12482251179E+02  0.25500074849E+02  0.92504803639E+02  0.00000000000E+00 0.  1.
         11    1    1    2    0    0 -0.34457945313E+02  0.43182879873E+02  0.80057242838E+02  0.97269076485E+02  0.00000000000E+00 0. -1.
</event>
<event>
 7    1  0.2840156E-009  0.1476140E+03  0.7561462E-02  0.1203436E+00
         -1   -1    0    0    0  501 -0.00000000000E+00  0.00000000000E+00  0.11215086242E+03  0.11215086242E+03  0.00000000000E+00 0.  1.
          1   -1    0    0  501    0  0.00000000000E+00 -0.00000000000E+00 -0.29382133554E+03  0.29382133554E+03  0.00000000000E+00 0. -1.
         25    2    1    2    0    0  0.64671808872E+02  0.11383958399E+03 -0.16041240635E+03  0.24190949132E+03  0.12508464389E+03 0.  0.
          5    1    3    3  502    0  0.43156305503E+02  0.56886440166E+02 -0.16587628291E+03  0.18064038145E+03  0.41800000000E+01 0.  1.
         -5    1    3    3    0  502  0.21515503369E+02  0.56953143827E+02  0.54638765663E+01  0.61269109869E+02  0.41800000000E+01 0.  1.
        -11    1    1    2    0    0  0.22648693302E+02 -0.48788121828E+02 -0.74909817847E+01  0.54308000773E+02  0.00000000000E+00 0.  1.
         11    1    1    2    0    0 -0.87320502174E+02 -0.65051462165E+02 -0.13767084998E+02  0.10975470586E+03  0.00000000000E+00 0. -1.
</event>
<event>
 7    1  0.2840156E-009  0.1722874E+03  0.7561462E-02  0.1175483E+00
          1   -1    0    0  501    0  0.00000000000E+00  0.00000000000E+00  0.14542664928E+03  0.14542664928E+03  0.00000000000E+00 0. -1.
         -1   -1    0    0    0  501 -0.00000000000E+00 -0.00000000000E+00 -0.26658784151E+03  0.26658784151E+03  0.00000000000E+00 0.  1.
         25    2    1    2    0    0  0.23388361736E+02  0.15181744934E+03 -0.19756006408E+01  0.19810760934E+03  0.12508864253E+03 0.  0.
          5    1    3    3  502    0 -0.43544629272E+02  0.80178043809E+02 -0.29858869060E+02  0.96092028333E+02  0.41800000000E+01 0. -1.
         -5    1    3    3    0  502  0.66932991008E+02  0.71639405526E+02  0.27883268419E+02  0.10201558100E+03  0.41800000000E+01 0. -1.
        -11    1    1    2    0    0  0.34139174878E+01 -0.39081581136E+02  0.98792768620E+01  0.40455221270E+02  0.00000000000E+00 0. -1.
         11    1    1    2    0    0 -0.26802279224E+02 -0.11273586820E+03 -0.12906486845E+03  0.17345166018E+03  0.00000000000E+00 0.  1.
</event>
<event>
 7    1  0.2840156E-009  0.1081391E+03  0.7561462E-02  0.1264055E+00
          2   -1    0    0  501    0  0.00000000000E+00  0.00000000000E+00  0.16500166025E+03  0.16500166025E+03  0.00000000000E+00 0. -1.
         -2   -1    0    0    0  501 -0.00000000000E+00 -0.00000000000E+00 -0.10535964131E+03  0.10535964131E+03  0.00000000000E+00 0.  1.
         25    2    1    2    0    0  0.30503656561E+02  0.58849914205E+02 -0.15570213903E+01  0.14157394223E+03  0.12508785448E+03 0.  0.
          5    1    3    3  502    0  0.63209536606E+02  0.21993687588E+02 -0.40755290454E+02  0.78470592655E+02  0.41800000000E+01 0.  1.
         -5    1    3    3    0  502 -0.32705880045E+02  0.36856226617E+02  0.39198269064E+02  0.63103349575E+02  0.41800000000E+01 0.  1.
        -11    1    1    2    0    0 -0.95376577617E+01  0.17859120137E+02 -0.95157366296E+01  0.22371060128E+02  0.00000000000E+00 0.  1.
         11    1    1    2    0    0 -0.20965998799E+02 -0.76709034342E+02  0.70714776964E+02  0.10641629920E+03  0.00000000000E+00 0. -1.
</event>
<event>
 7    1  0.2840156E-009  0.1078856E+03  0.7561462E-02  0.1264536E+00
          1   -1    0    0  501    0  0.00000000000E+00  0.00000000000E+00  0.20096777163E+02  0.20096777163E+02  0.00000000000E+00 0. -1.
         -1   -1    0    0    0  501 -0.00000000000E+00 -0.00000000000E+00 -0.64438889560E+03  0.64438889560E+03  0.00000000000E+00 0.  1.
         25    2    1    2    0    0 -0.23065984099E+02 -0.20109504012E+02 -0.39876730668E+03  0.41904563924E+03  0.12508977220E+03 0.  0.
          5    1    3    3  502    0  0.37912584535E+02  0.22916609176E+02 -0.79111994065E+02  0.90767367744E+02  0.41800000000E+01 0. -1.
         -5    1    3    3    0  502 -0.60978568634E+02 -0.43026113188E+02 -0.31965531262E+03  0.32827827149E+03  0.41800000000E+01 0. -1.
        -11    1    1    2    0    0  0.20595080921E+02 -0.35403985878E+02 -0.10566438860E+03  0.11332503074E+03  0.00000000000E+00 0.  1.
         11    1    1    2    0    0  0.24709031779E+01  0.55513489891E+02 -0.11986042315E+03  0.13211500278E+03  0.00000000000E+00 0. -1.
</event>
<event>
 7    1  0.2840156E-009  0.1127554E+03  0.7561462E-02  0.1255551E+00
         -2   -1    0    0    0  501 -0.00000000000E+00  0.00000000000E+00  0.89983987551E+02  0.89983987551E+02  0.00000000000E+00 0.  1.
          2   -1    0    0  501    0  0.00000000000E+00 -0.00000000000E+00 -0.15419994504E+03  0.15419994504E+03  0.00000000000E+00 0. -1.
         25    2    1    2    0    0 -0.29318391234E+02  0.16865055048E+02 -0.70355177217E+02  0.14745474576E+03  0.12509617476E+03 0.  0.
          5    1    3    3  502    0  0.45703516101E+02 -0.14359300063E+02 -0.22937251926E+02  0.53278427231E+02  0.41800000000E+01 0. -1.
         -5    1    3    3    0  502 -0.75021907335E+02  0.31224355111E+02 -0.47417925291E+02  0.94176318526E+02  0.41800000000E+01 0. -1.
        -11    1    1    2    0    0  0.59565809294E+02  0.33732286202E+01  0.84775297349E+01  0.60260541140E+02  0.00000000000E+00 0.  1.
         11    1    1    2    0    0 -0.30247418060E+02 -0.20238283668E+02 -0.23383100073E+01  0.36468645695E+02  0.00000000000E+00 0. -1.
</event>
<event>
 7    1  0.2840156E-009  0.1560950E+03  0.7561462E-02  0.1193177E+00
         -1   -1    0    0    0  501 -0.00000000000E+00  0.00000000000E+00  0.48613785909E+02  0.48613785909E+02  0.00000000000E+00 0.  1.
          1   -1    0    0  501    0  0.00000000000E+00 -0.00000000000E+00 -0.67529681699E+03  0.67529681699E+03  0.00000000000E+00 0. -1.
         25    2    1    2    0    0  0.78717784119E+02 -0.11948829770E+03 -0.32161518726E+03  0.37357492150E+03  0.12509176822E+03 0.  0.
          5    1    3    3  502    0 -0.22019977126E+01 -0.49925376752E+02 -0.22179969613E+03  0.22739826218E+03  0.41800000000E+01 0. -1.
         -5    1    3    3    0  502  0.80919781832E+02 -0.69562920949E+02 -0.99815491129E+02  0.14617665933E+03  0.41800000000E+01 0. -1.
        -11    1    1    2    0    0 -0.58848596073E+02  0.35029334987E+02 -0.62499484802E+02  0.92716757762E+02  0.00000000000E+00 0.  1.
         11    1    1    2    0    0 -0.19869188047E+02  0.84458962714E+02 -0.24256835902E+03  0.25761892363E+03  0.00000000000E+00 0. -1.
</event>
<event>
 7    1  0.2840156E-009  0.1315170E+03  0.7561462E-02  0.1225222E+00
         -1   -1    0    0    0  501 -0.00000000000E+00  0.00000000000E+00  0.26133208131E+02  0.26133208131E+02  0.00000000000E+00 0.  1.
          1   -1    0    0  501    0  0.00000000000E+00 -0.00000000000E+00 -0.81678449552E+03  0.81678449552E+03  0.00000000000E+00 0. -1.
         25    2    1    2    0    0 -0.92776812842E+02 -0.13048329013E+02 -0.48103335755E+03  0.50578500765E+03  0.12509031536E+03 0.  0.
          5    1    3    3  502    0 -0.27416471593E+02  0.45875193538E+02 -0.29641787751E+03  0.30122620537E+03  0.41800000000E+01 0. -1.
         -5    1    3    3    0  502 -0.65360341249E+02 -0.58923522551E+02 -0.18461548004E+03  0.20455880228E+03  0.41800000000E+01 0. -1.
        -11    1    1    2    0    0  0.39221355832E+02  0.44422703600E+02 -0.81791974682E+02  0.10100306169E+03  0.00000000000E+00 0.  1.
         11    1    1    2    0    0  0.53555457010E+02 -0.31374374587E+02 -0.22782595515E+03  0.23612963431E+03  0.00000000000E+00 0. -1.
</event>
<event>
 7    1  0.2840156E-009  0.1774322E+03  0.7561462E-02  0.1170312E+00
          2   -1    0    0  501    0  0.00000000000E+00  0.00000000000E+00  0.59511308242E+03  0.59511308242E+03  0.00000000000E+00 0. -1.
         -2   -1    0    0    0  501 -0.00000000000E+00 -0.00000000000E+00 -0.72563590339E+02  0.72563590339E+02  0.00000000000E+00 0.  1.
         25    2    1    2    0    0  0.14940331222E+03 -0.16512729094E+02  0.12309756770E+03  0.23108253246E+03  0.12510837587E+03 0.  0.
          5    1    3    3  502    0  0.27177764710E+02 -0.53205624891E+02  0.10419261936E+02  0.60790647586E+02  0.41800000000E+01 0.  1.
         -5    1    3    3    0  502  0.12222554751E+03  0.36692895797E+02  0.11267830576E+03  0.17029188488E+03  0.41800000000E+01 0.  1.
        -11    1    1    2    0    0 -0.12244985761E+03  0.42728225765E+02  0.24032808604E+03  0.27308837003E+03  0.00000000000E+00 0.  1.
         11    1    1    2    0    0 -0.26953454610E+02 -0.26215496671E+02  0.15912383835E+03  0.16350577027E+03  0.00000000000E+00 0. -1.
</event>
<event>
 7    1  0.2840156E-009  0.1421783E+03  0.7561462E-02  0.1210428E+00
          1   -1    0    0  501    0  0.00000000000E+00  0.00000000000E+00  0.37086970058E+03  0.37086970058E+03  0.00000000000E+00 0. -1.
         -1   -1    0    0    0  501 -0.00000000000E+00 -0.00000000000E+00 -0.10009171872E+03  0.10009171872E+03  0.00000000000E+00 0.  1.
         25    2    1    2    0    0 -0.36571820930E+02 -0.10894443676E+03  0.27640730725E+03  0.32443032834E+03  0.12509056742E+03 0.  0.
          5    1    3    3  502    0 -0.60281466589E+02 -0.95134892715E+02  0.27435268954E+03  0.29659968591E+03  0.41800000000E+01 0.  1.
         -5    1    3    3    0  502  0.23709645658E+02 -0.13809544044E+02  0.20546177107E+01  0.27830642427E+02  0.41800000000E+01 0.  1.
        -11    1    1    2    0    0 -0.24580218695E+02  0.79507490269E+01 -0.11592369051E+02  0.28315800914E+02  0.00000000000E+00 0.  1.
         11    1    1    2    0    0  0.61152039625E+02  0.10099368773E+03  0.59630436588E+01  0.11821529005E+03  0.00000000000E+00 0. -1.
</event>
<event>
 7    1  0.2840156E-009  0.3155045E+03  0.7561462E-02  0.1077737E+00
          1   -1    0    0  501    0  0.00000000000E+00  0.00000000000E+00  0.45222159475E+03  0.45222159475E+03  0.00000000000E+00 0. -1.
         -1   -1    0    0    0  501 -0.00000000000E+00 -0.00000000000E+00 -0.28343220870E+03  0.28343220870E+03  0.00000000000E+00 0.  1.
         25    2    1    2    0    0 -0.57859273225E+02  0.30387138614E+03  0.23405619302E+03  0.40757283729E+03  0.12509117234E+03 0.  0.
          5    1    3    3  502    0 -0.22176319532E+02  0.16802649997E+03  0.20150363401E+03  0.26333606050E+03  0.41800000000E+01 0. -1.
         -5    1    3    3    0  502 -0.35682953693E+02  0.13584488616E+03  0.32552559008E+02  0.14423677679E+03  0.41800000000E+01 0. -1.
        -11    1    1    2    0    0  0.89971490565E+01 -0.24177724002E+03 -0.40760664804E+02  0.24535405902E+03  0.00000000000E+00 0.  1.
         11    1    1    2    0    0  0.48862124169E+02 -0.62094146112E+02 -0.24506142168E+02  0.82726907132E+02  0.00000000000E+00 0. -1.
</event>
<event>
 7    1  0.2840156E-009  0.2980249E+03  0.7561462E-02  0.1086232E+00
          2   -1    0    0  501    0  0.00000000000E+00  0.00000000000E+00  0.31511057921E+03  0.31511057921E+03  0.00000000000E+00 0. -1.
         -2   -1    0    0    0  501 -0.00000000000E+00 -0.00000000000E+00 -0.29316279120E+03  0.29316279120E+03  0.00000000000E+00 0.  1.
         25    2    1    2    0    0  0.26237660560E+03 -0.10122002644E+03 -0.26479027375E+02  0.30892678413E+03  0.12509053578E+03 0.  0.
          5    1    3    3  502    0  0.26729921536E+03 -0.11153144408E+03 -0.38029654752E+02  0.29215040748E+03  0.41800000000E+01 0. -1.
         -5    1    3    3    0  502 -0.49226097588E+01  0.10311417642E+02  0.11550627377E+02  0.16776376648E+02  0.41800000000E+01 0. -1.
        -11    1    1    2    0    0 -0.18566395091E+03  0.27251945802E+02  0.17954229257E+02  0.18851027973E+03  0.00000000000E+00 0.  1.
         11    1    1    2    0    0 -0.76712654691E+02  0.73968080639E+02  0.30472586125E+02  0.11083630654E+03  0.00000000000E+00 0. -1.
</event>
<event>
 7    1  0.2840156E-009  0.1164433E+03  0.7561462E-02  0.1249083E+00
          1   -1    0    0  501    0  0.00000000000E+00  0.00000000000E+00  0.39081315435E+03  0.39081315435E+03  0.00000000000E+00 0. -1.
         -1   -1    0    0    0  501 -0.00000000000E+00 -0.00000000000E+00 -0.39450599528E+02  0.39450599528E+02  0.00000000000E+00 0.  1.
         25    2    1    2    0    0  0.12474759718E+02  0.55531186747E+02  0.16244140791E+03  0.21277462456E+03  0.12508596054E+03 0.  0.
          5    1    3    3  502    0 -0.47674592382E+02  0.56989864534E+02  0.68540813107E+02  0.10117325180E+03  0.41800000000E+01 0.  1.
         -5    1    3    3    0  502  0.60149352100E+02 -0.14586777876E+01  0.93900594800E+02  0.11160137276E+03  0.41800000000E+01 0.  1.
        -11    1    1    2    0    0  0.31441339418E+02 -0.41473679350E+02  0.54407087364E+02  0.75291135326E+02  0.00000000000E+00 0.  1.
         11    1    1    2    0    0 -0.43916099136E+02 -0.14057507397E+02  0.13451405955E+03  0.14219799399E+03  0.00000000000E+00 0. -1.
</event>
<event>
 7    1  0.2840156E-009  0.1264166E+03  0.7561462E-02  0.1232872E+00
         -1   -1    0    0    0  501 -0.00000000000E+00  0.00000000000E+00  0.82673943088E+02  0.82673943088E+02  0.00000000000E+00 0.  1.
          1   -1    0    0  501    0  0.00000000000E+00 -0.00000000000E+00 -0.23182200618E+03  0.23182200618E+03  0.00000000000E+00 0. -1.
         25    2    1    2    0    0  0.29115375606E+02  0.83039830219E+02 -0.78012895596E+02  0.17169786169E+03  0.12510325867E+03 0.  0.
          5    1    3    3  502    0  0.56369191657E+02  0.88046535053E+02 -0.92940375769E+02  0.13994664680E+03  0.41800000000E+01 0. -1.
         -5    1    3    3    0  502 -0.27253816051E+02 -0.50067048341E+01  0.14927480173E+02  0.31751214889E+02  0.41800000000E+01 0. -1.
        -11    1    1    2    0    0 -0.19107693616E+02  0.13326956742E+02 -0.28865758082E+02  0.37093715384E+02  0.00000000000E+00 0. -1.
         11    1    1    2    0    0 -0.10007681990E+02 -0.96366786961E+02 -0.42269409410E+02  0.10570437219E+03  0.00000000000E+00 0.  1.
</event>
<event>
 7    1  0.2840156E-009  0.2740373E+03  0.7561462E-02  0.1098991E+00
         -1   -1    0    0    0  501 -0.00000000000E+00  0.00000000000E+00  0.66386975810E+02  0.66386975810E+02  0.00000000000E+00 0.  1.
          1   -1    0    0  501    0  0.00000000000E+00 -0.00000000000E+00 -0.12253564333E+04  0.12253564333E+04  0.00000000000E+00 0. -1.
         25    2    1    2    0    0  0.16425800726E+03  0.19543742502E+03 -0.73821073071E+03  0.79106055485E+03  0.12508092761E+03 0.  0.
          5    1    3    3  502    0  0.17364237420E+03  0.13977098414E+03 -0.63979162379E+03  0.67752372387E+03  0.41800000000E+01 0.  1.
         -5    1    3    3    0  502 -0.93843669384E+01  0.55666440880E+02 -0.98419106922E+02  0.11353683099E+03  0.41800000000E+01 0.  1.
        -11    1    1    2    0    0 -0.16015342102E+03 -0.13937005257E+03 -0.30048149740E+03  0.36791610470E+03  0.00000000000E+00 0.  1.
         11    1    1    2    0    0 -0.41045862416E+01 -0.56067372448E+02 -0.12027722936E+03  0.13276674954E+03  0.00000000000E+00 0. -1.
</event>
<event>
 7    1  0.2840156E-009  0.1083213E+03  0.7561462E-02  0.1263711E+00
          1   -1    0    0  501    0  0.00000000000E+00  0.00000000000E+00  0.21127421450E+02  0.21127421450E+02  0.00000000000E+00 0. -1.
         -1   -1    0    0    0  501 -0.00000000000E+00 -0.00000000000E+00 -0.55684876816E+03  0.55684876816E+03  0.00000000000E+00 0.  1.
         25    2    1    2    0    0  0.14867870287E+02 -0.34266620581E+01 -0.32277596047E+03  0.34650252402E+03  0.12508750105E+03 0.  0.
          5    1    3    3  502    0  0.51834102883E+02  0.42319154878E+02 -0.17012412252E+03  0.18285889246E+03  0.41800000000E+01 0. -1.
         -5    1    3    3    0  502 -0.36966232596E+02 -0.45745816936E+02 -0.15265183795E+03  0.16364363156E+03  0.41800000000E+01 0. -1.
        -11    1    1    2    0    0  0.14520022079E+02  0.40674357058E+02 -0.10716655545E+03  0.11554178884E+03  0.00000000000E+00 0. -1.
         11    1    1    2    0    0 -0.29387892366E+02 -0.37247694999E+02 -0.10577883079E+03  0.11593187674E+03  0.00000000000E+00 0.  1.
</event>
<event>
 7    1  0.2840156E-009  0.1643166E+03  0.7561462E-02  0.1183908E+00
         -2   -1    0    0    0  501 -0.00000000000E+00  0.00000000000E+00  0.42123070506E+02  0.42123070506E+02  0.00000000000E+00 0.  1.
          2   -1    0    0  501    0  0.00000000000E+00 -0.00000000000E+00 -0.11874474295E+04  0.11874474295E+04  0.00000000000E+00 0. -1.
         25    2    1    2    0    0  0.10919023568E+03 -0.81441847041E+02 -0.97853569349E+03  0.99585986962E+03  0.12509793947E+03 0.  0.
          5    1    3    3  502    0  0.76221532430E+02 -0.11444767950E+03 -0.76165594919E+03  0.77398013585E+03  0.41800000000E+01 0. -1.
         -5    1    3    3    0  502  0.32968703255E+02  0.33005832454E+02 -0.21687974430E+03  0.22187973377E+03  0.41800000000E+01 0. -1.
        -11    1    1    2    0    0 -0.10296915109E+03  0.54358444887E+02 -0.16966241993E+03  0.20577371879E+03  0.00000000000E+00 0. -1.
         11    1    1    2    0    0 -0.62210845921E+01  0.27083402154E+02  0.28737544194E+01  0.27936911608E+02  0.00000000000E+00 0.  1.
</event>
<event>
 7    1  0.2840156E-009  0.1231460E+03  0.7561462E-02  0.1237995E+00
         -1   -1    0    0    0  501 -0.00000000000E+00  0.00000000000E+00  0.72112591895E+02  0.72112591895E+02  0.00000000000E+00 0.  1.
          1   -1    0    0  501    0  0.00000000000E+00 -0.00000000000E+00 -0.33995353783E+03  0.33995353783E+03  0.00000000000E+00 0. -1.
         25    2    1    2    0    0 -0.29264110481E+02 -0.91826269878E+02 -0.69469545597E+02  0.17251621762E+03  0.12508947028E+03 0.  0.
          5    1    3    3  502    0 -0.48327363765E+02 -0.67648907477E+02 -0.99209142436E+02  0.12950611999E+03  0.41800000000E+01 0. -1.
         -5    1    3    3    0  502  0.19063253284E+02 -0.24177362400E+02  0.29739596839E+02  0.43010097635E+02  0.41800000000E+01 0. -1.
        -11    1    1    2    0    0 -0.20375424588E+02  0.77758115369E+02 -0.98482621917E+02  0.12712320501E+03  0.00000000000E+00 0.  1.
         11    1    1    2    0    0  0.49639535069E+02  0.14068154509E+02 -0.99888778421E+02  0.11242670709E+03  0.00000000000E+00 0. -1.
</event>
<event>
 7    1  0.2840156E-009  0.1549124E+03  0.7561462E-02  0.1194563E+00
         -1   -1    0    0    0  501 -0.00000000000E+00  0.00000000000E+00  0.56551500420E+03  0.56551500420E+03  0.00000000000E+00 0.  1.
          1   -1    0    0  501    0  0.00000000000E+00 -0.00000000000E+00 -0.88011186646E+02  0.88011186646E+02  0.00000000000E+00 0. -1.
         25    2    1    2    0    0 -0.12110971486E+03 -0.42341676789E+02  0.32984937462E+02  0.18219745260E+03  0.12509006759E+03 0.  0.
          5    1    3    3  502    0  0.13066791597E+02 -0.15800272253E+02 -0.25839123246E+02  0.33249396025E+02  0.41800000000E+01 0. -1.
         -5    1    3    3    0  502 -0.13417650646E+03 -0.26541404537E+02  0.58824060707E+02  0.14894805658E+03  0.41800000000E+01 0. -1.
        -11    1    1    2    0    0 -0.54914375234E+01  0.23416098923E+02  0.36590261412E+02  0.43787176263E+02  0.00000000000E+00 0. -1.
         11    1    1    2    0    0  0.12660115238E+03  0.18925577866E+02  0.40792861868E+03  0.42754156198E+03  0.00000000000E+00 0.  1.
</event>
<event>
 7    1  0.2840156E-009  0.1174309E+03  0.7561462E-02  0.1247396E+00
          2   -1    0    0  501    0  0.00000000000E+00  0.00000000000E+00  0.10393889710E+04  0.10393889710E+04  0.00000000000E+00 0. -1.
         -2   -1    0    0    0  501 -0.00000000000E+00 -0.00000000000E+00 -0.24452956430E+02  0.24452956430E+02  0.00000000000E+00 0.  1.
         25    2    1    2    0    0  0.80656324590E+02 -0.44620599943E+02  0.76734457719E+03  0.78291879601E+03  0.12509076850E+03 0.  0.
          5    1    3    3  502    0  0.28592333721E+02  0.24467824617E+02  0.64766822213E+02  0.75022727547E+02  0.41800000000E+01 0.  1.
         -5    1    3    3    0  502  0.52063990869E+02 -0.69088424560E+02  0.70257775498E+03  0.70789606846E+03  0.41800000000E+01 0.  1.
        -11    1    1    2    0    0 -0.13779591771E+02 -0.15302232360E+02  0.35632569962E+01  0.20898140229E+02  0.00000000000E+00 0.  1.
         11    1    1    2    0    0 -0.66876732819E+02  0.59922832303E+02  0.24402818038E+03  0.26002499119E+03  0.00000000000E+00 0. -1.
</event>
<event>
 7    1  0.2840156E-009  0.9761836E+02  0.7561462E-02  0.1285385E+00
         -4   -1    0    0    0  501 -0.00000000000E+00  0.00000000000E+00  0.31063705551E+02  0.31063705551E+02  0.00000000000E+00 0.  1.
          4   -1    0    0  501    0  0.00000000000E+00 -0.00000000000E+00 -0.58294984342E+03  0.58294984342E+03  0.00000000000E+00 0. -1.
         25    2    1    2    0    0 -0.18868645324E+02 -0.24794122665E+02 -0.14365494578E+03  0.19301560963E+03  0.12508999888E+03 0.  0.
          5    1    3    3  502    0 -0.14173653968E+02 -0.57428290317E+02 -0.16446461337E+02  0.61537464085E+02  0.41800000000E+01 0. -1.
         -5    1    3    3    0  502 -0.46949913559E+01  0.32634167652E+02 -0.12720848444E+03  0.13147814554E+03  0.41800000000E+01 0. -1.
        -11    1    1    2    0    0  0.37178772254E+02  0.55589274027E+02 -0.27770481553E+03  0.28564382202E+03  0.00000000000E+00 0.  1.
         11    1    1    2    0    0 -0.18310126930E+02 -0.30795151361E+02 -0.13052637657E+03  0.13535411732E+03  0.00000000000E+00 0. -1.
</event>
<event>
 7    1  0.2840156E-009  0.1116969E+03  0.7561462E-02  0.1257459E+00
          1   -1    0    0  501    0  0.00000000000E+00  0.00000000000E+00  0.57254676576E+02  0.57254676576E+02  0.00000000000E+00 0. -1.
         -1   -1    0    0    0  501 -0.00000000000E+00 -0.00000000000E+00 -0.48755142490E+03  0.48755142490E+03  0.00000000000E+00 0.  1.
         25    2    1    2    0    0 -0.72552661928E-01 -0.94999156171E+02 -0.92119540058E+02  0.18209531752E+03  0.12509136686E+03 0.  0.
          5    1    3    3  502    0 -0.33013284947E+02 -0.49187236574E+02  0.14733612367E+02  0.61186705730E+02  0.41800000000E+01 0.  1.
         -5    1    3    3    0  502  0.32940732285E+02 -0.45811919597E+02 -0.10685315242E+03  0.12090861178E+03  0.41800000000E+01 0.  1.
        -11    1    1    2    0    0 -0.23831334576E+02  0.30941887137E+02 -0.36753001547E+02  0.53629432311E+02  0.00000000000E+00 0. -1.
         11    1    1    2    0    0  0.23903887238E+02  0.64057269034E+02 -0.30142420672E+03  0.30908135165E+03  0.00000000000E+00 0.  1.
</event>
<event>
 7    1  0.2840156E-009  0.1783886E+03  0.7561462E-02  0.1169372E+00
          2   -1    0    0  501    0  0.00000000000E+00  0.00000000000E+00  0.98323669243E+03  0.98323669243E+03  0.00000000000E+00 0. -1.
         -2   -1    0    0    0  501 -0.00000000000E+00 -0.00000000000E+00 -0.50253481014E+02  0.50253481014E+02  0.00000000000E+00 0.  1.
         25    2    1    2    0    0 -0.13504928759E+03  0.10966638206E+03  0.68498441473E+03  0.71771560702E+03  0.12508804382E+03 0.  0.
          5    1    3    3  502    0 -0.90865586061E+02  0.70339662261E+02  0.21330645916E+03  0.24232486611E+03  0.41800000000E+01 0.  1.
         -5    1    3    3    0  502 -0.44183701531E+02  0.39326719799E+02  0.47167795557E+03  0.47539074091E+03  0.41800000000E+01 0.  1.
        -11    1    1    2    0    0  0.77992919425E+02 -0.96246637690E+02  0.21598166593E+03  0.24898672809E+03  0.00000000000E+00 0.  1.
         11    1    1    2    0    0  0.57056368167E+02 -0.13419744370E+02  0.32017130755E+02  0.66787838332E+02  0.00000000000E+00 0. -1.
</event>
<event>
 7    1  0.2840156E-009  0.1309159E+03  0.7561462E-02  0.1226103E+00
         -3   -1    0    0    0  501 -0.00000000000E+00  0.00000000000E+00  0.38521177658E+03  0.38521177658E+03  0.00000000000E+00 0.  1.
          3   -1    0    0  501    0  0.00000000000E+00 -0.00000000000E+00 -0.78610910619E+02  0.78610910619E+02  0.00000000000E+00 0. -1.
         25    2    1    2    0    0 -0.24633485348E+02  0.11719351459E+03  0.26455859135E+03  0.31619138021E+03  0.12507842419E+03 0.  0.
          5    1    3    3  502    0 -0.50029064772E+01  0.93287463451E+02  0.64236839540E+02  0.11345229775E+03  0.41800000000E+01 0.  1.
         -5    1    3    3    0  502 -0.19630578871E+02  0.23906051139E+02  0.20032175181E+03  0.20273908246E+03  0.41800000000E+01 0.  1.
        -11    1    1    2    0    0  0.47878173651E+02 -0.80756131592E+02  0.11228535998E+02  0.94551321104E+02  0.00000000000E+00 0.  1.
         11    1    1    2    0    0 -0.23244688303E+02 -0.36437382999E+02  0.30813738603E+02  0.53079985878E+02  0.00000000000E+00 0. -1.
</event>
<event>
 7    1  0.2840156E-009  0.1188356E+03  0.7561462E-02  0.1245030E+00
          2   -1    0    0  501    0  0.00000000000E+00  0.00000000000E+00  0.14379276898E+03  0.14379276898E+03  0.00000000000E+00 0. -1.
         -2   -1    0    0    0  501 -0.00000000000E+00 -0.00000000000E+00 -0.29120956155E+03  0.29120956155E+03  0.00000000000E+00 0.  1.
         25    2    1    2    0    0  0.54133011066E+02  0.54382666050E+02 -0.24053447962E+03  0.28176654399E+03  0.12509073575E+03 0.  0.
          5    1    3    3  502    0  0.37943259335E+01 -0.29234065836E+02 -0.13381203040E+03  0.13708449728E+03  0.41800000000E+01 0.  1.
         -5    1    3    3    0  502  0.50338685133E+02  0.83616731886E+02 -0.10672244922E+03  0.14468204671E+03  0.41800000000E+01 0.  1.
        -11    1    1    2    0    0  0.17595574634E+02 -0.29380800235E+02  0.62636082942E+02  0.71387075549E+02  0.00000000000E+00 0. -1.
         11    1    1    2    0    0 -0.71728585700E+02 -0.25001865816E+02  0.30481604111E+02  0.81848710986E+02  0.00000000000E+00 0.  1.
</event>
<event>
 7    1  0.2840156E-009  0.1140808E+03  0.7561462E-02  0.1253194E+00
          1   -1    0    0  501    0  0.00000000000E+00  0.00000000000E+00  0.19793503318E+03  0.19793503318E+03  0.00000000000E+00 0. -1.
         -1   -1    0    0    0  501 -0.00000000000E+00 -0.00000000000E+00 -0.12929903209E+03  0.12929903209E+03  0.00000000000E+00 0.  1.
         25    2    1    2    0    0  0.89872567601E+02  0.62195280187E+02  0.81875353361E+02  0.18519307566E+03  0.12509024942E+03 0.  0.
          5    1    3    3  502    0  0.24355522791E+02 -0.46764455078E+01  0.87764549313E+02  0.91297038009E+02  0.41800000000E+01 0.  1.
         -5    1    3    3    0  502  0.65517044809E+02  0.66871725695E+02 -0.58891959526E+01  0.93896037653E+02  0.41800000000E+01 0.  1.
        -11    1    1    2    0    0 -0.10200077103E+02 -0.74860528594E+01 -0.39838742364E+02  0.41799616667E+02  0.00000000000E+00 0.  1.
         11    1    1    2    0    0 -0.79672490498E+02 -0.54709227328E+02  0.26599390088E+02  0.10024137295E+03  0.00000000000E+00 0. -1.
</event>
<event>
 7    1  0.2840156E-009  0.2421943E+03  0.7561462E-02  0.1118340E+00
          2   -1    0    0  501    0  0.00000000000E+00  0.00000000000E+00  0.24052681027E+03  0.24052681027E+03  0.00000000000E+00 0. -1.
         -2   -1    0    0    0  501 -0.00000000000E+00 -0.00000000000E+00 -0.30446294716E+03  0.30446294716E+03  0.00000000000E+00 0.  1.
         25    2    1    2    0    0 -0.16959300388E+03 -0.16242466321E+03 -0.11202466576E+03  0.28868678985E+03  0.12508788395E+03 0.  0.
          5    1    3    3  502    0 -0.12038028220E+03 -0.57288006727E+02 -0.10938198385E+03  0.17249701113E+03  0.41800000000E+01 0. -1.
         -5    1    3    3    0  502 -0.49212721682E+02 -0.10513665649E+03 -0.26426819119E+01  0.11618977872E+03  0.41800000000E+01 0. -1.
        -11    1    1    2    0    0  0.13719745911E+03  0.12971321196E+03 -0.12614482002E+01  0.18881274161E+03  0.00000000000E+00 0.  1.
         11    1    1    2    0    0  0.32395544772E+02  0.32711451252E+02  0.49349977069E+02  0.67490225965E+02  0.00000000000E+00 0. -1.
</event>
<event>
 7    1  0.2840156E-009  0.1126856E+03  0.7561462E-02  0.1255676E+00
         -1   -1    0    0    0  501 -0.00000000000E+00  0.00000000000E+00  0.77700441951E+02  0.77700441951E+02  0.00000000000E+00 0.  1.
          1   -1    0    0  501    0  0.00000000000E+00 -0.00000000000E+00 -0.19191848478E+03  0.19191848478E+03  0.00000000000E+00 0. -1.
         25    2    1    2    0    0 -0.94633470279E+01  0.33374564282E+02 -0.11493290323E+03  0.17337895071E+03  0.12508905558E+03 0.  0.
          5    1    3    3  502    0 -0.55453234795E+02  0.55527697812E+02 -0.68810832798E+02  0.10445472504E+03  0.41800000000E+01 0.  1.
         -5    1    3    3    0  502  0.45989887767E+02 -0.22153133531E+02 -0.46122070433E+02  0.68924225662E+02  0.41800000000E+01 0.  1.
        -11    1    1    2    0    0  0.17120812986E+02 -0.62835709262E+02  0.57760907936E+01  0.65382045093E+02  0.00000000000E+00 0.  1.
         11    1    1    2    0    0 -0.76574659583E+01  0.29461144980E+02 -0.50612303926E+01  0.30857930934E+02  0.00000000000E+00 0. -1.
</event>
<event>
 7    1  0.2840156E-009  0.1160993E+03  0.7561462E-02  0.1249674E+00
         -2   -1    0    0    0  501 -0.00000000000E+00  0.00000000000E+00  0.14310597259E+03  0.14310597259E+03  0.00000000000E+00 0.  1.
          2   -1    0    0  501    0  0.00000000000E+00 -0.00000000000E+00 -0.17824653547E+03  0.17824653547E+03  0.00000000000E+00 0. -1.
         25    2    1    2    0    0  0.10718436739E+03 -0.19352203121E+02 -0.56139953568E+02  0.17510801936E+03  0.12509247651E+03 0.  0.
          5    1    3    3  502    0  0.65311554350E+02 -0.12864353438E+02  0.34407328650E+02  0.75049499570E+02  0.41800000000E+01 0. -1.
         -5    1    3    3    0  502  0.41872813039E+02 -0.64878496825E+01 -0.90547282218E+02  0.10005851979E+03  0.41800000000E+01 0. -1.
        -11    1    1    2    0    0 -0.41929108990E+02 -0.20279265488E+02 -0.29107480174E+02  0.54923075219E+02  0.00000000000E+00 0.  1.
         11    1    1    2    0    0 -0.65255258399E+02  0.39631468609E+02  0.50106870858E+02  0.91321413480E+02  0.00000000000E+00 0. -1.
</event>
<event>
 7    1  0.2840156E-009  0.1202344E+03  0.7561462E-02  0.1242711E+00
         -1   -1    0    0    0  501 -0.00000000000E+00  0.00000000000E+00  0.20948575482E+03  0.20948575482E+03  0.00000000000E+00 0.  1.
          1   -1    0    0  501    0  0.00000000000E+00 -0.00000000000E+00 -0.10936853091E+03  0.10936853091E+03  0.00000000000E+00 0. -1.
         25    2    1    2    0    0  0.67156202996E+02  0.66625382268E+02  0.45675263496E+01  0.15689438204E+03  0.12508432219E+03 0.  0.
          5    1    3    3  502    0  0.87903974050E+02  0.80942978589E+02 -0.20254096044E+02  0.12127066934E+03  0.41800000000E+01 0.  1.
         -5    1    3    3    0  502 -0.20747771054E+02 -0.14317596321E+02  0.24821622394E+02  0.35623712698E+02  0.41800000000E+01 0.  1.
        -11    1    1    2    0    0 -0.38665441333E+02 -0.29955122099E+02  0.10384516659E+03  0.11478738745E+03  0.00000000000E+00 0.  1.
         11    1    1    2    0    0 -0.28490761662E+02 -0.36670260170E+02 -0.82954690383E+01  0.47172516231E+02  0.00000000000E+00 0. -1.
</event>
<event>
 7    1  0.2840156E-009  0.1515526E+03  0.7561462E-02  0.1198578E+00
          1   -1    0    0  501    0  0.00000000000E+00  0.00000000000E+00  0.43339187237E+03  0.43339187237E+03  0.00000000000E+00 0. -1.
         -1   -1    0    0    0  501 -0.00000000000E+00 -0.00000000000E+00 -0.77362166971E+02  0.77362166971E+02  0.00000000000E+00 0.  1.
         25    2    1    2    0    0  0.54353268242E+02  0.94748960570E+02  0.49346012025E+02  0.17324527618E+03  0.12508898240E+03 0.  0.
          5    1    3    3  502    0  0.94892828578E+02  0.63140693119E+02  0.39751515531E+02  0.12078514573E+03  0.41800000000E+01 0. -1.
         -5    1    3    3    0  502 -0.40539560336E+02  0.31608267451E+02  0.95944964940E+01  0.52460130447E+02  0.41800000000E+01 0. -1.
        -11    1    1    2    0    0 -0.41501090604E+02 -0.10997696484E+03  0.23023993780E+03  0.25851054578E+03  0.00000000000E+00 0. -1.
         11    1    1    2    0    0 -0.12852177638E+02  0.15228004274E+02  0.76443755570E+02  0.78998217384E+02  0.00000000000E+00 0.  1.
</event>
<event>
 7    1  0.3478621E-009  0.1347828E+03  0.7561462E-02  0.1220527E+00
         -1   -1    0    0    0  501 -0.00000000000E+00  0.00000000000E+00  0.31778803730E+03  0.31778803730E+03  0.00000000000E+00 0.  1.
          1   -1    0    0  501    0  0.00000000000E+00 -0.00000000000E+00 -0.65864835799E+02  0.65864835799E+02  0.00000000000E+00 0. -1.
         25    2    1    2    0    0 -0.22017346298E+02  0.91087468896E+02  0.11301086362E+03  0.19287495715E+03  0.12509038041E+03 0.  0.
          5    1    3    3  502    0 -0.42429782513E+02 -0.10348431998E+02  0.65756081862E+02  0.79048789939E+02  0.41800000000E+01 0.  1.
         -5    1    3    3    0  502  0.20412436216E+02  0.10143590089E+03  0.47254781754E+02  0.11382616721E+03  0.41800000000E+01 0.  1.
        -11    1    1    2    0    0  0.43660994537E+02 -0.20361989577E+02  0.90066048063E+02  0.10214101075E+03  0.00000000000E+00 0.  1.
         11    1    1    2    0    0 -0.21643648240E+02 -0.70725479319E+02  0.48846289818E+02  0.88636905198E+02  0.00000000000E+00 0. -1.
</event>
<event>
 7    1  0.2840156E-009  0.9333332E+02  0.7561462E-02  0.1294975E+00
          1   -1    0    0  501    0  0.00000000000E+00  0.00000000000E+00  0.83235283680E+03  0.83235283680E+03  0.00000000000E+00 0. -1.
         -1   -1    0    0    0  501 -0.00000000000E+00 -0.00000000000E+00 -0.20209696642E+02  0.20209696642E+02  0.00000000000E+00 0.  1.
         25    2    1    2    0    0  0.12294005788E+02  0.69945906763E+02  0.47300995725E+03  0.49439852722E+03  0.12509161288E+03 0.  0.
          5    1    3    3  502    0  0.40973099295E+01  0.17493655905E+02  0.41591306443E+03  0.41632194935E+03  0.41800000000E+01 0.  1.
         -5    1    3    3    0  502  0.81966958586E+01  0.52452250859E+02  0.57096892819E+02  0.78076577875E+02  0.41800000000E+01 0.  1.
        -11    1    1    2    0    0 -0.48085104722E+02 -0.16886088088E+02  0.13918600074E+03  0.14822300789E+03  0.00000000000E+00 0. -1.
         11    1    1    2    0    0  0.35791098933E+02 -0.53059818675E+02  0.19994718218E+03  0.20994099833E+03  0.00000000000E+00 0.  1.
</event>
<event>
 7    1  0.2840156E-009  0.1036782E+03  0.7561462E-02  0.1272746E+00
         -1   -1    0    0    0  501 -0.00000000000E+00  0.00000000000E+00  0.18337193685E+02  0.18337193685E+02  0.00000000000E+00 0.  1.
          1   -1    0    0  501    0  0.00000000000E+00 -0.00000000000E+00 -0.69724952672E+03  0.69724952672E+03  0.00000000000E+00 0. -1.
         25    2    1    2    0    0 -0.71057939192E+01 -0.30559215664E+01 -0.49045213926E+03  0.50621231941E+03  0.12509108863E+03 0.  0.
          5    1    3    3  502    0  0.54228902895E+02  0.21801013522E+02 -0.25088504858E+03  0.25763702782E+03  0.41800000000E+01 0.  1.
         -5    1    3    3    0  502 -0.61334696814E+02 -0.24856935089E+02 -0.23956709068E+03  0.24857529160E+03  0.41800000000E+01 0.  1.
        -11    1    1    2    0    0 -0.12670128590E+02  0.39227761115E+02 -0.49443638858E+02  0.64374085035E+02  0.00000000000E+00 0.  1.
         11    1    1    2    0    0  0.19775922509E+02 -0.36171839549E+02 -0.13901655492E+03  0.14500031596E+03  0.00000000000E+00 0. -1.
</event>
<event>
 7    1  0.2840156E-009  0.1159418E+03  0.7561462E-02  0.1249946E+00
         -1   -1    0    0    0  501 -0.00000000000E+00  0.00000000000E+00  0.54379623401E+03  0.54379623401E+03  0.00000000000E+00 0.  1.
          1   -1    0    0  501    0  0.00000000000E+00 -0.00000000000E+00 -0.28247818529E+02  0.28247818529E+02  0.00000000000E+00 0. -1.
         25    2    1    2    0    0 -0.21357900400E+02  0.40433448693E+02  0.38505593619E+03  0.40743803501E+03  0.12508658879E+03 0.  0.
          5    1    3    3  502    0  0.21970859224E+02  0.74572767651E+02  0.22732800009E+03  0.24029005047E+03  0.41800000000E+01 0.  1.
         -5    1    3    3    0  502 -0.43328759625E+02 -0.34139318958E+02  0.15772793610E+03  0.16714798454E+03  0.41800000000E+01 0.  1.
        -11    1    1    2    0    0 -0.24841979082E+02 -0.45895396112E+02  0.54142681622E+02  0.75199343629E+02  0.00000000000E+00 0.  1.
         11    1    1    2    0    0  0.46199879482E+02  0.54619474185E+01  0.76349797674E+02  0.89406673904E+02  0.00000000000E+00 0. -1.
</event>
<event>
 7    1  0.2840156E-009  0.1539398E+03  0.7561462E-02  0.1195714E+00
          4   -1    0    0  501    0  0.00000000000E+00  0.00000000000E+00  0.15274341537E+03  0.15274341537E+03  0.00000000000E+00 0. -1.
         -4   -1    0    0    0  501 -0.00000000000E+00 -0.00000000000E+00 -0.22964060921E+03  0.22964060921E+03  0.00000000000E+00 0.  1.
         25    2    1    2    0    0  0.29920373428E+02  0.13207370613E+03 -0.11174431249E+03  0.21557628628E+03  0.12509057212E+03 0.  0.
          5    1    3    3  502    0  0.23835453677E+02 -0.37033994275E+01  0.15804784904E+02  0.29139451696E+02  0.41800000000E+01 0.  1.
         -5    1    3    3    0  502  0.60849197516E+01  0.13577710556E+03 -0.12754909740E+03  0.18643683458E+03  0.41800000000E+01 0.  1.
        -11    1    1    2    0    0  0.81637271988E+01 -0.91161861889E+02  0.55708300110E+02  0.10714731077E+03  0.00000000000E+00 0.  1.
         11    1    1    2    0    0 -0.38084100627E+02 -0.40911844245E+02 -0.20861181455E+02  0.59660427519E+02  0.00000000000E+00 0. -1.
</event>
<event>
 7    1  0.2840156E-009  0.1251844E+03  0.7561462E-02  0.1234781E+00
         -2   -1    0    0    0  501 -0.00000000000E+00  0.00000000000E+00  0.22038032576E+03  0.22038032576E+03  0.00000000000E+00 0.  1.
          2   -1    0    0  501    0  0.00000000000E+00 -0.00000000000E+00 -0.12280317935E+03  0.12280317935E+03  0.00000000000E+00 0. -1.
         25    2    1    2    0    0  0.25770498081E+02 -0.94796978026E+02  0.12991652439E+03  0.20537056489E+03  0.12509268564E+03 0.  0.
          5    1    3    3  502    0  0.17482066163E+02 -0.10625877219E+03  0.41103085826E+02  0.11534073595E+03  0.41800000000E+01 0. -1.
         -5    1    3    3    0  502  0.82884319176E+01  0.11461794168E+02  0.88813438566E+02  0.90029828941E+02  0.41800000000E+01 0. -1.
        -11    1    1    2    0    0 -0.47761581622E+02  0.94470302352E+02 -0.41877896127E+02  0.11384008472E+03  0.00000000000E+00 0. -1.
         11    1    1    2    0    0  0.21991083541E+02  0.32667567390E+00  0.95385181371E+01  0.23972855494E+02  0.00000000000E+00 0.  1.
</event>
<event>
 7    1  0.2840156E-009  0.2614938E+03  0.7561462E-02  0.1106249E+00
          1   -1    0    0  501    0  0.00000000000E+00  0.00000000000E+00  0.87279799870E+03  0.87279799870E+03  0.00000000000E+00 0. -1.
         -1   -1    0    0    0  501 -0.00000000000E+00 -0.00000000000E+00 -0.82385957243E+02  0.82385957243E+02  0.00000000000E+00 0.  1.
         25    2    1    2    0    0  0.22053109186E+03 -0.10375979891E+03  0.43627448290E+03  0.51515513254E+03  0.12509727338E+03 0.  0.
          5    1    3    3  502    0  0.22285063950E+02 -0.59039014319E+02  0.58429011347E+02  0.86102561251E+02  0.41800000000E+01 0. -1.
         -5    1    3    3    0  502  0.19824602791E+03 -0.44720784587E+02  0.37784547156E+03  0.42905257129E+03  0.41800000000E+01 0. -1.
        -11    1    1    2    0    0 -0.90149684053E+02  0.49316693093E+00  0.86609655559E+02  0.12501376398E+03  0.00000000000E+00 0.  1.
         11    1    1    2    0    0 -0.13038140781E+03  0.10326663198E+03  0.26752790300E+03  0.31501505942E+03  0.00000000000E+00 0. -1.
</event>
<event>
 7    1  0.2840156E-009  0.1559469E+03  0.7561462E-02  0.1193350E+00
          2   -1    0    0  501    0  0.00000000000E+00  0.00000000000E+00  0.20256369191E+04  0.20256369191E+04  0.00000000000E+00 0. -1.
         -2   -1    0    0    0  501 -0.00000000000E+00 -0.00000000000E+00 -0.17435629921E+02  0.17435629921E+02  0.00000000000E+00 0.  1.
         25    2    1    2    0    0 -0.44655994252E+02 -0.12285093538E+03  0.14903111609E+04  0.15012531862E+04  0.12508901928E+03 0.  0.
          5    1    3    3  502    0 -0.39159817784E+02 -0.68881069431E+01  0.13044806381E+03  0.13643719103E+03  0.41800000000E+01 0.  1.
         -5    1    3    3    0  502 -0.54961764681E+01 -0.11596282844E+03  0.13598630971E+04  0.13648159952E+04  0.41800000000E+01 0.  1.
        -11    1    1    2    0    0 -0.69311500093E+01 -0.10603208039E+02  0.19139335470E+02  0.22951754256E+02  0.00000000000E+00 0.  1.
         11    1    1    2    0    0  0.51587144262E+02  0.13345414342E+03  0.49875079282E+03  0.51886760854E+03  0.00000000000E+00 0. -1.
</event>
<event>
 7    1  0.2840156E-009  0.1287056E+03  0.7561462E-02  0.1229389E+00
         -2   -1    0    0    0  501 -0.00000000000E+00  0.00000000000E+00  0.19979453017E+02  0.19979453017E+02  0.00000000000E+00 0.  1.
          2   -1    0    0  501    0  0.00000000000E+00 -0.00000000000E+00 -0.95548614533E+03  0.95548614533E+03  0.00000000000E+00 0. -1.
         25    2    1    2    0    0  0.28817357872E+02  0.76089573688E+02 -0.61430031760E+03  0.63216542416E+03  0.12509268546E+03 0.  0.
          5    1    3    3  502    0  0.49409329287E+02 -0.17898352071E+02 -0.23320346433E+03  0.23908776841E+03  0.41800000000E+01 0. -1.
         -5    1    3    3    0  502 -0.20591971416E+02  0.93987925758E+02 -0.38109685327E+03  0.39307765574E+03  0.41800000000E+01 0. -1.
        -11    1    1    2    0    0 -0.45128740039E+02 -0.18918788005E+02 -0.22457595506E+03  0.22984534650E+03  0.00000000000E+00 0. -1.
         11    1    1    2    0    0  0.16311382167E+02 -0.57170785682E+02 -0.96630419654E+02  0.11345482769E+03  0.00000000000E+00 0.  1.
</event>
<event>
 7    1  0.5761813E-009  0.1352120E+03  0.7561462E-02  0.1219921E+00
         -1   -1    0    0    0  501 -0.00000000000E+00  0.00000000000E+00  0.13202584053E+02  0.13202584053E+02  0.00000000000E+00 0.  1.
          1   -1    0    0  501    0  0.00000000000E+00 -0.00000000000E+00 -0.14223595794E+04  0.14223595794E+04  0.00000000000E+00 0. -1.
         25    2    1    2    0    0 -0.68823233308E+02  0.47257960815E+02 -0.80825894896E+03  0.82213226505E+03  0.12509588468E+03 0.  0.
          5    1    3    3  502    0 -0.10529467432E+02  0.79554172613E+02 -0.52468749192E+03  0.53080521159E+03  0.41800000000E+01 0. -1.
         -5    1    3    3    0  502 -0.58293765876E+02 -0.32296211798E+02 -0.28357145703E+03  0.29132705347E+03  0.41800000000E+01 0. -1.
        -11    1    1    2    0    0  0.65690892490E+02  0.95658965604E+01 -0.31346980196E+03  0.32042177902E+03  0.00000000000E+00 0.  1.
         11    1    1    2    0    0  0.31323408185E+01 -0.56823857375E+02 -0.28742824448E+03  0.29300811943E+03  0.00000000000E+00 0. -1.
</event>
<event>
 7    1  0.2840156E-009  0.8514992E+02  0.7561462E-02  0.1315041E+00
          1   -1    0    0  501    0  0.00000000000E+00  0.00000000000E+00  0.95841970620E+02  0.95841970620E+02  0.00000000000E+00 0. -1.
         -1   -1    0    0    0  501 -0.00000000000E+00 -0.00000000000E+00 -0.12176090081E+03  0.12176090081E+03  0.00000000000E+00 0.  1.
         25    2    1    2    0    0  0.22847378782E+02  0.39969438536E+02 -0.33072966076E+01  0.13333408888E+03  0.12508989693E+03 0.  0.
          5    1    3    3  502    0 -0.36627285648E+02  0.34890342815E+01 -0.39902370413E+02  0.54437147049E+02  0.41800000000E+01 0. -1.
         -5    1    3    3    0  502  0.59474664430E+02  0.36480404254E+02  0.36595073806E+02  0.78896941832E+02  0.41800000000E+01 0. -1.
        -11    1    1    2    0    0  0.97976526514E+01 -0.26147648530E+02  0.15730815874E+02  0.32049213550E+02  0.00000000000E+00 0. -1.
         11    1    1    2    0    0 -0.32645031433E+02 -0.13821790006E+02 -0.38342449459E+02  0.52219569002E+02  0.00000000000E+00 0.  1.
</event>
<event>
 7    1  0.2840156E-009  0.9823807E+02  0.7561462E-02  0.1284045E+00
         -2   -1    0    0    0  501 -0.00000000000E+00  0.00000000000E+00  0.28764082264E+02  0.28764082264E+02  0.00000000000E+00 0.  1.
          2   -1    0    0  501    0  0.00000000000E+00 -0.00000000000E+00 -0.49054415219E+03  0.49054415219E+03  0.00000000000E+00 0. -1.
         25    2    1    2    0    0  0.47023132039E+02  0.10154790438E+02 -0.26679585061E+03  0.29856775814E+03  0.12509350735E+03 0.  0.
          5    1    3    3  502    0  0.42620630973E+02  0.42892099528E+02 -0.25672446465E+03  0.26378243598E+03  0.41800000000E+01 0.  1.
         -5    1    3    3    0  502  0.44025010660E+01 -0.32737309090E+02 -0.10071385964E+02  0.34785322153E+02  0.41800000000E+01 0.  1.
        -11    1    1    2    0    0 -0.34187835834E+02 -0.50077219334E+02 -0.10060913523E+03  0.11746801312E+03  0.00000000000E+00 0. -1.
         11    1    1    2    0    0 -0.12835296205E+02  0.39922428896E+02 -0.94375084085E+02  0.10327246319E+03  0.00000000000E+00 0.  1.
</event>
<event>
 7    1  0.2840156E-009  0.1115035E+03  0.7561462E-02  0.1257811E+00
          1   -1    0    0  501    0  0.00000000000E+00  0.00000000000E+00  0.15630119450E+03  0.15630119450E+03  0.00000000000E+00 0. -1.
         -1   -1    0    0    0  501 -0.00000000000E+00 -0.00000000000E+00 -0.84336373979E+02  0.84336373979E+02  0.00000000000E+00 0.  1.
         25    2    1    2    0    0 -0.32522445043E+02 -0.16736446455E+02  0.53741362193E+02  0.14097260646E+03  0.12508926289E+03 0.  0.
          5    1    3    3  502    0 -0.23536311326E+02 -0.68525916206E+02  0.11652366369E+02  0.73505164340E+02  0.41800000000E+01 0. -1.
         -5    1    3    3    0  502 -0.89861337174E+01  0.51789469751E+02  0.42088995824E+02  0.67467442117E+02  0.41800000000E+01 0. -1.
        -11    1    1    2    0    0  0.29554090724E+02 -0.35040684495E+02  0.47776481089E+01  0.46088173862E+02  0.00000000000E+00 0.  1.
         11    1    1    2    0    0  0.29683543188E+01  0.51777130950E+02  0.13445810216E+02  0.53576788156E+02  0.00000000000E+00 0. -1.
</event>
<event>
 7    1  0.2840156E-009  0.1011109E+03  0.7561462E-02  0.1277977E+00
         -1   -1    0    0    0  501 -0.00000000000E+00  0.00000000000E+00  0.80870149130E+02  0.80870149130E+02  0.00000000000E+00 0.  1.
          1   -1    0    0  501    0  0.00000000000E+00 -0.00000000000E+00 -0.17016279803E+03  0.17016279803E+03  0.00000000000E+00 0. -1.
         25    2    1    2    0    0 -0.14811414389E+02 -0.41340724282E+02 -0.55850259871E+02  0.14386753892E+03  0.12510069443E+03 0.  0.
          5    1    3    3  502    0  0.51002048072E+01 -0.83877825398E+02 -0.45271170185E+02  0.95542937638E+02  0.41800000000E+01 0. -1.
         -5    1    3    3    0  502 -0.19911619196E+02  0.42537101116E+02 -0.10579089686E+02  0.48324601281E+02  0.41800000000E+01 0. -1.
        -11    1    1    2    0    0 -0.20259497141E+02  0.59657092902E+01  0.23442477723E+02  0.31552918622E+02  0.00000000000E+00 0.  1.
         11    1    1    2    0    0  0.35070911530E+02  0.35375014991E+02 -0.56884866752E+02  0.75612489620E+02  0.00000000000E+00 0. -1.
</event>
<event>
 7    1  0.2840156E-009  0.2558322E+03  0.7561462E-02  0.1109673E+00
          2   -1    0    0  501    0  0.00000000000E+00  0.00000000000E+00  0.13435134403E+04  0.13435134403E+04  0.00000000000E+00 0. -1.
         -2   -1    0    0    0  501 -0.00000000000E+00 -0.00000000000E+00 -0.73540764134E+02  0.73540764134E+02  0.00000000000E+00 0.  1.
         25    2    1    2    0    0  0.16123066177E+03 -0.18858566549E+03  0.28838987235E+03  0.40046848792E+03  0.12508561794E+03 0.  0.
          5    1    3    3  502    0  0.10374985407E+03 -0.15690430646E+03  0.12922993041E+03  0.22825608627E+03  0.41800000000E+01 0. -1.
         -5    1    3    3    0  502  0.57480807702E+02 -0.31681359038E+02  0.15915994194E+03  0.17221240165E+03  0.41800000000E+01 0. -1.
        -11    1    1    2    0    0 -0.10703418414E+03  0.71476100642E+02  0.37635234844E+03  0.39775147984E+03  0.00000000000E+00 0.  1.
         11    1    1    2    0    0 -0.54196477630E+02  0.11710956485E+03  0.60523045542E+03  0.61883423672E+03  0.00000000000E+00 0. -1.
</event>
<event>
 7    1  0.2840156E-009  0.7271548E+02  0.7561462E-02  0.1351095E+00
          2   -1    0    0  501    0  0.00000000000E+00  0.00000000000E+00  0.10260231655E+03  0.10260231655E+03  0.00000000000E+00 0. -1.
         -2   -1    0    0    0  501 -0.00000000000E+00 -0.00000000000E+00 -0.12794288988E+03  0.12794288988E+03  0.00000000000E+00 0.  1.
         25    2    1    2    0    0  0.28274926485E+02  0.83844144002E+01  0.88512951588E+01  0.12882418948E+03  0.12509019345E+03 0.  0.
          5    1    3    3  502    0  0.27488915730E+01  0.22804488729E+02  0.62955732221E+02  0.67145347795E+02  0.41800000000E+01 0. -1.
         -5    1    3    3    0  502  0.25526034912E+02 -0.14420074329E+02 -0.54104437062E+02  0.61678841686E+02  0.41800000000E+01 0. -1.
        -11    1    1    2    0    0 -0.16028499621E+02  0.39719588721E+02 -0.29187163926E+02  0.51830966288E+02  0.00000000000E+00 0. -1.
         11    1    1    2    0    0 -0.12246426863E+02 -0.48104003121E+02 -0.50047045658E+01  0.49890050662E+02  0.00000000000E+00 0.  1.
</event>
<event>
 7    1  0.2840156E-009  0.1218515E+03  0.7561462E-02  0.1240074E+00
          1   -1    0    0  501    0  0.00000000000E+00  0.00000000000E+00  0.23940708054E+03  0.23940708054E+03  0.00000000000E+00 0. -1.
         -1   -1    0    0    0  501 -0.00000000000E+00 -0.00000000000E+00 -0.63045390461E+02  0.63045390461E+02  0.00000000000E+00 0.  1.
         25    2    1    2    0    0 -0.42542997150E+01  0.56171690601E+02  0.83945255171E+02  0.16082332710E+03  0.12507589210E+03 0.  0.
          5    1    3    3  502    0  0.30938036092E+02 -0.30398167808E+02  0.28891724750E+02  0.52282069989E+02  0.41800000000E+01 0. -1.
         -5    1    3    3    0  502 -0.35192335807E+02  0.86569858408E+02  0.55053530421E+02  0.10854125712E+03  0.41800000000E+01 0. -1.
        -11    1    1    2    0    0 -0.32609208053E+02 -0.61234970543E+02  0.67861582220E+02  0.97047804759E+02  0.00000000000E+00 0.  1.
         11    1    1    2    0    0  0.36863507768E+02  0.50632799422E+01  0.24554852685E+02  0.44581339135E+02  0.00000000000E+00 0. -1.
</event>
<event>
 7    1  0.5333431E-009  0.1654617E+03  0.7561462E-02  0.1182665E+00
          2   -1    0    0  501    0  0.00000000000E+00  0.00000000000E+00  0.15128744927E+04  0.15128744927E+04  0.00000000000E+00 0. -1.
         -2   -1    0    0    0  501 -0.00000000000E+00 -0.00000000000E+00 -0.22448568941E+02  0.22448568941E+02  0.00000000000E+00 0.  1.
         25    2    1    2    0    0 -0.11751452948E+03 -0.50105363057E+02  0.11026025980E+04  0.11170054923E+04  0.12509423927E+03 0.  0.
          5    1    3    3  502    0 -0.20829604406E+02  0.40099529171E+02  0.33957676190E+03  0.34259552578E+03  0.41800000000E+01 0.  1.
         -5    1    3    3    0  502 -0.96684925075E+02 -0.90204892228E+02  0.76302583609E+03  0.77440996653E+03  0.41800000000E+01 0.  1.
        -11    1    1    2    0    0  0.55078729073E+02 -0.20705056279E+02  0.19397316032E+03  0.20270163462E+03  0.00000000000E+00 0.  1.
         11    1    1    2    0    0  0.62435800408E+02  0.70810419336E+02  0.19385016544E+03  0.21561593471E+03  0.00000000000E+00 0. -1.
</event>
<event>
 7    1  0.2840156E-009  0.1681563E+03  0.7561462E-02  0.1179784E+00
         -2   -1    0    0    0  501 -0.00000000000E+00  0.00000000000E+00  0.48034645450E+03  0.48034645450E+03  0.00000000000E+00 0.  1.
          2   -1    0    0  501    0  0.00000000000E+00 -0.00000000000E+00 -0.73074658368E+02  0.73074658368E+02  0.00000000000E+00 0. -1.
         25    2    1    2    0    0  0.20456068221E+02  0.14306506717E+03  0.14808837107E+03  0.24179217502E+03  0.12508887273E+03 0.  0.
          5    1    3    3  502    0  0.46873607903E+02  0.11632715199E+03  0.15888479075E+03  0.20246231881E+03  0.41800000000E+01 0.  1.
         -5    1    3    3    0  502 -0.26417539681E+02  0.26737915181E+02 -0.10796419679E+02  0.39329856203E+02  0.41800000000E+01 0.  1.
        -11    1    1    2    0    0 -0.36650045621E+02 -0.86972320987E+01  0.54818322857E+02  0.66512526723E+02  0.00000000000E+00 0.  1.
         11    1    1    2    0    0  0.16193977399E+02 -0.13436783507E+03  0.20436510221E+03  0.24511641113E+03  0.00000000000E+00 0. -1.
</event>
<event>
 7    1  0.2840156E-009  0.1050914E+03  0.7561462E-02  0.1269940E+00
          2   -1    0    0  501    0  0.00000000000E+00  0.00000000000E+00  0.36944378483E+02  0.36944378483E+02  0.00000000000E+00 0. -1.
         -2   -1    0    0    0  501 -0.00000000000E+00 -0.00000000000E+00 -0.42198838904E+03  0.42198838904E+03  0.00000000000E+00 0.  1.
         25    2    1    2    0    0 -0.36502393062E+02  0.37950117147E+00 -0.30153208182E+03  0.32848787618E+03  0.12510043848E+03 0.  0.
          5    1    3    3  502    0 -0.21557848521E+02  0.54469998704E+02 -0.23051414910E+03  0.23787805053E+03  0.41800000000E+01 0. -1.
         -5    1    3    3    0  502 -0.14944544540E+02 -0.54090497532E+02 -0.71017932721E+02  0.90609825641E+02  0.41800000000E+01 0. -1.
        -11    1    1    2    0    0  0.14605614991E+02 -0.44006403148E+02 -0.61180732548E+02  0.76765679457E+02  0.00000000000E+00 0.  1.
         11    1    1    2    0    0  0.21896778070E+02  0.43626901976E+02 -0.22331196191E+02  0.53679211891E+02  0.00000000000E+00 0. -1.
</event>
<event>
 7    1  0.2840156E-009  0.8726767E+02  0.7561462E-02  0.1309607E+00
          2   -1    0    0  501    0  0.00000000000E+00  0.00000000000E+00  0.56126353538E+03  0.56126353538E+03  0.00000000000E+00 0. -1.
         -2   -1    0    0    0  501 -0.00000000000E+00 -0.00000000000E+00 -0.25385862890E+02  0.25385862890E+02  0.00000000000E+00 0.  1.
         25    2    1    2    0    0  0.24173390572E+02  0.32183694307E+02  0.22057495566E+03  0.25675128208E+03  0.12509103401E+03 0.  0.
          5    1    3    3  502    0 -0.18162440310E+02 -0.87533224493E+01  0.18838464910E+03  0.18950657854E+03  0.41800000000E+01 0.  1.
         -5    1    3    3    0  502  0.42335830882E+02  0.40937016756E+02  0.32190306562E+02  0.67244703538E+02  0.41800000000E+01 0.  1.
        -11    1    1    2    0    0  0.24993183296E+02 -0.37909308957E+02  0.18553256052E+03  0.19100813053E+03  0.00000000000E+00 0. -1.
         11    1    1    2    0    0 -0.49166573869E+02  0.57256146508E+01  0.12977015631E+03  0.13888998567E+03  0.00000000000E+00 0.  1.
</event>
<event>
 7    1  0.2840156E-009  0.1111139E+03  0.7561462E-02  0.1258521E+00
          2   -1    0    0  501    0  0.00000000000E+00  0.00000000000E+00  0.50537994550E+02  0.50537994550E+02  0.00000000000E+00 0. -1.
         -2   -1    0    0    0  501 -0.00000000000E+00 -0.00000000000E+00 -0.37544661378E+03  0.37544661378E+03  0.00000000000E+00 0.  1.
         25    2    1    2    0    0 -0.71191918030E+02 -0.24716090575E+02 -0.11804652642E+03  0.18778006759E+03  0.12508875672E+03 0.  0.
          5    1    3    3  502    0  0.33037482376E+02 -0.24711382308E+02 -0.38666421436E+02  0.56698255740E+02  0.41800000000E+01 0.  1.
         -5    1    3    3    0  502 -0.10422940041E+03 -0.47082670138E-02 -0.79380104985E+02  0.13108181185E+03  0.41800000000E+01 0.  1.
        -11    1    1    2    0    0  0.42844512838E+02  0.81479631688E+01 -0.19994966812E+03  0.20465070575E+03  0.00000000000E+00 0.  1.
         11    1    1    2    0    0  0.28347405192E+02  0.16568127406E+02 -0.69124246872E+01  0.33553834981E+02  0.00000000000E+00 0. -1.
</event>
<event>
 7    1  0.2840156E-009  0.1009894E+03  0.7561462E-02  0.1278229E+00
         -1   -1    0    0    0  501 -0.00000000000E+00  0.00000000000E+00  0.89011944589E+02  0.89011944589E+02  0.00000000000E+00 0.  1.
          1   -1    0    0  501    0  0.00000000000E+00 -0.00000000000E+00 -0.17729216339E+03  0.17729216339E+03  0.00000000000E+00 0. -1.
         25    2    1    2    0    0 -0.51746692225E+02 -0.30841620757E+02 -0.27086546431E+02  0.14145521606E+03  0.12508785483E+03 0.  0.
          5    1    3    3  502    0 -0.43620353937E+01  0.25668170561E+02 -0.56184477889E+02  0.62064887725E+02  0.41800000000E+01 0.  1.
         -5    1    3    3    0  502 -0.47384656831E+02 -0.56509791318E+02  0.29097931458E+02  0.79390328334E+02  0.41800000000E+01 0.  1.
        -11    1    1    2    0    0 -0.13656536233E+02 -0.16193879594E+02  0.35724781110E+01  0.21482674835E+02  0.00000000000E+00 0.  1.
         11    1    1    2    0    0  0.65403228458E+02  0.47035500352E+02 -0.64766150481E+02  0.10336621708E+03  0.00000000000E+00 0. -1.
</event>
<event>
 7    1  0.2840156E-009  0.1160047E+03  0.7561462E-02  0.1249838E+00
         -2   -1    0    0    0  501 -0.00000000000E+00  0.00000000000E+00  0.53450523393E+02  0.53450523393E+02  0.00000000000E+00 0.  1.
          2   -1    0    0  501    0  0.00000000000E+00 -0.00000000000E+00 -0.26505322615E+03  0.26505322615E+03  0.00000000000E+00 0. -1.
         25    2    1    2    0    0 -0.46153698759E+02  0.14524317126E+02 -0.10369665439E+03  0.16953285902E+03  0.12508906611E+03 0.  0.
          5    1    3    3  502    0 -0.79923473196E+02  0.37521169858E+02 -0.48781882408E+02  0.10095912146E+03  0.41800000000E+01 0.  1.
         -5    1    3    3    0  502  0.33769774437E+02 -0.22996852732E+02 -0.54914771979E+02  0.68573737558E+02  0.41800000000E+01 0.  1.
        -11    1    1    2    0    0  0.10852086222E+02 -0.50790725921E+02 -0.58784426503E+02  0.78441535007E+02  0.00000000000E+00 0.  1.
         11    1    1    2    0    0  0.35301612537E+02  0.36266408795E+02 -0.49121621868E+02  0.70529355516E+02  0.00000000000E+00 0. -1.
</event>
<event>
 7    1  0.3122232E-009  0.1020508E+03  0.7561462E-02  0.1276042E+00
         -1   -1    0    0    0  501 -0.00000000000E+00  0.00000000000E+00  0.11372908542E+03  0.11372908542E+03  0.00000000000E+00 0.  1.
          1   -1    0    0  501    0  0.00000000000E+00 -0.00000000000E+00 -0.12573275945E+03  0.12573275945E+03  0.00000000000E+00 0. -1.
         25    2    1    2    0    0 -0.31966028895E+01 -0.40681435286E+02  0.23094875000E+02  0.13359120930E+03  0.12509212806E+03 0.  0.
          5    1    3    3  502    0  0.45248630771E+02 -0.49587680581E+02  0.43511591029E+02  0.80106851180E+02  0.41800000000E+01 0. -1.
         -5    1    3    3    0  502 -0.48445233661E+02  0.89062452956E+01 -0.20416716029E+02  0.53484358116E+02  0.41800000000E+01 0. -1.
        -11    1    1    2    0    0 -0.19456616680E+02  0.56514472940E+02  0.17662816312E+01  0.59796031098E+02  0.00000000000E+00 0.  1.
         11    1    1    2    0    0  0.22653219569E+02 -0.15833037654E+02 -0.36864830664E+02  0.46074604481E+02  0.00000000000E+00 0. -1.
</event>
<event>
 7    1  0.2840156E-009  0.9154654E+02  0.7561462E-02  0.1299149E+00
          2   -1    0    0  501    0  0.00000000000E+00  0.00000000000E+00  0.31784868833E+03  0.31784868833E+03  0.00000000000E+00 0.  1.
         -2   -1    0    0    0  501 -0.00000000000E+00 -0.00000000000E+00 -0.43698874077E+02  0.43698874077E+02  0.00000000000E+00 0. -1.
         25    2    1    2    0    0 -0.39758366415E+02 -0.20724350059E+02  0.16031208585E+03  0.20822419340E+03  0.12508846256E+03 0.  0.
          5    1    3    3  502    0  0.30897619060E+02 -0.21486854738E+02  0.58489862667E+01  0.38314890454E+02  0.41800000000E+01 0.  1.
         -5    1    3    3    0  502 -0.70655985475E+02  0.76250467933E+00  0.15446309958E+03  0.16990930295E+03  0.41800000000E+01 0.  1.
        -11    1    1    2    0    0 -0.10309956411E+02  0.22067687408E+02  0.97716541722E+02  0.10070650701E+03  0.00000000000E+00 0.  1.
         11    1    1    2    0    0  0.50068322826E+02 -0.13433373495E+01  0.16121186688E+02  0.52616861994E+02  0.00000000000E+00 0. -1.
</event>
<event>
 7    1  0.2840156E-009  0.1547196E+03  0.7561462E-02  0.1194791E+00
          2   -1    0    0  501    0  0.00000000000E+00  0.00000000000E+00  0.38645982964E+03  0.38645982964E+03  0.00000000000E+00 0. -1.
         -2   -1    0    0    0  501 -0.00000000000E+00 -0.00000000000E+00 -0.96401219967E+02  0.96401219967E+02  0.00000000000E+00 0.  1.
         25    2    1    2    0    0  0.66153566091E+02  0.12343762277E+03  0.24742169696E+03  0.31060916673E+03  0.12508963710E+03 0.  0.
          5    1    3    3  502    0  0.36032606841E+02  0.39995829634E+02  0.71711752127E+01  0.54469379451E+02  0.41800000000E+01 0. -1.
         -5    1    3    3    0  502  0.30120959250E+02  0.83441793139E+02  0.24025052175E+03  0.25613978728E+03  0.41800000000E+01 0. -1.
        -11    1    1    2    0    0 -0.85217565879E+02 -0.71270989575E+02  0.23889630800E+02  0.11363231032E+03  0.00000000000E+00 0.  1.
         11    1    1    2    0    0  0.19063999788E+02 -0.52166633198E+02  0.18747281913E+02  0.58619572553E+02  0.00000000000E+00 0. -1.
</event>
<event>
 7    1  0.2840156E-009  0.1522704E+03  0.7561462E-02  0.1197711E+00
         -1   -1    0    0    0  501 -0.00000000000E+00  0.00000000000E+00  0.42864655602E+02  0.42864655602E+02  0.00000000000E+00 0.  1.
          1   -1    0    0  501    0  0.00000000000E+00 -0.00000000000E+00 -0.66193837502E+03  0.66193837502E+03  0.00000000000E+00 0. -1.
         25    2    1    2    0    0 -0.58727694591E+02  0.11096128079E+03 -0.27584452113E+03  0.32787557502E+03  0.12510333694E+03 0.  0.
          5    1    3    3  502    0 -0.72579147410E+02  0.80216926646E+01 -0.12044467280E+03  0.14091299372E+03  0.41800000000E+01 0.  1.
         -5    1    3    3    0  502  0.13851452819E+02  0.10293958812E+03 -0.15539984832E+03  0.18696258130E+03  0.41800000000E+01 0.  1.
        -11    1    1    2    0    0  0.93655056825E+01 -0.39507937638E+02 -0.23342717435E+03  0.23693213281E+03  0.00000000000E+00 0. -1.
         11    1    1    2    0    0  0.49362188908E+02 -0.71453343151E+02 -0.10980202394E+03  0.13999532279E+03  0.00000000000E+00 0.  1.
</event>
<event>
 7    1  0.2840156E-009  0.1879910E+03  0.7561462E-02  0.1160286E+00
         -1   -1    0    0    0  501 -0.00000000000E+00  0.00000000000E+00  0.35050473885E+03  0.35050473885E+03  0.00000000000E+00 0.  1.
          1   -1    0    0  501    0  0.00000000000E+00 -0.00000000000E+00 -0.10128294956E+03  0.10128294956E+03  0.00000000000E+00 0. -1.
         25    2    1    2    0    0  0.17780850392E+02 -0.15099689668E+03  0.14381023893E+03  0.24381642610E+03  0.12509533710E+03 0.  0.
          5    1    3    3  502    0 -0.53688544694E+02 -0.76059678983E+02  0.71010335221E+02  0.11716430645E+03  0.41800000000E+01 0. -1.
         -5    1    3    3    0  502  0.71469395086E+02 -0.74937217698E+02  0.72799903711E+02  0.12665211964E+03  0.41800000000E+01 0. -1.
        -11    1    1    2    0    0 -0.37144225258E+02  0.15499046690E+03  0.91260643070E+02  0.18365795184E+03  0.00000000000E+00 0.  1.
         11    1    1    2    0    0  0.19363374866E+02 -0.39935702170E+01  0.14150907290E+02  0.24313310479E+02  0.00000000000E+00 0. -1.
</event>
<event>
 7    1  0.2840156E-009  0.1070658E+03  0.7561462E-02  0.1266102E+00
          3   -1    0    0  501    0  0.00000000000E+00  0.00000000000E+00  0.13581273196E+03  0.13581273196E+03  0.00000000000E+00 0. -1.
         -3   -1    0    0    0  501 -0.00000000000E+00 -0.00000000000E+00 -0.11591419040E+03  0.11591419040E+03  0.00000000000E+00 0.  1.
         25    2    1    2    0    0  0.27358145047E+02  0.53748544533E+02  0.38229753974E+02  0.14403546009E+03  0.12508927027E+03 0.  0.
          5    1    3    3  502    0  0.67864292500E+02  0.21805196066E+02 -0.11425457821E+02  0.72312116954E+02  0.41800000000E+01 0. -1.
         -5    1    3    3    0  502 -0.40506147453E+02  0.31943348468E+02  0.49655211795E+02  0.71723343140E+02  0.41800000000E+01 0. -1.
        -11    1    1    2    0    0  0.18436074876E+02 -0.38533765623E+02 -0.36441802476E+02  0.56149309146E+02  0.00000000000E+00 0. -1.
         11    1    1    2    0    0 -0.45794219922E+02 -0.15214778911E+02  0.18110590068E+02  0.51542153120E+02  0.00000000000E+00 0.  1.
</event>
<event>
 7    1  0.2840156E-009  0.1144232E+03  0.7561462E-02  0.1252591E+00
          2   -1    0    0  501    0  0.00000000000E+00  0.00000000000E+00  0.55334532771E+03  0.55334532771E+03  0.00000000000E+00 0. -1.
         -2   -1    0    0    0  501 -0.00000000000E+00 -0.00000000000E+00 -0.34775820150E+02  0.34775820150E+02  0.00000000000E+00 0.  1.
         25    2    1    2    0    0 -0.33899082488E+02  0.66332411610E+02  0.19202169973E+03  0.24097803043E+03  0.12509572877E+03 0.  0.
          5    1    3    3  502    0  0.26073093014E+02  0.79178510639E+01 -0.39337054210E+01  0.27846812800E+02  0.41800000000E+01 0.  1.
         -5    1    3    3    0  502 -0.59972175502E+02  0.58414560546E+02  0.19595540515E+03  0.21313121763E+03  0.41800000000E+01 0.  1.
        -11    1    1    2    0    0  0.29023618759E+02 -0.89340306282E+02  0.27111095361E+03  0.28692370056E+03  0.00000000000E+00 0.  1.
         11    1    1    2    0    0  0.48754637287E+01  0.23007894673E+02  0.55436854222E+02  0.60219416884E+02  0.00000000000E+00 0. -1.
</event>
<event>
 7    1  0.2840156E-009  0.8647084E+02  0.7561462E-02  0.1311630E+00
         -4   -1    0    0    0  501 -0.00000000000E+00  0.00000000000E+00  0.30699670653E+02  0.30699670653E+02  0.00000000000E+00 0.  1.
          4   -1    0    0  501    0  0.00000000000E+00 -0.00000000000E+00 -0.54341647072E+03  0.54341647072E+03  0.00000000000E+00 0. -1.
         25    2    1    2    0    0 -0.26587582801E+02  0.60131418789E+02 -0.23373437852E+03  0.27313827818E+03  0.12510024868E+03 0.  0.
          5    1    3    3  502    0  0.41295486604E+00  0.39604815002E+02 -0.30578503142E+01  0.39944145398E+02  0.41800000000E+01 0. -1.
         -5    1    3    3    0  502 -0.27000537668E+02  0.20526603787E+02 -0.23067652821E+03  0.23319413278E+03  0.41800000000E+01 0. -1.
        -11    1    1    2    0    0  0.51576241813E+02 -0.50434099008E+02 -0.12206091024E+03  0.14178354231E+03  0.00000000000E+00 0.  1.
         11    1    1    2    0    0 -0.24988659012E+02 -0.96973197805E+01 -0.15692151131E+03  0.15919432088E+03  0.00000000000E+00 0. -1.
</event>
<event>
 7    1  0.2840156E-009  0.8607629E+02  0.7561462E-02  0.1312642E+00
         -1   -1    0    0    0  501 -0.00000000000E+00  0.00000000000E+00  0.35512961805E+02  0.35512961805E+02  0.00000000000E+00 0.  1.
          1   -1    0    0  501    0  0.00000000000E+00 -0.00000000000E+00 -0.56528460072E+03  0.56528460072E+03  0.00000000000E+00 0. -1.
         25    2    1    2    0    0  0.66033124153E+02 -0.12952773241E+02 -0.41794451532E+03  0.44142193752E+03  0.12509021231E+03 0.  0.
          5    1    3    3  502    0  0.12381706707E+02 -0.28496564493E+02 -0.15271968434E+02  0.34872141728E+02  0.41800000000E+01 0.  1.
         -5    1    3    3    0  502  0.53651417446E+02  0.15543791252E+02 -0.40267254689E+03  0.40654979579E+03  0.41800000000E+01 0.  1.
        -11    1    1    2    0    0 -0.65158888240E+02  0.27132217793E+02 -0.12265480251E+03  0.14151338642E+03  0.00000000000E+00 0. -1.
         11    1    1    2    0    0 -0.87423591271E+00 -0.14179444552E+02  0.10827678919E+02  0.17862238578E+02  0.00000000000E+00 0.  1.
</event>
<event>
 7    1  0.2840156E-009  0.1792261E+03  0.7561462E-02  0.1168554E+00
         -2   -1    0    0    0  501 -0.00000000000E+00  0.00000000000E+00  0.26215584655E+02  0.26215584655E+02  0.00000000000E+00 0.  1.
          2   -1    0    0  501    0  0.00000000000E+00 -0.00000000000E+00 -0.14395533283E+04  0.14395533283E+04  0.00000000000E+00 0. -1.
         25    2    1    2    0    0  0.14349691723E+03  0.72551789813E+02 -0.77052377831E+03  0.79699946964E+03  0.12508450825E+03 0.  0.
          5    1    3    3  502    0  0.95214754061E+02  0.70652861190E+01 -0.60512597837E+03  0.61262606030E+03  0.41800000000E+01 0. -1.
         -5    1    3    3    0  502  0.48282163173E+02  0.65486503694E+02 -0.16539779994E+03  0.18437340934E+03  0.41800000000E+01 0. -1.
        -11    1    1    2    0    0 -0.41254905253E+02 -0.67425415793E+02 -0.34191857879E+03  0.35093655898E+03  0.00000000000E+00 0.  1.
         11    1    1    2    0    0 -0.10224201198E+03 -0.51263740196E+01 -0.30089538654E+03  0.31783288434E+03  0.00000000000E+00 0. -1.
</event>
<event>
 7    1  0.2840156E-009  0.1227841E+03  0.7561462E-02  0.1238574E+00
         -1   -1    0    0    0  501 -0.00000000000E+00  0.00000000000E+00  0.73380894785E+03  0.73380894785E+03  0.00000000000E+00 0.  1.
          1   -1    0    0  501    0  0.00000000000E+00 -0.00000000000E+00 -0.24317405364E+02  0.24317405364E+02  0.00000000000E+00 0. -1.
         25    2    1    2    0    0 -0.48483742227E+02 -0.63762311868E+02  0.42582645967E+03  0.45098985233E+03  0.12508943792E+03 0.  0.
          5    1    3    3  502    0 -0.61341926953E+02 -0.95388557376E+02  0.34370571543E+03  0.36195704178E+03  0.41800000000E+01 0. -1.
         -5    1    3    3    0  502  0.12858184726E+02  0.31626245508E+02  0.82120744242E+02  0.89032810549E+02  0.41800000000E+01 0. -1.
        -11    1    1    2    0    0  0.40481758185E+01  0.51405234983E+02  0.61604623788E+02  0.80336888060E+02  0.00000000000E+00 0. -1.
         11    1    1    2    0    0  0.44435566409E+02  0.12357076885E+02  0.22206045903E+03  0.22679961282E+03  0.00000000000E+00 0.  1.
</event>
<event>
 7    1  0.2840156E-009  0.7435466E+02  0.7561462E-02  0.1345881E+00
          1   -1    0    0  501    0  0.00000000000E+00  0.00000000000E+00  0.22910848224E+03  0.22910848224E+03  0.00000000000E+00 0. -1.
         -1   -1    0    0    0  501 -0.00000000000E+00 -0.00000000000E+00 -0.10743365087E+03  0.10743365087E+03  0.00000000000E+00 0.  1.
         25    2    1    2    0    0  0.47189150150E+02  0.13604817521E+02  0.17300418552E+03  0.21906708632E+03  0.12509209867E+03 0.  0.
          5    1    3    3  502    0  0.87022804378E+01 -0.24100049353E+02 -0.10324537658E+02  0.27939408396E+02  0.41800000000E+01 0.  1.
         -5    1    3    3    0  502  0.38486869713E+02  0.37704866874E+02  0.18332872318E+03  0.19112767792E+03  0.41800000000E+01 0.  1.
        -11    1    1    2    0    0 -0.30726418423E+02  0.16142148482E+02 -0.70401485409E+02  0.78492362014E+02  0.00000000000E+00 0.  1.
         11    1    1    2    0    0 -0.16462731727E+02 -0.29746966003E+02  0.19072131254E+02  0.38982684782E+02  0.00000000000E+00 0. -1.
</event>
<event>
 7    1  0.2840156E-009  0.9020628E+02  0.7561462E-02  0.1302353E+00
         -1   -1    0    0    0  501 -0.00000000000E+00  0.00000000000E+00  0.24693219430E+03  0.24693219430E+03  0.00000000000E+00 0.  1.
          1   -1    0    0  501    0  0.00000000000E+00 -0.00000000000E+00 -0.54735009268E+02  0.54735009268E+02  0.00000000000E+00 0. -1.
         25    2    1    2    0    0  0.22502444030E+02  0.18948806504E+02  0.68939542637E+02  0.14582850487E+03  0.12509146669E+03 0.  0.
          5    1    3    3  502    0 -0.24063998580E+02 -0.41707812566E+02  0.43791605490E+02  0.65221122101E+02  0.41800000000E+01 0.  1.
         -5    1    3    3    0  502  0.46566442610E+02  0.60656619070E+02  0.25147937147E+02  0.80607382770E+02  0.41800000000E+01 0.  1.
        -11    1    1    2    0    0  0.31387338637E+01  0.13658153379E+02 -0.93815442205E+01  0.16864464888E+02  0.00000000000E+00 0. -1.
         11    1    1    2    0    0 -0.25641177894E+02 -0.32606959883E+02  0.13263918661E+03  0.13897423381E+03  0.00000000000E+00 0.  1.
</event>
<event>
 7    1  0.2840156E-009  0.1454798E+03  0.7561462E-02  0.1206140E+00
          2   -1    0    0  501    0  0.00000000000E+00  0.00000000000E+00  0.79619749372E+03  0.79619749372E+03  0.00000000000E+00 0. -1.
         -2   -1    0    0    0  501 -0.00000000000E+00 -0.00000000000E+00 -0.33726049420E+02  0.33726049420E+02  0.00000000000E+00 0.  1.
         25    2    1    2    0    0  0.93633797398E+02 -0.37797715691E+02  0.23234654642E+03  0.28254070743E+03  0.12509347861E+03 0.  0.
          5    1    3    3  502    0  0.10477773126E+03 -0.66322096034E+02  0.21167092884E+03  0.24535494270E+03  0.41800000000E+01 0. -1.
         -5    1    3    3    0  502 -0.11143933858E+02  0.28524380344E+02  0.20675617580E+02  0.37185764724E+02  0.41800000000E+01 0. -1.
        -11    1    1    2    0    0 -0.24586204284E+02 -0.30285430449E+02  0.17140429116E+03  0.17578714335E+03  0.00000000000E+00 0. -1.
         11    1    1    2    0    0 -0.69047593114E+02  0.68083146140E+02  0.35872060672E+03  0.37159569237E+03  0.00000000000E+00 0.  1.
</event>
<event>
 7    1  0.2840156E-009  0.9697939E+02  0.7561462E-02  0.1286779E+00
         -2   -1    0    0    0  501 -0.00000000000E+00  0.00000000000E+00  0.12533505152E+03  0.12533505152E+03  0.00000000000E+00 0. -1.
          2   -1    0    0  501    0  0.00000000000E+00 -0.00000000000E+00 -0.10522468872E+03  0.10522468872E+03  0.00000000000E+00 0.  1.
         25    2    1    2    0    0 -0.20299919613E+02  0.32244863829E+02  0.11934608540E+02  0.13130800364E+03  0.12509012335E+03 0.  0.
          5    1    3    3  502    0 -0.45668497442E+02  0.48585657155E+02  0.49348761600E+02  0.83059920607E+02  0.41800000000E+01 0.  1.
         -5    1    3    3    0  502  0.25368577829E+02 -0.16340793326E+02 -0.37414153059E+02  0.48248083037E+02  0.41800000000E+01 0.  1.
        -11    1    1    2    0    0 -0.23624885817E+02 -0.45103237239E+02 -0.61687304807E+01  0.51288307391E+02  0.00000000000E+00 0.  1.
         11    1    1    2    0    0  0.43924805430E+02  0.12858373410E+02  0.14344484746E+02  0.47963429209E+02  0.00000000000E+00 0. -1.
</event>
<event>
 7    1  0.2840156E-009  0.1349141E+03  0.7561462E-02  0.1220341E+00
          2   -1    0    0  501    0  0.00000000000E+00  0.00000000000E+00  0.68019369312E+03  0.68019369312E+03  0.00000000000E+00 0. -1.
         -2   -1    0    0    0  501 -0.00000000000E+00 -0.00000000000E+00 -0.31810412865E+02  0.31810412865E+02  0.00000000000E+00 0.  1.
         25    2    1    2    0    0  0.75413111477E+02 -0.76004212735E+02  0.46891675684E+03  0.49698610355E+03  0.12509390289E+03 0.  0.
          5    1    3    3  502    0 -0.27267484856E+02 -0.46030888061E+01  0.31982831150E+02  0.42486210060E+02  0.41800000000E+01 0.  1.
         -5    1    3    3    0  502  0.10268059633E+03 -0.71401123928E+02  0.43693392569E+03  0.45449989349E+03  0.41800000000E+01 0.  1.
        -11    1    1    2    0    0  0.58183784975E+01  0.11899981608E+02  0.10588452792E+02  0.16958137372E+02  0.00000000000E+00 0.  1.
         11    1    1    2    0    0 -0.81231489975E+02  0.64104231127E+02  0.16887807063E+03  0.19805986507E+03  0.00000000000E+00 0. -1.
</event>
<event>
 7    1  0.2840156E-009  0.2132796E+03  0.7561462E-02  0.1138995E+00
          3   -1    0    0  501    0  0.00000000000E+00  0.00000000000E+00  0.14364160299E+03  0.14364160299E+03  0.00000000000E+00 0. -1.
         -3   -1    0    0    0  501 -0.00000000000E+00 -0.00000000000E+00 -0.39767009667E+03  0.39767009667E+03  0.00000000000E+00 0.  1.
         25    2    1    2    0    0  0.14411453857E+03  0.11897536435E+03 -0.17936145227E+02  0.22559519300E+03  0.12508936106E+03 0.  0.
          5    1    3    3  502    0  0.25290301060E+02  0.92096847028E+02  0.20519793303E+02  0.97775062656E+02  0.41800000000E+01 0.  1.
         -5    1    3    3    0  502  0.11882423751E+03  0.26878517321E+02 -0.38455938531E+02  0.12782013035E+03  0.41800000000E+01 0.  1.
        -11    1    1    2    0    0 -0.89403140977E+02 -0.13736107911E+02 -0.90917456079E+02  0.12824814266E+03  0.00000000000E+00 0.  1.
         11    1    1    2    0    0 -0.54711397594E+02 -0.10523925644E+03 -0.14517489238E+03  0.18746836399E+03  0.00000000000E+00 0. -1.
</event>
<event>
 7    1  0.2840156E-009  0.2486252E+03  0.7561462E-02  0.1114177E+00
          1   -1    0    0  501    0  0.00000000000E+00  0.00000000000E+00  0.33693243387E+03  0.33693243387E+03  0.00000000000E+00 0. -1.
         -1   -1    0    0    0  501 -0.00000000000E+00 -0.00000000000E+00 -0.20707864052E+03  0.20707864052E+03  0.00000000000E+00 0.  1.
         25    2    1    2    0    0 -0.33215451927E+02  0.23078517551E+03  0.12812728700E+03  0.29398904484E+03  0.12509153980E+03 0.  0.
          5    1    3    3  502    0 -0.63895775370E+02  0.54205616501E+02  0.55334980315E+02  0.10050050456E+03  0.41800000000E+01 0.  1.
         -5    1    3    3    0  502  0.30680323443E+02  0.17657955901E+03  0.72792306685E+02  0.19348854028E+03  0.41800000000E+01 0.  1.
        -11    1    1    2    0    0  0.12904203586E+01 -0.77324913191E+02 -0.41034811978E+02  0.87548062107E+02  0.00000000000E+00 0.  1.
         11    1    1    2    0    0  0.31925031568E+02 -0.15346026232E+03  0.42761318331E+02  0.16247396745E+03  0.00000000000E+00 0. -1.
</event>
<event>
 7    1  0.2840156E-009  0.1035744E+03  0.7561462E-02  0.1272954E+00
          2   -1    0    0  501    0  0.00000000000E+00  0.00000000000E+00  0.12970650270E+04  0.12970650270E+04  0.00000000000E+00 0. -1.
         -2   -1    0    0    0  501 -0.00000000000E+00 -0.00000000000E+00 -0.10882868915E+02  0.10882868915E+02  0.00000000000E+00 0.  1.
         25    2    1    2    0    0 -0.22442243573E+02 -0.31599827557E+01  0.94185578823E+03  0.95039669775E+03  0.12509163630E+03 0.  0.
          5    1    3    3  502    0 -0.71328795825E+02 -0.62858709507E+01  0.69508505294E+03  0.69877608181E+03  0.41800000000E+01 0. -1.
         -5    1    3    3    0  502  0.48886552252E+02  0.31258881950E+01  0.24677073529E+03  0.25162061593E+03  0.41800000000E+01 0. -1.
        -11    1    1    2    0    0  0.41392177413E+02  0.31604495356E+02  0.27905100505E+03  0.28386901891E+03  0.00000000000E+00 0.  1.
         11    1    1    2    0    0 -0.18949933840E+02 -0.28444512600E+02  0.65275364768E+02  0.73682179224E+02  0.00000000000E+00 0. -1.
</event>
<event>
 7    1  0.2840156E-009  0.1106592E+03  0.7561462E-02  0.1259354E+00
         -3   -1    0    0    0  501 -0.00000000000E+00  0.00000000000E+00  0.39363975856E+02  0.39363975856E+02  0.00000000000E+00 0.  1.
          3   -1    0    0  501    0  0.00000000000E+00 -0.00000000000E+00 -0.36643356924E+03  0.36643356924E+03  0.00000000000E+00 0. -1.
         25    2    1    2    0    0  0.29170445017E+02  0.13945411098E+02 -0.24864782804E+03  0.28021240621E+03  0.12509140999E+03 0.  0.
          5    1    3    3  502    0  0.75168477828E+02  0.82368648838E-01 -0.10899187647E+03  0.13246512137E+03  0.41800000000E+01 0. -1.
         -5    1    3    3    0  502 -0.45998032811E+02  0.13863042450E+02 -0.13965595157E+03  0.14774728484E+03  0.41800000000E+01 0. -1.
        -11    1    1    2    0    0  0.28303547395E+02  0.16509010356E+02 -0.30818220341E+02  0.44982228970E+02  0.00000000000E+00 0. -1.
         11    1    1    2    0    0 -0.57473992412E+02 -0.30454421454E+02 -0.47603545004E+02  0.80602909915E+02  0.00000000000E+00 0.  1.
</event>
<event>
 7    1  0.2840156E-009  0.2782995E+03  0.7561462E-02  0.1096621E+00
          2   -1    0    0  501    0  0.00000000000E+00  0.00000000000E+00  0.35508375759E+03  0.35508375759E+03  0.00000000000E+00 0. -1.
         -2   -1    0    0    0  501 -0.00000000000E+00 -0.00000000000E+00 -0.26765594273E+03  0.26765594273E+03  0.00000000000E+00 0.  1.
         25    2    1    2    0    0 -0.25834731212E+03 -0.50093778228E+02 -0.74070115616E+02  0.30064771491E+03  0.12509974483E+03 0.  0.
          5    1    3    3  502    0 -0.77896132159E+02 -0.73490080288E+02 -0.45405705758E+02  0.11639480152E+03  0.41800000000E+01 0.  1.
         -5    1    3    3    0  502 -0.18045117996E+03  0.23396302060E+02 -0.28664409859E+02  0.18425291339E+03  0.41800000000E+01 0.  1.
        -11    1    1    2    0    0  0.18764775539E+03  0.57675484212E+02  0.75073733213E+02  0.21017660907E+03  0.00000000000E+00 0.  1.
         11    1    1    2    0    0  0.70699556727E+02 -0.75817059849E+01  0.86424197268E+02  0.11191537634E+03  0.00000000000E+00 0. -1.
</event>
<event>
 7    1  0.2840156E-009  0.9385197E+02  0.7561462E-02  0.1293783E+00
         -1   -1    0    0    0  501 -0.00000000000E+00  0.00000000000E+00  0.29414048831E+02  0.29414048831E+02  0.00000000000E+00 0.  1.
          1   -1    0    0  501    0  0.00000000000E+00 -0.00000000000E+00 -0.46573732864E+03  0.46573732864E+03  0.00000000000E+00 0. -1.
         25    2    1    2    0    0 -0.42106557003E+02 -0.73633656039E+01 -0.21261431081E+03  0.25035543445E+03  0.12508324069E+03 0.  0.
          5    1    3    3  502    0 -0.26391330139E+02 -0.53323217071E+02 -0.42090852040E+02  0.72999863088E+02  0.41800000000E+01 0.  1.
         -5    1    3    3    0  502 -0.15715226864E+02  0.45959851467E+02 -0.17052345877E+03  0.17735557136E+03  0.41800000000E+01 0.  1.
        -11    1    1    2    0    0  0.33873031290E+02 -0.27409872683E+02 -0.19244175195E+03  0.19731323134E+03  0.00000000000E+00 0. -1.
         11    1    1    2    0    0  0.82335257131E+01  0.34773238287E+02 -0.31267217058E+02  0.47482711687E+02  0.00000000000E+00 0.  1.
</event>
<event>
 7    1  0.2840156E-009  0.1527864E+03  0.7561462E-02  0.1197090E+00
          2   -1    0    0  501    0  0.00000000000E+00  0.00000000000E+00  0.30471300114E+03  0.30471300114E+03  0.00000000000E+00 0. -1.
         -2   -1    0    0    0  501 -0.00000000000E+00 -0.00000000000E+00 -0.14618572020E+03  0.14618572020E+03  0.00000000000E+00 0.  1.
         25    2    1    2    0    0 -0.48566620576E+02  0.14110223129E+03  0.19205334516E+03  0.27349738306E+03  0.12509106620E+03 0.  0.
          5    1    3    3  502    0 -0.19330897511E+02  0.93087865126E+02  0.26760106954E+02  0.98856511958E+02  0.41800000000E+01 0.  1.
         -5    1    3    3    0  502 -0.29235723064E+02  0.48014366164E+02  0.16529323821E+03  0.17464087110E+03  0.41800000000E+01 0.  1.
        -11    1    1    2    0    0  0.51629952511E+02 -0.97490514124E+02  0.15850982398E+02  0.11145091289E+03  0.00000000000E+00 0.  1.
         11    1    1    2    0    0 -0.30633319354E+01 -0.43611717166E+02 -0.49377046620E+02  0.65950425394E+02  0.00000000000E+00 0. -1.
</event>
<event>
 7    1  0.2840156E-009  0.9855021E+02  0.7561462E-02  0.1283375E+00
          2   -1    0    0  501    0  0.00000000000E+00  0.00000000000E+00  0.73093831617E+03  0.73093831617E+03  0.00000000000E+00 0. -1.
         -2   -1    0    0    0  501 -0.00000000000E+00 -0.00000000000E+00 -0.22200605611E+02  0.22200605611E+02  0.00000000000E+00 0.  1.
         25    2    1    2    0    0 -0.65122113199E+00  0.41264947375E+02  0.51420546927E+03  0.53081357869E+03  0.12511023430E+03 0.  0.
          5    1    3    3  502    0 -0.50969542061E+02  0.28962869711E+02  0.12469526952E+03  0.13785182146E+03  0.41800000000E+01 0.  1.
         -5    1    3    3    0  502  0.50318320929E+02  0.12302077665E+02  0.38951019975E+03  0.39296175723E+03  0.41800000000E+01 0.  1.
        -11    1    1    2    0    0  0.31011746613E+02  0.46049570434E+01  0.14484611817E+03  0.14820031041E+03  0.00000000000E+00 0. -1.
         11    1    1    2    0    0 -0.30360525481E+02 -0.45869904419E+02  0.49686123124E+02  0.74125032681E+02  0.00000000000E+00 0.  1.
</event>
<event>
 7    1  0.2840156E-009  0.1001671E+03  0.7561462E-02  0.1279945E+00
          1   -1    0    0  501    0  0.00000000000E+00  0.00000000000E+00  0.19398723725E+03  0.19398723725E+03  0.00000000000E+00 0. -1.
         -1   -1    0    0    0  501 -0.00000000000E+00 -0.00000000000E+00 -0.76200822102E+02  0.76200822102E+02  0.00000000000E+00 0.  1.
         25    2    1    2    0    0 -0.26131154034E+02  0.49886281081E+02  0.56010166837E+02  0.14817630587E+03  0.12509036965E+03 0.  0.
          5    1    3    3  502    0 -0.39952406767E+02 -0.31659599910E+01 -0.27074810598E+02  0.48546224138E+02  0.41800000000E+01 0. -1.
         -5    1    3    3    0  502  0.13821252733E+02  0.53052241072E+02  0.83084977435E+02  0.99630081728E+02  0.41800000000E+01 0. -1.
        -11    1    1    2    0    0 -0.29325908543E+02 -0.38577750703E+02  0.31851815500E+02  0.57989567267E+02  0.00000000000E+00 0.  1.
         11    1    1    2    0    0  0.55457062577E+02 -0.11308530378E+02  0.29924432811E+02  0.64022186218E+02  0.00000000000E+00 0. -1.
</event>
<event>
 7    1  0.2840156E-009  0.1111707E+03  0.7561462E-02  0.1258417E+00
          1   -1    0    0  501    0  0.00000000000E+00  0.00000000000E+00  0.55347487615E+03  0.55347487615E+03  0.00000000000E+00 0. -1.
         -1   -1    0    0    0  501 -0.00000000000E+00 -0.00000000000E+00 -0.23821001847E+02  0.23821001847E+02  0.00000000000E+00 0.  1.
         25    2    1    2    0    0  0.36318988567E+02  0.23899863831E+02  0.37206354214E+03  0.39492930096E+03  0.12509037111E+03 0.  0.
          5    1    3    3  502    0 -0.46355189161E+02  0.15373983109E+02  0.12767702404E+03  0.13676277924E+03  0.41800000000E+01 0. -1.
         -5    1    3    3    0  502  0.82674177728E+02  0.85258807225E+01  0.24438651810E+03  0.25816652171E+03  0.41800000000E+01 0. -1.
        -11    1    1    2    0    0 -0.15748445148E+02  0.29192167384E+02  0.75480141975E+02  0.82446637249E+02  0.00000000000E+00 0.  1.
         11    1    1    2    0    0 -0.20570543419E+02 -0.53092031215E+02  0.82110190193E+02  0.99919939794E+02  0.00000000000E+00 0. -1.
</event>
<event>
 7    1  0.2840156E-009  0.1482922E+03  0.7561462E-02  0.1202587E+00
          2   -1    0    0  501    0  0.00000000000E+00  0.00000000000E+00  0.18072937499E+04  0.18072937499E+04  0.00000000000E+00 0. -1.
         -2   -1    0    0    0  501 -0.00000000000E+00 -0.00000000000E+00 -0.17102774567E+02  0.17102774567E+02  0.00000000000E+00 0.  1.
         25    2    1    2    0    0 -0.82548681615E+02 -0.65439112131E+02  0.14082986735E+04  0.14177616226E+04  0.12508518144E+03 0.  0.
          5    1    3    3  502    0 -0.47708156759E+01  0.32824569802E+02  0.45927947206E+03  0.46049464592E+03  0.41800000000E+01 0. -1.
         -5    1    3    3    0  502 -0.77777865939E+02 -0.98263681933E+02  0.94901920142E+03  0.95726697670E+03  0.41800000000E+01 0. -1.
        -11    1    1    2    0    0  0.43017098198E+02 -0.17063767653E+02  0.98238220358E+02  0.10859277528E+03  0.00000000000E+00 0.  1.
         11    1    1    2    0    0  0.39531583417E+02  0.82502879784E+02  0.28365408149E+03  0.29804212656E+03  0.00000000000E+00 0. -1.
</event>
<event>
 7    1  0.2840156E-009  0.9797282E+02  0.7561462E-02  0.1284618E+00
         -1   -1    0    0    0  501 -0.00000000000E+00  0.00000000000E+00  0.15450736359E+02  0.15450736359E+02  0.00000000000E+00 0.  1.
          1   -1    0    0  501    0  0.00000000000E+00 -0.00000000000E+00 -0.84139443106E+03  0.84139443106E+03  0.00000000000E+00 0. -1.
         25    2    1    2    0    0  0.10184849522E+02 -0.74728037075E+01 -0.58889775835E+03  0.60217128668E+03  0.12510041871E+03 0.  0.
          5    1    3    3  502    0  0.16886733383E+02  0.47366433760E+02 -0.44702071997E+03  0.44985968623E+03  0.41800000000E+01 0. -1.
         -5    1    3    3    0  502 -0.67018838610E+01 -0.54839237468E+02 -0.14187703838E+03  0.15231160045E+03  0.41800000000E+01 0. -1.
        -11    1    1    2    0    0 -0.12638483877E+02  0.47920154170E+02 -0.97628038383E+02  0.10948655775E+03  0.00000000000E+00 0. -1.
         11    1    1    2    0    0  0.24536343545E+01 -0.40447350462E+02 -0.13941789797E+03  0.14518732298E+03  0.00000000000E+00 0.  1.
</event>
<event>
 7    1  0.2840156E-009  0.2207821E+03  0.7561462E-02  0.1133301E+00
          2   -1    0    0  501    0  0.00000000000E+00  0.00000000000E+00  0.48437782777E+02  0.48437782777E+02  0.00000000000E+00 0. -1.
         -2   -1    0    0    0  501 -0.00000000000E+00 -0.00000000000E+00 -0.10477166685E+04  0.10477166685E+04  0.00000000000E+00 0.  1.
         25    2    1    2    0    0  0.63319802079E+01  0.19540886312E+03 -0.57573074385E+03  0.62075610107E+03  0.12509008691E+03 0.  0.
          5    1    3    3  502    0  0.59671866752E+02  0.11475319215E+03 -0.25840289101E+03  0.28899576688E+03  0.41800000000E+01 0. -1.
         -5    1    3    3    0  502 -0.53339886544E+02  0.80655670967E+02 -0.31732785284E+03  0.33176033419E+03  0.41800000000E+01 0. -1.
        -11    1    1    2    0    0  0.34942942943E+02 -0.33960990124E+02 -0.82490234944E+02  0.95807082060E+02  0.00000000000E+00 0.  1.
         11    1    1    2    0    0 -0.41274923151E+02 -0.16144787299E+03 -0.34105790692E+03  0.37959126814E+03  0.00000000000E+00 0. -1.
</event>
<event>
 7    1  0.2999022E-009  0.2481469E+03  0.7561462E-02  0.1114482E+00
         -1   -1    0    0    0  501 -0.00000000000E+00  0.00000000000E+00  0.32049566375E+03  0.32049566375E+03  0.00000000000E+00 0. -1.
          1   -1    0    0  501    0  0.00000000000E+00 -0.00000000000E+00 -0.19787639555E+03  0.19787639555E+03  0.00000000000E+00 0.  1.
         25    2    1    2    0    0 -0.18890703794E+03 -0.12061658728E+03  0.26842676654E+02  0.25807286646E+03  0.12508734948E+03 0.  0.
          5    1    3    3  502    0 -0.16718363062E+03 -0.40179169777E+02  0.60713152344E+01  0.17210190383E+03  0.41800000000E+01 0. -1.
         -5    1    3    3    0  502 -0.21723407321E+02 -0.80437417506E+02  0.20771361420E+02  0.85970962632E+02  0.41800000000E+01 0. -1.
        -11    1    1    2    0    0  0.14780883995E+03  0.44483805062E+02  0.49012345638E+02  0.16195206731E+03  0.00000000000E+00 0.  1.
         11    1    1    2    0    0  0.41098197994E+02  0.76132782220E+02  0.46764245907E+02  0.98347125541E+02  0.00000000000E+00 0. -1.
</event>
<event>
 7    1  0.2840156E-009  0.1075160E+03  0.7561462E-02  0.1265240E+00
          1   -1    0    0  501    0  0.00000000000E+00  0.00000000000E+00  0.22288830066E+03  0.22288830066E+03  0.00000000000E+00 0. -1.
         -1   -1    0    0    0  501 -0.00000000000E+00 -0.00000000000E+00 -0.62547742824E+02  0.62547742824E+02  0.00000000000E+00 0.  1.
         25    2    1    2    0    0 -0.24221616248E+02  0.20628632362E+02  0.13092529030E+03  0.18385036889E+03  0.12508916553E+03 0.  0.
          5    1    3    3  502    0  0.48718206069E+02 -0.97048219578E+01  0.54408532936E+02  0.73793007989E+02  0.41800000000E+01 0.  1.
         -5    1    3    3    0  502 -0.72939822317E+02  0.30333454319E+02  0.76516757365E+02  0.11005736090E+03  0.41800000000E+01 0.  1.
        -11    1    1    2    0    0 -0.23554699930E+02  0.13695505750E+02 -0.11866117712E+02  0.29718605554E+02  0.00000000000E+00 0.  1.
         11    1    1    2    0    0  0.47776316177E+02 -0.34324138111E+02  0.41281385247E+02  0.71867069040E+02  0.00000000000E+00 0. -1.
</event>
<event>
 7    1  0.2840156E-009  0.1075087E+03  0.7561462E-02  0.1265254E+00
          2   -1    0    0  501    0  0.00000000000E+00  0.00000000000E+00  0.27321898862E+03  0.27321898862E+03  0.00000000000E+00 0.  1.
         -2   -1    0    0    0  501 -0.00000000000E+00 -0.00000000000E+00 -0.76666360963E+02  0.76666360963E+02  0.00000000000E+00 0. -1.
         25    2    1    2    0    0  0.51575367043E+02  0.67239187227E+02  0.15698007786E+03  0.21787881683E+03  0.12508919695E+03 0.  0.
          5    1    3    3  502    0  0.77426597686E+01 -0.31570591756E+01 -0.20172129184E+02  0.22232926005E+02  0.41800000000E+01 0. -1.
         -5    1    3    3    0  502  0.43832707274E+02  0.70396246403E+02  0.17715220705E+03  0.19564589082E+03  0.41800000000E+01 0. -1.
        -11    1    1    2    0    0  0.13815118401E+02 -0.54233263584E+02  0.31944201040E+01  0.56056299336E+02  0.00000000000E+00 0. -1.
         11    1    1    2    0    0 -0.65390485444E+02 -0.13005923642E+02  0.36378129688E+02  0.75950233416E+02  0.00000000000E+00 0.  1.
</event>
<event>
 7    1  0.2840156E-009  0.1190206E+03  0.7561462E-02  0.1244722E+00
         -2   -1    0    0    0  501 -0.00000000000E+00  0.00000000000E+00  0.18194093910E+02  0.18194093910E+02  0.00000000000E+00 0.  1.
          2   -1    0    0  501    0  0.00000000000E+00 -0.00000000000E+00 -0.90974293968E+03  0.90974293968E+03  0.00000000000E+00 0. -1.
         25    2    1    2    0    0  0.33832640720E+02 -0.38610348426E+02 -0.65741559930E+03  0.67117879659E+03  0.12510115989E+03 0.  0.
          5    1    3    3  502    0  0.48350030119E+02 -0.77740527082E+02 -0.49643927175E+03  0.50482743378E+03  0.41800000000E+01 0. -1.
         -5    1    3    3    0  502 -0.14517389399E+02  0.39130178657E+02 -0.16097632755E+03  0.16635136281E+03  0.41800000000E+01 0. -1.
        -11    1    1    2    0    0  0.25696511218E+02  0.36813470311E+02 -0.84019512616E+02  0.95261853778E+02  0.00000000000E+00 0.  1.
         11    1    1    2    0    0 -0.59529151938E+02  0.17968781149E+01 -0.15011373385E+03  0.16149638321E+03  0.00000000000E+00 0. -1.
</event>
<event>
 7    1  0.2840156E-009  0.1507740E+03  0.7561462E-02  0.1199525E+00
          2   -1    0    0  501    0  0.00000000000E+00  0.00000000000E+00  0.43144096891E+03  0.43144096891E+03  0.00000000000E+00 0. -1.
         -2   -1    0    0    0  501 -0.00000000000E+00 -0.00000000000E+00 -0.10348605045E+03  0.10348605045E+03  0.00000000000E+00 0.  1.
         25    2    1    2    0    0  0.10275471015E+03 -0.82528617028E+02  0.32691653250E+03  0.37402215115E+03  0.12509455319E+03 0.  0.
          5    1    3    3  502    0  0.71450831587E+02  0.25298193199E+01  0.23162359029E+03  0.24244294442E+03  0.41800000000E+01 0.  1.
         -5    1    3    3    0  502  0.31303878567E+02 -0.85058436348E+02  0.95292942213E+02  0.13157920673E+03  0.41800000000E+01 0.  1.
        -11    1    1    2    0    0 -0.63319597546E+02  0.76498422404E+02  0.38186582719E+02  0.10639358610E+03  0.00000000000E+00 0. -1.
         11    1    1    2    0    0 -0.39435112608E+02  0.60301946243E+01 -0.37148196765E+02  0.54511282103E+02  0.00000000000E+00 0.  1.
</event>
<event>
 7    1  0.2840156E-009  0.1018080E+03  0.7561462E-02  0.1276539E+00
         -1   -1    0    0    0  501 -0.00000000000E+00  0.00000000000E+00  0.20994885215E+03  0.20994885215E+03  0.00000000000E+00 0.  1.
          1   -1    0    0  501    0  0.00000000000E+00 -0.00000000000E+00 -0.63702913230E+02  0.63702913230E+02  0.00000000000E+00 0. -1.
         25    2    1    2    0    0 -0.32804354011E+02 -0.87564327991E+01  0.59280533762E+02  0.14252978940E+03  0.12509100057E+03 0.  0.
          5    1    3    3  502    0  0.47899573306E+01  0.52308152461E+02  0.58722340968E+01  0.53019261013E+02  0.41800000000E+01 0. -1.
         -5    1    3    3    0  502 -0.37594311342E+02 -0.61064585260E+02  0.53408299665E+02  0.89510528382E+02  0.41800000000E+01 0. -1.
        -11    1    1    2    0    0  0.39925302034E+01  0.37900600740E+02  0.81249682905E+02  0.89743561363E+02  0.00000000000E+00 0.  1.
         11    1    1    2    0    0  0.28811823808E+02 -0.29144167940E+02  0.57157222585E+01  0.41378414626E+02  0.00000000000E+00 0. -1.
</event>
<event>
 7    1  0.2840156E-009  0.8032466E+02  0.7561462E-02  0.1328133E+00
         -2   -1    0    0    0  501 -0.00000000000E+00  0.00000000000E+00  0.50337292162E+02  0.50337292162E+02  0.00000000000E+00 0. -1.
          2   -1    0    0  501    0  0.00000000000E+00 -0.00000000000E+00 -0.28932464344E+03  0.28932464344E+03  0.00000000000E+00 0.  1.
         25    2    1    2    0    0 -0.41012925198E+02 -0.20536197264E+02 -0.12003634773E+03  0.17933373885E+03  0.12509224469E+03 0.  0.
          5    1    3    3  502    0  0.12702313053E+02 -0.21886271438E+02  0.17877070550E+02  0.31263711964E+02  0.41800000000E+01 0.  1.
         -5    1    3    3    0  502 -0.53715238251E+02  0.13500741734E+01 -0.13791341828E+03  0.14807002688E+03  0.41800000000E+01 0.  1.
        -11    1    1    2    0    0 -0.17924080787E+02  0.11962184827E+02  0.56044958862E+01  0.22266048415E+02  0.00000000000E+00 0. -1.
         11    1    1    2    0    0  0.58937005985E+02  0.85740124374E+01 -0.12455549944E+03  0.13806214834E+03  0.00000000000E+00 0.  1.
</event>
<event>
 7    1  0.2840156E-009  0.9543880E+02  0.7561462E-02  0.1290191E+00
          1   -1    0    0  501    0  0.00000000000E+00  0.00000000000E+00  0.54782426699E+02  0.54782426699E+02  0.00000000000E+00 0. -1.
         -1   -1    0    0    0  501 -0.00000000000E+00 -0.00000000000E+00 -0.27871859337E+03  0.27871859337E+03  0.00000000000E+00 0.  1.
         25    2    1    2    0    0 -0.17143426035E+02 -0.31881680793E+02 -0.17434866836E+03  0.21761027105E+03  0.12508570374E+03 0.  0.
          5    1    3    3  502    0 -0.37472966394E+02  0.39837837647E+02 -0.85150118841E+02  0.10128816149E+03  0.41800000000E+01 0.  1.
         -5    1    3    3    0  502  0.20329540359E+02 -0.71719518440E+02 -0.89198549517E+02  0.11632210956E+03  0.41800000000E+01 0.  1.
        -11    1    1    2    0    0  0.45650942459E+01 -0.13510321878E+02 -0.64832649559E+02  0.66382537851E+02  0.00000000000E+00 0.  1.
         11    1    1    2    0    0  0.12578331789E+02  0.45392002670E+02  0.15245151245E+02  0.49508211172E+02  0.00000000000E+00 0. -1.
</event>
<event>
 7    1  0.2840156E-009  0.1410952E+03  0.7561462E-02  0.1211863E+00
          2   -1    0    0  501    0  0.00000000000E+00  0.00000000000E+00  0.32992554371E+03  0.32992554371E+03  0.00000000000E+00 0.  1.
         -2   -1    0    0    0  501 -0.00000000000E+00 -0.00000000000E+00 -0.76166479561E+02  0.76166479561E+02  0.00000000000E+00 0. -1.
         25    2    1    2    0    0 -0.11235368675E+03 -0.18177446622E+02  0.10547624827E+03  0.19932044937E+03  0.12509848959E+03 0.  0.
          5    1    3    3  502    0 -0.12624813036E+03  0.19293691470E+02  0.69895555434E+02  0.14564922938E+03  0.41800000000E+01 0.  1.
         -5    1    3    3    0  502  0.13894443608E+02 -0.37471138092E+02  0.35580692834E+02  0.53671219994E+02  0.41800000000E+01 0.  1.
        -11    1    1    2    0    0  0.37153645928E+02  0.14172720426E+01 -0.26881048198E+01  0.37277714165E+02  0.00000000000E+00 0. -1.
         11    1    1    2    0    0  0.75200040819E+02  0.16760174580E+02  0.15097092070E+03  0.16949385974E+03  0.00000000000E+00 0.  1.
</event>
<event>
 7    1  0.2840156E-009  0.1053840E+03  0.7561462E-02  0.1269365E+00
          1   -1    0    0  501    0  0.00000000000E+00  0.00000000000E+00  0.17379499263E+03  0.17379499263E+03  0.00000000000E+00 0. -1.
         -1   -1    0    0    0  501 -0.00000000000E+00 -0.00000000000E+00 -0.93321474546E+02  0.93321474546E+02  0.00000000000E+00 0.  1.
         25    2    1    2    0    0 -0.14137966148E+01 -0.39518707314E+02  0.10139001623E+03  0.16579788909E+03  0.12508108404E+03 0.  0.
          5    1    3    3  502    0 -0.39139706699E+02 -0.57511179650E+02  0.17310169647E+02  0.71809238949E+02  0.41800000000E+01 0. -1.
         -5    1    3    3    0  502  0.37725910084E+02  0.17992472336E+02  0.84079846587E+02  0.93988650137E+02  0.41800000000E+01 0. -1.
        -11    1    1    2    0    0 -0.43062721637E+02  0.32708113699E+02 -0.95884207766E+01  0.54919545787E+02  0.00000000000E+00 0. -1.
         11    1    1    2    0    0  0.44476518251E+02  0.68105936150E+01 -0.11328077378E+02  0.46399032298E+02  0.00000000000E+00 0.  1.
</event>
<event>
 7    1  0.4149077E-009  0.1661701E+03  0.7561462E-02  0.1181902E+00
         -2   -1    0    0    0  501 -0.00000000000E+00  0.00000000000E+00  0.50884828734E+02  0.50884828734E+02  0.00000000000E+00 0.  1.
          2   -1    0    0  501    0  0.00000000000E+00 -0.00000000000E+00 -0.10230015468E+04  0.10230015468E+04  0.00000000000E+00 0. -1.
         25    2    1    2    0    0 -0.14306919259E+03  0.47273508185E+02 -0.81357640962E+03  0.83681421848E+03  0.12509150054E+03 0.  0.
          5    1    3    3  502    0 -0.14798886103E+03  0.65013680143E+02 -0.79112895338E+03  0.80748373041E+03  0.41800000000E+01 0.  1.
         -5    1    3    3    0  502  0.49196684418E+01 -0.17740171958E+02 -0.22447456237E+02  0.29330488066E+02  0.41800000000E+01 0.  1.
        -11    1    1    2    0    0  0.78402601613E+02 -0.35383816633E+02 -0.27237399226E+02  0.90226705226E+02  0.00000000000E+00 0.  1.
         11    1    1    2    0    0  0.64666590980E+02 -0.11889691552E+02 -0.13130290922E+03  0.14684545183E+03  0.00000000000E+00 0. -1.
</event>
<event>
 7    1  0.2840156E-009  0.2057676E+03  0.7561462E-02  0.1144962E+00
          2   -1    0    0  501    0  0.00000000000E+00  0.00000000000E+00  0.22320670879E+04  0.22320670879E+04  0.00000000000E+00 0. -1.
         -2   -1    0    0    0  501 -0.00000000000E+00 -0.00000000000E+00 -0.26052508987E+02  0.26052508987E+02  0.00000000000E+00 0.  1.
         25    2    1    2    0    0 -0.18441830852E+03  0.14463375344E+02  0.16476955830E+04  0.16627591138E+04  0.12509130435E+03 0.  0.
          5    1    3    3  502    0 -0.54788913376E+00 -0.29374353393E+02  0.36493482625E+03  0.36613938962E+03  0.41800000000E+01 0.  1.
         -5    1    3    3    0  502 -0.18387041939E+03  0.43837728737E+02  0.12827607568E+04  0.12966197241E+04  0.41800000000E+01 0.  1.
        -11    1    1    2    0    0  0.11423829174E+03  0.17680945902E+02  0.22196640941E+03  0.25026404067E+03  0.00000000000E+00 0. -1.
         11    1    1    2    0    0  0.70180016784E+02 -0.32144321246E+02  0.33635258655E+03  0.34509644249E+03  0.00000000000E+00 0.  1.
</event>
<event>
 7    1  0.2840156E-009  0.1004447E+03  0.7561462E-02  0.1279364E+00
          1   -1    0    0  501    0  0.00000000000E+00  0.00000000000E+00  0.44247841651E+03  0.44247841651E+03  0.00000000000E+00 0. -1.
         -1   -1    0    0    0  501 -0.00000000000E+00 -0.00000000000E+00 -0.45059267798E+02  0.45059267798E+02  0.00000000000E+00 0.  1.
         25    2    1    2    0    0 -0.86822916547E+02 -0.69998378828E+01  0.26049701679E+03  0.30181766466E+03  0.12509192771E+03 0.  0.
          5    1    3    3  502    0 -0.87108221104E+02 -0.12621501914E+02  0.73661053737E+02  0.11485019692E+03  0.41800000000E+01 0.  1.
         -5    1    3    3    0  502  0.28530455725E+00  0.56216640313E+01  0.18683596305E+03  0.18696746774E+03  0.41800000000E+01 0.  1.
        -11    1    1    2    0    0  0.71660148960E+02 -0.20346214674E+02  0.41429077542E+02  0.85237983707E+02  0.00000000000E+00 0. -1.
         11    1    1    2    0    0  0.15162767587E+02  0.27346052557E+02  0.95493054384E+02  0.10048203594E+03  0.00000000000E+00 0.  1.
</event>
<event>
 7    1  0.2840156E-009  0.1066341E+03  0.7561462E-02  0.1266933E+00
         -1   -1    0    0    0  501 -0.00000000000E+00  0.00000000000E+00  0.14926922328E+03  0.14926922328E+03  0.00000000000E+00 0.  1.
          1   -1    0    0  501    0  0.00000000000E+00 -0.00000000000E+00 -0.11100690237E+03  0.11100690237E+03  0.00000000000E+00 0. -1.
         25    2    1    2    0    0 -0.38417757791E+02 -0.46016536976E+02  0.56306578711E+02  0.14969793822E+03  0.12508235732E+03 0.  0.
          5    1    3    3  502    0  0.25914435766E+02 -0.56800329827E+00  0.65231394376E+02  0.70317052135E+02  0.41800000000E+01 0. -1.
         -5    1    3    3    0  502 -0.64332193557E+02 -0.45448533677E+02 -0.89248156649E+01  0.79380886087E+02  0.41800000000E+01 0. -1.
        -11    1    1    2    0    0  0.52220059354E+02  0.65805826477E+02 -0.20050996579E+02  0.86367724649E+02  0.00000000000E+00 0.  1.
         11    1    1    2    0    0 -0.13802301563E+02 -0.19789289501E+02  0.20067387854E+01  0.24210462778E+02  0.00000000000E+00 0. -1.
</event>
<event>
 7    1  0.2840156E-009  0.9971828E+02  0.7561462E-02  0.1280889E+00
          2   -1    0    0  501    0  0.00000000000E+00  0.00000000000E+00  0.34771888401E+03  0.34771888401E+03  0.00000000000E+00 0. -1.
         -2   -1    0    0    0  501 -0.00000000000E+00 -0.00000000000E+00 -0.62566604508E+02  0.62566604508E+02  0.00000000000E+00 0.  1.
         25    2    1    2    0    0  0.17712067770E+02  0.39580115980E+02  0.27975057243E+03  0.30949383775E+03  0.12508297208E+03 0.  0.
          5    1    3    3  502    0 -0.11267200012E+02  0.62112639788E+02  0.26002803192E+03  0.26761348920E+03  0.41800000000E+01 0.  1.
         -5    1    3    3    0  502  0.28979267783E+02 -0.22532523808E+02  0.19722540507E+02  0.41880348547E+02  0.41800000000E+01 0.  1.
        -11    1    1    2    0    0  0.33343087999E+02 -0.34402605306E+02  0.11042923731E+02  0.49165505527E+02  0.00000000000E+00 0. -1.
         11    1    1    2    0    0 -0.51055155770E+02 -0.51775106735E+01 -0.56412166547E+01  0.51626145244E+02  0.00000000000E+00 0.  1.
</event>
<event>
 7    1  0.2840156E-009  0.1107854E+03  0.7561462E-02  0.1259122E+00
          1   -1    0    0  501    0  0.00000000000E+00  0.00000000000E+00  0.39128366997E+02  0.39128366997E+02  0.00000000000E+00 0. -1.
         -1   -1    0    0    0  501 -0.00000000000E+00 -0.00000000000E+00 -0.38795886040E+03  0.38795886040E+03  0.00000000000E+00 0.  1.
         25    2    1    2    0    0  0.56460271516E+02 -0.46618980482E+01 -0.17799710909E+03  0.22480892583E+03  0.12508631714E+03 0.  0.
          5    1    3    3  502    0  0.33865178750E+02  0.51419343478E+02 -0.14071885502E+03  0.15365567928E+03  0.41800000000E+01 0. -1.
         -5    1    3    3    0  502  0.22595092765E+02 -0.56081241526E+02 -0.37278254064E+02  0.71153246548E+02  0.41800000000E+01 0. -1.
        -11    1    1    2    0    0 -0.22319422811E+02  0.42675089924E+02 -0.42811722035E+02  0.64437283294E+02  0.00000000000E+00 0. -1.
         11    1    1    2    0    0 -0.34140848705E+02 -0.38013191876E+02 -0.12802166228E+03  0.13784101828E+03  0.00000000000E+00 0.  1.
</event>
<event>
 7    1  0.2840156E-009  0.1519343E+03  0.7561462E-02  0.1198116E+00
         -1   -1    0    0    0  501 -0.00000000000E+00  0.00000000000E+00  0.75818988975E+02  0.75818988975E+02  0.00000000000E+00 0.  1.
          1   -1    0    0  501    0  0.00000000000E+00 -0.00000000000E+00 -0.51691476073E+03  0.51691476073E+03  0.00000000000E+00 0. -1.
         25    2    1    2    0    0  0.12043737854E+03 -0.19639121976E+02 -0.39199272147E+03  0.42918141950E+03  0.12509012708E+03 0.  0.
          5    1    3    3  502    0  0.93621835934E+02  0.33063863370E+02 -0.14926977589E+03  0.17932430292E+03  0.41800000000E+01 0. -1.
         -5    1    3    3    0  502  0.26815542602E+02 -0.52702985346E+02 -0.24272294559E+03  0.24985711658E+03  0.41800000000E+01 0. -1.
        -11    1    1    2    0    0  0.68918484962E+01  0.16457761151E+02 -0.29794005156E+02  0.34728061003E+02  0.00000000000E+00 0. -1.
         11    1    1    2    0    0 -0.12732922703E+03  0.31813608251E+01 -0.19309045129E+02  0.12882426921E+03  0.00000000000E+00 0.  1.
</event>
<event>
 7    1  0.2840156E-009  0.1789937E+03  0.7561462E-02  0.1168780E+00
          1   -1    0    0  501    0  0.00000000000E+00  0.00000000000E+00  0.34373572459E+03  0.34373572459E+03  0.00000000000E+00 0. -1.
         -1   -1    0    0    0  501 -0.00000000000E+00 -0.00000000000E+00 -0.13121130273E+03  0.13121130273E+03  0.00000000000E+00 0.  1.
         25    2    1    2    0    0  0.25204452852E+02 -0.17426131021E+03  0.15688733261E+03  0.26695282524E+03  0.12509159480E+03 0.  0.
          5    1    3    3  502    0  0.30130381513E+02 -0.58517422443E+02 -0.68790884562E+01  0.66309297067E+02  0.41800000000E+01 0.  1.
         -5    1    3    3    0  502 -0.49259286615E+01 -0.11574388777E+03  0.16376642107E+03  0.20064352817E+03  0.41800000000E+01 0.  1.
        -11    1    1    2    0    0 -0.15199544113E+02  0.11699202683E+03  0.82491548155E+02  0.14395490960E+03  0.00000000000E+00 0.  1.
         11    1    1    2    0    0 -0.10004908738E+02  0.57269283383E+02 -0.26854458909E+02  0.64039292480E+02  0.00000000000E+00 0. -1.
</event>
<event>
 7    1  0.2840156E-009  0.1195760E+03  0.7561462E-02  0.1243798E+00
         -4   -1    0    0    0  501 -0.00000000000E+00  0.00000000000E+00  0.22107523712E+03  0.22107523712E+03  0.00000000000E+00 0. -1.
          4   -1    0    0  501    0  0.00000000000E+00 -0.00000000000E+00 -0.76661595275E+02  0.76661595275E+02  0.00000000000E+00 0.  1.
         25    2    1    2    0    0 -0.54272469929E+02  0.45939123777E+02  0.71955327658E+02  0.16087608749E+03  0.12509053626E+03 0.  0.
          5    1    3    3  502    0  0.34929220679E+02  0.37469277005E+01  0.47323819709E+02  0.59085583997E+02  0.41800000000E+01 0.  1.
         -5    1    3    3    0  502 -0.89201690607E+02  0.42192196076E+02  0.24631507949E+02  0.10179050349E+03  0.41800000000E+01 0.  1.
        -11    1    1    2    0    0  0.71105682054E+02 -0.19612140115E+02  0.21059261009E+02  0.76708190792E+02  0.00000000000E+00 0.  1.
         11    1    1    2    0    0 -0.16833212126E+02 -0.26326983662E+02  0.51399053182E+02  0.60152554120E+02  0.00000000000E+00 0. -1.
</event>
<event>
 7    1  0.2840156E-009  0.1147483E+03  0.7561462E-02  0.1252021E+00
         -1   -1    0    0    0  501 -0.00000000000E+00  0.00000000000E+00  0.17918550291E+02  0.17918550291E+02  0.00000000000E+00 0.  1.
          1   -1    0    0  501    0  0.00000000000E+00 -0.00000000000E+00 -0.14470410372E+04  0.14470410372E+04  0.00000000000E+00 0. -1.
         25    2    1    2    0    0 -0.94565509987E+02  0.55993449795E+01 -0.10975229142E+04  0.11086830660E+04  0.12509038875E+03 0.  0.
          5    1    3    3  502    0 -0.64524922708E+02 -0.16203766595E+02 -0.20894921515E+03  0.21932458734E+03  0.41800000000E+01 0.  1.
         -5    1    3    3    0  502 -0.30040587279E+02  0.21803111574E+02 -0.88857369907E+03  0.88935847870E+03  0.41800000000E+01 0.  1.
        -11    1    1    2    0    0  0.72478359524E+02 -0.41361882512E+02 -0.17112364898E+03  0.19038702993E+03  0.00000000000E+00 0.  1.
         11    1    1    2    0    0  0.22087150463E+02  0.35762537532E+02 -0.16047592375E+03  0.16588949156E+03  0.00000000000E+00 0. -1.
</event>
<event>
 7    1  0.2840156E-009  0.1031381E+03  0.7561462E-02  0.1273832E+00
          2   -1    0    0  501    0  0.00000000000E+00  0.00000000000E+00  0.49010234391E+03  0.49010234391E+03  0.00000000000E+00 0. -1.
         -2   -1    0    0    0  501 -0.00000000000E+00 -0.00000000000E+00 -0.47377289740E+02  0.47377289740E+02  0.00000000000E+00 0.  1.
         25    2    1    2    0    0  0.41232498028E+01 -0.10136615431E+03  0.18143019132E+03  0.24260315002E+03  0.12508907086E+03 0.  0.
          5    1    3    3  502    0  0.93008153719E+01 -0.82950944753E+02  0.19928743893E+03  0.21610256851E+03  0.41800000000E+01 0.  1.
         -5    1    3    3    0  502 -0.51775655690E+01 -0.18415209560E+02 -0.17857247608E+02  0.26500581512E+02  0.41800000000E+01 0.  1.
        -11    1    1    2    0    0 -0.99470605132E+01  0.32007908876E+02  0.11297180144E+02  0.35370560113E+02  0.00000000000E+00 0. -1.
         11    1    1    2    0    0  0.58238107104E+01  0.69358245436E+02  0.24999768270E+03  0.25950592351E+03  0.00000000000E+00 0.  1.
</event>
<event>
 7    1  0.2840156E-009  0.2017329E+03  0.7561462E-02  0.1148285E+00
          2   -1    0    0  501    0  0.00000000000E+00  0.00000000000E+00  0.89280031269E+03  0.89280031269E+03  0.00000000000E+00 0.  1.
         -2   -1    0    0    0  501 -0.00000000000E+00 -0.00000000000E+00 -0.69802587432E+02  0.69802587432E+02  0.00000000000E+00 0. -1.
         25    2    1    2    0    0  0.17933894335E+03 -0.77437383173E+02  0.63633234564E+03  0.67728965677E+03  0.12507365890E+03 0.  0.
          5    1    3    3  502    0  0.88752640632E+02 -0.74683820799E+02  0.19668814203E+03  0.22838214012E+03  0.41800000000E+01 0.  1.
         -5    1    3    3    0  502  0.90586302720E+02 -0.27535623733E+01  0.43964420361E+03  0.44890751666E+03  0.41800000000E+01 0.  1.
        -11    1    1    2    0    0 -0.95697171241E+02  0.28895044418E+02  0.15329793886E+03  0.18301128444E+03  0.00000000000E+00 0.  1.
         11    1    1    2    0    0 -0.83641772111E+02  0.48542338755E+02  0.33367440767E+02  0.10230195891E+03  0.00000000000E+00 0. -1.
</event>
<event>
 7    1  0.2840156E-009  0.1524903E+03  0.7561462E-02  0.1197446E+00
         -2   -1    0    0    0  501 -0.00000000000E+00  0.00000000000E+00  0.19443211341E+03  0.19443211341E+03  0.00000000000E+00 0.  1.
          2   -1    0    0  501    0  0.00000000000E+00 -0.00000000000E+00 -0.12768487513E+03  0.12768487513E+03  0.00000000000E+00 0. -1.
         25    2    1    2    0    0  0.49392825877E+01  0.10757845550E+03 -0.21320241840E+01  0.16507150062E+03  0.12508610710E+03 0.  0.
          5    1    3    3  502    0  0.52102011971E+02  0.56726526709E+01  0.21698644484E+01  0.52621092268E+02  0.41800000000E+01 0. -1.
         -5    1    3    3    0  502 -0.47162729383E+02  0.10190580283E+03 -0.43018886324E+01  0.11245040835E+03  0.41800000000E+01 0. -1.
        -11    1    1    2    0    0  0.42207996691E+02 -0.45175942766E+02  0.40182755498E+02  0.73736250439E+02  0.00000000000E+00 0.  1.
         11    1    1    2    0    0 -0.47147279279E+02 -0.62402512731E+02  0.28696506969E+02  0.83309237487E+02  0.00000000000E+00 0. -1.
</event>
<event>
 7    1  0.2840156E-009  0.1219449E+03  0.7561462E-02  0.1239923E+00
         -2   -1    0    0    0  501 -0.00000000000E+00  0.00000000000E+00  0.95293118869E+02  0.95293118869E+02  0.00000000000E+00 0.  1.
          2   -1    0    0  501    0  0.00000000000E+00 -0.00000000000E+00 -0.29718570777E+03  0.29718570777E+03  0.00000000000E+00 0. -1.
         25    2    1    2    0    0 -0.66282957866E+02  0.15068663887E+02 -0.23447086005E+03  0.27430782876E+03  0.12509078931E+03 0.  0.
          5    1    3    3  502    0  0.99826970652E+01  0.48335153994E+02 -0.43366197956E+02  0.65833432825E+02  0.41800000000E+01 0.  1.
         -5    1    3    3    0  502 -0.76265654931E+02 -0.33266490106E+02 -0.19110466209E+03  0.20847439593E+03  0.41800000000E+01 0.  1.
        -11    1    1    2    0    0  0.39541044650E+02 -0.52077851584E+02  0.31300080917E+02  0.72493392134E+02  0.00000000000E+00 0. -1.
         11    1    1    2    0    0  0.26741913216E+02  0.37009187697E+02  0.12781902331E+01  0.45677605746E+02  0.00000000000E+00 0.  1.
</event>
<event>
 7    1  0.2840156E-009  0.1199495E+03  0.7561462E-02  0.1243180E+00
          2   -1    0    0  501    0  0.00000000000E+00  0.00000000000E+00  0.16184367215E+03  0.16184367215E+03  0.00000000000E+00 0. -1.
         -2   -1    0    0    0  501 -0.00000000000E+00 -0.00000000000E+00 -0.99332052986E+02  0.99332052986E+02  0.00000000000E+00 0.  1.
         25    2    1    2    0    0 -0.43114960268E+02  0.48246572896E+02  0.12361344474E+02  0.14138083065E+03  0.12509638222E+03 0.  0.
          5    1    3    3  502    0 -0.83702821583E+02  0.53818111695E+02  0.10603489099E+02  0.10016215787E+03  0.41800000000E+01 0. -1.
         -5    1    3    3    0  502  0.40587861315E+02 -0.55715387986E+01  0.17578553750E+01  0.41218672786E+02  0.41800000000E+01 0. -1.
        -11    1    1    2    0    0  0.44915812964E+02  0.55806359983E+01 -0.13442825251E+01  0.45281131256E+02  0.00000000000E+00 0.  1.
         11    1    1    2    0    0 -0.18008526957E+01 -0.53827208895E+02  0.51494557217E+02  0.74513763231E+02  0.00000000000E+00 0. -1.
</event>
<event>
 7    1  0.2840156E-009  0.1295578E+03  0.7561462E-02  0.1228113E+00
          1   -1    0    0  501    0  0.00000000000E+00  0.00000000000E+00  0.10230145051E+03  0.10230145051E+03  0.00000000000E+00 0. -1.
         -1   -1    0    0    0  501 -0.00000000000E+00 -0.00000000000E+00 -0.17535595738E+03  0.17535595738E+03  0.00000000000E+00 0.  1.
         25    2    1    2    0    0  0.21983095676E+02 -0.70935756471E+02 -0.14950987685E+02  0.14623903597E+03  0.12508871079E+03 0.  0.
          5    1    3    3  502    0  0.71213387709E+02 -0.26491909799E+02 -0.22507761596E+02  0.79355148578E+02  0.41800000000E+01 0. -1.
         -5    1    3    3    0  502 -0.49230292034E+02 -0.44443846672E+02  0.75567739110E+01  0.66883887392E+02  0.41800000000E+01 0. -1.
        -11    1    1    2    0    0  0.35201224833E+02  0.29795150486E+02 -0.13555601172E+02  0.48069028962E+02  0.00000000000E+00 0.  1.
         11    1    1    2    0    0 -0.57184320508E+02  0.41140605985E+02 -0.44547918011E+02  0.83349342960E+02  0.00000000000E+00 0. -1.
</event>
<event>
 7    1  0.2840156E-009  0.1400775E+03  0.7561462E-02  0.1213225E+00
          2   -1    0    0  501    0  0.00000000000E+00  0.00000000000E+00  0.49786637899E+03  0.49786637899E+03  0.00000000000E+00 0. -1.
         -2   -1    0    0    0  501 -0.00000000000E+00 -0.00000000000E+00 -0.49128490693E+02  0.49128490693E+02  0.00000000000E+00 0.  1.
         25    2    1    2    0    0 -0.87785819457E+02 -0.23952260020E+02  0.12699983643E+03  0.20013882749E+03  0.12508609418E+03 0.  0.
          5    1    3    3  502    0 -0.60095563989E+02 -0.72679047453E+02  0.10089840333E+03  0.13817264904E+03  0.41800000000E+01 0. -1.
         -5    1    3    3    0  502 -0.27690255469E+02  0.48726787433E+02  0.26101433109E+02  0.61966178451E+02  0.41800000000E+01 0. -1.
        -11    1    1    2    0    0  0.28208049599E+02 -0.35530687223E+02  0.10882008603E+03  0.11789798523E+03  0.00000000000E+00 0.  1.
         11    1    1    2    0    0  0.59577769858E+02  0.59482947243E+02  0.21291796583E+03  0.22895805696E+03  0.00000000000E+00 0. -1.
</event>
<event>
 7    1  0.2840156E-009  0.4613925E+02  0.7561462E-02  0.1467352E+00
         -1   -1    0    0    0  501 -0.00000000000E+00  0.00000000000E+00  0.14432680117E+02  0.14432680117E+02  0.00000000000E+00 0.  1.
          1   -1    0    0  501    0  0.00000000000E+00 -0.00000000000E+00 -0.93427921011E+03  0.93427921011E+03  0.00000000000E+00 0. -1.
         25    2    1    2    0    0 -0.16808538818E+02  0.23390757829E+02 -0.77462827232E+03  0.78519164766E+03  0.12508920313E+03 0.  0.
          5    1    3    3  502    0 -0.87096614730E+01 -0.13477309514E+01  0.35430695867E+00  0.97607640640E+01  0.41800000000E+01 0. -1.
         -5    1    3    3    0  502 -0.80988773451E+01  0.24738488781E+02 -0.77498257928E+03  0.77543088360E+03  0.41800000000E+01 0. -1.
        -11    1    1    2    0    0 -0.25200742968E+01 -0.34012264300E+02 -0.27662547668E+02  0.43913567843E+02  0.00000000000E+00 0.  1.
         11    1    1    2    0    0  0.19328613115E+02  0.10621506470E+02 -0.11755571000E+03  0.11960667472E+03  0.00000000000E+00 0. -1.
</event>
<event>
 7    1  0.2840156E-009  0.1871771E+03  0.7561462E-02  0.1161032E+00
         -2   -1    0    0    0  501 -0.00000000000E+00  0.00000000000E+00  0.46303371489E+03  0.46303371489E+03  0.00000000000E+00 0.  1.
          2   -1    0    0  501    0  0.00000000000E+00 -0.00000000000E+00 -0.77578149536E+02  0.77578149536E+02  0.00000000000E+00 0. -1.
         25    2    1    2    0    0 -0.14371093055E+03 -0.53986457668E+02  0.16914201555E+03  0.26042963677E+03  0.12508878892E+03 0.  0.
          5    1    3    3  502    0 -0.78335996525E+02  0.35709414349E+02  0.62655103086E+02  0.10655902105E+03  0.41800000000E+01 0.  1.
         -5    1    3    3    0  502 -0.65374934027E+02 -0.89695872018E+02  0.10648691246E+03  0.15387061572E+03  0.41800000000E+01 0.  1.
        -11    1    1    2    0    0  0.13855148492E+03  0.73546511550E+02  0.18125438343E+03  0.23970555865E+03  0.00000000000E+00 0. -1.
         11    1    1    2    0    0  0.51594456339E+01 -0.19560053881E+02  0.35059166368E+02  0.40476669003E+02  0.00000000000E+00 0.  1.
</event>
<event>
 7    1  0.2840156E-009  0.9833336E+02  0.7561462E-02  0.1283840E+00
          3   -1    0    0  501    0  0.00000000000E+00  0.00000000000E+00  0.36542504100E+03  0.36542504100E+03  0.00000000000E+00 0. -1.
         -3   -1    0    0    0  501 -0.00000000000E+00 -0.00000000000E+00 -0.37700635420E+02  0.37700635420E+02  0.00000000000E+00 0.  1.
         25    2    1    2    0    0  0.26718044039E+01  0.15990551744E+02  0.14472111252E+03  0.19197063898E+03  0.12508273078E+03 0.  0.
          5    1    3    3  502    0 -0.22960618624E+02 -0.43598399003E+02  0.24241110856E+02  0.55073716588E+02  0.41800000000E+01 0. -1.
         -5    1    3    3    0  502  0.25632423028E+02  0.59588950747E+02  0.12048000166E+03  0.13689692240E+03  0.41800000000E+01 0. -1.
        -11    1    1    2    0    0 -0.96095682268E+00  0.33088999560E+02  0.14589190009E+03  0.14960030696E+03  0.00000000000E+00 0. -1.
         11    1    1    2    0    0 -0.17108475812E+01 -0.49079551304E+02  0.37111392971E+02  0.61554730475E+02  0.00000000000E+00 0.  1.
</event>
<event>
 7    1  0.2840156E-009  0.1669461E+03  0.7561462E-02  0.1181071E+00
          2   -1    0    0  501    0  0.00000000000E+00  0.00000000000E+00  0.15566788926E+03  0.15566788926E+03  0.00000000000E+00 0. -1.
         -2   -1    0    0    0  501 -0.00000000000E+00 -0.00000000000E+00 -0.21405928311E+03  0.21405928311E+03  0.00000000000E+00 0.  1.
         25    2    1    2    0    0 -0.14522339075E+03 -0.59696141079E+01 -0.50081828758E+02  0.19819581711E+03  0.12509165773E+03 0.  0.
          5    1    3    3  502    0 -0.14324591983E+02  0.28696843459E+02  0.27170073410E+02  0.42242017578E+02  0.41800000000E+01 0. -1.
         -5    1    3    3    0  502 -0.13089879877E+03 -0.34666457566E+02 -0.77251902167E+02  0.15595379953E+03  0.41800000000E+01 0. -1.
        -11    1    1    2    0    0  0.78293723628E+02 -0.36937390297E+02 -0.25388139665E+02  0.90215495327E+02  0.00000000000E+00 0.  1.
         11    1    1    2    0    0  0.66929667122E+02  0.42907004405E+02  0.17078574576E+02  0.81315859939E+02  0.00000000000E+00 0. -1.
</event>
<event>
 7    1  0.2840156E-009  0.8590332E+02  0.7561462E-02  0.1313087E+00
          3   -1    0    0  501    0  0.00000000000E+00  0.00000000000E+00  0.63365934468E+02  0.63365934468E+02  0.00000000000E+00 0. -1.
         -3   -1    0    0    0  501 -0.00000000000E+00 -0.00000000000E+00 -0.25623988031E+03  0.25623988031E+03  0.00000000000E+00 0.  1.
         25    2    1    2    0    0 -0.42361839792E+02  0.92466616796E+01 -0.16866206690E+03  0.21441654856E+03  0.12509011657E+03 0.  0.
          5    1    3    3  502    0 -0.21864166146E+02 -0.43200592331E+02 -0.15237398416E+02  0.50931165797E+02  0.41800000000E+01 0.  1.
         -5    1    3    3    0  502 -0.20497673646E+02  0.52447254010E+02 -0.15342466848E+03  0.16348538276E+03  0.41800000000E+01 0.  1.
        -11    1    1    2    0    0  0.31724181241E+02 -0.29847267070E+02  0.25403236003E+02  0.50424274178E+02  0.00000000000E+00 0. -1.
         11    1    1    2    0    0  0.10637658551E+02  0.20600605391E+02 -0.49615114945E+02  0.54764992038E+02  0.00000000000E+00 0.  1.
</event>
<event>
 7    1  0.2840156E-009  0.3908298E+03  0.7561462E-02  0.1047002E+00
          2   -1    0    0  501    0  0.00000000000E+00  0.00000000000E+00  0.27312168494E+04  0.27312168494E+04  0.00000000000E+00 0.  1.
         -2   -1    0    0    0  501 -0.00000000000E+00 -0.00000000000E+00 -0.83395932389E+02  0.83395932389E+02  0.00000000000E+00 0. -1.
         25    2    1    2    0    0  0.36321941442E+03  0.13088335402E+03  0.20980581869E+04  0.21369497822E+04  0.12508965125E+03 0.  0.
          5    1    3    3  502    0  0.14404464987E+03  0.58037005921E+02  0.54151173018E+03  0.56335564392E+03  0.41800000000E+01 0. -1.
         -5    1    3    3    0  502  0.21917476454E+03  0.72846348098E+02  0.15565464567E+04  0.15735941383E+04  0.41800000000E+01 0. -1.
        -11    1    1    2    0    0 -0.16599609787E+03 -0.15279911938E+02  0.20933239778E+03  0.26759714681E+03  0.00000000000E+00 0. -1.
         11    1    1    2    0    0 -0.19722331655E+03 -0.11560344208E+03  0.34043033230E+03  0.41006585272E+03  0.00000000000E+00 0.  1.
</event>
<event>
 7    1  0.2840156E-009  0.9102207E+02  0.7561462E-02  0.1300395E+00
         -3   -1    0    0    0  501 -0.00000000000E+00  0.00000000000E+00  0.48878386804E+02  0.48878386804E+02  0.00000000000E+00 0.  1.
          3   -1    0    0  501    0  0.00000000000E+00 -0.00000000000E+00 -0.27802566392E+03  0.27802566392E+03  0.00000000000E+00 0. -1.
         25    2    1    2    0    0 -0.18412904078E+02  0.89367054010E+01 -0.77059703455E+02  0.14833688921E+03  0.12508691005E+03 0.  0.
          5    1    3    3  502    0  0.46000873037E+02 -0.10260063753E+02 -0.64239222081E+02  0.79784079126E+02  0.41800000000E+01 0. -1.
         -5    1    3    3    0  502 -0.64413777115E+02  0.19196769154E+02 -0.12820481373E+02  0.68552810087E+02  0.41800000000E+01 0. -1.
        -11    1    1    2    0    0  0.41950103940E+02  0.68767078502E+00 -0.14668953974E+03  0.15257163950E+03  0.00000000000E+00 0. -1.
         11    1    1    2    0    0 -0.23537199862E+02 -0.96243761861E+01 -0.53980339252E+01  0.25995522010E+02  0.00000000000E+00 0.  1.
</event>
<event>
 7    1  0.2840156E-009  0.1088844E+03  0.7561462E-02  0.1262650E+00
          2   -1    0    0  501    0  0.00000000000E+00  0.00000000000E+00  0.19061155810E+03  0.19061155810E+03  0.00000000000E+00 0. -1.
         -2   -1    0    0    0  501 -0.00000000000E+00 -0.00000000000E+00 -0.72725219090E+02  0.72725219090E+02  0.00000000000E+00 0.  1.
         25    2    1    2    0    0  0.21041385304E+02 -0.25910340824E+02  0.11018418594E+03  0.17001013485E+03  0.12509518561E+03 0.  0.
          5    1    3    3  502    0 -0.47408369449E+02  0.14545194130E+02  0.39394033501E+02  0.63470295742E+02  0.41800000000E+01 0. -1.
         -5    1    3    3    0  502  0.68449754753E+02 -0.40455534954E+02  0.70790152437E+02  0.10653983910E+03  0.41800000000E+01 0. -1.
        -11    1    1    2    0    0 -0.34349700583E+01 -0.29778950556E+02 -0.11104767260E+02  0.31967182726E+02  0.00000000000E+00 0.  1.
         11    1    1    2    0    0 -0.17606415246E+02  0.55689291380E+02  0.18806920330E+02  0.61359459617E+02  0.00000000000E+00 0. -1.
</event>
<event>
 7    1  0.2840156E-009  0.1070161E+03  0.7561462E-02  0.1266198E+00
          2   -1    0    0  501    0  0.00000000000E+00  0.00000000000E+00  0.42861515315E+03  0.42861515315E+03  0.00000000000E+00 0. -1.
         -2   -1    0    0    0  501 -0.00000000000E+00 -0.00000000000E+00 -0.43251411096E+02  0.43251411096E+02  0.00000000000E+00 0.  1.
         25    2    1    2    0    0 -0.72917291469E+02  0.37871096461E+02  0.22002766201E+03  0.26610109095E+03  0.12508583937E+03 0.  0.
          5    1    3    3  502    0 -0.66006902836E+02  0.57530092050E+02  0.63760078989E+02  0.10839484668E+03  0.41800000000E+01 0. -1.
         -5    1    3    3    0  502 -0.69103886327E+01 -0.19658995588E+02  0.15626758302E+03  0.15770624427E+03  0.41800000000E+01 0. -1.
        -11    1    1    2    0    0  0.51185887023E+02  0.10355837056E+02  0.29467707118E+02  0.59963189994E+02  0.00000000000E+00 0. -1.
         11    1    1    2    0    0  0.21731404446E+02 -0.48226933517E+02  0.13586837292E+03  0.14580228330E+03  0.00000000000E+00 0.  1.
</event>
<event>
 7    1  0.2840156E-009  0.1437691E+03  0.7561462E-02  0.1208345E+00
          3   -1    0    0  501    0  0.00000000000E+00  0.00000000000E+00  0.27745791520E+03  0.27745791520E+03  0.00000000000E+00 0. -1.
         -3   -1    0    0    0  501 -0.00000000000E+00 -0.00000000000E+00 -0.81819019303E+02  0.81819019303E+02  0.00000000000E+00 0.  1.
         25    2    1    2    0    0  0.65009868324E+02 -0.72068791616E+02  0.62455693463E+02  0.17020136852E+03  0.12509036132E+03 0.  0.
          5    1    3    3  502    0  0.79139818684E+02 -0.99405338944E+02  0.53036428149E+02  0.13774929191E+03  0.41800000000E+01 0.  1.
         -5    1    3    3    0  502 -0.14129950360E+02  0.27336547327E+02  0.94192653135E+01  0.32452076606E+02  0.41800000000E+01 0.  1.
        -11    1    1    2    0    0  0.68306812331E+01  0.55118597820E+02  0.82815340238E+02  0.99715087176E+02  0.00000000000E+00 0.  1.
         11    1    1    2    0    0 -0.71840549557E+02  0.16950193796E+02  0.50367862194E+02  0.89360478806E+02  0.00000000000E+00 0. -1.
</event>
<event>
 7    1  0.2840156E-009  0.1056364E+03  0.7561462E-02  0.1268871E+00
          2   -1    0    0  501    0  0.00000000000E+00  0.00000000000E+00  0.34955668008E+03  0.34955668008E+03  0.00000000000E+00 0. -1.
         -2   -1    0    0    0  501 -0.00000000000E+00 -0.00000000000E+00 -0.39188211332E+02  0.39188211332E+02  0.00000000000E+00 0.  1.
         25    2    1    2    0    0  0.30631689563E+01 -0.44557366654E+02  0.18079688816E+03  0.22434358823E+03  0.12509112231E+03 0.  0.
          5    1    3    3  502    0  0.44261846289E+02  0.10907891607E+02  0.13184103490E+03  0.13956225858E+03  0.41800000000E+01 0. -1.
         -5    1    3    3    0  502 -0.41198677332E+02 -0.55465258261E+02  0.48955853260E+02  0.84781329645E+02  0.41800000000E+01 0. -1.
        -11    1    1    2    0    0 -0.14394967985E+02  0.68389409513E+02  0.68443749967E+02  0.97820618207E+02  0.00000000000E+00 0.  1.
         11    1    1    2    0    0  0.11331799028E+02 -0.23832042859E+02  0.61127830620E+02  0.66580684980E+02  0.00000000000E+00 0. -1.
</event>
<event>
 7    1  0.2840156E-009  0.1342551E+03  0.7561462E-02  0.1221275E+00
          1   -1    0    0  501    0  0.00000000000E+00  0.00000000000E+00  0.36280468088E+03  0.36280468088E+03  0.00000000000E+00 0. -1.
         -1   -1    0    0    0  501 -0.00000000000E+00 -0.00000000000E+00 -0.62495531959E+02  0.62495531959E+02  0.00000000000E+00 0.  1.
         25    2    1    2    0    0 -0.58292209294E+02  0.85735081110E+02  0.15466428832E+03  0.22431499106E+03  0.12509071642E+03 0.  0.
          5    1    3    3  502    0  0.49052367774E+01  0.96348649252E+02  0.76772942006E+02  0.12336401657E+03  0.41800000000E+01 0. -1.
         -5    1    3    3    0  502 -0.63197446071E+02 -0.10613568142E+02  0.77891346316E+02  0.10095097449E+03  0.41800000000E+01 0. -1.
        -11    1    1    2    0    0  0.32547577307E+01 -0.27153218306E+02  0.10948028120E+03  0.11284424081E+03  0.00000000000E+00 0. -1.
         11    1    1    2    0    0  0.55037451563E+02 -0.58581862804E+02  0.36164579404E+02  0.88140980977E+02  0.00000000000E+00 0.  1.
</event>
<event>
 7    1  0.2840156E-009  0.9578039E+02  0.7561462E-02  0.1289428E+00
         -2   -1    0    0    0  501 -0.00000000000E+00  0.00000000000E+00  0.35285904633E+02  0.35285904633E+02  0.00000000000E+00 0.  1.
          2   -1    0    0  501    0  0.00000000000E+00 -0.00000000000E+00 -0.48064075074E+03  0.48064075074E+03  0.00000000000E+00 0. -1.
         25    2    1    2    0    0  0.72199881031E+02  0.15246400842E+02 -0.23818061491E+03  0.27896675631E+03  0.12508864956E+03 0.  0.
          5    1    3    3  502    0  0.66114459777E+02  0.37671052913E+01 -0.34420328417E+02  0.74749878142E+02  0.41800000000E+01 0. -1.
         -5    1    3    3    0  502  0.60854212542E+01  0.11479295550E+02 -0.20376028649E+03  0.20421687817E+03  0.41800000000E+01 0. -1.
        -11    1    1    2    0    0  0.19145464208E+02 -0.34734445983E+01 -0.17775483541E+02  0.26354912868E+02  0.00000000000E+00 0.  1.
         11    1    1    2    0    0 -0.91345345240E+02 -0.11772956243E+02 -0.18939874765E+03  0.21060498619E+03  0.00000000000E+00 0. -1.
</event>
<event>
 7    1  0.2840156E-009  0.8903077E+02  0.7561462E-02  0.1305216E+00
          1   -1    0    0  501    0  0.00000000000E+00  0.00000000000E+00  0.24628771467E+03  0.24628771467E+03  0.00000000000E+00 0. -1.
         -1   -1    0    0    0  501 -0.00000000000E+00 -0.00000000000E+00 -0.60344222086E+02  0.60344222086E+02  0.00000000000E+00 0.  1.
         25    2    1    2    0    0  0.50966402603E+01 -0.23432737590E+02  0.42891015807E+02  0.13439442880E+03  0.12508858590E+03 0.  0.
          5    1    3    3  502    0  0.32614321335E+02  0.41610216309E+02  0.28702884414E+01  0.53111345428E+02  0.41800000000E+01 0.  1.
         -5    1    3    3    0  502 -0.27517681074E+02 -0.65042953899E+02  0.40020727365E+02  0.81283083372E+02  0.41800000000E+01 0.  1.
        -11    1    1    2    0    0  0.19482155853E+02  0.22389284483E+02  0.27627956962E+01  0.29807171895E+02  0.00000000000E+00 0.  1.
         11    1    1    2    0    0 -0.24578796114E+02  0.10434531076E+01  0.14028968108E+03  0.14243033606E+03  0.00000000000E+00 0. -1.
</event>
<event>
 7    1  0.2840156E-009  0.1562705E+03  0.7561462E-02  0.1192973E+00
          1   -1    0    0  501    0  0.00000000000E+00  0.00000000000E+00  0.23761192754E+03  0.23761192754E+03  0.00000000000E+00 0. -1.
         -1   -1    0    0    0  501 -0.00000000000E+00 -0.00000000000E+00 -0.12296397269E+03  0.12296397269E+03  0.00000000000E+00 0.  1.
         25    2    1    2    0    0  0.40689816575E+02 -0.12404821485E+03  0.82676903481E+02  0.19881423147E+03  0.12509199609E+03 0.  0.
          5    1    3    3  502    0  0.84518688630E+02 -0.67646623879E+02  0.59510959214E+02  0.12360623413E+03  0.41800000000E+01 0. -1.
         -5    1    3    3    0  502 -0.43828872055E+02 -0.56401590976E+02  0.23165944267E+02  0.75207997341E+02  0.41800000000E+01 0. -1.
        -11    1    1    2    0    0 -0.24058590262E+02  0.37738404240E+02 -0.30294927196E+02  0.54044292333E+02  0.00000000000E+00 0.  1.
         11    1    1    2    0    0 -0.16631226313E+02  0.86309810615E+02  0.62265978567E+02  0.10771737643E+03  0.00000000000E+00 0. -1.
</event>
<event>
 7    1  0.2840156E-009  0.9903363E+02  0.7561462E-02  0.1282341E+00
          2   -1    0    0  501    0  0.00000000000E+00  0.00000000000E+00  0.55145413053E+02  0.55145413053E+02  0.00000000000E+00 0.  1.
         -2   -1    0    0    0  501 -0.00000000000E+00 -0.00000000000E+00 -0.20993405921E+03  0.20993405921E+03  0.00000000000E+00 0. -1.
         25    2    1    2    0    0  0.30277446892E+01  0.22438168589E+02 -0.80120558790E+02  0.15026493962E+03  0.12509040528E+03 0.  0.
          5    1    3    3  502    0 -0.24195948140E+02  0.68718359123E+02 -0.41025703332E+02  0.83715216781E+02  0.41800000000E+01 0.  1.
         -5    1    3    3    0  502  0.27223692830E+02 -0.46280190534E+02 -0.39094855459E+02  0.66549722843E+02  0.41800000000E+01 0.  1.
        -11    1    1    2    0    0  0.24094624647E+02  0.12390853564E+02  0.11094003044E+01  0.27116691501E+02  0.00000000000E+00 0.  1.
         11    1    1    2    0    0 -0.27122369336E+02 -0.34829022153E+02 -0.75777487671E+02  0.87697841138E+02  0.00000000000E+00 0. -1.
</event>
<event>
 7    1  0.2840156E-009  0.1447653E+03  0.7561462E-02  0.1207057E+00
          1   -1    0    0  501    0  0.00000000000E+00  0.00000000000E+00  0.27844641441E+03  0.27844641441E+03  0.00000000000E+00 0. -1.
         -1   -1    0    0    0  501 -0.00000000000E+00 -0.00000000000E+00 -0.11871076225E+03  0.11871076225E+03  0.00000000000E+00 0.  1.
         25    2    1    2    0    0 -0.94653544178E+02  0.68940995864E+02 -0.70748720771E+01  0.17149558298E+03  0.12509407192E+03 0.  0.
          5    1    3    3  502    0 -0.26205388987E+01  0.78432903043E+02 -0.67765504192E+01  0.78879538155E+02  0.41800000000E+01 0.  1.
         -5    1    3    3    0  502 -0.92033005280E+02 -0.94919071796E+01 -0.29832165798E+00  0.92616044822E+02  0.41800000000E+01 0.  1.
        -11    1    1    2    0    0  0.64882771081E+02 -0.37118348856E+02  0.27423687122E+02  0.79621632867E+02  0.00000000000E+00 0.  1.
         11    1    1    2    0    0  0.29770773097E+02 -0.31822647008E+02  0.13938683712E+03  0.14603996082E+03  0.00000000000E+00 0. -1.
</event>
<event>
 7    1  0.2840156E-009  0.8952263E+02  0.7561462E-02  0.1304012E+00
         -1   -1    0    0    0  501 -0.00000000000E+00  0.00000000000E+00  0.37793031402E+02  0.37793031402E+02  0.00000000000E+00 0.  1.
          1   -1    0    0  501    0  0.00000000000E+00 -0.00000000000E+00 -0.47271370469E+03  0.47271370469E+03  0.00000000000E+00 0. -1.
         25    2    1    2    0    0 -0.14571136210E+02  0.70139351607E+02 -0.21540657729E+03  0.25918934290E+03  0.12508906938E+03 0.  0.
          5    1    3    3  502    0  0.19553089551E+02  0.70081924160E+02 -0.21254358789E+03  0.22469100685E+03  0.41800000000E+01 0.  1.
         -5    1    3    3    0  502 -0.34124225761E+02  0.57427446793E-01 -0.28629893925E+01  0.34498336046E+02  0.41800000000E+01 0.  1.
        -11    1    1    2    0    0  0.44051575172E+01 -0.12382264615E+02  0.86522469412E+01  0.15734906002E+02  0.00000000000E+00 0.  1.
         11    1    1    2    0    0  0.10165978693E+02 -0.57757086992E+02 -0.22816634294E+03  0.23558248719E+03  0.00000000000E+00 0. -1.
</event>
<event>
 7    1  0.2840156E-009  0.1054932E+03  0.7561462E-02  0.1269151E+00
         -2   -1    0    0    0  501 -0.00000000000E+00  0.00000000000E+00  0.64359246490E+02  0.64359246490E+02  0.00000000000E+00 0.  1.
          2   -1    0    0  501    0  0.00000000000E+00 -0.00000000000E+00 -0.25969137133E+03  0.25969137133E+03  0.00000000000E+00 0. -1.
         25    2    1    2    0    0 -0.28423280996E+02 -0.34538798131E+02 -0.40745869556E+02  0.13895078214E+03  0.12508510100E+03 0.  0.
          5    1    3    3  502    0 -0.27470360409E+02  0.37015196844E+02  0.14442080734E+02  0.48484962559E+02  0.41800000000E+01 0.  1.
         -5    1    3    3    0  502 -0.95292058701E+00 -0.71553994976E+02 -0.55187950290E+02  0.90465819577E+02  0.41800000000E+01 0.  1.
        -11    1    1    2    0    0  0.37784527910E+02 -0.16427539750E+02 -0.10733961766E+03  0.11497533706E+03  0.00000000000E+00 0. -1.
         11    1    1    2    0    0 -0.93612469143E+01  0.50966337881E+02 -0.47246637619E+02  0.70124498623E+02  0.00000000000E+00 0.  1.
</event>
<event>
 7    1  0.2840156E-009  0.7933318E+02  0.7561462E-02  0.1330954E+00
          2   -1    0    0  501    0  0.00000000000E+00  0.00000000000E+00  0.28650262146E+03  0.28650262146E+03  0.00000000000E+00 0. -1.
         -2   -1    0    0    0  501 -0.00000000000E+00 -0.00000000000E+00 -0.53123869516E+02  0.53123869516E+02  0.00000000000E+00 0.  1.
         25    2    1    2    0    0  0.39343024368E+02 -0.45164288021E+02  0.11547567920E+03  0.18047082501E+03  0.12508956677E+03 0.  0.
          5    1    3    3  502    0  0.33736001795E+02  0.81836598239E+01  0.12140586320E+03  0.12634059571E+03  0.41800000000E+01 0.  1.
         -5    1    3    3    0  502  0.56070225736E+01 -0.53347947845E+02 -0.59301840065E+01  0.54130229297E+02  0.41800000000E+01 0.  1.
        -11    1    1    2    0    0 -0.22881461882E+02  0.11561847531E+01  0.10893902497E+03  0.11132209674E+03  0.00000000000E+00 0. -1.
         11    1    1    2    0    0 -0.16461562487E+02  0.44008103268E+02  0.89640477847E+01  0.47833569232E+02  0.00000000000E+00 0.  1.
</event>
<event>
 7    1  0.2840156E-009  0.9730609E+02  0.7561462E-02  0.1286065E+00
         -1   -1    0    0    0  501 -0.00000000000E+00  0.00000000000E+00  0.31604030392E+02  0.31604030392E+02  0.00000000000E+00 0.  1.
          1   -1    0    0  501    0  0.00000000000E+00 -0.00000000000E+00 -0.54861910670E+03  0.54861910670E+03  0.00000000000E+00 0. -1.
         25    2    1    2    0    0  0.59374626727E+02  0.30639066197E+02 -0.21299498641E+03  0.25588727103E+03  0.12508929835E+03 0.  0.
          5    1    3    3  502    0  0.63452837936E+01 -0.14168441830E+02 -0.17671119135E+03  0.17744104632E+03  0.41800000000E+01 0. -1.
         -5    1    3    3    0  502  0.53029342934E+02  0.44807508027E+02 -0.36283795060E+02  0.78446224712E+02  0.41800000000E+01 0. -1.
        -11    1    1    2    0    0 -0.18375427788E+02  0.30359583018E+02 -0.62404945489E+02  0.71789538575E+02  0.00000000000E+00 0.  1.
         11    1    1    2    0    0 -0.40999198939E+02 -0.60998649215E+02 -0.24161514441E+03  0.25254632749E+03  0.00000000000E+00 0. -1.
</event>
<event>
 7    1  0.2840156E-009  0.1090432E+03  0.7561462E-02  0.1262352E+00
         -2   -1    0    0    0  501 -0.00000000000E+00  0.00000000000E+00  0.25554435519E+02  0.25554435519E+02  0.00000000000E+00 0. -1.
          2   -1    0    0  501    0  0.00000000000E+00 -0.00000000000E+00 -0.60070180684E+03  0.60070180684E+03  0.00000000000E+00 0.  1.
         25    2    1    2    0    0 -0.10649204338E+02 -0.23737499759E+02 -0.46543298650E+03  0.48265147062E+03  0.12509077792E+03 0.  0.
          5    1    3    3  502    0 -0.63532532740E+02  0.88067422380E+01 -0.27014954790E+03  0.27769082098E+03  0.41800000000E+01 0.  1.
         -5    1    3    3    0  502  0.52883328401E+02 -0.32544241997E+02 -0.19528343860E+03  0.20496064964E+03  0.41800000000E+01 0.  1.
        -11    1    1    2    0    0  0.28373789790E+02 -0.26178437942E+02 -0.35649238782E+02  0.52547604949E+02  0.00000000000E+00 0. -1.
         11    1    1    2    0    0 -0.17724585452E+02  0.49915937701E+02 -0.74065146040E+02  0.91057166791E+02  0.00000000000E+00 0.  1.
</event>
<event>
 7    1  0.2840156E-009  0.8263722E+02  0.7561462E-02  0.1321730E+00
         -1   -1    0    0    0  501 -0.00000000000E+00  0.00000000000E+00  0.45863718561E+02  0.45863718561E+02  0.00000000000E+00 0.  1.
          1   -1    0    0  501    0  0.00000000000E+00 -0.00000000000E+00 -0.29824864941E+03  0.29824864941E+03  0.00000000000E+00 0. -1.
         25    2    1    2    0    0  0.31170134764E+01  0.45721062491E+02 -0.13300556174E+03  0.18825015558E+03  0.12509000877E+03 0.  0.
          5    1    3    3  502    0 -0.10306879801E+02  0.69187051567E+02 -0.14290255044E+03  0.15915932645E+03  0.41800000000E+01 0. -1.
         -5    1    3    3    0  502  0.13423893277E+02 -0.23465989077E+02  0.98969886988E+01  0.29090829128E+02  0.41800000000E+01 0. -1.
        -11    1    1    2    0    0 -0.71563631415E+01  0.98226861570E+01  0.95258295948E+01  0.15441506605E+02  0.00000000000E+00 0.  1.
         11    1    1    2    0    0  0.40393496652E+01 -0.55543748648E+02 -0.12890519871E+03  0.14042070578E+03  0.00000000000E+00 0. -1.
</event>
<event>
 7    1  0.2840156E-009  0.1389542E+03  0.7561462E-02  0.1214743E+00
         -2   -1    0    0    0  501 -0.00000000000E+00  0.00000000000E+00  0.82805143398E+02  0.82805143398E+02  0.00000000000E+00 0.  1.
          2   -1    0    0  501    0  0.00000000000E+00 -0.00000000000E+00 -0.34505808883E+03  0.34505808883E+03  0.00000000000E+00 0. -1.
         25    2    1    2    0    0  0.51964566507E+02 -0.73224473007E+02 -0.22516201741E+02  0.15561676971E+03  0.12508980796E+03 0.  0.
          5    1    3    3  502    0  0.75858935940E+01  0.35459460303E+02 -0.46828938274E+01  0.36801100543E+02  0.41800000000E+01 0.  1.
         -5    1    3    3    0  502  0.44378672913E+02 -0.10868393331E+03 -0.17833307914E+02  0.11881566917E+03  0.41800000000E+01 0.  1.
        -11    1    1    2    0    0 -0.73080421500E+02  0.36772590156E+02 -0.19126492095E+03  0.20802702079E+03  0.00000000000E+00 0.  1.
         11    1    1    2    0    0  0.21115854994E+02  0.36451882851E+02 -0.48471822742E+02  0.64219441725E+02  0.00000000000E+00 0. -1.
</event>
<event>
 7    1  0.2840156E-009  0.1008351E+03  0.7561462E-02  0.1278550E+00
          1   -1    0    0  501    0  0.00000000000E+00  0.00000000000E+00  0.14542248779E+04  0.14542248779E+04  0.00000000000E+00 0. -1.
         -1   -1    0    0    0  501 -0.00000000000E+00 -0.00000000000E+00 -0.13524596291E+02  0.13524596291E+02  0.00000000000E+00 0.  1.
         25    2    1    2    0    0 -0.30208556332E+02  0.24603088304E+01  0.12227545890E+04  0.12295106319E+04  0.12509596005E+03 0.  0.
          5    1    3    3  502    0  0.37768034467E+02 -0.96165043151E+00  0.15544559243E+03  0.16002547861E+03  0.41800000000E+01 0. -1.
         -5    1    3    3    0  502 -0.67976590799E+02  0.34219592619E+01  0.10673089965E+04  0.10694851533E+04  0.41800000000E+01 0. -1.
        -11    1    1    2    0    0 -0.27838111517E+02 -0.20624900332E+02  0.93812048853E+02  0.10000523725E+03  0.00000000000E+00 0. -1.
         11    1    1    2    0    0  0.58046667849E+02  0.18164591502E+02  0.12413364380E+03  0.13823360501E+03  0.00000000000E+00 0.  1.
</event>
<event>
 7    1  0.2840156E-009  0.9159024E+02  0.7561462E-02  0.1299046E+00
          2   -1    0    0  501    0  0.00000000000E+00  0.00000000000E+00  0.18615113898E+03  0.18615113898E+03  0.00000000000E+00 0. -1.
         -2   -1    0    0    0  501 -0.00000000000E+00 -0.00000000000E+00 -0.81467453403E+02  0.81467453403E+02  0.00000000000E+00 0.  1.
         25    2    1    2    0    0 -0.37682812634E+02  0.29188975433E+02  0.88868999351E+02  0.16067726755E+03  0.12508994607E+03 0.  0.
          5    1    3    3  502    0 -0.68679410978E+02 -0.23367058828E+02  0.50181244580E+02  0.88309176410E+02  0.41800000000E+01 0. -1.
         -5    1    3    3    0  502  0.30996598345E+02  0.52556034261E+02  0.38687754770E+02  0.72368091141E+02  0.41800000000E+01 0. -1.
        -11    1    1    2    0    0  0.26444809719E+02 -0.12536435185E+02 -0.38885858170E+02  0.48668266189E+02  0.00000000000E+00 0.  1.
         11    1    1    2    0    0  0.11238002915E+02 -0.16652540248E+02  0.54700544400E+02  0.58273058645E+02  0.00000000000E+00 0. -1.
</event>
<event>
 7    1  0.2840156E-009  0.8227875E+02  0.7561462E-02  0.1322706E+00
          1   -1    0    0  501    0  0.00000000000E+00  0.00000000000E+00  0.20131244548E+03  0.20131244548E+03  0.00000000000E+00 0. -1.
         -1   -1    0    0    0  501 -0.00000000000E+00 -0.00000000000E+00 -0.62339948968E+02  0.62339948968E+02  0.00000000000E+00 0.  1.
         25    2    1    2    0    0 -0.24073822699E+02 -0.15681933537E+01  0.96927607106E+02  0.16007873158E+03  0.12509288994E+03 0.  0.
          5    1    3    3  502    0 -0.20436895014E+02 -0.34131130842E+02  0.11546780692E+03  0.12220019478E+03  0.41800000000E+01 0.  1.
         -5    1    3    3    0  502 -0.36369276850E+01  0.32562937488E+02 -0.18540199810E+02  0.37878536796E+02  0.41800000000E+01 0.  1.
        -11    1    1    2    0    0  0.11741525244E+02 -0.43367246669E+02  0.74584656915E+01  0.45543497990E+02  0.00000000000E+00 0.  1.
         11    1    1    2    0    0  0.12332297454E+02  0.44935440023E+02  0.34586423712E+02  0.58030164878E+02  0.00000000000E+00 0. -1.
</event>
<event>
 7    1  0.2840156E-009  0.1562858E+03  0.7561462E-02  0.1192955E+00
          3   -1    0    0  501    0  0.00000000000E+00  0.00000000000E+00  0.10640185133E+03  0.10640185133E+03  0.00000000000E+00 0. -1.
         -3   -1    0    0    0  501 -0.00000000000E+00 -0.00000000000E+00 -0.25898907725E+03  0.25898907725E+03  0.00000000000E+00 0.  1.
         25    2    1    2    0    0 -0.13647344665E+02  0.11988649908E+03 -0.11823338962E+03  0.21020395084E+03  0.12509014290E+03 0.  0.
          5    1    3    3  502    0  0.84114368475E+01  0.13612684036E+03 -0.67125486769E+02  0.15206765701E+03  0.41800000000E+01 0. -1.
         -5    1    3    3    0  502 -0.22058781513E+02 -0.16240341272E+02 -0.51107902851E+02  0.58136293830E+02  0.41800000000E+01 0. -1.
        -11    1    1    2    0    0 -0.35855058361E+02 -0.66878139857E+02 -0.32728483839E+02  0.82640331892E+02  0.00000000000E+00 0.  1.
         11    1    1    2    0    0  0.49502403027E+02 -0.53008359227E+02 -0.16253524658E+01  0.72546645850E+02  0.00000000000E+00 0. -1.
</event>
<event>
 7    1  0.3871583E-009  0.1200860E+03  0.7561462E-02  0.1242955E+00
          3   -1    0    0  501    0  0.00000000000E+00  0.00000000000E+00  0.64931899060E+03  0.64931899060E+03  0.00000000000E+00 0. -1.
         -3   -1    0    0    0  501 -0.00000000000E+00 -0.00000000000E+00 -0.28527594135E+02  0.28527594135E+02  0.00000000000E+00 0.  1.
         25    2    1    2    0    0 -0.75706425417E+02  0.11914402991E+02  0.41321898516E+03  0.43848700641E+03  0.12509000457E+03 0.  0.
          5    1    3    3  502    0 -0.98274056819E+02 -0.22543941774E+02  0.23929167028E+03  0.25969981790E+03  0.41800000000E+01 0. -1.
         -5    1    3    3    0  502  0.22567631403E+02  0.34458344765E+02  0.17392731488E+03  0.17878718850E+03  0.41800000000E+01 0. -1.
        -11    1    1    2    0    0  0.33262980840E+02 -0.36033100101E+02  0.17227293148E+03  0.17911664668E+03  0.00000000000E+00 0. -1.
         11    1    1    2    0    0  0.42443444577E+02  0.24118697110E+02  0.35299479827E+02  0.60242931651E+02  0.00000000000E+00 0.  1.
</event>
<event>
 7    1  0.2840156E-009  0.1146459E+03  0.7561462E-02  0.1252200E+00
          1   -1    0    0  501    0  0.00000000000E+00  0.00000000000E+00  0.21746951879E+03  0.21746951879E+03  0.00000000000E+00 0. -1.
         -1   -1    0    0    0  501 -0.00000000000E+00 -0.00000000000E+00 -0.74366078039E+02  0.74366078039E+02  0.00000000000E+00 0.  1.
         25    2    1    2    0    0  0.26293103638E+02 -0.50389272252E+02  0.11912536001E+03  0.18184926145E+03  0.12509155221E+03 0.  0.
          5    1    3    3  502    0 -0.46167482285E+02 -0.40193222296E+02  0.72522233564E+02  0.94994096134E+02  0.41800000000E+01 0.  1.
         -5    1    3    3    0  502  0.72460585923E+02 -0.10196049956E+02  0.46603126449E+02  0.86855165315E+02  0.41800000000E+01 0.  1.
        -11    1    1    2    0    0 -0.51388686497E+02  0.46391615939E+02 -0.73807420628E+01  0.69623663238E+02  0.00000000000E+00 0.  1.
         11    1    1    2    0    0  0.25095582859E+02  0.39976563127E+01  0.31358822800E+02  0.40362672141E+02  0.00000000000E+00 0. -1.
</event>
<event>
 7    1  0.2840156E-009  0.6437727E+02  0.7561462E-02  0.1380329E+00
          1   -1    0    0  501    0  0.00000000000E+00  0.00000000000E+00  0.32930384780E+03  0.32930384780E+03  0.00000000000E+00 0. -1.
         -1   -1    0    0    0  501 -0.00000000000E+00 -0.00000000000E+00 -0.49760133016E+02  0.49760133016E+02  0.00000000000E+00 0.  1.
         25    2    1    2    0    0 -0.19131326014E+02 -0.40176208961E+02  0.22516665881E+03  0.26139365202E+03  0.12508589719E+03 0.  0.
          5    1    3    3  502    0  0.39079537246E+00 -0.37104947173E+02  0.20855352582E+01  0.37399888811E+02  0.41800000000E+01 0.  1.
         -5    1    3    3    0  502 -0.19522121386E+02 -0.30712617882E+01  0.22308112355E+03  0.22399376321E+03  0.41800000000E+01 0.  1.
        -11    1    1    2    0    0  0.17952145484E+02 -0.10317574307E+02 -0.19324831994E+02  0.28322799979E+02  0.00000000000E+00 0.  1.
         11    1    1    2    0    0  0.11791805300E+01  0.50493783268E+02  0.73701887970E+02  0.89347528817E+02  0.00000000000E+00 0. -1.
</event>
<event>
 7    1  0.2840156E-009  0.1439703E+03  0.7561462E-02  0.1208084E+00
         -2   -1    0    0    0  501 -0.00000000000E+00  0.00000000000E+00  0.28900632594E+02  0.28900632594E+02  0.00000000000E+00 0.  1.
          2   -1    0    0  501    0  0.00000000000E+00 -0.00000000000E+00 -0.77990982540E+03  0.77990982540E+03  0.00000000000E+00 0. -1.
         25    2    1    2    0    0  0.87671024574E+02  0.47513084314E+02 -0.47877478979E+03  0.50479363713E+03  0.12509042739E+03 0.  0.
          5    1    3    3  502    0  0.71888233810E+02 -0.28361388288E+02 -0.17665920393E+03  0.19286843506E+03  0.41800000000E+01 0. -1.
         -5    1    3    3    0  502  0.15782790764E+02  0.75874472602E+02 -0.30211558585E+03  0.31192520208E+03  0.41800000000E+01 0. -1.
        -11    1    1    2    0    0 -0.74530049821E+02  0.88569209395E+01 -0.18132944217E+03  0.19624866872E+03  0.00000000000E+00 0. -1.
         11    1    1    2    0    0 -0.13140974754E+02 -0.56370005253E+02 -0.90904960845E+02  0.10776815214E+03  0.00000000000E+00 0.  1.
</event>
<event>
 7    1  0.2840156E-009  0.2113825E+03  0.7561462E-02  0.1140476E+00
          1   -1    0    0  501    0  0.00000000000E+00  0.00000000000E+00  0.34825144387E+03  0.34825144387E+03  0.00000000000E+00 0. -1.
         -1   -1    0    0    0  501 -0.00000000000E+00 -0.00000000000E+00 -0.14025607327E+03  0.14025607327E+03  0.00000000000E+00 0.  1.
         25    2    1    2    0    0 -0.93431484311E+02  0.16691755752E+03  0.80043619186E+02  0.24216775468E+03  0.12508927678E+03 0.  0.
          5    1    3    3  502    0  0.28641951299E+01  0.10015827522E+03  0.14891504961E+00  0.10028648107E+03  0.41800000000E+01 0.  1.
         -5    1    3    3    0  502 -0.96295679441E+02  0.66759282291E+02  0.79894704136E+02  0.14188127361E+03  0.41800000000E+01 0.  1.
        -11    1    1    2    0    0 -0.10522056125E+02 -0.39026409835E+02  0.50176253005E+01  0.40730220885E+02  0.00000000000E+00 0.  1.
         11    1    1    2    0    0  0.10395354044E+03 -0.12789114768E+03  0.12293412612E+03  0.20560954158E+03  0.00000000000E+00 0. -1.
</event>
<event>
 7    1  0.2840156E-009  0.8581300E+02  0.7561462E-02  0.1313320E+00
          2   -1    0    0  501    0  0.00000000000E+00  0.00000000000E+00  0.20368438698E+04  0.20368438698E+04  0.00000000000E+00 0. -1.
         -2   -1    0    0    0  501 -0.00000000000E+00 -0.00000000000E+00 -0.13256974352E+02  0.13256974352E+02  0.00000000000E+00 0.  1.
         25    2    1    2    0    0  0.32498458385E+02 -0.62307080072E+02  0.17095539537E+04  0.17155641950E+04  0.12508982580E+03 0.  0.
          5    1    3    3  502    0  0.46541013421E+02 -0.39861825585E+02  0.32512338880E+03  0.33087417762E+03  0.41800000000E+01 0. -1.
         -5    1    3    3    0  502 -0.14042555035E+02 -0.22445254488E+02  0.13844305649E+04  0.13846900174E+04  0.41800000000E+01 0. -1.
        -11    1    1    2    0    0 -0.42717710708E+02  0.38553941913E+02  0.29928863931E+03  0.30477023947E+03  0.00000000000E+00 0. -1.
         11    1    1    2    0    0  0.10219252322E+02  0.23753138159E+02  0.14744302410E+02  0.29766409659E+02  0.00000000000E+00 0.  1.
</event>
<event>
 7    1  0.2840156E-009  0.1009948E+03  0.7561462E-02  0.1278218E+00
          2   -1    0    0  501    0  0.00000000000E+00  0.00000000000E+00  0.10968321697E+03  0.10968321697E+03  0.00000000000E+00 0. -1.
         -2   -1    0    0    0  501 -0.00000000000E+00 -0.00000000000E+00 -0.12686140415E+03  0.12686140415E+03  0.00000000000E+00 0.  1.
         25    2    1    2    0    0 -0.21056947605E+02 -0.54503753959E+02 -0.27503526391E+02  0.14078132108E+03  0.12509549218E+03 0.  0.
          5    1    3    3  502    0 -0.27382177123E+02 -0.93041195577E+02 -0.29483237086E+02  0.10145531710E+03  0.41800000000E+01 0.  1.
         -5    1    3    3    0  502  0.63252295179E+01  0.38537441618E+02  0.19797106959E+01  0.39326003984E+02  0.41800000000E+01 0.  1.
        -11    1    1    2    0    0  0.25871508920E+02  0.25819562128E+02 -0.29134909331E+02  0.46742140559E+02  0.00000000000E+00 0.  1.
         11    1    1    2    0    0 -0.48145613149E+01  0.28684191831E+02  0.39460248543E+02  0.49021159480E+02  0.00000000000E+00 0. -1.
</event>
<event>
 7    1  0.2840156E-009  0.2305416E+03  0.7561462E-02  0.1126259E+00
         -2   -1    0    0    0  501 -0.00000000000E+00  0.00000000000E+00  0.22361306932E+03  0.22361306932E+03  0.00000000000E+00 0. -1.
          2   -1    0    0  501    0  0.00000000000E+00 -0.00000000000E+00 -0.24855347448E+03  0.24855347448E+03  0.00000000000E+00 0.  1.
         25    2    1    2    0    0  0.15917528182E+03 -0.13081663015E+03 -0.48590059127E+02  0.24588214382E+03  0.12508906322E+03 0.  0.
          5    1    3    3  502    0  0.15688699400E+03 -0.59710191463E+02 -0.47888455011E+02  0.17461274974E+03  0.41800000000E+01 0. -1.
         -5    1    3    3    0  502  0.22882878259E+01 -0.71106438686E+02 -0.70160411589E+00  0.71269394077E+02  0.41800000000E+01 0. -1.
        -11    1    1    2    0    0 -0.13757153995E+02  0.57350327667E+02  0.23158620497E+02  0.63361195324E+02  0.00000000000E+00 0.  1.
         11    1    1    2    0    0 -0.14541812783E+03  0.73466302482E+02  0.49103346537E+00  0.16292320466E+03  0.00000000000E+00 0. -1.
</event>
<event>
 7    1  0.2840156E-009  0.1103282E+03  0.7561462E-02  0.1259963E+00
          2   -1    0    0  501    0  0.00000000000E+00  0.00000000000E+00  0.29389493874E+03  0.29389493874E+03  0.00000000000E+00 0. -1.
         -2   -1    0    0    0  501 -0.00000000000E+00 -0.00000000000E+00 -0.44608815900E+02  0.44608815900E+02  0.00000000000E+00 0.  1.
         25    2    1    2    0    0 -0.41266915332E+02  0.97319364268E-01  0.13660413904E+03  0.18976606324E+03  0.12508996835E+03 0.  0.
          5    1    3    3  502    0  0.19477063726E+02  0.45372026998E+02  0.83697555454E+02  0.97266284160E+02  0.41800000000E+01 0. -1.
         -5    1    3    3    0  502 -0.60743979059E+02 -0.45274707634E+02  0.52906583582E+02  0.92499779078E+02  0.41800000000E+01 0. -1.
        -11    1    1    2    0    0 -0.14221694303E+02 -0.29267201348E+02  0.52942236005E+02  0.62142626407E+02  0.00000000000E+00 0.  1.
         11    1    1    2    0    0  0.55488609636E+02  0.29169881984E+02  0.59739747800E+02  0.86595064995E+02  0.00000000000E+00 0. -1.
</event>
<event>
 7    1  0.2840156E-009  0.1038398E+03  0.7561462E-02  0.1272422E+00
          2   -1    0    0  501    0  0.00000000000E+00  0.00000000000E+00  0.30273599935E+02  0.30273599935E+02  0.00000000000E+00 0. -1.
         -2   -1    0    0    0  501 -0.00000000000E+00 -0.00000000000E+00 -0.45720751162E+03  0.45720751162E+03  0.00000000000E+00 0.  1.
         25    2    1    2    0    0  0.34887851996E+02 -0.19047402280E+02 -0.19526885508E+03  0.23528673245E+03  0.12509977998E+03 0.  0.
          5    1    3    3  502    0  0.49881213581E+02  0.42335979535E+02 -0.76976540990E+02  0.10111048855E+03  0.41800000000E+01 0. -1.
         -5    1    3    3    0  502 -0.14993361584E+02 -0.61383381815E+02 -0.11829231409E+03  0.13417624390E+03  0.41800000000E+01 0. -1.
        -11    1    1    2    0    0 -0.24658559818E+02 -0.24083077391E+02 -0.18361026581E+03  0.18681747483E+03  0.00000000000E+00 0.  1.
         11    1    1    2    0    0 -0.10229292178E+02  0.43130479671E+02 -0.48054790791E+02  0.65376904278E+02  0.00000000000E+00 0. -1.
</event>
<event>
 7    1  0.2840156E-009  0.1252877E+03  0.7561462E-02  0.1234620E+00
         -1   -1    0    0    0  501 -0.00000000000E+00  0.00000000000E+00  0.22815759465E+02  0.22815759465E+02  0.00000000000E+00 0.  1.
          1   -1    0    0  501    0  0.00000000000E+00 -0.00000000000E+00 -0.10660948403E+04  0.10660948403E+04  0.00000000000E+00 0. -1.
         25    2    1    2    0    0  0.29791332331E+02  0.61344418334E+02 -0.87901475890E+03  0.89048688513E+03  0.12509710262E+03 0.  0.
          5    1    3    3  502    0 -0.16374089186E+02 -0.31848327716E+02 -0.30369390289E+03  0.30582656168E+03  0.41800000000E+01 0. -1.
         -5    1    3    3    0  502  0.46165421517E+02  0.93192746050E+02 -0.57532085601E+03  0.58466032345E+03  0.41800000000E+01 0. -1.
        -11    1    1    2    0    0 -0.42212275575E+02 -0.78574985432E+02 -0.12207784246E+03  0.15119161407E+03  0.00000000000E+00 0.  1.
         11    1    1    2    0    0  0.12420943244E+02  0.17230567097E+02 -0.42186479478E+02  0.47232100571E+02  0.00000000000E+00 0. -1.
</event>
<event>
 7    1  0.2840156E-009  0.1241854E+03  0.7561462E-02  0.1236348E+00
         -1   -1    0    0    0  501 -0.00000000000E+00  0.00000000000E+00  0.78228761781E+02  0.78228761781E+02  0.00000000000E+00 0.  1.
          1   -1    0    0  501    0  0.00000000000E+00 -0.00000000000E+00 -0.21490526895E+03  0.21490526895E+03  0.00000000000E+00 0. -1.
         25    2    1    2    0    0 -0.70112579533E+02 -0.57763599275E+01 -0.86681213550E+02  0.16766804652E+03  0.12509916426E+03 0.  0.
          5    1    3    3  502    0  0.40682319015E+01  0.50159570284E+02 -0.29006610570E+02  0.58235632208E+02  0.41800000000E+01 0.  1.
         -5    1    3    3    0  502 -0.74180811435E+02 -0.55935930212E+02 -0.57674602980E+02  0.10943241431E+03  0.41800000000E+01 0.  1.
        -11    1    1    2    0    0  0.70074960128E+02 -0.24771767026E+02 -0.57546219527E+02  0.93998446053E+02  0.00000000000E+00 0. -1.
         11    1    1    2    0    0  0.37619404967E-01  0.30548126954E+02  0.75509259072E+01  0.31467538157E+02  0.00000000000E+00 0.  1.
</event>
<event>
 7    1  0.8295763E-009  0.1265998E+03  0.7561462E-02  0.1232590E+00
         -2   -1    0    0    0  501 -0.00000000000E+00  0.00000000000E+00  0.29562989489E+02  0.29562989489E+02  0.00000000000E+00 0. -1.
          2   -1    0    0  501    0  0.00000000000E+00 -0.00000000000E+00 -0.75387817562E+03  0.75387817562E+03  0.00000000000E+00 0.  1.
         25    2    1    2    0    0  0.17646609858E+01 -0.92996012180E+02 -0.50226088996E+03  0.52589613026E+03  0.12509742573E+03 0.  0.
          5    1    3    3  502    0 -0.31421523339E+02  0.19989269483E+02 -0.14157339498E+03  0.14644924578E+03  0.41800000000E+01 0.  1.
         -5    1    3    3    0  502  0.33186184325E+02 -0.11298528166E+03 -0.36068749498E+03  0.37944688447E+03  0.41800000000E+01 0.  1.
        -11    1    1    2    0    0 -0.14220768267E+02  0.24970717982E+02 -0.42791770408E+01  0.29053026740E+02  0.00000000000E+00 0. -1.
         11    1    1    2    0    0  0.12456107281E+02  0.68025294198E+02 -0.21777511912E+03  0.22849200811E+03  0.00000000000E+00 0.  1.
</event>
<event>
 7    1  0.2840156E-009  0.9422139E+02  0.7561462E-02  0.1292939E+00
          2   -1    0    0  501    0  0.00000000000E+00  0.00000000000E+00  0.35320103196E+03  0.35320103196E+03  0.00000000000E+00 0.  1.
         -2   -1    0    0    0  501 -0.00000000000E+00 -0.00000000000E+00 -0.36268343749E+02  0.36268343749E+02  0.00000000000E+00 0. -1.
         25    2    1    2    0    0 -0.24907026968E+02 -0.64049282066E+01  0.14716205248E+03  0.19483791100E+03  0.12507501260E+03 0.  0.
          5    1    3    3  502    0  0.46675124137E+02  0.10173666094E+02  0.30272917157E+02  0.56709722343E+02  0.41800000000E+01 0.  1.
         -5    1    3    3    0  502 -0.71582151106E+02 -0.16578594301E+02  0.11688913532E+03  0.13812818866E+03  0.41800000000E+01 0.  1.
        -11    1    1    2    0    0 -0.42722528807E+01 -0.24219587932E+02  0.14180720440E+03  0.14392402094E+03  0.00000000000E+00 0.  1.
         11    1    1    2    0    0  0.29179279849E+02  0.30624516139E+02  0.27963431328E+02  0.50707443762E+02  0.00000000000E+00 0. -1.
</event>
<event>
 7    1  0.2840156E-009  0.1376325E+03  0.7561462E-02  0.1216551E+00
          1   -1    0    0  501    0  0.00000000000E+00  0.00000000000E+00  0.60759229492E+03  0.60759229492E+03  0.00000000000E+00 0.  1.
         -1   -1    0    0    0  501 -0.00000000000E+00 -0.00000000000E+00 -0.44724577192E+02  0.44724577192E+02  0.00000000000E+00 0. -1.
         25    2    1    2    0    0 -0.10602269796E+03 -0.15807118317E+02  0.42228107205E+03  0.45327603368E+03  0.12508869423E+03 0.  0.
          5    1    3    3  502    0 -0.12929884273E+03  0.30189839372E+01  0.37902189276E+03  0.40050264991E+03  0.41800000000E+01 0. -1.
         -5    1    3    3    0  502  0.23276144770E+02 -0.18826102254E+02  0.43259179286E+02  0.52773383765E+02  0.41800000000E+01 0. -1.
        -11    1    1    2    0    0  0.57898370633E+02 -0.13283814386E+02  0.12843808405E+03  0.14150979641E+03  0.00000000000E+00 0.  1.
         11    1    1    2    0    0  0.48124327327E+02  0.29090932703E+02  0.12148561630E+02  0.57531042020E+02  0.00000000000E+00 0. -1.
</event>
<event>
 7    1  0.2840156E-009  0.1562371E+03  0.7561462E-02  0.1193012E+00
          1   -1    0    0  501    0  0.00000000000E+00  0.00000000000E+00  0.16991932569E+04  0.16991932569E+04  0.00000000000E+00 0. -1.
         -1   -1    0    0    0  501 -0.00000000000E+00 -0.00000000000E+00 -0.19045869005E+02  0.19045869005E+02  0.00000000000E+00 0.  1.
         25    2    1    2    0    0  0.14182185407E+03 -0.14591064349E+02  0.82797435395E+03  0.84942043757E+03  0.12508881452E+03 0.  0.
          5    1    3    3  502    0  0.38839058844E+02 -0.20151423867E+02  0.56810643641E+03  0.56980430664E+03  0.41800000000E+01 0. -1.
         -5    1    3    3    0  502  0.10298279523E+03  0.55603595180E+01  0.25986791754E+03  0.27961613093E+03  0.41800000000E+01 0. -1.
        -11    1    1    2    0    0  0.91357242381E+01 -0.86316599435E+01  0.29155301749E+02  0.31748994170E+02  0.00000000000E+00 0.  1.
         11    1    1    2    0    0 -0.15095757831E+03  0.23222724292E+02  0.82301773217E+03  0.83706969413E+03  0.00000000000E+00 0. -1.
</event>
<event>
 7    1  0.2840156E-009  0.1553142E+03  0.7561462E-02  0.1194091E+00
          1   -1    0    0  501    0  0.00000000000E+00  0.00000000000E+00  0.14243679453E+04  0.14243679453E+04  0.00000000000E+00 0. -1.
         -1   -1    0    0    0  501 -0.00000000000E+00 -0.00000000000E+00 -0.46017149355E+02  0.46017149355E+02  0.00000000000E+00 0.  1.
         25    2    1    2    0    0 -0.11590649369E+03 -0.33937093032E+02  0.12759856909E+04  0.12877783190E+04  0.12508986337E+03 0.  0.
          5    1    3    3  502    0 -0.13499170361E+02  0.35222396040E+02  0.13894670727E+03  0.14403646984E+03  0.41800000000E+01 0.  1.
         -5    1    3    3    0  502 -0.10240732332E+03 -0.69159489072E+02  0.11370389836E+04  0.11437418491E+04  0.41800000000E+01 0.  1.
        -11    1    1    2    0    0 -0.71324692597E+01  0.24630893953E+02  0.67787843305E+01  0.26523668142E+02  0.00000000000E+00 0.  1.
         11    1    1    2    0    0  0.12303896295E+03  0.93061990786E+01  0.95586320695E+02  0.15608310750E+03  0.00000000000E+00 0. -1.
</event>
<event>
 7    1  0.2840156E-009  0.1268091E+03  0.7561462E-02  0.1232269E+00
          2   -1    0    0  501    0  0.00000000000E+00  0.00000000000E+00  0.17076071822E+03  0.17076071822E+03  0.00000000000E+00 0.  1.
         -2   -1    0    0    0  501 -0.00000000000E+00 -0.00000000000E+00 -0.14253251856E+03  0.14253251856E+03  0.00000000000E+00 0. -1.
         25    2    1    2    0    0  0.10602666561E+03 -0.23204702040E+02 -0.11597468319E+02  0.16601581474E+03  0.12508651988E+03 0.  0.
          5    1    3    3  502    0 -0.10100283796E+01  0.24866315429E+02 -0.38054662873E+02  0.45661620281E+02  0.41800000000E+01 0. -1.
         -5    1    3    3    0  502  0.10703669399E+03 -0.48071017469E+02  0.26457194553E+02  0.12035419446E+03  0.41800000000E+01 0. -1.
        -11    1    1    2    0    0 -0.84331958646E+02  0.27801191988E+02  0.67697938906E+02  0.11165928737E+03  0.00000000000E+00 0.  1.
         11    1    1    2    0    0 -0.21694706961E+02 -0.45964899478E+01 -0.27872270935E+02  0.35618134665E+02  0.00000000000E+00 0. -1.
</event>
<event>
 7    1  0.2840156E-009  0.7741967E+02  0.7561462E-02  0.1336538E+00
          1   -1    0    0  501    0  0.00000000000E+00  0.00000000000E+00  0.92427805792E+02  0.92427805792E+02  0.00000000000E+00 0. -1.
         -1   -1    0    0    0  501 -0.00000000000E+00 -0.00000000000E+00 -0.14878626564E+03  0.14878626564E+03  0.00000000000E+00 0.  1.
         25    2    1    2    0    0  0.40978644626E+02  0.13693182247E+02 -0.30731002066E+02  0.13585934288E+03  0.12508642614E+03 0.  0.
          5    1    3    3  502    0  0.25398141678E+02  0.45148306176E+02 -0.67278014868E+02  0.85013168603E+02  0.41800000000E+01 0. -1.
         -5    1    3    3    0  502  0.15580502948E+02 -0.31455123929E+02  0.36547012803E+02  0.50846174274E+02  0.41800000000E+01 0. -1.
        -11    1    1    2    0    0 -0.49376604193E+01 -0.28228466837E+02 -0.51312208722E+02  0.58772183848E+02  0.00000000000E+00 0.  1.
         11    1    1    2    0    0 -0.36040984206E+02  0.14535284589E+02  0.25684750939E+02  0.46582544708E+02  0.00000000000E+00 0. -1.
</event>
<event>
 7    1  0.2840156E-009  0.9493418E+02  0.7561462E-02  0.1291324E+00
         -2   -1    0    0    0  501 -0.00000000000E+00  0.00000000000E+00  0.32946068687E+03  0.32946068687E+03  0.00000000000E+00 0.  1.
          2   -1    0    0  501    0  0.00000000000E+00 -0.00000000000E+00 -0.73085844650E+02  0.73085844650E+02  0.00000000000E+00 0. -1.
         25    2    1    2    0    0 -0.16835076143E+02 -0.47834389642E+02  0.10248284654E+02  0.13537813561E+03  0.12510261245E+03 0.  0.
          5    1    3    3  502    0  0.22695502400E+02 -0.38882229688E+02 -0.46929482279E+02  0.65167187462E+02  0.41800000000E+01 0.  1.
         -5    1    3    3    0  502 -0.39530578543E+02 -0.89521599544E+01  0.57177766933E+02  0.70210948144E+02  0.41800000000E+01 0.  1.
        -11    1    1    2    0    0 -0.21990907119E+02 -0.17366549379E+02  0.68682956192E+02  0.74179144674E+02  0.00000000000E+00 0. -1.
         11    1    1    2    0    0  0.38825983262E+02  0.65200939021E+02  0.17744360137E+03  0.19298925124E+03  0.00000000000E+00 0.  1.
</event>
<event>
 7    1  0.2840156E-009  0.8771386E+02  0.7561462E-02  0.1308484E+00
          2   -1    0    0  501    0  0.00000000000E+00  0.00000000000E+00  0.69997146498E+02  0.69997146498E+02  0.00000000000E+00 0. -1.
         -2   -1    0    0    0  501 -0.00000000000E+00 -0.00000000000E+00 -0.22046744748E+03  0.22046744748E+03  0.00000000000E+00 0.  1.
         25    2    1    2    0    0  0.10488145597E+02  0.40843898923E+02 -0.13618271266E+03  0.18966327554E+03  0.12509277191E+03 0.  0.
          5    1    3    3  502    0  0.35083526546E+02  0.44888098054E+02 -0.64457959996E+01  0.57487527934E+02  0.41800000000E+01 0. -1.
         -5    1    3    3    0  502 -0.24595380949E+02 -0.40441991315E+01 -0.12973691666E+03  0.13217574761E+03  0.41800000000E+01 0. -1.
        -11    1    1    2    0    0 -0.37400766540E+02 -0.51867903193E+02 -0.26550278223E+02  0.69238818543E+02  0.00000000000E+00 0.  1.
         11    1    1    2    0    0  0.26912620943E+02  0.11024004270E+02  0.12262689900E+02  0.31562499897E+02  0.00000000000E+00 0. -1.
</event>
<event>
 7    1  0.2840156E-009  0.1240256E+03  0.7561462E-02  0.1236600E+00
          3   -1    0    0  501    0  0.00000000000E+00  0.00000000000E+00  0.44579417093E+02  0.44579417093E+02  0.00000000000E+00 0. -1.
         -3   -1    0    0    0  501 -0.00000000000E+00 -0.00000000000E+00 -0.51896030835E+03  0.51896030835E+03  0.00000000000E+00 0.  1.
         25    2    1    2    0    0  0.49742862451E+02  0.50853255558E+02 -0.10924390998E+03  0.18066924888E+03  0.12508692840E+03 0.  0.
          5    1    3    3  502    0  0.71613514817E+02  0.74494835804E+02 -0.54205252415E+02  0.11676325559E+03  0.41800000000E+01 0.  1.
         -5    1    3    3    0  502 -0.21870652366E+02 -0.23641580246E+02 -0.55038657567E+02  0.63905993288E+02  0.41800000000E+01 0.  1.
        -11    1    1    2    0    0 -0.88931610615E+01 -0.67471694752E+02 -0.26212311702E+03  0.27081367466E+03  0.00000000000E+00 0.  1.
         11    1    1    2    0    0 -0.40849701390E+02  0.16618439194E+02 -0.10301386425E+03  0.11205680190E+03  0.00000000000E+00 0. -1.
</event>
<event>
 7    1  0.2840156E-009  0.1251046E+03  0.7561462E-02  0.1234906E+00
          2   -1    0    0  501    0  0.00000000000E+00  0.00000000000E+00  0.32821180076E+03  0.32821180076E+03  0.00000000000E+00 0. -1.
         -2   -1    0    0    0  501 -0.00000000000E+00 -0.00000000000E+00 -0.56408668971E+02  0.56408668971E+02  0.00000000000E+00 0.  1.
         25    2    1    2    0    0  0.30045589610E+02 -0.75988214233E+02  0.13789366407E+03  0.20332418599E+03  0.12509642624E+03 0.  0.
          5    1    3    3  502    0  0.18554174276E+01 -0.97273231379E+02  0.52083784059E+02  0.11043422060E+03  0.41800000000E+01 0.  1.
         -5    1    3    3    0  502  0.28190172183E+02  0.21285017146E+02  0.85809880012E+02  0.92889965390E+02  0.41800000000E+01 0.  1.
        -11    1    1    2    0    0 -0.58889191882E+02  0.60866044258E+02  0.71238850513E+02  0.11066881262E+03  0.00000000000E+00 0. -1.
         11    1    1    2    0    0  0.28843602271E+02  0.15122169975E+02  0.62670617204E+02  0.70627471125E+02  0.00000000000E+00 0.  1.
</event>
<event>
 7    1  0.2840156E-009  0.2804565E+03  0.7561462E-02  0.1095440E+00
         -1   -1    0    0    0  501 -0.00000000000E+00  0.00000000000E+00  0.16881535005E+03  0.16881535005E+03  0.00000000000E+00 0.  1.
          1   -1    0    0  501    0  0.00000000000E+00 -0.00000000000E+00 -0.60924643246E+03  0.60924643246E+03  0.00000000000E+00 0. -1.
         25    2    1    2    0    0  0.24051414503E+03  0.12797104182E+03 -0.38119356488E+03  0.48494955235E+03  0.12507554883E+03 0.  0.
          5    1    3    3  502    0  0.13826503155E+03  0.11433305686E+03 -0.15827811907E+03  0.23928790654E+03  0.41800000000E+01 0.  1.
         -5    1    3    3    0  502  0.10224911349E+03  0.13637984959E+02 -0.22291544582E+03  0.24566164582E+03  0.41800000000E+01 0.  1.
        -11    1    1    2    0    0 -0.49059283601E+02 -0.54015397086E+02 -0.48444743414E+02  0.87586355069E+02  0.00000000000E+00 0. -1.
         11    1    1    2    0    0 -0.19145486143E+03 -0.73955644729E+02 -0.10792774113E+02  0.20552587508E+03  0.00000000000E+00 0.  1.
</event>
<event>
 7    1  0.2840156E-009  0.1093852E+03  0.7561462E-02  0.1261713E+00
          1   -1    0    0  501    0  0.00000000000E+00  0.00000000000E+00  0.90680132966E+03  0.90680132966E+03  0.00000000000E+00 0. -1.
         -1   -1    0    0    0  501 -0.00000000000E+00 -0.00000000000E+00 -0.13513221976E+02  0.13513221976E+02  0.00000000000E+00 0.  1.
         25    2    1    2    0    0 -0.10103507479E+02  0.19978903562E+02  0.55969190314E+03  0.57393733771E+03  0.12509118164E+03 0.  0.
          5    1    3    3  502    0  0.46546709098E+02  0.44656309370E+02  0.26019262974E+03  0.26810158348E+03  0.41800000000E+01 0. -1.
         -5    1    3    3    0  502 -0.56650216577E+02 -0.24677405808E+02  0.29949927341E+03  0.30583575423E+03  0.41800000000E+01 0. -1.
        -11    1    1    2    0    0 -0.27282456175E+02 -0.41045181467E+02  0.20364107861E+03  0.20952023347E+03  0.00000000000E+00 0.  1.
         11    1    1    2    0    0  0.37385963654E+02  0.21066277905E+02  0.12995512594E+03  0.13685698046E+03  0.00000000000E+00 0. -1.
</event>
<event>
 7    1  0.2840156E-009  0.1147715E+03  0.7561462E-02  0.1251981E+00
          1   -1    0    0  501    0  0.00000000000E+00  0.00000000000E+00  0.14701186102E+04  0.14701186102E+04  0.00000000000E+00 0. -1.
         -1   -1    0    0    0  501 -0.00000000000E+00 -0.00000000000E+00 -0.98030006164E+01  0.98030006164E+01  0.00000000000E+00 0.  1.
         25    2    1    2    0    0 -0.29520686167E+02 -0.29011734496E+02  0.10057668865E+04  0.10143608106E+04  0.12509065688E+03 0.  0.
          5    1    3    3  502    0  0.43786246696E+02 -0.37518672498E+02  0.43066017881E+03  0.43452335748E+03  0.41800000000E+01 0.  1.
         -5    1    3    3    0  502 -0.73306932862E+02  0.85069380028E+01  0.57510670771E+03  0.57983745313E+03  0.41800000000E+01 0.  1.
        -11    1    1    2    0    0 -0.21866305087E+02 -0.17880442255E+02  0.86493558749E+02  0.90988907118E+02  0.00000000000E+00 0.  1.
         11    1    1    2    0    0  0.51386991253E+02  0.46892176751E+02  0.36805516430E+03  0.37457189307E+03  0.00000000000E+00 0. -1.
</event>
<event>
 7    1  0.2840156E-009  0.9601341E+02  0.7561462E-02  0.1288910E+00
         -2   -1    0    0    0  501 -0.00000000000E+00  0.00000000000E+00  0.21334604366E+03  0.21334604366E+03  0.00000000000E+00 0.  1.
          2   -1    0    0  501    0  0.00000000000E+00 -0.00000000000E+00 -0.76977981299E+02  0.76977981299E+02  0.00000000000E+00 0. -1.
         25    2    1    2    0    0  0.40015660542E+02 -0.19041001127E+02  0.13426845385E+03  0.18878281012E+03  0.12508844425E+03 0.  0.
          5    1    3    3  502    0 -0.15802988031E+02  0.17601750597E+02  0.11733822217E+03  0.11977181152E+03  0.41800000000E+01 0.  1.
         -5    1    3    3    0  502  0.55818648573E+02 -0.36642751724E+02  0.16930231686E+02  0.69010998597E+02  0.41800000000E+01 0.  1.
        -11    1    1    2    0    0  0.29313003357E+02  0.11004011874E+02 -0.35961513553E+01  0.31516229909E+02  0.00000000000E+00 0.  1.
         11    1    1    2    0    0 -0.69328663898E+02  0.80369892524E+01  0.56957598669E+01  0.70024984931E+02  0.00000000000E+00 0. -1.
</event>
<event>
 7    1  0.2840156E-009  0.2176609E+03  0.7561462E-02  0.1135639E+00
          1   -1    0    0  501    0  0.00000000000E+00  0.00000000000E+00  0.43839362801E+03  0.43839362801E+03  0.00000000000E+00 0. -1.
         -1   -1    0    0    0  501 -0.00000000000E+00 -0.00000000000E+00 -0.13191937135E+03  0.13191937135E+03  0.00000000000E+00 0.  1.
         25    2    1    2    0    0  0.20255705431E+03  0.32445217058E+02  0.23200039085E+03  0.33399657757E+03  0.12508988813E+03 0.  0.
          5    1    3    3  502    0  0.17935530894E+03  0.85045609068E+01  0.23970245664E+03  0.29952528194E+03  0.41800000000E+01 0.  1.
         -5    1    3    3    0  502  0.23201745372E+02  0.23940656151E+02 -0.77020657894E+01  0.34471295634E+02  0.41800000000E+01 0.  1.
        -11    1    1    2    0    0 -0.94772191108E+02 -0.58307417918E+02  0.20954994017E+02  0.11322824279E+03  0.00000000000E+00 0.  1.
         11    1    1    2    0    0 -0.10778486320E+03  0.25862200860E+02  0.53518871801E+02  0.12308817899E+03  0.00000000000E+00 0. -1.
</event>
<event>
 7    1  0.2840156E-009  0.7713693E+02  0.7561462E-02  0.1337379E+00
         -4   -1    0    0    0  501 -0.00000000000E+00  0.00000000000E+00  0.17549844898E+03  0.17549844898E+03  0.00000000000E+00 0.  1.
          4   -1    0    0  501    0  0.00000000000E+00 -0.00000000000E+00 -0.73267010566E+02  0.73267010566E+02  0.00000000000E+00 0. -1.
         25    2    1    2    0    0  0.36136278410E+01 -0.20384281528E+02  0.89595408653E+02  0.15525140472E+03  0.12508830551E+03 0.  0.
          5    1    3    3  502    0 -0.20853017978E+02  0.15685715618E+02 -0.22626866275E+02  0.34789905298E+02  0.41800000000E+01 0. -1.
         -5    1    3    3    0  502  0.24466645819E+02 -0.36069997146E+02  0.11222227493E+03  0.12046149942E+03  0.41800000000E+01 0. -1.
        -11    1    1    2    0    0 -0.16069176033E+02 -0.28987499891E+02 -0.14082285118E+02  0.36011169412E+02  0.00000000000E+00 0. -1.
         11    1    1    2    0    0  0.12455548192E+02  0.49371781419E+02  0.26718314877E+02  0.57502885415E+02  0.00000000000E+00 0.  1.
</event>
<event>
 7    1  0.2840156E-009  0.1278493E+03  0.7561462E-02  0.1230682E+00
         -1   -1    0    0    0  501 -0.00000000000E+00  0.00000000000E+00  0.38312397322E+02  0.38312397322E+02  0.00000000000E+00 0.  1.
          1   -1    0    0  501    0  0.00000000000E+00 -0.00000000000E+00 -0.54998997688E+03  0.54998997688E+03  0.00000000000E+00 0. -1.
         25    2    1    2    0    0  0.54858591765E+02 -0.58052461420E+02 -0.38153781216E+03  0.40938582077E+03  0.12508435064E+03 0.  0.
          5    1    3    3  502    0  0.56549974959E+02 -0.92092585365E+02 -0.23219463767E+03  0.25614598594E+03  0.41800000000E+01 0.  1.
         -5    1    3    3    0  502 -0.16913831936E+01  0.34040123945E+02 -0.14934317448E+03  0.15323983483E+03  0.41800000000E+01 0.  1.
        -11    1    1    2    0    0 -0.85584304903E+01 -0.20395766445E+02 -0.60007347477E+02  0.63954012951E+02  0.00000000000E+00 0. -1.
         11    1    1    2    0    0 -0.46300161275E+02  0.78448227866E+02 -0.70132419923E+02  0.11496254048E+03  0.00000000000E+00 0.  1.
</event>
<event>
 7    1  0.2840156E-009  0.9094535E+02  0.7561462E-02  0.1300578E+00
         -3   -1    0    0    0  501 -0.00000000000E+00  0.00000000000E+00  0.51950046292E+03  0.51950046292E+03  0.00000000000E+00 0.  1.
          3   -1    0    0  501    0  0.00000000000E+00 -0.00000000000E+00 -0.41392638307E+02  0.41392638307E+02  0.00000000000E+00 0. -1.
         25    2    1    2    0    0  0.16864121542E+02 -0.49585764687E+02  0.41883322227E+03  0.44024014813E+03  0.12508786228E+03 0.  0.
          5    1    3    3  502    0  0.30360473519E+02 -0.74409544873E+02  0.15296331412E+03  0.17284035000E+03  0.41800000000E+01 0. -1.
         -5    1    3    3    0  502 -0.13496351977E+02  0.24823780186E+02  0.26586990815E+03  0.26739979813E+03  0.41800000000E+01 0. -1.
        -11    1    1    2    0    0 -0.76599567922E+01 -0.99803411611E+01  0.59054253511E+02  0.60379524721E+02  0.00000000000E+00 0.  1.
         11    1    1    2    0    0 -0.92041647500E+01  0.59566105848E+02  0.22034882705E+00  0.60273428376E+02  0.00000000000E+00 0. -1.
</event>
<event>
 7    1  0.2840156E-009  0.3527377E+03  0.7561462E-02  0.1061497E+00
          1   -1    0    0  501    0  0.00000000000E+00  0.00000000000E+00  0.42669778179E+03  0.42669778179E+03  0.00000000000E+00 0. -1.
         -1   -1    0    0    0  501 -0.00000000000E+00 -0.00000000000E+00 -0.31981815535E+03  0.31981815535E+03  0.00000000000E+00 0.  1.
         25    2    1    2    0    0 -0.18870013270E+03  0.28267718899E+03  0.15111258985E+03  0.39242588699E+03  0.12509567824E+03 0.  0.
          5    1    3    3  502    0 -0.62310470785E+02  0.19757735320E+03  0.10977329298E+03  0.23449318437E+03  0.41800000000E+01 0.  1.
         -5    1    3    3    0  502 -0.12638966192E+03  0.85099835789E+02  0.41339296874E+02  0.15793270262E+03  0.41800000000E+01 0.  1.
        -11    1    1    2    0    0  0.98922926998E+02 -0.20292227541E+03 -0.58369672695E+02  0.23317421391E+03  0.00000000000E+00 0. -1.
         11    1    1    2    0    0  0.89777205705E+02 -0.79754913579E+02  0.14136709287E+02  0.12091583624E+03  0.00000000000E+00 0.  1.
</event>
<event>
 7    1  0.2840156E-009  0.9711018E+02  0.7561462E-02  0.1286493E+00
         -2   -1    0    0    0  501 -0.00000000000E+00  0.00000000000E+00  0.50900563937E+02  0.50900563937E+02  0.00000000000E+00 0.  1.
          2   -1    0    0  501    0  0.00000000000E+00 -0.00000000000E+00 -0.27742656671E+03  0.27742656671E+03  0.00000000000E+00 0. -1.
         25    2    1    2    0    0  0.29871353069E+02  0.38467973557E+02 -0.11325379179E+03  0.17562932406E+03  0.12508859017E+03 0.  0.
          5    1    3    3  502    0  0.55655838130E+02  0.64680495123E+02 -0.10883540725E+03  0.13836096645E+03  0.41800000000E+01 0.  1.
         -5    1    3    3    0  502 -0.25784485060E+02 -0.26212521565E+02 -0.44183845383E+01  0.37268357605E+02  0.41800000000E+01 0.  1.
        -11    1    1    2    0    0 -0.17777532839E+02  0.10968310656E+02 -0.97062317145E+02  0.99284630845E+02  0.00000000000E+00 0. -1.
         11    1    1    2    0    0 -0.12093820230E+02 -0.49436284213E+02 -0.16209893840E+02  0.53413175742E+02  0.00000000000E+00 0.  1.
</event>
<event>
 7    1  0.3116119E-009  0.1905796E+03  0.7561462E-02  0.1157940E+00
          2   -1    0    0  501    0  0.00000000000E+00  0.00000000000E+00  0.40528250863E+03  0.40528250863E+03  0.00000000000E+00 0. -1.
         -2   -1    0    0    0  501 -0.00000000000E+00 -0.00000000000E+00 -0.10130109625E+03  0.10130109625E+03  0.00000000000E+00 0.  1.
         25    2    1    2    0    0 -0.30124063036E+02  0.16766743367E+03  0.14190178665E+03  0.25456386687E+03  0.12508724064E+03 0.  0.
          5    1    3    3  502    0  0.35200842165E+02  0.11841350748E+03  0.55478246371E+02  0.13548493003E+03  0.41800000000E+01 0. -1.
         -5    1    3    3    0  502 -0.65324905201E+02  0.49253926188E+02  0.86423540280E+02  0.11907893684E+03  0.41800000000E+01 0. -1.
        -11    1    1    2    0    0 -0.60608588043E+01 -0.87141075413E+02  0.13290545103E+03  0.15904137810E+03  0.00000000000E+00 0. -1.
         11    1    1    2    0    0  0.36184921840E+02 -0.80526358260E+02  0.29174174697E+02  0.92978359914E+02  0.00000000000E+00 0.  1.
</event>
<event>
 7    1  0.2840156E-009  0.1279144E+03  0.7561462E-02  0.1230584E+00
          1   -1    0    0  501    0  0.00000000000E+00  0.00000000000E+00  0.10047803356E+03  0.10047803356E+03  0.00000000000E+00 0. -1.
         -1   -1    0    0    0  501 -0.00000000000E+00 -0.00000000000E+00 -0.20509965051E+03  0.20509965051E+03  0.00000000000E+00 0.  1.
         25    2    1    2    0    0 -0.43845204984E+02 -0.63708655921E+02  0.17371007137E-01  0.14706522022E+03  0.12508790452E+03 0.  0.
          5    1    3    3  502    0  0.42298746499E+02 -0.12016766094E+02  0.12083622825E+02  0.45793809225E+02  0.41800000000E+01 0.  1.
         -5    1    3    3    0  502 -0.86143951483E+02 -0.51691889828E+02 -0.12066251818E+02  0.10127141099E+03  0.41800000000E+01 0.  1.
        -11    1    1    2    0    0  0.20927688402E+02  0.80192315132E+02 -0.49415378209E+02  0.96491736183E+02  0.00000000000E+00 0. -1.
         11    1    1    2    0    0  0.22917516582E+02 -0.16483659210E+02 -0.55223609746E+02  0.62020727669E+02  0.00000000000E+00 0.  1.
</event>
<event>
 7    1  0.2840156E-009  0.1688749E+03  0.7561462E-02  0.1179026E+00
          3   -1    0    0  501    0  0.00000000000E+00  0.00000000000E+00  0.21012699599E+03  0.21012699599E+03  0.00000000000E+00 0. -1.
         -3   -1    0    0    0  501 -0.00000000000E+00 -0.00000000000E+00 -0.16805912362E+03  0.16805912362E+03  0.00000000000E+00 0.  1.
         25    2    1    2    0    0  0.22661540017E+02  0.15126899185E+03  0.18728571340E+02  0.19848045531E+03  0.12509148038E+03 0.  0.
          5    1    3    3  502    0  0.56836798079E+02  0.10036831802E+03 -0.30907811980E+02  0.11948634281E+03  0.41800000000E+01 0.  1.
         -5    1    3    3    0  502 -0.34175258062E+02  0.50900673835E+02  0.49636383319E+02  0.78994112499E+02  0.41800000000E+01 0.  1.
        -11    1    1    2    0    0 -0.38633622174E+02 -0.10119347018E+03 -0.21720528486E+02  0.11047378208E+03  0.00000000000E+00 0.  1.
         11    1    1    2    0    0  0.15972082157E+02 -0.50075521671E+02  0.45059829523E+02  0.69231882220E+02  0.00000000000E+00 0. -1.
</event>
<event>
 7    1  0.2840156E-009  0.1089861E+03  0.7561462E-02  0.1262459E+00
         -2   -1    0    0    0  501 -0.00000000000E+00  0.00000000000E+00  0.85073564264E+02  0.85073564264E+02  0.00000000000E+00 0.  1.
          2   -1    0    0  501    0  0.00000000000E+00 -0.00000000000E+00 -0.15138617321E+03  0.15138617321E+03  0.00000000000E+00 0. -1.
         25    2    1    2    0    0 -0.31166370087E+02  0.12441810352E+02 -0.48060521579E+02  0.13815542424E+03  0.12510382185E+03 0.  0.
          5    1    3    3  502    0  0.43560528794E+02 -0.11032958144E+02  0.18776197681E+01  0.45169056778E+02  0.41800000000E+01 0.  1.
         -5    1    3    3    0  502 -0.74726898881E+02  0.23474768496E+02 -0.49938141347E+02  0.92986367460E+02  0.41800000000E+01 0.  1.
        -11    1    1    2    0    0  0.27040362501E+02 -0.49880258443E+02 -0.68102827305E+00  0.56742269835E+02  0.00000000000E+00 0.  1.
         11    1    1    2    0    0  0.41260075863E+01  0.37438448091E+02 -0.17571059093E+02  0.41562043402E+02  0.00000000000E+00 0. -1.
</event>
<event>
 7    1  0.2840156E-009  0.1250144E+03  0.7561462E-02  0.1235047E+00
         -2   -1    0    0    0  501 -0.00000000000E+00  0.00000000000E+00  0.12980318453E+03  0.12980318453E+03  0.00000000000E+00 0. -1.
          2   -1    0    0  501    0  0.00000000000E+00 -0.00000000000E+00 -0.35421537152E+03  0.35421537152E+03  0.00000000000E+00 0.  1.
         25    2    1    2    0    0 -0.11327077071E+02  0.10614131924E+03  0.52904084632E+02  0.17274586695E+03  0.12509200635E+03 0.  0.
          5    1    3    3  502    0 -0.97358074566E+01  0.96636310203E+01 -0.37689542923E+02  0.40325497605E+02  0.41800000000E+01 0.  1.
         -5    1    3    3    0  502 -0.15912696140E+01  0.96477688219E+02  0.90593627555E+02  0.13242036934E+03  0.41800000000E+01 0.  1.
        -11    1    1    2    0    0 -0.39286608656E+02 -0.45105719937E+02 -0.92374341859E+02  0.11004990970E+03  0.00000000000E+00 0. -1.
         11    1    1    2    0    0  0.50613685727E+02 -0.61035599303E+02 -0.18494192977E+03  0.20122277941E+03  0.00000000000E+00 0.  1.
</event>
<event>
 7    1  0.2840156E-009  0.1241575E+03  0.7561462E-02  0.1236392E+00
          1   -1    0    0  501    0  0.00000000000E+00  0.00000000000E+00  0.62697548136E+02  0.62697548136E+02  0.00000000000E+00 0. -1.
         -1   -1    0    0    0  501 -0.00000000000E+00 -0.00000000000E+00 -0.30507082274E+03  0.30507082274E+03  0.00000000000E+00 0.  1.
         25    2    1    2    0    0 -0.23660924856E+02 -0.82287693439E+02 -0.11816121132E+03  0.19219939003E+03  0.12508968707E+03 0.  0.
          5    1    3    3  502    0  0.34785624577E+02 -0.61638650335E+02 -0.16083355087E+02  0.72701510323E+02  0.41800000000E+01 0. -1.
         -5    1    3    3    0  502 -0.58446549433E+02 -0.20649043104E+02 -0.10207785624E+03  0.11949787971E+03  0.41800000000E+01 0. -1.
        -11    1    1    2    0    0  0.47016012779E+02  0.24625604798E+02 -0.25487206687E+02  0.58877190609E+02  0.00000000000E+00 0. -1.
         11    1    1    2    0    0 -0.23355087923E+02  0.57662088642E+02 -0.98724856590E+02  0.11669179023E+03  0.00000000000E+00 0.  1.
</event>
<event>
 7    1  0.2840156E-009  0.1188700E+03  0.7561462E-02  0.1244973E+00
          1   -1    0    0  501    0  0.00000000000E+00  0.00000000000E+00  0.14899143509E+03  0.14899143509E+03  0.00000000000E+00 0. -1.
         -1   -1    0    0    0  501 -0.00000000000E+00 -0.00000000000E+00 -0.14737533445E+03  0.14737533445E+03  0.00000000000E+00 0.  1.
         25    2    1    2    0    0 -0.61108569556E+02 -0.72397694057E+02  0.34461475750E+02  0.16065851260E+03  0.12509149044E+03 0.  0.
          5    1    3    3  502    0 -0.30336931617E+02  0.16493559158E+02  0.54249086359E+02  0.64442243012E+02  0.41800000000E+01 0. -1.
         -5    1    3    3    0  502 -0.30771637939E+02 -0.88891253216E+02 -0.19787610609E+02  0.96216269587E+02  0.41800000000E+01 0. -1.
        -11    1    1    2    0    0 -0.77770966524E+01  0.22311718962E+02 -0.43869778096E+02  0.49828239639E+02  0.00000000000E+00 0.  1.
         11    1    1    2    0    0  0.68885666209E+02  0.50085975095E+02  0.11024402986E+02  0.85880017300E+02  0.00000000000E+00 0. -1.
</event>
<event>
 7    1  0.2840156E-009  0.9979524E+02  0.7561462E-02  0.1280727E+00
         -2   -1    0    0    0  501 -0.00000000000E+00  0.00000000000E+00  0.26985868199E+02  0.26985868199E+02  0.00000000000E+00 0.  1.
          2   -1    0    0  501    0  0.00000000000E+00 -0.00000000000E+00 -0.46793647863E+03  0.46793647863E+03  0.00000000000E+00 0. -1.
         25    2    1    2    0    0 -0.10607300703E+02 -0.26955748706E+02 -0.28227082963E+03  0.31009722442E+03  0.12507733653E+03 0.  0.
          5    1    3    3  502    0 -0.50117815211E+02  0.29173217322E+02 -0.10619854712E+03  0.12107219260E+03  0.41800000000E+01 0. -1.
         -5    1    3    3    0  502  0.39510514508E+02 -0.56128966028E+02 -0.17607228251E+03  0.18902503182E+03  0.41800000000E+01 0. -1.
        -11    1    1    2    0    0 -0.22825197188E+01 -0.21969212493E+02 -0.11759206137E+03  0.11964843957E+03  0.00000000000E+00 0. -1.
         11    1    1    2    0    0  0.12889820421E+02  0.48924961199E+02 -0.41087719425E+02  0.65176682843E+02  0.00000000000E+00 0.  1.
</event>
<event>
 7    1  0.2840156E-009  0.1237214E+03  0.7561462E-02  0.1237081E+00
          2   -1    0    0  501    0  0.00000000000E+00  0.00000000000E+00  0.29960543227E+03  0.29960543227E+03  0.00000000000E+00 0. -1.
         -2   -1    0    0    0  501 -0.00000000000E+00 -0.00000000000E+00 -0.79049182415E+02  0.79049182415E+02  0.00000000000E+00 0.  1.
         25    2    1    2    0    0  0.28511318232E+02 -0.76851660548E+02  0.31364282198E+02  0.15280683058E+03  0.12508851377E+03 0.  0.
          5    1    3    3  502    0  0.72206290097E+02 -0.62843931190E+02 -0.21375549093E+01  0.95839185921E+02  0.41800000000E+01 0.  1.
         -5    1    3    3    0  502 -0.43694971865E+02 -0.14007729359E+02  0.33501837107E+02  0.56967644656E+02  0.41800000000E+01 0.  1.
        -11    1    1    2    0    0 -0.49620880176E+02  0.43010927728E+02  0.16865072795E+03  0.18098408685E+03  0.00000000000E+00 0. -1.
         11    1    1    2    0    0  0.21109561944E+02  0.33840732821E+02  0.20541239704E+02  0.44863697261E+02  0.00000000000E+00 0.  1.
</event>
<event>
 7    1  0.2840156E-009  0.1989971E+03  0.7561462E-02  0.1150588E+00
         -1   -1    0    0    0  501 -0.00000000000E+00  0.00000000000E+00  0.12984222217E+03  0.12984222217E+03  0.00000000000E+00 0.  1.
          1   -1    0    0  501    0  0.00000000000E+00 -0.00000000000E+00 -0.35824955258E+03  0.35824955258E+03  0.00000000000E+00 0. -1.
         25    2    1    2    0    0 -0.17387939528E+03 -0.36217631300E+02 -0.17601897903E+03  0.27959630877E+03  0.12508258864E+03 0.  0.
          5    1    3    3  502    0 -0.16231189235E+03  0.14752309085E+02 -0.14777455278E+03  0.22003993244E+03  0.41800000000E+01 0. -1.
         -5    1    3    3    0  502 -0.11567502931E+02 -0.50969940385E+02 -0.28244426248E+02  0.59556376325E+02  0.41800000000E+01 0. -1.
        -11    1    1    2    0    0  0.71957436129E+02 -0.59999857019E+01 -0.65386378908E+02  0.97412786581E+02  0.00000000000E+00 0. -1.
         11    1    1    2    0    0  0.10192195915E+03  0.42217617002E+02  0.12998027526E+02  0.11108267939E+03  0.00000000000E+00 0.  1.
</event>
<event>
 7    1  0.2840156E-009  0.1937522E+03  0.7561462E-02  0.1155120E+00
         -2   -1    0    0    0  501 -0.00000000000E+00  0.00000000000E+00  0.41799415051E+02  0.41799415051E+02  0.00000000000E+00 0. -1.
          2   -1    0    0  501    0  0.00000000000E+00 -0.00000000000E+00 -0.10594300721E+04  0.10594300721E+04  0.00000000000E+00 0.  1.
         25    2    1    2    0    0  0.17111307971E+03  0.64826491732E+01 -0.67735143453E+03  0.70977018980E+03  0.12508815162E+03 0.  0.
          5    1    3    3  502    0  0.34058509629E+02 -0.41285377876E+02 -0.31267383590E+03  0.31724890002E+03  0.41800000000E+01 0.  1.
         -5    1    3    3    0  502  0.13705457008E+03  0.47768027050E+02 -0.36467759863E+03  0.39252128978E+03  0.41800000000E+01 0.  1.
        -11    1    1    2    0    0 -0.98606168633E+02 -0.42837797204E+02 -0.14939899989E+03  0.18406062732E+03  0.00000000000E+00 0. -1.
         11    1    1    2    0    0 -0.72506911077E+02  0.36355148031E+02 -0.19088022268E+03  0.20739867008E+03  0.00000000000E+00 0.  1.
</event>
<event>
 7    1  0.2840156E-009  0.3456287E+03  0.7561462E-02  0.1064424E+00
         -1   -1    0    0    0  501 -0.00000000000E+00  0.00000000000E+00  0.14493129101E+03  0.14493129101E+03  0.00000000000E+00 0.  1.
          1   -1    0    0  501    0  0.00000000000E+00 -0.00000000000E+00 -0.88003822012E+03  0.88003822012E+03  0.00000000000E+00 0. -1.
         25    2    1    2    0    0 -0.23449711621E+03  0.24471515424E+03 -0.33295872272E+03  0.49130739064E+03  0.12508811629E+03 0.  0.
          5    1    3    3  502    0 -0.75414595656E+02  0.45406649963E+02 -0.25317291583E+02  0.91692762811E+02  0.41800000000E+01 0. -1.
         -5    1    3    3    0  502 -0.15908252056E+03  0.19930850428E+03 -0.30764143114E+03  0.39961462783E+03  0.41800000000E+01 0. -1.
        -11    1    1    2    0    0  0.16028294888E+03 -0.11038827928E+03 -0.19146308495E+03  0.27300972291E+03  0.00000000000E+00 0.  1.
         11    1    1    2    0    0  0.74214167332E+02 -0.13432687496E+03 -0.21068512144E+03  0.26065239758E+03  0.00000000000E+00 0. -1.
</event>
<event>
 7    1  0.2840156E-009  0.8437110E+02  0.7561462E-02  0.1317085E+00
         -2   -1    0    0    0  501 -0.00000000000E+00  0.00000000000E+00  0.53681388802E+02  0.53681388802E+02  0.00000000000E+00 0.  1.
          2   -1    0    0  501    0  0.00000000000E+00 -0.00000000000E+00 -0.26940624161E+03  0.26940624161E+03  0.00000000000E+00 0. -1.
         25    2    1    2    0    0  0.40741177052E+02 -0.30083451275E+02 -0.13433062898E+03  0.19041242452E+03  0.12508923208E+03 0.  0.
          5    1    3    3  502    0  0.14831168018E+02 -0.50616075863E+02 -0.93508184580E+00  0.52917836866E+02  0.41800000000E+01 0.  1.
         -5    1    3    3    0  502  0.25910009035E+02  0.20532624588E+02 -0.13339554713E+03  0.13749458766E+03  0.41800000000E+01 0.  1.
        -11    1    1    2    0    0 -0.25766435799E+02  0.50792438911E+02 -0.11295757626E+02  0.58063544541E+02  0.00000000000E+00 0.  1.
         11    1    1    2    0    0 -0.14974741253E+02 -0.20708987636E+02 -0.70098466204E+02  0.74611661345E+02  0.00000000000E+00 0. -1.
</event>
<event>
 7    1  0.2840156E-009  0.5611304E+02  0.7561462E-02  0.1414907E+00
         -1   -1    0    0    0  501 -0.00000000000E+00  0.00000000000E+00  0.31500931564E+02  0.31500931564E+02  0.00000000000E+00 0.  1.
          1   -1    0    0  501    0  0.00000000000E+00 -0.00000000000E+00 -0.39745046635E+03  0.39745046635E+03  0.00000000000E+00 0. -1.
         25    2    1    2    0    0  0.87311158857E+01  0.21599139596E+02 -0.18959379285E+03  0.22833252109E+03  0.12508868328E+03 0.  0.
          5    1    3    3  502    0 -0.16994994818E+02  0.13771929000E+02  0.11734914361E+02  0.25172931739E+02  0.41800000000E+01 0.  1.
         -5    1    3    3    0  502  0.25726110704E+02  0.78272105955E+01 -0.20132870721E+03  0.20315958935E+03  0.41800000000E+01 0.  1.
        -11    1    1    2    0    0  0.10595917024E+02 -0.36710397473E+02 -0.17137791341E+03  0.17558563707E+03  0.00000000000E+00 0. -1.
         11    1    1    2    0    0 -0.19327032910E+02  0.15111257877E+02 -0.49778285231E+01  0.25033239753E+02  0.00000000000E+00 0.  1.
</event>
<event>
 7    1  0.2840156E-009  0.8036565E+02  0.7561462E-02  0.1328017E+00
         -3   -1    0    0    0  501 -0.00000000000E+00  0.00000000000E+00  0.16294662578E+03  0.16294662578E+03  0.00000000000E+00 0.  1.
          3   -1    0    0  501    0  0.00000000000E+00 -0.00000000000E+00 -0.10577874736E+03  0.10577874736E+03  0.00000000000E+00 0. -1.
         25    2    1    2    0    0 -0.21032004012E+02 -0.55759499284E+01  0.10038760379E+03  0.16186051763E+03  0.12509084604E+03 0.  0.
          5    1    3    3  502    0 -0.49171347251E+02  0.20838888878E+02  0.10957447432E+03  0.12196769450E+03  0.41800000000E+01 0.  1.
         -5    1    3    3    0  502  0.28139343240E+02 -0.26414838806E+02 -0.91868705267E+01  0.39892823129E+02  0.41800000000E+01 0.  1.
        -11    1    1    2    0    0  0.24302589357E+02 -0.26583005251E+02 -0.60350512641E+02  0.70281266306E+02  0.00000000000E+00 0. -1.
         11    1    1    2    0    0 -0.32705853451E+01  0.32158955179E+02  0.17130787264E+02  0.36583589203E+02  0.00000000000E+00 0.  1.
</event>
<event>
 7    1  0.2840156E-009  0.9906854E+02  0.7561462E-02  0.1282267E+00
         -2   -1    0    0    0  501 -0.00000000000E+00  0.00000000000E+00  0.12057564405E+02  0.12057564405E+02  0.00000000000E+00 0.  1.
          2   -1    0    0  501    0  0.00000000000E+00 -0.00000000000E+00 -0.12400678741E+04  0.12400678741E+04  0.00000000000E+00 0. -1.
         25    2    1    2    0    0  0.19644203177E+02  0.51479005361E+02 -0.88198203882E+03  0.89251111922E+03  0.12509116042E+03 0.  0.
          5    1    3    3  502    0  0.60877529045E+02  0.29447202783E+02 -0.25740458349E+03  0.26617250665E+03  0.41800000000E+01 0. -1.
         -5    1    3    3    0  502 -0.41233325868E+02  0.22031802578E+02 -0.62457745533E+03  0.62633861257E+03  0.41800000000E+01 0. -1.
        -11    1    1    2    0    0 -0.75781067394E+01 -0.64932961190E+02 -0.32660706830E+03  0.33308541579E+03  0.00000000000E+00 0. -1.
         11    1    1    2    0    0 -0.12066096437E+02  0.13453955829E+02 -0.19421202540E+02  0.26528903460E+02  0.00000000000E+00 0.  1.
</event>
<event>
 7    1  0.2840156E-009  0.1198537E+03  0.7561462E-02  0.1243339E+00
          1   -1    0    0  501    0  0.00000000000E+00  0.00000000000E+00  0.71147716357E+03  0.71147716357E+03  0.00000000000E+00 0. -1.
         -1   -1    0    0    0  501 -0.00000000000E+00 -0.00000000000E+00 -0.33356485734E+02  0.33356485734E+02  0.00000000000E+00 0.  1.
         25    2    1    2    0    0  0.51569801011E+02 -0.93220628439E+02  0.40192990856E+03  0.43421921355E+03  0.12509653905E+03 0.  0.
          5    1    3    3  502    0  0.25162375718E+02 -0.46507642159E+02  0.35428634943E+02  0.63786883486E+02  0.41800000000E+01 0.  1.
         -5    1    3    3    0  502  0.26407425294E+02 -0.46712986280E+02  0.36650127361E+03  0.37043233007E+03  0.41800000000E+01 0.  1.
        -11    1    1    2    0    0  0.16405163471E+02 -0.12547600898E+01  0.86599499918E+02  0.88148608596E+02  0.00000000000E+00 0. -1.
         11    1    1    2    0    0 -0.67974964482E+02  0.94475388529E+02  0.18959126936E+03  0.22246582715E+03  0.00000000000E+00 0.  1.
</event>
<event>
 7    1  0.2840156E-009  0.1097289E+03  0.7561462E-02  0.1261073E+00
          1   -1    0    0  501    0  0.00000000000E+00  0.00000000000E+00  0.59765428770E+02  0.59765428770E+02  0.00000000000E+00 0. -1.
         -1   -1    0    0    0  501 -0.00000000000E+00 -0.00000000000E+00 -0.29106659918E+03  0.29106659918E+03  0.00000000000E+00 0.  1.
         25    2    1    2    0    0 -0.24473391269E+02  0.38248220981E+02 -0.46369400549E+02  0.14092289543E+03  0.12508903974E+03 0.  0.
          5    1    3    3  502    0 -0.28184002302E+02 -0.42275450552E+02 -0.82007238172E+01  0.51635994968E+02  0.41800000000E+01 0. -1.
         -5    1    3    3    0  502  0.37106110337E+01  0.80523671533E+02 -0.38168676732E+02  0.89286900466E+02  0.41800000000E+01 0. -1.
        -11    1    1    2    0    0  0.49957558483E+02 -0.37141721333E+02 -0.77063584284E+02  0.99065943371E+02  0.00000000000E+00 0. -1.
         11    1    1    2    0    0 -0.25484167214E+02 -0.11064996479E+01 -0.10786818557E+03  0.11084318914E+03  0.00000000000E+00 0.  1.
</event>
<event>
 7    1  0.2840156E-009  0.9397614E+02  0.7561462E-02  0.1293499E+00
         -2   -1    0    0    0  501 -0.00000000000E+00  0.00000000000E+00  0.88107309567E+02  0.88107309567E+02  0.00000000000E+00 0. -1.
          2   -1    0    0  501    0  0.00000000000E+00 -0.00000000000E+00 -0.17626181040E+03  0.17626181040E+03  0.00000000000E+00 0.  1.
         25    2    1    2    0    0  0.32485951936E+02 -0.51256254562E+02 -0.60234986675E+02  0.15153505853E+03  0.12510827167E+03 0.  0.
          5    1    3    3  502    0 -0.34612987894E+02 -0.75436739713E+01 -0.61769737145E+02  0.71329788833E+02  0.41800000000E+01 0.  1.
         -5    1    3    3    0  502  0.67098939830E+02 -0.43712580591E+02  0.15347504696E+01  0.80205269697E+02  0.41800000000E+01 0.  1.
        -11    1    1    2    0    0  0.47458257532E+01  0.27541840913E+02 -0.54541479569E+02  0.61284980676E+02  0.00000000000E+00 0.  1.
         11    1    1    2    0    0 -0.37231777689E+02  0.23714413650E+02  0.26621965413E+02  0.51549080759E+02  0.00000000000E+00 0. -1.
</event>
<event>
 7    1  0.2840156E-009  0.1334142E+03  0.7561462E-02  0.1222476E+00
          1   -1    0    0  501    0  0.00000000000E+00  0.00000000000E+00  0.81393054004E+03  0.81393054004E+03  0.00000000000E+00 0. -1.
         -1   -1    0    0    0  501 -0.00000000000E+00 -0.00000000000E+00 -0.27229541801E+02  0.27229541801E+02  0.00000000000E+00 0.  1.
         25    2    1    2    0    0  0.31362669629E+02  0.91382322085E+02  0.34498657222E+03  0.37946940787E+03  0.12508777184E+03 0.  0.
          5    1    3    3  502    0 -0.29821011430E+02 -0.50275387434E+01  0.15330806692E+03  0.15631827997E+03  0.41800000000E+01 0.  1.
         -5    1    3    3    0  502  0.61183681059E+02  0.96409860828E+02  0.19167850529E+03  0.22315112790E+03  0.41800000000E+01 0.  1.
        -11    1    1    2    0    0  0.18681090289E+02 -0.60297558935E+02  0.32360090044E+03  0.32970035109E+03  0.00000000000E+00 0. -1.
         11    1    1    2    0    0 -0.50043759918E+02 -0.31084763150E+02  0.11811352558E+03  0.13199032287E+03  0.00000000000E+00 0.  1.
</event>
<event>
 7    1  0.2840156E-009  0.1477635E+03  0.7561462E-02  0.1203248E+00
         -2   -1    0    0    0  501 -0.00000000000E+00  0.00000000000E+00  0.19351942086E+03  0.19351942086E+03  0.00000000000E+00 0.  1.
          2   -1    0    0  501    0  0.00000000000E+00 -0.00000000000E+00 -0.35554625915E+03  0.35554625915E+03  0.00000000000E+00 0. -1.
         25    2    1    2    0    0 -0.10538195196E+03 -0.55555170314E+02 -0.29970890892E+03  0.34591860429E+03  0.12507005221E+03 0.  0.
          5    1    3    3  502    0 -0.67535319414E+00  0.31190118993E+02 -0.95449283510E+02  0.10050531203E+03  0.41800000000E+01 0. -1.
         -5    1    3    3    0  502 -0.10470659876E+03 -0.86745289307E+02 -0.20425962541E+03  0.24541329225E+03  0.41800000000E+01 0. -1.
        -11    1    1    2    0    0  0.79920981842E+02  0.16836521461E+02  0.31942866537E+02  0.87699364400E+02  0.00000000000E+00 0. -1.
         11    1    1    2    0    0  0.25460970115E+02  0.38718648853E+02  0.10573920409E+03  0.11544771132E+03  0.00000000000E+00 0.  1.
</event>
<event>
 7    1  0.2840156E-009  0.1859374E+03  0.7561462E-02  0.1162177E+00
         -2   -1    0    0    0  501 -0.00000000000E+00  0.00000000000E+00  0.82856402909E+02  0.82856402909E+02  0.00000000000E+00 0.  1.
          2   -1    0    0  501    0  0.00000000000E+00 -0.00000000000E+00 -0.55545771181E+03  0.55545771181E+03  0.00000000000E+00 0. -1.
         25    2    1    2    0    0  0.18196128747E+03 -0.15230302536E+02 -0.26883810495E+03  0.34822789076E+03  0.12508742934E+03 0.  0.
          5    1    3    3  502    0  0.11280487334E+03  0.13722778870E+02 -0.24390033978E+03  0.26910611709E+03  0.41800000000E+01 0. -1.
         -5    1    3    3    0  502  0.69156414128E+02 -0.28953081406E+02 -0.24937765174E+02  0.79121773677E+02  0.41800000000E+01 0. -1.
        -11    1    1    2    0    0 -0.57327468233E+02 -0.13316587001E+01 -0.86785817100E+01  0.57995945628E+02  0.00000000000E+00 0.  1.
         11    1    1    2    0    0 -0.12463381924E+03  0.16561961236E+02 -0.19508462224E+03  0.23209027832E+03  0.00000000000E+00 0. -1.
</event>
<event>
 7    1  0.2840156E-009  0.1407363E+03  0.7561462E-02  0.1212342E+00
         -2   -1    0    0    0  501 -0.00000000000E+00  0.00000000000E+00  0.26019828096E+03  0.26019828096E+03  0.00000000000E+00 0.  1.
          2   -1    0    0  501    0  0.00000000000E+00 -0.00000000000E+00 -0.10918556394E+03  0.10918556394E+03  0.00000000000E+00 0. -1.
         25    2    1    2    0    0 -0.12452581771E+03 -0.60343861860E+01  0.11626322715E+03  0.21143995178E+03  0.12508645861E+03 0.  0.
          5    1    3    3  502    0  0.46513931995E+01  0.15287674735E+01 -0.21468097702E+02  0.22412590382E+02  0.41800000000E+01 0. -1.
         -5    1    3    3    0  502 -0.12917721091E+03 -0.75631536595E+01  0.13773132486E+03  0.18902736140E+03  0.41800000000E+01 0. -1.
        -11    1    1    2    0    0  0.72906714726E+02  0.40596666092E+02 -0.59789851052E+01  0.83661380653E+02  0.00000000000E+00 0.  1.
         11    1    1    2    0    0  0.51619102984E+02 -0.34562279906E+02  0.40728474962E+02  0.74282512463E+02  0.00000000000E+00 0. -1.
</event>
<event>
 7    1  0.2840156E-009  0.1115133E+03  0.7561462E-02  0.1257793E+00
         -2   -1    0    0    0  501 -0.00000000000E+00  0.00000000000E+00  0.59919900673E+02  0.59919900673E+02  0.00000000000E+00 0.  1.
          2   -1    0    0  501    0  0.00000000000E+00 -0.00000000000E+00 -0.22697699049E+03  0.22697699049E+03  0.00000000000E+00 0. -1.
         25    2    1    2    0    0 -0.31315817288E+02  0.28382195348E+02 -0.97516658957E+02  0.16414396392E+03  0.12509001835E+03 0.  0.
          5    1    3    3  502    0  0.21496795357E+02  0.62616523004E+02 -0.33659439161E+02  0.74386634609E+02  0.41800000000E+01 0. -1.
         -5    1    3    3    0  502 -0.52812612645E+02 -0.34234327656E+02 -0.63857219796E+02  0.89757329308E+02  0.41800000000E+01 0. -1.
        -11    1    1    2    0    0  0.50141514566E+02  0.97572323399E+01 -0.14319973484E+02  0.53051264890E+02  0.00000000000E+00 0.  1.
         11    1    1    2    0    0 -0.18825697277E+02 -0.38139427688E+02 -0.55220457380E+02  0.69701662359E+02  0.00000000000E+00 0. -1.
</event>
<event>
 7    1  0.2840156E-009  0.2330191E+03  0.7561462E-02  0.1124533E+00
          1   -1    0    0  501    0  0.00000000000E+00  0.00000000000E+00  0.48917406716E+03  0.48917406716E+03  0.00000000000E+00 0. -1.
         -1   -1    0    0    0  501 -0.00000000000E+00 -0.00000000000E+00 -0.14336981861E+03  0.14336981861E+03  0.00000000000E+00 0.  1.
         25    2    1    2    0    0  0.15236450528E+03 -0.16394722362E+03  0.74651560059E+02  0.26704855283E+03  0.12509372305E+03 0.  0.
          5    1    3    3  502    0 -0.34270636121E+01 -0.40311035219E+02  0.53194513643E+02  0.66961578590E+02  0.41800000000E+01 0. -1.
         -5    1    3    3    0  502  0.15579156889E+03 -0.12363618840E+03  0.21457046416E+02  0.20008697424E+03  0.41800000000E+01 0. -1.
        -11    1    1    2    0    0 -0.65569063317E+02  0.46452228938E+02  0.34631630914E+02  0.87501208548E+02  0.00000000000E+00 0.  1.
         11    1    1    2    0    0 -0.86795441961E+02  0.11749499468E+03  0.23652105757E+03  0.27799412439E+03  0.00000000000E+00 0. -1.
</event>
<event>
 7    1  0.2840156E-009  0.1146386E+03  0.7561462E-02  0.1252213E+00
          1   -1    0    0  501    0  0.00000000000E+00  0.00000000000E+00  0.19586134755E+03  0.19586134755E+03  0.00000000000E+00 0. -1.
         -1   -1    0    0    0  501 -0.00000000000E+00 -0.00000000000E+00 -0.15693314084E+03  0.15693314084E+03  0.00000000000E+00 0.  1.
         25    2    1    2    0    0  0.39136941332E+02 -0.10516449249E+03  0.10255656379E+03  0.19686735365E+03  0.12509050922E+03 0.  0.
          5    1    3    3  502    0  0.38251459316E+02 -0.95228151842E+02  0.94585688358E+01  0.10314316249E+03  0.41800000000E+01 0. -1.
         -5    1    3    3    0  502  0.88548201636E+00 -0.99363406486E+01  0.93097994957E+02  0.93724191162E+02  0.41800000000E+01 0. -1.
        -11    1    1    2    0    0 -0.62200498744E+01  0.57448050691E+02  0.13600476051E+02  0.59362787144E+02  0.00000000000E+00 0. -1.
         11    1    1    2    0    0 -0.32916891458E+02  0.47716441799E+02 -0.77228833125E+02  0.96564347599E+02  0.00000000000E+00 0.  1.
</event>
<event>
 7    1  0.2840156E-009  0.1466595E+03  0.7561462E-02  0.1204639E+00
         -2   -1    0    0    0  501 -0.00000000000E+00  0.00000000000E+00  0.71970943078E+02  0.71970943078E+02  0.00000000000E+00 0.  1.
          2   -1    0    0  501    0  0.00000000000E+00 -0.00000000000E+00 -0.66243466667E+03  0.66243466667E+03  0.00000000000E+00 0. -1.
         25    2    1    2    0    0 -0.10536931148E+03  0.37609265237E+02 -0.56198281142E+03  0.58650607620E+03  0.12509016131E+03 0.  0.
          5    1    3    3  502    0 -0.12291583581E+03  0.42360296350E+02 -0.54791293372E+03  0.56314185845E+03  0.41800000000E+01 0. -1.
         -5    1    3    3    0  502  0.17546524332E+02 -0.47510311135E+01 -0.14069877701E+02  0.23364217755E+02  0.41800000000E+01 0. -1.
        -11    1    1    2    0    0  0.16651126996E+02  0.29141701836E+02 -0.12650187928E+01  0.33587186377E+02  0.00000000000E+00 0.  1.
         11    1    1    2    0    0  0.88718184481E+02 -0.66750967073E+02 -0.27215893380E+02  0.11431234717E+03  0.00000000000E+00 0. -1.
</event>
<event>
 7    1  0.2840156E-009  0.3574598E+03  0.7561462E-02  0.1059594E+00
         -4   -1    0    0    0  501 -0.00000000000E+00  0.00000000000E+00  0.57392187540E+03  0.57392187540E+03  0.00000000000E+00 0.  1.
          4   -1    0    0  501    0  0.00000000000E+00 -0.00000000000E+00 -0.33659899633E+03  0.33659899633E+03  0.00000000000E+00 0. -1.
         25    2    1    2    0    0 -0.91644848371E+02 -0.33427988253E+03  0.37424867694E+03  0.52521852975E+03  0.12510241288E+03 0.  0.
          5    1    3    3  502    0 -0.11761467487E+03 -0.20669687549E+03  0.25310994781E+03  0.34733115058E+03  0.41800000000E+01 0.  1.
         -5    1    3    3    0  502  0.25969826502E+02 -0.12758300704E+03  0.12113872913E+03  0.17788737917E+03  0.41800000000E+01 0.  1.
        -11    1    1    2    0    0  0.19956761563E+02  0.91824421309E+02  0.72575847376E+01  0.94247913595E+02  0.00000000000E+00 0.  1.
         11    1    1    2    0    0  0.71688086808E+02  0.24245546122E+03 -0.14418338261E+03  0.29105442839E+03  0.00000000000E+00 0. -1.
</event>
<event>
 7    1  0.2840156E-009  0.1092696E+03  0.7561462E-02  0.1261928E+00
          1   -1    0    0  501    0  0.00000000000E+00  0.00000000000E+00  0.69764519432E+02  0.69764519432E+02  0.00000000000E+00 0. -1.
         -1   -1    0    0    0  501 -0.00000000000E+00 -0.00000000000E+00 -0.26271399799E+03  0.26271399799E+03  0.00000000000E+00 0.  1.
         25    2    1    2    0    0  0.52858063822E+02  0.58026336471E+02 -0.85166528347E+02  0.17047629845E+03  0.12509116734E+03 0.  0.
          5    1    3    3  502    0  0.18327462597E+02  0.86048281225E+02 -0.18133237266E+02  0.89924909123E+02  0.41800000000E+01 0.  1.
         -5    1    3    3    0  502  0.34530601225E+02 -0.28021944754E+02 -0.67033291081E+02  0.80551389323E+02  0.41800000000E+01 0.  1.
        -11    1    1    2    0    0 -0.95717337772E+00 -0.23364917138E+02 -0.95593467550E+02  0.98412126143E+02  0.00000000000E+00 0.  1.
         11    1    1    2    0    0 -0.51900890444E+02 -0.34661419333E+02 -0.12189482662E+02  0.63590092834E+02  0.00000000000E+00 0. -1.
</event>
<event>
 7    1  0.2840156E-009  0.1646916E+03  0.7561462E-02  0.1183499E+00
         -1   -1    0    0    0  501 -0.00000000000E+00  0.00000000000E+00  0.94690236208E+02  0.94690236208E+02  0.00000000000E+00 0.  1.
          1   -1    0    0  501    0  0.00000000000E+00 -0.00000000000E+00 -0.50358372333E+03  0.50358372333E+03  0.00000000000E+00 0. -1.
         25    2    1    2    0    0 -0.56678817669E+02 -0.11948898772E+03 -0.26620152514E+02  0.18397151071E+03  0.12508708036E+03 0.  0.
          5    1    3    3  502    0  0.38455519052E+02 -0.44299598243E+02  0.36375968282E+01  0.58923559471E+02  0.41800000000E+01 0. -1.
         -5    1    3    3    0  502 -0.95134336720E+02 -0.75189389479E+02 -0.30257749342E+02  0.12504795124E+03  0.41800000000E+01 0. -1.
        -11    1    1    2    0    0 -0.23107411502E+01  0.75796178134E+02 -0.12002219679E+03  0.14197086978E+03  0.00000000000E+00 0.  1.
         11    1    1    2    0    0  0.58989558819E+02  0.43692809588E+02 -0.26225113782E+03  0.27233157905E+03  0.00000000000E+00 0. -1.
</event>
<event>
 7    1  0.2840156E-009  0.1159941E+03  0.7561462E-02  0.1249856E+00
         -2   -1    0    0    0  501 -0.00000000000E+00  0.00000000000E+00  0.94244734957E+02  0.94244734957E+02  0.00000000000E+00 0.  1.
          2   -1    0    0  501    0  0.00000000000E+00 -0.00000000000E+00 -0.16430405402E+03  0.16430405402E+03  0.00000000000E+00 0. -1.
         25    2    1    2    0    0  0.44050392571E+02 -0.21747243578E+02 -0.76817168296E+02  0.15479246717E+03  0.12508577401E+03 0.  0.
          5    1    3    3  502    0  0.30029126419E+02 -0.73834849253E+02 -0.52053475520E+02  0.95290976023E+02  0.41800000000E+01 0.  1.
         -5    1    3    3    0  502  0.14021266152E+02  0.52087605675E+02 -0.24763692776E+02  0.59501491152E+02  0.41800000000E+01 0.  1.
        -11    1    1    2    0    0  0.21493582336E+02  0.24340488695E+02  0.18118021777E+02  0.37184622960E+02  0.00000000000E+00 0.  1.
         11    1    1    2    0    0 -0.65543974907E+02 -0.25932451173E+01 -0.11360172549E+02  0.66571698846E+02  0.00000000000E+00 0. -1.
</event>
<event>
 7    1  0.2840156E-009  0.1327483E+03  0.7561462E-02  0.1223434E+00
          2   -1    0    0  501    0  0.00000000000E+00  0.00000000000E+00  0.88867695576E+03  0.88867695576E+03  0.00000000000E+00 0.  1.
         -2   -1    0    0    0  501 -0.00000000000E+00 -0.00000000000E+00 -0.23295096059E+02  0.23295096059E+02  0.00000000000E+00 0. -1.
         25    2    1    2    0    0 -0.45143515666E+02 -0.81246218831E+02  0.42596150608E+03  0.45357434313E+03  0.12509034734E+03 0.  0.
          5    1    3    3  502    0 -0.47653593771E+01  0.27985862854E+02  0.16907175711E+03  0.17148950003E+03  0.41800000000E+01 0. -1.
         -5    1    3    3    0  502 -0.40378156289E+02 -0.10923208169E+03  0.25688974897E+03  0.28208484309E+03  0.41800000000E+01 0. -1.
        -11    1    1    2    0    0  0.15339758460E+01  0.76374351930E+02  0.35639301025E+03  0.36448782211E+03  0.00000000000E+00 0.  1.
         11    1    1    2    0    0  0.43609539820E+02  0.48718669005E+01  0.83027343368E+02  0.93909886578E+02  0.00000000000E+00 0. -1.
</event>
<event>
 7    1  0.2840156E-009  0.1095677E+03  0.7561462E-02  0.1261373E+00
         -1   -1    0    0    0  501 -0.00000000000E+00  0.00000000000E+00  0.65946464835E+03  0.65946464835E+03  0.00000000000E+00 0.  1.
          1   -1    0    0  501    0  0.00000000000E+00 -0.00000000000E+00 -0.33159717049E+02  0.33159717049E+02  0.00000000000E+00 0. -1.
         25    2    1    2    0    0  0.24070460120E+02  0.83770546811E+02  0.45496930432E+03  0.47983491218E+03  0.12509030143E+03 0.  0.
          5    1    3    3  502    0  0.27561862709E+01  0.64282770461E+02  0.75670034912E+02  0.99414776188E+02  0.41800000000E+01 0. -1.
         -5    1    3    3    0  502  0.21314273850E+02  0.19487776350E+02  0.37929926941E+03  0.38042013600E+03  0.41800000000E+01 0. -1.
        -11    1    1    2    0    0  0.34541798661E+02 -0.26571605240E+02  0.70551177014E+02  0.82925597000E+02  0.00000000000E+00 0. -1.
         11    1    1    2    0    0 -0.58612258781E+02 -0.57198941571E+02  0.10078444997E+03  0.12986385622E+03  0.00000000000E+00 0.  1.
</event>
<event>
 7    1  0.2840156E-009  0.8724007E+02  0.7561462E-02  0.1309676E+00
         -1   -1    0    0    0  501 -0.00000000000E+00  0.00000000000E+00  0.38198403292E+03  0.38198403292E+03  0.00000000000E+00 0.  1.
          1   -1    0    0  501    0  0.00000000000E+00 -0.00000000000E+00 -0.40948972131E+02  0.40948972131E+02  0.00000000000E+00 0. -1.
         25    2    1    2    0    0 -0.44073377164E+01  0.17783459745E+02  0.95767770864E+02  0.15859285946E+03  0.12507818782E+03 0.  0.
          5    1    3    3  502    0  0.27214367660E+02  0.33007975315E+02  0.11180326065E+03  0.11978142483E+03  0.41800000000E+01 0.  1.
         -5    1    3    3    0  502 -0.31621705377E+02 -0.15224515570E+02 -0.16035489790E+02  0.38811434630E+02  0.41800000000E+01 0.  1.
        -11    1    1    2    0    0 -0.44573024741E+02 -0.15238298570E+02  0.14947373049E+03  0.15672063165E+03  0.00000000000E+00 0. -1.
         11    1    1    2    0    0  0.48980362458E+02 -0.25451611749E+01  0.95793559436E+02  0.10761951394E+03  0.00000000000E+00 0.  1.
</event>
<event>
 7    1  0.2840156E-009  0.1327618E+03  0.7561462E-02  0.1223414E+00
          1   -1    0    0  501    0  0.00000000000E+00  0.00000000000E+00  0.10398437158E+03  0.10398437158E+03  0.00000000000E+00 0. -1.
         -1   -1    0    0    0  501 -0.00000000000E+00 -0.00000000000E+00 -0.20287692156E+03  0.20287692156E+03  0.00000000000E+00 0.  1.
         25    2    1    2    0    0  0.35640326339E+02 -0.87474993535E+02 -0.66039672783E+02  0.17008922669E+03  0.12508796624E+03 0.  0.
          5    1    3    3  502    0  0.57516828473E+02 -0.10961593395E+03 -0.61728326973E+02  0.13838965744E+03  0.41800000000E+01 0.  1.
         -5    1    3    3    0  502 -0.21876502133E+02  0.22140940419E+02 -0.43113458098E+01  0.31699569255E+02  0.41800000000E+01 0.  1.
        -11    1    1    2    0    0  0.33124790312E+01  0.65403138959E+02  0.19074797133E+02  0.68208437812E+02  0.00000000000E+00 0. -1.
         11    1    1    2    0    0 -0.38952805371E+02  0.22071854576E+02 -0.51927674328E+02  0.68563628637E+02  0.00000000000E+00 0.  1.
</event>
<event>
 7    1  0.2840156E-009  0.1112953E+03  0.7561462E-02  0.1258190E+00
          1   -1    0    0  501    0  0.00000000000E+00  0.00000000000E+00  0.71770073595E+03  0.71770073595E+03  0.00000000000E+00 0. -1.
         -1   -1    0    0    0  501 -0.00000000000E+00 -0.00000000000E+00 -0.29711953767E+02  0.29711953767E+02  0.00000000000E+00 0.  1.
         25    2    1    2    0    0 -0.60844708139E+02 -0.65683222554E+02  0.27331711327E+03  0.31363378699E+03  0.12509014232E+03 0.  0.
          5    1    3    3  502    0 -0.28306650337E+02 -0.53864715417E+02  0.30257455009E+02  0.68085681342E+02  0.41800000000E+01 0. -1.
         -5    1    3    3    0  502 -0.32538057802E+02 -0.11818507137E+02  0.24305965826E+03  0.24554810565E+03  0.41800000000E+01 0. -1.
        -11    1    1    2    0    0 -0.47843269904E+00  0.65402596861E+02  0.23490726529E+03  0.24384247345E+03  0.00000000000E+00 0. -1.
         11    1    1    2    0    0  0.61323140838E+02  0.28062569241E+00  0.17976440363E+03  0.18993642927E+03  0.00000000000E+00 0.  1.
</event>
<event>
 7    1  0.2877310E-009  0.1423624E+03  0.7561462E-02  0.1210185E+00
         -2   -1    0    0    0  501 -0.00000000000E+00  0.00000000000E+00  0.34211397335E+02  0.34211397335E+02  0.00000000000E+00 0. -1.
          2   -1    0    0  501    0  0.00000000000E+00 -0.00000000000E+00 -0.70575539461E+03  0.70575539461E+03  0.00000000000E+00 0.  1.
         25    2    1    2    0    0 -0.60536792490E+01  0.10526648366E+03 -0.43835165351E+03  0.46788700481E+03  0.12509355507E+03 0.  0.
          5    1    3    3  502    0 -0.25879285654E+02 -0.12565460287E+02 -0.19049191024E+03  0.19269734945E+03  0.41800000000E+01 0.  1.
         -5    1    3    3    0  502  0.19825606405E+02  0.11783194394E+03 -0.24785974327E+03  0.27518965536E+03  0.41800000000E+01 0.  1.
        -11    1    1    2    0    0 -0.38572300862E+02 -0.66986241441E+02 -0.16384063626E+03  0.18115941330E+03  0.00000000000E+00 0.  1.
         11    1    1    2    0    0  0.44625980111E+02 -0.38280242215E+02 -0.69351707501E+02  0.90920373835E+02  0.00000000000E+00 0. -1.
</event>
<event>
 7    1  0.2840156E-009  0.1311478E+03  0.7561462E-02  0.1225762E+00
         -4   -1    0    0    0  501 -0.00000000000E+00  0.00000000000E+00  0.41807702664E+03  0.41807702664E+03  0.00000000000E+00 0.  1.
          4   -1    0    0  501    0  0.00000000000E+00 -0.00000000000E+00 -0.57544751887E+02  0.57544751887E+02  0.00000000000E+00 0. -1.
         25    2    1    2    0    0 -0.11222610798E+02 -0.10623730385E+03  0.15181977099E+03  0.22385431132E+03  0.12509675500E+03 0.  0.
          5    1    3    3  502    0 -0.32813213922E+02 -0.10692545014E+03  0.55267418605E+02  0.12482675536E+03  0.41800000000E+01 0. -1.
         -5    1    3    3    0  502  0.21590603125E+02  0.68814628921E+00  0.96552352380E+02  0.99027555957E+02  0.41800000000E+01 0. -1.
        -11    1    1    2    0    0  0.40396047646E+02  0.77617655230E+02  0.18467269347E+03  0.20435347999E+03  0.00000000000E+00 0.  1.
         11    1    1    2    0    0 -0.29173436849E+02  0.28619648620E+02  0.24039810290E+02  0.47413987214E+02  0.00000000000E+00 0. -1.
</event>
<event>
 7    1  0.2840156E-009  0.1882693E+03  0.7561462E-02  0.1160032E+00
         -2   -1    0    0    0  501 -0.00000000000E+00  0.00000000000E+00  0.54210810133E+02  0.54210810133E+02  0.00000000000E+00 0.  1.
          2   -1    0    0  501    0  0.00000000000E+00 -0.00000000000E+00 -0.74320123859E+03  0.74320123859E+03  0.00000000000E+00 0. -1.
         25    2    1    2    0    0 -0.60272340143E+02 -0.14696913953E+03 -0.24941742745E+03  0.32107454828E+03  0.12508848658E+03 0.  0.
          5    1    3    3  502    0  0.30346011009E+02 -0.14518671099E+02 -0.83911893807E+02  0.90500555340E+02  0.41800000000E+01 0.  1.
         -5    1    3    3    0  502 -0.90618351153E+02 -0.13245046843E+03 -0.16550553364E+03  0.23057399294E+03  0.41800000000E+01 0.  1.
        -11    1    1    2    0    0  0.22774816321E+01  0.11662735915E+03 -0.25244186553E+03  0.27808995541E+03  0.00000000000E+00 0.  1.
         11    1    1    2    0    0  0.57994858511E+02  0.30341780378E+02 -0.18713113547E+03  0.19824754503E+03  0.00000000000E+00 0. -1.
</event>
<event>
 7    1  0.2840156E-009  0.1379473E+03  0.7561462E-02  0.1216118E+00
         -1   -1    0    0    0  501 -0.00000000000E+00  0.00000000000E+00  0.33152589923E+03  0.33152589923E+03  0.00000000000E+00 0.  1.
          1   -1    0    0  501    0  0.00000000000E+00 -0.00000000000E+00 -0.90332260556E+02  0.90332260556E+02  0.00000000000E+00 0. -1.
         25    2    1    2    0    0  0.19378679904E+02  0.10807908308E+03  0.33513169296E+02  0.16979386461E+03  0.12510076942E+03 0.  0.
          5    1    3    3  502    0  0.52112204721E+02 -0.36064838372E-01  0.14675165144E+01  0.52300183425E+02  0.41800000000E+01 0.  1.
         -5    1    3    3    0  502 -0.32733524817E+02  0.10811514792E+03  0.32045652782E+02  0.11749368119E+03  0.41800000000E+01 0.  1.
        -11    1    1    2    0    0 -0.21035190800E+02 -0.90199557419E+02  0.21387593470E+03  0.23306942068E+03  0.00000000000E+00 0.  1.
         11    1    1    2    0    0  0.16565108967E+01 -0.17879525663E+02 -0.61954653291E+01  0.18994874491E+02  0.00000000000E+00 0. -1.
</event>
<event>
 7    1  0.2840156E-009  0.8286016E+02  0.7561462E-02  0.1321125E+00
          2   -1    0    0  501    0  0.00000000000E+00  0.00000000000E+00  0.52054705507E+03  0.52054705507E+03  0.00000000000E+00 0. -1.
         -2   -1    0    0    0  501 -0.00000000000E+00 -0.00000000000E+00 -0.26010894763E+02  0.26010894763E+02  0.00000000000E+00 0.  1.
         25    2    1    2    0    0  0.21961917410E+02 -0.25818557639E+02  0.31862783589E+03  0.34397719427E+03  0.12509072163E+03 0.  0.
          5    1    3    3  502    0 -0.16468082100E+02  0.94897871731E+01  0.27538881255E+03  0.27607557709E+03  0.41800000000E+01 0.  1.
         -5    1    3    3    0  502  0.38429999510E+02 -0.35308344812E+02  0.43239023334E+02  0.67901617172E+02  0.41800000000E+01 0.  1.
        -11    1    1    2    0    0 -0.55453851231E+02  0.81860402905E+01  0.13827899021E+03  0.14920864588E+03  0.00000000000E+00 0. -1.
         11    1    1    2    0    0  0.33491933822E+02  0.17632517349E+02  0.37629334209E+02  0.53372109685E+02  0.00000000000E+00 0.  1.
</event>
<event>
 7    1  0.3213362E-009  0.1228713E+03  0.7561462E-02  0.1238434E+00
         -2   -1    0    0    0  501 -0.00000000000E+00  0.00000000000E+00  0.21507525050E+02  0.21507525050E+02  0.00000000000E+00 0.  1.
          2   -1    0    0  501    0  0.00000000000E+00 -0.00000000000E+00 -0.75874588246E+03  0.75874588246E+03  0.00000000000E+00 0. -1.
         25    2    1    2    0    0 -0.53213130834E+02 -0.41680364557E+02 -0.40753987337E+03  0.43163085605E+03  0.12509019717E+03 0.  0.
          5    1    3    3  502    0 -0.56352408670E+02  0.33958969017E+02 -0.17273991276E+03  0.18489282138E+03  0.41800000000E+01 0. -1.
         -5    1    3    3    0  502  0.31392778364E+01 -0.75639333574E+02 -0.23479996061E+03  0.24673803467E+03  0.41800000000E+01 0. -1.
        -11    1    1    2    0    0  0.50671581688E+02 -0.10505158719E+02 -0.95014201219E+02  0.10819272611E+03  0.00000000000E+00 0. -1.
         11    1    1    2    0    0  0.25415491454E+01  0.52185523276E+02 -0.23468428282E+03  0.24042982534E+03  0.00000000000E+00 0.  1.
</event>
<event>
 7    1  0.2840156E-009  0.1481491E+03  0.7561462E-02  0.1202766E+00
          4   -1    0    0  501    0  0.00000000000E+00  0.00000000000E+00  0.19525484183E+02  0.19525484183E+02  0.00000000000E+00 0. -1.
         -4   -1    0    0    0  501 -0.00000000000E+00 -0.00000000000E+00 -0.15370146093E+04  0.15370146093E+04  0.00000000000E+00 0.  1.
         25    2    1    2    0    0  0.11688886830E+03 -0.24622044121E+02 -0.10829230889E+04  0.10966490480E+04  0.12508982962E+03 0.  0.
          5    1    3    3  502    0  0.31601155702E+01  0.39439923602E+02 -0.18110747963E+03  0.18542622652E+03  0.41800000000E+01 0.  1.
         -5    1    3    3    0  502  0.11372875273E+03 -0.64061967724E+02 -0.90181560923E+03  0.91122282147E+03  0.41800000000E+01 0.  1.
        -11    1    1    2    0    0 -0.53938574010E+02 -0.87843573345E+01 -0.32240980275E+03  0.32700858644E+03  0.00000000000E+00 0.  1.
         11    1    1    2    0    0 -0.62950294288E+02  0.33406401456E+02 -0.11215623351E+03  0.13288245906E+03  0.00000000000E+00 0. -1.
</event>
<event>
 7    1  0.2840156E-009  0.1282515E+03  0.7561462E-02  0.1230073E+00
          3   -1    0    0  501    0  0.00000000000E+00  0.00000000000E+00  0.42887530488E+02  0.42887530488E+02  0.00000000000E+00 0. -1.
         -3   -1    0    0    0  501 -0.00000000000E+00 -0.00000000000E+00 -0.45826043965E+03  0.45826043965E+03  0.00000000000E+00 0.  1.
         25    2    1    2    0    0  0.27441821031E+02  0.65173360537E+02 -0.31760591838E+03  0.34859867133E+03  0.12508754455E+03 0.  0.
          5    1    3    3  502    0  0.59337247505E+02 -0.74979824651E+01 -0.96114137796E+02  0.11328075109E+03  0.41800000000E+01 0. -1.
         -5    1    3    3    0  502 -0.31895426474E+02  0.72671343002E+02 -0.22149178058E+03  0.23531792025E+03  0.41800000000E+01 0. -1.
        -11    1    1    2    0    0 -0.60803899281E+02 -0.27441613824E+02 -0.54087937918E+02  0.85881670718E+02  0.00000000000E+00 0.  1.
         11    1    1    2    0    0  0.33362078250E+02 -0.37731746714E+02 -0.43679052859E+02  0.66667628080E+02  0.00000000000E+00 0. -1.
</event>
<event>
 7    1  0.2840156E-009  0.1014765E+03  0.7561462E-02  0.1277221E+00
         -1   -1    0    0    0  501 -0.00000000000E+00  0.00000000000E+00  0.32343577522E+02  0.32343577522E+02  0.00000000000E+00 0.  1.
          1   -1    0    0  501    0  0.00000000000E+00 -0.00000000000E+00 -0.47905557859E+03  0.47905557859E+03  0.00000000000E+00 0. -1.
         25    2    1    2    0    0  0.64467368117E+02 -0.60847861980E+01 -0.19071220001E+03  0.23708608846E+03  0.12508238857E+03 0.  0.
          5    1    3    3  502    0  0.54130400700E+02  0.40372135287E+02 -0.39140608159E+02  0.78163093559E+02  0.41800000000E+01 0. -1.
         -5    1    3    3    0  502  0.10336967417E+02 -0.46456921485E+02 -0.15157159186E+03  0.15892299490E+03  0.41800000000E+01 0. -1.
        -11    1    1    2    0    0 -0.87486143654E+01 -0.23042103331E+02 -0.25795892380E+02  0.35677792013E+02  0.00000000000E+00 0. -1.
         11    1    1    2    0    0 -0.55718753752E+02  0.29126889529E+02 -0.23020390867E+03  0.23863527564E+03  0.00000000000E+00 0.  1.
</event>
<event>
 7    1  0.2840156E-009  0.1546330E+03  0.7561462E-02  0.1194893E+00
         -2   -1    0    0    0  501 -0.00000000000E+00  0.00000000000E+00  0.28900370853E+02  0.28900370853E+02  0.00000000000E+00 0.  1.
          2   -1    0    0  501    0  0.00000000000E+00 -0.00000000000E+00 -0.11759133465E+04  0.11759133465E+04  0.00000000000E+00 0. -1.
         25    2    1    2    0    0  0.13601433917E+03 -0.44073131315E+02 -0.47182540022E+03  0.50863420754E+03  0.12508879815E+03 0.  0.
          5    1    3    3  502    0  0.12346177682E+03 -0.51950133546E+02 -0.47445126210E+03  0.49301429920E+03  0.41800000000E+01 0.  1.
         -5    1    3    3    0  502  0.12552562353E+02  0.78770022307E+01  0.26258618816E+01  0.15619908335E+02  0.41800000000E+01 0.  1.
        -11    1    1    2    0    0 -0.28056251441E+02  0.43660469366E+02 -0.12239124651E+03  0.13293986254E+03  0.00000000000E+00 0.  1.
         11    1    1    2    0    0 -0.10795808773E+03  0.41266194899E+00 -0.55279632895E+03  0.56323964731E+03  0.00000000000E+00 0. -1.
</event>
<event>
 7    1  0.2840156E-009  0.1649871E+03  0.7561462E-02  0.1183179E+00
         -1   -1    0    0    0  501 -0.00000000000E+00  0.00000000000E+00  0.36991695101E+02  0.36991695101E+02  0.00000000000E+00 0.  1.
          1   -1    0    0  501    0  0.00000000000E+00 -0.00000000000E+00 -0.75425407726E+03  0.75425407726E+03  0.00000000000E+00 0. -1.
         25    2    1    2    0    0  0.12413765412E+03  0.25610506960E+02 -0.38479189076E+03  0.42400471339E+03  0.12509653291E+03 0.  0.
          5    1    3    3  502    0  0.68068711376E+02 -0.48821767266E+02 -0.16061495724E+03  0.18119478833E+03  0.41800000000E+01 0. -1.
         -5    1    3    3    0  502  0.56068942747E+02  0.74432274227E+02 -0.22417693352E+03  0.24280992506E+03  0.41800000000E+01 0. -1.
        -11    1    1    2    0    0 -0.26808465350E+02 -0.46129097017E+02 -0.15319468437E+03  0.16221960032E+03  0.00000000000E+00 0.  1.
         11    1    1    2    0    0 -0.97329188772E+02  0.20518590057E+02 -0.17927580703E+03  0.20502145866E+03  0.00000000000E+00 0. -1.
</event>
<event>
 7    1  0.2840156E-009  0.1527844E+03  0.7561462E-02  0.1197093E+00
          1   -1    0    0  501    0  0.00000000000E+00  0.00000000000E+00  0.50270126389E+03  0.50270126389E+03  0.00000000000E+00 0. -1.
         -1   -1    0    0    0  501 -0.00000000000E+00 -0.00000000000E+00 -0.83073409389E+02  0.83073409389E+02  0.00000000000E+00 0.  1.
         25    2    1    2    0    0 -0.99796642433E+02  0.85324892969E+02  0.38021965134E+03  0.42125339343E+03  0.12509089102E+03 0.  0.
          5    1    3    3  502    0 -0.76446951544E+02  0.23544876906E+02  0.77750418904E+02  0.11162928679E+03  0.41800000000E+01 0. -1.
         -5    1    3    3    0  502 -0.23349690889E+02  0.61780016063E+02  0.30246923243E+03  0.30962410665E+03  0.41800000000E+01 0. -1.
        -11    1    1    2    0    0  0.24909452080E+02 -0.80481238704E+02  0.14743541948E+02  0.85528256240E+02  0.00000000000E+00 0.  1.
         11    1    1    2    0    0  0.74887190352E+02 -0.48436542651E+01  0.24664661219E+02  0.78993023607E+02  0.00000000000E+00 0. -1.
</event>
<event>
 7    1  0.2840156E-009  0.1725865E+03  0.7561462E-02  0.1175177E+00
          1   -1    0    0  501    0  0.00000000000E+00  0.00000000000E+00  0.64963097111E+03  0.64963097111E+03  0.00000000000E+00 0. -1.
         -1   -1    0    0    0  501 -0.00000000000E+00 -0.00000000000E+00 -0.79975869739E+02  0.79975869739E+02  0.00000000000E+00 0.  1.
         25    2    1    2    0    0 -0.15157314611E+02 -0.16986583220E+03  0.46063369599E+03  0.50686837553E+03  0.12509197857E+03 0.  0.
          5    1    3    3  502    0 -0.22423826760E+02 -0.57151315084E+02  0.32282768098E+03  0.32864005360E+03  0.41800000000E+01 0. -1.
         -5    1    3    3    0  502  0.72665121495E+01 -0.11271451712E+03  0.13780601501E+03  0.17822832194E+03  0.41800000000E+01 0. -1.
        -11    1    1    2    0    0  0.40448513942E+01  0.72790821385E+02 -0.43976950514E+01  0.73035636661E+02  0.00000000000E+00 0.  1.
         11    1    1    2    0    0  0.11112463217E+02  0.97075010816E+02  0.11341910044E+03  0.14970282866E+03  0.00000000000E+00 0. -1.
</event>
<event>
 7    1  0.2840156E-009  0.1484671E+03  0.7561462E-02  0.1202369E+00
          1   -1    0    0  501    0  0.00000000000E+00  0.00000000000E+00  0.11505636852E+04  0.11505636852E+04  0.00000000000E+00 0. -1.
         -1   -1    0    0    0  501 -0.00000000000E+00 -0.00000000000E+00 -0.43553737738E+02  0.43553737738E+02  0.00000000000E+00 0.  1.
         25    2    1    2    0    0 -0.10576274699E+03 -0.35094365127E+02  0.10004390430E+04  0.10143685222E+04  0.12509135457E+03 0.  0.
          5    1    3    3  502    0 -0.41131448562E+02  0.37070786761E+02  0.18414397037E+03  0.19233437944E+03  0.41800000000E+01 0. -1.
         -5    1    3    3    0  502 -0.64631298427E+02 -0.72165151889E+02  0.81629507260E+03  0.82203414274E+03  0.41800000000E+01 0. -1.
        -11    1    1    2    0    0  0.12120381272E+03  0.19995648441E+02  0.86269850660E+02  0.15010888484E+03  0.00000000000E+00 0.  1.
         11    1    1    2    0    0 -0.15441065732E+02  0.15098716686E+02  0.20301053826E+02  0.29640015907E+02  0.00000000000E+00 0. -1.
</event>
<event>
 7    1  0.2840156E-009  0.9922605E+02  0.7561462E-02  0.1281932E+00
         -1   -1    0    0    0  501 -0.00000000000E+00  0.00000000000E+00  0.18834892900E+02  0.18834892900E+02  0.00000000000E+00 0.  1.
          1   -1    0    0  501    0  0.00000000000E+00 -0.00000000000E+00 -0.77665918283E+03  0.77665918283E+03  0.00000000000E+00 0. -1.
         25    2    1    2    0    0  0.40696418538E+02  0.16682658868E+02 -0.42288537275E+03  0.44318657635E+03  0.12509114031E+03 0.  0.
          5    1    3    3  502    0  0.31606494874E+02  0.57985076948E+02 -0.11744251941E+03  0.13480154833E+03  0.41800000000E+01 0.  1.
         -5    1    3    3    0  502  0.90899236638E+01 -0.41302418081E+02 -0.30544285334E+03  0.30838502802E+03  0.41800000000E+01 0.  1.
        -11    1    1    2    0    0  0.11905823237E+02  0.21641866964E+02 -0.23337029672E+02  0.33981406483E+02  0.00000000000E+00 0.  1.
         11    1    1    2    0    0 -0.52602241775E+02 -0.38324525831E+02 -0.31160188750E+03  0.31832609289E+03  0.00000000000E+00 0. -1.
</event>
<event>
 7    1  0.2840156E-009  0.1542763E+03  0.7561462E-02  0.1195315E+00
         -2   -1    0    0    0  501 -0.00000000000E+00  0.00000000000E+00  0.30096549713E+02  0.30096549713E+02  0.00000000000E+00 0.  1.
          2   -1    0    0  501    0  0.00000000000E+00 -0.00000000000E+00 -0.10399868968E+04  0.10399868968E+04  0.00000000000E+00 0. -1.
         25    2    1    2    0    0  0.12099292349E+03 -0.69473019043E+02 -0.53651933592E+03  0.56830446811E+03  0.12510468715E+03 0.  0.
          5    1    3    3  502    0  0.67478859529E+02 -0.61760606151E+02 -0.48478226899E+03  0.49335493276E+03  0.41800000000E+01 0. -1.
         -5    1    3    3    0  502  0.53514063959E+02 -0.77124128920E+01 -0.51737066933E+02  0.74949535348E+02  0.41800000000E+01 0. -1.
        -11    1    1    2    0    0 -0.77685469196E+02 -0.36465081112E+01 -0.27911616577E+03  0.28974844803E+03  0.00000000000E+00 0. -1.
         11    1    1    2    0    0 -0.43307454293E+02  0.73119527154E+02 -0.19425484542E+03  0.21203053039E+03  0.00000000000E+00 0.  1.
</event>
<event>
 7    1  0.2840156E-009  0.1705446E+03  0.7561462E-02  0.1177281E+00
         -1   -1    0    0    0  501 -0.00000000000E+00  0.00000000000E+00  0.39001364919E+02  0.39001364919E+02  0.00000000000E+00 0.  1.
          1   -1    0    0  501    0  0.00000000000E+00 -0.00000000000E+00 -0.93075898722E+03  0.93075898722E+03  0.00000000000E+00 0. -1.
         25    2    1    2    0    0  0.10173568493E+03 -0.91596558408E+02 -0.66487026219E+03  0.69024639262E+03  0.12509011904E+03 0.  0.
          5    1    3    3  502    0  0.83151555486E+02  0.31493364143E+01 -0.22617810300E+03  0.24103548738E+03  0.41800000000E+01 0. -1.
         -5    1    3    3    0  502  0.18584129447E+02 -0.94745894822E+02 -0.43869215919E+03  0.44921090525E+03  0.41800000000E+01 0. -1.
        -11    1    1    2    0    0 -0.25686610400E+02  0.80225011531E+02 -0.14089325848E+03  0.16415469751E+03  0.00000000000E+00 0. -1.
         11    1    1    2    0    0 -0.76049074533E+02  0.11371546877E+02 -0.85994101624E+02  0.11535926200E+03  0.00000000000E+00 0.  1.
</event>
<event>
 7    1  0.2840156E-009  0.2418913E+03  0.7561462E-02  0.1118539E+00
         -1   -1    0    0    0  501 -0.00000000000E+00  0.00000000000E+00  0.31461845519E+03  0.31461845519E+03  0.00000000000E+00 0.  1.
          1   -1    0    0  501    0  0.00000000000E+00 -0.00000000000E+00 -0.22817329016E+03  0.22817329016E+03  0.00000000000E+00 0. -1.
         25    2    1    2    0    0  0.54267609016E+02  0.21875696659E+03 -0.52002957443E+02  0.26296710571E+03  0.12509119586E+03 0.  0.
          5    1    3    3  502    0 -0.13322166478E+02  0.34251948763E+00  0.18949775436E+02  0.23540684534E+02  0.41800000000E+01 0.  1.
         -5    1    3    3    0  502  0.67589775493E+02  0.21841444710E+03 -0.70952732879E+02  0.23942642117E+03  0.41800000000E+01 0.  1.
        -11    1    1    2    0    0 -0.24800325565E+02 -0.20845954086E+03  0.13190919414E+03  0.24793239366E+03  0.00000000000E+00 0.  1.
         11    1    1    2    0    0 -0.29467283451E+02 -0.10297425723E+02  0.65389283367E+01  0.31892245990E+02  0.00000000000E+00 0. -1.
</event>
<event>
 7    1  0.2840156E-009  0.1399214E+03  0.7561462E-02  0.1213435E+00
         -1   -1    0    0    0  501 -0.00000000000E+00  0.00000000000E+00  0.65126907488E+03  0.65126907488E+03  0.00000000000E+00 0.  1.
          1   -1    0    0  501    0  0.00000000000E+00 -0.00000000000E+00 -0.35416328665E+02  0.35416328665E+02  0.00000000000E+00 0. -1.
         25    2    1    2    0    0 -0.66170354070E+02  0.78068123040E+02  0.34734417067E+03  0.38310349011E+03  0.12508862317E+03 0.  0.
          5    1    3    3  502    0  0.16799637368E+02 -0.21784225389E+02  0.99070509812E+02  0.10290392901E+03  0.41800000000E+01 0. -1.
         -5    1    3    3    0  502 -0.82969991438E+02  0.99852348429E+02  0.24827366086E+03  0.28019956110E+03  0.41800000000E+01 0. -1.
        -11    1    1    2    0    0  0.93425851832E+01 -0.62512553730E+02  0.60889172575E+02  0.87764426783E+02  0.00000000000E+00 0. -1.
         11    1    1    2    0    0  0.56827768887E+02 -0.15555569310E+02  0.20761940297E+03  0.21581748665E+03  0.00000000000E+00 0.  1.
</event>
<event>
 7    1  0.2840156E-009  0.2256002E+03  0.7561462E-02  0.1129775E+00
         -1   -1    0    0    0  501 -0.00000000000E+00  0.00000000000E+00  0.54417308566E+03  0.54417308566E+03  0.00000000000E+00 0.  1.
          1   -1    0    0  501    0  0.00000000000E+00 -0.00000000000E+00 -0.10224235345E+03  0.10224235345E+03  0.00000000000E+00 0. -1.
         25    2    1    2    0    0  0.15479651717E+03 -0.13946601287E+03  0.24890252141E+03  0.34786691677E+03  0.12508475583E+03 0.  0.
          5    1    3    3  502    0 -0.11952387116E+02  0.12041086123E+02  0.21834639408E+02  0.27965535769E+02  0.41800000000E+01 0.  1.
         -5    1    3    3    0  502  0.16674890429E+03 -0.15150709900E+03  0.22706788200E+03  0.31990138100E+03  0.41800000000E+01 0.  1.
        -11    1    1    2    0    0 -0.32454121111E+02  0.31268128947E+02  0.10213744974E+03  0.11163791696E+03  0.00000000000E+00 0.  1.
         11    1    1    2    0    0 -0.12234239606E+03  0.10819788393E+03  0.90890761063E+02  0.18691060539E+03  0.00000000000E+00 0. -1.
</event>
<event>
 7    1  0.2840156E-009  0.9557160E+02  0.7561462E-02  0.1289894E+00
         -2   -1    0    0    0  501 -0.00000000000E+00  0.00000000000E+00  0.76417216811E+02  0.76417216811E+02  0.00000000000E+00 0.  1.
          2   -1    0    0  501    0  0.00000000000E+00 -0.00000000000E+00 -0.18391325196E+03  0.18391325196E+03  0.00000000000E+00 0. -1.
         25    2    1    2    0    0  0.38408362067E+02  0.21441589250E+02 -0.38575762896E+02  0.13809785501E+03  0.12509190242E+03 0.  0.
          5    1    3    3  502    0 -0.12987456027E+02  0.61951673675E+02 -0.30301215728E+01  0.63508565737E+02  0.41800000000E+01 0. -1.
         -5    1    3    3    0  502  0.51395818095E+02 -0.40510084425E+02 -0.35545641323E+02  0.74589289276E+02  0.41800000000E+01 0. -1.
        -11    1    1    2    0    0 -0.34302566660E+02  0.56207534207E+01  0.12027628109E+02  0.36782098722E+02  0.00000000000E+00 0.  1.
         11    1    1    2    0    0 -0.41057954074E+01 -0.27062342671E+02 -0.80947900360E+02  0.85450515033E+02  0.00000000000E+00 0. -1.
</event>
<event>
 7    1  0.2840156E-009  0.1662994E+03  0.7561462E-02  0.1181763E+00
         -1   -1    0    0    0  501 -0.00000000000E+00  0.00000000000E+00  0.37978973071E+03  0.37978973071E+03  0.00000000000E+00 0.  1.
          1   -1    0    0  501    0  0.00000000000E+00 -0.00000000000E+00 -0.91912621831E+02  0.91912621831E+02  0.00000000000E+00 0. -1.
         25    2    1    2    0    0  0.11218360086E+03  0.97887431554E+02  0.11421955413E+03  0.22552414117E+03  0.12509165499E+03 0.  0.
          5    1    3    3  502    0  0.60906457939E+02 -0.10862103035E+02  0.78483893263E+02  0.10002387616E+03  0.41800000000E+01 0. -1.
         -5    1    3    3    0  502  0.51277142918E+02  0.10874953459E+03  0.35735660870E+02  0.12550026501E+03  0.41800000000E+01 0. -1.
        -11    1    1    2    0    0 -0.34525090437E+02 -0.18251529331E+02 -0.10493076783E+01  0.39066625644E+02  0.00000000000E+00 0. -1.
         11    1    1    2    0    0 -0.77658510421E+02 -0.79635902223E+02  0.17470686243E+03  0.20711158573E+03  0.00000000000E+00 0.  1.
</event>
<event>
 7    1  0.2840156E-009  0.1125355E+03  0.7561462E-02  0.1255945E+00
          3   -1    0    0  501    0  0.00000000000E+00  0.00000000000E+00  0.19048409522E+04  0.19048409522E+04  0.00000000000E+00 0. -1.
         -3   -1    0    0    0  501 -0.00000000000E+00 -0.00000000000E+00 -0.11343390598E+02  0.11343390598E+02  0.00000000000E+00 0.  1.
         25    2    1    2    0    0  0.32262797115E+02  0.29208553748E+02  0.16000032995E+04  0.16054757256E+04  0.12509084476E+03 0.  0.
          5    1    3    3  502    0  0.11506428557E+02  0.77062302682E+02  0.10920684361E+04  0.10948524731E+04  0.41800000000E+01 0. -1.
         -5    1    3    3    0  502  0.20756368558E+02 -0.47853748934E+02  0.50793486347E+03  0.51062325256E+03  0.41800000000E+01 0. -1.
        -11    1    1    2    0    0 -0.61109475977E+02 -0.22301853729E+02  0.24806881516E+03  0.25645638574E+03  0.00000000000E+00 0. -1.
         11    1    1    2    0    0  0.28846678862E+02 -0.69067000189E+01  0.45425446959E+02  0.54252231456E+02  0.00000000000E+00 0.  1.
</event>
<event>
 7    1  0.2840156E-009  0.1108509E+03  0.7561462E-02  0.1259002E+00
          2   -1    0    0  501    0  0.00000000000E+00  0.00000000000E+00  0.83602819951E+03  0.83602819951E+03  0.00000000000E+00 0. -1.
         -2   -1    0    0    0  501 -0.00000000000E+00 -0.00000000000E+00 -0.25792694096E+02  0.25792694096E+02  0.00000000000E+00 0.  1.
         25    2    1    2    0    0  0.51580666796E+02 -0.51402080945E+02  0.65929277636E+03  0.67499498915E+03  0.12509408980E+03 0.  0.
          5    1    3    3  502    0 -0.25885191565E+02 -0.43462527224E+02  0.42599768103E+03  0.42901110831E+03  0.41800000000E+01 0. -1.
         -5    1    3    3    0  502  0.77465858361E+02 -0.79395537210E+01  0.23329509533E+03  0.24598388083E+03  0.41800000000E+01 0. -1.
        -11    1    1    2    0    0 -0.55548741023E+02  0.16663538524E+02  0.13774115087E+03  0.14945220235E+03  0.00000000000E+00 0.  1.
         11    1    1    2    0    0  0.39680742270E+01  0.34738542422E+02  0.13201578192E+02  0.37373702110E+02  0.00000000000E+00 0. -1.
</event>
<event>
 7    1  0.2840156E-009  0.6412884E+02  0.7561462E-02  0.1381279E+00
          3   -1    0    0  501    0  0.00000000000E+00  0.00000000000E+00  0.39247725280E+03  0.39247725280E+03  0.00000000000E+00 0. -1.
         -3   -1    0    0    0  501 -0.00000000000E+00 -0.00000000000E+00 -0.31839266453E+02  0.31839266453E+02  0.00000000000E+00 0.  1.
         25    2    1    2    0    0 -0.31032426311E+02 -0.66457112694E+01  0.19196214982E+03  0.23130952095E+03  0.12508977000E+03 0.  0.
          5    1    3    3  502    0 -0.19865391720E+02 -0.16842306967E+02  0.20753460326E+03  0.20920416115E+03  0.41800000000E+01 0. -1.
         -5    1    3    3    0  502 -0.11167034591E+02  0.10196595697E+02 -0.15572453445E+02  0.22105359795E+02  0.41800000000E+01 0. -1.
        -11    1    1    2    0    0  0.59942231438E+01  0.42245230178E+02  0.12172431872E+03  0.12898604557E+03  0.00000000000E+00 0. -1.
         11    1    1    2    0    0  0.25038203167E+02 -0.35599518909E+02  0.46951517807E+02  0.64020952733E+02  0.00000000000E+00 0.  1.
</event>
<event>
 7    1  0.2840156E-009  0.5457310E+02  0.7561462E-02  0.1422129E+00
         -1   -1    0    0    0  501 -0.00000000000E+00  0.00000000000E+00  0.32767849499E+03  0.32767849499E+03  0.00000000000E+00 0.  1.
          1   -1    0    0  501    0  0.00000000000E+00 -0.00000000000E+00 -0.61839353367E+02  0.61839353367E+02  0.00000000000E+00 0. -1.
         25    2    1    2    0    0 -0.21233818622E+02  0.43004617581E+02  0.25139760005E+03  0.28486546181E+03  0.12508919152E+03 0.  0.
          5    1    3    3  502    0 -0.22275133298E+02  0.19399476484E+02  0.25820564434E+03  0.25992335104E+03  0.41800000000E+01 0.  1.
         -5    1    3    3    0  502  0.10413146759E+01  0.23605141097E+02 -0.68080442849E+01  0.24942110766E+02  0.41800000000E+01 0.  1.
        -11    1    1    2    0    0 -0.65859573851E+01 -0.11798636251E+02 -0.36401575085E+02  0.38828563207E+02  0.00000000000E+00 0. -1.
         11    1    1    2    0    0  0.27819776007E+02 -0.31205981330E+02  0.50843116660E+02  0.65823823343E+02  0.00000000000E+00 0.  1.
</event>
<event>
 7    1  0.2840156E-009  0.6688512E+02  0.7561462E-02  0.1371018E+00
          3   -1    0    0  501    0  0.00000000000E+00  0.00000000000E+00  0.13797730274E+03  0.13797730274E+03  0.00000000000E+00 0. -1.
         -3   -1    0    0    0  501 -0.00000000000E+00 -0.00000000000E+00 -0.10476918607E+03  0.10476918607E+03  0.00000000000E+00 0.  1.
         25    2    1    2    0    0 -0.24802635768E+02 -0.27626609937E+02 -0.25497947704E+02  0.13295304672E+03  0.12509183418E+03 0.  0.
          5    1    3    3  502    0 -0.35379235850E+02  0.10586299304E+02 -0.66236922413E+02  0.75951052350E+02  0.41800000000E+01 0.  1.
         -5    1    3    3    0  502  0.10576600083E+02 -0.38212909241E+02  0.40738974709E+02  0.57001994372E+02  0.41800000000E+01 0.  1.
        -11    1    1    2    0    0  0.35689674917E+02  0.28697643538E+02  0.76350985592E+02  0.89032469589E+02  0.00000000000E+00 0. -1.
         11    1    1    2    0    0 -0.10887039149E+02 -0.10710336007E+01 -0.17644921216E+02  0.20760972500E+02  0.00000000000E+00 0.  1.
</event>
<event>
 7    1  0.2840156E-009  0.1015964E+03  0.7561462E-02  0.1276974E+00
         -1   -1    0    0    0  501 -0.00000000000E+00  0.00000000000E+00  0.71476183017E+02  0.71476183017E+02  0.00000000000E+00 0.  1.
          1   -1    0    0  501    0  0.00000000000E+00 -0.00000000000E+00 -0.21410853806E+03  0.21410853806E+03  0.00000000000E+00 0. -1.
         25    2    1    2    0    0 -0.42156339866E+02  0.41488566742E+02 -0.71422289843E+02  0.15571365167E+03  0.12508852732E+03 0.  0.
          5    1    3    3  502    0  0.52185693969E+01 -0.33699000298E+02 -0.55589729357E+02  0.65349418495E+02  0.41800000000E+01 0. -1.
         -5    1    3    3    0  502 -0.47374909263E+02  0.75187567040E+02 -0.15832560486E+02  0.90364233171E+02  0.41800000000E+01 0. -1.
        -11    1    1    2    0    0  0.54030672527E+02 -0.24956648937E+02 -0.86088605385E+02  0.10465847255E+03  0.00000000000E+00 0. -1.
         11    1    1    2    0    0 -0.11874332661E+02 -0.16531917805E+02  0.14878540184E+02  0.25212596860E+02  0.00000000000E+00 0.  1.
</event>
<event>
 7    1  0.3782255E-009  0.8915610E+02  0.7561462E-02  0.1304908E+00
          1   -1    0    0  501    0  0.00000000000E+00  0.00000000000E+00  0.72600300578E+03  0.72600300578E+03  0.00000000000E+00 0.  1.
         -1   -1    0    0    0  501 -0.00000000000E+00 -0.00000000000E+00 -0.23252399603E+02  0.23252399603E+02  0.00000000000E+00 0. -1.
         25    2    1    2    0    0  0.38327311467E+02 -0.57938689103E+02  0.42757151181E+03  0.45087772128E+03  0.12508975711E+03 0.  0.
          5    1    3    3  502    0 -0.18070348965E+02 -0.33177255004E+02  0.34846866261E+03  0.35053551744E+03  0.41800000000E+01 0.  1.
         -5    1    3    3    0  502  0.56397660432E+02 -0.24761434099E+02  0.79102849197E+02  0.10034220384E+03  0.41800000000E+01 0.  1.
        -11    1    1    2    0    0 -0.13256696011E+02 -0.21756625735E+01 -0.20594240187E+01  0.13590979510E+02  0.00000000000E+00 0. -1.
         11    1    1    2    0    0 -0.25070615457E+02  0.60114351676E+02  0.27723851838E+03  0.28478670459E+03  0.00000000000E+00 0.  1.
</event>
<event>
 7    1  0.2840156E-009  0.1120843E+03  0.7561462E-02  0.1256758E+00
          2   -1    0    0  501    0  0.00000000000E+00  0.00000000000E+00  0.70478147973E+03  0.70478147973E+03  0.00000000000E+00 0. -1.
         -2   -1    0    0    0  501 -0.00000000000E+00 -0.00000000000E+00 -0.22673948382E+02  0.22673948382E+02  0.00000000000E+00 0.  1.
         25    2    1    2    0    0 -0.24984809356E+02  0.55827617290E+02  0.44662940492E+03  0.46783146839E+03  0.12508994336E+03 0.  0.
          5    1    3    3  502    0  0.26778880582E+02  0.74298669080E+02  0.32177124203E+03  0.33134816323E+03  0.41800000000E+01 0. -1.
         -5    1    3    3    0  502 -0.51763689939E+02 -0.18471051790E+02  0.12485816288E+03  0.13648330516E+03  0.41800000000E+01 0. -1.
        -11    1    1    2    0    0 -0.12596103180E+01 -0.62795410379E+02  0.79584313216E+02  0.10138300199E+03  0.00000000000E+00 0.  1.
         11    1    1    2    0    0  0.26244419674E+02  0.69677930885E+01  0.15589381322E+03  0.15824095773E+03  0.00000000000E+00 0. -1.
</event>
<event>
 7    1  0.2840156E-009  0.2727993E+03  0.7561462E-02  0.1099688E+00
          2   -1    0    0  501    0  0.00000000000E+00  0.00000000000E+00  0.43173181671E+03  0.43173181671E+03  0.00000000000E+00 0. -1.
         -2   -1    0    0    0  501 -0.00000000000E+00 -0.00000000000E+00 -0.17500730108E+03  0.17500730108E+03  0.00000000000E+00 0.  1.
         25    2    1    2    0    0  0.24408878074E+03  0.57698847553E+02  0.16001317728E+03  0.32273978874E+03  0.12509302316E+03 0.  0.
          5    1    3    3  502    0  0.21528167369E+03  0.92575131821E+02  0.12693548987E+03  0.26654539022E+03  0.41800000000E+01 0. -1.
         -5    1    3    3    0  502  0.28807107046E+02 -0.34876284268E+02  0.33077687410E+02  0.56194398521E+02  0.41800000000E+01 0. -1.
        -11    1    1    2    0    0 -0.12306328629E+02 -0.29917561861E+02  0.31362773995E+01  0.32501422553E+02  0.00000000000E+00 0. -1.
         11    1    1    2    0    0 -0.23178245211E+03 -0.27781285692E+02  0.93575060944E+02  0.25149790650E+03  0.00000000000E+00 0.  1.
</event>
<event>
 7    1  0.2840156E-009  0.1156250E+03  0.7561462E-02  0.1250494E+00
          2   -1    0    0  501    0  0.00000000000E+00  0.00000000000E+00  0.86447005494E+02  0.86447005494E+02  0.00000000000E+00 0. -1.
         -2   -1    0    0    0  501 -0.00000000000E+00 -0.00000000000E+00 -0.26187152203E+03  0.26187152203E+03  0.00000000000E+00 0.  1.
         25    2    1    2    0    0 -0.91509385643E+02 -0.29939691025E+02 -0.11829581951E+03  0.19726040659E+03  0.12508962521E+03 0.  0.
          5    1    3    3  502    0 -0.19205861322E+02 -0.38123885719E+01 -0.11858863917E+03  0.12026694124E+03  0.41800000000E+01 0.  1.
         -5    1    3    3    0  502 -0.72303524322E+02 -0.26127302453E+02  0.29281966481E+00  0.76993465347E+02  0.41800000000E+01 0.  1.
        -11    1    1    2    0    0  0.62435995972E+02 -0.28751477743E+02 -0.80391306454E+01  0.69206420851E+02  0.00000000000E+00 0. -1.
         11    1    1    2    0    0  0.29073389671E+02  0.58691168768E+02 -0.49089566384E+02  0.81851700081E+02  0.00000000000E+00 0.  1.
</event>
<event>
 7    1  0.2840156E-009  0.1162178E+03  0.7561462E-02  0.1249470E+00
         -2   -1    0    0    0  501 -0.00000000000E+00  0.00000000000E+00  0.75510621516E+02  0.75510621516E+02  0.00000000000E+00 0.  1.
          2   -1    0    0  501    0  0.00000000000E+00 -0.00000000000E+00 -0.27472459543E+03  0.27472459543E+03  0.00000000000E+00 0. -1.
         25    2    1    2    0    0  0.48497201615E+01 -0.82075303696E+02 -0.16979753169E+03  0.22635972197E+03  0.12509055400E+03 0.  0.
          5    1    3    3  502    0  0.85598902451E+01 -0.10970068331E+03 -0.91582338879E+02  0.14322118850E+03  0.41800000000E+01 0. -1.
         -5    1    3    3    0  502 -0.37101700836E+01  0.27625379619E+02 -0.78215192806E+02  0.83138533466E+02  0.41800000000E+01 0. -1.
        -11    1    1    2    0    0  0.17080497225E+02  0.62328591127E+02  0.18834869696E+02  0.67315295244E+02  0.00000000000E+00 0.  1.
         11    1    1    2    0    0 -0.21930217386E+02  0.19746712569E+02 -0.48251311926E+02  0.56560199739E+02  0.00000000000E+00 0. -1.
</event>
<event>
 7    1  0.2840156E-009  0.3048315E+03  0.7561462E-02  0.1082850E+00
          2   -1    0    0  501    0  0.00000000000E+00  0.00000000000E+00  0.16310179206E+03  0.16310179206E+03  0.00000000000E+00 0. -1.
         -2   -1    0    0    0  501 -0.00000000000E+00 -0.00000000000E+00 -0.59894485852E+03  0.59894485852E+03  0.00000000000E+00 0.  1.
         25    2    1    2    0    0  0.25475294297E+03  0.14294078113E+03 -0.26359793592E+03  0.41287162029E+03  0.12509186290E+03 0.  0.
          5    1    3    3  502    0  0.15226097545E+03  0.14897237361E+03 -0.15579734618E+03  0.26394404373E+03  0.41800000000E+01 0.  1.
         -5    1    3    3    0  502  0.10249196752E+03 -0.60315924782E+01 -0.10780058974E+03  0.14892757657E+03  0.41800000000E+01 0.  1.
        -11    1    1    2    0    0 -0.17848636960E+03 -0.11644833460E+03 -0.16219534312E+03  0.26781510057E+03  0.00000000000E+00 0.  1.
         11    1    1    2    0    0 -0.76266573367E+02 -0.26492446532E+02 -0.10049787429E+02  0.81359929719E+02  0.00000000000E+00 0. -1.
</event>
<event>
 7    1  0.2840156E-009  0.1106221E+03  0.7561462E-02  0.1259422E+00
         -2   -1    0    0    0  501 -0.00000000000E+00  0.00000000000E+00  0.21771084646E+02  0.21771084646E+02  0.00000000000E+00 0.  1.
          2   -1    0    0  501    0  0.00000000000E+00 -0.00000000000E+00 -0.81300229600E+03  0.81300229600E+03  0.00000000000E+00 0. -1.
         25    2    1    2    0    0 -0.16621127121E+02  0.56411068157E+02 -0.58747355187E+03  0.60351567982E+03  0.12509009220E+03 0.  0.
          5    1    3    3  502    0 -0.31281100019E+02 -0.18236188405E+02 -0.39244308114E+03  0.39413209730E+03  0.41800000000E+01 0. -1.
         -5    1    3    3    0  502  0.14659972898E+02  0.74647256562E+02 -0.19503047072E+03  0.20938358252E+03  0.41800000000E+01 0. -1.
        -11    1    1    2    0    0 -0.22398311584E+02  0.15190691343E+02 -0.39627311116E+02  0.47987136314E+02  0.00000000000E+00 0.  1.
         11    1    1    2    0    0  0.39019438706E+02 -0.71601759500E+02 -0.16413034837E+03  0.18327056452E+03  0.00000000000E+00 0. -1.
</event>
<event>
 7    1  0.2840156E-009  0.1282867E+03  0.7561462E-02  0.1230020E+00
          4   -1    0    0  501    0  0.00000000000E+00  0.00000000000E+00  0.29757161983E+03  0.29757161983E+03  0.00000000000E+00 0. -1.
         -4   -1    0    0    0  501 -0.00000000000E+00 -0.00000000000E+00 -0.83702873959E+02  0.83702873959E+02  0.00000000000E+00 0.  1.
         25    2    1    2    0    0 -0.79385387995E+02  0.28670835261E+02  0.22014784777E+02  0.15250340857E+03  0.12509429346E+03 0.  0.
          5    1    3    3  502    0 -0.53638326500E+02 -0.41604535779E+02 -0.13847654998E+02  0.69406321154E+02  0.41800000000E+01 0. -1.
         -5    1    3    3    0  502 -0.25747061494E+02  0.70275371041E+02  0.35862439775E+02  0.83097087417E+02  0.41800000000E+01 0. -1.
        -11    1    1    2    0    0  0.85705133719E+02 -0.44492167258E+02  0.11554824768E+03  0.15058658783E+03  0.00000000000E+00 0.  1.
         11    1    1    2    0    0 -0.63197457241E+01  0.15821331996E+02  0.76305713407E+02  0.78184497381E+02  0.00000000000E+00 0. -1.
</event>
<event>
 7    1  0.2840156E-009  0.1476114E+03  0.7561462E-02  0.1203439E+00
          2   -1    0    0  501    0  0.00000000000E+00  0.00000000000E+00  0.59549900963E+03  0.59549900963E+03  0.00000000000E+00 0. -1.
         -2   -1    0    0    0  501 -0.00000000000E+00 -0.00000000000E+00 -0.40178984307E+02  0.40178984307E+02  0.00000000000E+00 0.  1.
         25    2    1    2    0    0 -0.18137968381E+02 -0.98373725770E+02  0.37925937867E+03  0.41169263664E+03  0.12508706943E+03 0.  0.
          5    1    3    3  502    0 -0.26272473092E+02 -0.12718084634E+03  0.30934317809E+03  0.33552329986E+03  0.41800000000E+01 0. -1.
         -5    1    3    3    0  502  0.81345047108E+01  0.28807120570E+02  0.69916200576E+02  0.76169336779E+02  0.41800000000E+01 0. -1.
        -11    1    1    2    0    0 -0.37136359047E+02  0.43177558993E+02  0.50536955517E+02  0.76140624090E+02  0.00000000000E+00 0.  1.
         11    1    1    2    0    0  0.55274327428E+02  0.55196166776E+02  0.12552369114E+03  0.14784473320E+03  0.00000000000E+00 0. -1.
</event>
<event>
 7    1  0.2840156E-009  0.1387102E+03  0.7561462E-02  0.1215075E+00
         -2   -1    0    0    0  501 -0.00000000000E+00  0.00000000000E+00  0.82010542229E+02  0.82010542229E+02  0.00000000000E+00 0. -1.
          2   -1    0    0  501    0  0.00000000000E+00 -0.00000000000E+00 -0.26904456435E+03  0.26904456435E+03  0.00000000000E+00 0.  1.
         25    2    1    2    0    0  0.95589213673E+02 -0.31033691912E+02 -0.87889875217E+02  0.18295365189E+03  0.12508805207E+03 0.  0.
          5    1    3    3  502    0  0.11691140636E+03 -0.26517971767E+02 -0.34009606720E+02  0.12468201760E+03  0.41800000000E+01 0.  1.
         -5    1    3    3    0  502 -0.21322192688E+02 -0.45157201446E+01 -0.53880268496E+02  0.58271634289E+02  0.41800000000E+01 0.  1.
        -11    1    1    2    0    0 -0.10322938461E+03 -0.86825079352E-01 -0.69476306104E+02  0.12443179053E+03  0.00000000000E+00 0.  1.
         11    1    1    2    0    0  0.76401709378E+01  0.31120516991E+02 -0.29667840803E+02  0.43669664158E+02  0.00000000000E+00 0. -1.
</event>
<event>
 7    1  0.2840156E-009  0.1249074E+03  0.7561462E-02  0.1235214E+00
         -2   -1    0    0    0  501 -0.00000000000E+00  0.00000000000E+00  0.21477191390E+03  0.21477191390E+03  0.00000000000E+00 0.  1.
          2   -1    0    0  501    0  0.00000000000E+00 -0.00000000000E+00 -0.97126946192E+02  0.97126946192E+02  0.00000000000E+00 0. -1.
         25    2    1    2    0    0 -0.84647019971E+02  0.33426899308E+02  0.93106096658E+02  0.18055505157E+03  0.12509558675E+03 0.  0.
          5    1    3    3  502    0  0.29342928205E+02  0.19003341209E+02  0.46985502838E+01  0.35520180004E+02  0.41800000000E+01 0. -1.
         -5    1    3    3    0  502 -0.11398994818E+03  0.14423558099E+02  0.88407546374E+02  0.14503487156E+03  0.41800000000E+01 0. -1.
        -11    1    1    2    0    0  0.39767382790E+02 -0.37381122666E+02  0.54585248268E+02  0.77190299871E+02  0.00000000000E+00 0.  1.
         11    1    1    2    0    0  0.44879637182E+02  0.39542233580E+01 -0.30046377216E+02  0.54153508656E+02  0.00000000000E+00 0. -1.
</event>
<event>
 7    1  0.2840156E-009  0.1332981E+03  0.7561462E-02  0.1222642E+00
          1   -1    0    0  501    0  0.00000000000E+00  0.00000000000E+00  0.15969123644E+03  0.15969123644E+03  0.00000000000E+00 0. -1.
         -1   -1    0    0    0  501 -0.00000000000E+00 -0.00000000000E+00 -0.12952811356E+03  0.12952811356E+03  0.00000000000E+00 0.  1.
         25    2    1    2    0    0  0.40810558184E+02  0.82158452656E+02  0.42261701571E+02  0.16077720303E+03  0.12509094528E+03 0.  0.
          5    1    3    3  502    0 -0.39987332985E+01 -0.23857075492E+02  0.38355679285E+02  0.45538779654E+02  0.41800000000E+01 0.  1.
         -5    1    3    3    0  502  0.44809291483E+02  0.10601552815E+03  0.39060222864E+01  0.11523842337E+03  0.41800000000E+01 0.  1.
        -11    1    1    2    0    0 -0.22918159511E+02 -0.99411978205E+02 -0.16048951986E+02  0.10327416088E+03  0.00000000000E+00 0. -1.
         11    1    1    2    0    0 -0.17892398674E+02  0.17253525549E+02  0.39503732937E+01  0.25167986080E+02  0.00000000000E+00 0.  1.
</event>
<event>
 7    1  0.2840156E-009  0.1086883E+03  0.7561462E-02  0.1263018E+00
          1   -1    0    0  501    0  0.00000000000E+00  0.00000000000E+00  0.90764338867E+02  0.90764338867E+02  0.00000000000E+00 0. -1.
         -1   -1    0    0    0  501 -0.00000000000E+00 -0.00000000000E+00 -0.26976570383E+03  0.26976570383E+03  0.00000000000E+00 0.  1.
         25    2    1    2    0    0 -0.32921069774E+02  0.64614915327E+02  0.31067438665E+01  0.14462301169E+03  0.12508908639E+03 0.  0.
          5    1    3    3  502    0  0.21485076577E+02  0.47369125597E+02  0.48759558843E+02  0.71417151678E+02  0.41800000000E+01 0. -1.
         -5    1    3    3    0  502 -0.54406146352E+02  0.17245789730E+02 -0.45652814976E+02  0.73205860008E+02  0.41800000000E+01 0. -1.
        -11    1    1    2    0    0  0.27104004065E+02 -0.83719479843E+02 -0.17270958956E+03  0.19383544739E+03  0.00000000000E+00 0.  1.
         11    1    1    2    0    0  0.58170657090E+01  0.19104564516E+02 -0.93985192699E+01  0.22071583615E+02  0.00000000000E+00 0. -1.
</event>
<event>
 7    1  0.2840156E-009  0.2105391E+03  0.7561462E-02  0.1141140E+00
          2   -1    0    0  501    0  0.00000000000E+00  0.00000000000E+00  0.18734928542E+03  0.18734928542E+03  0.00000000000E+00 0.  1.
         -2   -1    0    0    0  501 -0.00000000000E+00 -0.00000000000E+00 -0.33647520287E+03  0.33647520287E+03  0.00000000000E+00 0. -1.
         25    2    1    2    0    0 -0.20284881667E+03 -0.15247792124E+02  0.26139216207E+02  0.24022846846E+03  0.12508525430E+03 0.  0.
          5    1    3    3  502    0 -0.16293817003E+03 -0.42082030024E+02  0.62739365251E+02  0.17964811397E+03  0.41800000000E+01 0. -1.
         -5    1    3    3    0  502 -0.39910646642E+02  0.26834237900E+02 -0.36600149044E+02  0.60580354481E+02  0.41800000000E+01 0. -1.
        -11    1    1    2    0    0  0.12680217560E+03  0.19543264742E+02 -0.16139217165E+03  0.20617508095E+03  0.00000000000E+00 0. -1.
         11    1    1    2    0    0  0.76046641072E+02 -0.42954726172E+01 -0.13872962001E+02  0.77420938886E+02  0.00000000000E+00 0.  1.
</event>
<event>
 7    1  0.2840156E-009  0.9117534E+02  0.7561462E-02  0.1300030E+00
         -2   -1    0    0    0  501 -0.00000000000E+00  0.00000000000E+00  0.74758553298E+02  0.74758553298E+02  0.00000000000E+00 0.  1.
          2   -1    0    0  501    0  0.00000000000E+00 -0.00000000000E+00 -0.15661770376E+03  0.15661770376E+03  0.00000000000E+00 0. -1.
         25    2    1    2    0    0  0.22310222259E+01  0.37501399894E+02 -0.51098964112E+01  0.13070728936E+03  0.12508777717E+03 0.  0.
          5    1    3    3  502    0  0.21091564418E+02  0.79272988759E+02  0.88540325053E+01  0.82613117167E+02  0.41800000000E+01 0.  1.
         -5    1    3    3    0  502 -0.18860542192E+02 -0.41771588865E+02 -0.13963928916E+02  0.48094172193E+02  0.41800000000E+01 0.  1.
        -11    1    1    2    0    0  0.18334925915E+02 -0.14833201995E+02 -0.62704999921E+02  0.66993360901E+02  0.00000000000E+00 0. -1.
         11    1    1    2    0    0 -0.20565948141E+02 -0.22668197899E+02 -0.14044254126E+02  0.33675606793E+02  0.00000000000E+00 0.  1.
</event>
<event>
 7    1  0.2840156E-009  0.1270203E+03  0.7561462E-02  0.1231945E+00
          1   -1    0    0  501    0  0.00000000000E+00  0.00000000000E+00  0.45102705124E+03  0.45102705124E+03  0.00000000000E+00 0. -1.
         -1   -1    0    0    0  501 -0.00000000000E+00 -0.00000000000E+00 -0.51780485813E+02  0.51780485813E+02  0.00000000000E+00 0.  1.
         25    2    1    2    0    0 -0.95918662212E+02 -0.37314593850E+02  0.26584061970E+03  0.31130188688E+03  0.12507941883E+03 0.  0.
          5    1    3    3  502    0 -0.53518061894E+02 -0.66085202590E+02  0.74364664469E+02  0.11304429518E+03  0.41800000000E+01 0.  1.
         -5    1    3    3    0  502 -0.42400600318E+02  0.28770608740E+02  0.19147595523E+03  0.19825759170E+03  0.41800000000E+01 0.  1.
        -11    1    1    2    0    0  0.52828668597E+02 -0.97042970798E+01  0.11203143683E+03  0.12424203977E+03  0.00000000000E+00 0. -1.
         11    1    1    2    0    0  0.43089993615E+02  0.47018890930E+02  0.21374508887E+02  0.67263610401E+02  0.00000000000E+00 0.  1.
</event>
<event>
 7    1  0.2840156E-009  0.7343656E+02  0.7561462E-02  0.1348782E+00
          1   -1    0    0  501    0  0.00000000000E+00  0.00000000000E+00  0.12002782825E+03  0.12002782825E+03  0.00000000000E+00 0. -1.
         -1   -1    0    0    0  501 -0.00000000000E+00 -0.00000000000E+00 -0.13837117527E+03  0.13837117527E+03  0.00000000000E+00 0.  1.
         25    2    1    2    0    0 -0.12741465027E+02 -0.16119206085E+02  0.62106584474E+02  0.14116090267E+03  0.12508796454E+03 0.  0.
          5    1    3    3  502    0 -0.60715554047E+02 -0.16940193056E+02  0.77369865031E+00  0.63177683192E+02  0.41800000000E+01 0.  1.
         -5    1    3    3    0  502  0.47974089020E+02  0.82098697079E+00  0.61332885824E+02  0.77983219480E+02  0.41800000000E+01 0.  1.
        -11    1    1    2    0    0  0.19342415723E+02  0.13848389313E+01  0.12385135640E+02  0.23009528672E+02  0.00000000000E+00 0. -1.
         11    1    1    2    0    0 -0.66009506966E+01  0.14734367154E+02 -0.92835067134E+02  0.94228572181E+02  0.00000000000E+00 0.  1.
</event>
<event>
 7    1  0.2840156E-009  0.9779399E+02  0.7561462E-02  0.1285004E+00
          1   -1    0    0  501    0  0.00000000000E+00  0.00000000000E+00  0.25784583345E+03  0.25784583345E+03  0.00000000000E+00 0. -1.
         -1   -1    0    0    0  501 -0.00000000000E+00 -0.00000000000E+00 -0.52426221208E+02  0.52426221208E+02  0.00000000000E+00 0.  1.
         25    2    1    2    0    0 -0.42922548188E+02  0.17025863164E+01  0.98310947245E+02  0.16479395655E+03  0.12508701700E+03 0.  0.
          5    1    3    3  502    0  0.10807091935E+02 -0.35585419961E+02 -0.95147718605E+01  0.38615005288E+02  0.41800000000E+01 0.  1.
         -5    1    3    3    0  502 -0.53729640123E+02  0.37288006277E+02  0.10782571911E+03  0.12617895126E+03  0.41800000000E+01 0.  1.
        -11    1    1    2    0    0  0.37441653701E+02 -0.39506480404E+02  0.37566741944E+02  0.66135463453E+02  0.00000000000E+00 0.  1.
         11    1    1    2    0    0  0.54808944873E+01  0.37803894088E+02  0.69541923050E+02  0.79342634655E+02  0.00000000000E+00 0. -1.
</event>
<event>
 7    1  0.2840156E-009  0.1550139E+03  0.7561462E-02  0.1194444E+00
          2   -1    0    0  501    0  0.00000000000E+00  0.00000000000E+00  0.32623413555E+03  0.32623413555E+03  0.00000000000E+00 0. -1.
         -2   -1    0    0    0  501 -0.00000000000E+00 -0.00000000000E+00 -0.10873556400E+03  0.10873556400E+03  0.00000000000E+00 0.  1.
         25    2    1    2    0    0  0.12347442460E+03  0.42429570519E+02  0.25607599524E+02  0.18261594561E+03  0.12508649988E+03 0.  0.
          5    1    3    3  502    0  0.11402076565E+03 -0.11474193051E+02  0.46699040668E+02  0.12381706225E+03  0.41800000000E+01 0. -1.
         -5    1    3    3    0  502  0.94536589478E+01  0.53903763570E+02 -0.21091441144E+02  0.58798883357E+02  0.41800000000E+01 0. -1.
        -11    1    1    2    0    0 -0.95501191728E+02 -0.54550231217E+02  0.78989893770E+02  0.13540904204E+03  0.00000000000E+00 0.  1.
         11    1    1    2    0    0 -0.27973232869E+02  0.12120660698E+02  0.11290107825E+03  0.11694471191E+03  0.00000000000E+00 0. -1.
</event>
<event>
 7    1  0.2840156E-009  0.6990965E+02  0.7561462E-02  0.1360401E+00
         -2   -1    0    0    0  501 -0.00000000000E+00  0.00000000000E+00  0.28611043408E+03  0.28611043408E+03  0.00000000000E+00 0.  1.
          2   -1    0    0  501    0  0.00000000000E+00 -0.00000000000E+00 -0.77717721840E+02  0.77717721840E+02  0.00000000000E+00 0. -1.
         25    2    1    2    0    0  0.14641261344E+02  0.15262686707E+02 -0.80052587599E+01  0.12711858019E+03  0.12509089944E+03 0.  0.
          5    1    3    3  502    0 -0.11995789293E+02 -0.67286115877E+01  0.54074781008E+02  0.55952904444E+02  0.41800000000E+01 0. -1.
         -5    1    3    3    0  502  0.26637050637E+02  0.21991298295E+02 -0.62080039768E+02  0.71165675750E+02  0.41800000000E+01 0. -1.
        -11    1    1    2    0    0  0.36781317449E+02 -0.13553973347E+02  0.56721930467E+02  0.68948915167E+02  0.00000000000E+00 0. -1.
         11    1    1    2    0    0 -0.51422578792E+02 -0.17087133604E+01  0.15967604054E+03  0.16776066056E+03  0.00000000000E+00 0.  1.
</event>
<event>
 7    1  0.2840156E-009  0.1785315E+03  0.7561462E-02  0.1169232E+00
         -4   -1    0    0    0  501 -0.00000000000E+00  0.00000000000E+00  0.14716999694E+03  0.14716999694E+03  0.00000000000E+00 0.  1.
          4   -1    0    0  501    0  0.00000000000E+00 -0.00000000000E+00 -0.37901281737E+03  0.37901281737E+03  0.00000000000E+00 0. -1.
         25    2    1    2    0    0  0.10675204373E+03 -0.11578643444E+03 -0.27399407292E+03  0.33988675739E+03  0.12509100132E+03 0.  0.
          5    1    3    3  502    0 -0.14756588254E+02 -0.23440177088E+02 -0.21386298971E+01  0.28093503460E+02  0.41800000000E+01 0.  1.
         -5    1    3    3    0  502  0.12150863198E+03 -0.92346257356E+02 -0.27185544303E+03  0.31179325393E+03  0.41800000000E+01 0.  1.
        -11    1    1    2    0    0 -0.52119955535E+02  0.43904045593E+01 -0.71444388588E+01  0.52790230382E+02  0.00000000000E+00 0.  1.
         11    1    1    2    0    0 -0.54632088193E+02  0.11139602988E+03  0.49295691343E+02  0.13350582654E+03  0.00000000000E+00 0. -1.
</event>
<event>
 7    1  0.2840156E-009  0.9178779E+02  0.7561462E-02  0.1298579E+00
          2   -1    0    0  501    0  0.00000000000E+00  0.00000000000E+00  0.45101872990E+03  0.45101872990E+03  0.00000000000E+00 0. -1.
         -2   -1    0    0    0  501 -0.00000000000E+00 -0.00000000000E+00 -0.31064412381E+02  0.31064412381E+02  0.00000000000E+00 0.  1.
         25    2    1    2    0    0 -0.92794360492E+01  0.48300704649E+02  0.22960804711E+03  0.26605749629E+03  0.12509064725E+03 0.  0.
          5    1    3    3  502    0  0.34087105491E+02  0.24353722108E+02  0.20736089237E+03  0.21159169792E+03  0.41800000000E+01 0. -1.
         -5    1    3    3    0  502 -0.43366541540E+02  0.23946982541E+02  0.22247154737E+02  0.54465798368E+02  0.41800000000E+01 0. -1.
        -11    1    1    2    0    0 -0.12133580315E+01 -0.68757660142E+02  0.17591995883E+03  0.18888335020E+03  0.00000000000E+00 0. -1.
         11    1    1    2    0    0  0.10492794081E+02  0.20456955493E+02  0.14426311579E+02  0.27142295803E+02  0.00000000000E+00 0.  1.
</event>
<event>
 7    1  0.2840156E-009  0.1176007E+03  0.7561462E-02  0.1247109E+00
          2   -1    0    0  501    0  0.00000000000E+00  0.00000000000E+00  0.95888916093E+03  0.95888916093E+03  0.00000000000E+00 0. -1.
         -2   -1    0    0    0  501 -0.00000000000E+00 -0.00000000000E+00 -0.15596285841E+02  0.15596285841E+02  0.00000000000E+00 0.  1.
         25    2    1    2    0    0 -0.19743222853E+01  0.46283408496E+02  0.64492176104E+03  0.65857221280E+03  0.12508888742E+03 0.  0.
          5    1    3    3  502    0 -0.20704899723E+01  0.89675949298E+02  0.43311095748E+03  0.44232187002E+03  0.41800000000E+01 0.  1.
         -5    1    3    3    0  502  0.96167686976E-01 -0.43392540802E+02  0.21181080356E+03  0.21625034278E+03  0.41800000000E+01 0.  1.
        -11    1    1    2    0    0 -0.93615603259E+01 -0.72576596251E+02  0.18412727596E+03  0.19813595052E+03  0.00000000000E+00 0.  1.
         11    1    1    2    0    0  0.11335882611E+02  0.26293187755E+02  0.11424383809E+03  0.11777728345E+03  0.00000000000E+00 0. -1.
</event>
<event>
 7    1  0.2840156E-009  0.8949064E+02  0.7561462E-02  0.1304090E+00
          1   -1    0    0  501    0  0.00000000000E+00  0.00000000000E+00  0.21123236475E+03  0.21123236475E+03  0.00000000000E+00 0. -1.
         -1   -1    0    0    0  501 -0.00000000000E+00 -0.00000000000E+00 -0.72441184981E+02  0.72441184981E+02  0.00000000000E+00 0.  1.
         25    2    1    2    0    0 -0.52071833709E+01 -0.51942164735E+02  0.52681138154E+02  0.14542371872E+03  0.12509057684E+03 0.  0.
          5    1    3    3  502    0  0.23793850213E+02 -0.16503563221E+02  0.84555232980E+02  0.89473877368E+02  0.41800000000E+01 0. -1.
         -5    1    3    3    0  502 -0.29001033584E+02 -0.35438601515E+02 -0.31874094826E+02  0.55949841352E+02  0.41800000000E+01 0. -1.
        -11    1    1    2    0    0 -0.24213329685E+02 -0.16461337837E+02  0.43566940749E+02  0.52491325989E+02  0.00000000000E+00 0. -1.
         11    1    1    2    0    0  0.29420513056E+02  0.68403502573E+02  0.42543100869E+02  0.85758505026E+02  0.00000000000E+00 0.  1.
</event>
<event>
 7    1  0.2840156E-009  0.1214803E+03  0.7561462E-02  0.1240675E+00
          4   -1    0    0  501    0  0.00000000000E+00  0.00000000000E+00  0.50124504135E+03  0.50124504135E+03  0.00000000000E+00 0. -1.
         -4   -1    0    0    0  501 -0.00000000000E+00 -0.00000000000E+00 -0.37328900534E+02  0.37328900534E+02  0.00000000000E+00 0.  1.
         25    2    1    2    0    0  0.29549716938E+02 -0.77183989413E+02  0.26241224570E+03  0.30222913494E+03  0.12510679167E+03 0.  0.
          5    1    3    3  502    0 -0.33641742453E+02 -0.42811420348E+02  0.19862648332E+03  0.20599644857E+03  0.41800000000E+01 0.  1.
         -5    1    3    3    0  502  0.63191459391E+02 -0.34372569065E+02  0.63785762385E+02  0.96232686376E+02  0.41800000000E+01 0.  1.
        -11    1    1    2    0    0 -0.24825005394E+02 -0.11589395525E+02  0.88027332587E+02  0.92192224530E+02  0.00000000000E+00 0.  1.
         11    1    1    2    0    0 -0.47247115436E+01  0.88773384938E+02  0.11347656252E+03  0.14415258241E+03  0.00000000000E+00 0. -1.
</event>
<event>
 7    1  0.2840156E-009  0.1487556E+03  0.7561462E-02  0.1202011E+00
         -2   -1    0    0    0  501 -0.00000000000E+00  0.00000000000E+00  0.99092842542E+02  0.99092842542E+02  0.00000000000E+00 0.  1.
          2   -1    0    0  501    0  0.00000000000E+00 -0.00000000000E+00 -0.38249407969E+03  0.38249407969E+03  0.00000000000E+00 0. -1.
         25    2    1    2    0    0  0.72314759216E+02 -0.82416074912E+02 -0.29410902054E+03  0.33788959338E+03  0.12508967802E+03 0.  0.
          5    1    3    3  502    0  0.10224507440E+03 -0.77879408874E+02 -0.19029621924E+03  0.22967233404E+03  0.41800000000E+01 0.  1.
         -5    1    3    3    0  502 -0.29930315185E+02 -0.45366660378E+01 -0.10381280130E+03  0.10821725934E+03  0.41800000000E+01 0.  1.
        -11    1    1    2    0    0 -0.91433535750E+02  0.73236943429E+02 -0.50792711656E+01  0.11725843397E+03  0.00000000000E+00 0. -1.
         11    1    1    2    0    0  0.19118776534E+02  0.91791314833E+01  0.15787054555E+02  0.26438894880E+02  0.00000000000E+00 0.  1.
</event>
<event>
 7    1  0.2840156E-009  0.1294425E+03  0.7561462E-02  0.1228285E+00
          2   -1    0    0  501    0  0.00000000000E+00  0.00000000000E+00  0.14386427293E+04  0.14386427293E+04  0.00000000000E+00 0. -1.
         -2   -1    0    0    0  501 -0.00000000000E+00 -0.00000000000E+00 -0.25377160022E+02  0.25377160022E+02  0.00000000000E+00 0.  1.
         25    2    1    2    0    0  0.78624592292E+02 -0.36358982921E+02  0.12575528534E+04  0.12667239752E+04  0.12508656239E+03 0.  0.
          5    1    3    3  502    0  0.47763144933E+02  0.36917399075E+02  0.31126099414E+03  0.31708845964E+03  0.41800000000E+01 0.  1.
         -5    1    3    3    0  502  0.30861447359E+02 -0.73276381996E+02  0.94629185922E+03  0.94963551551E+03  0.41800000000E+01 0.  1.
        -11    1    1    2    0    0 -0.95535482913E+02  0.35159035350E+02  0.14525722141E+03  0.17737769486E+03  0.00000000000E+00 0.  1.
         11    1    1    2    0    0  0.16910890621E+02  0.11999475706E+01  0.10455494554E+02  0.19918219352E+02  0.00000000000E+00 0. -1.
</event>
<event>
 7    1  0.2840156E-009  0.8249339E+02  0.7561462E-02  0.1322121E+00
          2   -1    0    0  501    0  0.00000000000E+00  0.00000000000E+00  0.88512067500E+02  0.88512067500E+02  0.00000000000E+00 0.  1.
         -2   -1    0    0    0  501 -0.00000000000E+00 -0.00000000000E+00 -0.18945913963E+03  0.18945913963E+03  0.00000000000E+00 0. -1.
         25    2    1    2    0    0  0.68942317841E+01  0.25643747040E+02 -0.12125750170E+03  0.17622569714E+03  0.12508789878E+03 0.  0.
          5    1    3    3  502    0  0.29637450524E+01  0.45266500205E+02  0.72265867181E+01  0.46125218494E+02  0.41800000000E+01 0. -1.
         -5    1    3    3    0  502  0.39304867317E+01 -0.19622753165E+02 -0.12848408842E+03  0.13010047865E+03  0.41800000000E+01 0. -1.
        -11    1    1    2    0    0 -0.32721036021E+02  0.25637845169E+02  0.14539703031E+02  0.44038259132E+02  0.00000000000E+00 0.  1.
         11    1    1    2    0    0  0.25826804237E+02 -0.51281592208E+02  0.57707265392E+01  0.57707250855E+02  0.00000000000E+00 0. -1.
</event>
<event>
 7    1  0.2895335E-009  0.1010195E+03  0.7561462E-02  0.1278167E+00
          2   -1    0    0  501    0  0.00000000000E+00  0.00000000000E+00  0.11749720158E+04  0.11749720158E+04  0.00000000000E+00 0. -1.
         -2   -1    0    0    0  501 -0.00000000000E+00 -0.00000000000E+00 -0.17889431502E+02  0.17889431502E+02  0.00000000000E+00 0.  1.
         25    2    1    2    0    0 -0.19760655886E+02 -0.85417724825E+02  0.78628967468E+03  0.80098997051E+03  0.12508720600E+03 0.  0.
          5    1    3    3  502    0 -0.19212493413E+02 -0.17496817925E+02  0.23846948518E+02  0.35516304626E+02  0.41800000000E+01 0.  1.
         -5    1    3    3    0  502 -0.54816247228E+00 -0.67920906901E+02  0.76244272616E+03  0.76547366588E+03  0.41800000000E+01 0.  1.
        -11    1    1    2    0    0 -0.15458625577E+00  0.87629793423E+02  0.35687041434E+03  0.36747176384E+03  0.00000000000E+00 0. -1.
         11    1    1    2    0    0  0.19915242141E+02 -0.22120685976E+01  0.13922495258E+02  0.24399712934E+02  0.00000000000E+00 0.  1.
</event>
<event>
 7    1  0.2840156E-009  0.7407488E+02  0.7561462E-02  0.1346760E+00
         -2   -1    0    0    0  501 -0.00000000000E+00  0.00000000000E+00  0.19671453485E+03  0.19671453485E+03  0.00000000000E+00 0.  1.
          2   -1    0    0  501    0  0.00000000000E+00 -0.00000000000E+00 -0.54089445908E+02  0.54089445908E+02  0.00000000000E+00 0. -1.
         25    2    1    2    0    0  0.12293559124E+02  0.18997808516E+02  0.81332911469E+02  0.15091204933E+03  0.12508939132E+03 0.  0.
          5    1    3    3  502    0 -0.46987023561E+02 -0.22698373611E+02  0.20582833084E+02  0.56250528580E+02  0.41800000000E+01 0.  1.
         -5    1    3    3    0  502  0.59280582685E+02  0.41696182127E+02  0.60750078385E+02  0.94661520753E+02  0.41800000000E+01 0.  1.
        -11    1    1    2    0    0 -0.90817257204E+01 -0.93459318839E+01  0.78677445281E+02  0.79749386084E+02  0.00000000000E+00 0.  1.
         11    1    1    2    0    0 -0.32118334040E+01 -0.96518766318E+01 -0.17385267805E+02  0.20142545345E+02  0.00000000000E+00 0. -1.
</event>
<event>
 7    1  0.2840156E-009  0.1367731E+03  0.7561462E-02  0.1217738E+00
          1   -1    0    0  501    0  0.00000000000E+00  0.00000000000E+00  0.72661989353E+03  0.72661989353E+03  0.00000000000E+00 0. -1.
         -1   -1    0    0    0  501 -0.00000000000E+00 -0.00000000000E+00 -0.44438772718E+02  0.44438772718E+02  0.00000000000E+00 0.  1.
         25    2    1    2    0    0  0.34966366157E+02  0.77966348769E+02  0.60632843881E+03  0.62496656240E+03  0.12509048767E+03 0.  0.
          5    1    3    3  502    0 -0.43306551404E+02  0.51893564749E+02  0.31206337024E+03  0.31932650830E+03  0.41800000000E+01 0. -1.
         -5    1    3    3    0  502  0.78272917561E+02  0.26072784020E+02  0.29426506856E+03  0.30564005410E+03  0.41800000000E+01 0. -1.
        -11    1    1    2    0    0  0.17379476511E+02 -0.67676766446E+02  0.31195044381E+02  0.76520073930E+02  0.00000000000E+00 0.  1.
         11    1    1    2    0    0 -0.52345842669E+02 -0.10289582323E+02  0.44657637624E+02  0.69572029921E+02  0.00000000000E+00 0. -1.
</event>
<event>
 7    1  0.2840156E-009  0.1027809E+03  0.7561462E-02  0.1274555E+00
         -1   -1    0    0    0  501 -0.00000000000E+00  0.00000000000E+00  0.14292455948E+02  0.14292455948E+02  0.00000000000E+00 0.  1.
          1   -1    0    0  501    0  0.00000000000E+00 -0.00000000000E+00 -0.91575527656E+03  0.91575527656E+03  0.00000000000E+00 0. -1.
         25    2    1    2    0    0 -0.13356841824E+02 -0.35474172440E+02 -0.48255940640E+03  0.49994424496E+03  0.12507535819E+03 0.  0.
          5    1    3    3  502    0 -0.47054107681E+02 -0.55596309150E+02 -0.17124917689E+03  0.18614185888E+03  0.41800000000E+01 0. -1.
         -5    1    3    3    0  502  0.33697265857E+02  0.20122136711E+02 -0.31131022951E+03  0.31380238608E+03  0.41800000000E+01 0. -1.
        -11    1    1    2    0    0 -0.36155521474E+02  0.19686469201E+02 -0.12397511230E+03  0.13063157074E+03  0.00000000000E+00 0.  1.
         11    1    1    2    0    0  0.49512363299E+02  0.15787703239E+02 -0.29492830191E+03  0.29947191681E+03  0.00000000000E+00 0. -1.
</event>
<event>
 7    1  0.2840156E-009  0.1141996E+03  0.7561462E-02  0.1252985E+00
          1   -1    0    0  501    0  0.00000000000E+00  0.00000000000E+00  0.15476758560E+02  0.15476758560E+02  0.00000000000E+00 0. -1.
         -1   -1    0    0    0  501 -0.00000000000E+00 -0.00000000000E+00 -0.10709992106E+04  0.10709992106E+04  0.00000000000E+00 0.  1.
         25    2    1    2    0    0  0.15514480881E+02  0.73653017961E+02 -0.80519022888E+03  0.81831816205E+03  0.12509134055E+03 0.  0.
          5    1    3    3  502    0  0.59885743334E+02  0.37368152791E+01 -0.42164290635E+03  0.42591135101E+03  0.41800000000E+01 0.  1.
         -5    1    3    3    0  502 -0.44371262453E+02  0.69916202682E+02 -0.38354732253E+03  0.39240681104E+03  0.41800000000E+01 0.  1.
        -11    1    1    2    0    0  0.13057690053E+02 -0.13704489455E+02 -0.16608340057E+02  0.25182399810E+02  0.00000000000E+00 0.  1.
         11    1    1    2    0    0 -0.28572170934E+02 -0.59948528506E+02 -0.23372388312E+03  0.24297540733E+03  0.00000000000E+00 0. -1.
</event>
<event>
 7    1  0.2840156E-009  0.1888373E+03  0.7561462E-02  0.1159514E+00
         -3   -1    0    0    0  501 -0.00000000000E+00  0.00000000000E+00  0.18113074502E+03  0.18113074502E+03  0.00000000000E+00 0.  1.
          3   -1    0    0  501    0  0.00000000000E+00 -0.00000000000E+00 -0.21086756583E+03  0.21086756583E+03  0.00000000000E+00 0. -1.
         25    2    1    2    0    0 -0.14932360930E+03 -0.62771008192E+02 -0.20324798698E+02  0.20566544276E+03  0.12508971636E+03 0.  0.
          5    1    3    3  502    0  0.42565856946E+00  0.25619369513E+02  0.12241414138E+02  0.28702924930E+02  0.41800000000E+01 0. -1.
         -5    1    3    3    0  502 -0.14974926787E+03 -0.88390377705E+02 -0.32566212836E+02  0.17696251783E+03  0.41800000000E+01 0. -1.
        -11    1    1    2    0    0  0.82059840379E+02  0.72883101665E+02 -0.32562083658E+02  0.11448167191E+03  0.00000000000E+00 0.  1.
         11    1    1    2    0    0  0.67263768921E+02 -0.10112093473E+02  0.23150061546E+02  0.71851196187E+02  0.00000000000E+00 0. -1.
</event>
<event>
 7    1  0.2840156E-009  0.1530084E+03  0.7561462E-02  0.1196824E+00
          1   -1    0    0  501    0  0.00000000000E+00  0.00000000000E+00  0.19641416975E+03  0.19641416975E+03  0.00000000000E+00 0. -1.
         -1   -1    0    0    0  501 -0.00000000000E+00 -0.00000000000E+00 -0.15082533735E+03  0.15082533735E+03  0.00000000000E+00 0.  1.
         25    2    1    2    0    0  0.90264749101E+02 -0.95469904956E+02  0.20193661383E+01  0.18142043385E+03  0.12508824204E+03 0.  0.
          5    1    3    3  502    0  0.73815175433E+01  0.11512721228E+02 -0.37697105161E+02  0.40318403848E+02  0.41800000000E+01 0. -1.
         -5    1    3    3    0  502  0.82883231558E+02 -0.10698262618E+03  0.39716471299E+02  0.14110203000E+03  0.41800000000E+01 0. -1.
        -11    1    1    2    0    0 -0.51951704246E+01  0.66127771665E+02  0.11674233451E+01  0.66341803250E+02  0.00000000000E+00 0.  1.
         11    1    1    2    0    0 -0.85069578676E+02  0.29342133290E+02  0.42402042925E+02  0.99477269999E+02  0.00000000000E+00 0. -1.
</event>
<event>
 7    1  0.2840156E-009  0.1178702E+03  0.7561462E-02  0.1246653E+00
          2   -1    0    0  501    0  0.00000000000E+00  0.00000000000E+00  0.10271559352E+04  0.10271559352E+04  0.00000000000E+00 0. -1.
         -2   -1    0    0    0  501 -0.00000000000E+00 -0.00000000000E+00 -0.18493918938E+02  0.18493918938E+02  0.00000000000E+00 0.  1.
         25    2    1    2    0    0  0.49980223703E+02 -0.30074746689E+02  0.79099050585E+03  0.80294186662E+03  0.12508855935E+03 0.  0.
          5    1    3    3  502    0  0.77424998311E+02 -0.53473421114E+02  0.67101050244E+03  0.67758881625E+03  0.41800000000E+01 0.  1.
         -5    1    3    3    0  502 -0.27444774609E+02  0.23398674426E+02  0.11998000341E+03  0.12535305037E+03  0.41800000000E+01 0.  1.
        -11    1    1    2    0    0 -0.71258656968E+02  0.36970398503E+01  0.16853227174E+03  0.18301527508E+03  0.00000000000E+00 0. -1.
         11    1    1    2    0    0  0.21278433265E+02  0.26377706838E+02  0.49139238687E+02  0.59692712445E+02  0.00000000000E+00 0.  1.
</event>
<event>
 7    1  0.2840156E-009  0.1142026E+03  0.7561462E-02  0.1252979E+00
         -1   -1    0    0    0  501 -0.00000000000E+00  0.00000000000E+00  0.20986363236E+02  0.20986363236E+02  0.00000000000E+00 0.  1.
          1   -1    0    0  501    0  0.00000000000E+00 -0.00000000000E+00 -0.10715633293E+04  0.10715633293E+04  0.00000000000E+00 0. -1.
         25    2    1    2    0    0 -0.46175013173E+02  0.80023547092E+02 -0.72934204032E+03  0.74573746798E+03  0.12509460199E+03 0.  0.
          5    1    3    3  502    0 -0.13258618133E+02  0.54922817162E+02 -0.67462174959E+03  0.67699651714E+03  0.41800000000E+01 0. -1.
         -5    1    3    3    0  502 -0.32916395040E+02  0.25100729930E+02 -0.54720290727E+02  0.68740950842E+02  0.41800000000E+01 0. -1.
        -11    1    1    2    0    0  0.38705320281E+02  0.98680405093E+01 -0.11408942034E+03  0.12087959247E+03  0.00000000000E+00 0.  1.
         11    1    1    2    0    0  0.74696928921E+01 -0.89891587602E+02 -0.20714550546E+03  0.22593263214E+03  0.00000000000E+00 0. -1.
</event>
<event>
 7    1  0.2840156E-009  0.1360222E+03  0.7561462E-02  0.1218784E+00
          1   -1    0    0  501    0  0.00000000000E+00  0.00000000000E+00  0.26095476952E+02  0.26095476952E+02  0.00000000000E+00 0. -1.
         -1   -1    0    0    0  501 -0.00000000000E+00 -0.00000000000E+00 -0.84485748678E+03  0.84485748678E+03  0.00000000000E+00 0.  1.
         25    2    1    2    0    0  0.79885092971E+02  0.54401399165E+02 -0.35303048442E+03  0.38680655337E+03  0.12509055314E+03 0.  0.
          5    1    3    3  502    0 -0.22741912859E+02 -0.19080943382E+02 -0.93330648907E+02  0.98027340198E+02  0.41800000000E+01 0.  1.
         -5    1    3    3    0  502  0.10262700583E+03  0.73482342547E+02 -0.25969983551E+03  0.28877921317E+03  0.41800000000E+01 0.  1.
        -11    1    1    2    0    0 -0.51196157889E+02 -0.67099937643E+02 -0.42180623827E+03  0.43016735215E+03  0.00000000000E+00 0.  1.
         11    1    1    2    0    0 -0.28688935082E+02  0.12698538479E+02 -0.43925287138E+02  0.53979058215E+02  0.00000000000E+00 0. -1.
</event>
<event>
 7    1  0.2840156E-009  0.1273971E+03  0.7561462E-02  0.1231370E+00
          1   -1    0    0  501    0  0.00000000000E+00  0.00000000000E+00  0.88167072295E+02  0.88167072295E+02  0.00000000000E+00 0. -1.
         -1   -1    0    0    0  501 -0.00000000000E+00 -0.00000000000E+00 -0.24042601388E+03  0.24042601388E+03  0.00000000000E+00 0.  1.
         25    2    1    2    0    0 -0.67144891975E+02 -0.69578918202E+02 -0.66235599620E+02  0.17141850721E+03  0.12508991798E+03 0.  0.
          5    1    3    3  502    0  0.29073931873E+02  0.12149558603E+02 -0.12770742149E+02  0.34255941731E+02  0.41800000000E+01 0.  1.
         -5    1    3    3    0  502 -0.96218823849E+02 -0.81728476805E+02 -0.53464857472E+02  0.13716256548E+03  0.41800000000E+01 0.  1.
        -11    1    1    2    0    0  0.40925284308E+02  0.42138819410E+02  0.46035141181E+01  0.58921569388E+02  0.00000000000E+00 0. -1.
         11    1    1    2    0    0  0.26219607668E+02  0.27440098792E+02 -0.90626856085E+02  0.98253009581E+02  0.00000000000E+00 0.  1.
</event>
<event>
 7    1  0.2840156E-009  0.7880450E+02  0.7561462E-02  0.1332479E+00
          1   -1    0    0  501    0  0.00000000000E+00  0.00000000000E+00  0.28374493727E+03  0.28374493727E+03  0.00000000000E+00 0. -1.
         -1   -1    0    0    0  501 -0.00000000000E+00 -0.00000000000E+00 -0.43214719565E+02  0.43214719565E+02  0.00000000000E+00 0.  1.
         25    2    1    2    0    0 -0.16431916343E+02 -0.24968680187E+01  0.15986632004E+03  0.20366922045E+03  0.12509064255E+03 0.  0.
          5    1    3    3  502    0  0.34335434037E+02 -0.27653613817E+02  0.12932157156E+02  0.46134124857E+02  0.41800000000E+01 0. -1.
         -5    1    3    3    0  502 -0.50767350379E+02  0.25156745798E+02  0.14693416288E+03  0.15753509560E+03  0.41800000000E+01 0. -1.
        -11    1    1    2    0    0  0.29735887436E+02 -0.15969196730E+02 -0.54765694442E+01  0.34194020803E+02  0.00000000000E+00 0.  1.
         11    1    1    2    0    0 -0.13303971093E+02  0.18466064749E+02  0.86140467114E+02  0.89096415577E+02  0.00000000000E+00 0. -1.
</event>
<event>
 7    1  0.2840156E-009  0.1764679E+03  0.7561462E-02  0.1171266E+00
          1   -1    0    0  501    0  0.00000000000E+00  0.00000000000E+00  0.19231133156E+04  0.19231133156E+04  0.00000000000E+00 0. -1.
         -1   -1    0    0    0  501 -0.00000000000E+00 -0.00000000000E+00 -0.19868012100E+02  0.19868012100E+02  0.00000000000E+00 0.  1.
         25    2    1    2    0    0  0.10325299934E+03  0.10069677072E+03  0.13560141056E+04  0.13693873879E+04  0.12508613825E+03 0.  0.
          5    1    3    3  502    0  0.94629934063E+02  0.12703031055E+03  0.12375796007E+04  0.12476827580E+04  0.41800000000E+01 0.  1.
         -5    1    3    3    0  502  0.86230652779E+01 -0.26333539831E+02  0.11843450489E+03  0.12170462983E+03  0.41800000000E+01 0.  1.
        -11    1    1    2    0    0 -0.51053594906E+02 -0.10219047620E+03  0.43596573708E+03  0.45068335546E+03  0.00000000000E+00 0.  1.
         11    1    1    2    0    0 -0.52199404434E+02  0.14937054856E+01  0.11126546089E+03  0.12291058444E+03  0.00000000000E+00 0. -1.
</event>
<event>
 7    1  0.2840156E-009  0.1126277E+03  0.7561462E-02  0.1255780E+00
          2   -1    0    0  501    0  0.00000000000E+00  0.00000000000E+00  0.63075732265E+03  0.63075732265E+03  0.00000000000E+00 0. -1.
         -2   -1    0    0    0  501 -0.00000000000E+00 -0.00000000000E+00 -0.27946963486E+02  0.27946963486E+02  0.00000000000E+00 0.  1.
         25    2    1    2    0    0 -0.56869798321E+02 -0.71837662641E+00  0.47769129867E+03  0.49706232205E+03  0.12508910886E+03 0.  0.
          5    1    3    3  502    0  0.64089438048E+01 -0.52271748541E+02  0.23893091281E+03  0.24470158102E+03  0.41800000000E+01 0.  1.
         -5    1    3    3    0  502 -0.63278742126E+02  0.51553371915E+02  0.23876038586E+03  0.25236074103E+03  0.41800000000E+01 0.  1.
        -11    1    1    2    0    0 -0.15128211542E+02  0.99566048397E+01  0.13545567264E+01  0.18161266154E+02  0.00000000000E+00 0.  1.
         11    1    1    2    0    0  0.71998009863E+02 -0.92382282133E+01  0.12376450377E+03  0.14348069793E+03  0.00000000000E+00 0. -1.
</event>
<event>
 7    1  0.2840156E-009  0.1888668E+03  0.7561462E-02  0.1159487E+00
          2   -1    0    0  501    0  0.00000000000E+00  0.00000000000E+00  0.71874460199E+03  0.71874460199E+03  0.00000000000E+00 0. -1.
         -2   -1    0    0    0  501 -0.00000000000E+00 -0.00000000000E+00 -0.54093054020E+02  0.54093054020E+02  0.00000000000E+00 0.  1.
         25    2    1    2    0    0  0.10818296445E+02  0.15801336718E+03  0.39404205090E+03  0.44272067216E+03  0.12508875223E+03 0.  0.
          5    1    3    3  502    0 -0.43583752163E+02  0.36734251704E+02  0.19605741542E+03  0.20421785240E+03  0.41800000000E+01 0. -1.
         -5    1    3    3    0  502  0.54402048608E+02  0.12127911547E+03  0.19798463548E+03  0.23850281975E+03  0.41800000000E+01 0. -1.
        -11    1    1    2    0    0  0.45043394565E+02 -0.76496416659E+02  0.14873329485E+03  0.17321143771E+03  0.00000000000E+00 0.  1.
         11    1    1    2    0    0 -0.55861691010E+02 -0.81516950516E+02  0.12187620222E+03  0.15690554615E+03  0.00000000000E+00 0. -1.
</event>
<event>
 7    1  0.2840156E-009  0.1069241E+03  0.7561462E-02  0.1266374E+00
          2   -1    0    0  501    0  0.00000000000E+00  0.00000000000E+00  0.78043330208E+02  0.78043330208E+02  0.00000000000E+00 0. -1.
         -2   -1    0    0    0  501 -0.00000000000E+00 -0.00000000000E+00 -0.22168787556E+03  0.22168787556E+03  0.00000000000E+00 0.  1.
         25    2    1    2    0    0 -0.37418599048E+02  0.32616899781E+02 -0.14644636771E+03  0.19889448104E+03  0.12509381387E+03 0.  0.
          5    1    3    3  502    0 -0.78929240688E+01 -0.38734201314E+02 -0.83472394136E+01  0.40617550488E+02  0.41800000000E+01 0. -1.
         -5    1    3    3    0  502 -0.29525674980E+02  0.71351101096E+02 -0.13809912829E+03  0.15827693055E+03  0.41800000000E+01 0. -1.
        -11    1    1    2    0    0  0.53435142661E+00 -0.54085722149E+02 -0.12473478993E+02  0.55508004378E+02  0.00000000000E+00 0.  1.
         11    1    1    2    0    0  0.36884247622E+02  0.21468822368E+02  0.15275301352E+02  0.45328720343E+02  0.00000000000E+00 0. -1.
</event>
<event>
 7    1  0.2840156E-009  0.3077327E+03  0.7561462E-02  0.1081438E+00
          2   -1    0    0  501    0  0.00000000000E+00  0.00000000000E+00  0.26376655994E+04  0.26376655994E+04  0.00000000000E+00 0. -1.
         -2   -1    0    0    0  501 -0.00000000000E+00 -0.00000000000E+00 -0.39738480501E+02  0.39738480501E+02  0.00000000000E+00 0.  1.
         25    2    1    2    0    0 -0.28633464911E+03 -0.73341372767E+02  0.16271821451E+04  0.16585345149E+04  0.12509402694E+03 0.  0.
          5    1    3    3  502    0 -0.10516324676E+03  0.11616745317E+02  0.82470632400E+03  0.83147594703E+03  0.41800000000E+01 0. -1.
         -5    1    3    3    0  502 -0.18117140235E+03 -0.84958118084E+02  0.80247582113E+03  0.82705856791E+03  0.41800000000E+01 0. -1.
        -11    1    1    2    0    0  0.21533069317E+03  0.94775768201E+02  0.73804347589E+03  0.77463405938E+03  0.00000000000E+00 0.  1.
         11    1    1    2    0    0  0.71003955944E+02 -0.21434395434E+02  0.23270149785E+03  0.24423550555E+03  0.00000000000E+00 0. -1.
</event>
<event>
 7    1  0.2840156E-009  0.1075449E+03  0.7561462E-02  0.1265185E+00
         -2   -1    0    0    0  501 -0.00000000000E+00  0.00000000000E+00  0.74231460749E+02  0.74231460749E+02  0.00000000000E+00 0.  1.
          2   -1    0    0  501    0  0.00000000000E+00 -0.00000000000E+00 -0.20615509107E+03  0.20615509107E+03  0.00000000000E+00 0. -1.
         25    2    1    2    0    0  0.47284540160E+02  0.47946887921E-01 -0.10754728358E+03  0.17161069317E+03  0.12509189329E+03 0.  0.
          5    1    3    3  502    0 -0.10497138819E+02 -0.51673653954E+02 -0.25788302014E+02  0.58846115905E+02  0.41800000000E+01 0.  1.
         -5    1    3    3    0  502  0.57781678978E+02  0.51721600842E+02 -0.81758981565E+02  0.11276457727E+03  0.41800000000E+01 0.  1.
        -11    1    1    2    0    0 -0.44156579468E+02 -0.30663215945E+02  0.17743109106E+02  0.56611432089E+02  0.00000000000E+00 0. -1.
         11    1    1    2    0    0 -0.31279606915E+01  0.30615269057E+02 -0.42119455850E+02  0.52164426563E+02  0.00000000000E+00 0.  1.
</event>
<event>
 7    1  0.2840156E-009  0.1424894E+03  0.7561462E-02  0.1210018E+00
         -3   -1    0    0    0  501 -0.00000000000E+00  0.00000000000E+00  0.91143878900E+02  0.91143878900E+02  0.00000000000E+00 0.  1.
          3   -1    0    0  501    0  0.00000000000E+00 -0.00000000000E+00 -0.23205497854E+03  0.23205497854E+03  0.00000000000E+00 0. -1.
         25    2    1    2    0    0  0.75981437587E+02 -0.61151401052E+02 -0.72920019596E+02  0.17457795973E+03  0.12508981597E+03 0.  0.
          5    1    3    3  502    0  0.30899607475E+02 -0.96351027736E+02 -0.46642775441E+02  0.11149586176E+03  0.41800000000E+01 0. -1.
         -5    1    3    3    0  502  0.45081830112E+02  0.35199626683E+02 -0.26277244155E+02  0.63082097978E+02  0.41800000000E+01 0. -1.
        -11    1    1    2    0    0 -0.77634244619E+02  0.13644979304E+02 -0.62840149700E+02  0.10080746903E+03  0.00000000000E+00 0. -1.
         11    1    1    2    0    0  0.16528070318E+01  0.47506421748E+02 -0.51509303434E+01  0.47813428677E+02  0.00000000000E+00 0.  1.
</event>
<event>
 7    1  0.2840156E-009  0.1111246E+03  0.7561462E-02  0.1258501E+00
         -2   -1    0    0    0  501 -0.00000000000E+00  0.00000000000E+00  0.21616358961E+03  0.21616358961E+03  0.00000000000E+00 0.  1.
          2   -1    0    0  501    0  0.00000000000E+00 -0.00000000000E+00 -0.71874339413E+02  0.71874339413E+02  0.00000000000E+00 0. -1.
         25    2    1    2    0    0 -0.65248770819E+02  0.21807790714E+02  0.60758981841E+02  0.15515216073E+03  0.12509019656E+03 0.  0.
          5    1    3    3  502    0 -0.67430455805E+01  0.52652908973E+02 -0.14190759307E+02  0.55105784966E+02  0.41800000000E+01 0.  1.
         -5    1    3    3    0  502 -0.58505725239E+02 -0.30845118258E+02  0.74949741148E+02  0.10004637577E+03  0.41800000000E+01 0.  1.
        -11    1    1    2    0    0  0.82751414311E+02 -0.20010729915E+02  0.74393363007E+02  0.11306015364E+03  0.00000000000E+00 0. -1.
         11    1    1    2    0    0 -0.17502643491E+02 -0.17970607991E+01  0.91369053442E+01  0.19825614643E+02  0.00000000000E+00 0.  1.
</event>
<event>
 7    1  0.2840156E-009  0.1259450E+03  0.7561462E-02  0.1233600E+00
         -1   -1    0    0    0  501 -0.00000000000E+00  0.00000000000E+00  0.20089985794E+03  0.20089985794E+03  0.00000000000E+00 0.  1.
          1   -1    0    0  501    0  0.00000000000E+00 -0.00000000000E+00 -0.18428298040E+03  0.18428298040E+03  0.00000000000E+00 0. -1.
         25    2    1    2    0    0 -0.61526288696E+02  0.16032759410E+02 -0.11848763235E+03  0.18365441554E+03  0.12508833580E+03 0.  0.
          5    1    3    3  502    0 -0.16931798530E+01  0.44560870971E+02 -0.10733754348E+03  0.11630717399E+03  0.41800000000E+01 0.  1.
         -5    1    3    3    0  502 -0.59833108843E+02 -0.28528111561E+02 -0.11150088865E+02  0.67347241553E+02  0.41800000000E+01 0.  1.
        -11    1    1    2    0    0  0.41052303001E+02 -0.71007302227E+02  0.11121191480E+03  0.13818617349E+03  0.00000000000E+00 0.  1.
         11    1    1    2    0    0  0.20473985695E+02  0.54974542817E+02  0.23892595095E+02  0.63342249317E+02  0.00000000000E+00 0. -1.
</event>
<event>
 7    1  0.2840156E-009  0.7403077E+02  0.7561462E-02  0.1346899E+00
         -2   -1    0    0    0  501 -0.00000000000E+00  0.00000000000E+00  0.26850541573E+02  0.26850541573E+02  0.00000000000E+00 0.  1.
          2   -1    0    0  501    0  0.00000000000E+00 -0.00000000000E+00 -0.53585496255E+03  0.53585496255E+03  0.00000000000E+00 0. -1.
         25    2    1    2    0    0  0.44525170333E+02  0.10046509795E+02 -0.21331077492E+03  0.25146341016E+03  0.12509571056E+03 0.  0.
          5    1    3    3  502    0  0.25209774608E+02 -0.73050428974E+01  0.86501980015E+01  0.27949860697E+02  0.41800000000E+01 0.  1.
         -5    1    3    3    0  502  0.19315395726E+02  0.17351552693E+02 -0.22196097293E+03  0.22351354947E+03  0.41800000000E+01 0.  1.
        -11    1    1    2    0    0  0.18877983707E+02  0.17790642657E+02 -0.11110101458E+03  0.11408909095E+03  0.00000000000E+00 0. -1.
         11    1    1    2    0    0 -0.63403154041E+02 -0.27837152452E+02 -0.18459263147E+03  0.19715300300E+03  0.00000000000E+00 0.  1.
</event>
<event>
 7    1  0.2840156E-009  0.1447550E+03  0.7561462E-02  0.1207070E+00
         -1   -1    0    0    0  501 -0.00000000000E+00  0.00000000000E+00  0.19709076438E+02  0.19709076438E+02  0.00000000000E+00 0.  1.
          1   -1    0    0  501    0  0.00000000000E+00 -0.00000000000E+00 -0.19306143648E+04  0.19306143648E+04  0.00000000000E+00 0. -1.
         25    2    1    2    0    0  0.45472985477E+02  0.10986548504E+03 -0.15574924171E+04  0.15670251243E+04  0.12508754491E+03 0.  0.
          5    1    3    3  502    0 -0.29380129496E+02 -0.57002485002E+01 -0.16575878022E+03  0.16849074296E+03  0.41800000000E+01 0. -1.
         -5    1    3    3    0  502  0.74853114973E+02  0.11556573354E+03 -0.13917336368E+04  0.13985343814E+04  0.41800000000E+01 0. -1.
        -11    1    1    2    0    0 -0.92658072503E+01 -0.55183067854E+02 -0.27702403441E+03  0.28261872161E+03  0.00000000000E+00 0. -1.
         11    1    1    2    0    0 -0.36207178227E+02 -0.54682417185E+02 -0.76388836842E+02  0.10067959524E+03  0.00000000000E+00 0.  1.
</event>
<event>
 7    1  0.2840156E-009  0.1041925E+03  0.7561462E-02  0.1271719E+00
          2   -1    0    0  501    0  0.00000000000E+00  0.00000000000E+00  0.35401075168E+02  0.35401075168E+02  0.00000000000E+00 0. -1.
         -2   -1    0    0    0  501 -0.00000000000E+00 -0.00000000000E+00 -0.38430607934E+03  0.38430607934E+03  0.00000000000E+00 0.  1.
         25    2    1    2    0    0  0.15562430859E+02 -0.31130974584E+02 -0.15163005431E+03  0.19962771287E+03  0.12509285969E+03 0.  0.
          5    1    3    3  502    0  0.89148268945E+01 -0.79527653252E+02 -0.10378597887E+03  0.13112255176E+03  0.41800000000E+01 0. -1.
         -5    1    3    3    0  502  0.66476039648E+01  0.48396678668E+02 -0.47844075439E+02  0.68505161113E+02  0.41800000000E+01 0. -1.
        -11    1    1    2    0    0 -0.27389116928E+02  0.49966005126E+02 -0.67149723868E+02  0.88067308406E+02  0.00000000000E+00 0. -1.
         11    1    1    2    0    0  0.11826686068E+02 -0.18835030542E+02 -0.13012522600E+03  0.13201213323E+03  0.00000000000E+00 0.  1.
</event>
<event>
 7    1  0.2840156E-009  0.1344612E+03  0.7561462E-02  0.1220982E+00
         -1   -1    0    0    0  501 -0.00000000000E+00  0.00000000000E+00  0.47621239112E+03  0.47621239112E+03  0.00000000000E+00 0.  1.
          1   -1    0    0  501    0  0.00000000000E+00 -0.00000000000E+00 -0.46195760827E+02  0.46195760827E+02  0.00000000000E+00 0. -1.
         25    2    1    2    0    0  0.72013831233E+02  0.70877183433E+02  0.28537315476E+03  0.32755939948E+03  0.12509098972E+03 0.  0.
          5    1    3    3  502    0  0.30619721430E+02 -0.21256414466E+02  0.17782939719E+02  0.41510334153E+02  0.41800000000E+01 0.  1.
         -5    1    3    3    0  502  0.41394109803E+02  0.92133597899E+02  0.26759021504E+03  0.28604906532E+03  0.41800000000E+01 0.  1.
        -11    1    1    2    0    0  0.94492066418E+01 -0.43298629482E+02  0.43774633509E+02  0.62291872343E+02  0.00000000000E+00 0. -1.
         11    1    1    2    0    0 -0.81463037875E+02 -0.27578553951E+02  0.10086884203E+03  0.13255688013E+03  0.00000000000E+00 0.  1.
</event>
<event>
 7    1  0.2840156E-009  0.1216615E+03  0.7561462E-02  0.1240381E+00
         -2   -1    0    0    0  501 -0.00000000000E+00  0.00000000000E+00  0.52106154262E+02  0.52106154262E+02  0.00000000000E+00 0.  1.
          2   -1    0    0  501    0  0.00000000000E+00 -0.00000000000E+00 -0.52435470841E+03  0.52435470841E+03  0.00000000000E+00 0. -1.
         25    2    1    2    0    0  0.65180236199E+02  0.41547468549E+02 -0.42212187767E+03  0.44700028260E+03  0.12509083781E+03 0.  0.
          5    1    3    3  502    0  0.77723357897E+02 -0.48625653567E+01 -0.35993144275E+03  0.36828342453E+03  0.41800000000E+01 0. -1.
         -5    1    3    3    0  502 -0.12543121697E+02  0.46410033906E+02 -0.62190434921E+02  0.78716858072E+02  0.41800000000E+01 0. -1.
        -11    1    1    2    0    0 -0.14031845657E+02 -0.60821857223E+02 -0.14087782349E+02  0.63989503984E+02  0.00000000000E+00 0.  1.
         11    1    1    2    0    0 -0.51148390542E+02  0.19274388674E+02 -0.36038894128E+02  0.65471076085E+02  0.00000000000E+00 0. -1.
</event>
<event>
 7    1  0.2840156E-009  0.1061106E+03  0.7561462E-02  0.1267947E+00
          1   -1    0    0  501    0  0.00000000000E+00  0.00000000000E+00  0.67990405238E+03  0.67990405238E+03  0.00000000000E+00 0. -1.
         -1   -1    0    0    0  501 -0.00000000000E+00 -0.00000000000E+00 -0.27387095223E+02  0.27387095223E+02  0.00000000000E+00 0.  1.
         25    2    1    2    0    0  0.71220399628E+02 -0.18584622423E+02  0.44455108851E+03  0.46764494960E+03  0.12509354531E+03 0.  0.
          5    1    3    3  502    0  0.98508011551E+02  0.70761344390E+01  0.23847518184E+03  0.25815070167E+03  0.41800000000E+01 0.  1.
         -5    1    3    3    0  502 -0.27287611924E+02 -0.25660756862E+02  0.20607590667E+03  0.20949424793E+03  0.41800000000E+01 0.  1.
        -11    1    1    2    0    0 -0.60621207238E+02  0.22084325507E+02  0.21629915288E+03  0.22571657391E+03  0.00000000000E+00 0. -1.
         11    1    1    2    0    0 -0.10599192390E+02 -0.34997030840E+01 -0.83332842387E+01  0.13929624087E+02  0.00000000000E+00 0.  1.
</event>
<event>
 7    1  0.2840156E-009  0.8239875E+02  0.7561462E-02  0.1322379E+00
          1   -1    0    0  501    0  0.00000000000E+00  0.00000000000E+00  0.24385251242E+02  0.24385251242E+02  0.00000000000E+00 0. -1.
         -1   -1    0    0    0  501 -0.00000000000E+00 -0.00000000000E+00 -0.63058195911E+03  0.63058195911E+03  0.00000000000E+00 0.  1.
         25    2    1    2    0    0 -0.52720602191E+01  0.53129524039E+01 -0.49670663198E+03  0.51227134475E+03  0.12509368617E+03 0.  0.
          5    1    3    3  502    0  0.40871262878E+02 -0.35632047833E+02 -0.13900095106E+03  0.14926097868E+03  0.41800000000E+01 0. -1.
         -5    1    3    3    0  502 -0.46143323097E+02  0.40945000237E+02 -0.35770568093E+03  0.36301036607E+03  0.41800000000E+01 0. -1.
        -11    1    1    2    0    0  0.13922263870E+02  0.18553646984E+02 -0.11449521414E+03  0.11682132215E+03  0.00000000000E+00 0.  1.
         11    1    1    2    0    0 -0.86502036510E+01 -0.23866599388E+02  0.50051382569E+01  0.25874543446E+02  0.00000000000E+00 0. -1.
</event>
<event>
 7    1  0.2840156E-009  0.2167580E+03  0.7561462E-02  0.1136323E+00
         -2   -1    0    0    0  501 -0.00000000000E+00  0.00000000000E+00  0.26522722847E+02  0.26522722847E+02  0.00000000000E+00 0.  1.
          2   -1    0    0  501    0  0.00000000000E+00 -0.00000000000E+00 -0.19079849963E+04  0.19079849963E+04  0.00000000000E+00 0. -1.
         25    2    1    2    0    0 -0.17227590514E+03 -0.82586499283E+02 -0.12159101968E+04  0.12371679312E+04  0.12508943101E+03 0.  0.
          5    1    3    3  502    0 -0.12365439374E+03 -0.11529240624E+03 -0.86555386850E+03  0.88192047244E+03  0.41800000000E+01 0. -1.
         -5    1    3    3    0  502 -0.48621511402E+02  0.32705906955E+02 -0.35035632833E+03  0.35524745871E+03  0.41800000000E+01 0. -1.
        -11    1    1    2    0    0  0.10139688660E+02 -0.13728357802E+02 -0.31374581717E+02  0.35716179415E+02  0.00000000000E+00 0.  1.
         11    1    1    2    0    0  0.16213621648E+03  0.96314857085E+02 -0.63417749495E+03  0.66162360862E+03  0.00000000000E+00 0. -1.
</event>
<event>
 7    1  0.2840156E-009  0.1051020E+03  0.7561462E-02  0.1269919E+00
          1   -1    0    0  501    0  0.00000000000E+00  0.00000000000E+00  0.38210123627E+03  0.38210123627E+03  0.00000000000E+00 0. -1.
         -1   -1    0    0    0  501 -0.00000000000E+00 -0.00000000000E+00 -0.38213153945E+02  0.38213153945E+02  0.00000000000E+00 0.  1.
         25    2    1    2    0    0  0.13283677936E+02 -0.52723374616E+02  0.20179578237E+03  0.24356806906E+03  0.12509059179E+03 0.  0.
          5    1    3    3  502    0  0.63080583511E+01 -0.93893122194E+02  0.13289454237E+03  0.16289303787E+03  0.41800000000E+01 0.  1.
         -5    1    3    3    0  502  0.69756195853E+01  0.41169747577E+02  0.68901240003E+02  0.80675031194E+02  0.41800000000E+01 0.  1.
        -11    1    1    2    0    0  0.18117712130E+02  0.30835474871E+02  0.13256064502E+03  0.13730041010E+03  0.00000000000E+00 0. -1.
         11    1    1    2    0    0 -0.31401390067E+02  0.21887899745E+02  0.95316549333E+01  0.39445911057E+02  0.00000000000E+00 0.  1.
</event>
<event>
 7    1  0.2840156E-009  0.9058178E+02  0.7561462E-02  0.1301449E+00
          2   -1    0    0  501    0  0.00000000000E+00  0.00000000000E+00  0.77909187014E+02  0.77909187014E+02  0.00000000000E+00 0. -1.
         -2   -1    0    0    0  501 -0.00000000000E+00 -0.00000000000E+00 -0.22172485372E+03  0.22172485372E+03  0.00000000000E+00 0.  1.
         25    2    1    2    0    0  0.40724057460E+02 -0.53235846771E+02 -0.45870980281E+02  0.14913489646E+03  0.12507824061E+03 0.  0.
          5    1    3    3  502    0  0.15654203959E+02 -0.10062425519E+02  0.43042163150E+02  0.47078728929E+02  0.41800000000E+01 0. -1.
         -5    1    3    3    0  502  0.25069853501E+02 -0.43173421252E+02 -0.88913143431E+02  0.10205616754E+03  0.41800000000E+01 0. -1.
        -11    1    1    2    0    0 -0.26052839507E+02 -0.22758864015E+02 -0.17139566774E+02  0.38606749239E+02  0.00000000000E+00 0.  1.
         11    1    1    2    0    0 -0.14671217953E+02  0.75994710786E+02 -0.80805119650E+02  0.11189239503E+03  0.00000000000E+00 0. -1.
</event>
<event>
 7    1  0.2840156E-009  0.1288822E+03  0.7561462E-02  0.1229124E+00
          2   -1    0    0  501    0  0.00000000000E+00  0.00000000000E+00  0.25744009526E+03  0.25744009526E+03  0.00000000000E+00 0. -1.
         -2   -1    0    0    0  501 -0.00000000000E+00 -0.00000000000E+00 -0.12480122352E+03  0.12480122352E+03  0.00000000000E+00 0.  1.
         25    2    1    2    0    0 -0.21265485316E+02 -0.94765507905E+02 -0.40512947385E+02  0.16346759172E+03  0.12509049637E+03 0.  0.
          5    1    3    3  502    0 -0.54333471909E+02 -0.94486362295E+02  0.24358176232E+01  0.10910180767E+03  0.41800000000E+01 0.  1.
         -5    1    3    3    0  502  0.33067986593E+02 -0.27914561017E+00 -0.42948765009E+02  0.54365784050E+02  0.41800000000E+01 0.  1.
        -11    1    1    2    0    0  0.32055778291E+02  0.15946220403E+02  0.98635875685E+01  0.37136844598E+02  0.00000000000E+00 0.  1.
         11    1    1    2    0    0 -0.10790292975E+02  0.78819287502E+02  0.16328823156E+03  0.18163688246E+03  0.00000000000E+00 0. -1.
</event>
<event>
 7    1  0.2840156E-009  0.1525898E+03  0.7561462E-02  0.1197326E+00
         -1   -1    0    0    0  501 -0.00000000000E+00  0.00000000000E+00  0.65550448819E+02  0.65550448819E+02  0.00000000000E+00 0.  1.
          1   -1    0    0  501    0  0.00000000000E+00 -0.00000000000E+00 -0.36577881965E+03  0.36577881965E+03  0.00000000000E+00 0. -1.
         25    2    1    2    0    0  0.28318053283E+02  0.10752507525E+03 -0.18009521107E+03  0.24585613462E+03  0.12508956763E+03 0.  0.
          5    1    3    3  502    0 -0.45306660632E+02  0.67006558532E+02 -0.10836871379E+03  0.13529162174E+03  0.41800000000E+01 0. -1.
         -5    1    3    3    0  502  0.73624713915E+02  0.40518516721E+02 -0.71726497278E+02  0.11056451288E+03  0.41800000000E+01 0. -1.
        -11    1    1    2    0    0 -0.56263957065E+02 -0.92623616136E+02 -0.10277856500E+03  0.14935930019E+03  0.00000000000E+00 0.  1.
         11    1    1    2    0    0  0.27945903782E+02 -0.14901459118E+02 -0.17354594760E+02  0.36113833656E+02  0.00000000000E+00 0. -1.
</event>
<event>
 7    1  0.2840156E-009  0.1353187E+03  0.7561462E-02  0.1219771E+00
         -3   -1    0    0    0  501 -0.00000000000E+00  0.00000000000E+00  0.10374251594E+03  0.10374251594E+03  0.00000000000E+00 0.  1.
          3   -1    0    0  501    0  0.00000000000E+00 -0.00000000000E+00 -0.29364634928E+03  0.29364634928E+03  0.00000000000E+00 0. -1.
         25    2    1    2    0    0 -0.62541524982E+02 -0.69984313187E+02 -0.21305906706E+03  0.26429594414E+03  0.12509569774E+03 0.  0.
          5    1    3    3  502    0 -0.45635117178E+02 -0.97376574353E+02 -0.20391593892E+03  0.23057307670E+03  0.41800000000E+01 0. -1.
         -5    1    3    3    0  502 -0.16906407804E+02  0.27392261165E+02 -0.91431281482E+01  0.33722867448E+02  0.41800000000E+01 0. -1.
        -11    1    1    2    0    0  0.61014598618E+02  0.46055101634E+00  0.16658971241E+02  0.63249621932E+02  0.00000000000E+00 0.  1.
         11    1    1    2    0    0  0.15269263644E+01  0.69523762171E+02  0.64962624841E+01  0.69843299155E+02  0.00000000000E+00 0. -1.
</event>
<event>
 7    1  0.2840156E-009  0.3169681E+03  0.7561462E-02  0.1077053E+00
         -2   -1    0    0    0  501 -0.00000000000E+00  0.00000000000E+00  0.10084775924E+04  0.10084775924E+04  0.00000000000E+00 0.  1.
          2   -1    0    0  501    0  0.00000000000E+00 -0.00000000000E+00 -0.11106198982E+03  0.11106198982E+03  0.00000000000E+00 0. -1.
         25    2    1    2    0    0 -0.18332795334E+03 -0.25348896932E+03  0.53246875273E+03  0.63010777659E+03  0.12508813470E+03 0.  0.
          5    1    3    3  502    0 -0.50419215893E+01 -0.32038203846E+02  0.15004082213E+03  0.15356297791E+03  0.41800000000E+01 0. -1.
         -5    1    3    3    0  502 -0.17828603175E+03 -0.22145076547E+03  0.38242793060E+03  0.47654479868E+03  0.41800000000E+01 0. -1.
        -11    1    1    2    0    0  0.17914608475E+03  0.22260012678E+03  0.35699451737E+03  0.45726274892E+03  0.00000000000E+00 0.  1.
         11    1    1    2    0    0  0.41818685945E+01  0.30888842535E+02  0.79523325023E+01  0.32169056721E+02  0.00000000000E+00 0. -1.
</event>
<event>
 7    1  0.2840156E-009  0.1301125E+03  0.7561462E-02  0.1227289E+00
          2   -1    0    0  501    0  0.00000000000E+00  0.00000000000E+00  0.10887771360E+03  0.10887771360E+03  0.00000000000E+00 0.  1.
         -2   -1    0    0    0  501 -0.00000000000E+00 -0.00000000000E+00 -0.20523766299E+03  0.20523766299E+03  0.00000000000E+00 0. -1.
         25    2    1    2    0    0 -0.77707796275E+02  0.58016639275E+02 -0.85290919160E+02  0.17979257296E+03  0.12508555618E+03 0.  0.
          5    1    3    3  502    0 -0.44173982724E+02 -0.30624226587E+02 -0.61900622877E+02  0.82087413873E+02  0.41800000000E+01 0. -1.
         -5    1    3    3    0  502 -0.33533813551E+02  0.88640865862E+02 -0.23390296283E+02  0.97705159088E+02  0.41800000000E+01 0. -1.
        -11    1    1    2    0    0  0.73045760901E+02 -0.23668772859E+02  0.28331767184E+02  0.81844871715E+02  0.00000000000E+00 0.  1.
         11    1    1    2    0    0  0.46620353747E+01 -0.34347866416E+02 -0.39400797415E+02  0.52477931915E+02  0.00000000000E+00 0. -1.
</event>
<event>
 7    1  0.2840156E-009  0.1627026E+03  0.7561462E-02  0.1185679E+00
          4   -1    0    0  501    0  0.00000000000E+00  0.00000000000E+00  0.45664652545E+02  0.45664652545E+02  0.00000000000E+00 0. -1.
         -4   -1    0    0    0  501 -0.00000000000E+00 -0.00000000000E+00 -0.63188036405E+03  0.63188036405E+03  0.00000000000E+00 0.  1.
         25    2    1    2    0    0 -0.11779308006E+03  0.25064033825E+02 -0.40784178249E+03  0.44326724421E+03  0.12509002653E+03 0.  0.
          5    1    3    3  502    0 -0.33952551818E+02  0.70363849164E+02 -0.18099814588E+03  0.19718430022E+03  0.41800000000E+01 0. -1.
         -5    1    3    3    0  502 -0.83840528246E+02 -0.45299815339E+02 -0.22684363661E+03  0.24608294398E+03  0.41800000000E+01 0. -1.
        -11    1    1    2    0    0  0.99052805163E+02  0.21697942387E+02 -0.11501874850E+03  0.15333483434E+03  0.00000000000E+00 0.  1.
         11    1    1    2    0    0  0.18740274900E+02 -0.46761976212E+02 -0.63355180507E+02  0.80942938047E+02  0.00000000000E+00 0. -1.
</event>
<event>
 7    1  0.2840156E-009  0.1330854E+03  0.7561462E-02  0.1222948E+00
         -2   -1    0    0    0  501 -0.00000000000E+00  0.00000000000E+00  0.11215792529E+03  0.11215792529E+03  0.00000000000E+00 0. -1.
          2   -1    0    0  501    0  0.00000000000E+00 -0.00000000000E+00 -0.36896795042E+03  0.36896795042E+03  0.00000000000E+00 0.  1.
         25    2    1    2    0    0  0.43325464044E+02  0.12212830137E+03 -0.26720192356E+03  0.32223555484E+03  0.12508583862E+03 0.  0.
          5    1    3    3  502    0  0.32766590133E+02  0.36237624219E+02 -0.89568757035E+01  0.49844888007E+02  0.41800000000E+01 0. -1.
         -5    1    3    3    0  502  0.10558873911E+02  0.85890677147E+02 -0.25824504785E+03  0.27239066684E+03  0.41800000000E+01 0. -1.
        -11    1    1    2    0    0 -0.33338804560E+02 -0.10912079131E+03  0.43366155380E+02  0.12206328858E+03  0.00000000000E+00 0. -1.
         11    1    1    2    0    0 -0.99866594841E+01 -0.13007510055E+02 -0.32974256949E+02  0.36827032283E+02  0.00000000000E+00 0.  1.
</event>
<event>
 7    1  0.2840156E-009  0.8901299E+02  0.7561462E-02  0.1305260E+00
          1   -1    0    0  501    0  0.00000000000E+00  0.00000000000E+00  0.21024182817E+02  0.21024182817E+02  0.00000000000E+00 0. -1.
         -1   -1    0    0    0  501 -0.00000000000E+00 -0.00000000000E+00 -0.81089825485E+03  0.81089825485E+03  0.00000000000E+00 0.  1.
         25    2    1    2    0    0  0.47614054402E+02  0.24598393850E+02 -0.59263299451E+03  0.60805685002E+03  0.12508831888E+03 0.  0.
          5    1    3    3  502    0  0.13897996239E+02  0.35776962274E+02 -0.55424952031E+03  0.55559261018E+03  0.41800000000E+01 0.  1.
         -5    1    3    3    0  502  0.33716058164E+02 -0.11178568425E+02 -0.38383474203E+02  0.52464239840E+02  0.41800000000E+01 0.  1.
        -11    1    1    2    0    0  0.23282903259E+02  0.92946323585E+01 -0.69567563138E+02  0.73946802607E+02  0.00000000000E+00 0.  1.
         11    1    1    2    0    0 -0.70896957661E+02 -0.33893026208E+02 -0.12767351438E+03  0.14991878503E+03  0.00000000000E+00 0. -1.
</event>
<event>
 7    1  0.2840156E-009  0.1245657E+03  0.7561462E-02  0.1235750E+00
         -1   -1    0    0    0  501 -0.00000000000E+00  0.00000000000E+00  0.54878902736E+02  0.54878902736E+02  0.00000000000E+00 0.  1.
          1   -1    0    0  501    0  0.00000000000E+00 -0.00000000000E+00 -0.32878427851E+03  0.32878427851E+03  0.00000000000E+00 0. -1.
         25    2    1    2    0    0 -0.64951329346E+02  0.44136428095E+02 -0.15139385112E+03  0.21150706571E+03  0.12509372973E+03 0.  0.
          5    1    3    3  502    0 -0.36238244561E+02 -0.31338897813E+02 -0.10754882993E+02  0.49279577852E+02  0.41800000000E+01 0. -1.
         -5    1    3    3    0  502 -0.28713084785E+02  0.75475325908E+02 -0.14063896813E+03  0.16222748785E+03  0.41800000000E+01 0. -1.
        -11    1    1    2    0    0  0.51590483934E+02 -0.72409266181E+02 -0.98785798350E+02  0.13290340032E+03  0.00000000000E+00 0. -1.
         11    1    1    2    0    0  0.13360845413E+02  0.28272838086E+02 -0.23725726301E+02  0.39252715219E+02  0.00000000000E+00 0.  1.
</event>
<event>
 7    1  0.2840156E-009  0.1480008E+03  0.7561462E-02  0.1202951E+00
          1   -1    0    0  501    0  0.00000000000E+00  0.00000000000E+00  0.26363313988E+03  0.26363313988E+03  0.00000000000E+00 0. -1.
         -1   -1    0    0    0  501 -0.00000000000E+00 -0.00000000000E+00 -0.10280003843E+03  0.10280003843E+03  0.00000000000E+00 0.  1.
         25    2    1    2    0    0  0.61578723148E+02 -0.10261197004E+03  0.12071393812E+03  0.21104808372E+03  0.12509309832E+03 0.  0.
          5    1    3    3  502    0  0.58110028216E+02  0.48928025783E-01  0.83289701201E+02  0.10164361514E+03  0.41800000000E+01 0.  1.
         -5    1    3    3    0  502  0.34686949316E+01 -0.10266089807E+03  0.37424236916E+02  0.10940446858E+03  0.41800000000E+01 0.  1.
        -11    1    1    2    0    0 -0.73369665778E+02  0.75032823991E+02  0.58559578056E+02  0.12017594066E+03  0.00000000000E+00 0. -1.
         11    1    1    2    0    0  0.11790942630E+02  0.27579146051E+02 -0.18440414723E+02  0.35209153926E+02  0.00000000000E+00 0.  1.
</event>
<event>
 7    1  0.2840156E-009  0.8599931E+02  0.7561462E-02  0.1312840E+00
         -1   -1    0    0    0  501 -0.00000000000E+00  0.00000000000E+00  0.44683620751E+02  0.44683620751E+02  0.00000000000E+00 0.  1.
          1   -1    0    0  501    0  0.00000000000E+00 -0.00000000000E+00 -0.32747091495E+03  0.32747091495E+03  0.00000000000E+00 0. -1.
         25    2    1    2    0    0  0.33695132819E+02 -0.37880531481E+02 -0.18441034608E+03  0.22852833359E+03  0.12509087445E+03 0.  0.
          5    1    3    3  502    0 -0.23987014990E+02  0.50570432101E+01 -0.14360638141E+03  0.14574366454E+03  0.41800000000E+01 0. -1.
         -5    1    3    3    0  502  0.57682147809E+02 -0.42937574691E+02 -0.40803964676E+02  0.82784669049E+02  0.41800000000E+01 0. -1.
        -11    1    1    2    0    0  0.15356737214E+02  0.12889532399E+02 -0.84509561237E+02  0.86855255246E+02  0.00000000000E+00 0. -1.
         11    1    1    2    0    0 -0.49051870034E+02  0.24990999082E+02 -0.13867386881E+02  0.56770946864E+02  0.00000000000E+00 0.  1.
</event>
<event>
 7    1  0.2840156E-009  0.9194742E+02  0.7561462E-02  0.1298203E+00
          1   -1    0    0  501    0  0.00000000000E+00  0.00000000000E+00  0.34005496482E+02  0.34005496482E+02  0.00000000000E+00 0. -1.
         -1   -1    0    0    0  501 -0.00000000000E+00 -0.00000000000E+00 -0.56780346690E+03  0.56780346690E+03  0.00000000000E+00 0.  1.
         25    2    1    2    0    0  0.30938173115E+02  0.65624540765E+02 -0.18491802533E+03  0.23474667989E+03  0.12509027429E+03 0.  0.
          5    1    3    3  502    0  0.45116197441E+01  0.68290353654E+02 -0.19447709861E+03  0.20621042990E+03  0.41800000000E+01 0. -1.
         -5    1    3    3    0  502  0.26426553371E+02 -0.26658128892E+01  0.95590732843E+01  0.28536249990E+02  0.41800000000E+01 0. -1.
        -11    1    1    2    0    0 -0.43776832576E+02 -0.37963230939E+02 -0.31951578621E+03  0.32472750979E+03  0.00000000000E+00 0.  1.
         11    1    1    2    0    0  0.12838659461E+02 -0.27661309826E+02 -0.29364158878E+02  0.42334773705E+02  0.00000000000E+00 0. -1.
</event>
<event>
 7    1  0.2840156E-009  0.1183875E+03  0.7561462E-02  0.1245781E+00
          1   -1    0    0  501    0  0.00000000000E+00  0.00000000000E+00  0.95964850744E+03  0.95964850744E+03  0.00000000000E+00 0. -1.
         -1   -1    0    0    0  501 -0.00000000000E+00 -0.00000000000E+00 -0.16846043232E+02  0.16846043232E+02  0.00000000000E+00 0.  1.
         25    2    1    2    0    0  0.39865025645E+02  0.45714348244E+02  0.62900438178E+03  0.64418664976E+03  0.12510357917E+03 0.  0.
          5    1    3    3  502    0  0.75889620869E+02  0.93910032851E+01  0.24293421652E+03  0.25471931897E+03  0.41800000000E+01 0. -1.
         -5    1    3    3    0  502 -0.36024595224E+02  0.36323344959E+02  0.38607016526E+03  0.38946733079E+03  0.41800000000E+01 0. -1.
        -11    1    1    2    0    0  0.10968950636E+02 -0.55945340998E+02  0.14849489491E+03  0.15906266964E+03  0.00000000000E+00 0.  1.
         11    1    1    2    0    0 -0.50833976281E+02  0.10230992753E+02  0.16530318752E+03  0.17324523128E+03  0.00000000000E+00 0. -1.
</event>
<event>
 7    1  0.2840156E-009  0.1331475E+03  0.7561462E-02  0.1222859E+00
         -1   -1    0    0    0  501 -0.00000000000E+00  0.00000000000E+00  0.28271688058E+02  0.28271688058E+02  0.00000000000E+00 0.  1.
          1   -1    0    0  501    0  0.00000000000E+00 -0.00000000000E+00 -0.82549390737E+03  0.82549390737E+03  0.00000000000E+00 0. -1.
         25    2    1    2    0    0  0.74155554373E+02 -0.71380508308E+02 -0.35068929028E+03  0.38629645200E+03  0.12509095611E+03 0.  0.
          5    1    3    3  502    0 -0.25710612400E+02 -0.44084729600E+02 -0.17491862049E+03  0.18225941722E+03  0.41800000000E+01 0.  1.
         -5    1    3    3    0  502  0.99866166773E+02 -0.27295778708E+02 -0.17577066979E+03  0.20403703478E+03  0.41800000000E+01 0.  1.
        -11    1    1    2    0    0 -0.34336157920E+02  0.61520916097E+02 -0.39677470063E+03  0.40298133693E+03  0.00000000000E+00 0. -1.
         11    1    1    2    0    0 -0.39819396453E+02  0.98595922110E+01 -0.49758228408E+02  0.64487806497E+02  0.00000000000E+00 0.  1.
</event>
<event>
 7    1  0.2840156E-009  0.1166906E+03  0.7561462E-02  0.1248658E+00
          2   -1    0    0  501    0  0.00000000000E+00  0.00000000000E+00  0.25017796184E+03  0.25017796184E+03  0.00000000000E+00 0. -1.
         -2   -1    0    0    0  501 -0.00000000000E+00 -0.00000000000E+00 -0.86188073206E+02  0.86188073206E+02  0.00000000000E+00 0.  1.
         25    2    1    2    0    0 -0.93612445064E+02 -0.29620722195E+02  0.80553835475E+02  0.17825208208E+03  0.12507680561E+03 0.  0.
          5    1    3    3  502    0 -0.27061961438E+02  0.18886612002E+01 -0.32954471502E+02  0.42888068154E+02  0.41800000000E+01 0.  1.
         -5    1    3    3    0  502 -0.66550483626E+02 -0.31509383395E+02  0.11350830698E+03  0.13536401392E+03  0.41800000000E+01 0.  1.
        -11    1    1    2    0    0  0.14382448453E+02  0.48622558934E+02  0.45947326373E+02  0.68426346253E+02  0.00000000000E+00 0. -1.
         11    1    1    2    0    0  0.79229996611E+02 -0.19001836739E+02  0.37488726789E+02  0.89687606718E+02  0.00000000000E+00 0.  1.
</event>
<event>
 7    1  0.2840156E-009  0.1416538E+03  0.7561462E-02  0.1211121E+00
          1   -1    0    0  501    0  0.00000000000E+00  0.00000000000E+00  0.30657123134E+02  0.30657123134E+02  0.00000000000E+00 0. -1.
         -1   -1    0    0    0  501 -0.00000000000E+00 -0.00000000000E+00 -0.66578195610E+03  0.66578195610E+03  0.00000000000E+00 0.  1.
         25    2    1    2    0    0  0.59914601486E+02  0.69386328837E+02 -0.38086597220E+03  0.41123053757E+03  0.12508974440E+03 0.  0.
          5    1    3    3  502    0  0.96844880677E+02  0.65471421020E+02 -0.27048988058E+03  0.29469931418E+03  0.41800000000E+01 0. -1.
         -5    1    3    3    0  502 -0.36930279191E+02  0.39149078171E+01 -0.11037609162E+03  0.11653122339E+03  0.41800000000E+01 0. -1.
        -11    1    1    2    0    0  0.11628817209E+01 -0.67855219830E+02 -0.12487765769E+03  0.14212709995E+03  0.00000000000E+00 0. -1.
         11    1    1    2    0    0 -0.61077483207E+02 -0.15311090074E+01 -0.12938120308E+03  0.14308144171E+03  0.00000000000E+00 0.  1.
</event>
<event>
 7    1  0.2840156E-009  0.1808234E+03  0.7561462E-02  0.1167009E+00
         -1   -1    0    0    0  501 -0.00000000000E+00  0.00000000000E+00  0.30310383124E+03  0.30310383124E+03  0.00000000000E+00 0.  1.
          1   -1    0    0  501    0  0.00000000000E+00 -0.00000000000E+00 -0.13055215090E+03  0.13055215090E+03  0.00000000000E+00 0. -1.
         25    2    1    2    0    0 -0.85766475574E+02  0.13501952186E+03  0.40544244041E+02  0.20706942621E+03  0.12509097462E+03 0.  0.
          5    1    3    3  502    0 -0.37652283252E+02 -0.73965515996E+01  0.41511692549E+02  0.56684181461E+02  0.41800000000E+01 0. -1.
         -5    1    3    3    0  502 -0.48114192322E+02  0.14241607346E+03 -0.96744850834E+00  0.15038524475E+03  0.41800000000E+01 0. -1.
        -11    1    1    2    0    0  0.83085000146E+02 -0.73031555730E+02  0.12033162368E+03  0.16345159846E+03  0.00000000000E+00 0.  1.
         11    1    1    2    0    0  0.26814754282E+01 -0.61987966128E+02  0.11675812614E+02  0.63134957474E+02  0.00000000000E+00 0. -1.
</event>
<event>
 7    1  0.2840156E-009  0.1685540E+03  0.7561462E-02  0.1179364E+00
         -1   -1    0    0    0  501 -0.00000000000E+00  0.00000000000E+00  0.18127611212E+03  0.18127611212E+03  0.00000000000E+00 0.  1.
          1   -1    0    0  501    0  0.00000000000E+00 -0.00000000000E+00 -0.19926950172E+03  0.19926950172E+03  0.00000000000E+00 0. -1.
         25    2    1    2    0    0  0.13943734695E+03 -0.74275696239E+02 -0.12180312459E+02  0.20187901980E+03  0.12508847207E+03 0.  0.
          5    1    3    3  502    0  0.10266719363E+03 -0.61897290274E+02 -0.64823352841E+02  0.13635016195E+03  0.41800000000E+01 0. -1.
         -5    1    3    3    0  502  0.36770153325E+02 -0.12378405965E+02  0.52643040382E+02  0.65528857844E+02  0.41800000000E+01 0. -1.
        -11    1    1    2    0    0 -0.13279915930E+03  0.33690956389E+02 -0.97611368194E+01  0.13735347482E+03  0.00000000000E+00 0. -1.
         11    1    1    2    0    0 -0.66381876539E+01  0.40584739850E+02  0.39480596776E+01  0.41313119215E+02  0.00000000000E+00 0.  1.
</event>
<event>
 7    1  0.2840156E-009  0.1586886E+03  0.7561462E-02  0.1190185E+00
          3   -1    0    0  501    0  0.00000000000E+00  0.00000000000E+00  0.39324121369E+03  0.39324121369E+03  0.00000000000E+00 0. -1.
         -3   -1    0    0    0  501 -0.00000000000E+00 -0.00000000000E+00 -0.68312179598E+02  0.68312179598E+02  0.00000000000E+00 0.  1.
         25    2    1    2    0    0 -0.58750837087E+02  0.10356196181E+03  0.21308998612E+03  0.27428422403E+03  0.12509097719E+03 0.  0.
          5    1    3    3  502    0 -0.11105425190E+02  0.11762146817E+03  0.11863598615E+03  0.16748167020E+03  0.41800000000E+01 0. -1.
         -5    1    3    3    0  502 -0.47645411897E+02 -0.14059506362E+02  0.94453999972E+02  0.10680255383E+03  0.41800000000E+01 0. -1.
        -11    1    1    2    0    0  0.26644902155E+02  0.12105529768E+02  0.14177072123E+02  0.32518979623E+02  0.00000000000E+00 0.  1.
         11    1    1    2    0    0  0.32105934933E+02 -0.11566749158E+03  0.97661975846E+02  0.15475018963E+03  0.00000000000E+00 0. -1.
</event>
<event>
 7    1  0.2840156E-009  0.1259859E+03  0.7561462E-02  0.1233537E+00
          1   -1    0    0  501    0  0.00000000000E+00  0.00000000000E+00  0.16175489424E+04  0.16175489424E+04  0.00000000000E+00 0. -1.
         -1   -1    0    0    0  501 -0.00000000000E+00 -0.00000000000E+00 -0.20848908457E+02  0.20848908457E+02  0.00000000000E+00 0.  1.
         25    2    1    2    0    0  0.37401082919E+02  0.10411911119E+03  0.12793902637E+04  0.12902429492E+04  0.12509113005E+03 0.  0.
          5    1    3    3  502    0  0.24277322865E+02  0.30980726958E+02  0.10096012914E+04  0.10103768771E+04  0.41800000000E+01 0.  1.
         -5    1    3    3    0  502  0.13123760054E+02  0.73138384229E+02  0.26978897231E+03  0.27986607209E+03  0.41800000000E+01 0.  1.
        -11    1    1    2    0    0  0.12223715188E+02 -0.83232692396E+02  0.14508481594E+03  0.16771017892E+03  0.00000000000E+00 0.  1.
         11    1    1    2    0    0 -0.49624798107E+02 -0.20886418791E+02  0.17222495437E+03  0.18044472279E+03  0.00000000000E+00 0. -1.
</event>
<event>
 7    1  0.2840156E-009  0.8424518E+02  0.7561462E-02  0.1317418E+00
         -1   -1    0    0    0  501 -0.00000000000E+00  0.00000000000E+00  0.11836626439E+03  0.11836626439E+03  0.00000000000E+00 0.  1.
          1   -1    0    0  501    0  0.00000000000E+00 -0.00000000000E+00 -0.10085807587E+03  0.10085807587E+03  0.00000000000E+00 0. -1.
         25    2    1    2    0    0 -0.65976818884E+01  0.24802259819E+01  0.84380083909E+01  0.12557101201E+03  0.12508876106E+03 0.  0.
          5    1    3    3  502    0 -0.43726598116E+02  0.28165146017E+01 -0.43304846610E+02  0.61747309878E+02  0.41800000000E+01 0. -1.
         -5    1    3    3    0  502  0.37128916228E+02 -0.33628861982E+00  0.51742855001E+02  0.63823702133E+02  0.41800000000E+01 0. -1.
        -11    1    1    2    0    0  0.36268507374E+02 -0.29674607458E+02 -0.11788637853E+02  0.48321412824E+02  0.00000000000E+00 0. -1.
         11    1    1    2    0    0 -0.29670825485E+02  0.27194381476E+02  0.20858817974E+02  0.45331915425E+02  0.00000000000E+00 0.  1.
</event>
<event>
 7    1  0.2840156E-009  0.1291538E+03  0.7561462E-02  0.1228717E+00
         -1   -1    0    0    0  501 -0.00000000000E+00  0.00000000000E+00  0.29817332922E+02  0.29817332922E+02  0.00000000000E+00 0.  1.
          1   -1    0    0  501    0  0.00000000000E+00 -0.00000000000E+00 -0.59227293362E+03  0.59227293362E+03  0.00000000000E+00 0. -1.
         25    2    1    2    0    0  0.31499517866E+02  0.69950407617E+02 -0.29902117794E+03  0.33308573836E+03  0.12508862895E+03 0.  0.
          5    1    3    3  502    0  0.72309963207E+02  0.13809682449E+02 -0.18968920680E+03  0.20351635238E+03  0.41800000000E+01 0.  1.
         -5    1    3    3    0  502 -0.40810445341E+02  0.56140725167E+02 -0.10933197114E+03  0.12956938598E+03  0.41800000000E+01 0.  1.
        -11    1    1    2    0    0 -0.81530318023E+01 -0.86206527376E+02 -0.16241995462E+03  0.18406053066E+03  0.00000000000E+00 0.  1.
         11    1    1    2    0    0 -0.23346486064E+02  0.16256119759E+02 -0.10101446814E+03  0.10494399752E+03  0.00000000000E+00 0. -1.
</event>
<event>
 7    1  0.2840156E-009  0.9764139E+02  0.7561462E-02  0.1285335E+00
          1   -1    0    0  501    0  0.00000000000E+00  0.00000000000E+00  0.26002638267E+03  0.26002638267E+03  0.00000000000E+00 0. -1.
         -1   -1    0    0    0  501 -0.00000000000E+00 -0.00000000000E+00 -0.53479733486E+02  0.53479733486E+02  0.00000000000E+00 0.  1.
         25    2    1    2    0    0  0.34420362170E+02  0.23016692567E+02  0.91370148031E+02  0.16034337695E+03  0.12508782959E+03 0.  0.
          5    1    3    3  502    0  0.69670022632E+02  0.14893525255E+02  0.10006324084E+03  0.12290587339E+03  0.41800000000E+01 0. -1.
         -5    1    3    3    0  502 -0.35249660463E+02  0.81231673118E+01 -0.86930928043E+01  0.37437503555E+02  0.41800000000E+01 0. -1.
        -11    1    1    2    0    0  0.96794703407E+01 -0.39313205321E+02  0.16238517709E+02  0.43622353399E+02  0.00000000000E+00 0.  1.
         11    1    1    2    0    0 -0.44099832510E+02  0.16296512754E+02  0.98937983446E+02  0.10954038581E+03  0.00000000000E+00 0. -1.
</event>
<event>
 7    1  0.2840156E-009  0.8910900E+02  0.7561462E-02  0.1305024E+00
         -2   -1    0    0    0  501 -0.00000000000E+00  0.00000000000E+00  0.26221526667E+02  0.26221526667E+02  0.00000000000E+00 0.  1.
          2   -1    0    0  501    0  0.00000000000E+00 -0.00000000000E+00 -0.51225094895E+03  0.51225094895E+03  0.00000000000E+00 0. -1.
         25    2    1    2    0    0  0.30778095025E+02 -0.72143484219E+01 -0.21134012449E+03  0.24760821016E+03  0.12508333046E+03 0.  0.
          5    1    3    3  502    0 -0.17035691028E+02 -0.28591084283E+02 -0.40779372124E+01  0.33790040562E+02  0.41800000000E+01 0. -1.
         -5    1    3    3    0  502  0.47813786053E+02  0.21376735861E+02 -0.20726218728E+03  0.21381816960E+03  0.41800000000E+01 0. -1.
        -11    1    1    2    0    0 -0.35757959263E+01  0.45239281195E+02 -0.17448217274E+03  0.18028701419E+03  0.00000000000E+00 0. -1.
         11    1    1    2    0    0 -0.27202299098E+02 -0.38024932773E+02 -0.10020712505E+03  0.11057725127E+03  0.00000000000E+00 0.  1.
</event>
<event>
 7    1  0.2840156E-009  0.1138291E+03  0.7561462E-02  0.1253639E+00
          2   -1    0    0  501    0  0.00000000000E+00  0.00000000000E+00  0.17440190869E+03  0.17440190869E+03  0.00000000000E+00 0. -1.
         -2   -1    0    0    0  501 -0.00000000000E+00 -0.00000000000E+00 -0.10670641564E+03  0.10670641564E+03  0.00000000000E+00 0.  1.
         25    2    1    2    0    0  0.69245511492E+02 -0.19153606128E+02  0.13464987285E+01  0.14426144830E+03  0.12509097057E+03 0.  0.
          5    1    3    3  502    0 -0.13493086319E+02 -0.49676777321E+02  0.17454425676E+02  0.54515823016E+02  0.41800000000E+01 0.  1.
         -5    1    3    3    0  502  0.82738597811E+02  0.30523171193E+02 -0.16107926948E+02  0.89745625286E+02  0.41800000000E+01 0.  1.
        -11    1    1    2    0    0 -0.49118726351E+02 -0.12065884659E+02 -0.10349629907E+02  0.51627024804E+02  0.00000000000E+00 0.  1.
         11    1    1    2    0    0 -0.20126785141E+02  0.31219490787E+02  0.76698624227E+02  0.85219851229E+02  0.00000000000E+00 0. -1.
</event>
<event>
 7    1  0.2840156E-009  0.1056451E+03  0.7561462E-02  0.1268854E+00
         -1   -1    0    0    0  501 -0.00000000000E+00  0.00000000000E+00  0.15069366116E+03  0.15069366116E+03  0.00000000000E+00 0.  1.
          1   -1    0    0  501    0  0.00000000000E+00 -0.00000000000E+00 -0.11436974375E+03  0.11436974375E+03  0.00000000000E+00 0. -1.
         25    2    1    2    0    0  0.63308035325E+02  0.76436920318E+01  0.55522418919E+02  0.15098057080E+03  0.12508421320E+03 0.  0.
          5    1    3    3  502    0 -0.61850659433E+01 -0.22223937664E+02  0.70028896492E+02  0.73849016175E+02  0.41800000000E+01 0. -1.
         -5    1    3    3    0  502  0.69493101268E+02  0.29867629696E+02 -0.14506477573E+02  0.77131554626E+02  0.41800000000E+01 0. -1.
        -11    1    1    2    0    0 -0.65782473230E+02 -0.41738324198E+02 -0.90883839903E+01  0.78434815068E+02  0.00000000000E+00 0.  1.
         11    1    1    2    0    0  0.24744379055E+01  0.34094632167E+02 -0.10110117510E+02  0.35648019042E+02  0.00000000000E+00 0. -1.
</event>
<event>
 7    1  0.2840156E-009  0.1095816E+03  0.7561462E-02  0.1261347E+00
         -1   -1    0    0    0  501 -0.00000000000E+00  0.00000000000E+00  0.59273366614E+02  0.59273366614E+02  0.00000000000E+00 0.  1.
          1   -1    0    0  501    0  0.00000000000E+00 -0.00000000000E+00 -0.30526612748E+03  0.30526612748E+03  0.00000000000E+00 0. -1.
         25    2    1    2    0    0 -0.63634079149E+02 -0.48027031491E+02 -0.13244187908E+03  0.19885923535E+03  0.12509297489E+03 0.  0.
          5    1    3    3  502    0 -0.73848140714E+02 -0.48065578735E+02 -0.26164461198E+02  0.92010321028E+02  0.41800000000E+01 0.  1.
         -5    1    3    3    0  502  0.10214061564E+02  0.38547243758E-01 -0.10627741789E+03  0.10684891432E+03  0.41800000000E+01 0.  1.
        -11    1    1    2    0    0  0.84627605267E+01  0.62344446506E+02 -0.68655162001E+02  0.93123464257E+02  0.00000000000E+00 0. -1.
         11    1    1    2    0    0  0.55171318623E+02 -0.14317415015E+02 -0.44895719777E+02  0.72556794483E+02  0.00000000000E+00 0.  1.
</event>
<event>
 7    1  0.2840156E-009  0.8576810E+02  0.7561462E-02  0.1313436E+00
          1   -1    0    0  501    0  0.00000000000E+00  0.00000000000E+00  0.13705674697E+03  0.13705674697E+03  0.00000000000E+00 0. -1.
         -1   -1    0    0    0  501 -0.00000000000E+00 -0.00000000000E+00 -0.11670807390E+03  0.11670807390E+03  0.00000000000E+00 0.  1.
         25    2    1    2    0    0  0.64262034609E+02  0.99674273594E+01  0.34137284201E+01  0.14102723749E+03  0.12509224385E+03 0.  0.
          5    1    3    3  502    0  0.53001013225E+02 -0.30134796778E+02  0.49589036304E+02  0.78700433933E+02  0.41800000000E+01 0. -1.
         -5    1    3    3    0  502  0.11261021384E+02  0.40102224137E+02 -0.46175307884E+02  0.62326803556E+02  0.41800000000E+01 0. -1.
        -11    1    1    2    0    0 -0.48907680907E+02 -0.16858572202E+02  0.52305889199E+02  0.73566831883E+02  0.00000000000E+00 0. -1.
         11    1    1    2    0    0 -0.15354353702E+02  0.68911448429E+01 -0.35370944545E+02  0.39170751497E+02  0.00000000000E+00 0.  1.
</event>
<event>
 7    1  0.2840156E-009  0.1464455E+03  0.7561462E-02  0.1204910E+00
         -2   -1    0    0    0  501 -0.00000000000E+00  0.00000000000E+00  0.14281972062E+03  0.14281972062E+03  0.00000000000E+00 0. -1.
          2   -1    0    0  501    0  0.00000000000E+00 -0.00000000000E+00 -0.27143200136E+03  0.27143200136E+03  0.00000000000E+00 0.  1.
         25    2    1    2    0    0  0.73244224886E+02 -0.10305024464E+03 -0.17867624298E+03  0.25210354975E+03  0.12508769160E+03 0.  0.
          5    1    3    3  502    0  0.18490858157E+02  0.30629943311E+01 -0.11523724249E+03  0.11682631650E+03  0.41800000000E+01 0. -1.
         -5    1    3    3    0  502  0.54753366729E+02 -0.10611323897E+03 -0.63439000494E+02  0.13527723325E+03  0.41800000000E+01 0. -1.
        -11    1    1    2    0    0 -0.31111307893E+02 -0.10704317787E+02  0.96690165583E+01  0.34292649057E+02  0.00000000000E+00 0.  1.
         11    1    1    2    0    0 -0.42132916993E+02  0.11375456243E+03  0.40394945692E+02  0.12785552317E+03  0.00000000000E+00 0. -1.
</event>
<event>
 7    1  0.2840156E-009  0.1127797E+03  0.7561462E-02  0.1255507E+00
          1   -1    0    0  501    0  0.00000000000E+00  0.00000000000E+00  0.34182153372E+03  0.34182153372E+03  0.00000000000E+00 0. -1.
         -1   -1    0    0    0  501 -0.00000000000E+00 -0.00000000000E+00 -0.44945008747E+02  0.44945008747E+02  0.00000000000E+00 0.  1.
         25    2    1    2    0    0 -0.34818249979E+01 -0.49413332264E+02  0.18793014065E+03  0.23112543659E+03  0.12508968448E+03 0.  0.
          5    1    3    3  502    0  0.21012281965E+02  0.32537793888E+02  0.10467666637E+03  0.11169109591E+03  0.41800000000E+01 0.  1.
         -5    1    3    3    0  502 -0.24494106962E+02 -0.81951126152E+02  0.83253474283E+02  0.11943434068E+03  0.41800000000E+01 0.  1.
        -11    1    1    2    0    0  0.44554405838E+02  0.13907976906E+02  0.83549484106E+02  0.95702890216E+02  0.00000000000E+00 0. -1.
         11    1    1    2    0    0 -0.41072580840E+02  0.35505355358E+02  0.25396900219E+02  0.59938215662E+02  0.00000000000E+00 0.  1.
</event>
<event>
 7    1  0.2840156E-009  0.7800231E+02  0.7561462E-02  0.1334818E+00
          2   -1    0    0  501    0  0.00000000000E+00  0.00000000000E+00  0.51961006247E+02  0.51961006247E+02  0.00000000000E+00 0. -1.
         -2   -1    0    0    0  501 -0.00000000000E+00 -0.00000000000E+00 -0.25841864493E+03  0.25841864493E+03  0.00000000000E+00 0.  1.
         25    2    1    2    0    0 -0.46688747389E+02  0.23689475568E+01 -0.80884973001E+02  0.15612556381E+03  0.12508941511E+03 0.  0.
          5    1    3    3  502    0 -0.38903881120E+02  0.37167804150E+02 -0.10133306571E+03  0.11480775338E+03  0.41800000000E+01 0. -1.
         -5    1    3    3    0  502 -0.77848662690E+01 -0.34798856593E+02  0.20448092706E+02  0.41317810425E+02  0.41800000000E+01 0. -1.
        -11    1    1    2    0    0 -0.21757461240E+01 -0.15407521305E+02 -0.92560158034E+02  0.93858981665E+02  0.00000000000E+00 0.  1.
         11    1    1    2    0    0  0.48864493513E+02  0.13038573748E+02 -0.33012507650E+02  0.60395105704E+02  0.00000000000E+00 0. -1.
</event>
<event>
 7    1  0.2840156E-009  0.1062265E+03  0.7561462E-02  0.1267722E+00
         -3   -1    0    0    0  501 -0.00000000000E+00  0.00000000000E+00  0.23112135875E+03  0.23112135875E+03  0.00000000000E+00 0.  1.
          3   -1    0    0  501    0  0.00000000000E+00 -0.00000000000E+00 -0.66148619973E+02  0.66148619973E+02  0.00000000000E+00 0. -1.
         25    2    1    2    0    0  0.37030655381E+02  0.16026595152E+02  0.15125017296E+03  0.20038147785E+03  0.12509196880E+03 0.  0.
          5    1    3    3  502    0 -0.39386351932E+02  0.32908989046E+02  0.75470385647E+02  0.91364860796E+02  0.41800000000E+01 0.  1.
         -5    1    3    3    0  502  0.76417007312E+02 -0.16882393894E+02  0.75779787308E+02  0.10901661706E+03  0.41800000000E+01 0.  1.
        -11    1    1    2    0    0 -0.28822354833E+02 -0.44463843084E+02  0.32191803736E+02  0.62000594414E+02  0.00000000000E+00 0.  1.
         11    1    1    2    0    0 -0.82083005478E+01  0.28437247932E+02 -0.18469237913E+02  0.34887906456E+02  0.00000000000E+00 0. -1.
</event>
<event>
 7    1  0.2840156E-009  0.2169930E+03  0.7561462E-02  0.1136145E+00
         -2   -1    0    0    0  501 -0.00000000000E+00  0.00000000000E+00  0.94360822849E+02  0.94360822849E+02  0.00000000000E+00 0.  1.
          2   -1    0    0  501    0  0.00000000000E+00 -0.00000000000E+00 -0.62633899605E+03  0.62633899605E+03  0.00000000000E+00 0. -1.
         25    2    1    2    0    0 -0.95295259231E+02 -0.17505042430E+03 -0.39733686174E+03  0.46178644116E+03  0.12508516323E+03 0.  0.
          5    1    3    3  502    0  0.29988708085E+02 -0.43140246285E+02 -0.10394195099E+03  0.11654100153E+03  0.41800000000E+01 0.  1.
         -5    1    3    3    0  502 -0.12528396732E+03 -0.13191017801E+03 -0.29339491075E+03  0.34524543963E+03  0.41800000000E+01 0.  1.
        -11    1    1    2    0    0  0.33308980153E+02  0.61163441640E+02  0.31380568940E+01  0.69715867298E+02  0.00000000000E+00 0.  1.
         11    1    1    2    0    0  0.61986279079E+02  0.11388698266E+03 -0.13777936835E+03  0.18919751044E+03  0.00000000000E+00 0. -1.
</event>
<event>
 7    1  0.4708077E-009  0.1242809E+03  0.7561462E-02  0.1236197E+00
          1   -1    0    0  501    0  0.00000000000E+00  0.00000000000E+00  0.33784088723E+03  0.33784088723E+03  0.00000000000E+00 0. -1.
         -1   -1    0    0    0  501 -0.00000000000E+00 -0.00000000000E+00 -0.69245418320E+02  0.69245418320E+02  0.00000000000E+00 0.  1.
         25    2    1    2    0    0  0.56694189030E+02 -0.86317826362E+02  0.18244755326E+03  0.24413072744E+03  0.12509078371E+03 0.  0.
          5    1    3    3  502    0  0.41335356384E+01 -0.83754163406E+02  0.17043371124E+03  0.18999202176E+03  0.41800000000E+01 0. -1.
         -5    1    3    3    0  502  0.52560653392E+02 -0.25636629564E+01  0.12013842027E+02  0.54138705683E+02  0.41800000000E+01 0. -1.
        -11    1    1    2    0    0 -0.34076301243E+02  0.15435473071E+02 -0.12457273276E+02  0.39428819318E+02  0.00000000000E+00 0.  1.
         11    1    1    2    0    0 -0.22617887788E+02  0.70882353291E+02  0.98605188925E+02  0.12352675880E+03  0.00000000000E+00 0. -1.
</event>
<event>
 7    1  0.2840156E-009  0.8638688E+02  0.7561462E-02  0.1311845E+00
         -1   -1    0    0    0  501 -0.00000000000E+00  0.00000000000E+00  0.21691920676E+02  0.21691920676E+02  0.00000000000E+00 0.  1.
          1   -1    0    0  501    0  0.00000000000E+00 -0.00000000000E+00 -0.54846907772E+03  0.54846907772E+03  0.00000000000E+00 0. -1.
         25    2    1    2    0    0  0.10214808287E+02 -0.27092168280E+01 -0.35617383144E+03  0.37764757549E+03  0.12508481485E+03 0.  0.
          5    1    3    3  502    0  0.44151242714E+02 -0.16035459054E+02 -0.47977033543E+02  0.67273593094E+02  0.41800000000E+01 0.  1.
         -5    1    3    3    0  502 -0.33936434427E+02  0.13326242226E+02 -0.30819679790E+03  0.31037398240E+03  0.41800000000E+01 0.  1.
        -11    1    1    2    0    0  0.39133611855E+02 -0.29531724045E+01 -0.82914399972E+02  0.91733083055E+02  0.00000000000E+00 0. -1.
         11    1    1    2    0    0 -0.49348420142E+02  0.56623892325E+01 -0.87688925630E+02  0.10078033985E+03  0.00000000000E+00 0.  1.
</event>
<event>
 7    1  0.2840156E-009  0.7394617E+02  0.7561462E-02  0.1347166E+00
          1   -1    0    0  501    0  0.00000000000E+00  0.00000000000E+00  0.17183057729E+03  0.17183057729E+03  0.00000000000E+00 0. -1.
         -1   -1    0    0    0  501 -0.00000000000E+00 -0.00000000000E+00 -0.76384115970E+02  0.76384115970E+02  0.00000000000E+00 0.  1.
         25    2    1    2    0    0  0.26085421727E+02  0.25873623706E+02  0.53432753476E+02  0.14090174884E+03  0.12509336534E+03 0.  0.
          5    1    3    3  502    0 -0.70185423895E+01  0.13968125752E+02  0.89142902077E+02  0.90599657091E+02  0.41800000000E+01 0. -1.
         -5    1    3    3    0  502  0.33103964116E+02  0.11905497954E+02 -0.35710148601E+02  0.50302091754E+02  0.41800000000E+01 0. -1.
        -11    1    1    2    0    0 -0.29203988537E+02 -0.57506694726E+02  0.16555027339E+02  0.66588000533E+02  0.00000000000E+00 0.  1.
         11    1    1    2    0    0  0.31185668106E+01  0.31633071020E+02  0.25458680505E+02  0.40724943882E+02  0.00000000000E+00 0. -1.
</event>
<event>
 7    1  0.2840156E-009  0.1994371E+03  0.7561462E-02  0.1150215E+00
         -2   -1    0    0    0  501 -0.00000000000E+00  0.00000000000E+00  0.24399760333E+03  0.24399760333E+03  0.00000000000E+00 0.  1.
          2   -1    0    0  501    0  0.00000000000E+00 -0.00000000000E+00 -0.23528264605E+03  0.23528264605E+03  0.00000000000E+00 0. -1.
         25    2    1    2    0    0  0.18061141716E+03  0.17715903943E+02 -0.10746374045E+03  0.24521384975E+03  0.12508812629E+03 0.  0.
          5    1    3    3  502    0  0.56265055057E+02 -0.49463207797E+02 -0.59977532719E+02  0.96058014643E+02  0.41800000000E+01 0. -1.
         -5    1    3    3    0  502  0.12434636210E+03  0.67179111739E+02 -0.47486207729E+02  0.14915583511E+03  0.41800000000E+01 0. -1.
        -11    1    1    2    0    0 -0.31855385119E+02 -0.10404475255E+02 -0.13941829138E+02  0.36295912527E+02  0.00000000000E+00 0. -1.
         11    1    1    2    0    0 -0.14875603204E+03 -0.73114286878E+01  0.13012052687E+03  0.19777048710E+03  0.00000000000E+00 0.  1.
</event>
<event>
 7    1  0.2840156E-009  0.1189839E+03  0.7561462E-02  0.1244783E+00
          1   -1    0    0  501    0  0.00000000000E+00  0.00000000000E+00  0.37875938046E+02  0.37875938046E+02  0.00000000000E+00 0. -1.
         -1   -1    0    0    0  501 -0.00000000000E+00 -0.00000000000E+00 -0.43600540203E+03  0.43600540203E+03  0.00000000000E+00 0.  1.
         25    2    1    2    0    0  0.44357552839E+01  0.52800268798E+02 -0.30571359686E+03  0.33453758647E+03  0.12508816551E+03 0.  0.
          5    1    3    3  502    0 -0.56879354423E+02  0.76869752944E+01 -0.16089853156E+03  0.17088054426E+03  0.41800000000E+01 0.  1.
         -5    1    3    3    0  502  0.61315109707E+02  0.45113293503E+02 -0.14481506530E+03  0.16365704222E+03  0.41800000000E+01 0.  1.
        -11    1    1    2    0    0 -0.68725985967E+01 -0.78282147700E+02 -0.66947612099E+02  0.10323424832E+03  0.00000000000E+00 0. -1.
         11    1    1    2    0    0  0.24368433128E+01  0.25481878903E+02 -0.25468255031E+02  0.36109505287E+02  0.00000000000E+00 0.  1.
</event>
<event>
 7    1  0.2840156E-009  0.1310352E+03  0.7561462E-02  0.1225928E+00
          1   -1    0    0  501    0  0.00000000000E+00  0.00000000000E+00  0.11117156298E+03  0.11117156298E+03  0.00000000000E+00 0. -1.
         -1   -1    0    0    0  501 -0.00000000000E+00 -0.00000000000E+00 -0.21402085933E+03  0.21402085933E+03  0.00000000000E+00 0.  1.
         25    2    1    2    0    0  0.97882638193E+02  0.29563536526E+02 -0.12737458126E+03  0.20574602454E+03  0.12510846938E+03 0.  0.
          5    1    3    3  502    0  0.85025932281E+02 -0.27619151290E+02 -0.11496011827E+03  0.14568983448E+03  0.41800000000E+01 0. -1.
         -5    1    3    3    0  502  0.12856705912E+02  0.57182687816E+02 -0.12414462994E+02  0.60056190058E+02  0.41800000000E+01 0. -1.
        -11    1    1    2    0    0 -0.82131200416E+02 -0.21043179055E+01  0.51237775670E+01  0.82317770452E+02  0.00000000000E+00 0.  1.
         11    1    1    2    0    0 -0.15751437777E+02 -0.27459218620E+02  0.19401507350E+02  0.37128627321E+02  0.00000000000E+00 0. -1.
</event>
<event>
 7    1  0.2840156E-009  0.2721932E+03  0.7561462E-02  0.1100031E+00
          2   -1    0    0  501    0  0.00000000000E+00  0.00000000000E+00  0.14496645003E+03  0.14496645003E+03  0.00000000000E+00 0. -1.
         -2   -1    0    0    0  501 -0.00000000000E+00 -0.00000000000E+00 -0.61847943008E+03  0.61847943008E+03  0.00000000000E+00 0.  1.
         25    2    1    2    0    0 -0.23778161930E+03  0.99593654951E+02 -0.10664064950E+03  0.30574005675E+03  0.12508301081E+03 0.  0.
          5    1    3    3  502    0 -0.22709604971E+03  0.54523052005E+02 -0.11176872078E+03  0.25894999196E+03  0.41800000000E+01 0.  1.
         -5    1    3    3    0  502 -0.10685569587E+02  0.45070602946E+02  0.51280712853E+01  0.46790064783E+02  0.41800000000E+01 0.  1.
        -11    1    1    2    0    0  0.87667262689E+02 -0.70659408451E+01 -0.18246110673E+03  0.20255254118E+03  0.00000000000E+00 0.  1.
         11    1    1    2    0    0  0.15011435661E+03 -0.92527714106E+02 -0.18441122383E+03  0.25515328218E+03  0.00000000000E+00 0. -1.
</event>
<event>
 7    1  0.2840156E-009  0.6956849E+02  0.7561462E-02  0.1361567E+00
         -2   -1    0    0    0  501 -0.00000000000E+00  0.00000000000E+00  0.48109907507E+02  0.48109907507E+02  0.00000000000E+00 0.  1.
          2   -1    0    0  501    0  0.00000000000E+00 -0.00000000000E+00 -0.30178829921E+03  0.30178829921E+03  0.00000000000E+00 0. -1.
         25    2    1    2    0    0  0.43412822162E+02 -0.20739345553E+01 -0.18722229451E+03  0.22931977442E+03  0.12508555889E+03 0.  0.
          5    1    3    3  502    0  0.58246351070E+02  0.30088624868E+01 -0.20731469505E+02  0.62039962075E+02  0.41800000000E+01 0.  1.
         -5    1    3    3    0  502 -0.14833528908E+02 -0.50827970421E+01 -0.16649082501E+03  0.16727981234E+03  0.41800000000E+01 0.  1.
        -11    1    1    2    0    0 -0.52113748938E+02  0.95288702395E+01  0.16623043356E+00  0.52978012694E+02  0.00000000000E+00 0.  1.
         11    1    1    2    0    0  0.87009267761E+01 -0.74549356842E+01 -0.66622327624E+02  0.67600419606E+02  0.00000000000E+00 0. -1.
</event>
<event>
 7    1  0.2840156E-009  0.1111605E+03  0.7561462E-02  0.1258436E+00
          1   -1    0    0  501    0  0.00000000000E+00  0.00000000000E+00  0.15478350121E+04  0.15478350121E+04  0.00000000000E+00 0. -1.
         -1   -1    0    0    0  501 -0.00000000000E+00 -0.00000000000E+00 -0.18447511536E+02  0.18447511536E+02  0.00000000000E+00 0.  1.
         25    2    1    2    0    0 -0.39503478631E+02 -0.19750006624E+02  0.13865647983E+04  0.13928964826E+04  0.12509230113E+03 0.  0.
          5    1    3    3  502    0 -0.75892860208E+02 -0.44848051093E+02  0.92806460343E+03  0.93225128289E+03  0.41800000000E+01 0.  1.
         -5    1    3    3    0  502  0.36389381577E+02  0.25098044469E+02  0.45850019486E+03  0.46064519971E+03  0.41800000000E+01 0.  1.
        -11    1    1    2    0    0  0.55997730343E+02  0.35951869766E+02  0.13206936759E+03  0.14788712114E+03  0.00000000000E+00 0.  1.
         11    1    1    2    0    0 -0.16494251712E+02 -0.16201863142E+02  0.10753334680E+02  0.25498919890E+02  0.00000000000E+00 0. -1.
</event>
<event>
 7    1  0.2840156E-009  0.7964941E+02  0.7561462E-02  0.1330049E+00
         -1   -1    0    0    0  501 -0.00000000000E+00  0.00000000000E+00  0.30238938262E+02  0.30238938262E+02  0.00000000000E+00 0.  1.
          1   -1    0    0  501    0  0.00000000000E+00 -0.00000000000E+00 -0.40859577426E+03  0.40859577426E+03  0.00000000000E+00 0. -1.
         25    2    1    2    0    0  0.14110596358E+02 -0.12497011325E+01 -0.17936391254E+03  0.21913732914E+03  0.12509630378E+03 0.  0.
          5    1    3    3  502    0 -0.56969154105E+01 -0.38891189947E+02 -0.17109918752E+03  0.17560576264E+03  0.41800000000E+01 0. -1.
         -5    1    3    3    0  502  0.19807511768E+02  0.37641488815E+02 -0.82647250184E+01  0.43531566504E+02  0.41800000000E+01 0. -1.
        -11    1    1    2    0    0 -0.44002529312E+02 -0.99439014947E+01 -0.17223926905E+03  0.17804906505E+03  0.00000000000E+00 0. -1.
         11    1    1    2    0    0  0.29891932955E+02  0.11193602627E+02 -0.26753654411E+02  0.41648318332E+02  0.00000000000E+00 0.  1.
</event>
<event>
 7    1  0.2840156E-009  0.1069164E+03  0.7561462E-02  0.1266389E+00
          2   -1    0    0  501    0  0.00000000000E+00  0.00000000000E+00  0.10025929890E+04  0.10025929890E+04  0.00000000000E+00 0. -1.
         -2   -1    0    0    0  501 -0.00000000000E+00 -0.00000000000E+00 -0.15054175592E+02  0.15054175592E+02  0.00000000000E+00 0.  1.
         25    2    1    2    0    0  0.12440185742E+02  0.47165450141E+02  0.66343259247E+03  0.67688223395E+03  0.12508963176E+03 0.  0.
          5    1    3    3  502    0  0.68509331772E+02  0.20109365629E+02  0.37842609338E+03  0.38512555832E+03  0.41800000000E+01 0. -1.
         -5    1    3    3    0  502 -0.56069146030E+02  0.27056084511E+02  0.28500649910E+03  0.29175667563E+03  0.41800000000E+01 0. -1.
        -11    1    1    2    0    0 -0.30334376868E+02 -0.94230969080E+00  0.30581602776E+02  0.43084762920E+02  0.00000000000E+00 0.  1.
         11    1    1    2    0    0  0.17894191126E+02 -0.46223140450E+02  0.29352461812E+03  0.29768016769E+03  0.00000000000E+00 0. -1.
</event>
<event>
 7    1  0.2840156E-009  0.1059490E+03  0.7561462E-02  0.1268261E+00
          1   -1    0    0  501    0  0.00000000000E+00  0.00000000000E+00  0.17026840203E+03  0.17026840203E+03  0.00000000000E+00 0. -1.
         -1   -1    0    0    0  501 -0.00000000000E+00 -0.00000000000E+00 -0.98566832759E+02  0.98566832759E+02  0.00000000000E+00 0.  1.
         25    2    1    2    0    0  0.67432713883E+02  0.97822290362E+01  0.61632951896E+02  0.15520731127E+03  0.12509126990E+03 0.  0.
          5    1    3    3  502    0  0.10068675650E+03  0.26688916846E+02  0.38592929225E+02  0.11116207898E+03  0.41800000000E+01 0. -1.
         -5    1    3    3    0  502 -0.33254042613E+02 -0.16906687810E+02  0.23040022671E+02  0.44045232290E+02  0.41800000000E+01 0. -1.
        -11    1    1    2    0    0 -0.51398469741E+02 -0.14487614024E+02  0.48237015978E+02  0.71961818781E+02  0.00000000000E+00 0. -1.
         11    1    1    2    0    0 -0.16034244142E+02  0.47053849873E+01 -0.38168398599E+02  0.41666104745E+02  0.00000000000E+00 0.  1.
</event>
<event>
 7    1  0.2840156E-009  0.1255697E+03  0.7561462E-02  0.1234182E+00
          1   -1    0    0  501    0  0.00000000000E+00  0.00000000000E+00  0.13095825099E+03  0.13095825099E+03  0.00000000000E+00 0. -1.
         -1   -1    0    0    0  501 -0.00000000000E+00 -0.00000000000E+00 -0.17084282343E+03  0.17084282343E+03  0.00000000000E+00 0.  1.
         25    2    1    2    0    0  0.89149837191E+02 -0.41529326708E+02 -0.53252845294E+02  0.16779667431E+03  0.12508988739E+03 0.  0.
          5    1    3    3  502    0  0.11500432434E+03 -0.47744416971E+02 -0.62430332354E+02  0.13935760749E+03  0.41800000000E+01 0.  1.
         -5    1    3    3    0  502 -0.25854487145E+02  0.62150902622E+01  0.91774870596E+01  0.28439066814E+02  0.41800000000E+01 0.  1.
        -11    1    1    2    0    0 -0.77077886899E+02  0.29334764630E+02 -0.29690088452E+02  0.87652897368E+02  0.00000000000E+00 0.  1.
         11    1    1    2    0    0 -0.12071950291E+02  0.12194562079E+02  0.43058361305E+02  0.46351502741E+02  0.00000000000E+00 0. -1.
</event>
<event>
 7    1  0.2840156E-009  0.1053897E+03  0.7561462E-02  0.1269354E+00
          2   -1    0    0  501    0  0.00000000000E+00  0.00000000000E+00  0.51076175732E+03  0.51076175732E+03  0.00000000000E+00 0. -1.
         -2   -1    0    0    0  501 -0.00000000000E+00 -0.00000000000E+00 -0.42718319112E+02  0.42718319112E+02  0.00000000000E+00 0.  1.
         25    2    1    2    0    0  0.12537696556E+02 -0.82906336316E+02  0.16583686335E+03  0.22400767379E+03  0.12508764221E+03 0.  0.
          5    1    3    3  502    0 -0.12514081373E+02 -0.37613098997E+02 -0.96395262674E+01  0.41009027243E+02  0.41800000000E+01 0.  1.
         -5    1    3    3    0  502  0.25051777929E+02 -0.45293237319E+02  0.17547638962E+03  0.18299864654E+03  0.41800000000E+01 0.  1.
        -11    1    1    2    0    0  0.32402545928E+02  0.11042642196E+02  0.34226815983E+02  0.48408055751E+02  0.00000000000E+00 0.  1.
         11    1    1    2    0    0 -0.44940242484E+02  0.71863694119E+02  0.26797975888E+03  0.28106434690E+03  0.00000000000E+00 0. -1.
</event>
<event>
 7    1  0.2840156E-009  0.1211576E+03  0.7561462E-02  0.1241199E+00
         -2   -1    0    0    0  501 -0.00000000000E+00  0.00000000000E+00  0.16514616178E+02  0.16514616178E+02  0.00000000000E+00 0.  1.
          2   -1    0    0  501    0  0.00000000000E+00 -0.00000000000E+00 -0.97067304772E+03  0.97067304772E+03  0.00000000000E+00 0. -1.
         25    2    1    2    0    0 -0.29825383319E+02 -0.47446221703E+02 -0.65900526589E+03  0.67310981951E+03  0.12509273046E+03 0.  0.
          5    1    3    3  502    0  0.31284904159E+02  0.24958331758E+02 -0.25264545879E+03  0.25582975550E+03  0.41800000000E+01 0.  1.
         -5    1    3    3    0  502 -0.61110287478E+02 -0.72404553461E+02 -0.40635980709E+03  0.41728006401E+03  0.41800000000E+01 0.  1.
        -11    1    1    2    0    0 -0.13872224509E+02  0.60151938030E+02 -0.17769555766E+03  0.18811274670E+03  0.00000000000E+00 0.  1.
         11    1    1    2    0    0  0.43697607829E+02 -0.12705716327E+02 -0.11745760800E+03  0.12596509768E+03  0.00000000000E+00 0. -1.
</event>
<event>
 7    1  0.2840156E-009  0.1023532E+03  0.7561462E-02  0.1275424E+00
          2   -1    0    0  501    0  0.00000000000E+00  0.00000000000E+00  0.47939167664E+02  0.47939167664E+02  0.00000000000E+00 0. -1.
         -2   -1    0    0    0  501 -0.00000000000E+00 -0.00000000000E+00 -0.25043399602E+03  0.25043399602E+03  0.00000000000E+00 0.  1.
         25    2    1    2    0    0 -0.17741046721E+02  0.75094991287E+01 -0.10903085801E+03  0.16705433106E+03  0.12509310218E+03 0.  0.
          5    1    3    3  502    0  0.22505181407E+02  0.49447486869E+02 -0.90977121443E+02  0.10604643405E+03  0.41800000000E+01 0. -1.
         -5    1    3    3    0  502 -0.40246228128E+02 -0.41937987740E+02 -0.18053736568E+02  0.61007897016E+02  0.41800000000E+01 0. -1.
        -11    1    1    2    0    0  0.54610871894E+02 -0.70980100044E+01 -0.61130247327E+02  0.82277799031E+02  0.00000000000E+00 0. -1.
         11    1    1    2    0    0 -0.36869825173E+02 -0.41148912431E+00 -0.32333723021E+02  0.49041033595E+02  0.00000000000E+00 0.  1.
</event>
<event>
 7    1  0.2840156E-009  0.9259258E+02  0.7561462E-02  0.1296692E+00
         -3   -1    0    0    0  501 -0.00000000000E+00  0.00000000000E+00  0.33068730234E+02  0.33068730234E+02  0.00000000000E+00 0.  1.
          3   -1    0    0  501    0  0.00000000000E+00 -0.00000000000E+00 -0.53387569833E+03  0.53387569833E+03  0.00000000000E+00 0. -1.
         25    2    1    2    0    0 -0.70913902334E+02 -0.63311619266E+01 -0.20085950253E+03  0.24710959508E+03  0.12509894911E+03 0.  0.
          5    1    3    3  502    0 -0.37179624240E+02 -0.17865179214E+02  0.16013255919E+01  0.41491272946E+02  0.41800000000E+01 0. -1.
         -5    1    3    3    0  502 -0.33734278094E+02  0.11534017288E+02 -0.20246082813E+03  0.20561832214E+03  0.41800000000E+01 0. -1.
        -11    1    1    2    0    0  0.22038316774E+02 -0.36634924384E+02 -0.83387527756E+02  0.93708510158E+02  0.00000000000E+00 0.  1.
         11    1    1    2    0    0  0.48875585560E+02  0.42966086311E+02 -0.21655993781E+03  0.22612632332E+03  0.00000000000E+00 0. -1.
</event>
<event>
 7    1  0.2840156E-009  0.3153391E+03  0.7561462E-02  0.1077815E+00
         -2   -1    0    0    0  501 -0.00000000000E+00  0.00000000000E+00  0.49088035693E+02  0.49088035693E+02  0.00000000000E+00 0.  1.
          2   -1    0    0  501    0  0.00000000000E+00 -0.00000000000E+00 -0.23675474753E+04  0.23675474753E+04  0.00000000000E+00 0. -1.
         25    2    1    2    0    0 -0.30896341080E+03 -0.57613481530E+02 -0.14277874869E+04  0.14673107108E+04  0.12508361955E+03 0.  0.
          5    1    3    3  502    0 -0.79469646950E+02 -0.70704984886E+01 -0.17109476621E+03  0.18882878000E+03  0.41800000000E+01 0. -1.
         -5    1    3    3    0  502 -0.22949376385E+03 -0.50542983041E+02 -0.12566927207E+04  0.12784819308E+04  0.41800000000E+01 0. -1.
        -11    1    1    2    0    0  0.33980255143E+02 -0.31883894906E+01 -0.36715426134E+02  0.50128296234E+02  0.00000000000E+00 0.  1.
         11    1    1    2    0    0  0.27498315566E+03  0.60801871020E+02 -0.85395652658E+03  0.89919650394E+03  0.00000000000E+00 0. -1.
</event>
<event>
 7    1  0.2840156E-009  0.9905857E+02  0.7561462E-02  0.1282288E+00
         -1   -1    0    0    0  501 -0.00000000000E+00  0.00000000000E+00  0.38928223315E+02  0.38928223315E+02  0.00000000000E+00 0.  1.
          1   -1    0    0  501    0  0.00000000000E+00 -0.00000000000E+00 -0.31244777835E+03  0.31244777835E+03  0.00000000000E+00 0. -1.
         25    2    1    2    0    0  0.16888500678E+02  0.12386301482E+02 -0.16053001842E+03  0.20458467526E+03  0.12508541329E+03 0.  0.
          5    1    3    3  502    0  0.27417040549E+02 -0.41226841025E+02 -0.19665450067E+02  0.53437335822E+02  0.41800000000E+01 0.  1.
         -5    1    3    3    0  502 -0.10528539871E+02  0.53613142507E+02 -0.14086456835E+03  0.15114733943E+03  0.41800000000E+01 0.  1.
        -11    1    1    2    0    0 -0.13593062670E+02  0.39432493735E+02 -0.47439100625E+02  0.63167722636E+02  0.00000000000E+00 0. -1.
         11    1    1    2    0    0 -0.32954380074E+01 -0.51818795217E+02 -0.65550435994E+02  0.83623603776E+02  0.00000000000E+00 0.  1.
</event>
<event>
 7    1  0.2840156E-009  0.8968693E+02  0.7561462E-02  0.1303612E+00
          2   -1    0    0  501    0  0.00000000000E+00  0.00000000000E+00  0.11072924116E+04  0.11072924116E+04  0.00000000000E+00 0. -1.
         -2   -1    0    0    0  501 -0.00000000000E+00 -0.00000000000E+00 -0.18375231824E+02  0.18375231824E+02  0.00000000000E+00 0.  1.
         25    2    1    2    0    0  0.11531922263E+02 -0.78777471051E+02  0.81812567874E+03  0.83145420917E+03  0.12509036959E+03 0.  0.
          5    1    3    3  502    0  0.67283648431E+01 -0.22086251379E+02  0.69879044655E+03  0.69918426326E+03  0.41800000000E+01 0. -1.
         -5    1    3    3    0  502  0.48035574199E+01 -0.56691219672E+02  0.11933523219E+03  0.13226994592E+03  0.41800000000E+01 0. -1.
        -11    1    1    2    0    0 -0.26331336739E+02  0.94543677714E+01  0.22205870011E+02  0.35718692968E+02  0.00000000000E+00 0.  1.
         11    1    1    2    0    0  0.14799414476E+02  0.69323103279E+02  0.24858563098E+03  0.25849474124E+03  0.00000000000E+00 0. -1.
</event>
<event>
 7    1  0.2840156E-009  0.9027613E+02  0.7561462E-02  0.1302184E+00
          4   -1    0    0  501    0  0.00000000000E+00  0.00000000000E+00  0.43770728922E+03  0.43770728922E+03  0.00000000000E+00 0. -1.
         -4   -1    0    0    0  501 -0.00000000000E+00 -0.00000000000E+00 -0.36866907592E+02  0.36866907592E+02  0.00000000000E+00 0.  1.
         25    2    1    2    0    0  0.96423133027E+01  0.56130620372E+02  0.16445976765E+03  0.21433589077E+03  0.12509691502E+03 0.  0.
          5    1    3    3  502    0 -0.39032672911E+02  0.43757655055E+02  0.15119756803E+03  0.16222348445E+03  0.41800000000E+01 0.  1.
         -5    1    3    3    0  502  0.48674986213E+02  0.12372965317E+02  0.13262199626E+02  0.52112406320E+02  0.41800000000E+01 0.  1.
        -11    1    1    2    0    0  0.17151939277E+02 -0.24653899378E+02  0.12428794062E+02  0.32503518230E+02  0.00000000000E+00 0.  1.
         11    1    1    2    0    0 -0.26794252580E+02 -0.31476720994E+02  0.22395181991E+03  0.22773478781E+03  0.00000000000E+00 0. -1.
</event>
<event>
 7    1  0.2840156E-009  0.1079831E+03  0.7561462E-02  0.1264351E+00
          1   -1    0    0  501    0  0.00000000000E+00  0.00000000000E+00  0.39964011305E+03  0.39964011305E+03  0.00000000000E+00 0. -1.
         -1   -1    0    0    0  501 -0.00000000000E+00 -0.00000000000E+00 -0.33901010262E+02  0.33901010262E+02  0.00000000000E+00 0.  1.
         25    2    1    2    0    0 -0.10702550057E+01  0.23621916736E+02  0.27269158557E+03  0.30094335370E+03  0.12508821247E+03 0.  0.
          5    1    3    3  502    0  0.16837636340E+02 -0.46254814421E+02  0.69357180526E+02  0.85152244510E+02  0.41800000000E+01 0.  1.
         -5    1    3    3    0  502 -0.17907891346E+02  0.69876731157E+02  0.20333440505E+03  0.21579110919E+03  0.41800000000E+01 0.  1.
        -11    1    1    2    0    0  0.25205027346E+02  0.27787710504E+02  0.33273640239E+02  0.50145641818E+02  0.00000000000E+00 0. -1.
         11    1    1    2    0    0 -0.24134772341E+02 -0.51409627240E+02  0.59773876969E+02  0.82452127788E+02  0.00000000000E+00 0.  1.
</event>
<event>
 7    1  0.2840156E-009  0.1110033E+03  0.7561462E-02  0.1258723E+00
          2   -1    0    0  501    0  0.00000000000E+00  0.00000000000E+00  0.73503444247E+02  0.73503444247E+02  0.00000000000E+00 0. -1.
         -2   -1    0    0    0  501 -0.00000000000E+00 -0.00000000000E+00 -0.19482202534E+03  0.19482202534E+03  0.00000000000E+00 0.  1.
         25    2    1    2    0    0  0.15384187535E+02  0.23401118132E+02 -0.11601399151E+03  0.17288929655E+03  0.12508867686E+03 0.  0.
          5    1    3    3  502    0  0.60669184876E+02  0.45855216223E+02 -0.57356143525E+02  0.95344902582E+02  0.41800000000E+01 0. -1.
         -5    1    3    3    0  502 -0.45284997341E+02 -0.22454098091E+02 -0.58657847990E+02  0.77544393969E+02  0.41800000000E+01 0. -1.
        -11    1    1    2    0    0 -0.81587186183E+01 -0.58613215418E+02 -0.57945363618E+00  0.59181158130E+02  0.00000000000E+00 0.  1.
         11    1    1    2    0    0 -0.72254689165E+01  0.35212097286E+02 -0.47251359455E+01  0.36255014909E+02  0.00000000000E+00 0. -1.
</event>
<event>
 7    1  0.2840156E-009  0.1178595E+03  0.7561462E-02  0.1246671E+00
          1   -1    0    0  501    0  0.00000000000E+00  0.00000000000E+00  0.10385871764E+04  0.10385871764E+04  0.00000000000E+00 0. -1.
         -1   -1    0    0    0  501 -0.00000000000E+00 -0.00000000000E+00 -0.29186113495E+02  0.29186113495E+02  0.00000000000E+00 0.  1.
         25    2    1    2    0    0 -0.55216424278E+02  0.60671171204E+02  0.87412555418E+03  0.88683337697E+03  0.12509240387E+03 0.  0.
          5    1    3    3  502    0 -0.91835368470E+02  0.20182153290E+02  0.59347554272E+03  0.60089245828E+03  0.41800000000E+01 0.  1.
         -5    1    3    3    0  502  0.36618944193E+02  0.40489017914E+02  0.28065001146E+03  0.28594091869E+03  0.41800000000E+01 0.  1.
        -11    1    1    2    0    0  0.35293275073E+02 -0.17701787249E+02  0.20402327963E+01  0.39536452637E+02  0.00000000000E+00 0.  1.
         11    1    1    2    0    0  0.19923149204E+02 -0.42969383955E+02  0.13323527598E+03  0.14140346034E+03  0.00000000000E+00 0. -1.
</event>
<event>
 7    1  0.2840156E-009  0.1046992E+03  0.7561462E-02  0.1270713E+00
          4   -1    0    0  501    0  0.00000000000E+00  0.00000000000E+00  0.33028928751E+02  0.33028928751E+02  0.00000000000E+00 0. -1.
         -4   -1    0    0    0  501 -0.00000000000E+00 -0.00000000000E+00 -0.52361932474E+03  0.52361932474E+03  0.00000000000E+00 0.  1.
         25    2    1    2    0    0 -0.23546420824E+02 -0.65393862444E+02 -0.17223678574E+03  0.22392898753E+03  0.12509152616E+03 0.  0.
          5    1    3    3  502    0 -0.19102071662E+02 -0.89303309909E+02 -0.60795678344E+02  0.10978869344E+03  0.41800000000E+01 0. -1.
         -5    1    3    3    0  502 -0.44443491621E+01  0.23909447465E+02 -0.11144110740E+03  0.11414029409E+03  0.41800000000E+01 0. -1.
        -11    1    1    2    0    0 -0.16004371916E+02 -0.98572190887E+00 -0.95821938238E+02  0.97154286657E+02  0.00000000000E+00 0.  1.
         11    1    1    2    0    0  0.39550792740E+02  0.66379584353E+02 -0.22253167202E+03  0.23556497931E+03  0.00000000000E+00 0. -1.
</event>
<event>
 7    1  0.2840156E-009  0.8976399E+02  0.7561462E-02  0.1303424E+00
         -2   -1    0    0    0  501 -0.00000000000E+00  0.00000000000E+00  0.55571327171E+02  0.55571327171E+02  0.00000000000E+00 0.  1.
          2   -1    0    0  501    0  0.00000000000E+00 -0.00000000000E+00 -0.28955035475E+03  0.28955035475E+03  0.00000000000E+00 0. -1.
         25    2    1    2    0    0 -0.27912947348E+02  0.55971395460E+02 -0.98877379863E+02  0.17126724906E+03  0.12507519583E+03 0.  0.
          5    1    3    3  502    0 -0.14537374740E+02 -0.21672285273E+02  0.16747498255E+02  0.31288565181E+02  0.41800000000E+01 0.  1.
         -5    1    3    3    0  502 -0.13375572608E+02  0.77643680733E+02 -0.11562487812E+03  0.13997868388E+03  0.41800000000E+01 0.  1.
        -11    1    1    2    0    0  0.10502826639E+02  0.43865172179E+01  0.10370713779E+02  0.15398136413E+02  0.00000000000E+00 0.  1.
         11    1    1    2    0    0  0.17410120710E+02 -0.60357912677E+02 -0.14547236150E+03  0.15845629645E+03  0.00000000000E+00 0. -1.
</event>
<event>
 7    1  0.2840156E-009  0.1491808E+03  0.7561462E-02  0.1201483E+00
         -1   -1    0    0    0  501 -0.00000000000E+00  0.00000000000E+00  0.46872723263E+02  0.46872723263E+02  0.00000000000E+00 0.  1.
          1   -1    0    0  501    0  0.00000000000E+00 -0.00000000000E+00 -0.58379131917E+03  0.58379131917E+03  0.00000000000E+00 0. -1.
         25    2    1    2    0    0  0.10447810622E+03  0.56544398309E+02 -0.33795617566E+03  0.37943870425E+03  0.12508561050E+03 0.  0.
          5    1    3    3  502    0  0.86651152443E+02 -0.22610269631E+02 -0.20299557982E+03  0.22191062242E+03  0.41800000000E+01 0.  1.
         -5    1    3    3    0  502  0.17826953777E+02  0.79154667939E+02 -0.13496059584E+03  0.15752808183E+03  0.41800000000E+01 0.  1.
        -11    1    1    2    0    0 -0.56926440130E+02 -0.47039113169E+01 -0.16196700010E+03  0.17174415707E+03  0.00000000000E+00 0. -1.
         11    1    1    2    0    0 -0.47551666090E+02 -0.51840486992E+02 -0.36995420153E+02  0.79481181117E+02  0.00000000000E+00 0.  1.
</event>
<event>
 7    1  0.2840156E-009  0.9057399E+02  0.7561462E-02  0.1301468E+00
         -1   -1    0    0    0  501 -0.00000000000E+00  0.00000000000E+00  0.57982808740E+02  0.57982808740E+02  0.00000000000E+00 0.  1.
          1   -1    0    0  501    0  0.00000000000E+00 -0.00000000000E+00 -0.24896817748E+03  0.24896817748E+03  0.00000000000E+00 0. -1.
         25    2    1    2    0    0 -0.18885268762E+01 -0.19116592266E+02 -0.16705017078E+03  0.20957812103E+03  0.12509284002E+03 0.  0.
          5    1    3    3  502    0 -0.24859985721E+02 -0.67715609355E+02 -0.10368917309E+03  0.12638172200E+03  0.41800000000E+01 0.  1.
         -5    1    3    3    0  502  0.22971458845E+02  0.48599017090E+02 -0.63360997686E+02  0.83196399029E+02  0.41800000000E+01 0.  1.
        -11    1    1    2    0    0  0.18714022037E+02  0.29695594190E+02 -0.52149061583E+02  0.62861495044E+02  0.00000000000E+00 0. -1.
         11    1    1    2    0    0 -0.16825495161E+02 -0.10579001925E+02  0.28213863618E+02  0.34511370147E+02  0.00000000000E+00 0.  1.
</event>
<event>
 7    1  0.2869351E-009  0.1541337E+03  0.7561462E-02  0.1195484E+00
          2   -1    0    0  501    0  0.00000000000E+00  0.00000000000E+00  0.47439813620E+03  0.47439813620E+03  0.00000000000E+00 0. -1.
         -2   -1    0    0    0  501 -0.00000000000E+00 -0.00000000000E+00 -0.60071822615E+02  0.60071822615E+02  0.00000000000E+00 0.  1.
         25    2    1    2    0    0  0.10109875011E+03 -0.75139482337E+02  0.26245611232E+03  0.31685734290E+03  0.12509382789E+03 0.  0.
          5    1    3    3  502    0  0.28211243004E+02 -0.77396003102E+02  0.21362500315E+03  0.22899591677E+03  0.41800000000E+01 0.  1.
         -5    1    3    3    0  502  0.72887507109E+02  0.22565207645E+01  0.48831109175E+02  0.87861426131E+02  0.41800000000E+01 0.  1.
        -11    1    1    2    0    0 -0.20208030542E+02  0.68682959272E+02  0.92969431045E+02  0.11734150375E+03  0.00000000000E+00 0. -1.
         11    1    1    2    0    0 -0.80890719572E+02  0.64565230656E+01  0.58900770220E+02  0.10027111217E+03  0.00000000000E+00 0.  1.
</event>
<event>
 7    1  0.2840156E-009  0.1185852E+03  0.7561462E-02  0.1245450E+00
          1   -1    0    0  501    0  0.00000000000E+00  0.00000000000E+00  0.69210610852E+03  0.69210610852E+03  0.00000000000E+00 0. -1.
         -1   -1    0    0    0  501 -0.00000000000E+00 -0.00000000000E+00 -0.26957485475E+02  0.26957485475E+02  0.00000000000E+00 0.  1.
         25    2    1    2    0    0  0.65313385609E+02 -0.25026164557E+02  0.47894622953E+03  0.49992844241E+03  0.12508720759E+03 0.  0.
          5    1    3    3  502    0  0.62628989512E+02 -0.65391495519E+02  0.40983405797E+03  0.41973785329E+03  0.41800000000E+01 0.  1.
         -5    1    3    3    0  502  0.26843960972E+01  0.40365330962E+02  0.69112171557E+02  0.80190589120E+02  0.41800000000E+01 0.  1.
        -11    1    1    2    0    0 -0.56324098675E+02 -0.20132537229E+02  0.14685293676E+03  0.15856704633E+03  0.00000000000E+00 0. -1.
         11    1    1    2    0    0 -0.89892869342E+01  0.45158701786E+02  0.39349456753E+02  0.60568105248E+02  0.00000000000E+00 0.  1.
</event>
<event>
 7    1  0.2840156E-009  0.1135302E+03  0.7561462E-02  0.1254169E+00
         -2   -1    0    0    0  501 -0.00000000000E+00  0.00000000000E+00  0.11179406903E+03  0.11179406903E+03  0.00000000000E+00 0.  1.
          2   -1    0    0  501    0  0.00000000000E+00 -0.00000000000E+00 -0.13451074543E+03  0.13451074543E+03  0.00000000000E+00 0. -1.
         25    2    1    2    0    0 -0.46488564402E+02  0.41459909961E+02  0.62698966185E+01  0.13987785148E+03  0.12508553464E+03 0.  0.
          5    1    3    3  502    0 -0.17156753984E+02 -0.44968004170E+02  0.41359322544E+01  0.48487667937E+02  0.41800000000E+01 0.  1.
         -5    1    3    3    0  502 -0.29331810418E+02  0.86427914131E+02  0.21339643641E+01  0.91390183539E+02  0.41800000000E+01 0.  1.
        -11    1    1    2    0    0 -0.58156724477E+01 -0.34067293345E+02  0.15011457350E+02  0.37679521940E+02  0.00000000000E+00 0.  1.
         11    1    1    2    0    0  0.52304236850E+02 -0.73926166164E+01 -0.43998030377E+02  0.68747441043E+02  0.00000000000E+00 0. -1.
</event>
<event>
 7    1  0.2840156E-009  0.5853007E+02  0.7561462E-02  0.1404106E+00
         -2   -1    0    0    0  501 -0.00000000000E+00  0.00000000000E+00  0.20281067495E+03  0.20281067495E+03  0.00000000000E+00 0.  1.
          2   -1    0    0  501    0  0.00000000000E+00 -0.00000000000E+00 -0.67329406966E+02  0.67329406966E+02  0.00000000000E+00 0. -1.
         25    2    1    2    0    0 -0.69322591131E+01 -0.42808182324E+02  0.78957953282E+02  0.15415772263E+03  0.12509855463E+03 0.  0.
          5    1    3    3  502    0  0.59790090903E+01  0.20002075694E+00  0.10285871648E+03  0.10311729493E+03  0.41800000000E+01 0.  1.
         -5    1    3    3    0  502 -0.12911268203E+02 -0.43008203081E+02 -0.23900763195E+02  0.51040427703E+02  0.41800000000E+01 0.  1.
        -11    1    1    2    0    0  0.20754542173E+01  0.53174985096E+02 -0.49564597886E+01  0.53445795380E+02  0.00000000000E+00 0. -1.
         11    1    1    2    0    0  0.48568048958E+01 -0.10366802773E+02  0.61479774495E+02  0.62536563908E+02  0.00000000000E+00 0.  1.
</event>
<event>
 7    1  0.2840156E-009  0.1400818E+03  0.7561462E-02  0.1213219E+00
         -2   -1    0    0    0  501 -0.00000000000E+00  0.00000000000E+00  0.13563459062E+02  0.13563459062E+02  0.00000000000E+00 0.  1.
          2   -1    0    0  501    0  0.00000000000E+00 -0.00000000000E+00 -0.19193904968E+04  0.19193904968E+04  0.00000000000E+00 0. -1.
         25    2    1    2    0    0 -0.10414667075E+03  0.91342819396E+01 -0.12831768020E+04  0.12934914330E+04  0.12508963998E+03 0.  0.
          5    1    3    3  502    0 -0.11093343056E+03  0.33092977771E+02 -0.68074121233E+03  0.69052693051E+03  0.41800000000E+01 0. -1.
         -5    1    3    3    0  502  0.67867598150E+01 -0.23958695832E+02 -0.60243558966E+03  0.60296450253E+03  0.41800000000E+01 0. -1.
        -11    1    1    2    0    0  0.78288873122E+02  0.36688239101E+02 -0.47288645709E+03  0.48072526025E+03  0.00000000000E+00 0. -1.
         11    1    1    2    0    0  0.25857797626E+02 -0.45822521041E+02 -0.14976377863E+03  0.15873726255E+03  0.00000000000E+00 0.  1.
</event>
<event>
 7    1  0.2840156E-009  0.1215305E+03  0.7561462E-02  0.1240593E+00
         -2   -1    0    0    0  501 -0.00000000000E+00  0.00000000000E+00  0.23038494870E+03  0.23038494870E+03  0.00000000000E+00 0.  1.
          2   -1    0    0  501    0  0.00000000000E+00 -0.00000000000E+00 -0.89355149211E+02  0.89355149211E+02  0.00000000000E+00 0. -1.
         25    2    1    2    0    0 -0.46108508151E+02 -0.79267596605E+02  0.91533171549E+02  0.18009740037E+03  0.12508959081E+03 0.  0.
          5    1    3    3  502    0 -0.58490760072E+02 -0.32137270128E+02 -0.97956606518E+01  0.67582545918E+02  0.41800000000E+01 0.  1.
         -5    1    3    3    0  502  0.12382251921E+02 -0.47130326476E+02  0.10132883220E+03  0.11251485445E+03  0.41800000000E+01 0.  1.
        -11    1    1    2    0    0 -0.26512824193E+02  0.26744535384E+02  0.85329371335E+00  0.37668662437E+02  0.00000000000E+00 0.  1.
         11    1    1    2    0    0  0.72621332344E+02  0.52523061221E+02  0.48643334226E+02  0.10197403511E+03  0.00000000000E+00 0. -1.
</event>
<event>
 7    1  0.2840156E-009  0.1489171E+03  0.7561462E-02  0.1201810E+00
         -1   -1    0    0    0  501 -0.00000000000E+00  0.00000000000E+00  0.55286370561E+03  0.55286370561E+03  0.00000000000E+00 0.  1.
          1   -1    0    0  501    0  0.00000000000E+00 -0.00000000000E+00 -0.45924579336E+02  0.45924579336E+02  0.00000000000E+00 0. -1.
         25    2    1    2    0    0  0.11447334794E+03  0.11996617237E+02  0.26418230279E+03  0.31414491298E+03  0.12508665407E+03 0.  0.
          5    1    3    3  502    0  0.13495810577E+03  0.50727295897E+01  0.25804831614E+03  0.29128307325E+03  0.41800000000E+01 0.  1.
         -5    1    3    3    0  502 -0.20484757829E+02  0.69238876476E+01  0.61339866530E+01  0.22861839728E+02  0.41800000000E+01 0.  1.
        -11    1    1    2    0    0  0.86973171059E+01  0.12383118128E+02  0.52996447358E+01  0.16033439236E+02  0.00000000000E+00 0. -1.
         11    1    1    2    0    0 -0.12317066505E+03 -0.24379735365E+02  0.23745717874E+03  0.26860993273E+03  0.00000000000E+00 0.  1.
</event>
<event>
 7    1  0.2840156E-009  0.8427018E+02  0.7561462E-02  0.1317352E+00
          3   -1    0    0  501    0  0.00000000000E+00  0.00000000000E+00  0.41812232982E+03  0.41812232982E+03  0.00000000000E+00 0. -1.
         -3   -1    0    0    0  501 -0.00000000000E+00 -0.00000000000E+00 -0.35747719514E+02  0.35747719514E+02  0.00000000000E+00 0.  1.
         25    2    1    2    0    0  0.28339683382E+02  0.19277928686E+02  0.29422191921E+03  0.32154178506E+03  0.12509118915E+03 0.  0.
          5    1    3    3  502    0  0.31854549046E+01  0.43595510982E+02  0.28019798116E+03  0.28361787100E+03  0.41800000000E+01 0.  1.
         -5    1    3    3    0  502  0.25154228478E+02 -0.24317582296E+02  0.14023938050E+02  0.37923914058E+02  0.41800000000E+01 0.  1.
        -11    1    1    2    0    0 -0.52977832554E+02 -0.31765677585E+02  0.84194089385E+02  0.10442391346E+03  0.00000000000E+00 0. -1.
         11    1    1    2    0    0  0.24638149172E+02  0.12487748899E+02  0.39586017055E+01  0.27904350819E+02  0.00000000000E+00 0.  1.
</event>
<event>
 7    1  0.2840156E-009  0.1113962E+03  0.7561462E-02  0.1258006E+00
          3   -1    0    0  501    0  0.00000000000E+00  0.00000000000E+00  0.49078688994E+02  0.49078688994E+02  0.00000000000E+00 0. -1.
         -3   -1    0    0    0  501 -0.00000000000E+00 -0.00000000000E+00 -0.38403464932E+03  0.38403464932E+03  0.00000000000E+00 0.  1.
         25    2    1    2    0    0 -0.81871706575E+02  0.84191903268E+01 -0.19514411904E+03  0.24597334501E+03  0.12509116739E+03 0.  0.
          5    1    3    3  502    0 -0.21077820190E+02 -0.23676059825E+02 -0.16948724868E+03  0.17247675257E+03  0.41800000000E+01 0.  1.
         -5    1    3    3    0  502 -0.60793886385E+02  0.32095250151E+02 -0.25656870357E+02  0.73496592442E+02  0.41800000000E+01 0.  1.
        -11    1    1    2    0    0  0.25243936966E+02  0.40093906696E+02 -0.36900418504E+02  0.60053464458E+02  0.00000000000E+00 0.  1.
         11    1    1    2    0    0  0.56627769609E+02 -0.48513097022E+02 -0.10291142279E+03  0.12708652885E+03  0.00000000000E+00 0. -1.
</event>
<event>
 7    1  0.2840156E-009  0.1170998E+03  0.7561462E-02  0.1247960E+00
          2   -1    0    0  501    0  0.00000000000E+00  0.00000000000E+00  0.64840159715E+03  0.64840159715E+03  0.00000000000E+00 0.  1.
         -2   -1    0    0    0  501 -0.00000000000E+00 -0.00000000000E+00 -0.32058697580E+02  0.32058697580E+02  0.00000000000E+00 0. -1.
         25    2    1    2    0    0  0.49722397820E+02 -0.79638985053E+02  0.33862384858E+03  0.37300523006E+03  0.12510837718E+03 0.  0.
          5    1    3    3  502    0  0.16291249543E+01 -0.60442454424E+02  0.46750029198E+02  0.76543987190E+02  0.41800000000E+01 0.  1.
         -5    1    3    3    0  502  0.48093272865E+02 -0.19196530629E+02  0.29187381939E+03  0.29646124287E+03  0.41800000000E+01 0.  1.
        -11    1    1    2    0    0  0.17932615908E+02  0.38466724019E+02  0.16029936317E+03  0.16582265648E+03  0.00000000000E+00 0.  1.
         11    1    1    2    0    0 -0.67655013728E+02  0.41172261034E+02  0.11741968782E+03  0.14163240819E+03  0.00000000000E+00 0. -1.
</event>
<event>
 7    1  0.2840156E-009  0.1052602E+03  0.7561462E-02  0.1269608E+00
          2   -1    0    0  501    0  0.00000000000E+00  0.00000000000E+00  0.47894917480E+03  0.47894917480E+03  0.00000000000E+00 0. -1.
         -2   -1    0    0    0  501 -0.00000000000E+00 -0.00000000000E+00 -0.43116128481E+02  0.43116128481E+02  0.00000000000E+00 0.  1.
         25    2    1    2    0    0 -0.70473253085E+02 -0.46801820769E+02  0.30631075757E+03  0.34151272411E+03  0.12509104965E+03 0.  0.
          5    1    3    3  502    0 -0.71793852991E+02 -0.46343339829E+02  0.31784871302E+03  0.32916157012E+03  0.41800000000E+01 0.  1.
         -5    1    3    3    0  502  0.13205999057E+01 -0.45848094014E+00 -0.11537955455E+02  0.12351153993E+02  0.41800000000E+01 0.  1.
        -11    1    1    2    0    0  0.24511805375E+02 -0.25189030790E+02  0.63577803392E+02  0.72646080136E+02  0.00000000000E+00 0. -1.
         11    1    1    2    0    0  0.45961447710E+02  0.71990851559E+02  0.65944485353E+02  0.10790649903E+03  0.00000000000E+00 0.  1.
</event>
<event>
 7    1  0.2840156E-009  0.1685688E+03  0.7561462E-02  0.1179349E+00
          3   -1    0    0  501    0  0.00000000000E+00  0.00000000000E+00  0.91326338793E+02  0.91326338793E+02  0.00000000000E+00 0. -1.
         -3   -1    0    0    0  501 -0.00000000000E+00 -0.00000000000E+00 -0.53704103215E+03  0.53704103215E+03  0.00000000000E+00 0.  1.
         25    2    1    2    0    0  0.12743650788E+03 -0.44394479363E+02 -0.35206130500E+02  0.18734153658E+03  0.12508575605E+03 0.  0.
          5    1    3    3  502    0  0.85762165665E+02  0.32811616442E+02  0.20239505327E+01  0.91941938249E+02  0.41800000000E+01 0. -1.
         -5    1    3    3    0  502  0.41674342216E+02 -0.77206095805E+02 -0.37230081033E+02  0.95399598334E+02  0.41800000000E+01 0. -1.
        -11    1    1    2    0    0 -0.79617655665E+02 -0.15116749558E+02 -0.25879628581E+03  0.27118813536E+03  0.00000000000E+00 0.  1.
         11    1    1    2    0    0 -0.47818852216E+02  0.59511228921E+02 -0.15171227704E+03  0.16983769899E+03  0.00000000000E+00 0. -1.
</event>
<event>
 7    1  0.4428968E-009  0.1186836E+03  0.7561462E-02  0.1245285E+00
          2   -1    0    0  501    0  0.00000000000E+00  0.00000000000E+00  0.79268414673E+03  0.79268414673E+03  0.00000000000E+00 0. -1.
         -2   -1    0    0    0  501 -0.00000000000E+00 -0.00000000000E+00 -0.27348927287E+02  0.27348927287E+02  0.00000000000E+00 0.  1.
         25    2    1    2    0    0 -0.27707778042E+02 -0.83514575049E+02  0.28885651487E+03  0.32684549212E+03  0.12508990500E+03 0.  0.
          5    1    3    3  502    0  0.39172591709E+02 -0.51965130472E+01  0.14180582004E+03  0.14726798256E+03  0.41800000000E+01 0. -1.
         -5    1    3    3    0  502 -0.66880369751E+02 -0.78318062002E+02  0.14705069483E+03  0.17957750957E+03  0.41800000000E+01 0. -1.
        -11    1    1    2    0    0 -0.81723417118E+01  0.11610108248E+02  0.52209960324E+01  0.15127477720E+02  0.00000000000E+00 0.  1.
         11    1    1    2    0    0  0.35880119754E+02  0.71904466801E+02  0.47125770854E+03  0.47806010417E+03  0.00000000000E+00 0. -1.
</event>
<event>
 7    1  0.2840156E-009  0.1071117E+03  0.7561462E-02  0.1266014E+00
          2   -1    0    0  501    0  0.00000000000E+00  0.00000000000E+00  0.55388925677E+03  0.55388925677E+03  0.00000000000E+00 0.  1.
         -2   -1    0    0    0  501 -0.00000000000E+00 -0.00000000000E+00 -0.22498903908E+02  0.22498903908E+02  0.00000000000E+00 0. -1.
         25    2    1    2    0    0  0.21554930564E+02  0.36414914711E+01  0.26179867521E+03  0.29097060532E+03  0.12508985301E+03 0.  0.
          5    1    3    3  502    0  0.71243988795E+02 -0.75864920945E+01  0.18770256223E+03  0.20095518174E+03  0.41800000000E+01 0.  1.
         -5    1    3    3    0  502 -0.49689058231E+02  0.11227983566E+02  0.74096112977E+02  0.90015423573E+02  0.41800000000E+01 0.  1.
        -11    1    1    2    0    0 -0.42907337594E+02 -0.33638359497E+02  0.12823571942E+03  0.13934481901E+03  0.00000000000E+00 0.  1.
         11    1    1    2    0    0  0.21352407030E+02  0.29996868026E+02  0.14135595824E+03  0.14607273635E+03  0.00000000000E+00 0. -1.
</event>
<event>
 7    1  0.2840156E-009  0.1448552E+03  0.7561462E-02  0.1206941E+00
         -2   -1    0    0    0  501 -0.00000000000E+00  0.00000000000E+00  0.19797157214E+02  0.19797157214E+02  0.00000000000E+00 0. -1.
          2   -1    0    0  501    0  0.00000000000E+00 -0.00000000000E+00 -0.19991695597E+04  0.19991695597E+04  0.00000000000E+00 0.  1.
         25    2    1    2    0    0  0.27617149720E+00 -0.11852670350E+03 -0.16240403102E+04  0.16331572762E+04  0.12508838443E+03 0.  0.
          5    1    3    3  502    0 -0.33289333183E+01  0.15940355431E+02 -0.60925004155E+03  0.60948196221E+03  0.41800000000E+01 0. -1.
         -5    1    3    3    0  502  0.36051048155E+01 -0.13446705893E+03 -0.10147902687E+04  0.10236753140E+04  0.41800000000E+01 0. -1.
        -11    1    1    2    0    0  0.33048956064E+02  0.33796923171E+02 -0.57853245446E+02  0.74709193018E+02  0.00000000000E+00 0. -1.
         11    1    1    2    0    0 -0.33325127562E+02  0.84729780329E+02 -0.29747884681E+03  0.31110024767E+03  0.00000000000E+00 0.  1.
</event>
<event>
 7    1  0.2840156E-009  0.7953064E+02  0.7561462E-02  0.1330389E+00
          2   -1    0    0  501    0  0.00000000000E+00  0.00000000000E+00  0.76828600170E+03  0.76828600170E+03  0.00000000000E+00 0. -1.
         -2   -1    0    0    0  501 -0.00000000000E+00 -0.00000000000E+00 -0.15608141202E+02  0.15608141202E+02  0.00000000000E+00 0.  1.
         25    2    1    2    0    0  0.31830925770E+00  0.22222434212E+02  0.51485023826E+03  0.53029334940E+03  0.12508529361E+03 0.  0.
          5    1    3    3  502    0 -0.36027765404E+02 -0.50100588431E+01  0.44725110228E+03  0.44874728017E+03  0.41800000000E+01 0.  1.
         -5    1    3    3    0  502  0.36346074661E+02  0.27232493055E+02  0.67599135973E+02  0.81546069222E+02  0.41800000000E+01 0.  1.
        -11    1    1    2    0    0  0.35299134174E+02 -0.21263439857E+02  0.63715448187E+02  0.75880307628E+02  0.00000000000E+00 0.  1.
         11    1    1    2    0    0 -0.35617443431E+02 -0.95899435512E+00  0.17411217406E+03  0.17772048588E+03  0.00000000000E+00 0. -1.
</event>
<event>
 7    1  0.2840156E-009  0.1430140E+03  0.7561462E-02  0.1209330E+00
         -1   -1    0    0    0  501 -0.00000000000E+00  0.00000000000E+00  0.14114927700E+03  0.14114927700E+03  0.00000000000E+00 0.  1.
          1   -1    0    0  501    0  0.00000000000E+00 -0.00000000000E+00 -0.22881335703E+03  0.22881335703E+03  0.00000000000E+00 0. -1.
         25    2    1    2    0    0  0.73948274661E+01 -0.12099481665E+03 -0.12236882763E+03  0.21287614718E+03  0.12509074680E+03 0.  0.
          5    1    3    3  502    0 -0.41438323401E+02 -0.10527202117E+03 -0.49256252958E+02  0.12346247990E+03  0.41800000000E+01 0. -1.
         -5    1    3    3    0  502  0.48833150867E+02 -0.15722795475E+02 -0.73112574668E+02  0.89413667276E+02  0.41800000000E+01 0. -1.
        -11    1    1    2    0    0  0.69059310218E+00  0.25166094910E+02  0.53472943667E+02  0.59103002937E+02  0.00000000000E+00 0.  1.
         11    1    1    2    0    0 -0.80854205682E+01  0.95828721737E+02 -0.18768196076E+02  0.97983483912E+02  0.00000000000E+00 0. -1.
</event>
<event>
 7    1  0.2840156E-009  0.1524662E+03  0.7561462E-02  0.1197475E+00
         -4   -1    0    0    0  501 -0.00000000000E+00  0.00000000000E+00  0.93766861019E+03  0.93766861019E+03  0.00000000000E+00 0.  1.
          4   -1    0    0  501    0  0.00000000000E+00 -0.00000000000E+00 -0.28758398347E+02  0.28758398347E+02  0.00000000000E+00 0. -1.
         25    2    1    2    0    0 -0.60913520428E+02 -0.10532845053E+03  0.43704248185E+03  0.47059423425E+03  0.12509301703E+03 0.  0.
          5    1    3    3  502    0  0.34122249979E+02 -0.40552669516E+01  0.68961770446E+02  0.77161981032E+02  0.41800000000E+01 0. -1.
         -5    1    3    3    0  502 -0.95035770407E+02 -0.10127318358E+03  0.36808071140E+03  0.39343225322E+03  0.41800000000E+01 0. -1.
        -11    1    1    2    0    0  0.68862760812E+02  0.84050522330E+02  0.45431102737E+03  0.46712426582E+03  0.00000000000E+00 0.  1.
         11    1    1    2    0    0 -0.79492403836E+01  0.21277928198E+02  0.17556702626E+02  0.28708508463E+02  0.00000000000E+00 0. -1.
</event>
<event>
 7    1  0.2840156E-009  0.1105744E+03  0.7561462E-02  0.1259510E+00
          1   -1    0    0  501    0  0.00000000000E+00  0.00000000000E+00  0.52031329056E+03  0.52031329056E+03  0.00000000000E+00 0. -1.
         -1   -1    0    0    0  501 -0.00000000000E+00 -0.00000000000E+00 -0.26920187398E+02  0.26920187398E+02  0.00000000000E+00 0.  1.
         25    2    1    2    0    0  0.25007823229E+02 -0.14370843182E+01  0.33190278577E+03  0.35557734375E+03  0.12509329220E+03 0.  0.
          5    1    3    3  502    0 -0.44861066685E+02 -0.19300010210E+02  0.19160062489E+03  0.19777077023E+03  0.41800000000E+01 0.  1.
         -5    1    3    3    0  502  0.69868889914E+02  0.17862925892E+02  0.14030216088E+03  0.15780657352E+03  0.41800000000E+01 0.  1.
        -11    1    1    2    0    0  0.31306372652E+02 -0.22656499802E+02  0.40115042523E+02  0.55701190190E+02  0.00000000000E+00 0.  1.
         11    1    1    2    0    0 -0.56314195881E+02  0.24093584120E+02  0.12137527487E+03  0.13595494402E+03  0.00000000000E+00 0. -1.
</event>
<event>
 7    1  0.2840156E-009  0.1138905E+03  0.7561462E-02  0.1253530E+00
          2   -1    0    0  501    0  0.00000000000E+00  0.00000000000E+00  0.30352239996E+03  0.30352239996E+03  0.00000000000E+00 0. -1.
         -2   -1    0    0    0  501 -0.00000000000E+00 -0.00000000000E+00 -0.51728234834E+02  0.51728234834E+02  0.00000000000E+00 0.  1.
         25    2    1    2    0    0 -0.41682568443E+02 -0.28499535575E+02  0.11468004483E+03  0.17705857761E+03  0.12509423322E+03 0.  0.
          5    1    3    3  502    0  0.19138373641E+02 -0.61646797654E+02  0.45591064605E+02  0.79136733433E+02  0.41800000000E+01 0.  1.
         -5    1    3    3    0  502 -0.60820942083E+02  0.33147262079E+02  0.69088980221E+02  0.97921844178E+02  0.41800000000E+01 0.  1.
        -11    1    1    2    0    0  0.58328470896E+02 -0.26462075885E+01  0.12951597648E+03  0.14206900117E+03  0.00000000000E+00 0. -1.
         11    1    1    2    0    0 -0.16645902453E+02  0.31145743163E+02  0.75981438195E+01  0.36123056005E+02  0.00000000000E+00 0.  1.
</event>
<event>
 7    1  0.3797163E-009  0.1598763E+03  0.7561462E-02  0.1188837E+00
          2   -1    0    0  501    0  0.00000000000E+00  0.00000000000E+00  0.51136452093E+03  0.51136452093E+03  0.00000000000E+00 0. -1.
         -2   -1    0    0    0  501 -0.00000000000E+00 -0.00000000000E+00 -0.63722835945E+02  0.63722835945E+02  0.00000000000E+00 0.  1.
         25    2    1    2    0    0  0.81883176829E+02 -0.10391790019E+03  0.14564970805E+03  0.23316446060E+03  0.12509214047E+03 0.  0.
          5    1    3    3  502    0 -0.30914940791E+02 -0.57906564936E+01  0.17669296573E+02  0.36317237066E+02  0.41800000000E+01 0.  1.
         -5    1    3    3    0  502  0.11279811762E+03 -0.98127243693E+02  0.12798041147E+03  0.19684722354E+03  0.41800000000E+01 0.  1.
        -11    1    1    2    0    0 -0.77050160092E+02  0.69693044221E+02  0.12961201452E+03  0.16611177530E+03  0.00000000000E+00 0.  1.
         11    1    1    2    0    0 -0.48330167365E+01  0.34224855965E+02  0.17237996242E+03  0.17581112098E+03  0.00000000000E+00 0. -1.
</event>
<event>
 7    1  0.3115775E-009  0.9528615E+02  0.7561462E-02  0.1290533E+00
          1   -1    0    0  501    0  0.00000000000E+00  0.00000000000E+00  0.15765917338E+04  0.15765917338E+04  0.00000000000E+00 0. -1.
         -1   -1    0    0    0  501 -0.00000000000E+00 -0.00000000000E+00 -0.14269595922E+02  0.14269595922E+02  0.00000000000E+00 0.  1.
         25    2    1    2    0    0  0.33796163587E+02 -0.38430716224E+02  0.13148345873E+04  0.13217628215E+04  0.12509142134E+03 0.  0.
          5    1    3    3  502    0  0.64280250229E+02  0.18192395317E+02  0.82431004264E+03  0.82702323584E+03  0.41800000000E+01 0.  1.
         -5    1    3    3    0  502 -0.30484086642E+02 -0.56623111541E+02  0.49052454462E+03  0.49473958561E+03  0.41800000000E+01 0.  1.
        -11    1    1    2    0    0  0.19913533379E+01  0.17747515980E+02 -0.32551622072E+00  0.17861852434E+02  0.00000000000E+00 0.  1.
         11    1    1    2    0    0 -0.35787516925E+02  0.20683200244E+02  0.24781306686E+03  0.25123665586E+03  0.00000000000E+00 0. -1.
</event>
<event>
 7    1  0.2840156E-009  0.9729327E+02  0.7561462E-02  0.1286093E+00
         -1   -1    0    0    0  501 -0.00000000000E+00  0.00000000000E+00  0.22456431320E+03  0.22456431320E+03  0.00000000000E+00 0.  1.
          1   -1    0    0  501    0  0.00000000000E+00 -0.00000000000E+00 -0.94376867062E+02  0.94376867062E+02  0.00000000000E+00 0. -1.
         25    2    1    2    0    0 -0.84309003244E+02  0.11766151365E+02  0.25146667534E+02  0.15338242525E+03  0.12508942058E+03 0.  0.
          5    1    3    3  502    0 -0.13271936251E+02  0.32426165543E+02 -0.40973115211E+02  0.54072812704E+02  0.41800000000E+01 0.  1.
         -5    1    3    3    0  502 -0.71037066993E+02 -0.20660014177E+02  0.66119782746E+02  0.99309612541E+02  0.41800000000E+01 0.  1.
        -11    1    1    2    0    0  0.36643477855E+02 -0.69217246039E+01 -0.11932280833E+02  0.39153978938E+02  0.00000000000E+00 0. -1.
         11    1    1    2    0    0  0.47665525389E+02 -0.48444267614E+01  0.11697305944E+03  0.12640477608E+03  0.00000000000E+00 0.  1.
</event>
<event>
 7    1  0.2840156E-009  0.8547788E+02  0.7561462E-02  0.1314188E+00
          1   -1    0    0  501    0  0.00000000000E+00  0.00000000000E+00  0.35828400942E+03  0.35828400942E+03  0.00000000000E+00 0. -1.
         -1   -1    0    0    0  501 -0.00000000000E+00 -0.00000000000E+00 -0.35497785013E+02  0.35497785013E+02  0.00000000000E+00 0.  1.
         25    2    1    2    0    0 -0.23476324957E+02  0.15697987984E+02  0.22686987049E+03  0.26060663485E+03  0.12509322655E+03 0.  0.
          5    1    3    3  502    0 -0.41331740173E+02 -0.27777019686E+02  0.20033292250E+03  0.20647185718E+03  0.41800000000E+01 0.  1.
         -5    1    3    3    0  502  0.17855415217E+02  0.43475007670E+02  0.26536947988E+02  0.54134777666E+02  0.41800000000E+01 0.  1.
        -11    1    1    2    0    0  0.43477294262E+02  0.64526274138E+01  0.93399408479E+02  0.10322480817E+03  0.00000000000E+00 0. -1.
         11    1    1    2    0    0 -0.20000969306E+02 -0.22150615397E+02  0.25169454326E+01  0.29950351416E+02  0.00000000000E+00 0.  1.
</event>
<event>
 7    1  0.2840156E-009  0.1297252E+03  0.7561462E-02  0.1227864E+00
         -2   -1    0    0    0  501 -0.00000000000E+00  0.00000000000E+00  0.15071450232E+02  0.15071450232E+02  0.00000000000E+00 0. -1.
          2   -1    0    0  501    0  0.00000000000E+00 -0.00000000000E+00 -0.20962130066E+04  0.20962130066E+04  0.00000000000E+00 0.  1.
         25    2    1    2    0    0  0.49091089135E+02 -0.10947488232E+03 -0.15288976731E+04  0.15386911531E+04  0.12509070748E+03 0.  0.
          5    1    3    3  502    0  0.30960382213E+02 -0.95811292615E+02 -0.52822443584E+03  0.53775168626E+03  0.41800000000E+01 0. -1.
         -5    1    3    3    0  502  0.18130706922E+02 -0.13663589701E+02 -0.10006732372E+04  0.10009394669E+04  0.41800000000E+01 0. -1.
        -11    1    1    2    0    0  0.81352872361E+00  0.74839376694E+02 -0.42564175303E+03  0.43217183626E+03  0.00000000000E+00 0.  1.
         11    1    1    2    0    0 -0.49904617858E+02  0.34635505622E+02 -0.12660213032E+03  0.14042146750E+03  0.00000000000E+00 0. -1.
</event>
<event>
 7    1  0.2840156E-009  0.1130570E+03  0.7561462E-02  0.1255011E+00
          1   -1    0    0  501    0  0.00000000000E+00  0.00000000000E+00  0.19317186695E+03  0.19317186695E+03  0.00000000000E+00 0. -1.
         -1   -1    0    0    0  501 -0.00000000000E+00 -0.00000000000E+00 -0.98434754705E+02  0.98434754705E+02  0.00000000000E+00 0.  1.
         25    2    1    2    0    0 -0.57199249702E+02 -0.41519374443E+02  0.95389824062E+02  0.17245924817E+03  0.12508941252E+03 0.  0.
          5    1    3    3  502    0 -0.90785007350E+02 -0.12479103144E+01  0.64570598345E+02  0.11149129746E+03  0.41800000000E+01 0. -1.
         -5    1    3    3    0  502  0.33585757649E+02 -0.40271464129E+02  0.30819225717E+02  0.60967950709E+02  0.41800000000E+01 0. -1.
        -11    1    1    2    0    0  0.32835569188E+02  0.47299247540E+02 -0.41680502025E+02  0.71082048864E+02  0.00000000000E+00 0.  1.
         11    1    1    2    0    0  0.24363680514E+02 -0.57798730962E+01  0.41027790211E+02  0.48065324619E+02  0.00000000000E+00 0. -1.
</event>
<event>
 7    1  0.2840156E-009  0.9815103E+02  0.7561462E-02  0.1284233E+00
          1   -1    0    0  501    0  0.00000000000E+00  0.00000000000E+00  0.14054739830E+02  0.14054739830E+02  0.00000000000E+00 0. -1.
         -1   -1    0    0    0  501 -0.00000000000E+00 -0.00000000000E+00 -0.97037072155E+03  0.97037072155E+03  0.00000000000E+00 0.  1.
         25    2    1    2    0    0 -0.25237077398E+02  0.38758030079E+02 -0.59831602615E+03  0.61300002724E+03  0.12509145166E+03 0.  0.
          5    1    3    3  502    0 -0.43301682775E+02  0.56966171999E+02 -0.57030112961E+03  0.57478781417E+03  0.41800000000E+01 0. -1.
         -5    1    3    3    0  502  0.18064605377E+02 -0.18208141921E+02 -0.28014896535E+02  0.38212213067E+02  0.41800000000E+01 0. -1.
        -11    1    1    2    0    0  0.26947604287E+02  0.23861977336E+02 -0.14536102187E+03  0.14975110690E+03  0.00000000000E+00 0. -1.
         11    1    1    2    0    0 -0.17105268890E+01 -0.62620007415E+02 -0.21263893370E+03  0.22167432724E+03  0.00000000000E+00 0.  1.
</event>
<event>
 7    1  0.2840156E-009  0.1232838E+03  0.7561462E-02  0.1237776E+00
          1   -1    0    0  501    0  0.00000000000E+00  0.00000000000E+00  0.33118907188E+03  0.33118907188E+03  0.00000000000E+00 0. -1.
         -1   -1    0    0    0  501 -0.00000000000E+00 -0.00000000000E+00 -0.63956823300E+02  0.63956823300E+02  0.00000000000E+00 0.  1.
         25    2    1    2    0    0  0.65252875690E+02  0.63393736134E+02  0.10076757712E+03  0.18459942576E+03  0.12508453072E+03 0.  0.
          5    1    3    3  502    0 -0.57290645000E+01 -0.14349606915E+02  0.74252144154E+02  0.75957795584E+02  0.41800000000E+01 0.  1.
         -5    1    3    3    0  502  0.70981940190E+02  0.77743343048E+02  0.26515432964E+02  0.10864163017E+03  0.41800000000E+01 0.  1.
        -11    1    1    2    0    0  0.21149679201E+02 -0.16998166405E+02  0.17812208363E+02  0.32457993749E+02  0.00000000000E+00 0.  1.
         11    1    1    2    0    0 -0.86402554891E+02 -0.46395569729E+02  0.14865246310E+03  0.17808847568E+03  0.00000000000E+00 0. -1.
</event>
<event>
 7    1  0.2840156E-009  0.1337190E+03  0.7561462E-02  0.1222039E+00
         -3   -1    0    0    0  501 -0.00000000000E+00  0.00000000000E+00  0.27627251679E+03  0.27627251679E+03  0.00000000000E+00 0.  1.
          3   -1    0    0  501    0  0.00000000000E+00 -0.00000000000E+00 -0.95583021065E+02  0.95583021065E+02  0.00000000000E+00 0. -1.
         25    2    1    2    0    0  0.10250950838E+03  0.64274434317E+02  0.73450808054E+02  0.18889658416E+03  0.12508995199E+03 0.  0.
          5    1    3    3  502    0  0.95189522370E+02  0.81196758321E+02  0.13353542972E+02  0.12589578325E+03  0.41800000000E+01 0.  1.
         -5    1    3    3    0  502  0.73199860133E+01 -0.16922324003E+02  0.60097265082E+02  0.63000800910E+02  0.41800000000E+01 0.  1.
        -11    1    1    2    0    0 -0.45085692747E+02 -0.42420942360E+02  0.30221172480E+01  0.61978941858E+02  0.00000000000E+00 0. -1.
         11    1    1    2    0    0 -0.57423815636E+02 -0.21853491958E+02  0.10421657042E+03  0.12098001183E+03  0.00000000000E+00 0.  1.
</event>
<event>
 7    1  0.2840156E-009  0.8956131E+02  0.7561462E-02  0.1303918E+00
          2   -1    0    0  501    0  0.00000000000E+00  0.00000000000E+00  0.13469499760E+03  0.13469499760E+03  0.00000000000E+00 0. -1.
         -2   -1    0    0    0  501 -0.00000000000E+00 -0.00000000000E+00 -0.87910770074E+02  0.87910770074E+02  0.00000000000E+00 0.  1.
         25    2    1    2    0    0 -0.36597074371E+01  0.87555294069E+01  0.27200515791E+02  0.12835669204E+03  0.12508205139E+03 0.  0.
          5    1    3    3  502    0 -0.39733586221E+02  0.54158949603E+02  0.14766547472E+02  0.68901908685E+02  0.41800000000E+01 0. -1.
         -5    1    3    3    0  502  0.36073878784E+02 -0.45403420197E+02  0.12433968318E+02  0.59454783358E+02  0.41800000000E+01 0. -1.
        -11    1    1    2    0    0  0.14339655833E+02  0.19079834028E+02 -0.28807810257E+02  0.37410636559E+02  0.00000000000E+00 0.  1.
         11    1    1    2    0    0 -0.10679948396E+02 -0.27835363435E+02  0.48391521996E+02  0.56838439074E+02  0.00000000000E+00 0. -1.
</event>
<event>
 7    1  0.2840156E-009  0.1089117E+03  0.7561462E-02  0.1262599E+00
          2   -1    0    0  501    0  0.00000000000E+00  0.00000000000E+00  0.14605156176E+04  0.14605156176E+04  0.00000000000E+00 0. -1.
         -2   -1    0    0    0  501 -0.00000000000E+00 -0.00000000000E+00 -0.18870705052E+02  0.18870705052E+02  0.00000000000E+00 0.  1.
         25    2    1    2    0    0 -0.23659610787E+02 -0.54258944040E+02  0.12625302572E+04  0.12700921072E+04  0.12508996913E+03 0.  0.
          5    1    3    3  502    0  0.23837792669E+00  0.34960535354E+02  0.16724393646E+03  0.17091021777E+03  0.41800000000E+01 0. -1.
         -5    1    3    3    0  502 -0.23897988713E+02 -0.89219479394E+02  0.10952863207E+04  0.10991818895E+04  0.41800000000E+01 0. -1.
        -11    1    1    2    0    0  0.43472944555E+02  0.14666213565E+02  0.14860484264E+03  0.15552618425E+03  0.00000000000E+00 0. -1.
         11    1    1    2    0    0 -0.19813333768E+02  0.39592730475E+02  0.30509812680E+02  0.53768031126E+02  0.00000000000E+00 0.  1.
</event>
<event>
 7    1  0.2840156E-009  0.2295343E+03  0.7561462E-02  0.1126968E+00
          2   -1    0    0  501    0  0.00000000000E+00  0.00000000000E+00  0.53129851324E+02  0.53129851324E+02  0.00000000000E+00 0. -1.
         -2   -1    0    0    0  501 -0.00000000000E+00 -0.00000000000E+00 -0.12538350326E+04  0.12538350326E+04  0.00000000000E+00 0.  1.
         25    2    1    2    0    0 -0.20348899693E+03  0.52333832534E+02 -0.89862071797E+03  0.93129683042E+03  0.12509192489E+03 0.  0.
          5    1    3    3  502    0 -0.10430440981E+03 -0.35745475290E+02 -0.35756369739E+03  0.37420104089E+03  0.41800000000E+01 0.  1.
         -5    1    3    3    0  502 -0.99184587114E+02  0.88079307824E+02 -0.54105702058E+03  0.55709578953E+03  0.41800000000E+01 0.  1.
        -11    1    1    2    0    0  0.17297828537E+03 -0.24477741522E+02 -0.20009702278E+03  0.26563031748E+03  0.00000000000E+00 0.  1.
         11    1    1    2    0    0  0.30510711563E+02 -0.27856091012E+02 -0.10198744055E+03  0.11003773605E+03  0.00000000000E+00 0. -1.
</event>
<event>
 7    1  0.2840156E-009  0.1296576E+03  0.7561462E-02  0.1227965E+00
         -2   -1    0    0    0  501 -0.00000000000E+00  0.00000000000E+00  0.61152565672E+02  0.61152565672E+02  0.00000000000E+00 0.  1.
          2   -1    0    0  501    0  0.00000000000E+00 -0.00000000000E+00 -0.47457427228E+03  0.47457427228E+03  0.00000000000E+00 0. -1.
         25    2    1    2    0    0 -0.21093519069E+02 -0.11997472322E+03 -0.29536020052E+03  0.34310615672E+03  0.12508123748E+03 0.  0.
          5    1    3    3  502    0 -0.42986660006E+02 -0.91550036038E+02 -0.92722294202E+02  0.13727402624E+03  0.41800000000E+01 0. -1.
         -5    1    3    3    0  502  0.21893140938E+02 -0.28424687178E+02 -0.20263790632E+03  0.20583213048E+03  0.41800000000E+01 0. -1.
        -11    1    1    2    0    0  0.19725789888E+02  0.98861378473E+02 -0.13287798997E+03  0.16679100443E+03  0.00000000000E+00 0. -1.
         11    1    1    2    0    0  0.13677291805E+01  0.21113344744E+02  0.14816483880E+02  0.25829676807E+02  0.00000000000E+00 0.  1.
</event>
<event>
 7    1  0.2840156E-009  0.1048266E+03  0.7561462E-02  0.1270462E+00
          1   -1    0    0  501    0  0.00000000000E+00  0.00000000000E+00  0.31619884252E+03  0.31619884252E+03  0.00000000000E+00 0. -1.
         -1   -1    0    0    0  501 -0.00000000000E+00 -0.00000000000E+00 -0.63063505993E+02  0.63063505993E+02  0.00000000000E+00 0.  1.
         25    2    1    2    0    0 -0.25829843625E+02  0.59619837579E+02  0.22089747982E+03  0.26204788768E+03  0.12510672640E+03 0.  0.
          5    1    3    3  502    0  0.22309481511E+01 -0.17655664851E+02 -0.71261532981E+01  0.19620246987E+02  0.41800000000E+01 0. -1.
         -5    1    3    3    0  502 -0.28060791776E+02  0.77275502430E+02  0.22802363312E+03  0.24242764070E+03  0.41800000000E+01 0. -1.
        -11    1    1    2    0    0 -0.32384310422E+02 -0.14908487481E+02 -0.30276849593E+01  0.35779511409E+02  0.00000000000E+00 0.  1.
         11    1    1    2    0    0  0.58214154047E+02 -0.44711350098E+02  0.35265541666E+02  0.81434949426E+02  0.00000000000E+00 0. -1.
</event>
<event>
 7    1  0.2840156E-009  0.2419239E+03  0.7561462E-02  0.1118518E+00
          2   -1    0    0  501    0  0.00000000000E+00  0.00000000000E+00  0.19214719577E+04  0.19214719577E+04  0.00000000000E+00 0. -1.
         -2   -1    0    0    0  501 -0.00000000000E+00 -0.00000000000E+00 -0.36182134919E+02  0.36182134919E+02  0.00000000000E+00 0.  1.
         25    2    1    2    0    0 -0.20376758782E+03 -0.11226775621E+03  0.11709521518E+04  0.12003760003E+04  0.12509325114E+03 0.  0.
          5    1    3    3  502    0 -0.34138156108E+02 -0.22786048482E+02  0.58972028585E+02  0.71970759780E+02  0.41800000000E+01 0.  1.
         -5    1    3    3    0  502 -0.16962943171E+03 -0.89481707725E+02  0.11119801232E+04  0.11284052406E+04  0.41800000000E+01 0.  1.
        -11    1    1    2    0    0  0.13941263476E+03  0.12251544773E+03  0.50457026380E+03  0.53762167811E+03  0.00000000000E+00 0. -1.
         11    1    1    2    0    0  0.64354953065E+02 -0.10247691521E+02  0.20976740719E+03  0.21965641417E+03  0.00000000000E+00 0.  1.
</event>
<event>
 7    1  0.2840156E-009  0.1485975E+03  0.7561462E-02  0.1202207E+00
         -1   -1    0    0    0  501 -0.00000000000E+00  0.00000000000E+00  0.79383435120E+02  0.79383435120E+02  0.00000000000E+00 0.  1.
          1   -1    0    0  501    0  0.00000000000E+00 -0.00000000000E+00 -0.13277878633E+04  0.13277878633E+04  0.00000000000E+00 0. -1.
         25    2    1    2    0    0  0.22339109789E+02  0.10026039673E+03 -0.12583007866E+04  0.12686684421E+04  0.12509022101E+03 0.  0.
          5    1    3    3  502    0 -0.52133215774E+02  0.41354948391E+02 -0.54500330779E+03  0.54906664609E+03  0.41800000000E+01 0.  1.
         -5    1    3    3    0  502  0.74472325563E+02  0.58905448342E+02 -0.71329747879E+03  0.71960179597E+03  0.41800000000E+01 0.  1.
        -11    1    1    2    0    0 -0.56631593612E+02 -0.66612259119E+02 -0.66637798126E+01  0.87685440190E+02  0.00000000000E+00 0.  1.
         11    1    1    2    0    0  0.34292483823E+02 -0.33648137614E+02  0.16560138190E+02  0.50817416193E+02  0.00000000000E+00 0. -1.
</event>
<event>
 7    1  0.2840156E-009  0.1091260E+03  0.7561462E-02  0.1262197E+00
         -1   -1    0    0    0  501 -0.00000000000E+00  0.00000000000E+00  0.11108190521E+02  0.11108190521E+02  0.00000000000E+00 0.  1.
          1   -1    0    0  501    0  0.00000000000E+00 -0.00000000000E+00 -0.15455731198E+04  0.15455731198E+04  0.00000000000E+00 0. -1.
         25    2    1    2    0    0  0.57874613493E+02  0.24019414947E+02 -0.10796935795E+04  0.10887202574E+04  0.12508864916E+03 0.  0.
          5    1    3    3  502    0  0.57971905030E+02  0.55150369683E+02 -0.38162725494E+03  0.38994761079E+03  0.41800000000E+01 0. -1.
         -5    1    3    3    0  502 -0.97291537028E-01 -0.31130954736E+02 -0.69806632456E+03  0.69877264664E+03  0.41800000000E+01 0. -1.
        -11    1    1    2    0    0 -0.71831320197E+02  0.75246468780E+01 -0.24688778741E+03  0.25723518119E+03  0.00000000000E+00 0.  1.
         11    1    1    2    0    0  0.13956706705E+02 -0.31544061825E+02 -0.20788356240E+03  0.21072587173E+03  0.00000000000E+00 0. -1.
</event>
<event>
 7    1  0.2840156E-009  0.1219350E+03  0.7561462E-02  0.1239939E+00
          2   -1    0    0  501    0  0.00000000000E+00  0.00000000000E+00  0.63876639461E+03  0.63876639461E+03  0.00000000000E+00 0. -1.
         -2   -1    0    0    0  501 -0.00000000000E+00 -0.00000000000E+00 -0.25937127715E+02  0.25937127715E+02  0.00000000000E+00 0.  1.
         25    2    1    2    0    0 -0.19792763290E+02  0.61859486466E+02  0.40802531753E+03  0.43168190685E+03  0.12508500874E+03 0.  0.
          5    1    3    3  502    0 -0.87621288191E+01  0.96427899977E+02  0.34954873266E+03  0.36273530804E+03  0.41800000000E+01 0. -1.
         -5    1    3    3    0  502 -0.11030634471E+02 -0.34568413510E+02  0.58476584873E+02  0.68946598813E+02  0.41800000000E+01 0. -1.
        -11    1    1    2    0    0  0.53418214834E+02 -0.20719954733E+02  0.92969181150E+02  0.10920664286E+03  0.00000000000E+00 0.  1.
         11    1    1    2    0    0 -0.33625451544E+02 -0.41139531733E+02  0.11183476822E+03  0.12381497262E+03  0.00000000000E+00 0. -1.
</event>
<event>
 7    1  0.2840156E-009  0.8095463E+02  0.7561462E-02  0.1326364E+00
          1   -1    0    0  501    0  0.00000000000E+00  0.00000000000E+00  0.18558898916E+03  0.18558898916E+03  0.00000000000E+00 0. -1.
         -1   -1    0    0    0  501 -0.00000000000E+00 -0.00000000000E+00 -0.66727895911E+02  0.66727895911E+02  0.00000000000E+00 0.  1.
         25    2    1    2    0    0 -0.26412137485E+01 -0.16586853915E+02  0.65137357706E+02  0.14203016509E+03  0.12509033814E+03 0.  0.
          5    1    3    3  502    0  0.44778998629E+02 -0.11477876709E+02 -0.14915215576E+02  0.48752809434E+02  0.41800000000E+01 0.  1.
         -5    1    3    3    0  502 -0.47420212378E+02 -0.51089772062E+01  0.80052573282E+02  0.93277355661E+02  0.41800000000E+01 0.  1.
        -11    1    1    2    0    0  0.29997466797E+02 -0.77711020157E+01  0.64960565384E+02  0.71973002548E+02  0.00000000000E+00 0. -1.
         11    1    1    2    0    0 -0.27356253049E+02  0.24357955931E+02 -0.11236829844E+02  0.38313717425E+02  0.00000000000E+00 0.  1.
</event>
<event>
 7    1  0.2840156E-009  0.1082669E+03  0.7561462E-02  0.1263813E+00
         -2   -1    0    0    0  501 -0.00000000000E+00  0.00000000000E+00  0.78104619532E+02  0.78104619532E+02  0.00000000000E+00 0.  1.
          2   -1    0    0  501    0  0.00000000000E+00 -0.00000000000E+00 -0.21375571682E+03  0.21375571682E+03  0.00000000000E+00 0. -1.
         25    2    1    2    0    0 -0.59428175280E+02 -0.12819885824E+02 -0.11847774388E+03  0.18270312184E+03  0.12508955770E+03 0.  0.
          5    1    3    3  502    0 -0.97342746005E+02 -0.15953398322E+02 -0.98773111650E+02  0.13965572349E+03  0.41800000000E+01 0.  1.
         -5    1    3    3    0  502  0.37914570724E+02  0.31335124976E+01 -0.19704632231E+02  0.43047398355E+02  0.41800000000E+01 0.  1.
        -11    1    1    2    0    0  0.58016783342E+02 -0.80859995447E+01 -0.45323699237E+02  0.74064622125E+02  0.00000000000E+00 0. -1.
         11    1    1    2    0    0  0.14113919379E+01  0.20905885369E+02  0.28150345827E+02  0.35092592387E+02  0.00000000000E+00 0.  1.
</event>
<event>
 7    1  0.2840156E-009  0.1229868E+03  0.7561462E-02  0.1238249E+00
          2   -1    0    0  501    0  0.00000000000E+00  0.00000000000E+00  0.57522269901E+03  0.57522269901E+03  0.00000000000E+00 0. -1.
         -2   -1    0    0    0  501 -0.00000000000E+00 -0.00000000000E+00 -0.38106504787E+02  0.38106504787E+02  0.00000000000E+00 0.  1.
         25    2    1    2    0    0  0.58179013582E+02 -0.80203174324E+02  0.26570864718E+03  0.30994541249E+03  0.12509087395E+03 0.  0.
          5    1    3    3  502    0  0.58171567312E+02 -0.11353953431E+02  0.21831620788E+03  0.22625711596E+03  0.41800000000E+01 0.  1.
         -5    1    3    3    0  502  0.74462699826E-02 -0.68849220893E+02  0.47392439308E+02  0.83688296533E+02  0.41800000000E+01 0.  1.
        -11    1    1    2    0    0 -0.51134193169E+02  0.16852030095E+02  0.20241588721E+03  0.20945378494E+03  0.00000000000E+00 0. -1.
         11    1    1    2    0    0 -0.70448204123E+01  0.63351144229E+02  0.68991659822E+02  0.93930006359E+02  0.00000000000E+00 0.  1.
</event>
<event>
 7    1  0.2840156E-009  0.1206034E+03  0.7561462E-02  0.1242105E+00
         -1   -1    0    0    0  501 -0.00000000000E+00  0.00000000000E+00  0.40346965684E+02  0.40346965684E+02  0.00000000000E+00 0.  1.
          1   -1    0    0  501    0  0.00000000000E+00 -0.00000000000E+00 -0.38857713288E+03  0.38857713288E+03  0.00000000000E+00 0. -1.
         25    2    1    2    0    0  0.35469392213E+02 -0.41430712679E+02 -0.13920299150E+03  0.19494116154E+03  0.12509996755E+03 0.  0.
          5    1    3    3  502    0  0.69465332427E+02 -0.64709913966E+02 -0.95054366369E+02  0.13440837154E+03  0.41800000000E+01 0.  1.
         -5    1    3    3    0  502 -0.33995940214E+02  0.23279201286E+02 -0.44148625131E+02  0.60532789994E+02  0.41800000000E+01 0.  1.
        -11    1    1    2    0    0 -0.37213174609E+02 -0.20718060759E+02 -0.94895146528E+02  0.10401512986E+03  0.00000000000E+00 0. -1.
         11    1    1    2    0    0  0.17437823961E+01  0.62148773438E+02 -0.11413202917E+03  0.12996780716E+03  0.00000000000E+00 0.  1.
</event>
<event>
 7    1  0.2840156E-009  0.2601569E+03  0.7561462E-02  0.1107049E+00
         -4   -1    0    0    0  501 -0.00000000000E+00  0.00000000000E+00  0.96476473228E+02  0.96476473228E+02  0.00000000000E+00 0.  1.
          4   -1    0    0  501    0  0.00000000000E+00 -0.00000000000E+00 -0.80834464805E+03  0.80834464805E+03  0.00000000000E+00 0. -1.
         25    2    1    2    0    0 -0.10772405119E+03 -0.23019109292E+03 -0.43247642368E+03  0.51698310227E+03  0.12507302080E+03 0.  0.
          5    1    3    3  502    0 -0.58843665748E+02 -0.12565094234E+03 -0.34571989385E+03  0.37254590820E+03  0.41800000000E+01 0.  1.
         -5    1    3    3    0  502 -0.48880385441E+02 -0.10454015058E+03 -0.86756529828E+02  0.14443719407E+03  0.41800000000E+01 0.  1.
        -11    1    1    2    0    0  0.89547957916E+02  0.98640965471E+02 -0.11117392819E+03  0.17351806576E+03  0.00000000000E+00 0.  1.
         11    1    1    2    0    0  0.18176093273E+02  0.13155012745E+03 -0.16821782295E+03  0.21431995324E+03  0.00000000000E+00 0. -1.
</event>
<event>
 7    1  0.2840156E-009  0.9167148E+02  0.7561462E-02  0.1298854E+00
          1   -1    0    0  501    0  0.00000000000E+00  0.00000000000E+00  0.23156096516E+03  0.23156096516E+03  0.00000000000E+00 0. -1.
         -1   -1    0    0    0  501 -0.00000000000E+00 -0.00000000000E+00 -0.60332142013E+02  0.60332142013E+02  0.00000000000E+00 0.  1.
         25    2    1    2    0    0 -0.31672476495E+02 -0.75742593329E+01  0.54017066533E+02  0.14008863194E+03  0.12508583513E+03 0.  0.
          5    1    3    3  502    0  0.10368017892E+02  0.44722320849E+02 -0.10094159225E+02  0.47190531123E+02  0.41800000000E+01 0.  1.
         -5    1    3    3    0  502 -0.42040494388E+02 -0.52296580182E+02  0.64111225758E+02  0.92898100817E+02  0.41800000000E+01 0.  1.
        -11    1    1    2    0    0 -0.30040225375E+01 -0.23356112047E+02  0.99220141281E+02  0.10197631371E+03  0.00000000000E+00 0. -1.
         11    1    1    2    0    0  0.34676499033E+02  0.30930371380E+02  0.17991615332E+02  0.49828161527E+02  0.00000000000E+00 0.  1.
</event>
<event>
 7    1  0.2840156E-009  0.1032052E+03  0.7561462E-02  0.1273697E+00
         -2   -1    0    0    0  501 -0.00000000000E+00  0.00000000000E+00  0.52903794672E+02  0.52903794672E+02  0.00000000000E+00 0.  1.
          2   -1    0    0  501    0  0.00000000000E+00 -0.00000000000E+00 -0.31705381728E+03  0.31705381728E+03  0.00000000000E+00 0. -1.
         25    2    1    2    0    0  0.62830613050E+02 -0.24859996449E+01 -0.15906116729E+03  0.21189802547E+03  0.12508577908E+03 0.  0.
          5    1    3    3  502    0  0.75658290283E+02 -0.27792719636E+02 -0.16401235712E+03  0.18279534414E+03  0.41800000000E+01 0.  1.
         -5    1    3    3    0  502 -0.12827677233E+02  0.25306719991E+02  0.49511898244E+01  0.29102681329E+02  0.41800000000E+01 0.  1.
        -11    1    1    2    0    0  0.13565397775E+02  0.14308416900E+02  0.78292640802E+01  0.21214339184E+02  0.00000000000E+00 0.  1.
         11    1    1    2    0    0 -0.76396010825E+02 -0.11822417256E+02 -0.11291811939E+03  0.13684524729E+03  0.00000000000E+00 0. -1.
</event>
<event>
 7    1  0.2840156E-009  0.7354927E+02  0.7561462E-02  0.1348423E+00
         -1   -1    0    0    0  501 -0.00000000000E+00  0.00000000000E+00  0.19514596594E+02  0.19514596594E+02  0.00000000000E+00 0. -1.
          1   -1    0    0  501    0  0.00000000000E+00 -0.00000000000E+00 -0.61775066172E+03  0.61775066172E+03  0.00000000000E+00 0.  1.
         25    2    1    2    0    0 -0.26433011318E+01  0.82818797456E+00 -0.45323023994E+03  0.47018300905E+03  0.12508692446E+03 0.  0.
          5    1    3    3  502    0 -0.36911783423E+02  0.30266579637E+02 -0.38668792803E+03  0.38964544356E+03  0.41800000000E+01 0.  1.
         -5    1    3    3    0  502  0.34268482291E+02 -0.29438391662E+02 -0.66542311901E+02  0.80537565492E+02  0.41800000000E+01 0.  1.
        -11    1    1    2    0    0  0.17029757934E+01  0.26456396363E+02 -0.13565988334E+03  0.13822606477E+03  0.00000000000E+00 0.  1.
         11    1    1    2    0    0  0.94032533843E+00 -0.27284584338E+02 -0.93459418495E+01  0.28856184489E+02  0.00000000000E+00 0. -1.
</event>
<event>
 7    1  0.2840156E-009  0.1021461E+03  0.7561462E-02  0.1275847E+00
          2   -1    0    0  501    0  0.00000000000E+00  0.00000000000E+00  0.42585745891E+02  0.42585745891E+02  0.00000000000E+00 0.  1.
         -2   -1    0    0    0  501 -0.00000000000E+00 -0.00000000000E+00 -0.27387093271E+03  0.27387093271E+03  0.00000000000E+00 0. -1.
         25    2    1    2    0    0 -0.11826466154E+02  0.29772295814E+02 -0.12175239404E+03  0.17747523507E+03  0.12509020229E+03 0.  0.
          5    1    3    3  502    0 -0.74864291228E+01  0.74200286612E+02 -0.10656966144E+03  0.13013951857E+03  0.41800000000E+01 0. -1.
         -5    1    3    3    0  502 -0.43400370315E+01 -0.44427990798E+02 -0.15182732606E+02  0.47335716507E+02  0.41800000000E+01 0. -1.
        -11    1    1    2    0    0  0.33834520092E+02  0.13331369154E+02 -0.37839577868E+02  0.52481747366E+02  0.00000000000E+00 0.  1.
         11    1    1    2    0    0 -0.22008053938E+02 -0.43103664968E+02 -0.71693214905E+02  0.86499696157E+02  0.00000000000E+00 0. -1.
</event>
<event>
 7    1  0.2840156E-009  0.1377105E+03  0.7561462E-02  0.1216443E+00
         -2   -1    0    0    0  501 -0.00000000000E+00  0.00000000000E+00  0.18721844744E+02  0.18721844744E+02  0.00000000000E+00 0. -1.
          2   -1    0    0  501    0  0.00000000000E+00 -0.00000000000E+00 -0.11009882659E+04  0.11009882659E+04  0.00000000000E+00 0.  1.
         25    2    1    2    0    0  0.40839139801E+02 -0.78723335831E+02 -0.73367931696E+03  0.74953153196E+03  0.12508788243E+03 0.  0.
          5    1    3    3  502    0 -0.43498374808E+02 -0.13282884870E+02 -0.18553981775E+03  0.19107862259E+03  0.41800000000E+01 0. -1.
         -5    1    3    3    0  502  0.84337514609E+02 -0.65440450961E+02 -0.54813949921E+03  0.55845290937E+03  0.41800000000E+01 0. -1.
        -11    1    1    2    0    0 -0.41375231181E+02 -0.27275678871E+01 -0.14759973608E+03  0.15331350714E+03  0.00000000000E+00 0.  1.
         11    1    1    2    0    0  0.53609138054E+00  0.81450903718E+02 -0.20098736815E+03  0.21686507157E+03  0.00000000000E+00 0. -1.
</event>
<event>
 7    1  0.2840156E-009  0.1231135E+03  0.7561462E-02  0.1238047E+00
          3   -1    0    0  501    0  0.00000000000E+00  0.00000000000E+00  0.46508351770E+03  0.46508351770E+03  0.00000000000E+00 0. -1.
         -3   -1    0    0    0  501 -0.00000000000E+00 -0.00000000000E+00 -0.45198788959E+02  0.45198788959E+02  0.00000000000E+00 0.  1.
         25    2    1    2    0    0 -0.10008974776E+02  0.94512140862E+02  0.21217443852E+03  0.26400398895E+03  0.12508952583E+03 0.  0.
          5    1    3    3  502    0  0.27199936352E+02  0.27915329615E+02  0.75825892958E+00  0.39206498463E+02  0.41800000000E+01 0.  1.
         -5    1    3    3    0  502 -0.37208911128E+02  0.66596811247E+02  0.21141617959E+03  0.22479749048E+03  0.41800000000E+01 0.  1.
        -11    1    1    2    0    0  0.49431567925E+02 -0.63477443516E+02  0.10818369023E+03  0.13482053469E+03  0.00000000000E+00 0. -1.
         11    1    1    2    0    0 -0.39422593148E+02 -0.31034697345E+02  0.99526599993E+02  0.11145778302E+03  0.00000000000E+00 0.  1.
</event>
<event>
 7    1  0.2840156E-009  0.2692860E+03  0.7561462E-02  0.1101689E+00
         -1   -1    0    0    0  501 -0.00000000000E+00  0.00000000000E+00  0.45297538149E+02  0.45297538149E+02  0.00000000000E+00 0.  1.
          1   -1    0    0  501    0  0.00000000000E+00 -0.00000000000E+00 -0.17579274100E+04  0.17579274100E+04  0.00000000000E+00 0. -1.
         25    2    1    2    0    0 -0.63447576879E+02  0.24753945060E+03 -0.74574417548E+03  0.79817677438E+03  0.12510161182E+03 0.  0.
          5    1    3    3  502    0 -0.43238630167E+02  0.24642269523E+03 -0.73140405995E+03  0.77302205349E+03  0.41800000000E+01 0. -1.
         -5    1    3    3    0  502 -0.20208946712E+02  0.11167553689E+01 -0.14340115527E+02  0.25154720891E+02  0.41800000000E+01 0. -1.
        -11    1    1    2    0    0  0.74075312982E+02 -0.12968168887E+03 -0.42756673111E+03  0.45289932874E+03  0.00000000000E+00 0. -1.
         11    1    1    2    0    0 -0.10627736103E+02 -0.11785776173E+03 -0.53931896525E+03  0.55214884502E+03  0.00000000000E+00 0.  1.
</event>
<event>
 7    1  0.2840156E-009  0.1058495E+03  0.7561462E-02  0.1268455E+00
          4   -1    0    0  501    0  0.00000000000E+00  0.00000000000E+00  0.59557429921E+03  0.59557429921E+03  0.00000000000E+00 0. -1.
         -4   -1    0    0    0  501 -0.00000000000E+00 -0.00000000000E+00 -0.46230745569E+02  0.46230745569E+02  0.00000000000E+00 0.  1.
         25    2    1    2    0    0 -0.16028502618E+02 -0.70210004228E+02  0.49206998275E+03  0.51280227788E+03  0.12508777191E+03 0.  0.
          5    1    3    3  502    0 -0.61040755875E+02 -0.44867048969E+02  0.40014791170E+03  0.40727736200E+03  0.41800000000E+01 0.  1.
         -5    1    3    3    0  502  0.45012253257E+02 -0.25342955259E+02  0.91922071053E+02  0.10552491588E+03  0.41800000000E+01 0.  1.
        -11    1    1    2    0    0  0.30291593080E+02  0.36721979344E+02 -0.13445812903E+02  0.49465889893E+02  0.00000000000E+00 0.  1.
         11    1    1    2    0    0 -0.14263090462E+02  0.33488024884E+02  0.70719383792E+02  0.79536877007E+02  0.00000000000E+00 0. -1.
</event>
<event>
 7    1  0.2840156E-009  0.1358318E+03  0.7561462E-02  0.1219050E+00
         -1   -1    0    0    0  501 -0.00000000000E+00  0.00000000000E+00  0.23020133313E+02  0.23020133313E+02  0.00000000000E+00 0.  1.
          1   -1    0    0  501    0  0.00000000000E+00 -0.00000000000E+00 -0.14112620437E+04  0.14112620437E+04  0.00000000000E+00 0. -1.
         25    2    1    2    0    0 -0.92066003617E+02 -0.69451901470E+01 -0.11743543096E+04  0.11846015828E+04  0.12509388787E+03 0.  0.
          5    1    3    3  502    0  0.27894243895E+02  0.30535809455E+01 -0.11616323873E+03  0.11957752143E+03  0.41800000000E+01 0. -1.
         -5    1    3    3    0  502 -0.11996024751E+03 -0.99987710925E+01 -0.10581910708E+04  0.10650240613E+04  0.41800000000E+01 0. -1.
        -11    1    1    2    0    0  0.17748574299E+02  0.38277337765E+02 -0.11233697218E+03  0.11999900747E+03  0.00000000000E+00 0. -1.
         11    1    1    2    0    0  0.74317429318E+02 -0.31332147618E+02 -0.10155062867E+03  0.12968158681E+03  0.00000000000E+00 0.  1.
</event>
<event>
 7    1  0.2840156E-009  0.1147180E+03  0.7561462E-02  0.1252074E+00
          2   -1    0    0  501    0  0.00000000000E+00  0.00000000000E+00  0.61187099776E+02  0.61187099776E+02  0.00000000000E+00 0. -1.
         -2   -1    0    0    0  501 -0.00000000000E+00 -0.00000000000E+00 -0.34723557531E+03  0.34723557531E+03  0.00000000000E+00 0.  1.
         25    2    1    2    0    0  0.65494680822E+02 -0.66223222908E+01 -0.74933221419E+02  0.15998781900E+03  0.12509079178E+03 0.  0.
          5    1    3    3  502    0  0.50340959661E+02 -0.46272620610E+02  0.57283636863E+01  0.68743393779E+02  0.41800000000E+01 0.  1.
         -5    1    3    3    0  502  0.15153721161E+02  0.39650298319E+02 -0.80661585106E+02  0.91244425219E+02  0.41800000000E+01 0.  1.
        -11    1    1    2    0    0 -0.42947112983E+02  0.52099550498E+02 -0.64873761566E+02  0.93634516154E+02  0.00000000000E+00 0. -1.
         11    1    1    2    0    0 -0.22547567839E+02 -0.45477228208E+02 -0.14624149254E+03  0.15480033993E+03  0.00000000000E+00 0.  1.
</event>
<event>
 7    1  0.2840156E-009  0.2741487E+03  0.7561462E-02  0.1098928E+00
          1   -1    0    0  501    0  0.00000000000E+00  0.00000000000E+00  0.66756117960E+02  0.66756117960E+02  0.00000000000E+00 0. -1.
         -1   -1    0    0    0  501 -0.00000000000E+00 -0.00000000000E+00 -0.12412497363E+04  0.12412497363E+04  0.00000000000E+00 0.  1.
         25    2    1    2    0    0 -0.13448008875E+03 -0.22956014871E+03 -0.63483681663E+03  0.69960591879E+03  0.12509157329E+03 0.  0.
          5    1    3    3  502    0 -0.71849316330E+02 -0.82504676668E+02 -0.12951122949E+03  0.16958766728E+03  0.41800000000E+01 0. -1.
         -5    1    3    3    0  502 -0.62630772416E+02 -0.14705547204E+03 -0.50532558715E+03  0.53001825151E+03  0.41800000000E+01 0. -1.
        -11    1    1    2    0    0  0.30712397601E+02  0.13527058478E+03 -0.30470550570E+03  0.33479370913E+03  0.00000000000E+00 0.  1.
         11    1    1    2    0    0  0.10376769115E+03  0.94289563924E+02 -0.23495129597E+03  0.27360622629E+03  0.00000000000E+00 0. -1.
</event>
<event>
 7    1  0.2840156E-009  0.1063716E+03  0.7561462E-02  0.1267441E+00
          2   -1    0    0  501    0  0.00000000000E+00  0.00000000000E+00  0.29239405874E+03  0.29239405874E+03  0.00000000000E+00 0. -1.
         -2   -1    0    0    0  501 -0.00000000000E+00 -0.00000000000E+00 -0.59130245264E+02  0.59130245264E+02  0.00000000000E+00 0.  1.
         25    2    1    2    0    0 -0.32691606586E+02 -0.63326647933E+02  0.99360867774E+02  0.17492540548E+03  0.12508920800E+03 0.  0.
          5    1    3    3  502    0 -0.51991696604E+02 -0.77641905110E+02  0.11323042871E+03  0.14686730178E+03  0.41800000000E+01 0. -1.
         -5    1    3    3    0  502  0.19300090017E+02  0.14315257177E+02 -0.13869560939E+02  0.28058103702E+02  0.41800000000E+01 0. -1.
        -11    1    1    2    0    0  0.47909739111E+02  0.26005268740E+02  0.24043626014E+02  0.59579468408E+02  0.00000000000E+00 0.  1.
         11    1    1    2    0    0 -0.15218132524E+02  0.37321379193E+02  0.10985931969E+03  0.11701943012E+03  0.00000000000E+00 0. -1.
</event>
<event>
 7    1  0.2840156E-009  0.1003199E+03  0.7561462E-02  0.1279625E+00
         -2   -1    0    0    0  501 -0.00000000000E+00  0.00000000000E+00  0.45379048700E+02  0.45379048700E+02  0.00000000000E+00 0.  1.
          2   -1    0    0  501    0  0.00000000000E+00 -0.00000000000E+00 -0.31596704554E+03  0.31596704554E+03  0.00000000000E+00 0. -1.
         25    2    1    2    0    0 -0.36524254735E+02  0.12819671583E+02 -0.20749548271E+03  0.24535759863E+03  0.12509041009E+03 0.  0.
          5    1    3    3  502    0 -0.70424435702E+02  0.39279899917E+01 -0.19582574464E+03  0.20818315233E+03  0.41800000000E+01 0. -1.
         -5    1    3    3    0  502  0.33900180968E+02  0.88916815913E+01 -0.11669738070E+02  0.37174446301E+02  0.41800000000E+01 0. -1.
        -11    1    1    2    0    0 -0.14703900062E+02  0.26366754792E+02 -0.33284525837E+02  0.44936289294E+02  0.00000000000E+00 0. -1.
         11    1    1    2    0    0  0.51228154797E+02 -0.39186426375E+02 -0.29807988287E+02  0.71052206311E+02  0.00000000000E+00 0.  1.
</event>
<event>
 7    1  0.2840156E-009  0.8377794E+02  0.7561462E-02  0.1318660E+00
         -2   -1    0    0    0  501 -0.00000000000E+00  0.00000000000E+00  0.24034109148E+03  0.24034109148E+03  0.00000000000E+00 0.  1.
          2   -1    0    0  501    0  0.00000000000E+00 -0.00000000000E+00 -0.54588847186E+02  0.54588847186E+02  0.00000000000E+00 0. -1.
         25    2    1    2    0    0  0.31481265610E+02 -0.17323455810E+02  0.12325872319E+03  0.17925286567E+03  0.12509078624E+03 0.  0.
          5    1    3    3  502    0  0.38916304153E+02 -0.35596474499E+02  0.14211573459E+03  0.15164412993E+03  0.41800000000E+01 0.  1.
         -5    1    3    3    0  502 -0.74350385431E+01  0.18273018689E+02 -0.18857011394E+02  0.27608735734E+02  0.41800000000E+01 0.  1.
        -11    1    1    2    0    0 -0.31971094479E+02 -0.31955335859E+02  0.43879493357E+02  0.62997653204E+02  0.00000000000E+00 0.  1.
         11    1    1    2    0    0  0.48982886895E+00  0.49278791669E+02  0.18614027738E+02  0.52679419789E+02  0.00000000000E+00 0. -1.
</event>
<event>
 7    1  0.2840156E-009  0.8677381E+02  0.7561462E-02  0.1310858E+00
          2   -1    0    0  501    0  0.00000000000E+00  0.00000000000E+00  0.29479524894E+02  0.29479524894E+02  0.00000000000E+00 0. -1.
         -2   -1    0    0    0  501 -0.00000000000E+00 -0.00000000000E+00 -0.42047704333E+03  0.42047704333E+03  0.00000000000E+00 0.  1.
         25    2    1    2    0    0 -0.15324112334E+02 -0.18367722173E+02 -0.25332284310E+03  0.28353440115E+03  0.12508833743E+03 0.  0.
          5    1    3    3  502    0 -0.61292506581E+02  0.15774055966E+02 -0.87626448284E+02  0.10817328248E+03  0.41800000000E+01 0.  1.
         -5    1    3    3    0  502  0.45968394248E+02 -0.34141778139E+02 -0.16569639482E+03  0.17536111867E+03  0.41800000000E+01 0.  1.
        -11    1    1    2    0    0  0.30601527534E+02  0.21122365105E+02 -0.14468666598E+03  0.14938821610E+03  0.00000000000E+00 0.  1.
         11    1    1    2    0    0 -0.15277415200E+02 -0.27546429328E+01  0.70119906518E+01  0.17033950974E+02  0.00000000000E+00 0. -1.
</event>
<event>
 7    1  0.2840156E-009  0.1198271E+03  0.7561462E-02  0.1243382E+00
          2   -1    0    0  501    0  0.00000000000E+00  0.00000000000E+00  0.16010485132E+04  0.16010485132E+04  0.00000000000E+00 0. -1.
         -2   -1    0    0    0  501 -0.00000000000E+00 -0.00000000000E+00 -0.13546903401E+02  0.13546903401E+02  0.00000000000E+00 0.  1.
         25    2    1    2    0    0  0.26969015634E+01  0.91676035676E+02  0.10523600943E+04  0.10637306190E+04  0.12509713372E+03 0.  0.
          5    1    3    3  502    0  0.25169480364E+02 -0.70946682752E+00  0.43832201371E+02  0.50722188064E+02  0.41800000000E+01 0. -1.
         -5    1    3    3    0  502 -0.22472578801E+02  0.92385502503E+02  0.10085278930E+04  0.10130084310E+04  0.41800000000E+01 0. -1.
        -11    1    1    2    0    0 -0.37942633338E+02 -0.31923431592E+02  0.11801665433E+03  0.12801046679E+03  0.00000000000E+00 0.  1.
         11    1    1    2    0    0  0.35245731774E+02 -0.59752604084E+02  0.41712486112E+03  0.42285433079E+03  0.00000000000E+00 0. -1.
</event>
<event>
 7    1  0.2840156E-009  0.8129889E+02  0.7561462E-02  0.1325405E+00
          2   -1    0    0  501    0  0.00000000000E+00  0.00000000000E+00  0.27290905664E+03  0.27290905664E+03  0.00000000000E+00 0.  1.
         -2   -1    0    0    0  501 -0.00000000000E+00 -0.00000000000E+00 -0.63075007205E+02  0.63075007205E+02  0.00000000000E+00 0. -1.
         25    2    1    2    0    0 -0.30505835898E+02  0.68616930185E+01  0.20276384206E+03  0.24028832403E+03  0.12509042394E+03 0.  0.
          5    1    3    3  502    0  0.17539759701E+01  0.50357058884E+02  0.16884605496E+03  0.17625371623E+03  0.41800000000E+01 0. -1.
         -5    1    3    3    0  502 -0.32259811868E+02 -0.43495365865E+02  0.33917787099E+02  0.64034607793E+02  0.41800000000E+01 0. -1.
        -11    1    1    2    0    0  0.35864353960E+02 -0.21719589497E+02  0.40767396913E+02  0.58480536113E+02  0.00000000000E+00 0.  1.
         11    1    1    2    0    0 -0.53585180628E+01  0.14857896479E+02 -0.33697189541E+02  0.37215203702E+02  0.00000000000E+00 0. -1.
</event>
<event>
 7    1  0.2840156E-009  0.1139472E+03  0.7561462E-02  0.1253430E+00
          2   -1    0    0  501    0  0.00000000000E+00  0.00000000000E+00  0.13738072074E+04  0.13738072074E+04  0.00000000000E+00 0. -1.
         -2   -1    0    0    0  501 -0.00000000000E+00 -0.00000000000E+00 -0.96905048122E+01  0.96905048122E+01  0.00000000000E+00 0.  1.
         25    2    1    2    0    0  0.82687643617E+01 -0.39898124693E+02  0.80286141542E+03  0.81356858031E+03  0.12508856734E+03 0.  0.
          5    1    3    3  502    0  0.56601792706E+02  0.11794879584E+02  0.28126021316E+03  0.28717183363E+03  0.41800000000E+01 0. -1.
         -5    1    3    3    0  502 -0.48333028344E+02 -0.51693004276E+02  0.52160120226E+03  0.52639674668E+03  0.41800000000E+01 0. -1.
        -11    1    1    2    0    0  0.41059684193E+02  0.21814539441E+02  0.25770969529E+03  0.26187030920E+03  0.00000000000E+00 0. -1.
         11    1    1    2    0    0 -0.49328448555E+02  0.18083585252E+02  0.30354559191E+03  0.30805882272E+03  0.00000000000E+00 0.  1.
</event>
<event>
 7    1  0.2840156E-009  0.1871889E+03  0.7561462E-02  0.1161021E+00
          2   -1    0    0  501    0  0.00000000000E+00  0.00000000000E+00  0.11899685928E+04  0.11899685928E+04  0.00000000000E+00 0. -1.
         -2   -1    0    0    0  501 -0.00000000000E+00 -0.00000000000E+00 -0.31046701167E+02  0.31046701167E+02  0.00000000000E+00 0.  1.
         25    2    1    2    0    0 -0.15073023319E+03 -0.70591391835E+02  0.54940049779E+03  0.58752899034E+03  0.12508660886E+03 0.  0.
          5    1    3    3  502    0 -0.61655101841E+02 -0.92382672095E+02  0.23423819121E+03  0.25926996028E+03  0.41800000000E+01 0. -1.
         -5    1    3    3    0  502 -0.89075131345E+02  0.21791280260E+02  0.31516230659E+03  0.32825903005E+03  0.41800000000E+01 0. -1.
        -11    1    1    2    0    0  0.63774747692E+02  0.79553370786E+01  0.19403166728E+03  0.20439861482E+03  0.00000000000E+00 0.  1.
         11    1    1    2    0    0  0.86955485495E+02  0.62636054756E+02  0.41548972660E+03  0.42908768885E+03  0.00000000000E+00 0. -1.
</event>
<event>
 7    1  0.2840156E-009  0.2327077E+03  0.7561462E-02  0.1124748E+00
          1   -1    0    0  501    0  0.00000000000E+00  0.00000000000E+00  0.72693594053E+03  0.72693594053E+03  0.00000000000E+00 0. -1.
         -1   -1    0    0    0  501 -0.00000000000E+00 -0.00000000000E+00 -0.93411848869E+02  0.93411848869E+02  0.00000000000E+00 0.  1.
         25    2    1    2    0    0  0.19124276026E+03 -0.11635295582E+03  0.20444774710E+03  0.32796054266E+03  0.12508969808E+03 0.  0.
          5    1    3    3  502    0  0.95648414432E+02 -0.30264050063E+02  0.18951374739E+02  0.10218198919E+03  0.41800000000E+01 0.  1.
         -5    1    3    3    0  502  0.95594345828E+02 -0.86088905753E+02  0.18549637236E+03  0.22577855347E+03  0.41800000000E+01 0.  1.
        -11    1    1    2    0    0 -0.29290919880E+02  0.56488673447E+02  0.74279668939E+02  0.97807962012E+02  0.00000000000E+00 0.  1.
         11    1    1    2    0    0 -0.16195184038E+03  0.59864282369E+02  0.35479667562E+03  0.39457928473E+03  0.00000000000E+00 0. -1.
</event>
<event>
 7    1  0.2840156E-009  0.1064745E+03  0.7561462E-02  0.1267242E+00
         -1   -1    0    0    0  501 -0.00000000000E+00  0.00000000000E+00  0.45639402491E+02  0.45639402491E+02  0.00000000000E+00 0.  1.
          1   -1    0    0  501    0  0.00000000000E+00 -0.00000000000E+00 -0.37719402318E+03  0.37719402318E+03  0.00000000000E+00 0. -1.
         25    2    1    2    0    0 -0.22709518359E+02  0.61649662928E+00 -0.29092714070E+03  0.31749415694E+03  0.12509131146E+03 0.  0.
          5    1    3    3  502    0 -0.40254082986E+02  0.53815095098E+02 -0.19538866346E+03  0.20666557010E+03  0.41800000000E+01 0. -1.
         -5    1    3    3    0  502  0.17544564628E+02 -0.53198598468E+02 -0.95538477239E+02  0.11082858684E+03  0.41800000000E+01 0. -1.
        -11    1    1    2    0    0  0.54731535920E+02 -0.10905259831E+02 -0.45150535723E+01  0.55989743926E+02  0.00000000000E+00 0.  1.
         11    1    1    2    0    0 -0.32022017561E+02  0.10288763202E+02 -0.36112426420E+02  0.49349524809E+02  0.00000000000E+00 0. -1.
</event>
<event>
 7    1  0.2840156E-009  0.1058793E+03  0.7561462E-02  0.1268397E+00
          1   -1    0    0  501    0  0.00000000000E+00  0.00000000000E+00  0.56979886565E+02  0.56979886565E+02  0.00000000000E+00 0. -1.
         -1   -1    0    0    0  501 -0.00000000000E+00 -0.00000000000E+00 -0.26836844604E+03  0.26836844604E+03  0.00000000000E+00 0.  1.
         25    2    1    2    0    0 -0.96420775464E+01  0.45363175974E+02 -0.17276552180E+03  0.21827966920E+03  0.12508917247E+03 0.  0.
          5    1    3    3  502    0 -0.63144577842E+02  0.20434432352E+02 -0.54281760469E+02  0.85841631252E+02  0.41800000000E+01 0.  1.
         -5    1    3    3    0  502  0.53502500296E+02  0.24928743622E+02 -0.11848376133E+03  0.13243803795E+03  0.41800000000E+01 0.  1.
        -11    1    1    2    0    0 -0.88838064387E+01 -0.61121688353E+02 -0.50705370663E+02  0.79911309700E+02  0.00000000000E+00 0.  1.
         11    1    1    2    0    0  0.18525883985E+02  0.15758512379E+02  0.12082332988E+02  0.27157353705E+02  0.00000000000E+00 0. -1.
</event>
<event>
 7    1  0.2840156E-009  0.2536000E+03  0.7561462E-02  0.1111051E+00
          4   -1    0    0  501    0  0.00000000000E+00  0.00000000000E+00  0.14785486070E+03  0.14785486070E+03  0.00000000000E+00 0. -1.
         -4   -1    0    0    0  501 -0.00000000000E+00 -0.00000000000E+00 -0.48411923222E+03  0.48411923222E+03  0.00000000000E+00 0.  1.
         25    2    1    2    0    0 -0.16460225295E+03 -0.17987166631E+03 -0.15492848064E+03  0.31479988922E+03  0.12509363742E+03 0.  0.
          5    1    3    3  502    0 -0.11282641634E+03 -0.60157419766E+02 -0.24419560161E+02  0.13024017312E+03  0.41800000000E+01 0. -1.
         -5    1    3    3    0  502 -0.51775836618E+02 -0.11971424654E+03 -0.13050892048E+03  0.18455971610E+03  0.41800000000E+01 0. -1.
        -11    1    1    2    0    0  0.10835684490E+02  0.38140896509E+02 -0.69529111093E+02  0.80040223227E+02  0.00000000000E+00 0.  1.
         11    1    1    2    0    0  0.15376656846E+03  0.14173076980E+03 -0.11180677979E+03  0.23713398047E+03  0.00000000000E+00 0. -1.
</event>
<event>
 7    1  0.2840156E-009  0.8706456E+02  0.7561462E-02  0.1310120E+00
          3   -1    0    0  501    0  0.00000000000E+00  0.00000000000E+00  0.27571405627E+03  0.27571405627E+03  0.00000000000E+00 0. -1.
         -3   -1    0    0    0  501 -0.00000000000E+00 -0.00000000000E+00 -0.84265538368E+02  0.84265538368E+02  0.00000000000E+00 0.  1.
         25    2    1    2    0    0  0.19437014371E+02 -0.25390084675E+02  0.22525900907E+03  0.25963640534E+03  0.12508792061E+03 0.  0.
          5    1    3    3  502    0  0.68984982190E+02  0.57265380324E+01  0.13875968670E+03  0.15512396352E+03  0.41800000000E+01 0. -1.
         -5    1    3    3    0  502 -0.49547967819E+02 -0.31116622707E+02  0.86499322376E+02  0.10451244182E+03  0.41800000000E+01 0. -1.
        -11    1    1    2    0    0 -0.13391410772E+02 -0.56246337137E+01 -0.58479019202E+02  0.60255805312E+02  0.00000000000E+00 0.  1.
         11    1    1    2    0    0 -0.60456035984E+01  0.31014718388E+02  0.24668528029E+02  0.40087383984E+02  0.00000000000E+00 0. -1.
</event>
<event>
 7    1  0.2840156E-009  0.1023812E+03  0.7561462E-02  0.1275367E+00
         -1   -1    0    0    0  501 -0.00000000000E+00  0.00000000000E+00  0.55654665278E+02  0.55654665278E+02  0.00000000000E+00 0.  1.
          1   -1    0    0  501    0  0.00000000000E+00 -0.00000000000E+00 -0.22568873914E+03  0.22568873914E+03  0.00000000000E+00 0. -1.
         25    2    1    2    0    0 -0.30230933704E+02  0.64236890319E+01 -0.10142801412E+03  0.16398122392E+03  0.12508807543E+03 0.  0.
          5    1    3    3  502    0 -0.30649701577E+02 -0.56888496152E+02 -0.43041603556E+02  0.77754467639E+02  0.41800000000E+01 0. -1.
         -5    1    3    3    0  502  0.41876787275E+00  0.63312185183E+02 -0.58386410566E+02  0.86226756277E+02  0.41800000000E+01 0. -1.
        -11    1    1    2    0    0  0.30250973542E+02  0.28542028675E+02 -0.14114195684E+01  0.41614431466E+02  0.00000000000E+00 0.  1.
         11    1    1    2    0    0 -0.20039837864E-01 -0.34965717706E+02 -0.67194640175E+02  0.75747749040E+02  0.00000000000E+00 0. -1.
</event>
<event>
 7    1  0.2840156E-009  0.2100836E+03  0.7561462E-02  0.1141500E+00
         -2   -1    0    0    0  501 -0.00000000000E+00  0.00000000000E+00  0.23413843342E+03  0.23413843342E+03  0.00000000000E+00 0. -1.
          2   -1    0    0  501    0  0.00000000000E+00 -0.00000000000E+00 -0.30100629695E+03  0.30100629695E+03  0.00000000000E+00 0.  1.
         25    2    1    2    0    0  0.16891322081E+03 -0.10996779356E+03 -0.16831327216E+03  0.29086108138E+03  0.12508484838E+03 0.  0.
          5    1    3    3  502    0  0.72562617745E+02 -0.11347128121E+02 -0.12717598433E+03  0.14691934591E+03  0.41800000000E+01 0. -1.
         -5    1    3    3    0  502  0.96350603068E+02 -0.98620665436E+02 -0.41137287823E+02  0.14394173548E+03  0.41800000000E+01 0. -1.
        -11    1    1    2    0    0 -0.84713420472E+02  0.23361796676E+02  0.21215193916E+01  0.87901296899E+02  0.00000000000E+00 0.  1.
         11    1    1    2    0    0 -0.84199800340E+02  0.86605996881E+02  0.99323889236E+02  0.15638235209E+03  0.00000000000E+00 0. -1.
</event>
<event>
 7    1  0.2840156E-009  0.1261654E+03  0.7561462E-02  0.1233259E+00
          2   -1    0    0  501    0  0.00000000000E+00  0.00000000000E+00  0.18180386033E+03  0.18180386033E+03  0.00000000000E+00 0. -1.
         -2   -1    0    0    0  501 -0.00000000000E+00 -0.00000000000E+00 -0.17735986863E+03  0.17735986863E+03  0.00000000000E+00 0.  1.
         25    2    1    2    0    0  0.97580568683E+02  0.29727252703E+02  0.10199617554E+03  0.19093704237E+03  0.12509219554E+03 0.  0.
          5    1    3    3  502    0 -0.27036482743E+01 -0.22301750374E+02 -0.15710887472E+02  0.27730527742E+02  0.41800000000E+01 0. -1.
         -5    1    3    3    0  502  0.10028421696E+03  0.52029003077E+02  0.11770706301E+03  0.16320651462E+03  0.41800000000E+01 0. -1.
        -11    1    1    2    0    0  0.39799011043E+01 -0.12874916565E+02  0.11891187634E+02  0.17972296256E+02  0.00000000000E+00 0. -1.
         11    1    1    2    0    0 -0.10156046979E+03 -0.16852336138E+02 -0.10944337147E+03  0.15025439034E+03  0.00000000000E+00 0.  1.
</event>
<event>
 7    1  0.2840156E-009  0.1476724E+03  0.7561462E-02  0.1203363E+00
         -2   -1    0    0    0  501 -0.00000000000E+00  0.00000000000E+00  0.35975194494E+02  0.35975194494E+02  0.00000000000E+00 0. -1.
          2   -1    0    0  501    0  0.00000000000E+00 -0.00000000000E+00 -0.76281968831E+03  0.76281968831E+03  0.00000000000E+00 0.  1.
         25    2    1    2    0    0  0.10575282514E+03 -0.55686072372E+02 -0.29483559398E+03  0.34184668892E+03  0.12508610062E+03 0.  0.
          5    1    3    3  502    0  0.53517655092E+02 -0.88899630010E+02 -0.22865339000E+03  0.25113169609E+03  0.41800000000E+01 0. -1.
         -5    1    3    3    0  502  0.52235170046E+02  0.33213557638E+02 -0.66182203979E+02  0.90714992830E+02  0.41800000000E+01 0. -1.
        -11    1    1    2    0    0 -0.74406596998E+02  0.62735634689E+02 -0.39971914989E+03  0.41139701059E+03  0.00000000000E+00 0.  1.
         11    1    1    2    0    0 -0.31346228141E+02 -0.70495623168E+01 -0.32289749951E+02  0.45551183293E+02  0.00000000000E+00 0. -1.
</event>
<event>
 7    1  0.2840156E-009  0.9361633E+02  0.7561462E-02  0.1294323E+00
         -1   -1    0    0    0  501 -0.00000000000E+00  0.00000000000E+00  0.14232793726E+02  0.14232793726E+02  0.00000000000E+00 0.  1.
          1   -1    0    0  501    0  0.00000000000E+00 -0.00000000000E+00 -0.90014180614E+03  0.90014180614E+03  0.00000000000E+00 0. -1.
         25    2    1    2    0    0 -0.24488709878E+02 -0.39041195029E+01 -0.58635924450E+03  0.60006983696E+03  0.12510678061E+03 0.  0.
          5    1    3    3  502    0  0.20047110733E+02 -0.35616628237E+02 -0.46601624160E+03  0.46782372822E+03  0.41800000000E+01 0. -1.
         -5    1    3    3    0  502 -0.44535820611E+02  0.31712508734E+02 -0.12034300290E+03  0.13224610873E+03  0.41800000000E+01 0. -1.
        -11    1    1    2    0    0 -0.30389359074E+02 -0.14180474622E+02 -0.15597296236E+03  0.15953734356E+03  0.00000000000E+00 0. -1.
         11    1    1    2    0    0  0.54878068952E+02  0.18084594125E+02 -0.14357680555E+03  0.15476741934E+03  0.00000000000E+00 0.  1.
</event>
<event>
 7    1  0.2840156E-009  0.1139750E+03  0.7561462E-02  0.1253381E+00
         -2   -1    0    0    0  501 -0.00000000000E+00  0.00000000000E+00  0.32924970951E+02  0.32924970951E+02  0.00000000000E+00 0.  1.
          2   -1    0    0  501    0  0.00000000000E+00 -0.00000000000E+00 -0.75711931550E+03  0.75711931550E+03  0.00000000000E+00 0. -1.
         25    2    1    2    0    0  0.87952200139E+02  0.46885704318E+02 -0.53236993672E+03  0.55587732301E+03  0.12509192596E+03 0.  0.
          5    1    3    3  502    0  0.70090022701E+02  0.43509542613E+02 -0.53076650197E+03  0.53715569772E+03  0.41800000000E+01 0.  1.
         -5    1    3    3    0  502  0.17862177439E+02  0.33761617044E+01 -0.16034347506E+01  0.18721625295E+02  0.41800000000E+01 0.  1.
        -11    1    1    2    0    0  0.14128815320E+02 -0.12824220544E+02 -0.65483797964E+02  0.68207124633E+02  0.00000000000E+00 0. -1.
         11    1    1    2    0    0 -0.10208101546E+03 -0.34061483774E+02 -0.12634060987E+03  0.16595983880E+03  0.00000000000E+00 0.  1.
</event>
<event>
 7    1  0.2840156E-009  0.9512089E+02  0.7561462E-02  0.1290904E+00
          1   -1    0    0  501    0  0.00000000000E+00  0.00000000000E+00  0.43591440863E+03  0.43591440863E+03  0.00000000000E+00 0. -1.
         -1   -1    0    0    0  501 -0.00000000000E+00 -0.00000000000E+00 -0.29249330354E+02  0.29249330354E+02  0.00000000000E+00 0.  1.
         25    2    1    2    0    0  0.19175394248E+02  0.97864003307E+01  0.29028421975E+03  0.31682136601E+03  0.12508948936E+03 0.  0.
          5    1    3    3  502    0 -0.39930029348E+02 -0.34514535711E+02  0.12052344986E+03  0.13163979180E+03  0.41800000000E+01 0.  1.
         -5    1    3    3    0  502  0.59105423596E+02  0.44300936042E+02  0.16976076989E+03  0.18518157421E+03  0.41800000000E+01 0.  1.
        -11    1    1    2    0    0 -0.40479367616E+02 -0.11087624697E+02  0.14738156654E+02  0.44482894303E+02  0.00000000000E+00 0.  1.
         11    1    1    2    0    0  0.21303973369E+02  0.13012243667E+01  0.10164270187E+03  0.10385947867E+03  0.00000000000E+00 0. -1.
</event>
<event>
 7    1  0.2840156E-009  0.1531198E+03  0.7561462E-02  0.1196691E+00
         -2   -1    0    0    0  501 -0.00000000000E+00  0.00000000000E+00  0.20055505887E+02  0.20055505887E+02  0.00000000000E+00 0.  1.
          2   -1    0    0  501    0  0.00000000000E+00 -0.00000000000E+00 -0.13421204406E+04  0.13421204406E+04  0.00000000000E+00 0. -1.
         25    2    1    2    0    0  0.66456898099E+02 -0.10048510948E+03 -0.58808516403E+03  0.61319135374E+03  0.12508277106E+03 0.  0.
          5    1    3    3  502    0  0.85674478496E+01 -0.10064281784E+03 -0.47977703343E+03  0.49031199470E+03  0.41800000000E+01 0. -1.
         -5    1    3    3    0  502  0.57889450249E+02  0.15770836639E+00 -0.10830813060E+03  0.12287935903E+03  0.41800000000E+01 0. -1.
        -11    1    1    2    0    0  0.20394038188E+01  0.73432604059E+02 -0.30446345876E+03  0.31320042182E+03  0.00000000000E+00 0.  1.
         11    1    1    2    0    0 -0.68496301918E+02  0.27052505419E+02 -0.42951631195E+03  0.43578417096E+03  0.00000000000E+00 0. -1.
</event>
<event>
 7    1  0.2840156E-009  0.2054805E+03  0.7561462E-02  0.1145196E+00
         -2   -1    0    0    0  501 -0.00000000000E+00  0.00000000000E+00  0.16870716054E+03  0.16870716054E+03  0.00000000000E+00 0. -1.
          2   -1    0    0  501    0  0.00000000000E+00 -0.00000000000E+00 -0.30259317131E+03  0.30259317131E+03  0.00000000000E+00 0.  1.
         25    2    1    2    0    0 -0.19265033897E+03  0.24298767248E+02 -0.10961266657E+03  0.25567008080E+03  0.12509064853E+03 0.  0.
          5    1    3    3  502    0 -0.57752657690E+02  0.21561327413E+02 -0.10350146257E+03  0.12054163374E+03  0.41800000000E+01 0.  1.
         -5    1    3    3    0  502 -0.13489768128E+03  0.27374398353E+01 -0.61112039987E+01  0.13512844706E+03  0.41800000000E+01 0.  1.
        -11    1    1    2    0    0  0.33796529447E+02 -0.42489111115E+02 -0.36485983440E+01  0.54413621785E+02  0.00000000000E+00 0. -1.
         11    1    1    2    0    0  0.15885380952E+03  0.18190343866E+02 -0.20624745854E+02  0.16121662926E+03  0.00000000000E+00 0.  1.
</event>
<event>
 7    1  0.2840156E-009  0.1431318E+03  0.7561462E-02  0.1209176E+00
         -1   -1    0    0    0  501 -0.00000000000E+00  0.00000000000E+00  0.39198779244E+02  0.39198779244E+02  0.00000000000E+00 0.  1.
          1   -1    0    0  501    0  0.00000000000E+00 -0.00000000000E+00 -0.67728213823E+03  0.67728213823E+03  0.00000000000E+00 0. -1.
         25    2    1    2    0    0 -0.14964107985E+02  0.11321709461E+03 -0.43086805409E+03  0.46296539990E+03  0.12509055294E+03 0.  0.
          5    1    3    3  502    0  0.33869124086E+02  0.48958754784E+02 -0.32141961036E+03  0.32691300917E+03  0.41800000000E+01 0.  1.
         -5    1    3    3    0  502 -0.48833232071E+02  0.64258339821E+02 -0.10944844373E+03  0.13605239074E+03  0.41800000000E+01 0.  1.
        -11    1    1    2    0    0 -0.15561094660E+02  0.10217345472E+02 -0.32070868691E+02  0.37082103960E+02  0.00000000000E+00 0. -1.
         11    1    1    2    0    0  0.30525202645E+02 -0.12343444008E+03 -0.17514443621E+03  0.21643341361E+03  0.00000000000E+00 0.  1.
</event>
<event>
 7    1  0.2840156E-009  0.2944025E+03  0.7561462E-02  0.1088073E+00
         -1   -1    0    0    0  501 -0.00000000000E+00  0.00000000000E+00  0.47055109502E+03  0.47055109502E+03  0.00000000000E+00 0.  1.
          1   -1    0    0  501    0  0.00000000000E+00 -0.00000000000E+00 -0.20211665972E+03  0.20211665972E+03  0.00000000000E+00 0. -1.
         25    2    1    2    0    0 -0.46376667145E+02  0.28392931256E+03  0.15967322220E+03  0.35200801268E+03  0.12508978101E+03 0.  0.
          5    1    3    3  502    0 -0.41567508875E+02  0.23361096881E+03  0.67381536916E+02  0.24669756071E+03  0.41800000000E+01 0. -1.
         -5    1    3    3    0  502 -0.48091582695E+01  0.50318343751E+02  0.92291685282E+02  0.10531045197E+03  0.41800000000E+01 0. -1.
        -11    1    1    2    0    0 -0.99294506396E+01 -0.19666055362E+03  0.82772905573E+02  0.21360084559E+03  0.00000000000E+00 0.  1.
         11    1    1    2    0    0  0.56306117784E+02 -0.87268758943E+02  0.25988307530E+02  0.10705889648E+03  0.00000000000E+00 0. -1.
</event>
<event>
 7    1  0.2840156E-009  0.1082111E+03  0.7561462E-02  0.1263919E+00
         -2   -1    0    0    0  501 -0.00000000000E+00  0.00000000000E+00  0.27166121287E+02  0.27166121287E+02  0.00000000000E+00 0. -1.
          2   -1    0    0  501    0  0.00000000000E+00 -0.00000000000E+00 -0.48918682746E+03  0.48918682746E+03  0.00000000000E+00 0.  1.
         25    2    1    2    0    0 -0.32259798106E+02 -0.28293574218E+02 -0.24147578470E+03  0.27531653826E+03  0.12508965076E+03 0.  0.
          5    1    3    3  502    0 -0.63922668381E+00  0.45032729918E+02 -0.13351027799E+03  0.14096390355E+03  0.41800000000E+01 0. -1.
         -5    1    3    3    0  502 -0.31620571423E+02 -0.73326304136E+02 -0.10796550671E+03  0.13435263471E+03  0.41800000000E+01 0. -1.
        -11    1    1    2    0    0  0.35803979460E+02 -0.21198963740E+02 -0.60130565640E+02  0.73123224307E+02  0.00000000000E+00 0.  1.
         11    1    1    2    0    0 -0.35441813531E+01  0.49492537958E+02 -0.16041435584E+03  0.16791318618E+03  0.00000000000E+00 0. -1.
</event>
<event>
 7    1  0.2840156E-009  0.9250518E+02  0.7561462E-02  0.1296896E+00
          1   -1    0    0  501    0  0.00000000000E+00  0.00000000000E+00  0.20382204347E+02  0.20382204347E+02  0.00000000000E+00 0. -1.
         -1   -1    0    0    0  501 -0.00000000000E+00 -0.00000000000E+00 -0.89172842468E+03  0.89172842468E+03  0.00000000000E+00 0.  1.
         25    2    1    2    0    0  0.58824846152E+02 -0.34033091835E+02 -0.62284763914E+03  0.63890939884E+03  0.12508966572E+03 0.  0.
          5    1    3    3  502    0  0.54507329787E+02  0.47025161205E+01 -0.57239399270E+03  0.57501784140E+03  0.41800000000E+01 0. -1.
         -5    1    3    3    0  502  0.43175163651E+01 -0.38735607956E+02 -0.50453646448E+02  0.63891557432E+02  0.41800000000E+01 0. -1.
        -11    1    1    2    0    0 -0.38532132952E+02 -0.12228088777E+02 -0.19683946349E+03  0.20094781863E+03  0.00000000000E+00 0.  1.
         11    1    1    2    0    0 -0.20292713200E+02  0.46261180612E+02 -0.51659117697E+02  0.72253411558E+02  0.00000000000E+00 0. -1.
</event>
<event>
 7    1  0.2840156E-009  0.9601919E+02  0.7561462E-02  0.1288897E+00
          1   -1    0    0  501    0  0.00000000000E+00  0.00000000000E+00  0.18353371045E+03  0.18353371045E+03  0.00000000000E+00 0. -1.
         -1   -1    0    0    0  501 -0.00000000000E+00 -0.00000000000E+00 -0.10127402518E+03  0.10127402518E+03  0.00000000000E+00 0.  1.
         25    2    1    2    0    0 -0.17980452483E+02  0.13306562710E+02 -0.37912732785E+02  0.13260852966E+03  0.12508911043E+03 0.  0.
          5    1    3    3  502    0 -0.61037412395E+02  0.40715460622E+02 -0.34770935334E+02  0.81300705959E+02  0.41800000000E+01 0. -1.
         -5    1    3    3    0  502  0.43056959912E+02 -0.27408897912E+02 -0.31417974506E+01  0.51307823700E+02  0.41800000000E+01 0. -1.
        -11    1    1    2    0    0  0.26656260827E+02  0.19740476842E+02  0.68920207181E+01  0.33878350267E+02  0.00000000000E+00 0.  1.
         11    1    1    2    0    0 -0.86758083440E+01 -0.33047039553E+02  0.11328039734E+03  0.11832085571E+03  0.00000000000E+00 0. -1.
</event>
<event>
 7    1  0.2840156E-009  0.1028540E+03  0.7561462E-02  0.1274406E+00
         -1   -1    0    0    0  501 -0.00000000000E+00  0.00000000000E+00  0.10626904231E+03  0.10626904231E+03  0.00000000000E+00 0.  1.
          1   -1    0    0  501    0  0.00000000000E+00 -0.00000000000E+00 -0.35356991485E+03  0.35356991485E+03  0.00000000000E+00 0. -1.
         25    2    1    2    0    0  0.84738314676E+02  0.10187858214E+02  0.31537847221E+02  0.15469177026E+03  0.12510209250E+03 0.  0.
          5    1    3    3  502    0  0.68122378343E+02  0.11348671748E+02  0.78529561370E+02  0.10466047578E+03  0.41800000000E+01 0.  1.
         -5    1    3    3    0  502  0.16615936333E+02 -0.11608135344E+01 -0.46991714149E+02  0.50031294476E+02  0.41800000000E+01 0.  1.
        -11    1    1    2    0    0 -0.93305106179E+02  0.13390507608E+02 -0.18015538128E+03  0.20332513356E+03  0.00000000000E+00 0.  1.
         11    1    1    2    0    0  0.85667915035E+01 -0.23578365821E+02 -0.98683338489E+02  0.10182205334E+03  0.00000000000E+00 0. -1.
</event>
<event>
 7    1  0.2840156E-009  0.1265515E+03  0.7561462E-02  0.1232664E+00
         -2   -1    0    0    0  501 -0.00000000000E+00  0.00000000000E+00  0.51909889436E+02  0.51909889436E+02  0.00000000000E+00 0.  1.
          2   -1    0    0  501    0  0.00000000000E+00 -0.00000000000E+00 -0.31670474378E+03  0.31670474378E+03  0.00000000000E+00 0. -1.
         25    2    1    2    0    0  0.47519716679E+02  0.49142735966E+02 -0.13212932707E+03  0.19436897375E+03  0.12509199380E+03 0.  0.
          5    1    3    3  502    0  0.46812765716E+02  0.89852614058E+02 -0.89158702036E+02  0.13502471565E+03  0.41800000000E+01 0. -1.
         -5    1    3    3    0  502  0.70695096238E+00 -0.40709878092E+02 -0.42970625035E+02  0.59344258103E+02  0.41800000000E+01 0. -1.
        -11    1    1    2    0    0 -0.72575054558E+02 -0.44948098515E+02 -0.86371007924E+02  0.12143896045E+03  0.00000000000E+00 0. -1.
         11    1    1    2    0    0  0.25055337879E+02 -0.41946374512E+01 -0.46294519352E+02  0.52806699022E+02  0.00000000000E+00 0.  1.
</event>
<event>
 7    1  0.2840156E-009  0.1289538E+03  0.7561462E-02  0.1229016E+00
         -2   -1    0    0    0  501 -0.00000000000E+00  0.00000000000E+00  0.28037654848E+02  0.28037654848E+02  0.00000000000E+00 0.  1.
          2   -1    0    0  501    0  0.00000000000E+00 -0.00000000000E+00 -0.81620350628E+03  0.81620350628E+03  0.00000000000E+00 0. -1.
         25    2    1    2    0    0  0.88351404010E+01 -0.10183138333E+03 -0.35844409004E+03  0.39316458411E+03  0.12509410127E+03 0.  0.
          5    1    3    3  502    0 -0.23096712472E+02 -0.83384087316E+02 -0.34159140925E+03  0.35240392651E+03  0.41800000000E+01 0. -1.
         -5    1    3    3    0  502  0.31931852873E+02 -0.18447296016E+02 -0.16852680795E+02  0.40760657602E+02  0.41800000000E+01 0. -1.
        -11    1    1    2    0    0 -0.34580070307E+02  0.10274509895E+03 -0.30422704040E+03  0.32296505807E+03  0.00000000000E+00 0.  1.
         11    1    1    2    0    0  0.25744929906E+02 -0.91371562275E+00 -0.12549472098E+03  0.12811151895E+03  0.00000000000E+00 0. -1.
</event>
<event>
 7    1  0.2840156E-009  0.8963617E+02  0.7561462E-02  0.1303735E+00
         -1   -1    0    0    0  501 -0.00000000000E+00  0.00000000000E+00  0.96081125703E+02  0.96081125703E+02  0.00000000000E+00 0.  1.
          1   -1    0    0  501    0  0.00000000000E+00 -0.00000000000E+00 -0.16460309962E+03  0.16460309962E+03  0.00000000000E+00 0. -1.
         25    2    1    2    0    0  0.41935399001E+02 -0.47501858304E+02 -0.53614988623E+02  0.15012227771E+03  0.12508847680E+03 0.  0.
          5    1    3    3  502    0  0.15180897564E+02 -0.74296759579E+02  0.93598125954E+01  0.76521543546E+02  0.41800000000E+01 0.  1.
         -5    1    3    3    0  502  0.26754501437E+02  0.26794901275E+02 -0.62974801219E+02  0.73600734168E+02  0.41800000000E+01 0.  1.
        -11    1    1    2    0    0 -0.13453555233E+02  0.56173825942E+01  0.35944527249E+02  0.38788686170E+02  0.00000000000E+00 0.  1.
         11    1    1    2    0    0 -0.28481843768E+02  0.41884475710E+02 -0.50851512543E+02  0.71773261440E+02  0.00000000000E+00 0. -1.
</event>
<event>
 7    1  0.2840156E-009  0.9142891E+02  0.7561462E-02  0.1299428E+00
         -1   -1    0    0    0  501 -0.00000000000E+00  0.00000000000E+00  0.17968901494E+03  0.17968901494E+03  0.00000000000E+00 0.  1.
          1   -1    0    0  501    0  0.00000000000E+00 -0.00000000000E+00 -0.77436388199E+02  0.77436388199E+02  0.00000000000E+00 0. -1.
         25    2    1    2    0    0 -0.27782656946E+02 -0.12920773597E+01  0.10004072152E+03  0.16257370556E+03  0.12509403777E+03 0.  0.
          5    1    3    3  502    0  0.22411000213E+02 -0.34677639508E+02 -0.45837589318E+01  0.41752543136E+02  0.41800000000E+01 0.  1.
         -5    1    3    3    0  502 -0.50193657160E+02  0.33385562148E+02  0.10462448045E+03  0.12082116242E+03  0.41800000000E+01 0.  1.
        -11    1    1    2    0    0 -0.97491256865E+00  0.35911460484E+02  0.25329110213E+02  0.43956197206E+02  0.00000000000E+00 0.  1.
         11    1    1    2    0    0  0.28757569515E+02 -0.34619383125E+02 -0.23117204987E+02  0.50595500381E+02  0.00000000000E+00 0. -1.
</event>
<event>
 7    1  0.2840156E-009  0.1024061E+03  0.7561462E-02  0.1275316E+00
          1   -1    0    0  501    0  0.00000000000E+00  0.00000000000E+00  0.25568615639E+03  0.25568615639E+03  0.00000000000E+00 0. -1.
         -1   -1    0    0    0  501 -0.00000000000E+00 -0.00000000000E+00 -0.83325145705E+02  0.83325145705E+02  0.00000000000E+00 0.  1.
         25    2    1    2    0    0 -0.45453750601E+02  0.95044190851E+01  0.19089421443E+03  0.23290476186E+03  0.12509056547E+03 0.  0.
          5    1    3    3  502    0 -0.26134344713E+02 -0.57128467720E+02  0.76820943492E+02  0.99325704411E+02  0.41800000000E+01 0.  1.
         -5    1    3    3    0  502 -0.19319405887E+02  0.66632886805E+02  0.11407327093E+03  0.13357905745E+03  0.41800000000E+01 0.  1.
        -11    1    1    2    0    0  0.48784591818E+02  0.12283230640E+02 -0.47849491647E+02  0.69429014141E+02  0.00000000000E+00 0.  1.
         11    1    1    2    0    0 -0.33308412171E+01 -0.21787649725E+02  0.29316287906E+02  0.36677526094E+02  0.00000000000E+00 0. -1.
</event>
<event>
 7    1  0.2840156E-009  0.1942388E+03  0.7561462E-02  0.1154693E+00
         -2   -1    0    0    0  501 -0.00000000000E+00  0.00000000000E+00  0.28070222218E+03  0.28070222218E+03  0.00000000000E+00 0. -1.
          2   -1    0    0  501    0  0.00000000000E+00 -0.00000000000E+00 -0.15504255934E+03  0.15504255934E+03  0.00000000000E+00 0.  1.
         25    2    1    2    0    0 -0.17444616212E+01  0.17739672410E+03  0.57136026266E+02  0.22446480435E+03  0.12508909636E+03 0.  0.
          5    1    3    3  502    0  0.32309954985E+02  0.80840557420E+02  0.81292636574E+02  0.11918512523E+03  0.41800000000E+01 0. -1.
         -5    1    3    3    0  502 -0.34054416606E+02  0.96556166679E+02 -0.24156610308E+02  0.10527967912E+03  0.41800000000E+01 0. -1.
        -11    1    1    2    0    0  0.42256277174E+02 -0.12894111448E+03  0.36744106146E+02  0.14057572088E+03  0.00000000000E+00 0.  1.
         11    1    1    2    0    0 -0.40511815553E+02 -0.48455609620E+02  0.31779530428E+02  0.70704256288E+02  0.00000000000E+00 0. -1.
</event>
<event>
 7    1  0.2840156E-009  0.7226847E+02  0.7561462E-02  0.1352545E+00
          2   -1    0    0  501    0  0.00000000000E+00  0.00000000000E+00  0.23782920539E+03  0.23782920539E+03  0.00000000000E+00 0. -1.
         -2   -1    0    0    0  501 -0.00000000000E+00 -0.00000000000E+00 -0.96940321512E+02  0.96940321512E+02  0.00000000000E+00 0.  1.
         25    2    1    2    0    0  0.46596486848E+02  0.14846280847E+02 -0.23382384135E+02  0.13632726531E+03  0.12508694071E+03 0.  0.
          5    1    3    3  502    0  0.16969844703E+02  0.14469796292E+01 -0.73983994720E+02  0.76034026948E+02  0.41800000000E+01 0.  1.
         -5    1    3    3    0  502  0.29626642145E+02  0.13399301218E+02  0.50601610584E+02  0.60293238358E+02  0.41800000000E+01 0.  1.
        -11    1    1    2    0    0 -0.60825618087E+02 -0.34518556509E+02  0.62435264058E+02  0.93752060015E+02  0.00000000000E+00 0.  1.
         11    1    1    2    0    0  0.14229131239E+02  0.19672275662E+02  0.10183600396E+03  0.10469020159E+03  0.00000000000E+00 0. -1.
</event>
<event>
 7    1  0.2840156E-009  0.7805451E+02  0.7561462E-02  0.1334665E+00
          2   -1    0    0  501    0  0.00000000000E+00  0.00000000000E+00  0.39731725000E+03  0.39731725000E+03  0.00000000000E+00 0. -1.
         -2   -1    0    0    0  501 -0.00000000000E+00 -0.00000000000E+00 -0.35816572429E+02  0.35816572429E+02  0.00000000000E+00 0.  1.
         25    2    1    2    0    0 -0.11108090596E+02  0.30314928806E+02  0.14265965077E+03  0.19245936638E+03  0.12508575923E+03 0.  0.
          5    1    3    3  502    0 -0.46617988490E+02  0.33923755239E+02  0.14534907823E+03  0.15642213706E+03  0.41800000000E+01 0. -1.
         -5    1    3    3    0  502  0.35509897893E+02 -0.36088264328E+01 -0.26894274578E+01  0.36037229315E+02  0.41800000000E+01 0. -1.
        -11    1    1    2    0    0 -0.26390386826E+01 -0.43344957458E+02  0.21738229410E+03  0.22167726913E+03  0.00000000000E+00 0. -1.
         11    1    1    2    0    0  0.13747129279E+02  0.13030028652E+02  0.14587327064E+01  0.18997186928E+02  0.00000000000E+00 0.  1.
</event>
<event>
 7    1  0.2840156E-009  0.8648232E+02  0.7561462E-02  0.1311601E+00
         -2   -1    0    0    0  501 -0.00000000000E+00  0.00000000000E+00  0.10976164579E+02  0.10976164579E+02  0.00000000000E+00 0.  1.
          2   -1    0    0  501    0  0.00000000000E+00 -0.00000000000E+00 -0.12346461097E+04  0.12346461097E+04  0.00000000000E+00 0. -1.
         25    2    1    2    0    0  0.62552482073E+00  0.17000680027E+02 -0.88804919531E+03  0.89697734734E+03  0.12509026323E+03 0.  0.
          5    1    3    3  502    0 -0.23492483130E+02 -0.23405027067E+02 -0.75588644357E+03  0.75662505908E+03  0.41800000000E+01 0.  1.
         -5    1    3    3    0  502  0.24118007951E+02  0.40405707094E+02 -0.13216275174E+03  0.14035228826E+03  0.41800000000E+01 0.  1.
        -11    1    1    2    0    0 -0.40175315084E+02  0.13469209557E+02 -0.11819923833E+03  0.12556486566E+03  0.00000000000E+00 0.  1.
         11    1    1    2    0    0  0.39549790263E+02 -0.30469889584E+02 -0.21742151152E+03  0.22308006131E+03  0.00000000000E+00 0. -1.
</event>
<event>
 7    1  0.2840156E-009  0.1390448E+03  0.7561462E-02  0.1214620E+00
         -1   -1    0    0    0  501 -0.00000000000E+00  0.00000000000E+00  0.89315514623E+03  0.89315514623E+03  0.00000000000E+00 0.  1.
          1   -1    0    0  501    0  0.00000000000E+00 -0.00000000000E+00 -0.26817767561E+02  0.26817767561E+02  0.00000000000E+00 0. -1.
         25    2    1    2    0    0  0.42767540764E+01  0.10810756157E+03  0.39859953418E+03  0.43154895317E+03  0.12508946733E+03 0.  0.
          5    1    3    3  502    0 -0.95044048260E+01 -0.26009457010E+02  0.43955843226E+02  0.52119229837E+02  0.41800000000E+01 0.  1.
         -5    1    3    3    0  502  0.13781158902E+02  0.13411701859E+03  0.35464369095E+03  0.37942972333E+03  0.41800000000E+01 0.  1.
        -11    1    1    2    0    0  0.15539565406E+02 -0.22629209038E+02  0.25176695436E+02  0.37248156837E+02  0.00000000000E+00 0. -1.
         11    1    1    2    0    0 -0.19816319482E+02 -0.85478352537E+02  0.44256114905E+03  0.45117580378E+03  0.00000000000E+00 0.  1.
</event>
<event>
 7    1  0.2840156E-009  0.1850986E+03  0.7561462E-02  0.1162958E+00
         -2   -1    0    0    0  501 -0.00000000000E+00  0.00000000000E+00  0.33669663162E+03  0.33669663162E+03  0.00000000000E+00 0.  1.
          2   -1    0    0  501    0  0.00000000000E+00 -0.00000000000E+00 -0.22170782155E+03  0.22170782155E+03  0.00000000000E+00 0. -1.
         25    2    1    2    0    0 -0.11923095342E+03  0.11229087498E+03 -0.13848484206E+03  0.24829591373E+03  0.12509016122E+03 0.  0.
          5    1    3    3  502    0  0.24870505402E+02  0.23760322607E+02 -0.10636382529E+02  0.36244999692E+02  0.41800000000E+01 0. -1.
         -5    1    3    3    0  502 -0.14410145882E+03  0.88530552375E+02 -0.12784845953E+03  0.21205091403E+03  0.41800000000E+01 0. -1.
        -11    1    1    2    0    0  0.70004934326E+02 -0.45852503293E+02  0.18389801821E+03  0.20204361903E+03  0.00000000000E+00 0.  1.
         11    1    1    2    0    0  0.49226019089E+02 -0.66438371689E+02  0.69575633918E+02  0.10806492041E+03  0.00000000000E+00 0. -1.
</event>
<event>
 7    1  0.2840156E-009  0.1662805E+03  0.7561462E-02  0.1181783E+00
          2   -1    0    0  501    0  0.00000000000E+00  0.00000000000E+00  0.30988742548E+03  0.30988742548E+03  0.00000000000E+00 0. -1.
         -2   -1    0    0    0  501 -0.00000000000E+00 -0.00000000000E+00 -0.10656981460E+03  0.10656981460E+03  0.00000000000E+00 0.  1.
         25    2    1    2    0    0 -0.10487063746E+03  0.78612880104E+02  0.36018515840E+02  0.18472940708E+03  0.12509910007E+03 0.  0.
          5    1    3    3  502    0 -0.89541649083E+02 -0.65493204668E+01  0.39164848930E+02  0.98040595218E+02  0.41800000000E+01 0. -1.
         -5    1    3    3    0  502 -0.15328988381E+02  0.85162200570E+02 -0.31463330907E+01  0.86688811866E+02  0.41800000000E+01 0. -1.
        -11    1    1    2    0    0  0.45863891208E+02 -0.85117024558E+02  0.76714058068E+02  0.12342386759E+03  0.00000000000E+00 0. -1.
         11    1    1    2    0    0  0.59006746255E+02  0.65041444540E+01  0.90585036969E+02  0.10830396540E+03  0.00000000000E+00 0.  1.
</event>
<event>
 7    1  0.2840156E-009  0.1495202E+03  0.7561462E-02  0.1201064E+00
          1   -1    0    0  501    0  0.00000000000E+00  0.00000000000E+00  0.30373013991E+03  0.30373013991E+03  0.00000000000E+00 0. -1.
         -1   -1    0    0    0  501 -0.00000000000E+00 -0.00000000000E+00 -0.15196820936E+03  0.15196820936E+03  0.00000000000E+00 0.  1.
         25    2    1    2    0    0  0.97853324458E+02 -0.82650323660E+02 -0.62412186854E+02  0.18960298580E+03  0.12509061535E+03 0.  0.
          5    1    3    3  502    0  0.11917390165E+03 -0.74616083359E+02 -0.78792802630E+02  0.16123199706E+03  0.41800000000E+01 0.  1.
         -5    1    3    3    0  502 -0.21320577191E+02 -0.80342403011E+01  0.16380615777E+02  0.28370988742E+02  0.41800000000E+01 0.  1.
        -11    1    1    2    0    0 -0.38025223713E+02  0.68427213166E+01  0.95070658249E+01  0.39788500525E+02  0.00000000000E+00 0.  1.
         11    1    1    2    0    0 -0.59828100745E+02  0.75807602343E+02  0.20466705158E+03  0.22630686294E+03  0.00000000000E+00 0. -1.
</event>
<event>
 7    1  0.2840156E-009  0.1350620E+03  0.7561462E-02  0.1220132E+00
          1   -1    0    0  501    0  0.00000000000E+00  0.00000000000E+00  0.16059227391E+03  0.16059227391E+03  0.00000000000E+00 0. -1.
         -1   -1    0    0    0  501 -0.00000000000E+00 -0.00000000000E+00 -0.22289310267E+03  0.22289310267E+03  0.00000000000E+00 0.  1.
         25    2    1    2    0    0 -0.11605840751E+03  0.24554857834E+02 -0.12993813397E+03  0.21587844464E+03  0.12508832561E+03 0.  0.
          5    1    3    3  502    0 -0.78984856229E+02  0.32718523749E+02 -0.55677603899E+01  0.85776346772E+02  0.41800000000E+01 0. -1.
         -5    1    3    3    0  502 -0.37073551279E+02 -0.81636659153E+01 -0.12437037358E+03  0.13010209787E+03  0.41800000000E+01 0. -1.
        -11    1    1    2    0    0  0.43753080040E+02 -0.52922129735E+02  0.56938961003E+02  0.89202741599E+02  0.00000000000E+00 0. -1.
         11    1    1    2    0    0  0.72305327467E+02  0.28367271901E+02  0.10698344201E+02  0.78404190347E+02  0.00000000000E+00 0.  1.
</event>
<event>
 7    1  0.2840156E-009  0.1012991E+03  0.7561462E-02  0.1277588E+00
         -1   -1    0    0    0  501 -0.00000000000E+00  0.00000000000E+00  0.19719370868E+02  0.19719370868E+02  0.00000000000E+00 0.  1.
          1   -1    0    0  501    0  0.00000000000E+00 -0.00000000000E+00 -0.78509527234E+03  0.78509527234E+03  0.00000000000E+00 0. -1.
         25    2    1    2    0    0  0.48342341521E+02 -0.33938665096E+02 -0.42577568203E+03  0.44768472956E+03  0.12509144937E+03 0.  0.
          5    1    3    3  502    0  0.25919017934E+02 -0.55758373717E+02 -0.82589449482E+02  0.10304989712E+03  0.41800000000E+01 0. -1.
         -5    1    3    3    0  502  0.22423323587E+02  0.21819708621E+02 -0.34318623255E+03  0.34463483245E+03  0.41800000000E+01 0. -1.
        -11    1    1    2    0    0 -0.36962346798E+02 -0.28035835893E+02 -0.16950146598E+03  0.17573551190E+03  0.00000000000E+00 0.  1.
         11    1    1    2    0    0 -0.11379994722E+02  0.61974500989E+02 -0.17009875347E+03  0.18139440175E+03  0.00000000000E+00 0. -1.
</event>
<event>
 7    1  0.2840156E-009  0.1208574E+03  0.7561462E-02  0.1241689E+00
         -1   -1    0    0    0  501 -0.00000000000E+00  0.00000000000E+00  0.25500475576E+02  0.25500475576E+02  0.00000000000E+00 0. -1.
          1   -1    0    0  501    0  0.00000000000E+00 -0.00000000000E+00 -0.72820753043E+03  0.72820753043E+03  0.00000000000E+00 0.  1.
         25    2    1    2    0    0  0.52258214895E+02 -0.15416546848E+02 -0.54827214861E+03  0.56499247130E+03  0.12508218399E+03 0.  0.
          5    1    3    3  502    0  0.82062141738E+02 -0.45455677890E+02 -0.37447613124E+03  0.38607027732E+03  0.41800000000E+01 0. -1.
         -5    1    3    3    0  502 -0.29803926843E+02  0.30039131042E+02 -0.17379601736E+03  0.17892219399E+03  0.41800000000E+01 0. -1.
        -11    1    1    2    0    0  0.68879980419E+01 -0.29960334652E+02 -0.67657684483E+02  0.74314389179E+02  0.00000000000E+00 0.  1.
         11    1    1    2    0    0 -0.59146212937E+02  0.45376881500E+02 -0.86777221764E+02  0.11440114552E+03  0.00000000000E+00 0. -1.
</event>
<event>
 7    1  0.2840156E-009  0.1301314E+03  0.7561462E-02  0.1227261E+00
          3   -1    0    0  501    0  0.00000000000E+00  0.00000000000E+00  0.58508194109E+03  0.58508194109E+03  0.00000000000E+00 0. -1.
         -3   -1    0    0    0  501 -0.00000000000E+00 -0.00000000000E+00 -0.54933251219E+02  0.54933251219E+02  0.00000000000E+00 0.  1.
         25    2    1    2    0    0 -0.30181608953E+02  0.11546572424E+03  0.14318126368E+03  0.22448152577E+03  0.12509123930E+03 0.  0.
          5    1    3    3  502    0 -0.12981945626E+02  0.38998356432E+02  0.13995546781E+03  0.14592603635E+03  0.41800000000E+01 0. -1.
         -5    1    3    3    0  502 -0.17199663327E+02  0.76467367812E+02  0.32257958699E+01  0.78555489418E+02  0.41800000000E+01 0. -1.
        -11    1    1    2    0    0  0.41340811219E+02 -0.22971684590E+02  0.21303185913E+03  0.21821854635E+03  0.00000000000E+00 0. -1.
         11    1    1    2    0    0 -0.11159202266E+02 -0.92494039654E+02  0.17393556707E+03  0.19731512019E+03  0.00000000000E+00 0.  1.
</event>
<event>
 7    1  0.2840156E-009  0.1597286E+03  0.7561462E-02  0.1189004E+00
         -1   -1    0    0    0  501 -0.00000000000E+00  0.00000000000E+00  0.43796364839E+02  0.43796364839E+02  0.00000000000E+00 0.  1.
          1   -1    0    0  501    0  0.00000000000E+00 -0.00000000000E+00 -0.82011622315E+03  0.82011622315E+03  0.00000000000E+00 0. -1.
         25    2    1    2    0    0 -0.85953562790E+02 -0.11255390795E+03 -0.26481507843E+03  0.32531662290E+03  0.12508989655E+03 0.  0.
          5    1    3    3  502    0 -0.12048623129E+02  0.37108428333E+01 -0.13605074754E+03  0.13669754197E+03  0.41800000000E+01 0.  1.
         -5    1    3    3    0  502 -0.73904939662E+02 -0.11626475079E+03 -0.12876433089E+03  0.18861908094E+03  0.41800000000E+01 0.  1.
        -11    1    1    2    0    0 -0.19299798330E+02  0.23986991148E+02 -0.81308584480E+02  0.86942186941E+02  0.00000000000E+00 0.  1.
         11    1    1    2    0    0  0.10525336112E+03  0.88566916806E+02 -0.43019619540E+03  0.45165377815E+03  0.00000000000E+00 0. -1.
</event>
<event>
 7    1  0.2840156E-009  0.1474462E+03  0.7561462E-02  0.1203647E+00
         -1   -1    0    0    0  501 -0.00000000000E+00  0.00000000000E+00  0.12860240171E+03  0.12860240171E+03  0.00000000000E+00 0.  1.
          1   -1    0    0  501    0  0.00000000000E+00 -0.00000000000E+00 -0.30177788296E+03  0.30177788296E+03  0.00000000000E+00 0. -1.
         25    2    1    2    0    0  0.42649174336E+02 -0.12539504755E+03  0.16572073264E+02  0.18293473048E+03  0.12509041523E+03 0.  0.
          5    1    3    3  502    0  0.66755291430E+02 -0.64158674764E+02 -0.35153486954E+02  0.99125397989E+02  0.41800000000E+01 0. -1.
         -5    1    3    3    0  502 -0.24106117094E+02 -0.61236372785E+02  0.51725560218E+02  0.83809332494E+02  0.41800000000E+01 0. -1.
        -11    1    1    2    0    0 -0.16536463814E+02  0.13447711929E+02  0.44520257595E+01  0.21774207791E+02  0.00000000000E+00 0.  1.
         11    1    1    2    0    0 -0.26112710522E+02  0.11194733562E+03 -0.19419958028E+03  0.22567134639E+03  0.00000000000E+00 0. -1.
</event>
<event>
 7    1  0.2840156E-009  0.1541982E+03  0.7561462E-02  0.1195407E+00
         -2   -1    0    0    0  501 -0.00000000000E+00  0.00000000000E+00  0.26056589720E+03  0.26056589720E+03  0.00000000000E+00 0.  1.
          2   -1    0    0  501    0  0.00000000000E+00 -0.00000000000E+00 -0.10231802578E+03  0.10231802578E+03  0.00000000000E+00 0. -1.
         25    2    1    2    0    0  0.88339177720E+02 -0.82548790542E+02  0.10286503416E+03  0.20210983308E+03  0.12509618793E+03 0.  0.
          5    1    3    3  502    0  0.10084030910E+03 -0.96266936497E+02  0.11393709387E+03  0.18009781998E+03  0.41800000000E+01 0. -1.
         -5    1    3    3    0  502 -0.12501131383E+02  0.13718145955E+02 -0.11072059710E+02  0.22012013096E+02  0.41800000000E+01 0. -1.
        -11    1    1    2    0    0 -0.91187900034E+02  0.28166701584E+02  0.26099355507E+02  0.98943279451E+02  0.00000000000E+00 0.  1.
         11    1    1    2    0    0  0.28487223136E+01  0.54382088958E+02  0.29283481752E+02  0.61830810457E+02  0.00000000000E+00 0. -1.
</event>
<event>
 7    1  0.2840156E-009  0.1719084E+03  0.7561462E-02  0.1175872E+00
          1   -1    0    0  501    0  0.00000000000E+00  0.00000000000E+00  0.21411683052E+02  0.21411683052E+02  0.00000000000E+00 0. -1.
         -1   -1    0    0    0  501 -0.00000000000E+00 -0.00000000000E+00 -0.13998648067E+04  0.13998648067E+04  0.00000000000E+00 0.  1.
         25    2    1    2    0    0  0.83100517746E+01 -0.13140976145E+03 -0.74875204827E+03  0.77046353679E+03  0.12508736694E+03 0.  0.
          5    1    3    3  502    0  0.27997065013E+01  0.24672384095E+02 -0.91986468104E+02  0.95370580410E+02  0.41800000000E+01 0.  1.
         -5    1    3    3    0  502  0.55103452733E+01 -0.15608214554E+03 -0.65676558017E+03  0.67509295638E+03  0.41800000000E+01 0.  1.
        -11    1    1    2    0    0  0.30159733533E+02  0.53861305435E+01 -0.16366320269E+03  0.16650604747E+03  0.00000000000E+00 0.  1.
         11    1    1    2    0    0 -0.38469785308E+02  0.12602363090E+03 -0.46603787264E+03  0.48430690545E+03  0.00000000000E+00 0. -1.
</event>
<event>
 7    1  0.2840156E-009  0.1423594E+03  0.7561462E-02  0.1210189E+00
         -2   -1    0    0    0  501 -0.00000000000E+00  0.00000000000E+00  0.51961691888E+03  0.51961691888E+03  0.00000000000E+00 0.  1.
          2   -1    0    0  501    0  0.00000000000E+00 -0.00000000000E+00 -0.61944761213E+02  0.61944761213E+02  0.00000000000E+00 0. -1.
         25    2    1    2    0    0  0.11983062729E+03 -0.29507824565E+02  0.35669754310E+03  0.39763278728E+03  0.12509438565E+03 0.  0.
          5    1    3    3  502    0  0.83811932242E+02  0.28313455255E+02  0.28586339175E+03  0.29926817886E+03  0.41800000000E+01 0.  1.
         -5    1    3    3    0  502  0.36018695047E+02 -0.57821279820E+02  0.70834151346E+02  0.98364608421E+02  0.41800000000E+01 0.  1.
        -11    1    1    2    0    0 -0.11361087363E+03  0.18284181288E+02  0.11652514853E+03  0.16376767732E+03  0.00000000000E+00 0.  1.
         11    1    1    2    0    0 -0.62197536539E+01  0.11223643278E+02 -0.15550533959E+02  0.20161215498E+02  0.00000000000E+00 0. -1.
</event>
<event>
 7    1  0.2840156E-009  0.3060306E+03  0.7561462E-02  0.1082264E+00
          2   -1    0    0  501    0  0.00000000000E+00  0.00000000000E+00  0.80478204770E+03  0.80478204770E+03  0.00000000000E+00 0. -1.
         -2   -1    0    0    0  501 -0.00000000000E+00 -0.00000000000E+00 -0.12998143692E+03  0.12998143692E+03  0.00000000000E+00 0.  1.
         25    2    1    2    0    0 -0.28823033896E+03  0.36912814822E+02  0.47642197251E+03  0.57189646128E+03  0.12509349435E+03 0.  0.
          5    1    3    3  502    0 -0.15777110277E+03  0.82217214328E+02  0.27928579914E+03  0.33116373775E+03  0.41800000000E+01 0.  1.
         -5    1    3    3    0  502 -0.13045923619E+03 -0.45304399507E+02  0.19713617337E+03  0.24073272352E+03  0.41800000000E+01 0.  1.
        -11    1    1    2    0    0  0.10866302709E+03  0.13323261281E+02  0.34946610264E+02  0.11491922518E+03  0.00000000000E+00 0.  1.
         11    1    1    2    0    0  0.17956731187E+03 -0.50236076102E+02  0.16343202800E+03  0.24794779816E+03  0.00000000000E+00 0. -1.
</event>
<event>
 7    1  0.2840156E-009  0.1126740E+03  0.7561462E-02  0.1255697E+00
          2   -1    0    0  501    0  0.00000000000E+00  0.00000000000E+00  0.54154139433E+02  0.54154139433E+02  0.00000000000E+00 0. -1.
         -2   -1    0    0    0  501 -0.00000000000E+00 -0.00000000000E+00 -0.29688471466E+03  0.29688471466E+03  0.00000000000E+00 0.  1.
         25    2    1    2    0    0  0.35724631481E+02 -0.14383942208E+02 -0.20948016884E+03  0.24701029022E+03  0.12509594417E+03 0.  0.
          5    1    3    3  502    0 -0.44285079255E+02 -0.15253556486E+02 -0.10737735330E+03  0.11722289722E+03  0.41800000000E+01 0. -1.
         -5    1    3    3    0  502  0.80009710736E+02  0.86961427794E+00 -0.10210281554E+03  0.12978739300E+03  0.41800000000E+01 0. -1.
        -11    1    1    2    0    0 -0.15800531498E+02 -0.38538173244E+02 -0.18582971819E+02  0.45608929325E+02  0.00000000000E+00 0. -1.
         11    1    1    2    0    0 -0.19924099983E+02  0.52922115451E+02 -0.14667434570E+02  0.58419634549E+02  0.00000000000E+00 0.  1.
</event>
<event>
 7    1  0.2840156E-009  0.2036478E+03  0.7561462E-02  0.1146697E+00
          2   -1    0    0  501    0  0.00000000000E+00  0.00000000000E+00  0.16721828974E+04  0.16721828974E+04  0.00000000000E+00 0.  1.
         -2   -1    0    0    0  501 -0.00000000000E+00 -0.00000000000E+00 -0.71032058820E+02  0.71032058820E+02  0.00000000000E+00 0. -1.
         25    2    1    2    0    0 -0.17358781572E+03 -0.74552971793E+02  0.14804928100E+04  0.14977307058E+04  0.12508969263E+03 0.  0.
          5    1    3    3  502    0 -0.78665652821E+02 -0.91636224247E+02  0.60642933407E+03  0.61835223954E+03  0.41800000000E+01 0.  1.
         -5    1    3    3    0  502 -0.94922162902E+02  0.17083252454E+02  0.87406347591E+03  0.87937846621E+03  0.41800000000E+01 0.  1.
        -11    1    1    2    0    0  0.10371052064E+03  0.34097324370E+02  0.11596042056E+02  0.10978600918E+03  0.00000000000E+00 0.  1.
         11    1    1    2    0    0  0.69877295081E+02  0.40455647423E+02  0.10906198654E+03  0.13569824127E+03  0.00000000000E+00 0. -1.
</event>
<event>
 7    1  0.2840156E-009  0.1256835E+03  0.7561462E-02  0.1234005E+00
          1   -1    0    0  501    0  0.00000000000E+00  0.00000000000E+00  0.19137041116E+03  0.19137041116E+03  0.00000000000E+00 0. -1.
         -1   -1    0    0    0  501 -0.00000000000E+00 -0.00000000000E+00 -0.10614787063E+03  0.10614787063E+03  0.00000000000E+00 0.  1.
         25    2    1    2    0    0  0.25614324247E+02  0.84198366892E+02  0.16843703496E+02  0.15387216006E+03  0.12508985850E+03 0.  0.
          5    1    3    3  502    0 -0.47882976679E+02  0.43952107138E+02 -0.97552093459E+01  0.65857449745E+02  0.41800000000E+01 0. -1.
         -5    1    3    3    0  502  0.73497300927E+02  0.40246259754E+02  0.26598912842E+02  0.88014710316E+02  0.41800000000E+01 0. -1.
        -11    1    1    2    0    0  0.43334448253E+01 -0.68287241451E+02  0.12481285388E+01  0.68435984057E+02  0.00000000000E+00 0.  1.
         11    1    1    2    0    0 -0.29947769073E+02 -0.15911125441E+02  0.67130708501E+02  0.75210137675E+02  0.00000000000E+00 0. -1.
</event>
<event>
 7    1  0.2840156E-009  0.1017904E+03  0.7561462E-02  0.1276575E+00
         -2   -1    0    0    0  501 -0.00000000000E+00  0.00000000000E+00  0.68610993569E+02  0.68610993569E+02  0.00000000000E+00 0.  1.
          2   -1    0    0  501    0  0.00000000000E+00 -0.00000000000E+00 -0.21393434924E+03  0.21393434924E+03  0.00000000000E+00 0. -1.
         25    2    1    2    0    0 -0.12328432103E+02 -0.16819862812E+02 -0.13998024096E+03  0.18888247159E+03  0.12508885719E+03 0.  0.
          5    1    3    3  502    0 -0.40035553889E+02 -0.58927445315E+02 -0.10659845159E+03  0.12828090921E+03  0.41800000000E+01 0. -1.
         -5    1    3    3    0  502  0.27707121786E+02  0.42107582503E+02 -0.33381789362E+02  0.60601562380E+02  0.41800000000E+01 0. -1.
        -11    1    1    2    0    0 -0.26584649436E+02  0.30436357845E+02  0.20185000494E+02  0.45172444139E+02  0.00000000000E+00 0.  1.
         11    1    1    2    0    0  0.38913081539E+02 -0.13616495033E+02 -0.25528115209E+02  0.48490427076E+02  0.00000000000E+00 0. -1.
</event>
<event>
 7    1  0.2840156E-009  0.1347929E+03  0.7561462E-02  0.1220512E+00
         -2   -1    0    0    0  501 -0.00000000000E+00  0.00000000000E+00  0.12395438232E+03  0.12395438232E+03  0.00000000000E+00 0.  1.
          2   -1    0    0  501    0  0.00000000000E+00 -0.00000000000E+00 -0.25467541886E+03  0.25467541886E+03  0.00000000000E+00 0. -1.
         25    2    1    2    0    0  0.10333538855E+03  0.33868888445E+02  0.25927500767E+02  0.16776311077E+03  0.12508765690E+03 0.  0.
          5    1    3    3  502    0  0.10913252662E+03  0.17679596965E+01  0.56400018798E+02  0.12292871336E+03  0.41800000000E+01 0.  1.
         -5    1    3    3    0  502 -0.57971380663E+01  0.32100928749E+02 -0.30472518031E+02  0.44834397414E+02  0.41800000000E+01 0.  1.
        -11    1    1    2    0    0 -0.31518382875E+02 -0.44853097615E+02 -0.11431701172E+03  0.12678165480E+03  0.00000000000E+00 0. -1.
         11    1    1    2    0    0 -0.71817005679E+02  0.10984209169E+02 -0.42331525579E+02  0.84085035610E+02  0.00000000000E+00 0.  1.
</event>
<event>
 7    1  0.3374311E-009  0.1569375E+03  0.7561462E-02  0.1192198E+00
          1   -1    0    0  501    0  0.00000000000E+00  0.00000000000E+00  0.17760309967E+04  0.17760309967E+04  0.00000000000E+00 0. -1.
         -1   -1    0    0    0  501 -0.00000000000E+00 -0.00000000000E+00 -0.19601422097E+02  0.19601422097E+02  0.00000000000E+00 0.  1.
         25    2    1    2    0    0 -0.23419778998E+02  0.12321974589E+03  0.13343444997E+04  0.13460514280E+04  0.12509041167E+03 0.  0.
          5    1    3    3  502    0 -0.34237734761E+02 -0.13511075828E+02  0.39561364576E+03  0.39734418425E+03  0.41800000000E+01 0. -1.
         -5    1    3    3    0  502  0.10817955763E+02  0.13673082172E+03  0.93873085391E+03  0.94870724371E+03  0.41800000000E+01 0. -1.
        -11    1    1    2    0    0 -0.21105896374E+02 -0.40058658957E+02  0.24288459151E+03  0.24706897785E+03  0.00000000000E+00 0. -1.
         11    1    1    2    0    0  0.44525675371E+02 -0.83161086932E+02  0.17920048341E+03  0.20251201298E+03  0.00000000000E+00 0.  1.
</event>
<event>
 7    1  0.2840156E-009  0.8367631E+02  0.7561462E-02  0.1318931E+00
          1   -1    0    0  501    0  0.00000000000E+00  0.00000000000E+00  0.25012368516E+03  0.25012368516E+03  0.00000000000E+00 0.  1.
         -1   -1    0    0    0  501 -0.00000000000E+00 -0.00000000000E+00 -0.63597848520E+02  0.63597848520E+02  0.00000000000E+00 0. -1.
         25    2    1    2    0    0 -0.29505118866E+02  0.54835852921E+02  0.10468916463E+03  0.17460138950E+03  0.12509317016E+03 0.  0.
          5    1    3    3  502    0 -0.19550748145E+02  0.39521427332E+02  0.13326385616E+03  0.14043113163E+03  0.41800000000E+01 0.  1.
         -5    1    3    3    0  502 -0.99543707211E+01  0.15314425590E+02 -0.28574691525E+02  0.34170257877E+02  0.41800000000E+01 0.  1.
        -11    1    1    2    0    0  0.50140692094E+02 -0.50047816121E+01  0.65748110113E+02  0.82836892904E+02  0.00000000000E+00 0.  1.
         11    1    1    2    0    0 -0.20635573228E+02 -0.49831071309E+02  0.16088561897E+02  0.56283251276E+02  0.00000000000E+00 0. -1.
</event>
<event>
 7    1  0.2840156E-009  0.1052923E+03  0.7561462E-02  0.1269545E+00
          2   -1    0    0  501    0  0.00000000000E+00  0.00000000000E+00  0.31842023157E+03  0.31842023157E+03  0.00000000000E+00 0. -1.
         -2   -1    0    0    0  501 -0.00000000000E+00 -0.00000000000E+00 -0.40999853909E+02  0.40999853909E+02  0.00000000000E+00 0.  1.
         25    2    1    2    0    0 -0.38083880497E+02 -0.71064400107E+01  0.15077951571E+03  0.19970701067E+03  0.12509014473E+03 0.  0.
          5    1    3    3  502    0 -0.70959682941E+02 -0.40498668141E+02  0.77928360683E+02  0.11298548811E+03  0.41800000000E+01 0. -1.
         -5    1    3    3    0  502  0.32875802444E+02  0.33392228130E+02  0.72851155028E+02  0.86721522558E+02  0.41800000000E+01 0. -1.
        -11    1    1    2    0    0  0.25883460316E+02 -0.31772043819E+02  0.20097487470E+02  0.45643458337E+02  0.00000000000E+00 0.  1.
         11    1    1    2    0    0  0.12200420181E+02  0.38878483829E+02  0.10654337448E+03  0.11406961648E+03  0.00000000000E+00 0. -1.
</event>
<event>
 7    1  0.2840156E-009  0.1175731E+03  0.7561462E-02  0.1247155E+00
         -3   -1    0    0    0  501 -0.00000000000E+00  0.00000000000E+00  0.45968024868E+02  0.45968024868E+02  0.00000000000E+00 0.  1.
          3   -1    0    0  501    0  0.00000000000E+00 -0.00000000000E+00 -0.48090713602E+03  0.48090713602E+03  0.00000000000E+00 0. -1.
         25    2    1    2    0    0 -0.48636144564E+02  0.54767346207E+02 -0.35022395241E+03  0.37903640145E+03  0.12508732952E+03 0.  0.
          5    1    3    3  502    0 -0.62117095033E+02  0.29525693510E+01 -0.70058925889E+02  0.93770873184E+02  0.41800000000E+01 0.  1.
         -5    1    3    3    0  502  0.13480950468E+02  0.51814776856E+02 -0.28016502653E+03  0.28526552826E+03  0.41800000000E+01 0.  1.
        -11    1    1    2    0    0 -0.17733151321E+02  0.14704506035E+02 -0.64660269256E+01  0.23926902385E+02  0.00000000000E+00 0.  1.
         11    1    1    2    0    0  0.66369295886E+02 -0.69471852242E+02 -0.78249131815E+02  0.12391185706E+03  0.00000000000E+00 0. -1.
</event>
<event>
 7    1  0.2840156E-009  0.1124062E+03  0.7561462E-02  0.1256178E+00
         -2   -1    0    0    0  501 -0.00000000000E+00  0.00000000000E+00  0.18117936583E+03  0.18117936583E+03  0.00000000000E+00 0.  1.
          2   -1    0    0  501    0  0.00000000000E+00 -0.00000000000E+00 -0.82163587606E+02  0.82163587606E+02  0.00000000000E+00 0. -1.
         25    2    1    2    0    0  0.43648510900E+02  0.29376137445E+02  0.35495773734E+02  0.14026120760E+03  0.12508039994E+03 0.  0.
          5    1    3    3  502    0  0.30619704720E+01 -0.39292137368E+02 -0.18611657538E+02  0.43784859466E+02  0.41800000000E+01 0. -1.
         -5    1    3    3    0  502  0.40586540428E+02  0.68668274813E+02  0.54107431272E+02  0.96476348130E+02  0.41800000000E+01 0. -1.
        -11    1    1    2    0    0 -0.50107788608E+02  0.21134724167E+02  0.29870953106E+02  0.62046280181E+02  0.00000000000E+00 0.  1.
         11    1    1    2    0    0  0.64592777081E+01 -0.50510861611E+02  0.33649051382E+02  0.61035465658E+02  0.00000000000E+00 0. -1.
</event>
<event>
 7    1  0.2840156E-009  0.1082969E+03  0.7561462E-02  0.1263757E+00
          4   -1    0    0  501    0  0.00000000000E+00  0.00000000000E+00  0.15146063743E+03  0.15146063743E+03  0.00000000000E+00 0. -1.
         -4   -1    0    0    0  501 -0.00000000000E+00 -0.00000000000E+00 -0.12170660842E+03  0.12170660842E+03  0.00000000000E+00 0.  1.
         25    2    1    2    0    0 -0.65345859325E+02  0.35822990233E+02  0.49455280038E+02  0.15376961902E+03  0.12508358425E+03 0.  0.
          5    1    3    3  502    0 -0.74905131000E+02 -0.25030117762E+02  0.46959886098E+02  0.91978197132E+02  0.41800000000E+01 0. -1.
         -5    1    3    3    0  502  0.95592716747E+01  0.60853107995E+02  0.24953939397E+01  0.61791421884E+02  0.41800000000E+01 0. -1.
        -11    1    1    2    0    0  0.49220285710E+02 -0.33342716491E+02  0.30353457360E+02  0.66751072217E+02  0.00000000000E+00 0. -1.
         11    1    1    2    0    0  0.16125573615E+02 -0.24802737414E+01 -0.50054708387E+02  0.52646554626E+02  0.00000000000E+00 0.  1.
</event>
<event>
 7    1  0.2840156E-009  0.1599944E+03  0.7561462E-02  0.1188703E+00
         -3   -1    0    0    0  501 -0.00000000000E+00  0.00000000000E+00  0.13644855386E+03  0.13644855386E+03  0.00000000000E+00 0.  1.
          3   -1    0    0  501    0  0.00000000000E+00 -0.00000000000E+00 -0.19933985335E+03  0.19933985335E+03  0.00000000000E+00 0. -1.
         25    2    1    2    0    0  0.11554079081E+03  0.44408223084E+02 -0.46782133978E+02  0.18208634707E+03  0.12508039458E+03 0.  0.
          5    1    3    3  502    0  0.76777937440E+02 -0.37078276550E+02 -0.17634319711E+02  0.87167034486E+02  0.41800000000E+01 0. -1.
         -5    1    3    3    0  502  0.38762853373E+02  0.81486499634E+02 -0.29147814267E+02  0.94919312581E+02  0.41800000000E+01 0. -1.
        -11    1    1    2    0    0 -0.91128059274E+02 -0.65340786158E+02  0.95822419606E+01  0.11254137410E+03  0.00000000000E+00 0.  1.
         11    1    1    2    0    0 -0.24412731540E+02  0.20932563074E+02 -0.25691407470E+02  0.41160686047E+02  0.00000000000E+00 0. -1.
</event>
<event>
 7    1  0.2840156E-009  0.1439175E+03  0.7561462E-02  0.1208153E+00
         -2   -1    0    0    0  501 -0.00000000000E+00  0.00000000000E+00  0.17195357826E+03  0.17195357826E+03  0.00000000000E+00 0.  1.
          2   -1    0    0  501    0  0.00000000000E+00 -0.00000000000E+00 -0.18020661032E+03  0.18020661032E+03  0.00000000000E+00 0. -1.
         25    2    1    2    0    0 -0.12824107648E+03  0.41562542599E+02 -0.34383475089E+02  0.18709318127E+03  0.12509363083E+03 0.  0.
          5    1    3    3  502    0 -0.12354688349E+03  0.17104035758E+02  0.20696719075E+02  0.12649983020E+03  0.41800000000E+01 0.  1.
         -5    1    3    3    0  502 -0.46941929858E+01  0.24458506841E+02 -0.55080194165E+02  0.60593351070E+02  0.41800000000E+01 0.  1.
        -11    1    1    2    0    0  0.25820303340E+02 -0.21091804172E+02 -0.31422013176E+02  0.45813700787E+02  0.00000000000E+00 0. -1.
         11    1    1    2    0    0  0.10242077314E+03 -0.20470738427E+02  0.57552456205E+02  0.11925330652E+03  0.00000000000E+00 0.  1.
</event>
<event>
 7    1  0.2840156E-009  0.1070786E+03  0.7561462E-02  0.1266078E+00
          2   -1    0    0  501    0  0.00000000000E+00  0.00000000000E+00  0.42921614412E+03  0.42921614412E+03  0.00000000000E+00 0. -1.
         -2   -1    0    0    0  501 -0.00000000000E+00 -0.00000000000E+00 -0.30740904945E+02  0.30740904945E+02  0.00000000000E+00 0.  1.
         25    2    1    2    0    0 -0.10222788225E+02  0.37698891618E+02  0.22947724762E+03  0.26425953986E+03  0.12509030899E+03 0.  0.
          5    1    3    3  502    0  0.56216121163E+02  0.14950946013E+02  0.12934342101E+03  0.14188367075E+03  0.41800000000E+01 0.  1.
         -5    1    3    3    0  502 -0.66438909388E+02  0.22747945605E+02  0.10013382661E+03  0.12237586911E+03  0.41800000000E+01 0.  1.
        -11    1    1    2    0    0 -0.33152432855E+02 -0.13301603003E+02  0.25705150744E+02  0.44008763007E+02  0.00000000000E+00 0.  1.
         11    1    1    2    0    0  0.43375221080E+02 -0.24397288615E+02  0.14329284081E+03  0.15168874620E+03  0.00000000000E+00 0. -1.
</event>
<event>
 7    1  0.2840156E-009  0.1404078E+03  0.7561462E-02  0.1212781E+00
         -3   -1    0    0    0  501 -0.00000000000E+00  0.00000000000E+00  0.18635824070E+02  0.18635824070E+02  0.00000000000E+00 0.  1.
          3   -1    0    0  501    0  0.00000000000E+00 -0.00000000000E+00 -0.11841425155E+04  0.11841425155E+04  0.00000000000E+00 0. -1.
         25    2    1    2    0    0 -0.81836462552E+02 -0.40117690745E+02 -0.80635303677E+03  0.82107290454E+03  0.12509539938E+03 0.  0.
          5    1    3    3  502    0 -0.87552160595E+02  0.22047657970E+02 -0.53662931641E+03  0.54418744535E+03  0.41800000000E+01 0. -1.
         -5    1    3    3    0  502  0.57156980431E+01 -0.62165348715E+02 -0.26972372036E+03  0.27688545918E+03  0.41800000000E+01 0. -1.
        -11    1    1    2    0    0  0.98598767334E+02  0.18185460996E+02 -0.25632762591E+03  0.27523858690E+03  0.00000000000E+00 0.  1.
         11    1    1    2    0    0 -0.16762304782E+02  0.21932229749E+02 -0.10282602875E+03  0.10646684814E+03  0.00000000000E+00 0. -1.
</event>
<event>
 7    1  0.2840156E-009  0.1224213E+03  0.7561462E-02  0.1239155E+00
         -3   -1    0    0    0  501 -0.00000000000E+00  0.00000000000E+00  0.56017554584E+03  0.56017554584E+03  0.00000000000E+00 0.  1.
          3   -1    0    0  501    0  0.00000000000E+00 -0.00000000000E+00 -0.37789361614E+02  0.37789361614E+02  0.00000000000E+00 0. -1.
         25    2    1    2    0    0  0.73941650786E+02  0.57433861750E+02  0.33897668529E+03  0.37325481678E+03  0.12509176188E+03 0.  0.
          5    1    3    3  502    0 -0.14172166493E+02  0.49502333348E+02  0.21354549569E+03  0.21970544472E+03  0.41800000000E+01 0. -1.
         -5    1    3    3    0  502  0.88113817278E+02  0.79315284023E+01  0.12543118959E+03  0.15354937206E+03  0.41800000000E+01 0. -1.
        -11    1    1    2    0    0 -0.55322984160E+02 -0.13572138767E+02  0.30638366166E+02  0.64680329378E+02  0.00000000000E+00 0.  1.
         11    1    1    2    0    0 -0.18618666625E+02 -0.43861722983E+02  0.15277113278E+03  0.16002976129E+03  0.00000000000E+00 0. -1.
</event>
<event>
 7    1  0.2840156E-009  0.2199275E+03  0.7561462E-02  0.1133937E+00
          2   -1    0    0  501    0  0.00000000000E+00  0.00000000000E+00  0.44191300686E+03  0.44191300686E+03  0.00000000000E+00 0. -1.
         -2   -1    0    0    0  501 -0.00000000000E+00 -0.00000000000E+00 -0.14864404814E+03  0.14864404814E+03  0.00000000000E+00 0.  1.
         25    2    1    2    0    0 -0.59120294526E+02 -0.18171677092E+03  0.29983568758E+03  0.37691845614E+03  0.12509951628E+03 0.  0.
          5    1    3    3  502    0  0.20407075461E+02  0.81584018354E+01  0.33273738148E+02  0.40095165540E+02  0.41800000000E+01 0.  1.
         -5    1    3    3    0  502 -0.79527369987E+02 -0.18987517275E+03  0.26656194944E+03  0.33682329060E+03  0.41800000000E+01 0.  1.
        -11    1    1    2    0    0  0.83749815546E+02  0.13973443044E+03 -0.17203934417E+02  0.16381611036E+03  0.00000000000E+00 0.  1.
         11    1    1    2    0    0 -0.24629521019E+02  0.41982340482E+02  0.10637205559E+02  0.49822488498E+02  0.00000000000E+00 0. -1.
</event>
<event>
 7    1  0.2840156E-009  0.8928489E+02  0.7561462E-02  0.1304593E+00
          2   -1    0    0  501    0  0.00000000000E+00  0.00000000000E+00  0.26698591451E+03  0.26698591451E+03  0.00000000000E+00 0. -1.
         -2   -1    0    0    0  501 -0.00000000000E+00 -0.00000000000E+00 -0.63404850953E+02  0.63404850953E+02  0.00000000000E+00 0.  1.
         25    2    1    2    0    0 -0.58779007964E+02 -0.22791810828E+02  0.15609572957E+03  0.20972245143E+03  0.12507274454E+03 0.  0.
          5    1    3    3  502    0 -0.72226569010E+02 -0.11351890706E+02  0.25007623051E+02  0.77384729141E+02  0.41800000000E+01 0.  1.
         -5    1    3    3    0  502  0.13447561046E+02 -0.11439920122E+02  0.13108810652E+03  0.13233772229E+03  0.41800000000E+01 0.  1.
        -11    1    1    2    0    0 -0.44777497837E+01  0.23510364096E+02  0.52003422332E+02  0.57246339598E+02  0.00000000000E+00 0. -1.
         11    1    1    2    0    0  0.63256757748E+02 -0.71855326845E+00 -0.45180883393E+01  0.63421974440E+02  0.00000000000E+00 0.  1.
</event>
<event>
 7    1  0.2840156E-009  0.1104085E+03  0.7561462E-02  0.1259815E+00
          1   -1    0    0  501    0  0.00000000000E+00  0.00000000000E+00  0.63803734254E+03  0.63803734254E+03  0.00000000000E+00 0. -1.
         -1   -1    0    0    0  501 -0.00000000000E+00 -0.00000000000E+00 -0.24005224016E+02  0.24005224016E+02  0.00000000000E+00 0.  1.
         25    2    1    2    0    0  0.15215730268E+02  0.45950601190E+02  0.23637219458E+03  0.27177440666E+03  0.12508612053E+03 0.  0.
          5    1    3    3  502    0  0.39024771081E+02 -0.26398853559E+02  0.14622102132E+03  0.15368113646E+03  0.41800000000E+01 0.  1.
         -5    1    3    3    0  502 -0.23809040813E+02  0.72349454749E+02  0.90151173255E+02  0.11809327020E+03  0.41800000000E+01 0.  1.
        -11    1    1    2    0    0  0.35143728298E+02 -0.15719240559E+02  0.12118552668E+03  0.12715387543E+03  0.00000000000E+00 0.  1.
         11    1    1    2    0    0 -0.50359458566E+02 -0.30231360631E+02  0.25647439727E+03  0.26311428446E+03  0.00000000000E+00 0. -1.
</event>
<event>
 7    1  0.2840156E-009  0.1075724E+03  0.7561462E-02  0.1265133E+00
          1   -1    0    0  501    0  0.00000000000E+00  0.00000000000E+00  0.32260390266E+03  0.32260390266E+03  0.00000000000E+00 0. -1.
         -1   -1    0    0    0  501 -0.00000000000E+00 -0.00000000000E+00 -0.57799383261E+02  0.57799383261E+02  0.00000000000E+00 0.  1.
         25    2    1    2    0    0  0.30653874013E+02  0.57443373636E+02  0.76236221447E+02  0.16030696856E+03  0.12508781532E+03 0.  0.
          5    1    3    3  502    0 -0.25880893550E+02  0.74874950782E+02  0.57949888130E+02  0.98243273764E+02  0.41800000000E+01 0. -1.
         -5    1    3    3    0  502  0.56534767562E+02 -0.17431577146E+02  0.18286333317E+02  0.62063694793E+02  0.41800000000E+01 0. -1.
        -11    1    1    2    0    0 -0.20213829555E+02 -0.61926751062E+02  0.19598519567E+03  0.20652776647E+03  0.00000000000E+00 0. -1.
         11    1    1    2    0    0 -0.10440044458E+02  0.44833774259E+01 -0.74168977205E+01  0.13568550889E+02  0.00000000000E+00 0.  1.
</event>
<event>
 7    1  0.2840156E-009  0.9519411E+02  0.7561462E-02  0.1290739E+00
          2   -1    0    0  501    0  0.00000000000E+00  0.00000000000E+00  0.87800185731E+03  0.87800185731E+03  0.00000000000E+00 0. -1.
         -2   -1    0    0    0  501 -0.00000000000E+00 -0.00000000000E+00 -0.34800735996E+02  0.34800735996E+02  0.00000000000E+00 0.  1.
         25    2    1    2    0    0  0.41922773230E+02  0.28503641530E+02  0.77901312022E+03  0.79061937814E+03  0.12509029991E+03 0.  0.
          5    1    3    3  502    0 -0.25645356763E+02  0.22585808000E+02  0.56562931896E+03  0.56667609965E+03  0.41800000000E+01 0.  1.
         -5    1    3    3    0  502  0.67568129993E+02  0.59178335300E+01  0.21338380125E+03  0.22394327849E+03  0.41800000000E+01 0.  1.
        -11    1    1    2    0    0  0.97109254282E+01  0.16740445148E+02  0.47847922153E+02  0.51613643843E+02  0.00000000000E+00 0. -1.
         11    1    1    2    0    0 -0.51633698658E+02 -0.45244086678E+02  0.16340078949E+02  0.70569571322E+02  0.00000000000E+00 0.  1.
</event>
<event>
 7    1  0.2840156E-009  0.1447543E+03  0.7561462E-02  0.1207071E+00
         -1   -1    0    0    0  501 -0.00000000000E+00  0.00000000000E+00  0.79344876676E+02  0.79344876676E+02  0.00000000000E+00 0.  1.
          1   -1    0    0  501    0  0.00000000000E+00 -0.00000000000E+00 -0.38186537875E+03  0.38186537875E+03  0.00000000000E+00 0. -1.
         25    2    1    2    0    0  0.13189065204E+03 -0.50619972219E+01 -0.11590187312E+03  0.21564184262E+03  0.12508953668E+03 0.  0.
          5    1    3    3  502    0  0.74963318058E+02 -0.17128117297E+02 -0.13400445026E+03  0.15455593339E+03  0.41800000000E+01 0. -1.
         -5    1    3    3    0  502  0.56927333978E+02  0.12066120075E+02  0.18102577143E+02  0.61085909232E+02  0.41800000000E+01 0. -1.
        -11    1    1    2    0    0 -0.12918291627E+03 -0.18447133450E+02 -0.12997092717E+03  0.18417644936E+03  0.00000000000E+00 0.  1.
         11    1    1    2    0    0 -0.27077357658E+01  0.23509130672E+02 -0.56647701788E+02  0.61391963446E+02  0.00000000000E+00 0. -1.
</event>
<event>
 7    1  0.2843355E-009  0.8073283E+02  0.7561462E-02  0.1326985E+00
          3   -1    0    0  501    0  0.00000000000E+00  0.00000000000E+00  0.31921977125E+03  0.31921977125E+03  0.00000000000E+00 0. -1.
         -3   -1    0    0    0  501 -0.00000000000E+00 -0.00000000000E+00 -0.45414241696E+02  0.45414241696E+02  0.00000000000E+00 0.  1.
         25    2    1    2    0    0  0.43940621544E+02 -0.26737404936E+02  0.15932821305E+03  0.20899422117E+03  0.12508971965E+03 0.  0.
          5    1    3    3  502    0 -0.73542808730E+00 -0.37314754128E+02  0.15849718514E+03  0.16288573243E+03  0.41800000000E+01 0. -1.
         -5    1    3    3    0  502  0.44676049632E+02  0.10577349192E+02  0.83102791005E+00  0.46108488741E+02  0.41800000000E+01 0. -1.
        -11    1    1    2    0    0  0.12222871113E+02  0.16796099619E+02 -0.66039127504E+01  0.21797229280E+02  0.00000000000E+00 0.  1.
         11    1    1    2    0    0 -0.56163492657E+02  0.99413053170E+01  0.12108122925E+03  0.13384256249E+03  0.00000000000E+00 0. -1.
</event>
<event>
 7    1  0.2840156E-009  0.2208602E+03  0.7561462E-02  0.1133243E+00
          2   -1    0    0  501    0  0.00000000000E+00  0.00000000000E+00  0.12217307143E+04  0.12217307143E+04  0.00000000000E+00 0. -1.
         -2   -1    0    0    0  501 -0.00000000000E+00 -0.00000000000E+00 -0.44233624171E+02  0.44233624171E+02  0.00000000000E+00 0.  1.
         25    2    1    2    0    0  0.15056458603E+03  0.12762761910E+03  0.75811882881E+03  0.79331603077E+03  0.12509061657E+03 0.  0.
          5    1    3    3  502    0  0.55463562548E+02 -0.11057983249E+02  0.11042666961E+03  0.12413705138E+03  0.41800000000E+01 0. -1.
         -5    1    3    3    0  502  0.95101023487E+02  0.13868560235E+03  0.64769215920E+03  0.66917897939E+03  0.41800000000E+01 0. -1.
        -11    1    1    2    0    0 -0.89635381215E+02 -0.18070728658E+02  0.15289503000E+03  0.17815146084E+03  0.00000000000E+00 0.  1.
         11    1    1    2    0    0 -0.60929204819E+02 -0.10955689044E+03  0.26648323135E+03  0.29449684690E+03  0.00000000000E+00 0. -1.
</event>
<event>
 7    1  0.2840156E-009  0.1437714E+03  0.7561462E-02  0.1208342E+00
         -4   -1    0    0    0  501 -0.00000000000E+00  0.00000000000E+00  0.79342414314E+02  0.79342414314E+02  0.00000000000E+00 0.  1.
          4   -1    0    0  501    0  0.00000000000E+00 -0.00000000000E+00 -0.35481914696E+03  0.35481914696E+03  0.00000000000E+00 0. -1.
         25    2    1    2    0    0 -0.12479028775E+03 -0.28595997158E+02 -0.14839807170E+03  0.23250798734E+03  0.12509048534E+03 0.  0.
          5    1    3    3  502    0 -0.96722806431E+02  0.23998250909E+02 -0.37551007669E+02  0.10657752065E+03  0.41800000000E+01 0. -1.
         -5    1    3    3    0  502 -0.28067481323E+02 -0.52594248067E+02 -0.11084706403E+03  0.12593046670E+03  0.41800000000E+01 0. -1.
        -11    1    1    2    0    0  0.72454705378E+02  0.15655812253E+02 -0.12700967211E+02  0.75207069860E+02  0.00000000000E+00 0.  1.
         11    1    1    2    0    0  0.52335582376E+02  0.12940184905E+02 -0.11437769373E+03  0.12644650407E+03  0.00000000000E+00 0. -1.
</event>
<event>
 7    1  0.2840156E-009  0.1070078E+03  0.7561462E-02  0.1266214E+00
          1   -1    0    0  501    0  0.00000000000E+00  0.00000000000E+00  0.25975525928E+02  0.25975525928E+02  0.00000000000E+00 0. -1.
         -1   -1    0    0    0  501 -0.00000000000E+00 -0.00000000000E+00 -0.55805076644E+03  0.55805076644E+03  0.00000000000E+00 0.  1.
         25    2    1    2    0    0 -0.92390681969E+01  0.47287073005E+02 -0.35501471524E+03  0.37948022852E+03  0.12509343767E+03 0.  0.
          5    1    3    3  502    0  0.10475281411E+02  0.86639812465E+02 -0.19929308145E+03  0.21760375304E+03  0.41800000000E+01 0. -1.
         -5    1    3    3    0  502 -0.19714349608E+02 -0.39352739461E+02 -0.15572163379E+03  0.16187647548E+03  0.41800000000E+01 0. -1.
        -11    1    1    2    0    0  0.34869829604E+02 -0.44669236631E+02 -0.16789470898E+03  0.17720011010E+03  0.00000000000E+00 0.  1.
         11    1    1    2    0    0 -0.25630761407E+02 -0.26178363734E+01 -0.91658162922E+01  0.27345953739E+02  0.00000000000E+00 0. -1.
</event>
<event>
 7    1  0.2840156E-009  0.3212887E+03  0.7561462E-02  0.1075058E+00
          2   -1    0    0  501    0  0.00000000000E+00  0.00000000000E+00  0.83982324766E+03  0.83982324766E+03  0.00000000000E+00 0.  1.
         -2   -1    0    0    0  501 -0.00000000000E+00 -0.00000000000E+00 -0.14895748602E+03  0.14895748602E+03  0.00000000000E+00 0. -1.
         25    2    1    2    0    0 -0.24712855624E+03  0.20043528070E+03  0.19687139395E+03  0.39453002400E+03  0.12509503999E+03 0.  0.
          5    1    3    3  502    0 -0.14238229148E+03  0.14239695677E+03  0.54918207139E+02  0.20876563917E+03  0.41800000000E+01 0. -1.
         -5    1    3    3    0  502 -0.10474626476E+03  0.58038323923E+02  0.14195318681E+03  0.18576438483E+03  0.41800000000E+01 0. -1.
        -11    1    1    2    0    0  0.18552068903E+03 -0.12389754864E+03  0.40147513609E+03  0.45929382047E+03  0.00000000000E+00 0.  1.
         11    1    1    2    0    0  0.61607867202E+02 -0.76537732057E+02  0.92519231593E+02  0.13495688921E+03  0.00000000000E+00 0. -1.
</event>
<event>
 7    1  0.2840156E-009  0.1238310E+03  0.7561462E-02  0.1236908E+00
          2   -1    0    0  501    0  0.00000000000E+00  0.00000000000E+00  0.38978237543E+03  0.38978237543E+03  0.00000000000E+00 0. -1.
         -2   -1    0    0    0  501 -0.00000000000E+00 -0.00000000000E+00 -0.62088245956E+02  0.62088245956E+02  0.00000000000E+00 0.  1.
         25    2    1    2    0    0 -0.64990228662E+02  0.88909965626E+02  0.14850353496E+03  0.22322368108E+03  0.12508716997E+03 0.  0.
          5    1    3    3  502    0 -0.78946795641E+02  0.93189602776E+02  0.16198866812E+03  0.20291549868E+03  0.41800000000E+01 0.  1.
         -5    1    3    3    0  502  0.13956566979E+02 -0.42796371502E+01 -0.13485133161E+02  0.20308182398E+02  0.41800000000E+01 0.  1.
        -11    1    1    2    0    0  0.45788782654E+02 -0.58211951361E+02  0.38697250834E+02  0.83562677795E+02  0.00000000000E+00 0.  1.
         11    1    1    2    0    0  0.19201446007E+02 -0.30698014265E+02  0.14049334368E+03  0.14508426251E+03  0.00000000000E+00 0. -1.
</event>
<event>
 7    1  0.2840156E-009  0.1173706E+03  0.7561462E-02  0.1247499E+00
         -3   -1    0    0    0  501 -0.00000000000E+00  0.00000000000E+00  0.19364157636E+03  0.19364157636E+03  0.00000000000E+00 0.  1.
          3   -1    0    0  501    0  0.00000000000E+00 -0.00000000000E+00 -0.18289512947E+03  0.18289512947E+03  0.00000000000E+00 0. -1.
         25    2    1    2    0    0  0.12676172019E+02 -0.38880093944E+02 -0.13966241792E+03  0.19189753034E+03  0.12508686633E+03 0.  0.
          5    1    3    3  502    0 -0.56008756212E+02 -0.24307399265E+02 -0.61978083806E+02  0.87101008626E+02  0.41800000000E+01 0. -1.
         -5    1    3    3    0  502  0.68684928231E+02 -0.14572694679E+02 -0.77684334115E+02  0.10479652171E+03  0.41800000000E+01 0. -1.
        -11    1    1    2    0    0  0.33013304153E+02 -0.11716920926E+02  0.29334854333E+02  0.45691335785E+02  0.00000000000E+00 0. -1.
         11    1    1    2    0    0 -0.45689476172E+02  0.50597014870E+02  0.12107401048E+03  0.13894783971E+03  0.00000000000E+00 0.  1.
</event>
<event>
 7    1  0.2840156E-009  0.7666455E+02  0.7561462E-02  0.1338793E+00
          2   -1    0    0  501    0  0.00000000000E+00  0.00000000000E+00  0.68934239276E+03  0.68934239276E+03  0.00000000000E+00 0. -1.
         -2   -1    0    0    0  501 -0.00000000000E+00 -0.00000000000E+00 -0.20381877799E+02  0.20381877799E+02  0.00000000000E+00 0.  1.
         25    2    1    2    0    0 -0.42365691353E+02  0.26715249909E+01  0.32739344570E+03  0.35303799282E+03  0.12508943696E+03 0.  0.
          5    1    3    3  502    0 -0.25070352741E+02 -0.18635688602E+02  0.81007430593E+01  0.32540834567E+02  0.41800000000E+01 0.  1.
         -5    1    3    3    0  502 -0.17295338612E+02  0.21307213593E+02  0.31929270264E+03  0.32049715826E+03  0.41800000000E+01 0.  1.
        -11    1    1    2    0    0 -0.16121151864E+02 -0.26402479646E+02  0.53630813030E+02  0.61913218097E+02  0.00000000000E+00 0.  1.
         11    1    1    2    0    0  0.58486843217E+02  0.23730954655E+02  0.28793625623E+03  0.29477305964E+03  0.00000000000E+00 0. -1.
</event>
<event>
 7    1  0.2840156E-009  0.3497357E+03  0.7561462E-02  0.1062724E+00
          3   -1    0    0  501    0  0.00000000000E+00  0.00000000000E+00  0.32963887907E+03  0.32963887907E+03  0.00000000000E+00 0. -1.
         -3   -1    0    0    0  501 -0.00000000000E+00 -0.00000000000E+00 -0.42494015523E+03  0.42494015523E+03  0.00000000000E+00 0.  1.
         25    2    1    2    0    0  0.32788059370E+03 -0.10942938726E+03  0.45786926963E+02  0.37043950928E+03  0.12509401598E+03 0.  0.
          5    1    3    3  502    0  0.16136374101E+03 -0.61740782606E+02 -0.39568226882E+02  0.17729438267E+03  0.41800000000E+01 0.  1.
         -5    1    3    3    0  502  0.16651685269E+03 -0.47688604657E+02  0.85355153845E+02  0.19314512661E+03  0.41800000000E+01 0.  1.
        -11    1    1    2    0    0 -0.20693077226E+03  0.10573880033E+03 -0.11919961326E+03  0.26116965023E+03  0.00000000000E+00 0. -1.
         11    1    1    2    0    0 -0.12094982144E+03  0.36905869369E+01 -0.21888589865E+02  0.12296987478E+03  0.00000000000E+00 0.  1.
</event>
<event>
 7    1  0.2840156E-009  0.9599709E+02  0.7561462E-02  0.1288946E+00
         -3   -1    0    0    0  501 -0.00000000000E+00  0.00000000000E+00  0.15759724870E+03  0.15759724870E+03  0.00000000000E+00 0.  1.
          3   -1    0    0  501    0  0.00000000000E+00 -0.00000000000E+00 -0.10613161652E+03  0.10613161652E+03  0.00000000000E+00 0. -1.
         25    2    1    2    0    0  0.36682765622E+01  0.41291118246E+02  0.13127545631E+02  0.13243311587E+03  0.12509110690E+03 0.  0.
          5    1    3    3  502    0 -0.58549568241E+02  0.10063436058E+02  0.18827948639E+02  0.62460297282E+02  0.41800000000E+01 0.  1.
         -5    1    3    3    0  502  0.62217844803E+02  0.31227682187E+02 -0.57004030085E+01  0.69972818589E+02  0.41800000000E+01 0.  1.
        -11    1    1    2    0    0 -0.20221774662E+02 -0.41477532815E+02 -0.33853229964E+02  0.57230648064E+02  0.00000000000E+00 0. -1.
         11    1    1    2    0    0  0.16553498100E+02  0.18641456955E+00  0.72191316511E+02  0.74065101292E+02  0.00000000000E+00 0.  1.
</event>
<event>
 7    1  0.2840156E-009  0.8476970E+02  0.7561462E-02  0.1316036E+00
          3   -1    0    0  501    0  0.00000000000E+00  0.00000000000E+00  0.52100201956E+02  0.52100201956E+02  0.00000000000E+00 0. -1.
         -3   -1    0    0    0  501 -0.00000000000E+00 -0.00000000000E+00 -0.30161398031E+03  0.30161398031E+03  0.00000000000E+00 0.  1.
         25    2    1    2    0    0 -0.87888567230E+01 -0.54875998192E+02 -0.18780400666E+03  0.23239352865E+03  0.12509111904E+03 0.  0.
          5    1    3    3  502    0 -0.23040676651E+02  0.41988078725E+01 -0.16599912053E+03  0.16769520919E+03  0.41800000000E+01 0.  1.
         -5    1    3    3    0  502  0.14251819928E+02 -0.59074806064E+02 -0.21804886128E+02  0.64698319467E+02  0.41800000000E+01 0.  1.
        -11    1    1    2    0    0 -0.27919442192E+02  0.25665377015E+02 -0.63956279746E+02  0.74354640397E+02  0.00000000000E+00 0.  1.
         11    1    1    2    0    0  0.36708298915E+02  0.29210621177E+02  0.22465080497E+01  0.46966013214E+02  0.00000000000E+00 0. -1.
</event>
<event>
 7    1  0.2840156E-009  0.1174775E+03  0.7561462E-02  0.1247317E+00
         -2   -1    0    0    0  501 -0.00000000000E+00  0.00000000000E+00  0.22106007985E+02  0.22106007985E+02  0.00000000000E+00 0.  1.
          2   -1    0    0  501    0  0.00000000000E+00 -0.00000000000E+00 -0.72722101584E+03  0.72722101584E+03  0.00000000000E+00 0. -1.
         25    2    1    2    0    0 -0.52269990818E+02 -0.27293129361E+02 -0.46246673098E+03  0.48270099341E+03  0.12509078673E+03 0.  0.
          5    1    3    3  502    0  0.27259141019E+02  0.25077883048E+02 -0.20044052023E+03  0.20387701081E+03  0.41800000000E+01 0. -1.
         -5    1    3    3    0  502 -0.79529131838E+02 -0.52371012410E+02 -0.26202621075E+03  0.27882398260E+03  0.41800000000E+01 0. -1.
        -11    1    1    2    0    0 -0.13908201500E+02 -0.17573043479E+02 -0.10567502821E+03  0.10802528182E+03  0.00000000000E+00 0. -1.
         11    1    1    2    0    0  0.66178192318E+02  0.44866172841E+02 -0.13697324866E+03  0.15860074859E+03  0.00000000000E+00 0.  1.
</event>
<event>
 7    1  0.2840156E-009  0.8943035E+02  0.7561462E-02  0.1304237E+00
          1   -1    0    0  501    0  0.00000000000E+00  0.00000000000E+00  0.16930023677E+03  0.16930023677E+03  0.00000000000E+00 0. -1.
         -1   -1    0    0    0  501 -0.00000000000E+00 -0.00000000000E+00 -0.93665544391E+02  0.93665544391E+02  0.00000000000E+00 0.  1.
         25    2    1    2    0    0  0.29273153619E+02  0.19037176260E+02  0.98767055361E+02  0.16316067455E+03  0.12508854021E+03 0.  0.
          5    1    3    3  502    0  0.35605395037E+02 -0.26314778397E+02  0.10751893120E+03  0.11635293156E+03  0.41800000000E+01 0.  1.
         -5    1    3    3    0  502 -0.63322414185E+01  0.45351954657E+02 -0.87518758362E+01  0.46807742984E+02  0.41800000000E+01 0.  1.
        -11    1    1    2    0    0  0.26758329948E+02 -0.18215169211E+02  0.11003797169E+02  0.34188947967E+02  0.00000000000E+00 0. -1.
         11    1    1    2    0    0 -0.56031483567E+02 -0.82200704918E+00 -0.34136160148E+02  0.65616158649E+02  0.00000000000E+00 0.  1.
</event>
<event>
 7    1  0.2840156E-009  0.2050724E+03  0.7561462E-02  0.1145529E+00
         -2   -1    0    0    0  501 -0.00000000000E+00  0.00000000000E+00  0.17940381637E+03  0.17940381637E+03  0.00000000000E+00 0.  1.
          2   -1    0    0  501    0  0.00000000000E+00 -0.00000000000E+00 -0.24823389867E+03  0.24823389867E+03  0.00000000000E+00 0. -1.
         25    2    1    2    0    0 -0.18072005281E+03  0.16139732711E+00 -0.33310549671E+02  0.22230278720E+03  0.12509665440E+03 0.  0.
          5    1    3    3  502    0 -0.71414028220E+01  0.40441345264E+02 -0.10626955283E+02  0.42625187620E+02  0.41800000000E+01 0. -1.
         -5    1    3    3    0  502 -0.17357864999E+03 -0.40279947937E+02 -0.22683594388E+02  0.17967759958E+03  0.41800000000E+01 0. -1.
        -11    1    1    2    0    0  0.66146986666E+02 -0.29391211590E+02  0.19433631762E+02  0.74946202087E+02  0.00000000000E+00 0.  1.
         11    1    1    2    0    0  0.11457306614E+03  0.29229814263E+02 -0.54953164393E+02  0.13038872575E+03  0.00000000000E+00 0. -1.
</event>
<event>
 7    1  0.2840156E-009  0.9152834E+02  0.7561462E-02  0.1299192E+00
          2   -1    0    0  501    0  0.00000000000E+00  0.00000000000E+00  0.23306337313E+03  0.23306337313E+03  0.00000000000E+00 0. -1.
         -2   -1    0    0    0  501 -0.00000000000E+00 -0.00000000000E+00 -0.11075768886E+03  0.11075768886E+03  0.00000000000E+00 0.  1.
         25    2    1    2    0    0 -0.18944849433E+02 -0.27193371051E+02  0.18684784891E+03  0.22728444705E+03  0.12509082492E+03 0.  0.
          5    1    3    3  502    0  0.15325668692E+02 -0.60889556236E+02  0.44740048568E+02  0.77211129543E+02  0.41800000000E+01 0. -1.
         -5    1    3    3    0  502 -0.34270518124E+02  0.33696185186E+02  0.14210780034E+03  0.15007331750E+03  0.41800000000E+01 0. -1.
        -11    1    1    2    0    0  0.33417113996E+02 -0.75410230142E+01 -0.70553547404E+02  0.78430692890E+02  0.00000000000E+00 0.  1.
         11    1    1    2    0    0 -0.14472264563E+02  0.34734394065E+02  0.60113827595E+01  0.38105922051E+02  0.00000000000E+00 0. -1.
</event>
<event>
 7    1  0.2840156E-009  0.9847157E+02  0.7561462E-02  0.1283543E+00
         -1   -1    0    0    0  501 -0.00000000000E+00  0.00000000000E+00  0.77927847518E+02  0.77927847518E+02  0.00000000000E+00 0.  1.
          1   -1    0    0  501    0  0.00000000000E+00 -0.00000000000E+00 -0.15622915104E+03  0.15622915104E+03  0.00000000000E+00 0. -1.
         25    2    1    2    0    0  0.16672889109E+02 -0.34241054148E+01 -0.61841384664E+02  0.14057092160E+03  0.12508444113E+03 0.  0.
          5    1    3    3  502    0 -0.23848611902E+02  0.48184181439E+02 -0.59056491016E+01  0.54247771585E+02  0.41800000000E+01 0. -1.
         -5    1    3    3    0  502  0.40521501011E+02 -0.51608286854E+02 -0.55935735562E+02  0.86323150018E+02  0.41800000000E+01 0. -1.
        -11    1    1    2    0    0  0.29159300341E+02  0.10298109200E+02 -0.32196663800E+02  0.44642367873E+02  0.00000000000E+00 0. -1.
         11    1    1    2    0    0 -0.45832189450E+02 -0.68740037855E+01  0.15736744938E+02  0.48943709086E+02  0.00000000000E+00 0.  1.
</event>
<event>
 7    1  0.2840156E-009  0.1747054E+03  0.7561462E-02  0.1173028E+00
         -2   -1    0    0    0  501 -0.00000000000E+00  0.00000000000E+00  0.53462825768E+02  0.53462825768E+02  0.00000000000E+00 0.  1.
          2   -1    0    0  501    0  0.00000000000E+00 -0.00000000000E+00 -0.68641240677E+03  0.68641240677E+03  0.00000000000E+00 0. -1.
         25    2    1    2    0    0 -0.86962693648E+02  0.13115872800E+03 -0.31238164652E+03  0.37147642183E+03  0.12508923565E+03 0.  0.
          5    1    3    3  502    0  0.53784125608E+00  0.66147593176E+02 -0.21589376641E+03  0.22583928828E+03  0.41800000000E+01 0.  1.
         -5    1    3    3    0  502 -0.87500534904E+02  0.65011134824E+02 -0.96487880107E+02  0.14563713354E+03  0.41800000000E+01 0.  1.
        -11    1    1    2    0    0  0.63661869259E+02 -0.13607176169E+03 -0.30487987167E+03  0.33988247097E+03  0.00000000000E+00 0. -1.
         11    1    1    2    0    0  0.23300824390E+02  0.49130336868E+01 -0.15688062815E+02  0.28516339739E+02  0.00000000000E+00 0.  1.
</event>
<event>
 7    1  0.2840156E-009  0.1149642E+03  0.7561462E-02  0.1251644E+00
         -1   -1    0    0    0  501 -0.00000000000E+00  0.00000000000E+00  0.14198979043E+03  0.14198979043E+03  0.00000000000E+00 0.  1.
          1   -1    0    0  501    0  0.00000000000E+00 -0.00000000000E+00 -0.16845914051E+03  0.16845914051E+03  0.00000000000E+00 0. -1.
         25    2    1    2    0    0 -0.64267906726E+02  0.36482636605E+02  0.65412392776E+02  0.15933632219E+03  0.12509170968E+03 0.  0.
          5    1    3    3  502    0  0.31057968415E+02  0.31946527507E+02  0.22300695145E+01  0.44806513275E+02  0.41800000000E+01 0.  1.
         -5    1    3    3    0  502 -0.95325875140E+02  0.45361090976E+01  0.63182323262E+02  0.11452980891E+03  0.41800000000E+01 0.  1.
        -11    1    1    2    0    0  0.31903123557E+02  0.96212331313E+01 -0.88632156740E+02  0.94689157922E+02  0.00000000000E+00 0. -1.
         11    1    1    2    0    0  0.32364783169E+02 -0.46103869736E+02 -0.32495861192E+01  0.56423450835E+02  0.00000000000E+00 0.  1.
</event>
<event>
 7    1  0.2840156E-009  0.2245310E+03  0.7561462E-02  0.1130549E+00
          2   -1    0    0  501    0  0.00000000000E+00  0.00000000000E+00  0.22311407254E+04  0.22311407254E+04  0.00000000000E+00 0. -1.
         -2   -1    0    0    0  501 -0.00000000000E+00 -0.00000000000E+00 -0.28374175846E+02  0.28374175846E+02  0.00000000000E+00 0.  1.
         25    2    1    2    0    0  0.21577997153E+03  0.52165590734E+02  0.13449713726E+04  0.13688960131E+04  0.12508419738E+03 0.  0.
          5    1    3    3  502    0  0.19758563111E+03  0.39366949805E+02  0.13195925501E+04  0.13348901861E+04  0.41800000000E+01 0.  1.
         -5    1    3    3    0  502  0.18194340422E+02  0.12798640929E+02  0.25378822556E+02  0.34005826962E+02  0.41800000000E+01 0.  1.
        -11    1    1    2    0    0 -0.11331318763E+03 -0.88150669601E+01  0.58623163374E+03  0.59714747951E+03  0.00000000000E+00 0. -1.
         11    1    1    2    0    0 -0.10246678390E+03 -0.43350523774E+02  0.27156354319E+03  0.29347140867E+03  0.00000000000E+00 0.  1.
</event>
<event>
 7    1  0.2840156E-009  0.1401300E+03  0.7561462E-02  0.1213154E+00
         -1   -1    0    0    0  501 -0.00000000000E+00  0.00000000000E+00  0.11264666650E+03  0.11264666650E+03  0.00000000000E+00 0.  1.
          1   -1    0    0  501    0  0.00000000000E+00 -0.00000000000E+00 -0.20187205550E+03  0.20187205550E+03  0.00000000000E+00 0. -1.
         25    2    1    2    0    0  0.10014394438E+03 -0.25230888461E+02 -0.62556034477E+02  0.17385103714E+03  0.12508204641E+03 0.  0.
          5    1    3    3  502    0 -0.12338109138E+02 -0.45869465553E+02 -0.15821092825E+02  0.50239587831E+02  0.41800000000E+01 0.  1.
         -5    1    3    3    0  502  0.11248205352E+03  0.20638577093E+02 -0.46734941652E+02  0.12361144930E+03  0.41800000000E+01 0.  1.
        -11    1    1    2    0    0 -0.43804331626E+02  0.40617115322E+02  0.22987832495E+02  0.64007889897E+02  0.00000000000E+00 0.  1.
         11    1    1    2    0    0 -0.56339612754E+02 -0.15386226862E+02 -0.49657187020E+02  0.76659794971E+02  0.00000000000E+00 0. -1.
</event>
<event>
 7    1  0.2840156E-009  0.1536162E+03  0.7561462E-02  0.1196099E+00
          2   -1    0    0  501    0  0.00000000000E+00  0.00000000000E+00  0.33719479523E+03  0.33719479523E+03  0.00000000000E+00 0. -1.
         -2   -1    0    0    0  501 -0.00000000000E+00 -0.00000000000E+00 -0.90546140787E+02  0.90546140787E+02  0.00000000000E+00 0.  1.
         25    2    1    2    0    0  0.66437507253E+02 -0.46243485762E+02  0.46221788509E+02  0.15600309659E+03  0.12509240611E+03 0.  0.
          5    1    3    3  502    0  0.72726119951E+02  0.75156543024E+01  0.65643228593E+02  0.98346730718E+02  0.41800000000E+01 0. -1.
         -5    1    3    3    0  502 -0.62886126980E+01 -0.53759140065E+02 -0.19421440084E+02  0.57656365868E+02  0.41800000000E+01 0. -1.
        -11    1    1    2    0    0  0.60847643940E+01  0.93146450624E+02  0.13137122400E+03  0.16115732722E+03  0.00000000000E+00 0.  1.
         11    1    1    2    0    0 -0.72522271647E+02 -0.46902964862E+02  0.69055641934E+02  0.11058051221E+03  0.00000000000E+00 0. -1.
</event>
<event>
 7    1  0.2840156E-009  0.1368852E+03  0.7561462E-02  0.1217583E+00
         -2   -1    0    0    0  501 -0.00000000000E+00  0.00000000000E+00  0.48119261660E+02  0.48119261660E+02  0.00000000000E+00 0.  1.
          2   -1    0    0  501    0  0.00000000000E+00 -0.00000000000E+00 -0.66685440494E+03  0.66685440494E+03  0.00000000000E+00 0. -1.
         25    2    1    2    0    0 -0.60672441199E+02  0.65912101281E+02 -0.11177695908E+03  0.19017634199E+03  0.12508957692E+03 0.  0.
          5    1    3    3  502    0 -0.51158127552E+02  0.99076824839E+02 -0.56986969183E+02  0.12529308956E+03  0.41800000000E+01 0.  1.
         -5    1    3    3    0  502 -0.95143136470E+01 -0.33164723558E+02 -0.54789989899E+02  0.64883252431E+02  0.41800000000E+01 0.  1.
        -11    1    1    2    0    0  0.20316945267E+02  0.22457626208E+02 -0.57799144331E+02  0.65252312797E+02  0.00000000000E+00 0.  1.
         11    1    1    2    0    0  0.40355495931E+02 -0.88369727489E+02 -0.44915903987E+03  0.45954501181E+03  0.00000000000E+00 0. -1.
</event>
<event>
 7    1  0.2840156E-009  0.1474429E+03  0.7561462E-02  0.1203651E+00
         -3   -1    0    0    0  501 -0.00000000000E+00  0.00000000000E+00  0.31365077834E+02  0.31365077834E+02  0.00000000000E+00 0.  1.
          3   -1    0    0  501    0  0.00000000000E+00 -0.00000000000E+00 -0.84787471861E+03  0.84787471861E+03  0.00000000000E+00 0. -1.
         25    2    1    2    0    0  0.74005422880E+02 -0.95110486925E+02 -0.42371562226E+03  0.45793602402E+03  0.12509063197E+03 0.  0.
          5    1    3    3  502    0 -0.49980808527E+00 -0.91075034596E+02 -0.29851980813E+03  0.31213211943E+03  0.41800000000E+01 0. -1.
         -5    1    3    3    0  502  0.74505230966E+02 -0.40354523294E+01 -0.12519581413E+03  0.14580390459E+03  0.41800000000E+01 0. -1.
        -11    1    1    2    0    0 -0.82277455367E+01  0.46421376902E+02 -0.49373603361E+02  0.68267069213E+02  0.00000000000E+00 0.  1.
         11    1    1    2    0    0 -0.65777677344E+02  0.48689110023E+02 -0.34342041516E+03  0.35303670322E+03  0.00000000000E+00 0. -1.
</event>
<event>
 7    1  0.2954434E-009  0.2229053E+03  0.7561462E-02  0.1131735E+00
         -1   -1    0    0    0  501 -0.00000000000E+00  0.00000000000E+00  0.68791906633E+02  0.68791906633E+02  0.00000000000E+00 0.  1.
          1   -1    0    0  501    0  0.00000000000E+00 -0.00000000000E+00 -0.83011056246E+03  0.83011056246E+03  0.00000000000E+00 0. -1.
         25    2    1    2    0    0  0.47810455040E+02  0.19202311048E+03 -0.54034586055E+03  0.58888043874E+03  0.12509119691E+03 0.  0.
          5    1    3    3  502    0 -0.33553023362E+02  0.15503858630E+02 -0.12245349193E+03  0.12797853373E+03  0.41800000000E+01 0. -1.
         -5    1    3    3    0  502  0.81363478402E+02  0.17651925185E+03 -0.41789236862E+03  0.46090190501E+03  0.41800000000E+01 0. -1.
        -11    1    1    2    0    0  0.17297654118E+02 -0.99929794704E+02 -0.78131042706E+02  0.12802200023E+03  0.00000000000E+00 0.  1.
         11    1    1    2    0    0 -0.65108109158E+02 -0.92093315779E+02 -0.14284175257E+03  0.18200003013E+03  0.00000000000E+00 0. -1.
</event>
<event>
 7    1  0.2840156E-009  0.2127603E+03  0.7561462E-02  0.1139399E+00
         -2   -1    0    0    0  501 -0.00000000000E+00  0.00000000000E+00  0.12298137789E+03  0.12298137789E+03  0.00000000000E+00 0.  1.
          2   -1    0    0  501    0  0.00000000000E+00 -0.00000000000E+00 -0.51628527934E+03  0.51628527934E+03  0.00000000000E+00 0. -1.
         25    2    1    2    0    0 -0.38371230623E+02  0.19694500782E+03 -0.33668642470E+03  0.41141766201E+03  0.12508819524E+03 0.  0.
          5    1    3    3  502    0 -0.33310590730E+02  0.53352534554E+02 -0.21186463389E+03  0.22104339821E+03  0.41800000000E+01 0. -1.
         -5    1    3    3    0  502 -0.50606398933E+01  0.14359247327E+03 -0.12482179081E+03  0.19037426380E+03  0.41800000000E+01 0. -1.
        -11    1    1    2    0    0 -0.28408034193E+02 -0.58404314245E+02 -0.30882948451E+02  0.71915483967E+02  0.00000000000E+00 0. -1.
         11    1    1    2    0    0  0.66779264816E+02 -0.13854069358E+03 -0.25734528289E+02  0.15593351126E+03  0.00000000000E+00 0.  1.
</event>
<event>
 7    1  0.2840156E-009  0.1124588E+03  0.7561462E-02  0.1256083E+00
         -2   -1    0    0    0  501 -0.00000000000E+00  0.00000000000E+00  0.96932684021E+02  0.96932684021E+02  0.00000000000E+00 0.  1.
          2   -1    0    0  501    0  0.00000000000E+00 -0.00000000000E+00 -0.15036564308E+03  0.15036564308E+03  0.00000000000E+00 0. -1.
         25    2    1    2    0    0  0.51532343497E+02 -0.13315765178E+01 -0.36263247691E+02  0.14006980698E+03  0.12508865725E+03 0.  0.
          5    1    3    3  502    0 -0.68985674027E+01  0.51786947846E+02  0.15118806687E+01  0.52433161097E+02  0.41800000000E+01 0. -1.
         -5    1    3    3    0  502  0.58430910899E+02 -0.53118524364E+02 -0.37775128360E+02  0.87636645884E+02  0.41800000000E+01 0. -1.
        -11    1    1    2    0    0  0.20508916874E+02  0.56049214885E+01 -0.27030471018E+02  0.34390073854E+02  0.00000000000E+00 0. -1.
         11    1    1    2    0    0 -0.72041260370E+02 -0.42733449707E+01  0.98607596547E+01  0.72838446263E+02  0.00000000000E+00 0.  1.
</event>
<event>
 7    1  0.2840156E-009  0.7876908E+02  0.7561462E-02  0.1332581E+00
          1   -1    0    0  501    0  0.00000000000E+00  0.00000000000E+00  0.17004950390E+03  0.17004950390E+03  0.00000000000E+00 0. -1.
         -1   -1    0    0    0  501 -0.00000000000E+00 -0.00000000000E+00 -0.10037054142E+03  0.10037054142E+03  0.00000000000E+00 0.  1.
         25    2    1    2    0    0 -0.64881690035E+01  0.75549057048E+02  0.42396670210E+02  0.15229855582E+03  0.12509043170E+03 0.  0.
          5    1    3    3  502    0 -0.15637867088E+02  0.48541327491E+02 -0.40037648585E+02  0.64971448082E+02  0.41800000000E+01 0. -1.
         -5    1    3    3    0  502  0.91496980846E+01  0.27007729557E+02  0.82434318795E+02  0.87327107739E+02  0.41800000000E+01 0. -1.
        -11    1    1    2    0    0 -0.49209648558E+01 -0.37634568731E+02 -0.30074595596E+02  0.48425798485E+02  0.00000000000E+00 0.  1.
         11    1    1    2    0    0  0.11409133859E+02 -0.37914488317E+02  0.57356887866E+02  0.69695691010E+02  0.00000000000E+00 0. -1.
</event>
<event>
 7    1  0.2840156E-009  0.1536575E+03  0.7561462E-02  0.1196049E+00
          2   -1    0    0  501    0  0.00000000000E+00  0.00000000000E+00  0.11602199782E+04  0.11602199782E+04  0.00000000000E+00 0. -1.
         -2   -1    0    0    0  501 -0.00000000000E+00 -0.00000000000E+00 -0.27806389865E+02  0.27806389865E+02  0.00000000000E+00 0.  1.
         25    2    1    2    0    0 -0.85396070339E+02 -0.11299722971E+03  0.55036602108E+03  0.58190338443E+03  0.12509168199E+03 0.  0.
          5    1    3    3  502    0 -0.28510174081E+02 -0.82550128519E+02  0.47329286700E+03  0.48130132360E+03  0.41800000000E+01 0.  1.
         -5    1    3    3    0  502 -0.56885896258E+02 -0.30447101196E+02  0.77073154076E+02  0.10060206083E+03  0.41800000000E+01 0.  1.
        -11    1    1    2    0    0  0.66526197513E+02  0.35387393570E+02  0.16357759658E+03  0.18009895248E+03  0.00000000000E+00 0.  1.
         11    1    1    2    0    0  0.18869872826E+02  0.77609836145E+02  0.41846997063E+03  0.42602403111E+03  0.00000000000E+00 0. -1.
</event>
<event>
 7    1  0.2840156E-009  0.8288593E+02  0.7561462E-02  0.1321055E+00
          3   -1    0    0  501    0  0.00000000000E+00  0.00000000000E+00  0.15771327807E+03  0.15771327807E+03  0.00000000000E+00 0. -1.
         -3   -1    0    0    0  501 -0.00000000000E+00 -0.00000000000E+00 -0.13829154161E+03  0.13829154161E+03  0.00000000000E+00 0.  1.
         25    2    1    2    0    0 -0.53114155226E+02 -0.57220075030E+02 -0.51896529410E+02  0.15632028896E+03  0.12509009755E+03 0.  0.
          5    1    3    3  502    0 -0.28266126920E+02 -0.17968005311E+02  0.40558105823E+02  0.52766044895E+02  0.41800000000E+01 0. -1.
         -5    1    3    3    0  502 -0.24848028306E+02 -0.39252069719E+02 -0.92454635232E+02  0.10355424407E+03  0.41800000000E+01 0. -1.
        -11    1    1    2    0    0  0.15780020776E+02 -0.14359649582E+01 -0.19614837072E+02  0.25215330345E+02  0.00000000000E+00 0.  1.
         11    1    1    2    0    0  0.37334134450E+02  0.58656039988E+02  0.90933102947E+02  0.11446920037E+03  0.00000000000E+00 0. -1.
</event>
<event>
 7    1  0.2840156E-009  0.2217088E+03  0.7561462E-02  0.1132615E+00
          2   -1    0    0  501    0  0.00000000000E+00  0.00000000000E+00  0.25531595175E+03  0.25531595175E+03  0.00000000000E+00 0. -1.
         -2   -1    0    0    0  501 -0.00000000000E+00 -0.00000000000E+00 -0.20800219419E+03  0.20800219419E+03  0.00000000000E+00 0.  1.
         25    2    1    2    0    0  0.71852071200E+02  0.18644647596E+03  0.60378982879E+02  0.24334285983E+03  0.12508044341E+03 0.  0.
          5    1    3    3  502    0 -0.29715854379E+02  0.51976104680E+02 -0.96829936800E+01  0.60792929077E+02  0.41800000000E+01 0.  1.
         -5    1    3    3    0  502  0.10156792558E+03  0.13447037128E+03  0.70061976559E+02  0.18254993075E+03  0.41800000000E+01 0.  1.
        -11    1    1    2    0    0  0.90030644034E+01 -0.83230866238E+02 -0.27383826091E+02  0.88081247690E+02  0.00000000000E+00 0.  1.
         11    1    1    2    0    0 -0.80855135603E+02 -0.10321560972E+03  0.14318600775E+02  0.13189403842E+03  0.00000000000E+00 0. -1.
</event>
<event>
 7    1  0.2840156E-009  0.1116802E+03  0.7561462E-02  0.1257490E+00
          1   -1    0    0  501    0  0.00000000000E+00  0.00000000000E+00  0.17783353224E+03  0.17783353224E+03  0.00000000000E+00 0. -1.
         -1   -1    0    0    0  501 -0.00000000000E+00 -0.00000000000E+00 -0.10368037128E+03  0.10368037128E+03  0.00000000000E+00 0.  1.
         25    2    1    2    0    0  0.55444743821E+02 -0.30135895059E+02 -0.12676210550E+02  0.14067682756E+03  0.12508793591E+03 0.  0.
          5    1    3    3  502    0 -0.13107697381E+02 -0.40832633028E+02  0.35729403828E+02  0.55974801014E+02  0.41800000000E+01 0. -1.
         -5    1    3    3    0  502  0.68552441202E+02  0.10696737968E+02 -0.48405614378E+02  0.84702026547E+02  0.41800000000E+01 0. -1.
        -11    1    1    2    0    0  0.21530654112E+02  0.25888971697E+02  0.23399033846E+02  0.41003935261E+02  0.00000000000E+00 0.  1.
         11    1    1    2    0    0 -0.76975397933E+02  0.42469233628E+01  0.63430337663E+02  0.99833140695E+02  0.00000000000E+00 0. -1.
</event>
<event>
 7    1  0.2840156E-009  0.9655523E+02  0.7561462E-02  0.1287711E+00
         -1   -1    0    0    0  501 -0.00000000000E+00  0.00000000000E+00  0.44171690183E+03  0.44171690183E+03  0.00000000000E+00 0.  1.
          1   -1    0    0  501    0  0.00000000000E+00 -0.00000000000E+00 -0.30924684210E+02  0.30924684210E+02  0.00000000000E+00 0. -1.
         25    2    1    2    0    0  0.10356049159E+01  0.14473971047E+02  0.14984314878E+03  0.19573043717E+03  0.12508743535E+03 0.  0.
          5    1    3    3  502    0 -0.76638805678E+01 -0.55007570838E+02  0.69828845238E+02  0.89320254937E+02  0.41800000000E+01 0.  1.
         -5    1    3    3    0  502  0.86994854837E+01  0.69481541885E+02  0.80014303545E+02  0.10641018223E+03  0.41800000000E+01 0.  1.
        -11    1    1    2    0    0 -0.18180449724E+02 -0.35650727558E+02  0.23784213198E+03  0.24118537035E+03  0.00000000000E+00 0.  1.
         11    1    1    2    0    0  0.17144844808E+02  0.21176756511E+02  0.23106936858E+02  0.35725778519E+02  0.00000000000E+00 0. -1.
</event>
<event>
 7    1  0.2840156E-009  0.7574040E+02  0.7561462E-02  0.1341593E+00
         -2   -1    0    0    0  501 -0.00000000000E+00  0.00000000000E+00  0.22760652421E+03  0.22760652421E+03  0.00000000000E+00 0.  1.
          2   -1    0    0  501    0  0.00000000000E+00 -0.00000000000E+00 -0.73768505376E+02  0.73768505376E+02  0.00000000000E+00 0. -1.
         25    2    1    2    0    0  0.12537222427E+02 -0.26613005163E+02  0.15996666984E+03  0.20518909600E+03  0.12509114944E+03 0.  0.
          5    1    3    3  502    0 -0.16053306192E+02  0.25979089898E+01  0.16311910539E+03  0.16398101327E+03  0.41800000000E+01 0.  1.
         -5    1    3    3    0  502  0.28590528619E+02 -0.29210914153E+02 -0.31524355483E+01  0.41208082730E+02  0.41800000000E+01 0.  1.
        -11    1    1    2    0    0  0.72172066309E+01  0.56947486726E+02  0.66724487207E+01  0.57789496345E+02  0.00000000000E+00 0.  1.
         11    1    1    2    0    0 -0.19754429058E+02 -0.30334481562E+02 -0.12801099720E+02  0.38396437245E+02  0.00000000000E+00 0. -1.
</event>
<event>
 7    1  0.2840156E-009  0.1093188E+03  0.7561462E-02  0.1261837E+00
          1   -1    0    0  501    0  0.00000000000E+00  0.00000000000E+00  0.10137425556E+04  0.10137425556E+04  0.00000000000E+00 0. -1.
         -1   -1    0    0    0  501 -0.00000000000E+00 -0.00000000000E+00 -0.18922479193E+02  0.18922479193E+02  0.00000000000E+00 0.  1.
         25    2    1    2    0    0 -0.18846698941E+02 -0.48968160486E+02  0.78495088835E+03  0.79658498708E+03  0.12508663283E+03 0.  0.
          5    1    3    3  502    0 -0.41068869711E+02  0.16326143778E+02  0.54716241541E+03  0.54896026839E+03  0.41800000000E+01 0. -1.
         -5    1    3    3    0  502  0.22222170770E+02 -0.65294304263E+02  0.23778847294E+03  0.24762471869E+03  0.41800000000E+01 0. -1.
        -11    1    1    2    0    0  0.28358581323E+02  0.73529014479E+02  0.13044734761E+03  0.15240484114E+03  0.00000000000E+00 0.  1.
         11    1    1    2    0    0 -0.95118823822E+01 -0.24560853993E+02  0.79421840414E+02  0.83675206544E+02  0.00000000000E+00 0. -1.
</event>
<event>
 7    1  0.2840156E-009  0.1768329E+03  0.7561462E-02  0.1170904E+00
          1   -1    0    0  501    0  0.00000000000E+00  0.00000000000E+00  0.20407497797E+02  0.20407497797E+02  0.00000000000E+00 0. -1.
         -1   -1    0    0    0  501 -0.00000000000E+00 -0.00000000000E+00 -0.21469011326E+04  0.21469011326E+04  0.00000000000E+00 0.  1.
         25    2    1    2    0    0  0.12117007548E+03 -0.11226766393E+03 -0.14598743086E+04  0.14745055270E+04  0.12508931453E+03 0.  0.
          5    1    3    3  502    0  0.66276597858E+02 -0.48066768128E+02 -0.28403656712E+03  0.29563025130E+03  0.41800000000E+01 0. -1.
         -5    1    3    3    0  502  0.54893477620E+02 -0.64200895806E+02 -0.11758377415E+04  0.11788752757E+04  0.41800000000E+01 0. -1.
        -11    1    1    2    0    0 -0.76631552463E+02  0.12218099830E+02 -0.32107789379E+03  0.33032210140E+03  0.00000000000E+00 0.  1.
         11    1    1    2    0    0 -0.44538523015E+02  0.10004956410E+03 -0.34554143241E+03  0.36248100201E+03  0.00000000000E+00 0. -1.
</event>
<event>
 7    1  0.2840156E-009  0.1201861E+03  0.7561462E-02  0.1242790E+00
         -3   -1    0    0    0  501 -0.00000000000E+00  0.00000000000E+00  0.39398262209E+02  0.39398262209E+02  0.00000000000E+00 0.  1.
          3   -1    0    0  501    0  0.00000000000E+00 -0.00000000000E+00 -0.55481363552E+03  0.55481363552E+03  0.00000000000E+00 0. -1.
         25    2    1    2    0    0  0.79708031333E+02  0.58375262970E+02 -0.23782216820E+03  0.28630001042E+03  0.12508905106E+03 0.  0.
          5    1    3    3  502    0 -0.16131505310E+02  0.39535057485E+02 -0.19577861395E+02  0.47159424198E+02  0.41800000000E+01 0.  1.
         -5    1    3    3    0  502  0.95839536643E+02  0.18840205485E+02 -0.21824430680E+03  0.23914058622E+03  0.41800000000E+01 0.  1.
        -11    1    1    2    0    0 -0.14360992854E+02 -0.17454957819E+02 -0.31233113360E+01  0.22818166927E+02  0.00000000000E+00 0.  1.
         11    1    1    2    0    0 -0.65347038479E+02 -0.40920305151E+02 -0.27446989377E+03  0.28509372038E+03  0.00000000000E+00 0. -1.
</event>
<event>
 7    1  0.2840156E-009  0.1175891E+03  0.7561462E-02  0.1247128E+00
          1   -1    0    0  501    0  0.00000000000E+00  0.00000000000E+00  0.42931487993E+03  0.42931487993E+03  0.00000000000E+00 0. -1.
         -1   -1    0    0    0  501 -0.00000000000E+00 -0.00000000000E+00 -0.40183556932E+02  0.40183556932E+02  0.00000000000E+00 0.  1.
         25    2    1    2    0    0 -0.19580243146E+02  0.69719577088E+02  0.23448122234E+03  0.27545113525E+03  0.12509068282E+03 0.  0.
          5    1    3    3  502    0 -0.18872844946E+02 -0.31231148877E+02  0.30210837285E+02  0.47557712581E+02  0.41800000000E+01 0. -1.
         -5    1    3    3    0  502 -0.70739820030E+00  0.10095072597E+03  0.20427038506E+03  0.22789342267E+03  0.41800000000E+01 0. -1.
        -11    1    1    2    0    0 -0.84996286143E+01 -0.68790886132E+02  0.49411528678E+02  0.85123021961E+02  0.00000000000E+00 0.  1.
         11    1    1    2    0    0  0.28079871760E+02 -0.92869095585E+00  0.10523857198E+03  0.10892427965E+03  0.00000000000E+00 0. -1.
</event>
<event>
 7    1  0.2840156E-009  0.1239454E+03  0.7561462E-02  0.1236727E+00
          1   -1    0    0  501    0  0.00000000000E+00  0.00000000000E+00  0.34831917618E+03  0.34831917618E+03  0.00000000000E+00 0. -1.
         -1   -1    0    0    0  501 -0.00000000000E+00 -0.00000000000E+00 -0.71442189510E+02  0.71442189510E+02  0.00000000000E+00 0.  1.
         25    2    1    2    0    0 -0.10578416700E+03  0.35508217179E+02  0.18124092023E+03  0.24687258801E+03  0.12508669022E+03 0.  0.
          5    1    3    3  502    0 -0.79293645454E+02  0.40720519499E+02  0.19633288894E+03  0.21566111981E+03  0.41800000000E+01 0.  1.
         -5    1    3    3    0  502 -0.26490521546E+02 -0.52123023192E+01 -0.15091968715E+02  0.31211468196E+02  0.41800000000E+01 0.  1.
        -11    1    1    2    0    0  0.32489155686E+02 -0.47007992472E+02  0.74211182623E+01  0.57622648236E+02  0.00000000000E+00 0.  1.
         11    1    1    2    0    0  0.73295011314E+02  0.11499775292E+02  0.88214948178E+02  0.11526612945E+03  0.00000000000E+00 0. -1.
</event>
<event>
 7    1  0.2840156E-009  0.1149762E+03  0.7561462E-02  0.1251623E+00
          1   -1    0    0  501    0  0.00000000000E+00  0.00000000000E+00  0.92971341402E+02  0.92971341402E+02  0.00000000000E+00 0. -1.
         -1   -1    0    0    0  501 -0.00000000000E+00 -0.00000000000E+00 -0.15435014214E+03  0.15435014214E+03  0.00000000000E+00 0.  1.
         25    2    1    2    0    0 -0.24043835409E+02 -0.35850430328E+02 -0.25265538557E+01  0.13235139667E+03  0.12508856603E+03 0.  0.
          5    1    3    3  502    0 -0.46805916812E+02 -0.73356085448E+02  0.65225682970E+01  0.87360891811E+02  0.41800000000E+01 0. -1.
         -5    1    3    3    0  502  0.22762081403E+02  0.37505655120E+02 -0.90491221527E+01  0.44990504860E+02  0.41800000000E+01 0. -1.
        -11    1    1    2    0    0  0.48824837419E+02 -0.69405172504E+01 -0.29614938252E+02  0.57524604270E+02  0.00000000000E+00 0. -1.
         11    1    1    2    0    0 -0.24781002010E+02  0.42790947578E+02 -0.29237308629E+02  0.57445482600E+02  0.00000000000E+00 0.  1.
</event>
<event>
 7    1  0.2840156E-009  0.1522518E+03  0.7561462E-02  0.1197733E+00
          1   -1    0    0  501    0  0.00000000000E+00  0.00000000000E+00  0.96268340578E+03  0.96268340578E+03  0.00000000000E+00 0. -1.
         -1   -1    0    0    0  501 -0.00000000000E+00 -0.00000000000E+00 -0.28413836554E+02  0.28413836554E+02  0.00000000000E+00 0.  1.
         25    2    1    2    0    0 -0.35869303147E+02 -0.12264266143E+03  0.54629890950E+03  0.57482059719E+03  0.12509352952E+03 0.  0.
          5    1    3    3  502    0  0.27846796258E+02 -0.29922173605E+02  0.44584365032E+02  0.60630178463E+02  0.41800000000E+01 0.  1.
         -5    1    3    3    0  502 -0.63716099405E+02 -0.92720487828E+02  0.50171454446E+03  0.51419041873E+03  0.41800000000E+01 0.  1.
        -11    1    1    2    0    0 -0.98667904385E+01 -0.78187039589E+01  0.35313554200E+02  0.37490436052E+02  0.00000000000E+00 0. -1.
         11    1    1    2    0    0  0.45736093586E+02  0.13046136539E+03  0.35265710553E+03  0.37878620909E+03  0.00000000000E+00 0.  1.
</event>
<event>
 7    1  0.2840156E-009  0.1807491E+03  0.7561462E-02  0.1167080E+00
          1   -1    0    0  501    0  0.00000000000E+00  0.00000000000E+00  0.37119703699E+03  0.37119703699E+03  0.00000000000E+00 0. -1.
         -1   -1    0    0    0  501 -0.00000000000E+00 -0.00000000000E+00 -0.10716959991E+03  0.10716959991E+03  0.00000000000E+00 0.  1.
         25    2    1    2    0    0 -0.11824182710E+03 -0.11773432133E+03  0.15380075671E+03  0.25912388398E+03  0.12509202369E+03 0.  0.
          5    1    3    3  502    0 -0.13608244933E+03 -0.10253118427E+03  0.93735962842E+02  0.19451215873E+03  0.41800000000E+01 0.  1.
         -5    1    3    3    0  502  0.17840622231E+02 -0.15203137057E+02  0.60064793866E+02  0.64611725253E+02  0.41800000000E+01 0.  1.
        -11    1    1    2    0    0  0.10170326059E+03  0.10648750389E+03  0.49566533206E+02  0.15537046988E+03  0.00000000000E+00 0.  1.
         11    1    1    2    0    0  0.16538566514E+02  0.11246817439E+02  0.60660147169E+02  0.63872283030E+02  0.00000000000E+00 0. -1.
</event>
<event>
 7    1  0.2840156E-009  0.1134003E+03  0.7561462E-02  0.1254400E+00
          2   -1    0    0  501    0  0.00000000000E+00  0.00000000000E+00  0.29758280590E+02  0.29758280590E+02  0.00000000000E+00 0. -1.
         -2   -1    0    0    0  501 -0.00000000000E+00 -0.00000000000E+00 -0.53364496332E+03  0.53364496332E+03  0.00000000000E+00 0.  1.
         25    2    1    2    0    0 -0.44577417697E+02 -0.37283330676E+02 -0.39714883040E+03  0.42041765206E+03  0.12508643315E+03 0.  0.
          5    1    3    3  502    0  0.89575351457E+00 -0.74354723190E+02 -0.27402784227E+03  0.28396858624E+03  0.41800000000E+01 0.  1.
         -5    1    3    3    0  502 -0.45473171212E+02  0.37071392514E+02 -0.12312098813E+03  0.13644906581E+03  0.41800000000E+01 0.  1.
        -11    1    1    2    0    0  0.49597554527E+02  0.55603438833E+02 -0.94696197909E+02  0.12049493651E+03  0.00000000000E+00 0.  1.
         11    1    1    2    0    0 -0.50201368296E+01 -0.18320108157E+02 -0.12041654422E+02  0.22490655346E+02  0.00000000000E+00 0. -1.
</event>
<event>
 7    1  0.2840156E-009  0.1301522E+03  0.7561462E-02  0.1227230E+00
          1   -1    0    0  501    0  0.00000000000E+00  0.00000000000E+00  0.21220626373E+03  0.21220626373E+03  0.00000000000E+00 0. -1.
         -1   -1    0    0    0  501 -0.00000000000E+00 -0.00000000000E+00 -0.97184877883E+02  0.97184877883E+02  0.00000000000E+00 0.  1.
         25    2    1    2    0    0  0.81350139208E+02  0.46411916239E+02  0.57819822170E+02  0.16662440911E+03  0.12509456726E+03 0.  0.
          5    1    3    3  502    0 -0.66339854859E+01  0.61830784264E+02  0.43637843066E+02  0.76084094222E+02  0.41800000000E+01 0. -1.
         -5    1    3    3    0  502  0.87984124694E+02 -0.15418868025E+02  0.14181979105E+02  0.90540314892E+02  0.41800000000E+01 0. -1.
        -11    1    1    2    0    0 -0.72896547905E+02 -0.12944276079E+02 -0.21935577361E+01  0.74069377446E+02  0.00000000000E+00 0.  1.
         11    1    1    2    0    0 -0.84535913031E+01 -0.33467640160E+02  0.59395121414E+02  0.68697355055E+02  0.00000000000E+00 0. -1.
</event>
<event>
 7    1  0.2840156E-009  0.8891250E+02  0.7561462E-02  0.1305507E+00
         -2   -1    0    0    0  501 -0.00000000000E+00  0.00000000000E+00  0.10779705640E+03  0.10779705640E+03  0.00000000000E+00 0.  1.
          2   -1    0    0  501    0  0.00000000000E+00 -0.00000000000E+00 -0.11249538328E+03  0.11249538328E+03  0.00000000000E+00 0. -1.
         25    2    1    2    0    0 -0.75192532861E+01  0.12024338226E+02  0.14783411140E+02  0.12673878910E+03  0.12507216932E+03 0.  0.
          5    1    3    3  502    0  0.52944525972E+02 -0.20476711954E+02  0.33139748649E+01  0.57016430897E+02  0.41800000000E+01 0. -1.
         -5    1    3    3    0  502 -0.60463779258E+02  0.32501050179E+02  0.11469436275E+02  0.69722358203E+02  0.41800000000E+01 0. -1.
        -11    1    1    2    0    0  0.20882429370E+02 -0.25631132009E+02  0.27401182164E+02  0.42940139362E+02  0.00000000000E+00 0.  1.
         11    1    1    2    0    0 -0.13363176084E+02  0.13606793784E+02 -0.46882920184E+02  0.50613511211E+02  0.00000000000E+00 0. -1.
</event>
<event>
 7    1  0.2840156E-009  0.1862250E+03  0.7561462E-02  0.1161911E+00
         -1   -1    0    0    0  501 -0.00000000000E+00  0.00000000000E+00  0.14255076323E+03  0.14255076323E+03  0.00000000000E+00 0.  1.
          1   -1    0    0  501    0  0.00000000000E+00 -0.00000000000E+00 -0.35921003926E+03  0.35921003926E+03  0.00000000000E+00 0. -1.
         25    2    1    2    0    0  0.12441318473E+03 -0.99725988127E+02  0.17136513443E+02  0.20338334647E+03  0.12508881759E+03 0.  0.
          5    1    3    3  502    0  0.11403632235E+03 -0.15141034263E+02 -0.50521108702E+01  0.11522382548E+03  0.41800000000E+01 0.  1.
         -5    1    3    3    0  502  0.10376862381E+02 -0.84584953864E+02  0.22188624313E+02  0.88159520994E+02  0.41800000000E+01 0.  1.
        -11    1    1    2    0    0 -0.24526262759E+02  0.59456719782E+02 -0.37427064753E+02  0.74413871477E+02  0.00000000000E+00 0.  1.
         11    1    1    2    0    0 -0.99886921969E+02  0.40269268345E+02 -0.19636872472E+03  0.22396358454E+03  0.00000000000E+00 0. -1.
</event>
<event>
 7    1  0.3248144E-009  0.1855864E+03  0.7561462E-02  0.1162503E+00
          1   -1    0    0  501    0  0.00000000000E+00  0.00000000000E+00  0.54469572549E+03  0.54469572549E+03  0.00000000000E+00 0. -1.
         -1   -1    0    0    0  501 -0.00000000000E+00 -0.00000000000E+00 -0.93392727753E+02  0.93392727753E+02  0.00000000000E+00 0.  1.
         25    2    1    2    0    0  0.14113795599E+03  0.11978982916E+03  0.33027668411E+03  0.39874835021E+03  0.12509209782E+03 0.  0.
          5    1    3    3  502    0  0.19980883634E+02  0.11825168959E+02  0.16645294671E+03  0.16811640670E+03  0.41800000000E+01 0.  1.
         -5    1    3    3    0  502  0.12115707235E+03  0.10796466020E+03  0.16382373740E+03  0.23063194351E+03  0.41800000000E+01 0.  1.
        -11    1    1    2    0    0 -0.54626249543E+02 -0.50750941393E+02 -0.10326724834E+01  0.74570447255E+02  0.00000000000E+00 0.  1.
         11    1    1    2    0    0 -0.86511706443E+02 -0.69038887764E+02  0.12205898611E+03  0.16476965578E+03  0.00000000000E+00 0. -1.
</event>
<event>
 7    1  0.2840156E-009  0.1414100E+03  0.7561462E-02  0.1211444E+00
         -2   -1    0    0    0  501 -0.00000000000E+00  0.00000000000E+00  0.15240046544E+02  0.15240046544E+02  0.00000000000E+00 0.  1.
          2   -1    0    0  501    0  0.00000000000E+00 -0.00000000000E+00 -0.18128032960E+04  0.18128032960E+04  0.00000000000E+00 0. -1.
         25    2    1    2    0    0  0.29763964989E+02 -0.11939501922E+03 -0.11253322016E+04  0.11389295736E+04  0.12508775160E+03 0.  0.
          5    1    3    3  502    0 -0.11725876565E+02 -0.33434998775E+02 -0.63729727691E+02  0.73036606684E+02  0.41800000000E+01 0.  1.
         -5    1    3    3    0  502  0.41489841555E+02 -0.85960020448E+02 -0.10616024739E+04  0.10658929670E+04  0.41800000000E+01 0.  1.
        -11    1    1    2    0    0 -0.40533286488E+02  0.10093194007E+02 -0.18523023128E+03  0.18988169595E+03  0.00000000000E+00 0.  1.
         11    1    1    2    0    0  0.10769321499E+02  0.10930182522E+03 -0.48700081657E+03  0.49923207291E+03  0.00000000000E+00 0. -1.
</event>
<event>
 7    1  0.2840156E-009  0.6578249E+02  0.7561462E-02  0.1375052E+00
          1   -1    0    0  501    0  0.00000000000E+00  0.00000000000E+00  0.54498271382E+03  0.54498271382E+03  0.00000000000E+00 0. -1.
         -1   -1    0    0    0  501 -0.00000000000E+00 -0.00000000000E+00 -0.28631596501E+02  0.28631596501E+02  0.00000000000E+00 0.  1.
         25    2    1    2    0    0  0.53681074276E+02 -0.17767673449E+01  0.21403826864E+03  0.25365706210E+03  0.12507881544E+03 0.  0.
          5    1    3    3  502    0  0.29545166089E+02 -0.43468158052E+01  0.22477520602E+03  0.22678883854E+03  0.41800000000E+01 0.  1.
         -5    1    3    3    0  502  0.24135908187E+02  0.25700484604E+01 -0.10736937374E+02  0.26868223561E+02  0.41800000000E+01 0.  1.
        -11    1    1    2    0    0 -0.46678437262E+02 -0.22281942326E+02  0.28462374403E+03  0.28928539045E+03  0.00000000000E+00 0. -1.
         11    1    1    2    0    0 -0.70026370147E+01  0.24058709671E+02  0.17689104646E+02  0.30671857775E+02  0.00000000000E+00 0.  1.
</event>
<event>
 7    1  0.2840156E-009  0.1073233E+03  0.7561462E-02  0.1265608E+00
         -2   -1    0    0    0  501 -0.00000000000E+00  0.00000000000E+00  0.24382911564E+03  0.24382911564E+03  0.00000000000E+00 0.  1.
          2   -1    0    0  501    0  0.00000000000E+00 -0.00000000000E+00 -0.64368876744E+02  0.64368876744E+02  0.00000000000E+00 0. -1.
         25    2    1    2    0    0 -0.54567167924E+01  0.49417504024E+02  0.13375677971E+03  0.18976821456E+03  0.12509689715E+03 0.  0.
          5    1    3    3  502    0  0.44796679806E+02  0.65249532939E+01  0.59714200021E+01  0.45852456794E+02  0.41800000000E+01 0.  1.
         -5    1    3    3    0  502 -0.50253396599E+02  0.42892550730E+02  0.12778535970E+03  0.14391575776E+03  0.41800000000E+01 0.  1.
        -11    1    1    2    0    0  0.36060125567E+02  0.88833247677E+01  0.36272608973E+02  0.51912891236E+02  0.00000000000E+00 0.  1.
         11    1    1    2    0    0 -0.30603408774E+02 -0.58300828792E+02  0.94308502202E+01  0.66516886595E+02  0.00000000000E+00 0. -1.
</event>
<event>
 7    1  0.2840156E-009  0.1486068E+03  0.7561462E-02  0.1202195E+00
          1   -1    0    0  501    0  0.00000000000E+00  0.00000000000E+00  0.42005191707E+03  0.42005191707E+03  0.00000000000E+00 0. -1.
         -1   -1    0    0    0  501 -0.00000000000E+00 -0.00000000000E+00 -0.71189224768E+02  0.71189224768E+02  0.00000000000E+00 0.  1.
         25    2    1    2    0    0 -0.21146324592E+02 -0.10483497365E+03  0.69327550732E+02  0.17858180452E+03  0.12509041878E+03 0.  0.
          5    1    3    3  502    0  0.78945542749E+01  0.27270433546E+02  0.66994187943E+01  0.29467866315E+02  0.41800000000E+01 0. -1.
         -5    1    3    3    0  502 -0.29040878867E+02 -0.13210540720E+03  0.62628131937E+02  0.14911393820E+03  0.41800000000E+01 0. -1.
        -11    1    1    2    0    0  0.49306263586E+02  0.43701493422E+02  0.90081352885E+02  0.11160456215E+03  0.00000000000E+00 0.  1.
         11    1    1    2    0    0 -0.28159938994E+02  0.61133480231E+02  0.18945378868E+03  0.20105477516E+03  0.00000000000E+00 0. -1.
</event>
<event>
 7    1  0.2840156E-009  0.1550709E+03  0.7561462E-02  0.1194377E+00
          2   -1    0    0  501    0  0.00000000000E+00  0.00000000000E+00  0.47874435596E+03  0.47874435596E+03  0.00000000000E+00 0. -1.
         -2   -1    0    0    0  501 -0.00000000000E+00 -0.00000000000E+00 -0.60335316613E+02  0.60335316613E+02  0.00000000000E+00 0.  1.
         25    2    1    2    0    0  0.13577741259E+01 -0.11454369708E+03  0.12356820218E+03  0.20985523358E+03  0.12509203164E+03 0.  0.
          5    1    3    3  502    0 -0.55829566604E+02 -0.92407247572E+02  0.75123218848E+02  0.13159411203E+03  0.41800000000E+01 0.  1.
         -5    1    3    3    0  502  0.57187340730E+02 -0.22136449510E+02  0.48444983330E+02  0.78261121552E+02  0.41800000000E+01 0.  1.
        -11    1    1    2    0    0  0.27219274085E+02  0.53216938509E+01  0.27660691833E+02  0.39170437575E+02  0.00000000000E+00 0.  1.
         11    1    1    2    0    0 -0.28577048211E+02  0.10922200323E+03  0.26718014534E+03  0.29005400141E+03  0.00000000000E+00 0. -1.
</event>
<event>
 7    1  0.2840156E-009  0.1150826E+03  0.7561462E-02  0.1251437E+00
          2   -1    0    0  501    0  0.00000000000E+00  0.00000000000E+00  0.30224754115E+03  0.30224754115E+03  0.00000000000E+00 0. -1.
         -2   -1    0    0    0  501 -0.00000000000E+00 -0.00000000000E+00 -0.50876146925E+02  0.50876146925E+02  0.00000000000E+00 0.  1.
         25    2    1    2    0    0  0.28032403317E+02 -0.54970714605E+02  0.14407063170E+03  0.20051859943E+03  0.12507504427E+03 0.  0.
          5    1    3    3  502    0  0.55841103385E+02  0.10637041332E+02  0.10416658440E+03  0.11874142150E+03  0.41800000000E+01 0.  1.
         -5    1    3    3    0  502 -0.27808700069E+02 -0.65607755936E+02  0.39904047302E+02  0.81777177926E+02  0.41800000000E+01 0.  1.
        -11    1    1    2    0    0  0.21566958698E+02 -0.67565594882E+01  0.48423751194E+01  0.23113489576E+02  0.00000000000E+00 0.  1.
         11    1    1    2    0    0 -0.49599362014E+02  0.61727274093E+02  0.10245838740E+03  0.12949159906E+03  0.00000000000E+00 0. -1.
</event>
<event>
 7    1  0.2840156E-009  0.8759686E+02  0.7561462E-02  0.1308778E+00
         -1   -1    0    0    0  501 -0.00000000000E+00  0.00000000000E+00  0.10045163504E+03  0.10045163504E+03  0.00000000000E+00 0.  1.
          1   -1    0    0  501    0  0.00000000000E+00 -0.00000000000E+00 -0.28015930043E+03  0.28015930043E+03  0.00000000000E+00 0. -1.
         25    2    1    2    0    0  0.95225250176E+01 -0.53719812905E+01  0.48491444499E+02  0.13460461091E+03  0.12508974547E+03 0.  0.
          5    1    3    3  502    0  0.26509559897E+02  0.37880218713E+02 -0.20960829490E+02  0.50936200374E+02  0.41800000000E+01 0.  1.
         -5    1    3    3    0  502 -0.16987034879E+02 -0.43252200003E+02  0.69452273989E+02  0.83668410534E+02  0.41800000000E+01 0.  1.
        -11    1    1    2    0    0 -0.36155530558E+02 -0.23275028273E+02 -0.63244238926E+02  0.76477337090E+02  0.00000000000E+00 0.  1.
         11    1    1    2    0    0  0.26633005540E+02  0.28647009563E+02 -0.16495487096E+03  0.16952898747E+03  0.00000000000E+00 0. -1.
</event>
<event>
 7    1  0.2840156E-009  0.1391225E+03  0.7561462E-02  0.1214515E+00
         -1   -1    0    0    0  501 -0.00000000000E+00  0.00000000000E+00  0.34822544484E+02  0.34822544484E+02  0.00000000000E+00 0.  1.
          1   -1    0    0  501    0  0.00000000000E+00 -0.00000000000E+00 -0.76297612140E+03  0.76297612140E+03  0.00000000000E+00 0. -1.
         25    2    1    2    0    0  0.88980260419E+02  0.68508712924E+02 -0.27782854094E+03  0.32472568175E+03  0.12508852759E+03 0.  0.
          5    1    3    3  502    0  0.79334049732E+02  0.93130629071E+01 -0.63513955275E+02  0.10213774769E+03  0.41800000000E+01 0. -1.
         -5    1    3    3    0  502  0.96462106865E+01  0.59195650017E+02 -0.21431458566E+03  0.22258793406E+03  0.41800000000E+01 0. -1.
        -11    1    1    2    0    0 -0.34655827141E+02 -0.75777640251E+02 -0.19719837690E+03  0.21408053851E+03  0.00000000000E+00 0.  1.
         11    1    1    2    0    0 -0.54324433278E+02  0.72689273273E+01 -0.25312665907E+03  0.25899244562E+03  0.00000000000E+00 0. -1.
</event>
<event>
 7    1  0.2840156E-009  0.1219459E+03  0.7561462E-02  0.1239921E+00
          1   -1    0    0  501    0  0.00000000000E+00  0.00000000000E+00  0.24653386275E+03  0.24653386275E+03  0.00000000000E+00 0. -1.
         -1   -1    0    0    0  501 -0.00000000000E+00 -0.00000000000E+00 -0.81158286059E+02  0.81158286059E+02  0.00000000000E+00 0.  1.
         25    2    1    2    0    0  0.25243765763E+02  0.85011018194E+02  0.67838286993E+02  0.16766217741E+03  0.12507778230E+03 0.  0.
          5    1    3    3  502    0 -0.46543240795E+02  0.38196960568E+02  0.53528841328E+02  0.80672735879E+02  0.41800000000E+01 0. -1.
         -5    1    3    3    0  502  0.71787006557E+02  0.46814057626E+02  0.14309445665E+02  0.86989441527E+02  0.41800000000E+01 0. -1.
        -11    1    1    2    0    0  0.52322842786E+01 -0.53999015852E+02  0.10279508783E+03  0.11623295830E+03  0.00000000000E+00 0. -1.
         11    1    1    2    0    0 -0.30476050041E+02 -0.31012002342E+02 -0.52577981393E+01  0.43797013102E+02  0.00000000000E+00 0.  1.
</event>
<event>
 7    1  0.2840156E-009  0.1284025E+03  0.7561462E-02  0.1229846E+00
         -1   -1    0    0    0  501 -0.00000000000E+00  0.00000000000E+00  0.29520141974E+03  0.29520141974E+03  0.00000000000E+00 0.  1.
          1   -1    0    0  501    0  0.00000000000E+00 -0.00000000000E+00 -0.60613748369E+02  0.60613748369E+02  0.00000000000E+00 0. -1.
         25    2    1    2    0    0 -0.46203937716E+02  0.83378489626E+02  0.12797751291E+03  0.20276177288E+03  0.12508923350E+03 0.  0.
          5    1    3    3  502    0 -0.87081826974E+02  0.45865460896E+02  0.61749911608E+02  0.11626439298E+03  0.41800000000E+01 0.  1.
         -5    1    3    3    0  502  0.40877889258E+02  0.37513028730E+02  0.66227601305E+02  0.86497379899E+02  0.41800000000E+01 0.  1.
        -11    1    1    2    0    0  0.21422549096E+02 -0.72486651798E+02  0.99704915448E+02  0.12511718692E+03  0.00000000000E+00 0.  1.
         11    1    1    2    0    0  0.24781388620E+02 -0.10891837828E+02  0.69052430053E+01  0.27936208300E+02  0.00000000000E+00 0. -1.
</event>
<event>
 7    1  0.2840156E-009  0.1362638E+03  0.7561462E-02  0.1218447E+00
          4   -1    0    0  501    0  0.00000000000E+00  0.00000000000E+00  0.21156271253E+03  0.21156271253E+03  0.00000000000E+00 0. -1.
         -4   -1    0    0    0  501 -0.00000000000E+00 -0.00000000000E+00 -0.10485076104E+03  0.10485076104E+03  0.00000000000E+00 0.  1.
         25    2    1    2    0    0  0.30537035836E+02 -0.10000438087E+03  0.65593618226E+02  0.17573504032E+03  0.12508754891E+03 0.  0.
          5    1    3    3  502    0  0.52338896957E+02 -0.22052511531E+02  0.74966057267E+02  0.94143802460E+02  0.41800000000E+01 0.  1.
         -5    1    3    3    0  502 -0.21801861121E+02 -0.77951869337E+02 -0.93724390402E+01  0.81591237857E+02  0.41800000000E+01 0.  1.
        -11    1    1    2    0    0  0.84528325881E+01  0.94818522397E+02  0.29764562141E+02  0.99739318865E+02  0.00000000000E+00 0.  1.
         11    1    1    2    0    0 -0.38989868424E+02  0.51858584704E+01  0.11353771124E+02  0.40939114384E+02  0.00000000000E+00 0. -1.
</event>
<event>
 7    1  0.2840156E-009  0.9595454E+02  0.7561462E-02  0.1289041E+00
          2   -1    0    0  501    0  0.00000000000E+00  0.00000000000E+00  0.18383847910E+03  0.18383847910E+03  0.00000000000E+00 0. -1.
         -2   -1    0    0    0  501 -0.00000000000E+00 -0.00000000000E+00 -0.85933695639E+02  0.85933695639E+02  0.00000000000E+00 0.  1.
         25    2    1    2    0    0  0.41320296828E+02  0.26280709803E+02  0.10705903059E+02  0.13476039582E+03  0.12509078817E+03 0.  0.
          5    1    3    3  502    0 -0.44539712164E+02  0.85537944711E+01  0.11543437804E+02  0.46985920400E+02  0.41800000000E+01 0.  1.
         -5    1    3    3    0  502  0.85860008992E+02  0.17726915332E+02 -0.83753474451E+00  0.87774475423E+02  0.41800000000E+01 0.  1.
        -11    1    1    2    0    0 -0.53679855793E+01 -0.21694890189E+02 -0.14773018402E+02  0.26790401307E+02  0.00000000000E+00 0.  1.
         11    1    1    2    0    0 -0.35952311248E+02 -0.45858196138E+01  0.10197189880E+03  0.10822137760E+03  0.00000000000E+00 0. -1.
</event>
<event>
 7    1  0.2840156E-009  0.9506965E+02  0.7561462E-02  0.1291019E+00
          2   -1    0    0  501    0  0.00000000000E+00  0.00000000000E+00  0.20850023252E+03  0.20850023252E+03  0.00000000000E+00 0. -1.
         -2   -1    0    0    0  501 -0.00000000000E+00 -0.00000000000E+00 -0.71905209838E+02  0.71905209838E+02  0.00000000000E+00 0.  1.
         25    2    1    2    0    0  0.41432619843E+02  0.16296705081E+02  0.12598093793E+03  0.18303245614E+03  0.12508972257E+03 0.  0.
          5    1    3    3  502    0 -0.10097766382E+02 -0.25650335747E+02 -0.11593272184E+02  0.30195711116E+02  0.41800000000E+01 0. -1.
         -5    1    3    3    0  502  0.51530386224E+02  0.41947040828E+02  0.13757421012E+03  0.15283674502E+03  0.41800000000E+01 0. -1.
        -11    1    1    2    0    0 -0.65514713127E+02 -0.24931438515E+02  0.14251966861E+02  0.71532320121E+02  0.00000000000E+00 0.  1.
         11    1    1    2    0    0  0.24082093284E+02  0.86347334334E+01 -0.36378821113E+01  0.25840666103E+02  0.00000000000E+00 0. -1.
</event>
<event>
 7    1  0.2840156E-009  0.9709283E+02  0.7561462E-02  0.1286531E+00
          2   -1    0    0  501    0  0.00000000000E+00  0.00000000000E+00  0.19151166331E+03  0.19151166331E+03  0.00000000000E+00 0. -1.
         -2   -1    0    0    0  501 -0.00000000000E+00 -0.00000000000E+00 -0.70878290180E+02  0.70878290180E+02  0.00000000000E+00 0.  1.
         25    2    1    2    0    0  0.16124878798E+02  0.23244919974E+02  0.93784185971E+02  0.15887980256E+03  0.12508788951E+03 0.  0.
          5    1    3    3  502    0  0.69595034940E+02  0.17161969280E+02  0.37923839919E+02  0.81201552399E+02  0.41800000000E+01 0.  1.
         -5    1    3    3    0  502 -0.53470156142E+02  0.60829506943E+01  0.55860346052E+02  0.77678250161E+02  0.41800000000E+01 0.  1.
        -11    1    1    2    0    0  0.17374301627E+02  0.10950311417E+02 -0.25389254273E+02  0.32655626004E+02  0.00000000000E+00 0.  1.
         11    1    1    2    0    0 -0.33499180425E+02 -0.34195231392E+02  0.52238441428E+02  0.70854524922E+02  0.00000000000E+00 0. -1.
</event>
<event>
 7    1  0.2840156E-009  0.1479539E+03  0.7561462E-02  0.1203010E+00
          2   -1    0    0  501    0  0.00000000000E+00  0.00000000000E+00  0.21922497810E+03  0.21922497810E+03  0.00000000000E+00 0.  1.
         -2   -1    0    0    0  501 -0.00000000000E+00 -0.00000000000E+00 -0.11073580131E+03  0.11073580131E+03  0.00000000000E+00 0. -1.
         25    2    1    2    0    0  0.72507863763E+02  0.70569340042E+02  0.11314508719E+02  0.16128908114E+03  0.12509487410E+03 0.  0.
          5    1    3    3  502    0  0.95354675699E+02  0.89543959888E+02  0.80764133392E+01  0.13112336093E+03  0.41800000000E+01 0. -1.
         -5    1    3    3    0  502 -0.22846811936E+02 -0.18974619846E+02  0.32380953799E+01  0.30165720207E+02  0.41800000000E+01 0. -1.
        -11    1    1    2    0    0 -0.82667820419E+02 -0.22171721481E+02  0.77452340941E+02  0.11543144668E+03  0.00000000000E+00 0.  1.
         11    1    1    2    0    0  0.10159956656E+02 -0.48397618562E+02  0.19722327132E+02  0.53240251588E+02  0.00000000000E+00 0. -1.
</event>
<event>
 7    1  0.3312608E-009  0.1006139E+03  0.7561462E-02  0.1279010E+00
          2   -1    0    0  501    0  0.00000000000E+00  0.00000000000E+00  0.77305823628E+03  0.77305823628E+03  0.00000000000E+00 0.  1.
         -2   -1    0    0    0  501 -0.00000000000E+00 -0.00000000000E+00 -0.21690319633E+02  0.21690319633E+02  0.00000000000E+00 0. -1.
         25    2    1    2    0    0  0.25190384515E+02  0.52840409982E+02  0.53657271710E+03  0.55406026772E+03  0.12508331275E+03 0.  0.
          5    1    3    3  502    0  0.62586621541E+02  0.64961118693E+02  0.44881182562E+03  0.45780624652E+03  0.41800000000E+01 0. -1.
         -5    1    3    3    0  502 -0.37396237025E+02 -0.12120708710E+02  0.87760891477E+02  0.96254021195E+02  0.41800000000E+01 0. -1.
        -11    1    1    2    0    0 -0.30979816261E+02 -0.17499694891E+02  0.19793236795E+03  0.20110497413E+03  0.00000000000E+00 0.  1.
         11    1    1    2    0    0  0.57894317459E+01 -0.35340715092E+02  0.16862831599E+02  0.39583314069E+02  0.00000000000E+00 0. -1.
</event>
<event>
 7    1  0.2840156E-009  0.1049496E+03  0.7561462E-02  0.1270219E+00
         -1   -1    0    0    0  501 -0.00000000000E+00  0.00000000000E+00  0.14737311753E+02  0.14737311753E+02  0.00000000000E+00 0.  1.
          1   -1    0    0  501    0  0.00000000000E+00 -0.00000000000E+00 -0.13246893112E+04  0.13246893112E+04  0.00000000000E+00 0. -1.
         25    2    1    2    0    0  0.24103905474E+02  0.54993738862E+02 -0.10264678930E+04  0.10358046839E+04  0.12509875391E+03 0.  0.
          5    1    3    3  502    0  0.59727481183E+02  0.58317988449E+02 -0.91154082726E+03  0.91536468795E+03  0.41800000000E+01 0. -1.
         -5    1    3    3    0  502 -0.35623575709E+02 -0.33242495870E+01 -0.11492706575E+03  0.12043999595E+03  0.41800000000E+01 0. -1.
        -11    1    1    2    0    0 -0.17287713722E+02 -0.70907277219E+02 -0.27465874335E+03  0.28419031002E+03  0.00000000000E+00 0. -1.
         11    1    1    2    0    0 -0.68161917515E+01  0.15913538357E+02 -0.88253630643E+01  0.19431629017E+02  0.00000000000E+00 0.  1.
</event>
<event>
 7    1  0.2840156E-009  0.1268186E+03  0.7561462E-02  0.1232254E+00
          2   -1    0    0  501    0  0.00000000000E+00  0.00000000000E+00  0.27951919146E+03  0.27951919146E+03  0.00000000000E+00 0.  1.
         -2   -1    0    0    0  501 -0.00000000000E+00 -0.00000000000E+00 -0.80223252466E+02  0.80223252466E+02  0.00000000000E+00 0. -1.
         25    2    1    2    0    0  0.87804351542E+02  0.45218388663E+01  0.16823471815E+03  0.22733001368E+03  0.12508382611E+03 0.  0.
          5    1    3    3  502    0  0.26916336555E+02 -0.41281680539E+02  0.83351019495E+01  0.50155883465E+02  0.41800000000E+01 0. -1.
         -5    1    3    3    0  502  0.60888014987E+02  0.45803519405E+02  0.15989961620E+03  0.17717413022E+03  0.41800000000E+01 0. -1.
        -11    1    1    2    0    0  0.15498748188E+02 -0.17932125412E+02 -0.29688972862E-01  0.23701755180E+02  0.00000000000E+00 0.  1.
         11    1    1    2    0    0 -0.10330309973E+03  0.13410286546E+02  0.31090909823E+02  0.10871067506E+03  0.00000000000E+00 0. -1.
</event>
<event>
 7    1  0.2840156E-009  0.1288052E+03  0.7561462E-02  0.1229239E+00
          1   -1    0    0  501    0  0.00000000000E+00  0.00000000000E+00  0.13976710647E+04  0.13976710647E+04  0.00000000000E+00 0. -1.
         -1   -1    0    0    0  501 -0.00000000000E+00 -0.00000000000E+00 -0.15647371005E+02  0.15647371005E+02  0.00000000000E+00 0.  1.
         25    2    1    2    0    0  0.83310645103E+02 -0.44991845227E+02  0.88777750973E+03  0.90153322683E+03  0.12509325555E+03 0.  0.
          5    1    3    3  502    0 -0.18864643986E+02 -0.45539978352E+02  0.19151450550E+03  0.19780051223E+03  0.41800000000E+01 0. -1.
         -5    1    3    3    0  502  0.10217528909E+03  0.54813312525E+00  0.69626300422E+03  0.70373271460E+03  0.41800000000E+01 0. -1.
        -11    1    1    2    0    0 -0.68836051223E+02  0.55142843708E+02  0.48264901820E+03  0.49064163086E+03  0.00000000000E+00 0. -1.
         11    1    1    2    0    0 -0.14474593881E+02 -0.10150998481E+02  0.11597165809E+02  0.21143578055E+02  0.00000000000E+00 0.  1.
</event>
<event>
 7    1  0.2840156E-009  0.1124655E+03  0.7561462E-02  0.1256071E+00
          1   -1    0    0  501    0  0.00000000000E+00  0.00000000000E+00  0.65620024913E+03  0.65620024913E+03  0.00000000000E+00 0. -1.
         -1   -1    0    0    0  501 -0.00000000000E+00 -0.00000000000E+00 -0.24357829761E+02  0.24357829761E+02  0.00000000000E+00 0.  1.
         25    2    1    2    0    0  0.20645475881E+02  0.30203310223E+02  0.49154563947E+03  0.50853004484E+03  0.12508882922E+03 0.  0.
          5    1    3    3  502    0  0.56153911743E+02  0.60957654859E+02  0.30028816176E+03  0.31154381711E+03  0.41800000000E+01 0.  1.
         -5    1    3    3    0  502 -0.35508435862E+02 -0.30754344636E+02  0.19125747772E+03  0.19698622773E+03  0.41800000000E+01 0.  1.
        -11    1    1    2    0    0  0.33895553008E+02 -0.19817378223E+02  0.33297622355E+02  0.51481731205E+02  0.00000000000E+00 0.  1.
         11    1    1    2    0    0 -0.54541028889E+02 -0.10385932000E+02  0.10699915755E+03  0.12054630285E+03  0.00000000000E+00 0. -1.
</event>
<event>
 7    1  0.2840156E-009  0.1185015E+03  0.7561462E-02  0.1245590E+00
         -2   -1    0    0    0  501 -0.00000000000E+00  0.00000000000E+00  0.27839033883E+03  0.27839033883E+03  0.00000000000E+00 0.  1.
          2   -1    0    0  501    0  0.00000000000E+00 -0.00000000000E+00 -0.69579907268E+02  0.69579907268E+02  0.00000000000E+00 0. -1.
         25    2    1    2    0    0  0.21527449941E+02 -0.82431998760E+02  0.11789003923E+03  0.19184694523E+03  0.12509485810E+03 0.  0.
          5    1    3    3  502    0  0.19965986399E+02  0.22349741671E+02 -0.45843537042E+01  0.30604579143E+02  0.41800000000E+01 0. -1.
         -5    1    3    3    0  502  0.15614635423E+01 -0.10478174043E+03  0.12247439294E+03  0.16124236609E+03  0.41800000000E+01 0. -1.
        -11    1    1    2    0    0 -0.40550470142E+02  0.60524016515E+02  0.14366601307E+02  0.74255615524E+02  0.00000000000E+00 0. -1.
         11    1    1    2    0    0  0.19023020201E+02  0.21907982245E+02  0.76553791024E+02  0.81867685345E+02  0.00000000000E+00 0.  1.
</event>
<event>
 7    1  0.2840156E-009  0.1683518E+03  0.7561462E-02  0.1179578E+00
          2   -1    0    0  501    0  0.00000000000E+00  0.00000000000E+00  0.72568147254E+03  0.72568147254E+03  0.00000000000E+00 0. -1.
         -2   -1    0    0    0  501 -0.00000000000E+00 -0.00000000000E+00 -0.43073000725E+02  0.43073000725E+02  0.00000000000E+00 0.  1.
         25    2    1    2    0    0 -0.22253653423E+01  0.13761641717E+03  0.42568867044E+03  0.46454383503E+03  0.12508756935E+03 0.  0.
          5    1    3    3  502    0  0.45884035279E+02  0.22247501013E+02  0.20081643173E+03  0.20723177278E+03  0.41800000000E+01 0. -1.
         -5    1    3    3    0  502 -0.48109400621E+02  0.11536891616E+03  0.22487223870E+03  0.25731206225E+03  0.41800000000E+01 0. -1.
        -11    1    1    2    0    0 -0.39751304851E+02 -0.55748018598E+02  0.13606832789E+03  0.15232398915E+03  0.00000000000E+00 0.  1.
         11    1    1    2    0    0  0.41976670194E+02 -0.81868398573E+02  0.12085147349E+03  0.15188664908E+03  0.00000000000E+00 0. -1.
</event>
<event>
 7    1  0.2840156E-009  0.1389947E+03  0.7561462E-02  0.1214688E+00
          2   -1    0    0  501    0  0.00000000000E+00  0.00000000000E+00  0.96266569127E+03  0.96266569127E+03  0.00000000000E+00 0. -1.
         -2   -1    0    0    0  501 -0.00000000000E+00 -0.00000000000E+00 -0.23605597738E+02  0.23605597738E+02  0.00000000000E+00 0.  1.
         25    2    1    2    0    0 -0.62530201440E+02 -0.79105598664E+02  0.42087450176E+03  0.45050049082E+03  0.12509046392E+03 0.  0.
          5    1    3    3  502    0  0.30543028379E+02 -0.11855420397E+01  0.15718361868E+03  0.16018253486E+03  0.41800000000E+01 0.  1.
         -5    1    3    3    0  502 -0.93073229819E+02 -0.77920056624E+02  0.26369088308E+03  0.29031795596E+03  0.41800000000E+01 0.  1.
        -11    1    1    2    0    0  0.61335797830E+02  0.17112791475E+02  0.36498750217E+03  0.37050074827E+03  0.00000000000E+00 0. -1.
         11    1    1    2    0    0  0.11944036102E+01  0.61992807189E+02  0.15319808960E+03  0.16527004992E+03  0.00000000000E+00 0.  1.
</event>
<event>
 7    1  0.2840156E-009  0.1089014E+03  0.7561462E-02  0.1262618E+00
         -2   -1    0    0    0  501 -0.00000000000E+00  0.00000000000E+00  0.16897740302E+02  0.16897740302E+02  0.00000000000E+00 0. -1.
          2   -1    0    0  501    0  0.00000000000E+00 -0.00000000000E+00 -0.13620491649E+04  0.13620491649E+04  0.00000000000E+00 0.  1.
         25    2    1    2    0    0  0.47757896089E+02 -0.85765920170E+02 -0.89676269834E+03  0.91075089682E+03  0.12508896522E+03 0.  0.
          5    1    3    3  502    0  0.29110070069E+02 -0.25936944892E+02 -0.75112003076E+03  0.75214286828E+03  0.41800000000E+01 0.  1.
         -5    1    3    3    0  502  0.18647826019E+02 -0.59828975278E+02 -0.14564266758E+03  0.15860802854E+03  0.41800000000E+01 0.  1.
        -11    1    1    2    0    0 -0.62524666363E+02  0.74171709029E+02 -0.43353551198E+03  0.44425647600E+03  0.00000000000E+00 0.  1.
         11    1    1    2    0    0  0.14766770274E+02  0.11594211141E+02 -0.14853214287E+02  0.23939532388E+02  0.00000000000E+00 0. -1.
</event>
<event>
 7    1  0.2840156E-009  0.1588546E+03  0.7561462E-02  0.1189996E+00
          2   -1    0    0  501    0  0.00000000000E+00  0.00000000000E+00  0.10363476666E+04  0.10363476666E+04  0.00000000000E+00 0. -1.
         -2   -1    0    0    0  501 -0.00000000000E+00 -0.00000000000E+00 -0.30401644685E+02  0.30401644685E+02  0.00000000000E+00 0.  1.
         25    2    1    2    0    0  0.93967323962E+01 -0.13401221500E+03  0.41272008920E+03  0.45170305150E+03  0.12510076882E+03 0.  0.
          5    1    3    3  502    0  0.66404437545E+02 -0.67358024543E+02  0.18955831803E+03  0.21188789756E+03  0.41800000000E+01 0.  1.
         -5    1    3    3    0  502 -0.57007705149E+02 -0.66654190460E+02  0.22316177116E+03  0.23981515394E+03  0.41800000000E+01 0.  1.
        -11    1    1    2    0    0 -0.90326428496E+01  0.33109453418E+02  0.40050746258E+02  0.52743595045E+02  0.00000000000E+00 0.  1.
         11    1    1    2    0    0 -0.36408954660E+00  0.10090276159E+03  0.55317518646E+03  0.56230266474E+03  0.00000000000E+00 0. -1.
</event>
<event>
 7    1  0.2840156E-009  0.1652803E+03  0.7561462E-02  0.1182861E+00
         -2   -1    0    0    0  501 -0.00000000000E+00  0.00000000000E+00  0.78672152129E+02  0.78672152129E+02  0.00000000000E+00 0.  1.
          2   -1    0    0  501    0  0.00000000000E+00 -0.00000000000E+00 -0.55012529769E+03  0.55012529769E+03  0.00000000000E+00 0. -1.
         25    2    1    2    0    0  0.57530370638E+02 -0.14652514547E+03 -0.36480741200E+03  0.41654724006E+03  0.12509114100E+03 0.  0.
          5    1    3    3  502    0  0.36865318955E+02 -0.63809759176E+02 -0.47068902600E+02  0.87542510244E+02  0.41800000000E+01 0. -1.
         -5    1    3    3    0  502  0.20665051684E+02 -0.82715386289E+02 -0.31773850940E+03  0.32900472982E+03  0.41800000000E+01 0. -1.
        -11    1    1    2    0    0 -0.62039850330E+02  0.65425028099E+02 -0.17859195342E+02  0.91914787652E+02  0.00000000000E+00 0.  1.
         11    1    1    2    0    0  0.45094796917E+01  0.81100117366E+02 -0.88786538225E+02  0.12033542211E+03  0.00000000000E+00 0. -1.
</event>
<event>
 7    1  0.2840156E-009  0.1382647E+03  0.7561462E-02  0.1215683E+00
          1   -1    0    0  501    0  0.00000000000E+00  0.00000000000E+00  0.15877323175E+04  0.15877323175E+04  0.00000000000E+00 0. -1.
         -1   -1    0    0    0  501 -0.00000000000E+00 -0.00000000000E+00 -0.21444074057E+02  0.21444074057E+02  0.00000000000E+00 0.  1.
         25    2    1    2    0    0 -0.11405500870E+03  0.35508360359E+02  0.11819374882E+04  0.11945263466E+04  0.12509028015E+03 0.  0.
          5    1    3    3  502    0 -0.80171193817E+01  0.24077223195E+02  0.39635023574E+02  0.47248220852E+02  0.41800000000E+01 0.  1.
         -5    1    3    3    0  502 -0.10603788932E+03  0.11431137163E+02  0.11423024646E+04  0.11472781258E+04  0.41800000000E+01 0.  1.
        -11    1    1    2    0    0  0.80288962822E+02 -0.61769350786E+02  0.33163979505E+03  0.34676609394E+03  0.00000000000E+00 0.  1.
         11    1    1    2    0    0  0.33766045879E+02  0.26260990427E+02  0.52710960196E+02  0.67883950956E+02  0.00000000000E+00 0. -1.
</event>
<event>
 7    1  0.2840156E-009  0.9468475E+02  0.7561462E-02  0.1291888E+00
          1   -1    0    0  501    0  0.00000000000E+00  0.00000000000E+00  0.28963297696E+03  0.28963297696E+03  0.00000000000E+00 0. -1.
         -1   -1    0    0    0  501 -0.00000000000E+00 -0.00000000000E+00 -0.53239796626E+02  0.53239796626E+02  0.00000000000E+00 0.  1.
         25    2    1    2    0    0  0.52755698220E+02  0.24381469700E+02  0.14371151429E+03  0.19919321145E+03  0.12508923371E+03 0.  0.
          5    1    3    3  502    0  0.36129983098E+02 -0.28142502220E+02  0.13580431667E+03  0.14337942997E+03  0.41800000000E+01 0.  1.
         -5    1    3    3    0  502  0.16625715123E+02  0.52523971919E+02  0.79071976131E+01  0.55813781485E+02  0.41800000000E+01 0.  1.
        -11    1    1    2    0    0 -0.65614570847E+02 -0.32191850371E+02  0.10237191923E+03  0.12578392976E+03  0.00000000000E+00 0. -1.
         11    1    1    2    0    0  0.12858872626E+02  0.78103806712E+01 -0.96902531864E+01  0.17895632379E+02  0.00000000000E+00 0.  1.
</event>
<event>
 7    1  0.2840156E-009  0.1609362E+03  0.7561462E-02  0.1187644E+00
         -2   -1    0    0    0  501 -0.00000000000E+00  0.00000000000E+00  0.51563855029E+02  0.51563855029E+02  0.00000000000E+00 0. -1.
          2   -1    0    0  501    0  0.00000000000E+00 -0.00000000000E+00 -0.60358713214E+03  0.60358713214E+03  0.00000000000E+00 0.  1.
         25    2    1    2    0    0 -0.11078870596E+03  0.73524803214E+02 -0.22022740719E+03  0.28606229433E+03  0.12510592034E+03 0.  0.
          5    1    3    3  502    0 -0.66416758135E+02 -0.86432379408E+01 -0.16345846039E+03  0.17669757213E+03  0.41800000000E+01 0.  1.
         -5    1    3    3    0  502 -0.44371947820E+02  0.82168041154E+02 -0.56768946797E+02  0.10936472220E+03  0.41800000000E+01 0.  1.
        -11    1    1    2    0    0  0.74229437755E+02  0.52791873397E+01 -0.14047399245E+03  0.15896798987E+03  0.00000000000E+00 0. -1.
         11    1    1    2    0    0  0.36559268200E+02 -0.78803990553E+02 -0.19132187746E+03  0.21012070297E+03  0.00000000000E+00 0.  1.
</event>
<event>
 7    1  0.2840156E-009  0.7390333E+02  0.7561462E-02  0.1347301E+00
         -2   -1    0    0    0  501 -0.00000000000E+00  0.00000000000E+00  0.63260677102E+02  0.63260677102E+02  0.00000000000E+00 0. -1.
          2   -1    0    0  501    0  0.00000000000E+00 -0.00000000000E+00 -0.22624710413E+03  0.22624710413E+03  0.00000000000E+00 0.  1.
         25    2    1    2    0    0  0.15577571968E+02  0.48071391964E+01 -0.28768215300E+02  0.12938747825E+03  0.12509092685E+03 0.  0.
          5    1    3    3  502    0  0.57499719999E+02 -0.15440128106E+02 -0.50178851217E+02  0.77974385957E+02  0.41800000000E+01 0. -1.
         -5    1    3    3    0  502 -0.41922148030E+02  0.20247267302E+02  0.21410635918E+02  0.51413092293E+02  0.41800000000E+01 0. -1.
        -11    1    1    2    0    0  0.83927605500E+01  0.10116194015E+02  0.78253573970E+01  0.15297451728E+02  0.00000000000E+00 0. -1.
         11    1    1    2    0    0 -0.23970332518E+02 -0.14923333211E+02 -0.14204356913E+03  0.14482285125E+03  0.00000000000E+00 0.  1.
</event>
<event>
 7    1  0.2840156E-009  0.1373955E+03  0.7561462E-02  0.1216877E+00
          1   -1    0    0  501    0  0.00000000000E+00  0.00000000000E+00  0.36895882799E+02  0.36895882799E+02  0.00000000000E+00 0. -1.
         -1   -1    0    0    0  501 -0.00000000000E+00 -0.00000000000E+00 -0.55697841236E+03  0.55697841236E+03  0.00000000000E+00 0.  1.
         25    2    1    2    0    0  0.76224997237E+02  0.43672236292E+02 -0.35407522427E+03  0.38565632503E+03  0.12507606552E+03 0.  0.
          5    1    3    3  502    0  0.47593176867E+02 -0.39566616486E+02 -0.18281736850E+03  0.19305514821E+03  0.41800000000E+01 0.  1.
         -5    1    3    3    0  502  0.28631820370E+02  0.83238852778E+02 -0.17125785577E+03  0.19260117682E+03  0.41800000000E+01 0.  1.
        -11    1    1    2    0    0  0.57663944910E+01 -0.42237502628E+02 -0.69970746444E+02  0.81933895865E+02  0.00000000000E+00 0. -1.
         11    1    1    2    0    0 -0.81991391728E+02 -0.14347336642E+01 -0.96036558850E+02  0.12628407427E+03  0.00000000000E+00 0.  1.
</event>
<event>
 7    1  0.2840156E-009  0.1205688E+03  0.7561462E-02  0.1242162E+00
         -1   -1    0    0    0  501 -0.00000000000E+00  0.00000000000E+00  0.33445961160E+02  0.33445961160E+02  0.00000000000E+00 0.  1.
          1   -1    0    0  501    0  0.00000000000E+00 -0.00000000000E+00 -0.64620396654E+03  0.64620396654E+03  0.00000000000E+00 0. -1.
         25    2    1    2    0    0 -0.43966783055E+02  0.61747184933E+02 -0.47734406607E+03  0.49924929801E+03  0.12508681502E+03 0.  0.
          5    1    3    3  502    0 -0.79376223762E+02  0.12363516257E+02 -0.33303362134E+03  0.34261101379E+03  0.41800000000E+01 0.  1.
         -5    1    3    3    0  502  0.35409440706E+02  0.49383668677E+02 -0.14431044473E+03  0.15663828422E+03  0.41800000000E+01 0.  1.
        -11    1    1    2    0    0  0.21792451421E+02  0.10515669797E+02  0.12460986425E+01  0.24228970511E+02  0.00000000000E+00 0.  1.
         11    1    1    2    0    0  0.22174331634E+02 -0.72262854730E+02 -0.13666003796E+03  0.15617165918E+03  0.00000000000E+00 0. -1.
</event>
<event>
 7    1  0.2840156E-009  0.9489352E+02  0.7561462E-02  0.1291416E+00
          1   -1    0    0  501    0  0.00000000000E+00  0.00000000000E+00  0.40818983736E+03  0.40818983736E+03  0.00000000000E+00 0. -1.
         -1   -1    0    0    0  501 -0.00000000000E+00 -0.00000000000E+00 -0.40493497444E+02  0.40493497444E+02  0.00000000000E+00 0.  1.
         25    2    1    2    0    0  0.38665793814E+02 -0.46564305184E+02  0.25926199466E+03  0.29415544209E+03  0.12508942443E+03 0.  0.
          5    1    3    3  502    0  0.53808503663E+02 -0.60674068633E+02  0.26063814441E+03  0.27299526075E+03  0.41800000000E+01 0. -1.
         -5    1    3    3    0  502 -0.15142709849E+02  0.14109763449E+02 -0.13761497445E+01  0.21160181338E+02  0.41800000000E+01 0. -1.
        -11    1    1    2    0    0 -0.34331004494E+02 -0.58912366058E+01  0.93557493385E+02  0.99831503578E+02  0.00000000000E+00 0. -1.
         11    1    1    2    0    0 -0.43347893197E+01  0.52455541790E+02  0.14876851864E+02  0.54696389134E+02  0.00000000000E+00 0.  1.
</event>
<event>
 7    1  0.2840156E-009  0.1162813E+03  0.7561462E-02  0.1249361E+00
         -1   -1    0    0    0  501 -0.00000000000E+00  0.00000000000E+00  0.23101432524E+02  0.23101432524E+02  0.00000000000E+00 0.  1.
          1   -1    0    0  501    0  0.00000000000E+00 -0.00000000000E+00 -0.62366028284E+03  0.62366028284E+03  0.00000000000E+00 0. -1.
         25    2    1    2    0    0 -0.43365126848E+02 -0.28406456830E+02 -0.32112609259E+03  0.34850657714E+03  0.12508959170E+03 0.  0.
          5    1    3    3  502    0 -0.43095760632E+02 -0.72717630036E+02 -0.15589886692E+03  0.17738947942E+03  0.41800000000E+01 0.  1.
         -5    1    3    3    0  502 -0.26936621561E+00  0.44311173206E+02 -0.16522722567E+03  0.17111709771E+03  0.41800000000E+01 0.  1.
        -11    1    1    2    0    0  0.30714033176E+02 -0.30432850610E+02 -0.98402585958E+02  0.10748292494E+03  0.00000000000E+00 0. -1.
         11    1    1    2    0    0  0.12651093671E+02  0.58839307440E+02 -0.18103017178E+03  0.19077221329E+03  0.00000000000E+00 0.  1.
</event>
<event>
 7    1  0.2840156E-009  0.1270552E+03  0.7561462E-02  0.1231892E+00
         -1   -1    0    0    0  501 -0.00000000000E+00  0.00000000000E+00  0.61034504222E+03  0.61034504222E+03  0.00000000000E+00 0.  1.
          1   -1    0    0  501    0  0.00000000000E+00 -0.00000000000E+00 -0.41814683305E+02  0.41814683305E+02  0.00000000000E+00 0. -1.
         25    2    1    2    0    0 -0.73840855933E+02  0.21360821806E+02  0.48531104192E+03  0.50703212642E+03  0.12508402414E+03 0.  0.
          5    1    3    3  502    0 -0.67866357403E+02  0.69537666441E+02  0.29695176896E+03  0.31247264682E+03  0.41800000000E+01 0. -1.
         -5    1    3    3    0  502 -0.59744985298E+01 -0.48176844635E+02  0.18835927296E+03  0.19455947960E+03  0.41800000000E+01 0. -1.
        -11    1    1    2    0    0  0.41133220060E+02  0.27392940423E+02  0.68737509775E+02  0.84659082369E+02  0.00000000000E+00 0.  1.
         11    1    1    2    0    0  0.32707635873E+02 -0.48753762229E+02  0.14481807215E+02  0.60468516735E+02  0.00000000000E+00 0. -1.
</event>
<event>
 7    1  0.2840156E-009  0.9469444E+02  0.7561462E-02  0.1291866E+00
          1   -1    0    0  501    0  0.00000000000E+00  0.00000000000E+00  0.50013900438E+03  0.50013900438E+03  0.00000000000E+00 0. -1.
         -1   -1    0    0    0  501 -0.00000000000E+00 -0.00000000000E+00 -0.27350878651E+02  0.27350878651E+02  0.00000000000E+00 0.  1.
         25    2    1    2    0    0 -0.28983954473E+02  0.34660774584E+02  0.26461079136E+03  0.29615628151E+03  0.12509289853E+03 0.  0.
          5    1    3    3  502    0  0.41174625724E+02 -0.17990390871E+02  0.94002287758E+02  0.10427322989E+03  0.41800000000E+01 0.  1.
         -5    1    3    3    0  502 -0.70158580198E+02  0.52651165456E+02  0.17060850360E+03  0.19188305163E+03  0.41800000000E+01 0.  1.
        -11    1    1    2    0    0  0.18394488542E+02  0.17949685944E+01 -0.12207636026E+01  0.18522132295E+02  0.00000000000E+00 0.  1.
         11    1    1    2    0    0  0.10589465931E+02 -0.36455743179E+02  0.20939809797E+03  0.21281146922E+03  0.00000000000E+00 0. -1.
</event>
<event>
 7    1  0.2840156E-009  0.1616071E+03  0.7561462E-02  0.1186894E+00
         -1   -1    0    0    0  501 -0.00000000000E+00  0.00000000000E+00  0.58127143874E+02  0.58127143874E+02  0.00000000000E+00 0. -1.
          1   -1    0    0  501    0  0.00000000000E+00 -0.00000000000E+00 -0.53516760928E+03  0.53516760928E+03  0.00000000000E+00 0.  1.
         25    2    1    2    0    0 -0.12134648578E+03  0.63137237262E+02 -0.28725113822E+03  0.34186251144E+03  0.12508189310E+03 0.  0.
          5    1    3    3  502    0 -0.49514031474E+01 -0.28970066943E+02 -0.18969906594E+02  0.35229404309E+02  0.41800000000E+01 0. -1.
         -5    1    3    3    0  502 -0.11639508263E+03  0.92107304205E+02 -0.26828123162E+03  0.30663310713E+03  0.41800000000E+01 0. -1.
        -11    1    1    2    0    0  0.78655342449E+01 -0.23586675778E+02  0.21699524288E+01  0.24958096818E+02  0.00000000000E+00 0. -1.
         11    1    1    2    0    0  0.11348095153E+03 -0.39550561484E+02 -0.19195927962E+03  0.22647414489E+03  0.00000000000E+00 0.  1.
</event>
<event>
 7    1  0.2840156E-009  0.7166703E+02  0.7561462E-02  0.1354514E+00
         -1   -1    0    0    0  501 -0.00000000000E+00  0.00000000000E+00  0.44429823743E+02  0.44429823743E+02  0.00000000000E+00 0.  1.
          1   -1    0    0  501    0  0.00000000000E+00 -0.00000000000E+00 -0.40849466204E+03  0.40849466204E+03  0.00000000000E+00 0. -1.
         25    2    1    2    0    0 -0.12394891651E+01  0.30438155775E+02 -0.32495890953E+03  0.34953486935E+03  0.12509322263E+03 0.  0.
          5    1    3    3  502    0 -0.38052837861E+01  0.42676669143E+02 -0.26013055695E+02  0.50298406937E+02  0.41800000000E+01 0.  1.
         -5    1    3    3    0  502  0.25657946210E+01 -0.12238513367E+02 -0.29894585383E+03  0.29923646241E+03  0.41800000000E+01 0.  1.
        -11    1    1    2    0    0 -0.11177003749E+02 -0.56837692300E+02 -0.44613730170E+01  0.58097784191E+02  0.00000000000E+00 0.  1.
         11    1    1    2    0    0  0.12416492915E+02  0.26399536524E+02 -0.34644555757E+02  0.45291832250E+02  0.00000000000E+00 0. -1.
</event>
<event>
 7    1  0.2840156E-009  0.9492917E+02  0.7561462E-02  0.1291336E+00
         -2   -1    0    0    0  501 -0.00000000000E+00  0.00000000000E+00  0.26656490728E+03  0.26656490728E+03  0.00000000000E+00 0.  1.
          2   -1    0    0  501    0  0.00000000000E+00 -0.00000000000E+00 -0.11428085591E+03  0.11428085591E+03  0.00000000000E+00 0. -1.
         25    2    1    2    0    0  0.63668280067E+02 -0.50706597973E+02  0.20094299101E+03  0.25030238636E+03  0.12509352508E+03 0.  0.
          5    1    3    3  502    0  0.30631648405E+02 -0.63071636553E+02  0.20291263842E+03  0.21472619880E+03  0.41800000000E+01 0.  1.
         -5    1    3    3    0  502  0.33036631663E+02  0.12365038579E+02 -0.19696474019E+01  0.35576187564E+02  0.41800000000E+01 0.  1.
        -11    1    1    2    0    0 -0.51237790835E+02  0.28458646937E+02  0.16240816668E+02  0.60819157518E+02  0.00000000000E+00 0.  1.
         11    1    1    2    0    0 -0.12430489232E+02  0.22247951036E+02 -0.64899756316E+02  0.69724219305E+02  0.00000000000E+00 0. -1.
</event>
<event>
 7    1  0.2840156E-009  0.8663867E+02  0.7561462E-02  0.1311202E+00
          1   -1    0    0  501    0  0.00000000000E+00  0.00000000000E+00  0.60116001958E+03  0.60116001958E+03  0.00000000000E+00 0. -1.
         -1   -1    0    0    0  501 -0.00000000000E+00 -0.00000000000E+00 -0.23659760658E+02  0.23659760658E+02  0.00000000000E+00 0.  1.
         25    2    1    2    0    0 -0.16852166867E+02  0.45891275450E+02  0.35318683066E+03  0.37785927997E+03  0.12508674355E+03 0.  0.
          5    1    3    3  502    0  0.83972417641E+01  0.60090584935E+02  0.34062044271E+03  0.34600744278E+03  0.41800000000E+01 0. -1.
         -5    1    3    3    0  502 -0.25249408631E+02 -0.14199309485E+02  0.12566387956E+02  0.31851837189E+02  0.41800000000E+01 0. -1.
        -11    1    1    2    0    0 -0.65985948124E+01 -0.56902369259E+02  0.69829622228E+02  0.90319417742E+02  0.00000000000E+00 0.  1.
         11    1    1    2    0    0  0.23450761679E+02  0.11011093809E+02  0.15448380603E+03  0.15664108253E+03  0.00000000000E+00 0. -1.
</event>
<event>
 7    1  0.2840156E-009  0.1026487E+03  0.7561462E-02  0.1274823E+00
         -2   -1    0    0    0  501 -0.00000000000E+00  0.00000000000E+00  0.23618411748E+03  0.23618411748E+03  0.00000000000E+00 0. -1.
          2   -1    0    0  501    0  0.00000000000E+00 -0.00000000000E+00 -0.89155273037E+02  0.89155273037E+02  0.00000000000E+00 0.  1.
         25    2    1    2    0    0  0.11948509066E+02  0.30845499466E+01  0.18654331008E+03  0.22494231302E+03  0.12509339046E+03 0.  0.
          5    1    3    3  502    0  0.42941830327E+02  0.44354518666E+02  0.52162833827E+02  0.80930573647E+02  0.41800000000E+01 0. -1.
         -5    1    3    3    0  502 -0.30993321260E+02 -0.41269968720E+02  0.13438047625E+03  0.14401173938E+03  0.41800000000E+01 0. -1.
        -11    1    1    2    0    0 -0.32604456854E+02 -0.38616165938E+02 -0.15825725054E+02  0.52959535987E+02  0.00000000000E+00 0.  1.
         11    1    1    2    0    0  0.20655947788E+02  0.35531615991E+02 -0.23688740580E+02  0.47437541507E+02  0.00000000000E+00 0. -1.
</event>
<event>
 7    1  0.2840156E-009  0.1299217E+03  0.7561462E-02  0.1227572E+00
         -1   -1    0    0    0  501 -0.00000000000E+00  0.00000000000E+00  0.15434750734E+02  0.15434750734E+02  0.00000000000E+00 0.  1.
          1   -1    0    0  501    0  0.00000000000E+00 -0.00000000000E+00 -0.11421829418E+04  0.11421829418E+04  0.00000000000E+00 0. -1.
         25    2    1    2    0    0  0.50897934773E+02 -0.58670580155E+02 -0.61849308653E+03  0.63577525780E+03  0.12507455223E+03 0.  0.
          5    1    3    3  502    0  0.84432089514E+02 -0.14119716500E+02 -0.28435342255E+03  0.29698903254E+03  0.41800000000E+01 0. -1.
         -5    1    3    3    0  502 -0.33534154741E+02 -0.44550863654E+02 -0.33413966397E+03  0.33878622526E+03  0.41800000000E+01 0. -1.
        -11    1    1    2    0    0  0.12389883582E+02  0.53280657913E+02 -0.24516495576E+03  0.25119353745E+03  0.00000000000E+00 0. -1.
         11    1    1    2    0    0 -0.63287818355E+02  0.53899222422E+01 -0.26309014873E+03  0.27064889724E+03  0.00000000000E+00 0.  1.
</event>
<event>
 7    1  0.2840156E-009  0.6715732E+02  0.7561462E-02  0.1370035E+00
          1   -1    0    0  501    0  0.00000000000E+00  0.00000000000E+00  0.46269776391E+03  0.46269776391E+03  0.00000000000E+00 0. -1.
         -1   -1    0    0    0  501 -0.00000000000E+00 -0.00000000000E+00 -0.38996358735E+02  0.38996358735E+02  0.00000000000E+00 0.  1.
         25    2    1    2    0    0  0.49289570622E+01  0.26397467624E+02  0.36919481779E+03  0.39072898252E+03  0.12507279234E+03 0.  0.
          5    1    3    3  502    0  0.14663345816E+02  0.38955640564E+02  0.30832429765E+02  0.51967939804E+02  0.41800000000E+01 0.  1.
         -5    1    3    3    0  502 -0.97343887540E+01 -0.12558172940E+02  0.33836238803E+03  0.33876104272E+03  0.41800000000E+01 0.  1.
        -11    1    1    2    0    0  0.81642060438E+01 -0.49137676837E+02  0.65691046826E+02  0.82440761631E+02  0.00000000000E+00 0. -1.
         11    1    1    2    0    0 -0.13093163106E+02  0.22740209213E+02 -0.11184459444E+02  0.28524378490E+02  0.00000000000E+00 0.  1.
</event>
<event>
 7    1  0.2840156E-009  0.1317825E+03  0.7561462E-02  0.1224834E+00
         -1   -1    0    0    0  501 -0.00000000000E+00  0.00000000000E+00  0.14883894165E+03  0.14883894165E+03  0.00000000000E+00 0.  1.
          1   -1    0    0  501    0  0.00000000000E+00 -0.00000000000E+00 -0.14403203587E+03  0.14403203587E+03  0.00000000000E+00 0. -1.
         25    2    1    2    0    0  0.73146142330E+02 -0.47216438731E+02 -0.42207326774E+02  0.15814076503E+03  0.12508913985E+03 0.  0.
          5    1    3    3  502    0  0.56918293680E+02 -0.82047140191E+02  0.12880655233E+01  0.99952773257E+02  0.41800000000E+01 0.  1.
         -5    1    3    3    0  502  0.16227848650E+02  0.34830701460E+02 -0.43495392297E+02  0.58187991777E+02  0.41800000000E+01 0.  1.
        -11    1    1    2    0    0 -0.85194215661E+02  0.62387890004E+02  0.46419654275E+02  0.11534768097E+03  0.00000000000E+00 0. -1.
         11    1    1    2    0    0  0.12048073331E+02 -0.15171451273E+02  0.59457827840E+00  0.19382531518E+02  0.00000000000E+00 0.  1.
</event>
<event>
 7    1  0.2840156E-009  0.1679837E+03  0.7561462E-02  0.1179967E+00
         -1   -1    0    0    0  501 -0.00000000000E+00  0.00000000000E+00  0.12745918762E+03  0.12745918762E+03  0.00000000000E+00 0.  1.
          1   -1    0    0  501    0  0.00000000000E+00 -0.00000000000E+00 -0.31356113507E+03  0.31356113507E+03  0.00000000000E+00 0. -1.
         25    2    1    2    0    0  0.15359409732E+03  0.22584875651E+02 -0.32368887509E+02  0.20198195172E+03  0.12509092935E+03 0.  0.
          5    1    3    3  502    0 -0.25923157842E+00  0.45779028058E+01  0.33160586695E+02  0.33736053490E+02  0.41800000000E+01 0.  1.
         -5    1    3    3    0  502  0.15385332889E+03  0.18006972845E+02 -0.65529474204E+02  0.16824589823E+03  0.41800000000E+01 0.  1.
        -11    1    1    2    0    0 -0.13434839265E+03 -0.48226689689E+02 -0.14949602569E+03  0.20669873222E+03  0.00000000000E+00 0. -1.
         11    1    1    2    0    0 -0.19245704668E+02  0.25641814038E+02 -0.42370342507E+01  0.32339638751E+02  0.00000000000E+00 0.  1.
</event>
<event>
 7    1  0.2840156E-009  0.1380473E+03  0.7561462E-02  0.1215981E+00
          2   -1    0    0  501    0  0.00000000000E+00  0.00000000000E+00  0.56793123056E+02  0.56793123056E+02  0.00000000000E+00 0. -1.
         -2   -1    0    0    0  501 -0.00000000000E+00 -0.00000000000E+00 -0.45524142039E+03  0.45524142039E+03  0.00000000000E+00 0.  1.
         25    2    1    2    0    0  0.99003599413E+02 -0.60145826641E+02 -0.17350730658E+03  0.24325293158E+03  0.12509184675E+03 0.  0.
          5    1    3    3  502    0 -0.10380643446E+02 -0.10157224204E+02  0.13902020798E+02  0.20534496443E+02  0.41800000000E+01 0. -1.
         -5    1    3    3    0  502  0.10938424286E+03 -0.49988602437E+02 -0.18740932738E+03  0.22271843514E+03  0.41800000000E+01 0. -1.
        -11    1    1    2    0    0 -0.57828784549E+02  0.76877296669E+02 -0.11337119072E+03  0.14868528492E+03  0.00000000000E+00 0.  1.
         11    1    1    2    0    0 -0.41174814864E+02 -0.16731470027E+02 -0.11156980003E+03  0.12009632695E+03  0.00000000000E+00 0. -1.
</event>
<event>
 7    1  0.2840156E-009  0.1209035E+03  0.7561462E-02  0.1241614E+00
          3   -1    0    0  501    0  0.00000000000E+00  0.00000000000E+00  0.56714362994E+02  0.56714362994E+02  0.00000000000E+00 0. -1.
         -3   -1    0    0    0  501 -0.00000000000E+00 -0.00000000000E+00 -0.54582686378E+03  0.54582686378E+03  0.00000000000E+00 0.  1.
         25    2    1    2    0    0  0.22324932277E+02 -0.72444907816E+02 -0.45789317263E+03  0.48068739793E+03  0.12509016637E+03 0.  0.
          5    1    3    3  502    0 -0.50020364755E+02 -0.34791329733E+02 -0.14553448037E+03  0.15782975288E+03  0.41800000000E+01 0.  1.
         -5    1    3    3    0  502  0.72345297032E+02 -0.37653578082E+02 -0.31235869225E+03  0.32285764506E+03  0.41800000000E+01 0.  1.
        -11    1    1    2    0    0 -0.32468721778E+02  0.74827768631E+01 -0.43676370666E+02  0.54934826823E+02  0.00000000000E+00 0.  1.
         11    1    1    2    0    0  0.10143789502E+02  0.64962130953E+02  0.12457042508E+02  0.66919002020E+02  0.00000000000E+00 0. -1.
</event>
<event>
 7    1  0.2840156E-009  0.1471115E+03  0.7561462E-02  0.1204068E+00
          1   -1    0    0  501    0  0.00000000000E+00  0.00000000000E+00  0.11040483198E+04  0.11040483198E+04  0.00000000000E+00 0. -1.
         -1   -1    0    0    0  501 -0.00000000000E+00 -0.00000000000E+00 -0.27281051412E+02  0.27281051412E+02  0.00000000000E+00 0.  1.
         25    2    1    2    0    0 -0.97820815223E+02  0.75439475569E+02  0.76843418973E+03  0.78829004954E+03  0.12510024734E+03 0.  0.
          5    1    3    3  502    0 -0.71828016286E+02  0.88858738270E+02  0.33744073901E+03  0.35628480747E+03  0.41800000000E+01 0.  1.
         -5    1    3    3    0  502 -0.25992798937E+02 -0.13419262701E+02  0.43099345072E+03  0.43200524207E+03  0.41800000000E+01 0.  1.
        -11    1    1    2    0    0  0.54815128757E+02 -0.89620170119E+02  0.21782956578E+03  0.24183918822E+03  0.00000000000E+00 0. -1.
         11    1    1    2    0    0  0.43005686466E+02  0.14180694550E+02  0.90503512826E+02  0.10120013340E+03  0.00000000000E+00 0.  1.
</event>
<event>
 7    1  0.2840156E-009  0.1774151E+03  0.7561462E-02  0.1170328E+00
          2   -1    0    0  501    0  0.00000000000E+00  0.00000000000E+00  0.47652693684E+03  0.47652693684E+03  0.00000000000E+00 0. -1.
         -2   -1    0    0    0  501 -0.00000000000E+00 -0.00000000000E+00 -0.73423538258E+02  0.73423538258E+02  0.00000000000E+00 0.  1.
         25    2    1    2    0    0  0.97961913379E+02  0.10353646825E+03  0.13446580695E+03  0.23247520573E+03  0.12508929334E+03 0.  0.
          5    1    3    3  502    0  0.39953483773E+02 -0.25212746096E+02  0.44154318793E+02  0.64799997680E+02  0.41800000000E+01 0. -1.
         -5    1    3    3    0  502  0.58008429607E+02  0.12874921435E+03  0.90311488161E+02  0.16767520805E+03  0.41800000000E+01 0. -1.
        -11    1    1    2    0    0 -0.46416226743E+02 -0.10474256569E+03  0.15553764860E+03  0.19317720183E+03  0.00000000000E+00 0. -1.
         11    1    1    2    0    0 -0.51545686636E+02  0.12060974406E+01  0.11309994302E+03  0.12429806754E+03  0.00000000000E+00 0.  1.
</event>
<event>
 7    1  0.2840156E-009  0.8622402E+02  0.7561462E-02  0.1312262E+00
          1   -1    0    0  501    0  0.00000000000E+00  0.00000000000E+00  0.83894512332E+03  0.83894512332E+03  0.00000000000E+00 0. -1.
         -1   -1    0    0    0  501 -0.00000000000E+00 -0.00000000000E+00 -0.22428763559E+02  0.22428763559E+02  0.00000000000E+00 0.  1.
         25    2    1    2    0    0  0.42394332961E+02  0.71914649938E+02  0.51527645093E+03  0.53677392907E+03  0.12508970264E+03 0.  0.
          5    1    3    3  502    0  0.32935336266E+02  0.51777416528E+02  0.80010550533E+02  0.10091975938E+03  0.41800000000E+01 0. -1.
         -5    1    3    3    0  502  0.94589966953E+01  0.20137233410E+02  0.43526590039E+03  0.43585416969E+03  0.41800000000E+01 0. -1.
        -11    1    1    2    0    0  0.21374468007E+01 -0.19105912479E+02  0.42593383488E+01  0.19691280650E+02  0.00000000000E+00 0.  1.
         11    1    1    2    0    0 -0.44531779762E+02 -0.52808737459E+02  0.29698057049E+03  0.30490867716E+03  0.00000000000E+00 0. -1.
</event>
<event>
 7    1  0.2840156E-009  0.1071044E+03  0.7561462E-02  0.1266028E+00
         -1   -1    0    0    0  501 -0.00000000000E+00  0.00000000000E+00  0.10881245162E+03  0.10881245162E+03  0.00000000000E+00 0.  1.
          1   -1    0    0  501    0  0.00000000000E+00 -0.00000000000E+00 -0.15715834615E+03  0.15715834615E+03  0.00000000000E+00 0. -1.
         25    2    1    2    0    0 -0.37941089412E+02 -0.12358949446E+02 -0.88760333225E+02  0.15847869882E+03  0.12507930015E+03 0.  0.
          5    1    3    3  502    0 -0.50380008811E+02 -0.59326800634E+02 -0.33672271693E+02  0.84906471145E+02  0.41800000000E+01 0.  1.
         -5    1    3    3    0  502  0.12438919399E+02  0.46967851189E+02 -0.55088061532E+02  0.73572227671E+02  0.41800000000E+01 0.  1.
        -11    1    1    2    0    0 -0.35213358024E+01 -0.28835973338E+02  0.39506078445E+02  0.49037163441E+02  0.00000000000E+00 0.  1.
         11    1    1    2    0    0  0.41462425215E+02  0.41194922784E+02  0.90836024617E+00  0.58454935516E+02  0.00000000000E+00 0. -1.
</event>
<event>
 7    1  0.2840156E-009  0.2059079E+03  0.7561462E-02  0.1144848E+00
          4   -1    0    0  501    0  0.00000000000E+00  0.00000000000E+00  0.27777955942E+03  0.27777955942E+03  0.00000000000E+00 0.  1.
         -4   -1    0    0    0  501 -0.00000000000E+00 -0.00000000000E+00 -0.17066347374E+03  0.17066347374E+03  0.00000000000E+00 0. -1.
         25    2    1    2    0    0  0.18210768882E+03  0.48608009635E+02  0.30277084388E+02  0.22824115413E+03  0.12510545021E+03 0.  0.
          5    1    3    3  502    0  0.16003287239E+03  0.77679591731E+02 -0.40139856255E+01  0.17798377369E+03  0.41800000000E+01 0.  1.
         -5    1    3    3    0  502  0.22074816426E+02 -0.29071582096E+02  0.34291070013E+02  0.50257380437E+02  0.41800000000E+01 0.  1.
        -11    1    1    2    0    0 -0.45577481008E+01 -0.15974329782E+02  0.29042222498E+02  0.33457479991E+02  0.00000000000E+00 0.  1.
         11    1    1    2    0    0 -0.17754994072E+03 -0.32633679853E+02  0.47796778803E+02  0.18674439904E+03  0.00000000000E+00 0. -1.
</event>
<event>
 7    1  0.2840156E-009  0.1288731E+03  0.7561462E-02  0.1229137E+00
          2   -1    0    0  501    0  0.00000000000E+00  0.00000000000E+00  0.23226215751E+03  0.23226215751E+03  0.00000000000E+00 0. -1.
         -2   -1    0    0    0  501 -0.00000000000E+00 -0.00000000000E+00 -0.12254025722E+03  0.12254025722E+03  0.00000000000E+00 0.  1.
         25    2    1    2    0    0  0.11473470745E+03 -0.13521103412E+02 -0.29467139641E+01  0.17030607438E+03  0.12509437445E+03 0.  0.
          5    1    3    3  502    0  0.42338248714E+02 -0.37850905215E+02  0.51210696115E+02  0.76584764323E+02  0.41800000000E+01 0. -1.
         -5    1    3    3    0  502  0.72396458732E+02  0.24329801803E+02 -0.54157410080E+02  0.93721310059E+02  0.41800000000E+01 0. -1.
        -11    1    1    2    0    0 -0.25577787720E+02 -0.16264824280E+02  0.79054258587E+02  0.84666070738E+02  0.00000000000E+00 0. -1.
         11    1    1    2    0    0 -0.89156919725E+02  0.29785927692E+02  0.33614355665E+02  0.99830269609E+02  0.00000000000E+00 0.  1.
</event>
<event>
 7    1  0.2840156E-009  0.1332020E+03  0.7561462E-02  0.1222780E+00
          1   -1    0    0  501    0  0.00000000000E+00  0.00000000000E+00  0.12734816364E+04  0.12734816364E+04  0.00000000000E+00 0.  1.
         -1   -1    0    0    0  501 -0.00000000000E+00 -0.00000000000E+00 -0.17561205558E+02  0.17561205558E+02  0.00000000000E+00 0. -1.
         25    2    1    2    0    0  0.89539286706E+02  0.30906691618E+01  0.90166017653E+03  0.91469433878E+03  0.12509126007E+03 0.  0.
          5    1    3    3  502    0  0.73790849899E+02 -0.53944920725E+02  0.45471090654E+03  0.46382607185E+03  0.41800000000E+01 0.  1.
         -5    1    3    3    0  502  0.15748436807E+02  0.57035589886E+02  0.44694926999E+03  0.45086826693E+03  0.41800000000E+01 0.  1.
        -11    1    1    2    0    0 -0.31466333224E+02 -0.36814615418E+02  0.76152936634E+02  0.90248079164E+02  0.00000000000E+00 0. -1.
         11    1    1    2    0    0 -0.58072953483E+02  0.33723946256E+02  0.27810731764E+03  0.28610042398E+03  0.00000000000E+00 0.  1.
</event>
<event>
 7    1  0.2840156E-009  0.4434606E+03  0.7561462E-02  0.1029690E+00
         -1   -1    0    0    0  501 -0.00000000000E+00  0.00000000000E+00  0.45076379316E+03  0.45076379316E+03  0.00000000000E+00 0.  1.
          1   -1    0    0  501    0  0.00000000000E+00 -0.00000000000E+00 -0.44527321352E+03  0.44527321352E+03  0.00000000000E+00 0. -1.
         25    2    1    2    0    0  0.37634172779E+03  0.21643650231E+03  0.26751088693E+02  0.45259379148E+03  0.12509062207E+03 0.  0.
          5    1    3    3  502    0  0.56139426374E+02  0.87041330490E+02 -0.14833164069E+02  0.10471544090E+03  0.41800000000E+01 0. -1.
         -5    1    3    3    0  502  0.32020230142E+03  0.12939517182E+03  0.41584252762E+02  0.34787835058E+03  0.41800000000E+01 0. -1.
        -11    1    1    2    0    0 -0.89838820862E+02 -0.81052547214E+02  0.23976888221E+02  0.12335080183E+03  0.00000000000E+00 0.  1.
         11    1    1    2    0    0 -0.28650290693E+03 -0.13538395510E+03 -0.45237397270E+02  0.32009241336E+03  0.00000000000E+00 0. -1.
</event>
<event>
 7    1  0.2983953E-009  0.1063811E+03  0.7561462E-02  0.1267422E+00
          2   -1    0    0  501    0  0.00000000000E+00  0.00000000000E+00  0.74264584850E+03  0.74264584850E+03  0.00000000000E+00 0. -1.
         -2   -1    0    0    0  501 -0.00000000000E+00 -0.00000000000E+00 -0.23838335275E+02  0.23838335275E+02  0.00000000000E+00 0.  1.
         25    2    1    2    0    0  0.54940553892E+02 -0.54227235487E+02  0.41320607802E+03  0.43857228296E+03  0.12508927586E+03 0.  0.
          5    1    3    3  502    0 -0.23255414688E+02 -0.13885220313E+02  0.26313422722E+03  0.26455756952E+03  0.41800000000E+01 0.  1.
         -5    1    3    3    0  502  0.78195968579E+02 -0.40342015173E+02  0.15007185080E+03  0.17401471344E+03  0.41800000000E+01 0.  1.
        -11    1    1    2    0    0 -0.49436955496E+02  0.72457383756E+01  0.61350396623E+02  0.79122591332E+02  0.00000000000E+00 0.  1.
         11    1    1    2    0    0 -0.55035983952E+01  0.46981497111E+02  0.24425103858E+03  0.24878930948E+03  0.00000000000E+00 0. -1.
</event>
<event>
 7    1  0.2840156E-009  0.7751806E+02  0.7561462E-02  0.1336246E+00
          1   -1    0    0  501    0  0.00000000000E+00  0.00000000000E+00  0.16190640907E+03  0.16190640907E+03  0.00000000000E+00 0. -1.
         -1   -1    0    0    0  501 -0.00000000000E+00 -0.00000000000E+00 -0.96833593298E+02  0.96833593298E+02  0.00000000000E+00 0.  1.
         25    2    1    2    0    0  0.25594308076E+02  0.30863023759E+02 -0.16623768232E+02  0.13240705225E+03  0.12509069899E+03 0.  0.
          5    1    3    3  502    0  0.59242522992E+01  0.37179677485E+02 -0.67463706617E+02  0.77370855583E+02  0.41800000000E+01 0.  1.
         -5    1    3    3    0  502  0.19670055776E+02 -0.63166537262E+01  0.50839938385E+02  0.55036196667E+02  0.41800000000E+01 0.  1.
        -11    1    1    2    0    0  0.32676506721E+02 -0.97474898309E+01  0.24424503484E+02  0.41944296632E+02  0.00000000000E+00 0.  1.
         11    1    1    2    0    0 -0.58270814796E+02 -0.21115533928E+02  0.57272080519E+02  0.84388653486E+02  0.00000000000E+00 0. -1.
</event>
<event>
 7    1  0.2840156E-009  0.1015123E+03  0.7561462E-02  0.1277148E+00
         -3   -1    0    0    0  501 -0.00000000000E+00  0.00000000000E+00  0.17717609649E+03  0.17717609649E+03  0.00000000000E+00 0.  1.
          3   -1    0    0  501    0  0.00000000000E+00 -0.00000000000E+00 -0.94774280812E+02  0.94774280812E+02  0.00000000000E+00 0. -1.
         25    2    1    2    0    0  0.13118965268E+02  0.40024965840E+02 -0.14685870538E+02  0.13280594870E+03  0.12509052752E+03 0.  0.
          5    1    3    3  502    0  0.40572901790E+02  0.76158252814E+02 -0.83433547535E+01  0.86794722189E+02  0.41800000000E+01 0. -1.
         -5    1    3    3    0  502 -0.27453936522E+02 -0.36133286975E+02 -0.63425157843E+01  0.46011226507E+02  0.41800000000E+01 0. -1.
        -11    1    1    2    0    0  0.15802931979E+02  0.58314630844E+01 -0.96602668078E+01  0.19418016779E+02  0.00000000000E+00 0. -1.
         11    1    1    2    0    0 -0.28921897246E+02 -0.45856428924E+02  0.10674795302E+03  0.11972641182E+03  0.00000000000E+00 0.  1.
</event>
<event>
 7    1  0.2840156E-009  0.1036987E+03  0.7561462E-02  0.1272705E+00
         -2   -1    0    0    0  501 -0.00000000000E+00  0.00000000000E+00  0.44770793911E+02  0.44770793911E+02  0.00000000000E+00 0.  1.
          2   -1    0    0  501    0  0.00000000000E+00 -0.00000000000E+00 -0.31228636427E+03  0.31228636427E+03  0.00000000000E+00 0. -1.
         25    2    1    2    0    0 -0.22034213534E+02 -0.12876000158E+02 -0.92764559039E+02  0.15780888171E+03  0.12508829596E+03 0.  0.
          5    1    3    3  502    0 -0.31574452990E+02 -0.65074573513E+02 -0.39549781172E+02  0.82542739174E+02  0.41800000000E+01 0. -1.
         -5    1    3    3    0  502  0.95402394551E+01  0.52198573355E+02 -0.53214777866E+02  0.75266142538E+02  0.41800000000E+01 0. -1.
        -11    1    1    2    0    0 -0.13808788519E+02  0.36342434362E+02 -0.32457366284E+02  0.50645195249E+02  0.00000000000E+00 0.  1.
         11    1    1    2    0    0  0.35843002054E+02 -0.23466434203E+02 -0.14229364504E+03  0.14860308123E+03  0.00000000000E+00 0. -1.
</event>
<event>
 7    1  0.2840156E-009  0.1113970E+03  0.7561462E-02  0.1258005E+00
         -2   -1    0    0    0  501 -0.00000000000E+00  0.00000000000E+00  0.32289717571E+02  0.32289717571E+02  0.00000000000E+00 0. -1.
          2   -1    0    0  501    0  0.00000000000E+00 -0.00000000000E+00 -0.44594612327E+03  0.44594612327E+03  0.00000000000E+00 0.  1.
         25    2    1    2    0    0  0.36021929163E+02 -0.29579801613E+02 -0.18895595579E+03  0.23135412258E+03  0.12509129771E+03 0.  0.
          5    1    3    3  502    0  0.39180145185E+02 -0.70559043367E+02 -0.16466907737E+03  0.18343129455E+03  0.41800000000E+01 0. -1.
         -5    1    3    3    0  502 -0.31582160212E+01  0.40979241754E+02 -0.24286878418E+02  0.47922828031E+02  0.41800000000E+01 0. -1.
        -11    1    1    2    0    0  0.11126085070E+02  0.48576612753E+02 -0.89458195437E+02  0.10240237207E+03  0.00000000000E+00 0.  1.
         11    1    1    2    0    0 -0.47148014233E+02 -0.18996811140E+02 -0.13524225447E+03  0.14447934619E+03  0.00000000000E+00 0. -1.
</event>
<event>
 7    1  0.2840156E-009  0.1779689E+03  0.7561462E-02  0.1169783E+00
         -1   -1    0    0    0  501 -0.00000000000E+00  0.00000000000E+00  0.49941458596E+03  0.49941458596E+03  0.00000000000E+00 0.  1.
          1   -1    0    0  501    0  0.00000000000E+00 -0.00000000000E+00 -0.75859733551E+02  0.75859733551E+02  0.00000000000E+00 0. -1.
         25    2    1    2    0    0 -0.41549429218E+02 -0.15061681570E+03  0.15204964301E+03  0.25135212987E+03  0.12508804504E+03 0.  0.
          5    1    3    3  502    0 -0.18776171056E+02 -0.15734421089E+03  0.16071073102E+03  0.22573248938E+03  0.41800000000E+01 0.  1.
         -5    1    3    3    0  502 -0.22773258162E+02  0.67273951829E+01 -0.86610880082E+01  0.25619640488E+02  0.41800000000E+01 0.  1.
        -11    1    1    2    0    0 -0.21622249958E+02  0.50440922407E+02  0.11715354687E+03  0.12937063766E+03  0.00000000000E+00 0. -1.
         11    1    1    2    0    0  0.63171679177E+02  0.10017589330E+03  0.15435166253E+03  0.19455155197E+03  0.00000000000E+00 0.  1.
</event>
<event>
 7    1  0.2840156E-009  0.1238585E+03  0.7561462E-02  0.1236864E+00
          2   -1    0    0  501    0  0.00000000000E+00  0.00000000000E+00  0.65970049596E+02  0.65970049596E+02  0.00000000000E+00 0.  1.
         -2   -1    0    0    0  501 -0.00000000000E+00 -0.00000000000E+00 -0.26846098615E+03  0.26846098615E+03  0.00000000000E+00 0. -1.
         25    2    1    2    0    0 -0.40576197079E+02 -0.48761291750E+02 -0.16502253858E+03  0.21657378034E+03  0.12509065811E+03 0.  0.
          5    1    3    3  502    0  0.14556572082E+02  0.34466520271E+02 -0.65488247846E+02  0.75538187802E+02  0.41800000000E+01 0.  1.
         -5    1    3    3    0  502 -0.55132769161E+02 -0.83227812021E+02 -0.99534290737E+02  0.14103559254E+03  0.41800000000E+01 0.  1.
        -11    1    1    2    0    0 -0.18817573949E+02  0.47114657818E+02 -0.74153687192E+01  0.51272602469E+02  0.00000000000E+00 0. -1.
         11    1    1    2    0    0  0.59393771028E+02  0.16466339314E+01 -0.30053029255E+02  0.66584652944E+02  0.00000000000E+00 0.  1.
</event>
<event>
 7    1  0.2840156E-009  0.1030671E+03  0.7561462E-02  0.1273975E+00
          2   -1    0    0  501    0  0.00000000000E+00  0.00000000000E+00  0.78770797548E+03  0.78770797548E+03  0.00000000000E+00 0.  1.
         -2   -1    0    0    0  501 -0.00000000000E+00 -0.00000000000E+00 -0.16562353557E+02  0.16562353557E+02  0.00000000000E+00 0. -1.
         25    2    1    2    0    0  0.38421271812E+02  0.83303801129E+00  0.44920477191E+03  0.46787758617E+03  0.12509044909E+03 0.  0.
          5    1    3    3  502    0  0.51572820343E+02 -0.47248136437E+02  0.16433702311E+03  0.17865125736E+03  0.41800000000E+01 0. -1.
         -5    1    3    3    0  502 -0.13151548531E+02  0.48081174449E+02  0.28486774881E+03  0.28922632881E+03  0.41800000000E+01 0. -1.
        -11    1    1    2    0    0 -0.17620174229E+02  0.38057876252E+02  0.23702098606E+03  0.24070276342E+03  0.00000000000E+00 0.  1.
         11    1    1    2    0    0 -0.20801097583E+02 -0.38890914263E+02  0.84919863952E+02  0.95689979446E+02  0.00000000000E+00 0. -1.
</event>
<event>
 7    1  0.2840156E-009  0.9354889E+02  0.7561462E-02  0.1294478E+00
         -2   -1    0    0    0  501 -0.00000000000E+00  0.00000000000E+00  0.66339572478E+02  0.66339572478E+02  0.00000000000E+00 0.  1.
          2   -1    0    0  501    0  0.00000000000E+00 -0.00000000000E+00 -0.30367881819E+03  0.30367881819E+03  0.00000000000E+00 0. -1.
         25    2    1    2    0    0 -0.48346253356E+02  0.58906649136E+02 -0.19549523509E+03  0.24427937732E+03  0.12508666482E+03 0.  0.
          5    1    3    3  502    0 -0.44917555618E+01 -0.42140657655E+01  0.16845994956E+02  0.18417224665E+02  0.41800000000E+01 0. -1.
         -5    1    3    3    0  502 -0.43854497794E+02  0.63120714901E+02 -0.21234123005E+03  0.22586215266E+03  0.41800000000E+01 0. -1.
        -11    1    1    2    0    0  0.66220461439E+02 -0.46979816982E+02 -0.57208496127E+02  0.99323032304E+02  0.00000000000E+00 0. -1.
         11    1    1    2    0    0 -0.17874208083E+02 -0.11926832154E+02  0.15364485502E+02  0.26415981045E+02  0.00000000000E+00 0.  1.
</event>
<event>
 7    1  0.2840156E-009  0.1428627E+03  0.7561462E-02  0.1209528E+00
         -3   -1    0    0    0  501 -0.00000000000E+00  0.00000000000E+00  0.30993419855E+03  0.30993419855E+03  0.00000000000E+00 0.  1.
          3   -1    0    0  501    0  0.00000000000E+00 -0.00000000000E+00 -0.87547471621E+02  0.87547471621E+02  0.00000000000E+00 0. -1.
         25    2    1    2    0    0  0.90797868610E+02 -0.58807606648E+02  0.45941552993E+02  0.17164299841E+03  0.12509238614E+03 0.  0.
          5    1    3    3  502    0  0.76143333090E+02 -0.97508588296E+02  0.34534304279E+02  0.12851390017E+03  0.41800000000E+01 0.  1.
         -5    1    3    3    0  502  0.14654535520E+02  0.38700981648E+02  0.11407248713E+02  0.43129098240E+02  0.41800000000E+01 0.  1.
        -11    1    1    2    0    0 -0.65963884014E+02  0.67167473871E+02  0.17604068348E+03  0.19963222631E+03  0.00000000000E+00 0.  1.
         11    1    1    2    0    0 -0.24833984596E+02 -0.83598672224E+01  0.40449046149E+00  0.26206445456E+02  0.00000000000E+00 0. -1.
</event>
<event>
 7    1  0.2840156E-009  0.1020216E+03  0.7561462E-02  0.1276101E+00
         -2   -1    0    0    0  501 -0.00000000000E+00  0.00000000000E+00  0.10126099226E+03  0.10126099226E+03  0.00000000000E+00 0.  1.
          2   -1    0    0  501    0  0.00000000000E+00 -0.00000000000E+00 -0.15472927388E+03  0.15472927388E+03  0.00000000000E+00 0. -1.
         25    2    1    2    0    0  0.73198850095E+00  0.54631335867E+02 -0.22222027282E+01  0.13651606381E+03  0.12508628552E+03 0.  0.
          5    1    3    3  502    0 -0.50942550417E+02  0.35500086772E+02  0.33537933010E+02  0.70694164924E+02  0.41800000000E+01 0. -1.
         -5    1    3    3    0  502  0.51674538918E+02  0.19131249095E+02 -0.35760135738E+02  0.65821898881E+02  0.41800000000E+01 0. -1.
        -11    1    1    2    0    0 -0.18623083414E+02 -0.63788730961E+02 -0.22204675805E+01  0.66488735209E+02  0.00000000000E+00 0.  1.
         11    1    1    2    0    0  0.17891094913E+02  0.91573950939E+01 -0.49025611312E+02  0.52985467127E+02  0.00000000000E+00 0. -1.
</event>
<event>
 7    1  0.2840156E-009  0.1106365E+03  0.7561462E-02  0.1259396E+00
         -2   -1    0    0    0  501 -0.00000000000E+00  0.00000000000E+00  0.84365667057E+02  0.84365667057E+02  0.00000000000E+00 0.  1.
          2   -1    0    0  501    0  0.00000000000E+00 -0.00000000000E+00 -0.16455193416E+03  0.16455193416E+03  0.00000000000E+00 0. -1.
         25    2    1    2    0    0 -0.17930556374E+01 -0.26975855280E+02 -0.41139806201E+01  0.12804398932E+03  0.12508967403E+03 0.  0.
          5    1    3    3  502    0 -0.19970872961E+02 -0.74011177041E+02  0.36210299740E+01  0.76857493791E+02  0.41800000000E+01 0. -1.
         -5    1    3    3    0  502  0.18177817324E+02  0.47035321761E+02 -0.77350105941E+01  0.51186495530E+02  0.41800000000E+01 0. -1.
        -11    1    1    2    0    0  0.23170763879E+02  0.54400701077E+02 -0.49393666492E+02  0.77045797199E+02  0.00000000000E+00 0. -1.
         11    1    1    2    0    0 -0.21377708242E+02 -0.27424845797E+02 -0.26678619995E+02  0.43827814701E+02  0.00000000000E+00 0.  1.
</event>
<event>
 7    1  0.2840156E-009  0.1021237E+03  0.7561462E-02  0.1275892E+00
         -2   -1    0    0    0  501 -0.00000000000E+00  0.00000000000E+00  0.31594604215E+02  0.31594604215E+02  0.00000000000E+00 0. -1.
          2   -1    0    0  501    0  0.00000000000E+00 -0.00000000000E+00 -0.47586136078E+03  0.47586136078E+03  0.00000000000E+00 0.  1.
         25    2    1    2    0    0 -0.37383102723E+02  0.18196198271E+02 -0.17057019641E+03  0.21556666816E+03  0.12508476533E+03 0.  0.
          5    1    3    3  502    0 -0.43934943321E+01 -0.41778303529E+02 -0.12816399483E+03  0.13493780571E+03  0.41800000000E+01 0. -1.
         -5    1    3    3    0  502 -0.32989608391E+02  0.59974501800E+02 -0.42406201576E+02  0.80628862451E+02  0.41800000000E+01 0. -1.
        -11    1    1    2    0    0  0.55233924163E+02 -0.37808754171E+02 -0.23913156338E+03  0.24832275948E+03  0.00000000000E+00 0.  1.
         11    1    1    2    0    0 -0.17850821440E+02  0.19612555900E+02 -0.34564996777E+02  0.43566537356E+02  0.00000000000E+00 0. -1.
</event>
<event>
 7    1  0.2840156E-009  0.1143136E+03  0.7561462E-02  0.1252784E+00
          1   -1    0    0  501    0  0.00000000000E+00  0.00000000000E+00  0.24375224436E+02  0.24375224436E+02  0.00000000000E+00 0. -1.
         -1   -1    0    0    0  501 -0.00000000000E+00 -0.00000000000E+00 -0.70135696796E+03  0.70135696796E+03  0.00000000000E+00 0.  1.
         25    2    1    2    0    0 -0.66455187151E+02  0.22436924234E+02 -0.31846143352E+03  0.34926457412E+03  0.12509336765E+03 0.  0.
          5    1    3    3  502    0 -0.65787951744E+02  0.56996604529E+02 -0.12309322676E+03  0.15081804400E+03  0.41800000000E+01 0.  1.
         -5    1    3    3    0  502 -0.66723540723E+00 -0.34559680295E+02 -0.19536820676E+03  0.19844653012E+03  0.41800000000E+01 0.  1.
        -11    1    1    2    0    0  0.80662691953E+02 -0.66254868503E+00 -0.31988318829E+03  0.32989720065E+03  0.00000000000E+00 0.  1.
         11    1    1    2    0    0 -0.14207504802E+02 -0.21774375549E+02 -0.38637121711E+02  0.46570417621E+02  0.00000000000E+00 0. -1.
</event>
<event>
 7    1  0.2840156E-009  0.7291933E+02  0.7561462E-02  0.1350438E+00
         -1   -1    0    0    0  501 -0.00000000000E+00  0.00000000000E+00  0.24988126249E+03  0.24988126249E+03  0.00000000000E+00 0.  1.
          1   -1    0    0  501    0  0.00000000000E+00 -0.00000000000E+00 -0.73677823736E+02  0.73677823736E+02  0.00000000000E+00 0. -1.
         25    2    1    2    0    0 -0.14386099326E+02 -0.40406115242E+02  0.17946740703E+03  0.22292523724E+03  0.12508995648E+03 0.  0.
          5    1    3    3  502    0  0.37269749746E+02 -0.64962320611E+00  0.65422300468E+01  0.38075312611E+02  0.41800000000E+01 0.  1.
         -5    1    3    3    0  502 -0.51655849072E+02 -0.39756492036E+02  0.17292517698E+03  0.18484992463E+03  0.41800000000E+01 0.  1.
        -11    1    1    2    0    0  0.10770859633E+02  0.25651814515E+02  0.43404337492E+02  0.51555441209E+02  0.00000000000E+00 0.  1.
         11    1    1    2    0    0  0.36152396936E+01  0.14754300727E+02 -0.46668305758E+02  0.49078407781E+02  0.00000000000E+00 0. -1.
</event>
<event>
 7    1  0.2840156E-009  0.8958053E+02  0.7561462E-02  0.1303871E+00
         -2   -1    0    0    0  501 -0.00000000000E+00  0.00000000000E+00  0.30982974680E+03  0.30982974680E+03  0.00000000000E+00 0.  1.
          2   -1    0    0  501    0  0.00000000000E+00 -0.00000000000E+00 -0.40126255032E+02  0.40126255032E+02  0.00000000000E+00 0. -1.
         25    2    1    2    0    0  0.10790444535E+02 -0.19781967860E+02  0.17598425025E+03  0.21708589260E+03  0.12509223990E+03 0.  0.
          5    1    3    3  502    0 -0.51506619173E+02 -0.23046442606E+02  0.12199923384E+03  0.13448180469E+03  0.41800000000E+01 0. -1.
         -5    1    3    3    0  502  0.62297063708E+02  0.32644747463E+01  0.53985016404E+02  0.82604087902E+02  0.41800000000E+01 0. -1.
        -11    1    1    2    0    0  0.21246009406E+02 -0.19641383626E+01 -0.89534471270E+01  0.23139035646E+02  0.00000000000E+00 0. -1.
         11    1    1    2    0    0 -0.32036453941E+02  0.21746106222E+02  0.10267268864E+03  0.10973107359E+03  0.00000000000E+00 0.  1.
</event>
<event>
 7    1  0.2840156E-009  0.1040476E+03  0.7561462E-02  0.1272008E+00
         -2   -1    0    0    0  501 -0.00000000000E+00  0.00000000000E+00  0.68356433843E+02  0.68356433843E+02  0.00000000000E+00 0. -1.
          2   -1    0    0  501    0  0.00000000000E+00 -0.00000000000E+00 -0.23622774539E+03  0.23622774539E+03  0.00000000000E+00 0.  1.
         25    2    1    2    0    0  0.45345193945E+01 -0.42885542525E+02 -0.30618092643E+02  0.13581086111E+03  0.12508953104E+03 0.  0.
          5    1    3    3  502    0 -0.40361858394E+02 -0.62939447468E+02  0.48428123272E+01  0.75042513897E+02  0.41800000000E+01 0.  1.
         -5    1    3    3    0  502  0.44896377789E+02  0.20053904943E+02 -0.35460904970E+02  0.60768347216E+02  0.41800000000E+01 0.  1.
        -11    1    1    2    0    0  0.87526690467E+01 -0.18811763740E+02 -0.37230559703E+01  0.21079677802E+02  0.00000000000E+00 0. -1.
         11    1    1    2    0    0 -0.13287188441E+02  0.61697306266E+02 -0.13353016293E+03  0.14769364032E+03  0.00000000000E+00 0.  1.
</event>
<event>
 7    1  0.2840156E-009  0.1170302E+03  0.7561462E-02  0.1248078E+00
         -2   -1    0    0    0  501 -0.00000000000E+00  0.00000000000E+00  0.12911717882E+02  0.12911717882E+02  0.00000000000E+00 0.  1.
          2   -1    0    0  501    0  0.00000000000E+00 -0.00000000000E+00 -0.21840583777E+04  0.21840583777E+04  0.00000000000E+00 0. -1.
         25    2    1    2    0    0 -0.41303018617E+02 -0.53939452872E+02 -0.18696678002E+04  0.18750783166E+04  0.12508239797E+03 0.  0.
          5    1    3    3  502    0 -0.76106865870E+02 -0.55355474174E+02 -0.93066708809E+03  0.93542246328E+03  0.41800000000E+01 0. -1.
         -5    1    3    3    0  502  0.34803847253E+02  0.14160213022E+01 -0.93900071213E+03  0.93965585332E+03  0.41800000000E+01 0. -1.
        -11    1    1    2    0    0 -0.20315423358E+02  0.34725507076E+02 -0.62332863349E+02  0.74188699417E+02  0.00000000000E+00 0. -1.
         11    1    1    2    0    0  0.61618441975E+02  0.19213945796E+02 -0.23914599630E+03  0.24770307961E+03  0.00000000000E+00 0.  1.
</event>
<event>
 7    1  0.2840156E-009  0.2835714E+03  0.7561462E-02  0.1093754E+00
          2   -1    0    0  501    0  0.00000000000E+00  0.00000000000E+00  0.50142446472E+03  0.50142446472E+03  0.00000000000E+00 0. -1.
         -2   -1    0    0    0  501 -0.00000000000E+00 -0.00000000000E+00 -0.21185650096E+03  0.21185650096E+03  0.00000000000E+00 0.  1.
         25    2    1    2    0    0  0.32617506067E+02 -0.26654672661E+03 -0.18531018821E+02  0.29681573127E+03  0.12508045611E+03 0.  0.
          5    1    3    3  502    0 -0.41710720701E+01 -0.25774496983E+03 -0.21082652853E+02  0.25867318757E+03  0.41800000000E+01 0.  1.
         -5    1    3    3    0  502  0.36788578137E+02 -0.88017567802E+01  0.25516340319E+01  0.38142543701E+02  0.41800000000E+01 0.  1.
        -11    1    1    2    0    0  0.48604391328E+01  0.11702969475E+03  0.82634325371E+02  0.14334575352E+03  0.00000000000E+00 0.  1.
         11    1    1    2    0    0 -0.37477945200E+02  0.14951703186E+03  0.22546465721E+03  0.27311948090E+03  0.00000000000E+00 0. -1.
</event>
<event>
 7    1  0.2840156E-009  0.2741985E+03  0.7561462E-02  0.1098900E+00
         -2   -1    0    0    0  501 -0.00000000000E+00  0.00000000000E+00  0.14727068630E+03  0.14727068630E+03  0.00000000000E+00 0.  1.
          2   -1    0    0  501    0  0.00000000000E+00 -0.00000000000E+00 -0.57079384650E+03  0.57079384650E+03  0.00000000000E+00 0. -1.
         25    2    1    2    0    0  0.15783725006E+02  0.25592544016E+03 -0.11690950885E+03  0.30832248746E+03  0.12509183074E+03 0.  0.
          5    1    3    3  502    0  0.67742159091E+02  0.17171503741E+03 -0.91535442993E+02  0.20608557425E+03  0.41800000000E+01 0.  1.
         -5    1    3    3    0  502 -0.51958434085E+02  0.84210402757E+02 -0.25374065861E+02  0.10223691321E+03  0.41800000000E+01 0.  1.
        -11    1    1    2    0    0 -0.41716303833E+02 -0.15582317147E+03 -0.23052089055E+03  0.28135563217E+03  0.00000000000E+00 0. -1.
         11    1    1    2    0    0  0.25932578827E+02 -0.10010226869E+03 -0.76092760797E+02  0.12838641317E+03  0.00000000000E+00 0.  1.
</event>
<event>
 7    1  0.2840156E-009  0.1916542E+03  0.7561462E-02  0.1156978E+00
          3   -1    0    0  501    0  0.00000000000E+00  0.00000000000E+00  0.10342224068E+04  0.10342224068E+04  0.00000000000E+00 0.  1.
         -3   -1    0    0    0  501 -0.00000000000E+00 -0.00000000000E+00 -0.46093857081E+02  0.46093857081E+02  0.00000000000E+00 0. -1.
         25    2    1    2    0    0  0.15603963017E+03  0.52100861274E+02  0.73912618088E+03  0.76747569547E+03  0.12509422826E+03 0.  0.
          5    1    3    3  502    0  0.10900232923E+03  0.83968220823E+02  0.38662076012E+03  0.41039646008E+03  0.41800000000E+01 0.  1.
         -5    1    3    3    0  502  0.47037300939E+02 -0.31867359549E+02  0.35250542076E+03  0.35707923539E+03  0.41800000000E+01 0.  1.
        -11    1    1    2    0    0 -0.48184361807E+02  0.26717487060E+02  0.85362253250E+02  0.10159857832E+03  0.00000000000E+00 0.  1.
         11    1    1    2    0    0 -0.10785526836E+03 -0.78818348334E+02  0.16364011561E+03  0.21124199011E+03  0.00000000000E+00 0. -1.
</event>
<event>
 7    1  0.2840156E-009  0.1126185E+03  0.7561462E-02  0.1255796E+00
          1   -1    0    0  501    0  0.00000000000E+00  0.00000000000E+00  0.18021165697E+02  0.18021165697E+02  0.00000000000E+00 0. -1.
         -1   -1    0    0    0  501 -0.00000000000E+00 -0.00000000000E+00 -0.12858744639E+04  0.12858744639E+04  0.00000000000E+00 0.  1.
         25    2    1    2    0    0 -0.32874589739E+02 -0.47047431576E+02 -0.10627716957E+04  0.10716458755E+04  0.12508799256E+03 0.  0.
          5    1    3    3  502    0  0.65194950491E+01  0.36861143048E+02 -0.17322548506E+03  0.17727320372E+03  0.41800000000E+01 0. -1.
         -5    1    3    3    0  502 -0.39394084789E+02 -0.83908574625E+02 -0.88954621065E+03  0.89437267182E+03  0.41800000000E+01 0. -1.
        -11    1    1    2    0    0  0.51484291205E+02  0.87789943983E+01 -0.16757918890E+03  0.17552916434E+03  0.00000000000E+00 0.  1.
         11    1    1    2    0    0 -0.18609701465E+02  0.38268437178E+02 -0.37502413600E+02  0.56720589723E+02  0.00000000000E+00 0. -1.
</event>
<event>
 7    1  0.2840156E-009  0.1705692E+03  0.7561462E-02  0.1177256E+00
          4   -1    0    0  501    0  0.00000000000E+00  0.00000000000E+00  0.13024606302E+03  0.13024606302E+03  0.00000000000E+00 0. -1.
         -4   -1    0    0    0  501 -0.00000000000E+00 -0.00000000000E+00 -0.34474949938E+03  0.34474949938E+03  0.00000000000E+00 0.  1.
         25    2    1    2    0    0  0.65716893029E+02 -0.13154836654E+03  0.75590976242E+01  0.19320001692E+03  0.12508166858E+03 0.  0.
          5    1    3    3  502    0 -0.32464155634E+02 -0.46567636359E+02 -0.20109506421E+02  0.60368293049E+02  0.41800000000E+01 0. -1.
         -5    1    3    3    0  502  0.98181048663E+02 -0.84980730177E+02  0.27668604045E+02  0.13283172388E+03  0.41800000000E+01 0. -1.
        -11    1    1    2    0    0 -0.29178321229E+01  0.55925484434E+02 -0.14941594914E+03  0.15956597197E+03  0.00000000000E+00 0.  1.
         11    1    1    2    0    0 -0.62799060906E+02  0.75622882102E+02 -0.72646584850E+02  0.12222957350E+03  0.00000000000E+00 0. -1.
</event>
<event>
 7    1  0.2840156E-009  0.1154575E+03  0.7561462E-02  0.1250785E+00
         -1   -1    0    0    0  501 -0.00000000000E+00  0.00000000000E+00  0.67117187033E+02  0.67117187033E+02  0.00000000000E+00 0.  1.
          1   -1    0    0  501    0  0.00000000000E+00 -0.00000000000E+00 -0.24389122160E+03  0.24389122160E+03  0.00000000000E+00 0. -1.
         25    2    1    2    0    0  0.53724390137E+02 -0.31861885386E+02 -0.63216682947E+02  0.15343661442E+03  0.12507979776E+03 0.  0.
          5    1    3    3  502    0  0.86194514398E+02 -0.81177942686E+00 -0.15346916031E+02  0.87653599640E+02  0.41800000000E+01 0. -1.
         -5    1    3    3    0  502 -0.32470124261E+02 -0.31050105959E+02 -0.47869766916E+02  0.65783014785E+02  0.41800000000E+01 0. -1.
        -11    1    1    2    0    0  0.16439994319E+02  0.23718823189E+02 -0.69452403313E+01  0.29683199793E+02  0.00000000000E+00 0.  1.
         11    1    1    2    0    0 -0.70164384457E+02  0.81430621972E+01 -0.10661211129E+03  0.12788859442E+03  0.00000000000E+00 0. -1.
</event>
<event>
 7    1  0.2840156E-009  0.9594191E+02  0.7561462E-02  0.1289069E+00
          2   -1    0    0  501    0  0.00000000000E+00  0.00000000000E+00  0.29927729498E+03  0.29927729498E+03  0.00000000000E+00 0. -1.
         -2   -1    0    0    0  501 -0.00000000000E+00 -0.00000000000E+00 -0.52239727130E+02  0.52239727130E+02  0.00000000000E+00 0.  1.
         25    2    1    2    0    0 -0.96435318282E+01 -0.32428344197E+02  0.21506469921E+03  0.25108647140E+03  0.12508795331E+03 0.  0.
          5    1    3    3  502    0  0.53730384682E+02 -0.78119456351E+01  0.56302037046E+02  0.78328618705E+02  0.41800000000E+01 0. -1.
         -5    1    3    3    0  502 -0.63373916510E+02 -0.24616398562E+02  0.15876266216E+03  0.17275785270E+03  0.41800000000E+01 0. -1.
        -11    1    1    2    0    0  0.14947584079E+02 -0.15241857053E+02 -0.20319382312E+02  0.29472390025E+02  0.00000000000E+00 0.  1.
         11    1    1    2    0    0 -0.53040522505E+01  0.47670201250E+02  0.52292250952E+02  0.70958160680E+02  0.00000000000E+00 0. -1.
</event>
<event>
 7    1  0.2840156E-009  0.1318273E+03  0.7561462E-02  0.1224769E+00
          1   -1    0    0  501    0  0.00000000000E+00  0.00000000000E+00  0.13924315100E+03  0.13924315100E+03  0.00000000000E+00 0. -1.
         -1   -1    0    0    0  501 -0.00000000000E+00 -0.00000000000E+00 -0.15409302664E+03  0.15409302664E+03  0.00000000000E+00 0.  1.
         25    2    1    2    0    0 -0.47569304581E+02 -0.77384758961E+02  0.29000059609E+02  0.15728981174E+03  0.12509133368E+03 0.  0.
          5    1    3    3  502    0  0.24214175283E+02 -0.64515676540E+02 -0.16826070527E+02  0.71057637544E+02  0.41800000000E+01 0.  1.
         -5    1    3    3    0  502 -0.71783479863E+02 -0.12869082422E+02  0.45826130137E+02  0.86232174198E+02  0.41800000000E+01 0.  1.
        -11    1    1    2    0    0 -0.23009771578E+02  0.22260363428E+02 -0.32762145668E+02  0.45807549124E+02  0.00000000000E+00 0.  1.
         11    1    1    2    0    0  0.70579076158E+02  0.55124395533E+02 -0.11087789581E+02  0.90238816770E+02  0.00000000000E+00 0. -1.
</event>
<event>
 7    1  0.2840156E-009  0.5715501E+02  0.7561462E-02  0.1410174E+00
          2   -1    0    0  501    0  0.00000000000E+00  0.00000000000E+00  0.83111986454E+02  0.83111986454E+02  0.00000000000E+00 0. -1.
         -2   -1    0    0    0  501 -0.00000000000E+00 -0.00000000000E+00 -0.17752830542E+03  0.17752830542E+03  0.00000000000E+00 0.  1.
         25    2    1    2    0    0 -0.35024353111E+02  0.11919357191E+02 -0.94669624513E+02  0.16117257463E+03  0.12508191164E+03 0.  0.
          5    1    3    3  502    0 -0.15475388181E+01 -0.19748549732E+02  0.25408411260E+02  0.32487841659E+02  0.41800000000E+01 0.  1.
         -5    1    3    3    0  502 -0.33476814293E+02  0.31667906924E+02 -0.12007803577E+03  0.12868473297E+03  0.41800000000E+01 0.  1.
        -11    1    1    2    0    0  0.18533868315E+02  0.94477203223E+01  0.43654888093E+02  0.48358173543E+02  0.00000000000E+00 0. -1.
         11    1    1    2    0    0  0.16490484796E+02 -0.21367077514E+02 -0.43401582548E+02  0.51109543707E+02  0.00000000000E+00 0.  1.
</event>
<event>
 7    1  0.2840156E-009  0.1395849E+03  0.7561462E-02  0.1213889E+00
          1   -1    0    0  501    0  0.00000000000E+00  0.00000000000E+00  0.60030986889E+03  0.60030986889E+03  0.00000000000E+00 0. -1.
         -1   -1    0    0    0  501 -0.00000000000E+00 -0.00000000000E+00 -0.34475744875E+02  0.34475744875E+02  0.00000000000E+00 0.  1.
         25    2    1    2    0    0 -0.86011574690E+02  0.16458753128E+02  0.30802019908E+03  0.34379215364E+03  0.12509084828E+03 0.  0.
          5    1    3    3  502    0 -0.11818269520E+03  0.13508927886E+02  0.22362554745E+03  0.25332883462E+03  0.41800000000E+01 0.  1.
         -5    1    3    3    0  502  0.32171120506E+02  0.29498252420E+01  0.84394651637E+02  0.90463319022E+02  0.41800000000E+01 0.  1.
        -11    1    1    2    0    0  0.84686678553E+01  0.34010021821E+02  0.34087944188E+02  0.48891592922E+02  0.00000000000E+00 0.  1.
         11    1    1    2    0    0  0.77542906835E+02 -0.50468774949E+02  0.22372598074E+03  0.24210186721E+03  0.00000000000E+00 0. -1.
</event>
<event>
 7    1  0.2840156E-009  0.1917132E+03  0.7561462E-02  0.1156925E+00
          4   -1    0    0  501    0  0.00000000000E+00  0.00000000000E+00  0.52745502405E+02  0.52745502405E+02  0.00000000000E+00 0. -1.
         -4   -1    0    0    0  501 -0.00000000000E+00 -0.00000000000E+00 -0.76905862438E+03  0.76905862438E+03  0.00000000000E+00 0.  1.
         25    2    1    2    0    0 -0.15914629363E+03  0.17066287218E+02 -0.48838708987E+03  0.52895086826E+03  0.12509304753E+03 0.  0.
          5    1    3    3  502    0  0.18499516187E+02  0.14426178286E+02 -0.39044807706E+02  0.45741842201E+02  0.41800000000E+01 0.  1.
         -5    1    3    3    0  502 -0.17764580982E+03  0.26401089315E+01 -0.44934228217E+03  0.48320902606E+03  0.41800000000E+01 0.  1.
        -11    1    1    2    0    0  0.66469848421E+02 -0.50375589849E+02 -0.83257126374E+02  0.11784604318E+03  0.00000000000E+00 0.  1.
         11    1    1    2    0    0  0.92676445207E+02  0.33309302631E+02 -0.14466890573E+03  0.17500721535E+03  0.00000000000E+00 0. -1.
</event>
<event>
 7    1  0.2840156E-009  0.4402970E+03  0.7561462E-02  0.1030656E+00
          2   -1    0    0  501    0  0.00000000000E+00  0.00000000000E+00  0.28188064509E+04  0.28188064509E+04  0.00000000000E+00 0. -1.
         -2   -1    0    0    0  501 -0.00000000000E+00 -0.00000000000E+00 -0.80452100667E+02  0.80452100667E+02  0.00000000000E+00 0.  1.
         25    2    1    2    0    0  0.34594751583E+03  0.26500608370E+03  0.89914724559E+03  0.10069862494E+04  0.12509048393E+03 0.  0.
          5    1    3    3  502    0  0.35616256133E+02  0.96962703573E+01  0.17402341674E+03  0.17794425344E+03  0.41800000000E+01 0.  1.
         -5    1    3    3    0  502  0.31033125970E+03  0.25530981334E+03  0.72512382885E+03  0.82904199598E+03  0.41800000000E+01 0.  1.
        -11    1    1    2    0    0 -0.13917866324E+03 -0.15137017573E+03  0.97421852285E+03  0.99568336366E+03  0.00000000000E+00 0.  1.
         11    1    1    2    0    0 -0.20676885259E+03 -0.11363590797E+03  0.86498858177E+03  0.89658893847E+03  0.00000000000E+00 0. -1.
</event>
<event>
 7    1  0.2840156E-009  0.2415775E+03  0.7561462E-02  0.1118746E+00
          2   -1    0    0  501    0  0.00000000000E+00  0.00000000000E+00  0.21927170644E+03  0.21927170644E+03  0.00000000000E+00 0. -1.
         -2   -1    0    0    0  501 -0.00000000000E+00 -0.00000000000E+00 -0.30538457891E+03  0.30538457891E+03  0.00000000000E+00 0.  1.
         25    2    1    2    0    0  0.22278255481E+03 -0.26634451679E+02 -0.11410267368E+03  0.28108727755E+03  0.12509666947E+03 0.  0.
          5    1    3    3  502    0  0.62130749795E+02  0.48335627712E+02 -0.44976791903E+02  0.90757628805E+02  0.41800000000E+01 0.  1.
         -5    1    3    3    0  502  0.16065180502E+03 -0.74970079391E+02 -0.69125881776E+02  0.19032964874E+03  0.41800000000E+01 0.  1.
        -11    1    1    2    0    0 -0.63785005246E+02 -0.79470420837E+01 -0.29861652982E+02  0.70875952840E+02  0.00000000000E+00 0. -1.
         11    1    1    2    0    0 -0.15899754957E+03  0.34581493763E+02  0.57851454188E+02  0.17269305496E+03  0.00000000000E+00 0.  1.
</event>
<event>
 7    1  0.2840156E-009  0.1198629E+03  0.7561462E-02  0.1243323E+00
          2   -1    0    0  501    0  0.00000000000E+00  0.00000000000E+00  0.15416523835E+03  0.15416523835E+03  0.00000000000E+00 0. -1.
         -2   -1    0    0    0  501 -0.00000000000E+00 -0.00000000000E+00 -0.18149894203E+03  0.18149894203E+03  0.00000000000E+00 0.  1.
         25    2    1    2    0    0 -0.11542915451E+03 -0.17656270105E+02 -0.64742056465E+02  0.18295933946E+03  0.12508777892E+03 0.  0.
          5    1    3    3  502    0 -0.10664902521E+03 -0.18726716023E+02 -0.99339601530E+02  0.14700521522E+03  0.41800000000E+01 0.  1.
         -5    1    3    3    0  502 -0.87801293031E+01  0.10704459179E+01  0.34597545065E+02  0.35954124236E+02  0.41800000000E+01 0.  1.
        -11    1    1    2    0    0  0.10058493002E+03  0.28647414456E+01 -0.97530856442E+01  0.10109726787E+03  0.00000000000E+00 0.  1.
         11    1    1    2    0    0  0.14844224487E+02  0.14791528659E+02  0.47161438431E+02  0.51607573045E+02  0.00000000000E+00 0. -1.
</event>
<event>
 7    1  0.2840156E-009  0.1080601E+03  0.7561462E-02  0.1264205E+00
          3   -1    0    0  501    0  0.00000000000E+00  0.00000000000E+00  0.10261918182E+03  0.10261918182E+03  0.00000000000E+00 0. -1.
         -3   -1    0    0    0  501 -0.00000000000E+00 -0.00000000000E+00 -0.12657003400E+03  0.12657003400E+03  0.00000000000E+00 0.  1.
         25    2    1    2    0    0  0.27726493798E+02 -0.16837425733E+02  0.23154934065E+01  0.12924832507E+03  0.12509001023E+03 0.  0.
          5    1    3    3  502    0  0.56742372123E+01 -0.70601655950E+02  0.22128184022E+01  0.70987039353E+02  0.41800000000E+01 0.  1.
         -5    1    3    3    0  502  0.22052256586E+02  0.53764230217E+02  0.10267500436E+00  0.58261285717E+02  0.41800000000E+01 0.  1.
        -11    1    1    2    0    0 -0.11941076890E+02  0.49344804937E+02 -0.36329419287E+02  0.62428565555E+02  0.00000000000E+00 0.  1.
         11    1    1    2    0    0 -0.15785416908E+02 -0.32507379203E+02  0.10063073697E+02  0.37512325199E+02  0.00000000000E+00 0. -1.
</event>
<event>
 7    1  0.2840156E-009  0.1113745E+03  0.7561462E-02  0.1258046E+00
         -1   -1    0    0    0  501 -0.00000000000E+00  0.00000000000E+00  0.47346315432E+02  0.47346315432E+02  0.00000000000E+00 0.  1.
          1   -1    0    0  501    0  0.00000000000E+00 -0.00000000000E+00 -0.27533144122E+03  0.27533144122E+03  0.00000000000E+00 0. -1.
         25    2    1    2    0    0  0.78900109523E+01 -0.33166767596E+02 -0.11555968143E+03  0.17367794193E+03  0.12509077023E+03 0.  0.
          5    1    3    3  502    0 -0.26244269001E+02 -0.70351727416E+02 -0.47908324145E+02  0.89167298536E+02  0.41800000000E+01 0. -1.
         -5    1    3    3    0  502  0.34134279953E+02  0.37184959820E+02 -0.67651357288E+02  0.84510643398E+02  0.41800000000E+01 0. -1.
        -11    1    1    2    0    0 -0.40767122430E+02  0.46123837434E+02 -0.61505504950E+02  0.87018927768E+02  0.00000000000E+00 0. -1.
         11    1    1    2    0    0  0.32877111478E+02 -0.12957069838E+02 -0.50919939406E+02  0.61980886950E+02  0.00000000000E+00 0.  1.
</event>
<event>
 7    1  0.2840156E-009  0.1046022E+03  0.7561462E-02  0.1270905E+00
         -1   -1    0    0    0  501 -0.00000000000E+00  0.00000000000E+00  0.32132229601E+03  0.32132229601E+03  0.00000000000E+00 0.  1.
          1   -1    0    0  501    0  0.00000000000E+00 -0.00000000000E+00 -0.61204123045E+02  0.61204123045E+02  0.00000000000E+00 0. -1.
         25    2    1    2    0    0  0.43201148846E+02 -0.62918491840E+02  0.20280854398E+03  0.25020723524E+03  0.12508908498E+03 0.  0.
          5    1    3    3  502    0 -0.14322628523E+02 -0.46655518244E+02  0.17924324470E+03  0.18581573733E+03  0.41800000000E+01 0. -1.
         -5    1    3    3    0  502  0.57523777370E+02 -0.16262973596E+02  0.23565299277E+02  0.64391497910E+02  0.41800000000E+01 0. -1.
        -11    1    1    2    0    0 -0.60587577345E+02  0.51266364306E+02  0.92552588548E+01  0.79904658526E+02  0.00000000000E+00 0. -1.
         11    1    1    2    0    0  0.17386428499E+02  0.11652127534E+02  0.48054370137E+02  0.52414525289E+02  0.00000000000E+00 0.  1.
</event>
<event>
 7    1  0.2840156E-009  0.1061645E+03  0.7561462E-02  0.1267842E+00
          1   -1    0    0  501    0  0.00000000000E+00  0.00000000000E+00  0.42185153079E+02  0.42185153079E+02  0.00000000000E+00 0. -1.
         -1   -1    0    0    0  501 -0.00000000000E+00 -0.00000000000E+00 -0.33240444553E+03  0.33240444553E+03  0.00000000000E+00 0.  1.
         25    2    1    2    0    0  0.33659921723E+02  0.31936864823E+02 -0.19211623913E+03  0.23389932853E+03  0.12508913976E+03 0.  0.
          5    1    3    3  502    0  0.74693431670E+02  0.19347828270E+02 -0.69529098210E+02  0.10394813655E+03  0.41800000000E+01 0.  1.
         -5    1    3    3    0  502 -0.41033509947E+02  0.12589036553E+02 -0.12258714092E+03  0.12995119199E+03  0.41800000000E+01 0.  1.
        -11    1    1    2    0    0 -0.47928774104E+01 -0.54861455294E+02 -0.85562376832E+02  0.10175299150E+03  0.00000000000E+00 0.  1.
         11    1    1    2    0    0 -0.28867044313E+02  0.22924590471E+02 -0.12540676484E+02  0.38937278568E+02  0.00000000000E+00 0. -1.
</event>
<event>
 7    1  0.2840156E-009  0.1800166E+03  0.7561462E-02  0.1167787E+00
          1   -1    0    0  501    0  0.00000000000E+00  0.00000000000E+00  0.57410929334E+02  0.57410929334E+02  0.00000000000E+00 0. -1.
         -1   -1    0    0    0  501 -0.00000000000E+00 -0.00000000000E+00 -0.61543891135E+03  0.61543891135E+03  0.00000000000E+00 0.  1.
         25    2    1    2    0    0  0.14538738013E+03  0.38045287880E+02 -0.24034474440E+03  0.30983656403E+03  0.12509262974E+03 0.  0.
          5    1    3    3  502    0  0.12017709789E+03 -0.27384075331E+02 -0.17353860427E+03  0.21289796150E+03  0.41800000000E+01 0.  1.
         -5    1    3    3    0  502  0.25210282245E+02  0.65429363211E+02 -0.66806140133E+02  0.96938602530E+02  0.41800000000E+01 0.  1.
        -11    1    1    2    0    0 -0.10538934255E+03  0.77316434961E+01 -0.14126688609E+03  0.17641719003E+03  0.00000000000E+00 0. -1.
         11    1    1    2    0    0 -0.39998037582E+02 -0.45776931376E+02 -0.17641635153E+03  0.18659608663E+03  0.00000000000E+00 0.  1.
</event>
<event>
 7    1  0.2840156E-009  0.9163982E+02  0.7561462E-02  0.1298929E+00
          1   -1    0    0  501    0  0.00000000000E+00  0.00000000000E+00  0.53126186534E+02  0.53126186534E+02  0.00000000000E+00 0.  1.
         -1   -1    0    0    0  501 -0.00000000000E+00 -0.00000000000E+00 -0.28770119859E+03  0.28770119859E+03  0.00000000000E+00 0. -1.
         25    2    1    2    0    0 -0.51640830197E+02 -0.31676762044E+02 -0.12934185954E+03  0.18986036933E+03  0.12508977023E+03 0.  0.
          5    1    3    3  502    0 -0.27492989682E+02  0.30535680712E+02  0.31820399489E+01  0.41423303302E+02  0.41800000000E+01 0.  1.
         -5    1    3    3    0  502 -0.24147840515E+02 -0.62212442756E+02 -0.13252389949E+03  0.14843706603E+03  0.41800000000E+01 0.  1.
        -11    1    1    2    0    0  0.12989296030E+02  0.33995319990E+02 -0.10617068426E+03  0.11223465503E+03  0.00000000000E+00 0. -1.
         11    1    1    2    0    0  0.38651534167E+02 -0.23185579462E+01  0.93753175014E+00  0.38732360762E+02  0.00000000000E+00 0.  1.
</event>
<event>
 7    1  0.2840156E-009  0.2210165E+03  0.7561462E-02  0.1133127E+00
          1   -1    0    0  501    0  0.00000000000E+00  0.00000000000E+00  0.15015821814E+03  0.15015821814E+03  0.00000000000E+00 0. -1.
         -1   -1    0    0    0  501 -0.00000000000E+00 -0.00000000000E+00 -0.39672186591E+03  0.39672186591E+03  0.00000000000E+00 0.  1.
         25    2    1    2    0    0  0.21150811676E+02 -0.21663614099E+03 -0.14430739584E+03  0.28957045974E+03  0.12509137557E+03 0.  0.
          5    1    3    3  502    0  0.25792877635E+02 -0.19712834803E+03 -0.16651127434E+03  0.25936139847E+03  0.41800000000E+01 0. -1.
         -5    1    3    3    0  502 -0.46420659588E+01 -0.19507792964E+02  0.22203878498E+02  0.30209061274E+02  0.41800000000E+01 0. -1.
        -11    1    1    2    0    0 -0.35914207309E+02  0.13278521596E+03 -0.10352368439E+03  0.17215951061E+03  0.00000000000E+00 0.  1.
         11    1    1    2    0    0  0.14763395632E+02  0.83850925025E+02  0.12674324633E+01  0.85150113701E+02  0.00000000000E+00 0. -1.
</event>
<event>
 7    1  0.2840156E-009  0.9443061E+02  0.7561462E-02  0.1292464E+00
         -2   -1    0    0    0  501 -0.00000000000E+00  0.00000000000E+00  0.21498859918E+02  0.21498859918E+02  0.00000000000E+00 0.  1.
          2   -1    0    0  501    0  0.00000000000E+00 -0.00000000000E+00 -0.63808711705E+03  0.63808711705E+03  0.00000000000E+00 0. -1.
         25    2    1    2    0    0  0.29861833132E+00 -0.36766915844E+02 -0.28069047704E+03  0.30949488112E+03  0.12509213509E+03 0.  0.
          5    1    3    3  502    0  0.25493291795E+01  0.29550426453E+02 -0.21122735680E+03  0.21334056211E+03  0.41800000000E+01 0.  1.
         -5    1    3    3    0  502 -0.22507108482E+01 -0.66317342297E+02 -0.69463120244E+02  0.96154319001E+02  0.41800000000E+01 0.  1.
        -11    1    1    2    0    0  0.17043296155E+02 -0.23882850529E+02 -0.17178451205E+03  0.17427215232E+03  0.00000000000E+00 0. -1.
         11    1    1    2    0    0 -0.17341914486E+02  0.60649766373E+02 -0.16411326804E+03  0.17581894353E+03  0.00000000000E+00 0.  1.
</event>
<event>
 7    1  0.2840156E-009  0.1114070E+03  0.7561462E-02  0.1257986E+00
         -3   -1    0    0    0  501 -0.00000000000E+00  0.00000000000E+00  0.39676058199E+03  0.39676058199E+03  0.00000000000E+00 0.  1.
          3   -1    0    0  501    0  0.00000000000E+00 -0.00000000000E+00 -0.32026997944E+02  0.32026997944E+02  0.00000000000E+00 0. -1.
         25    2    1    2    0    0  0.31356584988E+01  0.29800306555E+02  0.23682881170E+03  0.26950648196E+03  0.12509183485E+03 0.  0.
          5    1    3    3  502    0 -0.60375773720E+02  0.67718077291E+01  0.10856680801E+03  0.12448018169E+03  0.41800000000E+01 0. -1.
         -5    1    3    3    0  502  0.63511432219E+02  0.23028498826E+02  0.12826200369E+03  0.14502630027E+03  0.41800000000E+01 0. -1.
        -11    1    1    2    0    0 -0.12582628099E+02 -0.60662516750E+02  0.74656340322E+02  0.97014600028E+02  0.00000000000E+00 0.  1.
         11    1    1    2    0    0  0.94469696000E+01  0.30862210195E+02  0.53248432023E+02  0.62266497939E+02  0.00000000000E+00 0. -1.
</event>
<event>
 7    1  0.2840156E-009  0.1198365E+03  0.7561462E-02  0.1243367E+00
          1   -1    0    0  501    0  0.00000000000E+00  0.00000000000E+00  0.78548665437E+02  0.78548665437E+02  0.00000000000E+00 0. -1.
         -1   -1    0    0    0  501 -0.00000000000E+00 -0.00000000000E+00 -0.26893785821E+03  0.26893785821E+03  0.00000000000E+00 0.  1.
         25    2    1    2    0    0 -0.62664061922E+02 -0.72130828416E+02 -0.84298019532E+02  0.17856171127E+03  0.12509391500E+03 0.  0.
          5    1    3    3  502    0  0.78747737027E+01 -0.18233559560E+02 -0.87311266173E+02  0.89639301402E+02  0.41800000000E+01 0. -1.
         -5    1    3    3    0  502 -0.70538835625E+02 -0.53897268856E+02  0.30132466411E+01  0.88922409868E+02  0.41800000000E+01 0. -1.
        -11    1    1    2    0    0 -0.58722149701E+01 -0.17048853054E+02 -0.81630309372E+01  0.19793467943E+02  0.00000000000E+00 0. -1.
         11    1    1    2    0    0  0.68536276892E+02  0.89179681470E+02 -0.97928142301E+02  0.14913134443E+03  0.00000000000E+00 0.  1.
</event>
<event>
 7    1  0.2840156E-009  0.9412051E+02  0.7561462E-02  0.1293169E+00
         -1   -1    0    0    0  501 -0.00000000000E+00  0.00000000000E+00  0.66107907491E+02  0.66107907491E+02  0.00000000000E+00 0.  1.
          1   -1    0    0  501    0  0.00000000000E+00 -0.00000000000E+00 -0.22638055385E+03  0.22638055385E+03  0.00000000000E+00 0. -1.
         25    2    1    2    0    0 -0.18970360735E+02 -0.26510360692E+02 -0.14591152820E+03  0.19493693224E+03  0.12509020617E+03 0.  0.
          5    1    3    3  502    0  0.44535610513E+01 -0.74437057330E+02 -0.97170771731E+02  0.12255750074E+03  0.41800000000E+01 0. -1.
         -5    1    3    3    0  502 -0.23423921786E+02  0.47926696638E+02 -0.48740756468E+02  0.72379431495E+02  0.41800000000E+01 0. -1.
        -11    1    1    2    0    0 -0.11387978381E+02  0.27402073139E+02  0.31031058604E+02  0.42935838899E+02  0.00000000000E+00 0.  1.
         11    1    1    2    0    0  0.30358339116E+02 -0.89171244731E+00 -0.45392176762E+02  0.54615690201E+02  0.00000000000E+00 0. -1.
</event>
<event>
 7    1  0.2840156E-009  0.1428712E+03  0.7561462E-02  0.1209517E+00
          1   -1    0    0  501    0  0.00000000000E+00  0.00000000000E+00  0.14640787525E+03  0.14640787525E+03  0.00000000000E+00 0. -1.
         -1   -1    0    0    0  501 -0.00000000000E+00 -0.00000000000E+00 -0.16674058633E+03  0.16674058633E+03  0.00000000000E+00 0.  1.
         25    2    1    2    0    0 -0.10770597072E+03 -0.91078648614E+01 -0.41022512543E+02  0.17033568940E+03  0.12509145142E+03 0.  0.
          5    1    3    3  502    0 -0.12185512352E+03  0.25271865687E+02 -0.45684960145E+02  0.13263455925E+03  0.41800000000E+01 0.  1.
         -5    1    3    3    0  502  0.14149152798E+02 -0.34379730548E+02  0.46624476019E+01  0.37701130157E+02  0.41800000000E+01 0.  1.
        -11    1    1    2    0    0  0.47451821529E+02 -0.25967779750E+02 -0.24860579379E+02  0.59531918822E+02  0.00000000000E+00 0.  1.
         11    1    1    2    0    0  0.60254149191E+02  0.35075644612E+02  0.45550380844E+02  0.83280853350E+02  0.00000000000E+00 0. -1.
</event>
<event>
 7    1  0.2840156E-009  0.1972830E+03  0.7561462E-02  0.1152052E+00
          2   -1    0    0  501    0  0.00000000000E+00  0.00000000000E+00  0.28355388755E+03  0.28355388755E+03  0.00000000000E+00 0. -1.
         -2   -1    0    0    0  501 -0.00000000000E+00 -0.00000000000E+00 -0.18799982378E+03  0.18799982378E+03  0.00000000000E+00 0.  1.
         25    2    1    2    0    0  0.11892649327E+03  0.12874019985E+03  0.15483599814E+03  0.26521590192E+03  0.12509092075E+03 0.  0.
          5    1    3    3  502    0  0.92749564425E+01 -0.15693931548E+02 -0.90304334322E+01  0.20768857273E+02  0.41800000000E+01 0. -1.
         -5    1    3    3    0  502  0.10965153682E+03  0.14443413140E+03  0.16386643158E+03  0.24444704465E+03  0.41800000000E+01 0. -1.
        -11    1    1    2    0    0 -0.48117657131E+02 -0.11172936967E+03 -0.54665346090E+02  0.13336814101E+03  0.00000000000E+00 0.  1.
         11    1    1    2    0    0 -0.70808836134E+02 -0.17010830183E+02 -0.46165882780E+01  0.72969668394E+02  0.00000000000E+00 0. -1.
</event>
<event>
 7    1  0.2840156E-009  0.1121477E+03  0.7561462E-02  0.1256644E+00
         -1   -1    0    0    0  501 -0.00000000000E+00  0.00000000000E+00  0.14947692239E+02  0.14947692239E+02  0.00000000000E+00 0.  1.
          1   -1    0    0  501    0  0.00000000000E+00 -0.00000000000E+00 -0.85045143636E+03  0.85045143636E+03  0.00000000000E+00 0. -1.
         25    2    1    2    0    0  0.23330178016E+02  0.21288555671E+02 -0.49888119539E+03  0.51529444226E+03  0.12509362614E+03 0.  0.
          5    1    3    3  502    0  0.74488917471E+02  0.41490920323E+01 -0.30274685532E+03  0.31183159654E+03  0.41800000000E+01 0.  1.
         -5    1    3    3    0  502 -0.51158739455E+02  0.17139463639E+02 -0.19613434007E+03  0.20346284572E+03  0.41800000000E+01 0.  1.
        -11    1    1    2    0    0 -0.45550128295E+02 -0.44251116273E+02 -0.20228828175E+03  0.21202246205E+03  0.00000000000E+00 0.  1.
         11    1    1    2    0    0  0.22219950279E+02  0.22962560602E+02 -0.13433426697E+03  0.13808222428E+03  0.00000000000E+00 0. -1.
</event>
<event>
 7    1  0.2840156E-009  0.1043385E+03  0.7561462E-02  0.1271428E+00
         -1   -1    0    0    0  501 -0.00000000000E+00  0.00000000000E+00  0.11483164342E+03  0.11483164342E+03  0.00000000000E+00 0.  1.
          1   -1    0    0  501    0  0.00000000000E+00 -0.00000000000E+00 -0.13556831941E+03  0.13556831941E+03  0.00000000000E+00 0. -1.
         25    2    1    2    0    0 -0.17619536517E+02  0.61838524331E+02 -0.92490062619E+01  0.14095144122E+03  0.12508922218E+03 0.  0.
          5    1    3    3  502    0  0.17261698628E+02  0.88066325759E+02 -0.26763250421E+02  0.93741068616E+02  0.41800000000E+01 0. -1.
         -5    1    3    3    0  502 -0.34881235146E+02 -0.26227801428E+02  0.17514244159E+02  0.47210372605E+02  0.41800000000E+01 0. -1.
        -11    1    1    2    0    0 -0.11237134385E+02 -0.29953982192E+02 -0.44800677978E+02  0.55051021658E+02  0.00000000000E+00 0. -1.
         11    1    1    2    0    0  0.28856670902E+02 -0.31884542139E+02  0.33313008242E+02  0.54397499953E+02  0.00000000000E+00 0.  1.
</event>
<event>
 7    1  0.2840156E-009  0.1763892E+03  0.7561462E-02  0.1171344E+00
         -1   -1    0    0    0  501 -0.00000000000E+00  0.00000000000E+00  0.31821489129E+03  0.31821489129E+03  0.00000000000E+00 0.  1.
          1   -1    0    0  501    0  0.00000000000E+00 -0.00000000000E+00 -0.12771611905E+03  0.12771611905E+03  0.00000000000E+00 0. -1.
         25    2    1    2    0    0 -0.11949329053E+03 -0.11096801864E+03  0.53942232452E+02  0.21248234042E+03  0.12508570224E+03 0.  0.
          5    1    3    3  502    0 -0.47804062831E+02 -0.39839042173E+02  0.86189078990E+02  0.10638800422E+03  0.41800000000E+01 0.  1.
         -5    1    3    3    0  502 -0.71689227700E+02 -0.71128976471E+02 -0.32246846538E+02  0.10609433620E+03  0.41800000000E+01 0.  1.
        -11    1    1    2    0    0 -0.12149309609E+02  0.35662038917E+02  0.28019235393E+02  0.46951723033E+02  0.00000000000E+00 0. -1.
         11    1    1    2    0    0  0.13164260014E+03  0.75305979727E+02  0.10853730439E+03  0.18649694689E+03  0.00000000000E+00 0.  1.
</event>
<event>
 7    1  0.2840156E-009  0.1570784E+03  0.7561462E-02  0.1192035E+00
         -2   -1    0    0    0  501 -0.00000000000E+00  0.00000000000E+00  0.24695043298E+03  0.24695043298E+03  0.00000000000E+00 0.  1.
          2   -1    0    0  501    0  0.00000000000E+00 -0.00000000000E+00 -0.22579485941E+03  0.22579485941E+03  0.00000000000E+00 0. -1.
         25    2    1    2    0    0 -0.62248554107E+02 -0.11666304160E+03 -0.15158527841E+03  0.23687457992E+03  0.12508525979E+03 0.  0.
          5    1    3    3  502    0  0.31398677162E+02 -0.31636149631E+02 -0.80032126177E+01  0.45477980421E+02  0.41800000000E+01 0.  1.
         -5    1    3    3    0  502 -0.93647231269E+02 -0.85026891974E+02 -0.14358206580E+03  0.19139659950E+03  0.41800000000E+01 0.  1.
        -11    1    1    2    0    0  0.13689635474E+02 -0.27134729853E+01 -0.62661935282E+01  0.15298177551E+02  0.00000000000E+00 0. -1.
         11    1    1    2    0    0  0.48558918632E+02  0.11937651459E+03  0.17900704552E+03  0.22057253492E+03  0.00000000000E+00 0.  1.
</event>
<event>
 7    1  0.2840156E-009  0.1773175E+03  0.7561462E-02  0.1170425E+00
          2   -1    0    0  501    0  0.00000000000E+00  0.00000000000E+00  0.60895160813E+03  0.60895160813E+03  0.00000000000E+00 0. -1.
         -2   -1    0    0    0  501 -0.00000000000E+00 -0.00000000000E+00 -0.69196441627E+02  0.69196441627E+02  0.00000000000E+00 0.  1.
         25    2    1    2    0    0  0.15226764646E+03  0.80838910292E+02  0.24780643430E+03  0.32676705864E+03  0.12509322985E+03 0.  0.
          5    1    3    3  502    0  0.67878762597E+02  0.65294156098E+02  0.21507794691E+03  0.23483366215E+03  0.41800000000E+01 0. -1.
         -5    1    3    3    0  502  0.84388883867E+02  0.15544754194E+02  0.32728487390E+02  0.91933396489E+02  0.41800000000E+01 0. -1.
        -11    1    1    2    0    0 -0.66183736252E+02 -0.20371015237E+02  0.44015075751E+02  0.82052374124E+02  0.00000000000E+00 0.  1.
         11    1    1    2    0    0 -0.86083910211E+02 -0.60467895054E+02  0.24793365645E+03  0.26932861699E+03  0.00000000000E+00 0. -1.
</event>
<event>
 7    1  0.2840156E-009  0.1113758E+03  0.7561462E-02  0.1258043E+00
          1   -1    0    0  501    0  0.00000000000E+00  0.00000000000E+00  0.36083288643E+03  0.36083288643E+03  0.00000000000E+00 0. -1.
         -1   -1    0    0    0  501 -0.00000000000E+00 -0.00000000000E+00 -0.48062972098E+02  0.48062972098E+02  0.00000000000E+00 0.  1.
         25    2    1    2    0    0 -0.78090850462E+01 -0.26177893574E+02  0.65996889117E+02  0.14404392918E+03  0.12508717057E+03 0.  0.
          5    1    3    3  502    0 -0.91588991524E+01  0.50352115715E+02  0.24931726781E+02  0.57081383927E+02  0.41800000000E+01 0.  1.
         -5    1    3    3    0  502  0.13498141063E+01 -0.76530009289E+02  0.41065162335E+02  0.86962545257E+02  0.41800000000E+01 0.  1.
        -11    1    1    2    0    0 -0.37514670962E+02 -0.75296925544E+01  0.78032915490E+02  0.86909048477E+02  0.00000000000E+00 0.  1.
         11    1    1    2    0    0  0.45323756008E+02  0.33707586128E+02  0.16874010973E+03  0.17794288087E+03  0.00000000000E+00 0. -1.
</event>
<event>
 7    1  0.2840156E-009  0.1094339E+03  0.7561462E-02  0.1261622E+00
         -2   -1    0    0    0  501 -0.00000000000E+00  0.00000000000E+00  0.45210340502E+02  0.45210340502E+02  0.00000000000E+00 0. -1.
          2   -1    0    0  501    0  0.00000000000E+00 -0.00000000000E+00 -0.53397588735E+03  0.53397588735E+03  0.00000000000E+00 0.  1.
         25    2    1    2    0    0 -0.15751384210E+02  0.56223797381E+02 -0.39658085575E+03  0.41991892425E+03  0.12508519617E+03 0.  0.
          5    1    3    3  502    0  0.53022244059E+02  0.41411178522E+02 -0.20398805501E+03  0.21483678237E+03  0.41800000000E+01 0.  1.
         -5    1    3    3    0  502 -0.68773628269E+02  0.14812618860E+02 -0.19259280074E+03  0.20508214189E+03  0.41800000000E+01 0.  1.
        -11    1    1    2    0    0  0.32806942104E+02 -0.14419102624E+02 -0.10612664221E+03  0.11201370522E+03  0.00000000000E+00 0.  1.
         11    1    1    2    0    0 -0.17055557894E+02 -0.41804694758E+02  0.13941951113E+02  0.47253598378E+02  0.00000000000E+00 0. -1.
</event>
<event>
 7    1  0.2840156E-009  0.9711404E+02  0.7561462E-02  0.1286484E+00
          2   -1    0    0  501    0  0.00000000000E+00  0.00000000000E+00  0.46156052558E+03  0.46156052558E+03  0.00000000000E+00 0. -1.
         -2   -1    0    0    0  501 -0.00000000000E+00 -0.00000000000E+00 -0.48518811362E+02  0.48518811362E+02  0.00000000000E+00 0.  1.
         25    2    1    2    0    0 -0.41205955567E+02 -0.22590204780E+02  0.36390569837E+03  0.38766329308E+03  0.12508886189E+03 0.  0.
          5    1    3    3  502    0 -0.72946261023E+02  0.22849319374E+02  0.18173810873E+03  0.19720410989E+03  0.41800000000E+01 0. -1.
         -5    1    3    3    0  502  0.31740305456E+02 -0.45439524154E+02  0.18216758964E+03  0.19045918319E+03  0.41800000000E+01 0. -1.
        -11    1    1    2    0    0  0.81710109552E+01 -0.11831501610E+02 -0.28138949215E+02  0.31599846729E+02  0.00000000000E+00 0.  1.
         11    1    1    2    0    0  0.33034944612E+02  0.34421706389E+02  0.77274965063E+02  0.90816197133E+02  0.00000000000E+00 0. -1.
</event>
<event>
 7    1  0.2840156E-009  0.7535559E+02  0.7561462E-02  0.1342773E+00
          2   -1    0    0  501    0  0.00000000000E+00  0.00000000000E+00  0.41481525527E+03  0.41481525527E+03  0.00000000000E+00 0. -1.
         -2   -1    0    0    0  501 -0.00000000000E+00 -0.00000000000E+00 -0.33969966383E+02  0.33969966383E+02  0.00000000000E+00 0.  1.
         25    2    1    2    0    0 -0.19521444494E+02  0.42915076231E+02  0.21403038609E+03  0.25235066415E+03  0.12509620683E+03 0.  0.
          5    1    3    3  502    0  0.74790289207E+01  0.23476833706E+01 -0.15392514071E+02  0.17772151818E+02  0.41800000000E+01 0. -1.
         -5    1    3    3    0  502 -0.27000473415E+02  0.40567392860E+02  0.22942290016E+03  0.23457851233E+03  0.41800000000E+01 0. -1.
        -11    1    1    2    0    0  0.48538873832E+02 -0.10974808037E+02  0.44601823246E+02  0.66826576459E+02  0.00000000000E+00 0.  1.
         11    1    1    2    0    0 -0.29017429338E+02 -0.31940268194E+02  0.12221307956E+03  0.12960798105E+03  0.00000000000E+00 0. -1.
</event>
<event>
 7    1  0.2840156E-009  0.1257438E+03  0.7561462E-02  0.1233911E+00
         -4   -1    0    0    0  501 -0.00000000000E+00  0.00000000000E+00  0.71625697795E+02  0.71625697795E+02  0.00000000000E+00 0. -1.
          4   -1    0    0  501    0  0.00000000000E+00 -0.00000000000E+00 -0.24771123231E+03  0.24771123231E+03  0.00000000000E+00 0.  1.
         25    2    1    2    0    0  0.70283311602E+02 -0.98967142613E+01 -0.10029408101E+03  0.17533289772E+03  0.12508010831E+03 0.  0.
          5    1    3    3  502    0 -0.30460944331E+00 -0.49877487901E+02 -0.52847929584E+01  0.50331481429E+02  0.41800000000E+01 0. -1.
         -5    1    3    3    0  502  0.70587921046E+02  0.39980773640E+02 -0.95009288049E+02  0.12500141629E+03  0.41800000000E+01 0. -1.
        -11    1    1    2    0    0 -0.74784763078E+02  0.43354850769E+02 -0.41519847055E+02  0.95897349146E+02  0.00000000000E+00 0.  1.
         11    1    1    2    0    0  0.45014514751E+01 -0.33458136507E+02 -0.34271606456E+02  0.48106683247E+02  0.00000000000E+00 0. -1.
</event>
<event>
 7    1  0.2840156E-009  0.2933128E+03  0.7561462E-02  0.1088632E+00
          2   -1    0    0  501    0  0.00000000000E+00  0.00000000000E+00  0.98255770597E+03  0.98255770597E+03  0.00000000000E+00 0. -1.
         -2   -1    0    0    0  501 -0.00000000000E+00 -0.00000000000E+00 -0.96046615399E+02  0.96046615399E+02  0.00000000000E+00 0.  1.
         25    2    1    2    0    0 -0.13132916385E+01 -0.28333953058E+03  0.37255255718E+03  0.48448514898E+03  0.12508971737E+03 0.  0.
          5    1    3    3  502    0 -0.23597597063E+02 -0.54346588616E+02  0.18475915249E+02  0.62203135980E+02  0.41800000000E+01 0. -1.
         -5    1    3    3    0  502  0.22284305425E+02 -0.22899294197E+03  0.35407664193E+03  0.42228201300E+03  0.41800000000E+01 0. -1.
        -11    1    1    2    0    0  0.44967369432E+02  0.12383356271E+03  0.20493960796E+03  0.24363304061E+03  0.00000000000E+00 0.  1.
         11    1    1    2    0    0 -0.43654077793E+02  0.15950596787E+03  0.30901892543E+03  0.35048613178E+03  0.00000000000E+00 0. -1.
</event>
<event>
 7    1  0.2840156E-009  0.1103545E+03  0.7561462E-02  0.1259915E+00
          1   -1    0    0  501    0  0.00000000000E+00  0.00000000000E+00  0.27276472842E+03  0.27276472842E+03  0.00000000000E+00 0.  1.
         -1   -1    0    0    0  501 -0.00000000000E+00 -0.00000000000E+00 -0.46949308425E+02  0.46949308425E+02  0.00000000000E+00 0. -1.
         25    2    1    2    0    0 -0.28213762747E+02  0.18453127984E+02  0.14275953552E+03  0.19278125511E+03  0.12509113877E+03 0.  0.
          5    1    3    3  502    0 -0.16132754210E+02  0.71737689039E+02  0.69222176311E+02  0.10107296315E+03  0.41800000000E+01 0.  1.
         -5    1    3    3    0  502 -0.12081008537E+02 -0.53284561055E+02  0.73537359208E+02  0.91708291956E+02  0.41800000000E+01 0.  1.
        -11    1    1    2    0    0  0.44437687138E+02  0.21336326676E+02  0.61625058414E+02  0.78915110712E+02  0.00000000000E+00 0.  1.
         11    1    1    2    0    0 -0.16223924391E+02 -0.39789454660E+02  0.21430826059E+02  0.48017671022E+02  0.00000000000E+00 0. -1.
</event>
<event>
 7    1  0.2840156E-009  0.1686542E+03  0.7561462E-02  0.1179259E+00
         -2   -1    0    0    0  501 -0.00000000000E+00  0.00000000000E+00  0.12675684871E+03  0.12675684871E+03  0.00000000000E+00 0.  1.
          2   -1    0    0  501    0  0.00000000000E+00 -0.00000000000E+00 -0.25111159880E+03  0.25111159880E+03  0.00000000000E+00 0. -1.
         25    2    1    2    0    0 -0.12022456727E+03  0.49563343528E+02 -0.12498130961E+03  0.21949126454E+03  0.12508243625E+03 0.  0.
          5    1    3    3  502    0 -0.86675584760E+01 -0.36649242796E+02 -0.38612719172E+02  0.54099057748E+02  0.41800000000E+01 0.  1.
         -5    1    3    3    0  502 -0.11155700879E+03  0.86212586323E+02 -0.86368590439E+02  0.16539220679E+03  0.41800000000E+01 0.  1.
        -11    1    1    2    0    0  0.49371021851E+02 -0.69048255487E+02  0.11690031784E+01  0.84891259578E+02  0.00000000000E+00 0.  1.
         11    1    1    2    0    0  0.70853545419E+02  0.19484911959E+02 -0.54244366456E+00  0.73485923397E+02  0.00000000000E+00 0. -1.
</event>
<event>
 7    1  0.2840156E-009  0.1313386E+03  0.7561462E-02  0.1225483E+00
          2   -1    0    0  501    0  0.00000000000E+00  0.00000000000E+00  0.64870230062E+02  0.64870230062E+02  0.00000000000E+00 0. -1.
         -2   -1    0    0    0  501 -0.00000000000E+00 -0.00000000000E+00 -0.33811088922E+03  0.33811088922E+03  0.00000000000E+00 0.  1.
         25    2    1    2    0    0  0.37285911003E+02  0.62753234678E+02 -0.56935448530E+02  0.15560468567E+03  0.12507184048E+03 0.  0.
          5    1    3    3  502    0  0.42404693454E+02  0.98755315664E+02 -0.48795486079E+02  0.11810691030E+03  0.41800000000E+01 0. -1.
         -5    1    3    3    0  502 -0.51187824510E+01 -0.36002080985E+02 -0.81399624516E+01  0.37497775371E+02  0.41800000000E+01 0. -1.
        -11    1    1    2    0    0 -0.61892065207E+02 -0.69440308936E+02 -0.15204558171E+03  0.17824265246E+03  0.00000000000E+00 0.  1.
         11    1    1    2    0    0  0.24606154204E+02  0.66870742576E+01 -0.64259628924E+02  0.69133781152E+02  0.00000000000E+00 0. -1.
</event>
<event>
 7    1  0.2840156E-009  0.1152428E+03  0.7561462E-02  0.1251158E+00
         -1   -1    0    0    0  501 -0.00000000000E+00  0.00000000000E+00  0.18419837062E+02  0.18419837062E+02  0.00000000000E+00 0.  1.
          1   -1    0    0  501    0  0.00000000000E+00 -0.00000000000E+00 -0.91518934166E+03  0.91518934166E+03  0.00000000000E+00 0. -1.
         25    2    1    2    0    0  0.63186091916E+01 -0.68539636830E+02 -0.56258462974E+03  0.58041908725E+03  0.12508894668E+03 0.  0.
          5    1    3    3  502    0  0.80554236690E+01  0.26115771713E+02 -0.29976157387E+03  0.30103388008E+03  0.41800000000E+01 0.  1.
         -5    1    3    3    0  502 -0.17368144774E+01 -0.94655408543E+02 -0.26282305587E+03  0.27938520717E+03  0.41800000000E+01 0.  1.
        -11    1    1    2    0    0 -0.42565581771E+02  0.54618625791E+02 -0.15374072950E+03  0.16861564263E+03  0.00000000000E+00 0. -1.
         11    1    1    2    0    0  0.36246972580E+02  0.13921011039E+02 -0.18044414536E+03  0.18457444884E+03  0.00000000000E+00 0.  1.
</event>
<event>
 7    1  0.2840156E-009  0.9640932E+02  0.7561462E-02  0.1288033E+00
         -1   -1    0    0    0  501 -0.00000000000E+00  0.00000000000E+00  0.14126552016E+03  0.14126552016E+03  0.00000000000E+00 0.  1.
          1   -1    0    0  501    0  0.00000000000E+00 -0.00000000000E+00 -0.10184615860E+03  0.10184615860E+03  0.00000000000E+00 0. -1.
         25    2    1    2    0    0 -0.11807129291E+02  0.38365508188E+02 -0.11613336713E+02  0.13188905256E+03  0.12509409288E+03 0.  0.
          5    1    3    3  502    0  0.38848205158E+02 -0.19608549254E+02  0.20603469065E+02  0.48328600076E+02  0.41800000000E+01 0.  1.
         -5    1    3    3    0  502 -0.50655334449E+02  0.57974057442E+02 -0.32216805779E+02  0.83560452482E+02  0.41800000000E+01 0.  1.
        -11    1    1    2    0    0 -0.77273036267E+01 -0.49105404347E+02 -0.59215719136E+01  0.50061132342E+02  0.00000000000E+00 0. -1.
         11    1    1    2    0    0  0.19534432918E+02  0.10739896159E+02  0.56954270183E+02  0.61161493858E+02  0.00000000000E+00 0.  1.
</event>
<event>
 7    1  0.2840156E-009  0.1888352E+03  0.7561462E-02  0.1159516E+00
         -4   -1    0    0    0  501 -0.00000000000E+00  0.00000000000E+00  0.31919982607E+03  0.31919982607E+03  0.00000000000E+00 0. -1.
          4   -1    0    0  501    0  0.00000000000E+00 -0.00000000000E+00 -0.14922265011E+03  0.14922265011E+03  0.00000000000E+00 0.  1.
         25    2    1    2    0    0  0.15281570012E+03 -0.60904676498E+02  0.18908306494E+03  0.28011202579E+03  0.12509326010E+03 0.  0.
          5    1    3    3  502    0  0.36168821001E+02 -0.65349592169E+02  0.12810236236E+03  0.14834567891E+03  0.41800000000E+01 0.  1.
         -5    1    3    3    0  502  0.11664687912E+03  0.44449156710E+01  0.60980702586E+02  0.13176634689E+03  0.41800000000E+01 0.  1.
        -11    1    1    2    0    0 -0.14666564620E+03  0.23968329419E+02 -0.63296200348E+01  0.14874594677E+03  0.00000000000E+00 0.  1.
         11    1    1    2    0    0 -0.61500539229E+01  0.36936347079E+02 -0.12776268943E+02  0.39564503623E+02  0.00000000000E+00 0. -1.
</event>
<event>
 7    1  0.2840156E-009  0.1348760E+03  0.7561462E-02  0.1220395E+00
         -2   -1    0    0    0  501 -0.00000000000E+00  0.00000000000E+00  0.99015935065E+02  0.99015935065E+02  0.00000000000E+00 0.  1.
          2   -1    0    0  501    0  0.00000000000E+00 -0.00000000000E+00 -0.19076715243E+03  0.19076715243E+03  0.00000000000E+00 0. -1.
         25    2    1    2    0    0 -0.25405265601E+02  0.80679285612E+02 -0.33998773395E+02  0.15478424717E+03  0.12509065486E+03 0.  0.
          5    1    3    3  502    0 -0.32481307696E+02  0.11165250724E+03 -0.14457631776E+02  0.11725106924E+03  0.41800000000E+01 0. -1.
         -5    1    3    3    0  502  0.70760420955E+01 -0.30973221626E+02 -0.19541141619E+02  0.37533177928E+02  0.41800000000E+01 0. -1.
        -11    1    1    2    0    0 -0.11293651536E+02 -0.83764451663E+02 -0.46608267594E+02  0.96521295762E+02  0.00000000000E+00 0.  1.
         11    1    1    2    0    0  0.36698917137E+02  0.30851660512E+01 -0.11144176380E+02  0.38477544565E+02  0.00000000000E+00 0. -1.
</event>
<event>
 7    1  0.2840156E-009  0.6662364E+02  0.7561462E-02  0.1371966E+00
          1   -1    0    0  501    0  0.00000000000E+00  0.00000000000E+00  0.18852071323E+02  0.18852071323E+02  0.00000000000E+00 0. -1.
         -1   -1    0    0    0  501 -0.00000000000E+00 -0.00000000000E+00 -0.71137588720E+03  0.71137588720E+03  0.00000000000E+00 0.  1.
         25    2    1    2    0    0 -0.25630948898E+02  0.21996619055E+02 -0.45886256563E+03  0.47680448777E+03  0.12508744393E+03 0.  0.
          5    1    3    3  502    0 -0.17677948821E+02  0.11088603379E+02 -0.39174165682E+01  0.21639906469E+02  0.41800000000E+01 0. -1.
         -5    1    3    3    0  502 -0.79530000773E+01  0.10908015676E+02 -0.45494514906E+03  0.45516458130E+03  0.41800000000E+01 0. -1.
        -11    1    1    2    0    0  0.53400357459E+02  0.11190660455E+02 -0.13970945522E+03  0.14998520239E+03  0.00000000000E+00 0.  1.
         11    1    1    2    0    0 -0.27769408561E+02 -0.33187279510E+02 -0.93951795027E+02  0.10343826836E+03  0.00000000000E+00 0. -1.
</event>
<event>
 7    1  0.2840156E-009  0.9759614E+02  0.7561462E-02  0.1285434E+00
         -2   -1    0    0    0  501 -0.00000000000E+00  0.00000000000E+00  0.18576086509E+02  0.18576086509E+02  0.00000000000E+00 0.  1.
          2   -1    0    0  501    0  0.00000000000E+00 -0.00000000000E+00 -0.69465425311E+03  0.69465425311E+03  0.00000000000E+00 0. -1.
         25    2    1    2    0    0  0.23543632613E+01  0.34374323402E+02 -0.42419144674E+03  0.44359023617E+03  0.12508707771E+03 0.  0.
          5    1    3    3  502    0  0.17375715037E+02  0.63630351634E+02 -0.39146974150E+03  0.39700978329E+03  0.41800000000E+01 0.  1.
         -5    1    3    3    0  502 -0.15021351776E+02 -0.29256028231E+02 -0.32721705240E+02  0.46580452884E+02  0.41800000000E+01 0.  1.
        -11    1    1    2    0    0  0.32901913743E+01  0.30576306036E+02 -0.90497442014E+02  0.95579929175E+02  0.00000000000E+00 0. -1.
         11    1    1    2    0    0 -0.56445546356E+01 -0.64950629438E+02 -0.16138927785E+03  0.17406017427E+03  0.00000000000E+00 0.  1.
</event>
<event>
 7    1  0.2840156E-009  0.1610709E+03  0.7561462E-02  0.1187493E+00
         -1   -1    0    0    0  501 -0.00000000000E+00  0.00000000000E+00  0.70208991165E+02  0.70208991165E+02  0.00000000000E+00 0.  1.
          1   -1    0    0  501    0  0.00000000000E+00 -0.00000000000E+00 -0.49181573555E+03  0.49181573555E+03  0.00000000000E+00 0. -1.
         25    2    1    2    0    0  0.11779660617E+03  0.69763247493E+02 -0.12901631998E+03  0.22591296523E+03  0.12509398832E+03 0.  0.
          5    1    3    3  502    0  0.10706977288E+03  0.95802506094E+02 -0.68898425343E+02  0.15939423407E+03  0.41800000000E+01 0. -1.
         -5    1    3    3    0  502  0.10726833285E+02 -0.26039258601E+02 -0.60117894635E+02  0.66518731168E+02  0.41800000000E+01 0. -1.
        -11    1    1    2    0    0 -0.66324463263E+02 -0.72665498915E+02 -0.25191154475E+03  0.27044155661E+03  0.00000000000E+00 0. -1.
         11    1    1    2    0    0 -0.51472142904E+02  0.29022514222E+01 -0.40678879654E+02  0.65670204875E+02  0.00000000000E+00 0.  1.
</event>
<event>
 7    1  0.2840156E-009  0.1150766E+03  0.7561462E-02  0.1251448E+00
         -1   -1    0    0    0  501 -0.00000000000E+00  0.00000000000E+00  0.13429973202E+03  0.13429973202E+03  0.00000000000E+00 0.  1.
          1   -1    0    0  501    0  0.00000000000E+00 -0.00000000000E+00 -0.11404890162E+03  0.11404890162E+03  0.00000000000E+00 0. -1.
         25    2    1    2    0    0 -0.33002434027E+02 -0.50766163930E+02  0.19542292611E+02  0.14034229365E+03  0.12509074360E+03 0.  0.
          5    1    3    3  502    0  0.20260728287E+02  0.23127084534E+02  0.36167743320E+02  0.47654351392E+02  0.41800000000E+01 0. -1.
         -5    1    3    3    0  502 -0.53263162313E+02 -0.73893248463E+02 -0.16625450709E+02  0.92687942254E+02  0.41800000000E+01 0. -1.
        -11    1    1    2    0    0 -0.11796312139E+02 -0.20564196904E+02  0.17090001987E+01  0.23768884199E+02  0.00000000000E+00 0. -1.
         11    1    1    2    0    0  0.44798746165E+02  0.71330360833E+02 -0.10004624110E+01  0.84237455800E+02  0.00000000000E+00 0.  1.
</event>
<event>
 7    1  0.2840156E-009  0.1160627E+03  0.7561462E-02  0.1249737E+00
         -2   -1    0    0    0  501 -0.00000000000E+00  0.00000000000E+00  0.20105823671E+02  0.20105823671E+02  0.00000000000E+00 0.  1.
          2   -1    0    0  501    0  0.00000000000E+00 -0.00000000000E+00 -0.11488242243E+04  0.11488242243E+04  0.00000000000E+00 0. -1.
         25    2    1    2    0    0  0.96651191606E+02  0.43294835136E+01 -0.77749758789E+03  0.79341674961E+03  0.12508973627E+03 0.  0.
          5    1    3    3  502    0  0.34396181781E+02  0.12020224783E+02 -0.65221478770E+03  0.65324511848E+03  0.41800000000E+01 0. -1.
         -5    1    3    3    0  502  0.62255009825E+02 -0.76907412695E+01 -0.12528280019E+03  0.14017163113E+03  0.41800000000E+01 0. -1.
        -11    1    1    2    0    0  0.48972909102E+01  0.26114065186E+02 -0.80706001447E+02  0.84966973162E+02  0.00000000000E+00 0. -1.
         11    1    1    2    0    0 -0.10154848252E+03 -0.30443548699E+02 -0.27051481129E+03  0.29054632519E+03  0.00000000000E+00 0.  1.
</event>
<event>
 7    1  0.2840156E-009  0.1407978E+03  0.7561462E-02  0.1212259E+00
          2   -1    0    0  501    0  0.00000000000E+00  0.00000000000E+00  0.36566345906E+03  0.36566345906E+03  0.00000000000E+00 0. -1.
         -2   -1    0    0    0  501 -0.00000000000E+00 -0.00000000000E+00 -0.88333454194E+02  0.88333454194E+02  0.00000000000E+00 0.  1.
         25    2    1    2    0    0 -0.67878033893E+02 -0.77747438459E+02  0.27526140809E+03  0.31948240413E+03  0.12509225434E+03 0.  0.
          5    1    3    3  502    0 -0.20357561748E+02  0.27435603644E+02  0.21257825411E+02  0.40453803391E+02  0.41800000000E+01 0. -1.
         -5    1    3    3    0  502 -0.47520472145E+02 -0.10518304210E+03  0.25400358268E+03  0.27902860074E+03  0.41800000000E+01 0. -1.
        -11    1    1    2    0    0  0.26324842397E+02  0.85457079231E+02 -0.11433177130E+02  0.90147807834E+02  0.00000000000E+00 0.  1.
         11    1    1    2    0    0  0.41553191496E+02 -0.77096407727E+01  0.13501773906E+02  0.44366701286E+02  0.00000000000E+00 0. -1.
</event>
<event>
 7    1  0.2840156E-009  0.1236003E+03  0.7561462E-02  0.1237273E+00
          1   -1    0    0  501    0  0.00000000000E+00  0.00000000000E+00  0.12475046610E+03  0.12475046610E+03  0.00000000000E+00 0. -1.
         -1   -1    0    0    0  501 -0.00000000000E+00 -0.00000000000E+00 -0.19042806490E+03  0.19042806490E+03  0.00000000000E+00 0.  1.
         25    2    1    2    0    0  0.17059626801E+02  0.92139031887E+02 -0.80484689023E+02  0.17579567447E+03  0.12508278032E+03 0.  0.
          5    1    3    3  502    0 -0.13724276251E+02  0.67897021903E+02  0.16310146348E+02  0.71287127981E+02  0.41800000000E+01 0. -1.
         -5    1    3    3    0  502  0.30783903052E+02  0.24242009985E+02 -0.96794835372E+02  0.10450854649E+03  0.41800000000E+01 0. -1.
        -11    1    1    2    0    0  0.20388093551E+02 -0.98348807222E+02  0.74362035845E+01  0.10071474254E+03  0.00000000000E+00 0.  1.
         11    1    1    2    0    0 -0.37447720352E+02  0.62097753348E+01  0.73708866385E+01  0.38668113984E+02  0.00000000000E+00 0. -1.
</event>
<event>
 7    1  0.2840156E-009  0.9875393E+02  0.7561462E-02  0.1282938E+00
         -1   -1    0    0    0  501 -0.00000000000E+00  0.00000000000E+00  0.20319595887E+02  0.20319595887E+02  0.00000000000E+00 0.  1.
          1   -1    0    0  501    0  0.00000000000E+00 -0.00000000000E+00 -0.58289974476E+03  0.58289974476E+03  0.00000000000E+00 0. -1.
         25    2    1    2    0    0  0.17547011835E+02 -0.84583096959E+00 -0.34978620969E+03  0.37189591283E+03  0.12509022519E+03 0.  0.
          5    1    3    3  502    0  0.55054953615E+02 -0.42732155375E+02 -0.18545509909E+03  0.19816193176E+03  0.41800000000E+01 0.  1.
         -5    1    3    3    0  502 -0.37507941780E+02  0.41886324405E+02 -0.16433111060E+03  0.17373398108E+03  0.41800000000E+01 0.  1.
        -11    1    1    2    0    0  0.26521911941E+02  0.51957096631E+01 -0.16067503544E+03  0.16293211539E+03  0.00000000000E+00 0. -1.
         11    1    1    2    0    0 -0.44068923776E+02 -0.43498786935E+01 -0.52118903741E+02  0.68391312421E+02  0.00000000000E+00 0.  1.
</event>
<event>
 7    1  0.2840156E-009  0.1329033E+03  0.7561462E-02  0.1223210E+00
         -2   -1    0    0    0  501 -0.00000000000E+00  0.00000000000E+00  0.71321372333E+02  0.71321372333E+02  0.00000000000E+00 0.  1.
          2   -1    0    0  501    0  0.00000000000E+00 -0.00000000000E+00 -0.36578304431E+03  0.36578304431E+03  0.00000000000E+00 0. -1.
         25    2    1    2    0    0 -0.30480432489E+02  0.11337903718E+03 -0.19620758548E+03  0.26063232310E+03  0.12509168000E+03 0.  0.
          5    1    3    3  502    0  0.15352064194E+02  0.60794687013E+02 -0.12487192155E+02  0.64070915491E+02  0.41800000000E+01 0.  1.
         -5    1    3    3    0  502 -0.45832496682E+02  0.52584350163E+02 -0.18372039333E+03  0.19656140760E+03  0.41800000000E+01 0.  1.
        -11    1    1    2    0    0 -0.13500556367E+02 -0.70071602315E+02 -0.88972025118E+02  0.11405400355E+03  0.00000000000E+00 0. -1.
         11    1    1    2    0    0  0.43980988856E+02 -0.43307434861E+02 -0.92820613737E+01  0.62418089993E+02  0.00000000000E+00 0.  1.
</event>
<event>
 7    1  0.2840156E-009  0.1218831E+03  0.7561462E-02  0.1240022E+00
          2   -1    0    0  501    0  0.00000000000E+00  0.00000000000E+00  0.14063355370E+04  0.14063355370E+04  0.00000000000E+00 0. -1.
         -2   -1    0    0    0  501 -0.00000000000E+00 -0.00000000000E+00 -0.18771843015E+02  0.18771843015E+02  0.00000000000E+00 0.  1.
         25    2    1    2    0    0  0.68845179209E+02  0.23780972403E+02  0.11663687465E+04  0.11753168714E+04  0.12509397298E+03 0.  0.
          5    1    3    3  502    0 -0.96992749523E+01  0.47315214309E+02  0.70766483501E+03  0.70932347807E+03  0.41800000000E+01 0. -1.
         -5    1    3    3    0  502  0.78544454162E+02 -0.23534241906E+02  0.45870391150E+03  0.46599339335E+03  0.41800000000E+01 0. -1.
        -11    1    1    2    0    0 -0.62650476648E+02  0.22442576645E+02  0.10192679625E+03  0.12172848173E+03  0.00000000000E+00 0. -1.
         11    1    1    2    0    0 -0.61947025613E+01 -0.46223549048E+02  0.11926815123E+03  0.12806202686E+03  0.00000000000E+00 0.  1.
</event>
<event>
 7    1  0.2840156E-009  0.1931685E+03  0.7561462E-02  0.1155634E+00
         -1   -1    0    0    0  501 -0.00000000000E+00  0.00000000000E+00  0.78184258973E+02  0.78184258973E+02  0.00000000000E+00 0.  1.
          1   -1    0    0  501    0  0.00000000000E+00 -0.00000000000E+00 -0.58966130167E+03  0.58966130167E+03  0.00000000000E+00 0. -1.
         25    2    1    2    0    0 -0.11241117487E+03 -0.13551665044E+03 -0.35453611378E+03  0.41514565659E+03  0.12509606481E+03 0.  0.
          5    1    3    3  502    0  0.13889279500E+02 -0.62347612916E+02 -0.67051154544E+02  0.92700952784E+02  0.41800000000E+01 0. -1.
         -5    1    3    3    0  502 -0.12630045437E+03 -0.73169037525E+02 -0.28748495923E+03  0.32244470381E+03  0.41800000000E+01 0. -1.
        -11    1    1    2    0    0  0.10211401738E+03  0.12683226317E+03 -0.93335622069E+02  0.18768386684E+03  0.00000000000E+00 0.  1.
         11    1    1    2    0    0  0.10297157500E+02  0.86843872674E+01 -0.63605306853E+02  0.65016037211E+02  0.00000000000E+00 0. -1.
</event>
<event>
 7    1  0.2840156E-009  0.1526353E+03  0.7561462E-02  0.1197272E+00
          2   -1    0    0  501    0  0.00000000000E+00  0.00000000000E+00  0.42378763081E+03  0.42378763081E+03  0.00000000000E+00 0. -1.
         -2   -1    0    0    0  501 -0.00000000000E+00 -0.00000000000E+00 -0.63475268787E+02  0.63475268787E+02  0.00000000000E+00 0.  1.
         25    2    1    2    0    0 -0.42020617450E+02 -0.11376852554E+03  0.18059719185E+03  0.25094531975E+03  0.12509675498E+03 0.  0.
          5    1    3    3  502    0  0.69563811922E+01  0.13525512124E+02 -0.83729115155E+01  0.17858016821E+02  0.41800000000E+01 0.  1.
         -5    1    3    3    0  502 -0.48976998643E+02 -0.12729403766E+03  0.18897010337E+03  0.23308730293E+03  0.41800000000E+01 0.  1.
        -11    1    1    2    0    0  0.31525106520E+02  0.12996963462E+03  0.16245825312E+03  0.21042486134E+03  0.00000000000E+00 0.  1.
         11    1    1    2    0    0  0.10495510930E+02 -0.16201109084E+02  0.17256917052E+02  0.25892718501E+02  0.00000000000E+00 0. -1.
</event>
<event>
 7    1  0.2840156E-009  0.6903687E+02  0.7561462E-02  0.1363399E+00
          2   -1    0    0  501    0  0.00000000000E+00  0.00000000000E+00  0.28285706937E+03  0.28285706937E+03  0.00000000000E+00 0. -1.
         -2   -1    0    0    0  501 -0.00000000000E+00 -0.00000000000E+00 -0.55643166246E+02  0.55643166246E+02  0.00000000000E+00 0.  1.
         25    2    1    2    0    0  0.46079009416E+02 -0.37467671822E+02  0.16550088602E+03  0.21579067983E+03  0.12509185699E+03 0.  0.
          5    1    3    3  502    0  0.35334285442E+02 -0.42751568046E+02  0.61769771279E+01  0.55962806796E+02  0.41800000000E+01 0. -1.
         -5    1    3    3    0  502  0.10744723974E+02  0.52838962238E+01  0.15932390889E+03  0.15982787303E+03  0.41800000000E+01 0. -1.
        -11    1    1    2    0    0 -0.62111419984E+01  0.28151677211E+02 -0.17369802595E+02  0.33657172444E+02  0.00000000000E+00 0.  1.
         11    1    1    2    0    0 -0.39867867417E+02  0.93159946112E+01  0.79082819703E+02  0.89052383350E+02  0.00000000000E+00 0. -1.
</event>
<event>
 7    1  0.2840156E-009  0.2297838E+03  0.7561462E-02  0.1126792E+00
         -1   -1    0    0    0  501 -0.00000000000E+00  0.00000000000E+00  0.27805390019E+03  0.27805390019E+03  0.00000000000E+00 0.  1.
          1   -1    0    0  501    0  0.00000000000E+00 -0.00000000000E+00 -0.27156289787E+03  0.27156289787E+03  0.00000000000E+00 0. -1.
         25    2    1    2    0    0  0.20977384630E+03  0.66246615186E+02  0.12658494234E+03  0.28295739250E+03  0.12508979866E+03 0.  0.
          5    1    3    3  502    0  0.90161139734E+02  0.12008276848E+02  0.12100614582E+03  0.15143708118E+03  0.41800000000E+01 0. -1.
         -5    1    3    3    0  502  0.11961270657E+03  0.54238338338E+02  0.55787965166E+01  0.13152031132E+03  0.41800000000E+01 0. -1.
        -11    1    1    2    0    0 -0.18960429171E+03 -0.25061271269E+02 -0.10610282049E+03  0.21871365588E+03  0.00000000000E+00 0.  1.
         11    1    1    2    0    0 -0.20169554593E+02 -0.41185343918E+02 -0.13991119528E+02  0.47945749673E+02  0.00000000000E+00 0. -1.
</event>
<event>
 7    1  0.2840156E-009  0.1319386E+03  0.7561462E-02  0.1224607E+00
          1   -1    0    0  501    0  0.00000000000E+00  0.00000000000E+00  0.11260938447E+04  0.11260938447E+04  0.00000000000E+00 0. -1.
         -1   -1    0    0    0  501 -0.00000000000E+00 -0.00000000000E+00 -0.16442386475E+02  0.16442386475E+02  0.00000000000E+00 0.  1.
         25    2    1    2    0    0  0.57124393545E+02  0.55919295185E+02  0.67531046636E+03  0.69143522606E+03  0.12509309313E+03 0.  0.
          5    1    3    3  502    0  0.94509222994E+02  0.39539513785E+02  0.39282128223E+03  0.40598201753E+03  0.41800000000E+01 0. -1.
         -5    1    3    3    0  502 -0.37384829449E+02  0.16379781399E+02  0.28248918413E+03  0.28545320853E+03  0.41800000000E+01 0. -1.
        -11    1    1    2    0    0 -0.62397196768E+02  0.17346007423E+01  0.26044715773E+03  0.26782296573E+03  0.00000000000E+00 0. -1.
         11    1    1    2    0    0  0.52728032231E+01 -0.57653895927E+02  0.17389383412E+03  0.18327803936E+03  0.00000000000E+00 0.  1.
</event>
<event>
 7    1  0.2840156E-009  0.1433555E+03  0.7561462E-02  0.1208884E+00
          2   -1    0    0  501    0  0.00000000000E+00  0.00000000000E+00  0.72731115844E+03  0.72731115844E+03  0.00000000000E+00 0. -1.
         -2   -1    0    0    0  501 -0.00000000000E+00 -0.00000000000E+00 -0.29100534569E+02  0.29100534569E+02  0.00000000000E+00 0.  1.
         25    2    1    2    0    0 -0.19791970792E+02 -0.94881936638E+02  0.34135131545E+03  0.37624737528E+03  0.12508822022E+03 0.  0.
          5    1    3    3  502    0 -0.42263632627E+02  0.13753559440E+02  0.69493450193E+02  0.82596531766E+02  0.41800000000E+01 0. -1.
         -5    1    3    3    0  502  0.22471661835E+02 -0.10863549608E+03  0.27185786526E+03  0.29365084351E+03  0.41800000000E+01 0. -1.
        -11    1    1    2    0    0  0.84116695400E+01  0.11100365370E+03  0.30221759424E+03  0.32206838030E+03  0.00000000000E+00 0. -1.
         11    1    1    2    0    0  0.11380301252E+02 -0.16121717061E+02  0.54641714174E+02  0.58095937427E+02  0.00000000000E+00 0.  1.
</event>
<event>
 7    1  0.2840156E-009  0.1113542E+03  0.7561462E-02  0.1258083E+00
          1   -1    0    0  501    0  0.00000000000E+00  0.00000000000E+00  0.30634671993E+03  0.30634671993E+03  0.00000000000E+00 0. -1.
         -1   -1    0    0    0  501 -0.00000000000E+00 -0.00000000000E+00 -0.64193081789E+02  0.64193081789E+02  0.00000000000E+00 0.  1.
         25    2    1    2    0    0  0.50827461640E+02  0.22035173923E+02  0.22641475617E+03  0.26453447087E+03  0.12508343105E+03 0.  0.
          5    1    3    3  502    0 -0.29794518336E+02 -0.89939488875E+01  0.12502087808E+02  0.33799098199E+02  0.41800000000E+01 0.  1.
         -5    1    3    3    0  502  0.80621979977E+02  0.31029122811E+02  0.21391266836E+03  0.23073537268E+03  0.41800000000E+01 0.  1.
        -11    1    1    2    0    0  0.18939026796E+02  0.16498730558E+02  0.44559211395E+01  0.25509803590E+02  0.00000000000E+00 0.  1.
         11    1    1    2    0    0 -0.69766488436E+02 -0.38533904481E+02  0.11282960833E+02  0.80495527257E+02  0.00000000000E+00 0. -1.
</event>
<event>
 7    1  0.2840156E-009  0.1637223E+03  0.7561462E-02  0.1184557E+00
          3   -1    0    0  501    0  0.00000000000E+00  0.00000000000E+00  0.42412973811E+03  0.42412973811E+03  0.00000000000E+00 0. -1.
         -3   -1    0    0    0  501 -0.00000000000E+00 -0.00000000000E+00 -0.93446281549E+02  0.93446281549E+02  0.00000000000E+00 0.  1.
         25    2    1    2    0    0  0.87834017736E+02 -0.90690381556E+02  0.31214298193E+03  0.35919329818E+03  0.12508806623E+03 0.  0.
          5    1    3    3  502    0  0.11185600595E+03 -0.10134512704E+03  0.26994229754E+03  0.30930392374E+03  0.41800000000E+01 0. -1.
         -5    1    3    3    0  502 -0.24021988210E+02  0.10654745488E+02  0.42200684387E+02  0.49889374436E+02  0.41800000000E+01 0. -1.
        -11    1    1    2    0    0 -0.75484750697E+02  0.20016243252E+02 -0.14445114135E+02  0.79418252966E+02  0.00000000000E+00 0. -1.
         11    1    1    2    0    0 -0.12349267039E+02  0.70674138304E+02  0.32985588772E+02  0.78964468516E+02  0.00000000000E+00 0.  1.
</event>
<event>
 7    1  0.2840156E-009  0.9144221E+02  0.7561462E-02  0.1299396E+00
          2   -1    0    0  501    0  0.00000000000E+00  0.00000000000E+00  0.44319108440E+03  0.44319108440E+03  0.00000000000E+00 0. -1.
         -2   -1    0    0    0  501 -0.00000000000E+00 -0.00000000000E+00 -0.42641366139E+02  0.42641366139E+02  0.00000000000E+00 0.  1.
         25    2    1    2    0    0  0.40569476150E+02 -0.52105956110E+01  0.34958416700E+03  0.37353493737E+03  0.12508487884E+03 0.  0.
          5    1    3    3  502    0 -0.18846131292E+02 -0.40515359263E+02  0.55322926965E+02  0.71237417478E+02  0.41800000000E+01 0.  1.
         -5    1    3    3    0  502  0.59415607441E+02  0.35304763652E+02  0.29426124004E+03  0.30229751989E+03  0.41800000000E+01 0.  1.
        -11    1    1    2    0    0 -0.51327818038E+02 -0.77631702349E+01  0.69822887860E+02  0.87006019250E+02  0.00000000000E+00 0. -1.
         11    1    1    2    0    0  0.10758341888E+02  0.12973765846E+02 -0.18857336608E+02  0.25291493913E+02  0.00000000000E+00 0.  1.
</event>
<event>
 7    1  0.2840156E-009  0.1185797E+03  0.7561462E-02  0.1245459E+00
         -1   -1    0    0    0  501 -0.00000000000E+00  0.00000000000E+00  0.39330761683E+02  0.39330761683E+02  0.00000000000E+00 0.  1.
          1   -1    0    0  501    0  0.00000000000E+00 -0.00000000000E+00 -0.46607217552E+03  0.46607217552E+03  0.00000000000E+00 0. -1.
         25    2    1    2    0    0 -0.66569560402E+02  0.29337546171E+02 -0.29925559624E+03  0.33240542986E+03  0.12508900805E+03 0.  0.
          5    1    3    3  502    0 -0.83622341023E+02  0.62628258715E+02 -0.19030209423E+03  0.21713441500E+03  0.41800000000E+01 0.  1.
         -5    1    3    3    0  502  0.17052780622E+02 -0.33290712545E+02 -0.10895350200E+03  0.11527101486E+03  0.41800000000E+01 0.  1.
        -11    1    1    2    0    0  0.61149012211E+02 -0.46592982640E+02 -0.13340158815E+03  0.15396782601E+03  0.00000000000E+00 0. -1.
         11    1    1    2    0    0  0.54205481908E+01  0.17255436470E+02  0.59157705465E+01  0.19029681332E+02  0.00000000000E+00 0.  1.
</event>
<event>
 7    1  0.2840156E-009  0.9674899E+02  0.7561462E-02  0.1287285E+00
         -1   -1    0    0    0  501 -0.00000000000E+00  0.00000000000E+00  0.22753165768E+02  0.22753165768E+02  0.00000000000E+00 0. -1.
          1   -1    0    0  501    0  0.00000000000E+00 -0.00000000000E+00 -0.10563646457E+04  0.10563646457E+04  0.00000000000E+00 0.  1.
         25    2    1    2    0    0  0.35641910826E+02  0.67603982677E+02 -0.84351430223E+03  0.85615759540E+03  0.12509518700E+03 0.  0.
          5    1    3    3  502    0  0.32860682255E+02  0.60189904898E+02 -0.18127162992E+03  0.19385439201E+03  0.41800000000E+01 0. -1.
         -5    1    3    3    0  502  0.27812285708E+01  0.74140777782E+01 -0.66224267231E+03  0.66230320339E+03  0.41800000000E+01 0. -1.
        -11    1    1    2    0    0 -0.50093099546E+02 -0.35963687473E+01 -0.94377523527E+02  0.10690822904E+03  0.00000000000E+00 0.  1.
         11    1    1    2    0    0  0.14451188721E+02 -0.64007613929E+02 -0.95719654152E+02  0.11605198700E+03  0.00000000000E+00 0. -1.
</event>
<event>
 7    1  0.2840156E-009  0.8502164E+02  0.7561462E-02  0.1315376E+00
          1   -1    0    0  501    0  0.00000000000E+00  0.00000000000E+00  0.90411333722E+02  0.90411333722E+02  0.00000000000E+00 0. -1.
         -1   -1    0    0    0  501 -0.00000000000E+00 -0.00000000000E+00 -0.18629578364E+03  0.18629578364E+03  0.00000000000E+00 0.  1.
         25    2    1    2    0    0  0.58166949527E+02 -0.29611076095E+02 -0.29414134007E+02  0.14412647268E+03  0.12508812494E+03 0.  0.
          5    1    3    3  502    0 -0.19450350395E+02  0.12493884159E-01 -0.53867063303E+02  0.57423420270E+02  0.41800000000E+01 0.  1.
         -5    1    3    3    0  502  0.77617299923E+02 -0.29623569979E+02  0.24452929296E+02  0.86703052407E+02  0.41800000000E+01 0.  1.
        -11    1    1    2    0    0 -0.19436072783E+02  0.22955073420E+01  0.23686255966E+02  0.30725705864E+02  0.00000000000E+00 0. -1.
         11    1    1    2    0    0 -0.38730876745E+02  0.27315568753E+02 -0.90156571876E+02  0.10185493882E+03  0.00000000000E+00 0.  1.
</event>
<event>
 7    1  0.2840156E-009  0.8449085E+02  0.7561462E-02  0.1316769E+00
         -1   -1    0    0    0  501 -0.00000000000E+00  0.00000000000E+00  0.64562148920E+02  0.64562148920E+02  0.00000000000E+00 0.  1.
          1   -1    0    0  501    0  0.00000000000E+00 -0.00000000000E+00 -0.21227447480E+03  0.21227447480E+03  0.00000000000E+00 0. -1.
         25    2    1    2    0    0 -0.19192646887E+02 -0.32863473982E+02 -0.10804017235E+03  0.16961358271E+03  0.12509085890E+03 0.  0.
          5    1    3    3  502    0 -0.70452937041E+02 -0.17249016737E+01 -0.60209190952E+02  0.92785832423E+02  0.41800000000E+01 0.  1.
         -5    1    3    3    0  502  0.51260290154E+02 -0.31138572308E+02 -0.47830981396E+02  0.76827750282E+02  0.41800000000E+01 0.  1.
        -11    1    1    2    0    0  0.10346108989E+02  0.13822188151E+02  0.29913644707E+02  0.34538688397E+02  0.00000000000E+00 0.  1.
         11    1    1    2    0    0  0.88465378982E+01  0.19041285831E+02 -0.69585798235E+02  0.72684352613E+02  0.00000000000E+00 0. -1.
</event>
<event>
 7    1  0.2840156E-009  0.9869417E+02  0.7561462E-02  0.1283066E+00
          1   -1    0    0  501    0  0.00000000000E+00  0.00000000000E+00  0.51457574813E+03  0.51457574813E+03  0.00000000000E+00 0. -1.
         -1   -1    0    0    0  501 -0.00000000000E+00 -0.00000000000E+00 -0.28397639619E+02  0.28397639619E+02  0.00000000000E+00 0.  1.
         25    2    1    2    0    0  0.12445018233E+02  0.43382053889E+02  0.35067528991E+03  0.37504650877E+03  0.12509933536E+03 0.  0.
          5    1    3    3  502    0 -0.53962290798E+02  0.20758192727E+01  0.12747574818E+03  0.13850551119E+03  0.41800000000E+01 0.  1.
         -5    1    3    3    0  502  0.66407309030E+02  0.41306234617E+02  0.22319954173E+03  0.23654099758E+03  0.41800000000E+01 0.  1.
        -11    1    1    2    0    0 -0.20168683195E+02  0.67336290138E+00 -0.47359588713E+01  0.20728205562E+02  0.00000000000E+00 0.  1.
         11    1    1    2    0    0  0.77236649617E+01 -0.44055416791E+02  0.14023877748E+03  0.14719867342E+03  0.00000000000E+00 0. -1.
</event>
<event>
 7    1  0.2840156E-009  0.1178341E+03  0.7561462E-02  0.1246713E+00
          2   -1    0    0  501    0  0.00000000000E+00  0.00000000000E+00  0.62456417398E+03  0.62456417398E+03  0.00000000000E+00 0. -1.
         -2   -1    0    0    0  501 -0.00000000000E+00 -0.00000000000E+00 -0.49047970449E+02  0.49047970449E+02  0.00000000000E+00 0.  1.
         25    2    1    2    0    0  0.63940113832E+02 -0.13578206626E+02  0.53395077022E+03  0.55229100551E+03  0.12509685805E+03 0.  0.
          5    1    3    3  502    0  0.57137027165E+02 -0.64512499919E+02  0.38873984099E+03  0.39819924522E+03  0.41800000000E+01 0.  1.
         -5    1    3    3    0  502  0.68030866670E+01  0.50934293292E+02  0.14521092923E+03  0.15409176029E+03  0.41800000000E+01 0.  1.
        -11    1    1    2    0    0 -0.56390043826E+02  0.40788200901E+02  0.56257374019E+02  0.89489700564E+02  0.00000000000E+00 0. -1.
         11    1    1    2    0    0 -0.75500700063E+01 -0.27209994275E+02 -0.14691940715E+02  0.31831438351E+02  0.00000000000E+00 0.  1.
</event>
<event>
 7    1  0.2840156E-009  0.1199634E+03  0.7561462E-02  0.1243157E+00
          2   -1    0    0  501    0  0.00000000000E+00  0.00000000000E+00  0.16284166325E+04  0.16284166325E+04  0.00000000000E+00 0. -1.
         -2   -1    0    0    0  501 -0.00000000000E+00 -0.00000000000E+00 -0.13750265566E+02  0.13750265566E+02  0.00000000000E+00 0.  1.
         25    2    1    2    0    0  0.76316679906E+02 -0.51272014856E+01  0.12613060827E+04  0.12697997014E+04  0.12509086153E+03 0.  0.
          5    1    3    3  502    0 -0.85375824303E+01  0.34809639058E+02  0.68049240608E+03  0.68144844884E+03  0.41800000000E+01 0.  1.
         -5    1    3    3    0  502  0.84854262336E+02 -0.39936840543E+02  0.58081367663E+03  0.58835125260E+03  0.41800000000E+01 0.  1.
        -11    1    1    2    0    0 -0.83226618032E+02 -0.18578040197E+02  0.20599919539E+03  0.22295174821E+03  0.00000000000E+00 0.  1.
         11    1    1    2    0    0  0.69099381260E+01  0.23705241682E+02  0.14736108880E+03  0.14941544840E+03  0.00000000000E+00 0. -1.
</event>
<event>
 7    1  0.2840156E-009  0.1162958E+03  0.7561462E-02  0.1249336E+00
          2   -1    0    0  501    0  0.00000000000E+00  0.00000000000E+00  0.71388139737E+03  0.71388139737E+03  0.00000000000E+00 0. -1.
         -2   -1    0    0    0  501 -0.00000000000E+00 -0.00000000000E+00 -0.38964253435E+02  0.38964253435E+02  0.00000000000E+00 0.  1.
         25    2    1    2    0    0 -0.86958018537E+02  0.39383663031E+02  0.54933711017E+03  0.57142851104E+03  0.12508602128E+03 0.  0.
          5    1    3    3  502    0 -0.94607130338E+02  0.22652394125E+02  0.20900208794E+03  0.23057099825E+03  0.41800000000E+01 0.  1.
         -5    1    3    3    0  502  0.76491118004E+01  0.16731268907E+02  0.34033502223E+03  0.34085751279E+03  0.41800000000E+01 0.  1.
        -11    1    1    2    0    0  0.82474690571E+02 -0.60229683108E+01  0.45126591337E+02  0.94205944493E+02  0.00000000000E+00 0.  1.
         11    1    1    2    0    0  0.44833279659E+01 -0.33360694720E+02  0.80453442427E+02  0.87211195269E+02  0.00000000000E+00 0. -1.
</event>
<event>
 7    1  0.2840156E-009  0.1648399E+03  0.7561462E-02  0.1183338E+00
         -2   -1    0    0    0  501 -0.00000000000E+00  0.00000000000E+00  0.14340713140E+03  0.14340713140E+03  0.00000000000E+00 0.  1.
          2   -1    0    0  501    0  0.00000000000E+00 -0.00000000000E+00 -0.27825153218E+03  0.27825153218E+03  0.00000000000E+00 0. -1.
         25    2    1    2    0    0  0.69751849588E+02 -0.14411462817E+03 -0.26597904653E+02  0.20491279426E+03  0.12508980032E+03 0.  0.
          5    1    3    3  502    0  0.58674320173E+02 -0.11878755505E+03  0.35145632657E+02  0.13713441208E+03  0.41800000000E+01 0.  1.
         -5    1    3    3    0  502  0.11077529414E+02 -0.25327073119E+02 -0.61743537309E+02  0.67778382175E+02  0.41800000000E+01 0.  1.
        -11    1    1    2    0    0 -0.11578885175E+02  0.86572684645E+02 -0.85355310367E+01  0.87759646755E+02  0.00000000000E+00 0.  1.
         11    1    1    2    0    0 -0.58172964412E+02  0.57541943522E+02 -0.99710965096E+02  0.12898622257E+03  0.00000000000E+00 0. -1.
</event>
<event>
 7    1  0.2840156E-009  0.1918558E+03  0.7561462E-02  0.1156798E+00
          3   -1    0    0  501    0  0.00000000000E+00  0.00000000000E+00  0.49345262473E+02  0.49345262473E+02  0.00000000000E+00 0. -1.
         -3   -1    0    0    0  501 -0.00000000000E+00 -0.00000000000E+00 -0.82679480502E+03  0.82679480502E+03  0.00000000000E+00 0.  1.
         25    2    1    2    0    0  0.14552600903E+03  0.87767073326E+02 -0.39806014043E+03  0.45053365089E+03  0.12509123358E+03 0.  0.
          5    1    3    3  502    0  0.17134867082E+02  0.71430772127E+02 -0.89220895858E+02  0.11564514488E+03  0.41800000000E+01 0. -1.
         -5    1    3    3    0  502  0.12839114195E+03  0.16336301199E+02 -0.30883924458E+03  0.33488850601E+03  0.41800000000E+01 0. -1.
        -11    1    1    2    0    0 -0.10826409592E+03 -0.30781292509E+02 -0.30324924555E+03  0.32346361057E+03  0.00000000000E+00 0.  1.
         11    1    1    2    0    0 -0.37261913104E+02 -0.56985780817E+02 -0.76140156559E+02  0.10214280603E+03  0.00000000000E+00 0. -1.
</event>
<event>
 7    1  0.2840156E-009  0.1265515E+03  0.7561462E-02  0.1232664E+00
          2   -1    0    0  501    0  0.00000000000E+00  0.00000000000E+00  0.12754210589E+04  0.12754210589E+04  0.00000000000E+00 0. -1.
         -2   -1    0    0    0  501 -0.00000000000E+00 -0.00000000000E+00 -0.22300716031E+02  0.22300716031E+02  0.00000000000E+00 0.  1.
         25    2    1    2    0    0  0.27499744645E+01  0.12544467190E+03  0.95424646162E+03  0.97055581805E+03  0.12509339856E+03 0.  0.
          5    1    3    3  502    0 -0.78772619147E+01  0.26504844055E+02  0.30206359492E+02  0.41163753078E+02  0.41800000000E+01 0. -1.
         -5    1    3    3    0  502  0.10627236379E+02  0.98939827849E+02  0.92404010213E+03  0.92939206497E+03  0.41800000000E+01 0. -1.
        -11    1    1    2    0    0 -0.30764079333E+01 -0.49193332583E+02  0.67708138038E+02  0.83748672903E+02  0.00000000000E+00 0.  1.
         11    1    1    2    0    0  0.32643346874E+00 -0.76251339322E+02  0.23116574323E+03  0.24341728400E+03  0.00000000000E+00 0. -1.
</event>
<event>
 7    1  0.2840156E-009  0.7270521E+02  0.7561462E-02  0.1351128E+00
         -4   -1    0    0    0  501 -0.00000000000E+00  0.00000000000E+00  0.17984662178E+03  0.17984662178E+03  0.00000000000E+00 0. -1.
          4   -1    0    0  501    0  0.00000000000E+00 -0.00000000000E+00 -0.81305053589E+02  0.81305053589E+02  0.00000000000E+00 0.  1.
         25    2    1    2    0    0 -0.47878963760E+01 -0.41608943538E+02  0.20369669341E+02  0.13347987638E+03  0.12509087031E+03 0.  0.
          5    1    3    3  502    0 -0.19446420436E+02 -0.64460529317E+01 -0.49530418962E+02  0.53762902347E+02  0.41800000000E+01 0. -1.
         -5    1    3    3    0  502  0.14658524060E+02 -0.35162890607E+02  0.69900088304E+02  0.79716974029E+02  0.41800000000E+01 0. -1.
        -11    1    1    2    0    0 -0.35338651777E+02  0.19270592307E+02  0.40222333643E+01  0.40451877565E+02  0.00000000000E+00 0.  1.
         11    1    1    2    0    0  0.40126548153E+02  0.22338351232E+02  0.74149665480E+02  0.87219921425E+02  0.00000000000E+00 0. -1.
</event>
<event>
 7    1  0.2840156E-009  0.1349706E+03  0.7561462E-02  0.1220261E+00
         -3   -1    0    0    0  501 -0.00000000000E+00  0.00000000000E+00  0.11245441410E+03  0.11245441410E+03  0.00000000000E+00 0.  1.
          3   -1    0    0  501    0  0.00000000000E+00 -0.00000000000E+00 -0.22574396050E+03  0.22574396050E+03  0.00000000000E+00 0. -1.
         25    2    1    2    0    0  0.11261611731E+03  0.13783124973E+02 -0.37379712895E+02  0.17296531052E+03  0.12508953312E+03 0.  0.
          5    1    3    3  502    0 -0.15486754082E+02 -0.60144243933E+01  0.23996590839E+02  0.29484260626E+02  0.41800000000E+01 0. -1.
         -5    1    3    3    0  502  0.12810287139E+03  0.19797549366E+02 -0.61376303734E+02  0.14348104989E+03  0.41800000000E+01 0. -1.
        -11    1    1    2    0    0 -0.41262060488E+02  0.17986147658E+02  0.13035127097E+02  0.46861217245E+02  0.00000000000E+00 0.  1.
         11    1    1    2    0    0 -0.71354056817E+02 -0.31769272631E+02 -0.88944960600E+02  0.11837184684E+03  0.00000000000E+00 0. -1.
</event>
<event>
 7    1  0.2840156E-009  0.9317341E+02  0.7561462E-02  0.1295344E+00
          2   -1    0    0  501    0  0.00000000000E+00  0.00000000000E+00  0.12047684885E+04  0.12047684885E+04  0.00000000000E+00 0.  1.
         -2   -1    0    0    0  501 -0.00000000000E+00 -0.00000000000E+00 -0.12713263482E+02  0.12713263482E+02  0.00000000000E+00 0. -1.
         25    2    1    2    0    0 -0.19831403621E+02 -0.32002888446E+02  0.85015075578E+03  0.86012850532E+03  0.12508904296E+03 0.  0.
          5    1    3    3  502    0  0.27718453531E+02 -0.19448759175E+02  0.64841656079E+02  0.73269909667E+02  0.41800000000E+01 0. -1.
         -5    1    3    3    0  502 -0.47549857152E+02 -0.12554129270E+02  0.78530909970E+03  0.78685859565E+03  0.41800000000E+01 0. -1.
        -11    1    1    2    0    0  0.49065528536E+02  0.48762177243E+02  0.20474262488E+03  0.21611274480E+03  0.00000000000E+00 0. -1.
         11    1    1    2    0    0 -0.29234124915E+02 -0.16759288798E+02  0.13716184435E+03  0.14124050186E+03  0.00000000000E+00 0.  1.
</event>
<event>
 7    1  0.2840156E-009  0.2268289E+03  0.7561462E-02  0.1128892E+00
          2   -1    0    0  501    0  0.00000000000E+00  0.00000000000E+00  0.10384931536E+03  0.10384931536E+03  0.00000000000E+00 0. -1.
         -2   -1    0    0    0  501 -0.00000000000E+00 -0.00000000000E+00 -0.74710976544E+03  0.74710976544E+03  0.00000000000E+00 0.  1.
         25    2    1    2    0    0 -0.71907808027E+02 -0.20110350121E+03 -0.11338383402E+03  0.27224404495E+03  0.12509026797E+03 0.  0.
          5    1    3    3  502    0 -0.87306319388E+02 -0.81958284886E+02 -0.89816974265E+02  0.14974683680E+03  0.41800000000E+01 0.  1.
         -5    1    3    3    0  502  0.15398511361E+02 -0.11914521633E+03 -0.23566859752E+02  0.12249720815E+03  0.41800000000E+01 0.  1.
        -11    1    1    2    0    0  0.33137306180E+02  0.99898249212E+02 -0.14699665703E+03  0.18079203089E+03  0.00000000000E+00 0. -1.
         11    1    1    2    0    0  0.38770501847E+02  0.10120525200E+03 -0.38287995903E+03  0.39792300495E+03  0.00000000000E+00 0.  1.
</event>
<event>
 7    1  0.2840156E-009  0.1871961E+03  0.7561462E-02  0.1161015E+00
          2   -1    0    0  501    0  0.00000000000E+00  0.00000000000E+00  0.34157311165E+04  0.34157311165E+04  0.00000000000E+00 0. -1.
         -2   -1    0    0    0  501 -0.00000000000E+00 -0.00000000000E+00 -0.14305197816E+02  0.14305197816E+02  0.00000000000E+00 0.  1.
         25    2    1    2    0    0  0.15362079595E+03 -0.45051208620E+01  0.26567937545E+04  0.26641734921E+04  0.12509075508E+03 0.  0.
          5    1    3    3  502    0  0.28414937641E+02  0.52807712673E+02  0.74302520566E+03  0.74545287701E+03  0.41800000000E+01 0.  1.
         -5    1    3    3    0  502  0.12520585831E+03 -0.57312833535E+02  0.19137685488E+04  0.19187206151E+04  0.41800000000E+01 0.  1.
        -11    1    1    2    0    0 -0.11177258035E+03 -0.36841142765E+02  0.43198696682E+03  0.44773107891E+03  0.00000000000E+00 0.  1.
         11    1    1    2    0    0 -0.41848215597E+02  0.41346263627E+02  0.31264519743E+03  0.31813174337E+03  0.00000000000E+00 0. -1.
</event>
<event>
 7    1  0.2840156E-009  0.1107448E+03  0.7561462E-02  0.1259197E+00
          1   -1    0    0  501    0  0.00000000000E+00  0.00000000000E+00  0.10241288011E+04  0.10241288011E+04  0.00000000000E+00 0. -1.
         -1   -1    0    0    0  501 -0.00000000000E+00 -0.00000000000E+00 -0.19330329698E+02  0.19330329698E+02  0.00000000000E+00 0.  1.
         25    2    1    2    0    0 -0.66793185700E+02 -0.36635526551E+02  0.71494267879E+03  0.72978937799E+03  0.12508401501E+03 0.  0.
          5    1    3    3  502    0 -0.80227748711E+02 -0.27670579389E+02  0.70554187842E+03  0.71063982947E+03  0.41800000000E+01 0.  1.
         -5    1    3    3    0  502  0.13434563011E+02 -0.89649471620E+01  0.94008003691E+01  0.19149548519E+02  0.41800000000E+01 0.  1.
        -11    1    1    2    0    0  0.71349901719E+01  0.56508258395E+02  0.14214070762E+03  0.15312763342E+03  0.00000000000E+00 0.  1.
         11    1    1    2    0    0  0.59658195528E+02 -0.19872731844E+02  0.14771508494E+03  0.16054211935E+03  0.00000000000E+00 0. -1.
</event>
<event>
 7    1  0.2840156E-009  0.1223782E+03  0.7561462E-02  0.1239224E+00
          1   -1    0    0  501    0  0.00000000000E+00  0.00000000000E+00  0.97447768081E+02  0.97447768081E+02  0.00000000000E+00 0. -1.
         -1   -1    0    0    0  501 -0.00000000000E+00 -0.00000000000E+00 -0.18192211365E+03  0.18192211365E+03  0.00000000000E+00 0.  1.
         25    2    1    2    0    0 -0.22265693537E+01 -0.69167470967E+02 -0.12818783550E+02  0.14352969912E+03  0.12508939470E+03 0.  0.
          5    1    3    3  502    0 -0.28796540907E+02 -0.92723678396E+02 -0.32804012368E+02  0.10256947368E+03  0.41800000000E+01 0.  1.
         -5    1    3    3    0  502  0.26569971553E+02  0.23556207430E+02  0.19985228818E+02  0.40960225435E+02  0.41800000000E+01 0.  1.
        -11    1    1    2    0    0  0.54652508004E+01  0.90287906000E+02 -0.43157852809E+02  0.10022163038E+03  0.00000000000E+00 0.  1.
         11    1    1    2    0    0 -0.32386814467E+01 -0.21120435033E+02 -0.28497709212E+02  0.35618552242E+02  0.00000000000E+00 0. -1.
</event>
<event>
 7    1  0.2840156E-009  0.9599578E+02  0.7561462E-02  0.1288949E+00
          4   -1    0    0  501    0  0.00000000000E+00  0.00000000000E+00  0.29106427604E+02  0.29106427604E+02  0.00000000000E+00 0. -1.
         -4   -1    0    0    0  501 -0.00000000000E+00 -0.00000000000E+00 -0.42431228653E+03  0.42431228653E+03  0.00000000000E+00 0.  1.
         25    2    1    2    0    0  0.16660660544E+02  0.35294007992E+02 -0.26578281943E+03  0.29632970671E+03  0.12509014096E+03 0.  0.
          5    1    3    3  502    0 -0.52456733435E+02  0.29968941951E+02 -0.14245222867E+03  0.15479003914E+03  0.41800000000E+01 0. -1.
         -5    1    3    3    0  502  0.69117393978E+02  0.53250660407E+01 -0.12333059076E+03  0.14153966757E+03  0.41800000000E+01 0. -1.
        -11    1    1    2    0    0  0.17134283075E+02 -0.10937207771E+02 -0.10865773662E+03  0.11054279668E+03  0.00000000000E+00 0.  1.
         11    1    1    2    0    0 -0.33794943618E+02 -0.24356800221E+02 -0.20765302877E+02  0.46546210745E+02  0.00000000000E+00 0. -1.
</event>
<event>
 7    1  0.2840156E-009  0.9308630E+02  0.7561462E-02  0.1295545E+00
         -1   -1    0    0    0  501 -0.00000000000E+00  0.00000000000E+00  0.16211233788E+03  0.16211233788E+03  0.00000000000E+00 0.  1.
          1   -1    0    0  501    0  0.00000000000E+00 -0.00000000000E+00 -0.98037223262E+02  0.98037223262E+02  0.00000000000E+00 0. -1.
         25    2    1    2    0    0  0.99720305675E+01 -0.30939831574E+02  0.80499277018E+02  0.15225946026E+03  0.12508435181E+03 0.  0.
          5    1    3    3  502    0 -0.54926726839E+02 -0.27800513057E+02  0.53888801590E+02  0.81922458363E+02  0.41800000000E+01 0.  1.
         -5    1    3    3    0  502  0.64898757406E+02 -0.31393185166E+01  0.26610475428E+02  0.70337001899E+02  0.41800000000E+01 0.  1.
        -11    1    1    2    0    0  0.87251435635E+01  0.38289163944E+02  0.35048187171E+02  0.52636143758E+02  0.00000000000E+00 0.  1.
         11    1    1    2    0    0 -0.18697174131E+02 -0.73493323697E+01 -0.51472349574E+02  0.55253957120E+02  0.00000000000E+00 0. -1.
</event>
<event>
 7    1  0.2840156E-009  0.6895814E+02  0.7561462E-02  0.1363672E+00
         -2   -1    0    0    0  501 -0.00000000000E+00  0.00000000000E+00  0.47156919144E+03  0.47156919144E+03  0.00000000000E+00 0.  1.
          2   -1    0    0  501    0  0.00000000000E+00 -0.00000000000E+00 -0.26409480114E+02  0.26409480114E+02  0.00000000000E+00 0. -1.
         25    2    1    2    0    0 -0.27861224540E+02 -0.94525105962E+01  0.25943958120E+03  0.28952189263E+03  0.12509369380E+03 0.  0.
          5    1    3    3  502    0 -0.34556176012E+02 -0.45205423658E+01  0.56386870486E+01  0.35550412030E+02  0.41800000000E+01 0.  1.
         -5    1    3    3    0  502  0.66949514720E+01 -0.49319682304E+01  0.25380089415E+03  0.25397148060E+03  0.41800000000E+01 0.  1.
        -11    1    1    2    0    0  0.27776846467E+02  0.47733877655E+02  0.93273032525E+02  0.10839711653E+03  0.00000000000E+00 0.  1.
         11    1    1    2    0    0  0.84378073594E-01 -0.38281367059E+02  0.92447097605E+02  0.10005966240E+03  0.00000000000E+00 0. -1.
</event>
<event>
 7    1  0.2840156E-009  0.1283478E+03  0.7561462E-02  0.1229928E+00
          3   -1    0    0  501    0  0.00000000000E+00  0.00000000000E+00  0.39614035601E+03  0.39614035601E+03  0.00000000000E+00 0. -1.
         -3   -1    0    0    0  501 -0.00000000000E+00 -0.00000000000E+00 -0.55556553158E+02  0.55556553158E+02  0.00000000000E+00 0.  1.
         25    2    1    2    0    0 -0.65488005279E+02  0.17310625292E+02  0.72687714780E+02  0.15975098200E+03  0.12509410772E+03 0.  0.
          5    1    3    3  502    0  0.17081294927E+02  0.49067391566E+02  0.15702474204E+02  0.54437300149E+02  0.41800000000E+01 0. -1.
         -5    1    3    3    0  502 -0.82569300206E+02 -0.31756766274E+02  0.56985240575E+02  0.10531368185E+03  0.41800000000E+01 0. -1.
        -11    1    1    2    0    0  0.57398616138E+02  0.32218241803E+02  0.15512787365E+03  0.16851490564E+03  0.00000000000E+00 0. -1.
         11    1    1    2    0    0  0.80893891412E+01 -0.49528867095E+02  0.11276821442E+03  0.12343102153E+03  0.00000000000E+00 0.  1.
</event>
<event>
 7    1  0.2840156E-009  0.1404053E+03  0.7561462E-02  0.1212785E+00
          3   -1    0    0  501    0  0.00000000000E+00  0.00000000000E+00  0.61977105682E+03  0.61977105682E+03  0.00000000000E+00 0. -1.
         -3   -1    0    0    0  501 -0.00000000000E+00 -0.00000000000E+00 -0.36434499712E+02  0.36434499712E+02  0.00000000000E+00 0.  1.
         25    2    1    2    0    0  0.45416794748E+02 -0.91615126813E+02  0.40203494993E+03  0.43328677693E+03  0.12509721573E+03 0.  0.
          5    1    3    3  502    0  0.66744502999E+00  0.25525561090E+02  0.25217477838E+02  0.36130227516E+02  0.41800000000E+01 0. -1.
         -5    1    3    3    0  502  0.44749349718E+02 -0.11714068790E+03  0.37681747210E+03  0.39715654941E+03  0.41800000000E+01 0. -1.
        -11    1    1    2    0    0  0.20577104903E+02  0.61222102948E+01  0.25316222052E+02  0.33193520514E+02  0.00000000000E+00 0. -1.
         11    1    1    2    0    0 -0.65993899651E+02  0.85492916519E+02  0.15598538512E+03  0.18972525909E+03  0.00000000000E+00 0.  1.
</event>
<event>
 7    1  0.2840156E-009  0.8665879E+02  0.7561462E-02  0.1311151E+00
          1   -1    0    0  501    0  0.00000000000E+00  0.00000000000E+00  0.55080954447E+03  0.55080954447E+03  0.00000000000E+00 0. -1.
         -1   -1    0    0    0  501 -0.00000000000E+00 -0.00000000000E+00 -0.22573778723E+02  0.22573778723E+02  0.00000000000E+00 0.  1.
         25    2    1    2    0    0 -0.20600361084E+02  0.16057816312E+02  0.28424235016E+03  0.31164104084E+03  0.12507676191E+03 0.  0.
          5    1    3    3  502    0  0.26380685856E+02  0.39819240839E+02  0.23360132841E+03  0.23847130973E+03  0.41800000000E+01 0. -1.
         -5    1    3    3    0  502 -0.46981046940E+02 -0.23761424527E+02  0.50641021744E+02  0.73169731107E+02  0.41800000000E+01 0. -1.
        -11    1    1    2    0    0  0.45172709062E+01 -0.41886467138E+02  0.21704975543E+03  0.22110060650E+03  0.00000000000E+00 0.  1.
         11    1    1    2    0    0  0.16083090178E+02  0.25828650827E+02  0.26943660169E+02  0.40641675857E+02  0.00000000000E+00 0. -1.
</event>
<event>
 7    1  0.2840156E-009  0.6478125E+02  0.7561462E-02  0.1378796E+00
         -2   -1    0    0    0  501 -0.00000000000E+00  0.00000000000E+00  0.49289272383E+02  0.49289272383E+02  0.00000000000E+00 0.  1.
          2   -1    0    0  501    0  0.00000000000E+00 -0.00000000000E+00 -0.24699821260E+03  0.24699821260E+03  0.00000000000E+00 0. -1.
         25    2    1    2    0    0 -0.12810860601E+02 -0.91656192783E+01 -0.96835534127E+02  0.15896897629E+03  0.12508352420E+03 0.  0.
          5    1    3    3  502    0  0.75097210128E+01  0.28690414496E+02 -0.10986762583E+03  0.11387670262E+03  0.41800000000E+01 0. -1.
         -5    1    3    3    0  502 -0.20320581613E+02 -0.37856033774E+02  0.13032091707E+02  0.45092273667E+02  0.41800000000E+01 0. -1.
        -11    1    1    2    0    0  0.27625855764E+01 -0.22784533326E+02 -0.10125473650E+03  0.10382335240E+03  0.00000000000E+00 0.  1.
         11    1    1    2    0    0  0.10048275024E+02  0.31950152605E+02  0.38133041872E+00  0.33495156296E+02  0.00000000000E+00 0. -1.
</event>
<event>
 7    1  0.2840156E-009  0.7437258E+02  0.7561462E-02  0.1345825E+00
         -1   -1    0    0    0  501 -0.00000000000E+00  0.00000000000E+00  0.72200253044E+03  0.72200253044E+03  0.00000000000E+00 0.  1.
          1   -1    0    0  501    0  0.00000000000E+00 -0.00000000000E+00 -0.18892506932E+02  0.18892506932E+02  0.00000000000E+00 0. -1.
         25    2    1    2    0    0  0.28990449788E+02  0.58695906030E+00  0.50124991924E+03  0.51743557523E+03  0.12508917729E+03 0.  0.
          5    1    3    3  502    0  0.53028979060E+02  0.32713062117E+01  0.84101630502E+02  0.99565710551E+02  0.41800000000E+01 0. -1.
         -5    1    3    3    0  502 -0.24038529273E+02 -0.26843471514E+01  0.41714828874E+03  0.41786986468E+03  0.41800000000E+01 0. -1.
        -11    1    1    2    0    0 -0.20071762243E+02 -0.32263005600E+02  0.17996700425E+03  0.18393449863E+03  0.00000000000E+00 0.  1.
         11    1    1    2    0    0 -0.89186875453E+01  0.31676046540E+02  0.21893100025E+02  0.39524963512E+02  0.00000000000E+00 0. -1.
</event>
<event>
 7    1  0.2840156E-009  0.1685832E+03  0.7561462E-02  0.1179333E+00
          1   -1    0    0  501    0  0.00000000000E+00  0.00000000000E+00  0.67681940607E+03  0.67681940607E+03  0.00000000000E+00 0. -1.
         -1   -1    0    0    0  501 -0.00000000000E+00 -0.00000000000E+00 -0.51167421263E+02  0.51167421263E+02  0.00000000000E+00 0.  1.
         25    2    1    2    0    0  0.13986304698E+03  0.52938297479E+02  0.29282009290E+03  0.35178819062E+03  0.12508872453E+03 0.  0.
          5    1    3    3  502    0  0.13870612658E+03  0.10803839546E+02  0.26978026689E+03  0.30357038279E+03  0.41800000000E+01 0.  1.
         -5    1    3    3    0  502  0.11569204016E+01  0.42134457934E+02  0.23039826006E+02  0.48217807836E+02  0.41800000000E+01 0.  1.
        -11    1    1    2    0    0 -0.95180623859E+02 -0.13713305432E+02  0.11256526589E+03  0.14804845487E+03  0.00000000000E+00 0.  1.
         11    1    1    2    0    0 -0.44682423125E+02 -0.39224992047E+02  0.22026662601E+03  0.22815018184E+03  0.00000000000E+00 0. -1.
</event>
<event>
 7    1  0.2840156E-009  0.5269749E+02  0.7561462E-02  0.1431312E+00
          2   -1    0    0  501    0  0.00000000000E+00  0.00000000000E+00  0.10716393562E+03  0.10716393562E+03  0.00000000000E+00 0. -1.
         -2   -1    0    0    0  501 -0.00000000000E+00 -0.00000000000E+00 -0.10976806178E+03  0.10976806178E+03  0.00000000000E+00 0.  1.
         25    2    1    2    0    0  0.14600837805E+02 -0.72202874958E+01 -0.12098424896E+02  0.12672309834E+03  0.12508818790E+03 0.  0.
          5    1    3    3  502    0 -0.21969409178E+02  0.13757092474E+02 -0.58359318414E+02  0.63993710462E+02  0.41800000000E+01 0. -1.
         -5    1    3    3    0  502  0.36570246983E+02 -0.20977379970E+02  0.46260893518E+02  0.62729387880E+02  0.41800000000E+01 0. -1.
        -11    1    1    2    0    0 -0.72238208393E+01  0.20415123877E+02 -0.36142453012E+02  0.42133570703E+02  0.00000000000E+00 0.  1.
         11    1    1    2    0    0 -0.73770169658E+01 -0.13194836381E+02  0.45636751747E+02  0.48075328355E+02  0.00000000000E+00 0. -1.
</event>
<event>
 7    1  0.2840156E-009  0.1551745E+03  0.7561462E-02  0.1194255E+00
         -1   -1    0    0    0  501 -0.00000000000E+00  0.00000000000E+00  0.13176760354E+02  0.13176760354E+02  0.00000000000E+00 0.  1.
          1   -1    0    0  501    0  0.00000000000E+00 -0.00000000000E+00 -0.22385402186E+04  0.22385402186E+04  0.00000000000E+00 0. -1.
         25    2    1    2    0    0  0.26333122825E+02  0.10913275356E+03 -0.16348541381E+04  0.16434717026E+04  0.12509113890E+03 0.  0.
          5    1    3    3  502    0 -0.45974221773E+02  0.21109413291E+02 -0.36523785113E+03  0.36874841924E+03  0.41800000000E+01 0. -1.
         -5    1    3    3    0  502  0.72307344598E+02  0.88023340271E+02 -0.12696162870E+04  0.12747232833E+04  0.41800000000E+01 0. -1.
        -11    1    1    2    0    0 -0.30775828105E+02  0.51706472333E+01 -0.11351167512E+03  0.11772335187E+03  0.00000000000E+00 0. -1.
         11    1    1    2    0    0  0.44427052800E+01 -0.11430340080E+03 -0.47699764506E+03  0.49052192455E+03  0.00000000000E+00 0.  1.
</event>
<event>
 7    1  0.2840156E-009  0.1080212E+03  0.7561462E-02  0.1264279E+00
          1   -1    0    0  501    0  0.00000000000E+00  0.00000000000E+00  0.21079874883E+03  0.21079874883E+03  0.00000000000E+00 0. -1.
         -1   -1    0    0    0  501 -0.00000000000E+00 -0.00000000000E+00 -0.61288235883E+02  0.61288235883E+02  0.00000000000E+00 0.  1.
         25    2    1    2    0    0  0.12080309214E+02  0.21493896050E+02  0.74592324426E+02  0.14771486567E+03  0.12509094787E+03 0.  0.
          5    1    3    3  502    0 -0.46381291756E+02  0.44294573360E+02  0.32328626694E+02  0.71943352424E+02  0.41800000000E+01 0. -1.
         -5    1    3    3    0  502  0.58461600970E+02 -0.22800677310E+02  0.42263697732E+02  0.75771513247E+02  0.41800000000E+01 0. -1.
        -11    1    1    2    0    0 -0.17443969978E+02  0.31291357348E+02  0.58918246015E+02  0.68955063968E+02  0.00000000000E+00 0. -1.
         11    1    1    2    0    0  0.53636607638E+01 -0.52785253398E+02  0.15999942507E+02  0.55417055076E+02  0.00000000000E+00 0.  1.
</event>
<event>
 7    1  0.2840156E-009  0.1088151E+03  0.7561462E-02  0.1262780E+00
         -1   -1    0    0    0  501 -0.00000000000E+00  0.00000000000E+00  0.29202094781E+02  0.29202094781E+02  0.00000000000E+00 0.  1.
          1   -1    0    0  501    0  0.00000000000E+00 -0.00000000000E+00 -0.49238824036E+03  0.49238824036E+03  0.00000000000E+00 0. -1.
         25    2    1    2    0    0  0.29943039221E+02  0.11599148081E+02 -0.16311394606E+03  0.20804745737E+03  0.12508580769E+03 0.  0.
          5    1    3    3  502    0 -0.18853241997E+02 -0.47784671991E+02 -0.75622354578E+02  0.91515203780E+02  0.41800000000E+01 0. -1.
         -5    1    3    3    0  502  0.48796281218E+02  0.59383820072E+02 -0.87491591481E+02  0.11653225359E+03  0.41800000000E+01 0. -1.
        -11    1    1    2    0    0 -0.48551485304E+02  0.19948679733E+02 -0.14513519112E+03  0.15433541477E+03  0.00000000000E+00 0.  1.
         11    1    1    2    0    0  0.18608446083E+02 -0.31547827814E+02 -0.15493700840E+03  0.15920746301E+03  0.00000000000E+00 0. -1.
</event>
<event>
 7    1  0.2840156E-009  0.1290499E+03  0.7561462E-02  0.1228872E+00
         -2   -1    0    0    0  501 -0.00000000000E+00  0.00000000000E+00  0.11409139102E+03  0.11409139102E+03  0.00000000000E+00 0.  1.
          2   -1    0    0  501    0  0.00000000000E+00 -0.00000000000E+00 -0.15347008190E+03  0.15347008190E+03  0.00000000000E+00 0. -1.
         25    2    1    2    0    0  0.50789885315E+02  0.50494655610E+02  0.52376244483E+01  0.14423578712E+03  0.12508879599E+03 0.  0.
          5    1    3    3  502    0  0.35148811479E+02 -0.39230483979E+02  0.48489854832E+01  0.53060860169E+02  0.41800000000E+01 0.  1.
         -5    1    3    3    0  502  0.15641073836E+02  0.89725139589E+02  0.38863896510E+00  0.91174926955E+02  0.41800000000E+01 0.  1.
        -11    1    1    2    0    0 -0.43343108643E+02  0.16723409443E+02 -0.10724412461E+02  0.47679246144E+02  0.00000000000E+00 0.  1.
         11    1    1    2    0    0 -0.74467766715E+01 -0.67218065052E+02 -0.33891902872E+02  0.75646439655E+02  0.00000000000E+00 0. -1.
</event>
<event>
 7    1  0.2840156E-009  0.1017881E+03  0.7561462E-02  0.1276580E+00
          2   -1    0    0  501    0  0.00000000000E+00  0.00000000000E+00  0.71755188499E+03  0.71755188499E+03  0.00000000000E+00 0. -1.
         -2   -1    0    0    0  501 -0.00000000000E+00 -0.00000000000E+00 -0.26578126047E+02  0.26578126047E+02  0.00000000000E+00 0.  1.
         25    2    1    2    0    0  0.17193043521E+02  0.73704152504E+02  0.29428402014E+03  0.32860076649E+03  0.12508987322E+03 0.  0.
          5    1    3    3  502    0  0.28575660589E+02  0.39198312334E+02  0.28726130837E+03  0.29135821209E+03  0.41800000000E+01 0. -1.
         -5    1    3    3    0  502 -0.11382617068E+02  0.34505840170E+02  0.70227117730E+01  0.37242554394E+02  0.41800000000E+01 0. -1.
        -11    1    1    2    0    0  0.24915756982E+02  0.81902177530E+01  0.14867949084E+03  0.15097504962E+03  0.00000000000E+00 0.  1.
         11    1    1    2    0    0 -0.42108800503E+02 -0.81894370257E+02  0.24801024796E+03  0.26455419493E+03  0.00000000000E+00 0. -1.
</event>
<event>
 7    1  0.2840156E-009  0.2956580E+03  0.7561462E-02  0.1087432E+00
          2   -1    0    0  501    0  0.00000000000E+00  0.00000000000E+00  0.15609066168E+04  0.15609066168E+04  0.00000000000E+00 0. -1.
         -2   -1    0    0    0  501 -0.00000000000E+00 -0.00000000000E+00 -0.60541509382E+02  0.60541509382E+02  0.00000000000E+00 0.  1.
         25    2    1    2    0    0  0.11277871003E+03  0.26275109269E+03  0.84065470625E+03  0.89672053124E+03  0.12510076685E+03 0.  0.
          5    1    3    3  502    0  0.31700850034E+02  0.19832884327E+03  0.45485018528E+03  0.49723780771E+03  0.41800000000E+01 0. -1.
         -5    1    3    3    0  502  0.81077859996E+02  0.64422249419E+02  0.38580452097E+03  0.39948272353E+03  0.41800000000E+01 0. -1.
        -11    1    1    2    0    0 -0.45132355134E+02 -0.13317215315E+03  0.43043065700E+03  0.45281596962E+03  0.00000000000E+00 0.  1.
         11    1    1    2    0    0 -0.67646354895E+02 -0.12957893953E+03  0.22927974420E+03  0.27191162535E+03  0.00000000000E+00 0. -1.
</event>
<event>
 7    1  0.2840156E-009  0.2248786E+03  0.7561462E-02  0.1130297E+00
         -2   -1    0    0    0  501 -0.00000000000E+00  0.00000000000E+00  0.12378908605E+03  0.12378908605E+03  0.00000000000E+00 0.  1.
          2   -1    0    0  501    0  0.00000000000E+00 -0.00000000000E+00 -0.43279973691E+03  0.43279973691E+03  0.00000000000E+00 0. -1.
         25    2    1    2    0    0  0.16709169754E+03 -0.11478870297E+03 -0.15151654894E+03  0.28231320478E+03  0.12508956502E+03 0.  0.
          5    1    3    3  502    0 -0.53548401494E+01 -0.55333863372E+02 -0.36128666785E+02  0.66432399568E+02  0.41800000000E+01 0. -1.
         -5    1    3    3    0  502  0.17244653769E+03 -0.59454839594E+02 -0.11538788216E+03  0.21588080522E+03  0.41800000000E+01 0. -1.
        -11    1    1    2    0    0 -0.16631870045E+03  0.94583525768E+02 -0.16505549678E+03  0.25268808932E+03  0.00000000000E+00 0. -1.
         11    1    1    2    0    0 -0.77299709261E+00  0.20205177198E+02  0.75613948674E+01  0.21587528864E+02  0.00000000000E+00 0.  1.
</event>
<event>
 7    1  0.2840156E-009  0.1220032E+03  0.7561462E-02  0.1239828E+00
          1   -1    0    0  501    0  0.00000000000E+00  0.00000000000E+00  0.45302729387E+03  0.45302729387E+03  0.00000000000E+00 0. -1.
         -1   -1    0    0    0  501 -0.00000000000E+00 -0.00000000000E+00 -0.58942327170E+02  0.58942327170E+02  0.00000000000E+00 0.  1.
         25    2    1    2    0    0  0.49069484737E+02  0.69311427545E+02  0.34694019721E+03  0.37845899480E+03  0.12510724195E+03 0.  0.
          5    1    3    3  502    0  0.43349689181E+02  0.10137811567E+03  0.30990451848E+03  0.32896048526E+03  0.41800000000E+01 0.  1.
         -5    1    3    3    0  502  0.57197955564E+01 -0.32066688121E+02  0.37035678736E+02  0.49498509550E+02  0.41800000000E+01 0.  1.
        -11    1    1    2    0    0 -0.59400718795E+02 -0.45341118899E+02 -0.53142129818E+01  0.74916642451E+02  0.00000000000E+00 0.  1.
         11    1    1    2    0    0  0.10331234058E+02 -0.23970308645E+02  0.52458982469E+02  0.58593983781E+02  0.00000000000E+00 0. -1.
</event>
<event>
 7    1  0.2840156E-009  0.2486898E+03  0.7561462E-02  0.1114136E+00
          2   -1    0    0  501    0  0.00000000000E+00  0.00000000000E+00  0.57040098015E+03  0.57040098015E+03  0.00000000000E+00 0. -1.
         -2   -1    0    0    0  501 -0.00000000000E+00 -0.00000000000E+00 -0.11394713328E+03  0.11394713328E+03  0.00000000000E+00 0.  1.
         25    2    1    2    0    0  0.17201866278E+03 -0.14914725659E+03  0.29862179087E+03  0.39580040411E+03  0.12509061285E+03 0.  0.
          5    1    3    3  502    0  0.51739497630E+01  0.18310937352E+02  0.77593192943E+01  0.20969969451E+02  0.41800000000E+01 0.  1.
         -5    1    3    3    0  502  0.16684471301E+03 -0.16745819394E+03  0.29086247157E+03  0.37483043466E+03  0.41800000000E+01 0.  1.
        -11    1    1    2    0    0 -0.16323793643E+03  0.99752914052E+02  0.12195595027E+03  0.22687115629E+03  0.00000000000E+00 0. -1.
         11    1    1    2    0    0 -0.87807263444E+01  0.49394342540E+02  0.35876105729E+02  0.61676553020E+02  0.00000000000E+00 0.  1.
</event>
<event>
 7    1  0.2840156E-009  0.1633996E+03  0.7561462E-02  0.1184911E+00
          1   -1    0    0  501    0  0.00000000000E+00  0.00000000000E+00  0.88224792353E+03  0.88224792353E+03  0.00000000000E+00 0. -1.
         -1   -1    0    0    0  501 -0.00000000000E+00 -0.00000000000E+00 -0.55617431295E+02  0.55617431295E+02  0.00000000000E+00 0.  1.
         25    2    1    2    0    0 -0.79442279817E+02 -0.94176725112E+02  0.74423756899E+03  0.76466864106E+03  0.12509292605E+03 0.  0.
          5    1    3    3  502    0 -0.91481454836E+02 -0.11750042148E+03  0.63655836759E+03  0.65375777883E+03  0.41800000000E+01 0.  1.
         -5    1    3    3    0  502  0.12039175019E+02  0.23323696365E+02  0.10767920139E+03  0.11091086223E+03  0.41800000000E+01 0.  1.
        -11    1    1    2    0    0  0.96568059147E+02  0.61882408064E+02  0.71070751969E+02  0.13492914533E+03  0.00000000000E+00 0.  1.
         11    1    1    2    0    0 -0.17125779331E+02  0.32294317048E+02  0.11322171277E+02  0.38267568432E+02  0.00000000000E+00 0. -1.
</event>
<event>
 7    1  0.2840156E-009  0.8431704E+02  0.7561462E-02  0.1317228E+00
          2   -1    0    0  501    0  0.00000000000E+00  0.00000000000E+00  0.29553995489E+03  0.29553995489E+03  0.00000000000E+00 0. -1.
         -2   -1    0    0    0  501 -0.00000000000E+00 -0.00000000000E+00 -0.75851652192E+02  0.75851652192E+02  0.00000000000E+00 0.  1.
         25    2    1    2    0    0  0.63178986119E+02  0.22050442638E+02  0.21646774959E+03  0.25881304964E+03  0.12509237285E+03 0.  0.
          5    1    3    3  502    0  0.64640847675E+01  0.17103899674E+02 -0.12694333126E+02  0.22648317144E+02  0.41800000000E+01 0. -1.
         -5    1    3    3    0  502  0.56714901352E+02  0.49465429640E+01  0.22916208271E+03  0.23616473250E+03  0.41800000000E+01 0. -1.
        -11    1    1    2    0    0 -0.45800176168E+02  0.17941916322E+02  0.33480691362E+02  0.59502312496E+02  0.00000000000E+00 0. -1.
         11    1    1    2    0    0 -0.17378809951E+02 -0.39992358960E+02 -0.30260138250E+02  0.53076244945E+02  0.00000000000E+00 0.  1.
</event>
<event>
 7    1  0.2840156E-009  0.1000399E+03  0.7561462E-02  0.1280212E+00
         -3   -1    0    0    0  501 -0.00000000000E+00  0.00000000000E+00  0.57431034649E+02  0.57431034649E+02  0.00000000000E+00 0.  1.
          3   -1    0    0  501    0  0.00000000000E+00 -0.00000000000E+00 -0.24219051172E+03  0.24219051172E+03  0.00000000000E+00 0. -1.
         25    2    1    2    0    0  0.17015127827E+02  0.23306334729E+02 -0.13893050371E+03  0.18916409401E+03  0.12509464332E+03 0.  0.
          5    1    3    3  502    0 -0.16844089217E+01  0.62164289851E+02 -0.24788204248E+02  0.67075805145E+02  0.41800000000E+01 0.  1.
         -5    1    3    3    0  502  0.18699536748E+02 -0.38857955122E+02 -0.11414229946E+03  0.12208828886E+03  0.41800000000E+01 0.  1.
        -11    1    1    2    0    0 -0.50664841224E+02  0.43766937682E+01 -0.43333983216E+02  0.66812541382E+02  0.00000000000E+00 0. -1.
         11    1    1    2    0    0  0.33649713398E+02 -0.27683028497E+02 -0.24949901442E+01  0.43644910978E+02  0.00000000000E+00 0.  1.
</event>
<event>
 7    1  0.2840156E-009  0.1027147E+03  0.7561462E-02  0.1274689E+00
          2   -1    0    0  501    0  0.00000000000E+00  0.00000000000E+00  0.56390371670E+02  0.56390371670E+02  0.00000000000E+00 0. -1.
         -2   -1    0    0    0  501 -0.00000000000E+00 -0.00000000000E+00 -0.37934596340E+03  0.37934596340E+03  0.00000000000E+00 0.  1.
         25    2    1    2    0    0 -0.22309684734E+02  0.83192238355E+02 -0.24610913558E+03  0.28919919099E+03  0.12509114636E+03 0.  0.
          5    1    3    3  502    0  0.14974817684E+02 -0.96405600070E+01  0.49151119606E+01  0.18942446714E+02  0.41800000000E+01 0.  1.
         -5    1    3    3    0  502 -0.37284502419E+02  0.92832798362E+02 -0.25102424754E+03  0.27025674427E+03  0.41800000000E+01 0.  1.
        -11    1    1    2    0    0  0.14539693868E+01 -0.27508238223E+02  0.19197701245E+02  0.33576315018E+02  0.00000000000E+00 0. -1.
         11    1    1    2    0    0  0.20855715347E+02 -0.55684000132E+02 -0.96044157401E+02  0.11296082907E+03  0.00000000000E+00 0.  1.
</event>
<event>
 7    1  0.2840156E-009  0.8776038E+02  0.7561462E-02  0.1308368E+00
         -1   -1    0    0    0  501 -0.00000000000E+00  0.00000000000E+00  0.10362295200E+04  0.10362295200E+04  0.00000000000E+00 0.  1.
          1   -1    0    0  501    0  0.00000000000E+00 -0.00000000000E+00 -0.14275888700E+02  0.14275888700E+02  0.00000000000E+00 0. -1.
         25    2    1    2    0    0 -0.14848773988E+02 -0.31718012333E+02  0.76458883421E+03  0.77554449820E+03  0.12508662960E+03 0.  0.
          5    1    3    3  502    0 -0.35228593989E+01  0.28893710107E+02  0.58272370020E+03  0.58346520050E+03  0.41800000000E+01 0.  1.
         -5    1    3    3    0  502 -0.11325914589E+02 -0.60611722440E+02  0.18186513401E+03  0.19207929770E+03  0.41800000000E+01 0.  1.
        -11    1    1    2    0    0 -0.41516976437E+01  0.54493667962E+02  0.92413263354E+02  0.10736390308E+03  0.00000000000E+00 0. -1.
         11    1    1    2    0    0  0.19000471631E+02 -0.22775655629E+02  0.16495153378E+03  0.16759700746E+03  0.00000000000E+00 0.  1.
</event>
<event>
 7    1  0.2840156E-009  0.1317853E+03  0.7561462E-02  0.1224831E+00
         -1   -1    0    0    0  501 -0.00000000000E+00  0.00000000000E+00  0.43536766492E+02  0.43536766492E+02  0.00000000000E+00 0.  1.
          1   -1    0    0  501    0  0.00000000000E+00 -0.00000000000E+00 -0.56469449927E+03  0.56469449927E+03  0.00000000000E+00 0. -1.
         25    2    1    2    0    0  0.91541998868E+02  0.16079533717E+01 -0.41203188162E+03  0.44022799738E+03  0.12509154704E+03 0.  0.
          5    1    3    3  502    0 -0.14234613755E+02 -0.25553136053E+02 -0.27137746667E+02  0.40118782198E+02  0.41800000000E+01 0. -1.
         -5    1    3    3    0  502  0.10577661262E+03  0.27161089424E+02 -0.38489413495E+03  0.40010921519E+03  0.41800000000E+01 0. -1.
        -11    1    1    2    0    0 -0.76409030529E+02 -0.37989161276E+02 -0.56827408383E+02  0.10252253735E+03  0.00000000000E+00 0. -1.
         11    1    1    2    0    0 -0.15132968338E+02  0.36381207904E+02 -0.52298442776E+02  0.65480731029E+02  0.00000000000E+00 0.  1.
</event>
<event>
 7    1  0.2840156E-009  0.9057164E+02  0.7561462E-02  0.1301473E+00
          1   -1    0    0  501    0  0.00000000000E+00  0.00000000000E+00  0.70694263784E+03  0.70694263784E+03  0.00000000000E+00 0. -1.
         -1   -1    0    0    0  501 -0.00000000000E+00 -0.00000000000E+00 -0.18746636672E+02  0.18746636672E+02  0.00000000000E+00 0.  1.
         25    2    1    2    0    0  0.54398506805E+01 -0.15445797248E+02  0.51271768234E+03  0.52800589267E+03  0.12507052525E+03 0.  0.
          5    1    3    3  502    0 -0.13584375020E+02 -0.62634219832E+02  0.17424628748E+03  0.18570627841E+03  0.41800000000E+01 0.  1.
         -5    1    3    3    0  502  0.19024225701E+02  0.47188422584E+02  0.33847139486E+03  0.34229961426E+03  0.41800000000E+01 0.  1.
        -11    1    1    2    0    0  0.12125122369E+02  0.36491815227E+02  0.16315983707E+03  0.16762996034E+03  0.00000000000E+00 0. -1.
         11    1    1    2    0    0 -0.17564973049E+02 -0.21046017979E+02  0.12318481762E+02  0.30053421501E+02  0.00000000000E+00 0.  1.
</event>
<event>
 7    1  0.2840156E-009  0.2277683E+03  0.7561462E-02  0.1128220E+00
          1   -1    0    0  501    0  0.00000000000E+00  0.00000000000E+00  0.38758041759E+04  0.38758041759E+04  0.00000000000E+00 0. -1.
         -1   -1    0    0    0  501 -0.00000000000E+00 -0.00000000000E+00 -0.22044154867E+02  0.22044154867E+02  0.00000000000E+00 0.  1.
         25    2    1    2    0    0 -0.73242749671E+01 -0.21332139563E+03  0.30882949648E+04  0.30981890197E+04  0.12509895783E+03 0.  0.
          5    1    3    3  502    0  0.32094710008E+02 -0.15300142459E+02  0.23008887374E+03  0.23285731036E+03  0.41800000000E+01 0.  1.
         -5    1    3    3    0  502 -0.39418984975E+02 -0.19802125317E+03  0.28582060911E+04  0.28653317094E+04  0.41800000000E+01 0.  1.
        -11    1    1    2    0    0  0.20561100300E+02  0.51912710071E+02  0.33728237998E+03  0.34187291814E+03  0.00000000000E+00 0. -1.
         11    1    1    2    0    0 -0.13236825333E+02  0.16140868556E+03  0.42818267627E+03  0.45778639296E+03  0.00000000000E+00 0.  1.
</event>
<event>
 7    1  0.2840156E-009  0.1267829E+03  0.7561462E-02  0.1232309E+00
         -3   -1    0    0    0  501 -0.00000000000E+00  0.00000000000E+00  0.83854758847E+02  0.83854758847E+02  0.00000000000E+00 0.  1.
          3   -1    0    0  501    0  0.00000000000E+00 -0.00000000000E+00 -0.26850833047E+03  0.26850833047E+03  0.00000000000E+00 0. -1.
         25    2    1    2    0    0  0.93531237372E+02 -0.57077020559E+01 -0.15733362188E+03  0.22177242154E+03  0.12509383739E+03 0.  0.
          5    1    3    3  502    0  0.39364373160E+02 -0.64850882094E+02 -0.75125306629E+02  0.10684790535E+03  0.41800000000E+01 0.  1.
         -5    1    3    3    0  502  0.54166864212E+02  0.59143180038E+02 -0.82208315251E+02  0.11492451618E+03  0.41800000000E+01 0.  1.
        -11    1    1    2    0    0 -0.82747786763E+02 -0.38959038392E+01  0.16487882446E+02  0.84464338916E+02  0.00000000000E+00 0.  1.
         11    1    1    2    0    0 -0.10783450608E+02  0.96036058951E+01 -0.43807832185E+02  0.46126328858E+02  0.00000000000E+00 0. -1.
</event>
<event>
 7    1  0.2840156E-009  0.1044945E+03  0.7561462E-02  0.1271119E+00
         -1   -1    0    0    0  501 -0.00000000000E+00  0.00000000000E+00  0.10405446548E+03  0.10405446548E+03  0.00000000000E+00 0.  1.
          1   -1    0    0  501    0  0.00000000000E+00 -0.00000000000E+00 -0.16574265112E+03  0.16574265112E+03  0.00000000000E+00 0. -1.
         25    2    1    2    0    0  0.20729476797E+02  0.25029909339E+01  0.38537615526E+02  0.13254856558E+03  0.12509195919E+03 0.  0.
          5    1    3    3  502    0 -0.33423674264E+02 -0.43935770211E+02  0.16868644353E+02  0.57875015919E+02  0.41800000000E+01 0. -1.
         -5    1    3    3    0  502  0.54153151061E+02  0.46438761145E+02  0.21668971173E+02  0.74673549656E+02  0.41800000000E+01 0. -1.
        -11    1    1    2    0    0 -0.31976993203E+01 -0.40339232199E+02 -0.16476320701E+02  0.43691510379E+02  0.00000000000E+00 0.  1.
         11    1    1    2    0    0 -0.17531777477E+02  0.37836241266E+02 -0.83749480472E+02  0.93557040643E+02  0.00000000000E+00 0. -1.
</event>
<event>
 7    1  0.2840156E-009  0.9731053E+02  0.7561462E-02  0.1286055E+00
          1   -1    0    0  501    0  0.00000000000E+00  0.00000000000E+00  0.10302290575E+04  0.10302290575E+04  0.00000000000E+00 0. -1.
         -1   -1    0    0    0  501 -0.00000000000E+00 -0.00000000000E+00 -0.16981795427E+02  0.16981795427E+02  0.00000000000E+00 0.  1.
         25    2    1    2    0    0  0.29327462925E+02 -0.19953157492E+02  0.82499342831E+03  0.83517652874E+03  0.12508976307E+03 0.  0.
          5    1    3    3  502    0 -0.20800418582E+02 -0.48881995771E+02  0.18397049196E+03  0.19153255921E+03  0.41800000000E+01 0.  1.
         -5    1    3    3    0  502  0.50127881507E+02  0.28928838278E+02  0.64102293635E+03  0.64364396953E+03  0.41800000000E+01 0.  1.
        -11    1    1    2    0    0 -0.52850104239E+02  0.61301652854E+00  0.16629004970E+03  0.17448750653E+03  0.00000000000E+00 0. -1.
         11    1    1    2    0    0  0.23522641315E+02  0.19340140964E+02  0.21963784104E+02  0.37546817696E+02  0.00000000000E+00 0.  1.
</event>
<event>
 7    1  0.2840156E-009  0.2407439E+03  0.7561462E-02  0.1119298E+00
          2   -1    0    0  501    0  0.00000000000E+00  0.00000000000E+00  0.82975894794E+03  0.82975894794E+03  0.00000000000E+00 0. -1.
         -2   -1    0    0    0  501 -0.00000000000E+00 -0.00000000000E+00 -0.90946281941E+02  0.90946281941E+02  0.00000000000E+00 0.  1.
         25    2    1    2    0    0 -0.15635391712E+03  0.17123263070E+03  0.21254478422E+03  0.33851179383E+03  0.12509111895E+03 0.  0.
          5    1    3    3  502    0 -0.64690098802E+02  0.81930835007E+02  0.17716014933E+03  0.20567124621E+03  0.41800000000E+01 0. -1.
         -5    1    3    3    0  502 -0.91663818322E+02  0.89301795694E+02  0.35384634895E+02  0.13284054761E+03  0.41800000000E+01 0. -1.
        -11    1    1    2    0    0  0.73988283004E+02 -0.14456188763E+03  0.34095772289E+03  0.37765668825E+03  0.00000000000E+00 0.  1.
         11    1    1    2    0    0  0.82365634119E+02 -0.26670743068E+02  0.18531015888E+03  0.20453674781E+03  0.00000000000E+00 0. -1.
</event>
<event>
 7    1  0.2840156E-009  0.1453697E+03  0.7561462E-02  0.1206281E+00
         -2   -1    0    0    0  501 -0.00000000000E+00  0.00000000000E+00  0.35288048648E+03  0.35288048648E+03  0.00000000000E+00 0.  1.
          2   -1    0    0  501    0  0.00000000000E+00 -0.00000000000E+00 -0.82751809077E+02  0.82751809077E+02  0.00000000000E+00 0. -1.
         25    2    1    2    0    0 -0.96270090831E+02 -0.72190248147E+02  0.20934874859E+03  0.27194287297E+03  0.12508663120E+03 0.  0.
          5    1    3    3  502    0 -0.11799547840E+03 -0.55475577266E+02  0.11601649747E+03  0.17457884374E+03  0.41800000000E+01 0.  1.
         -5    1    3    3    0  502  0.21725387570E+02 -0.16714670881E+02  0.93332251127E+02  0.97364029232E+02  0.41800000000E+01 0.  1.
        -11    1    1    2    0    0  0.61417802008E+02  0.11371869696E+02  0.69046554136E+02  0.93106887296E+02  0.00000000000E+00 0.  1.
         11    1    1    2    0    0  0.34852288823E+02  0.60818378452E+02 -0.82666253293E+01  0.70582535290E+02  0.00000000000E+00 0. -1.
</event>
<event>
 7    1  0.2840156E-009  0.1132974E+03  0.7561462E-02  0.1254583E+00
         -2   -1    0    0    0  501 -0.00000000000E+00  0.00000000000E+00  0.57341181186E+02  0.57341181186E+02  0.00000000000E+00 0.  1.
          2   -1    0    0  501    0  0.00000000000E+00 -0.00000000000E+00 -0.28050775669E+03  0.28050775669E+03  0.00000000000E+00 0. -1.
         25    2    1    2    0    0 -0.64685448270E+02  0.87095866039E+01 -0.14805527925E+03  0.20451636411E+03  0.12508602384E+03 0.  0.
          5    1    3    3  502    0 -0.45450287629E+02  0.66137861194E+02 -0.82447454011E+02  0.11513036264E+03  0.41800000000E+01 0. -1.
         -5    1    3    3    0  502 -0.19235160641E+02 -0.57428274590E+02 -0.65607825236E+02  0.89386001474E+02  0.41800000000E+01 0. -1.
        -11    1    1    2    0    0 -0.80345094978E+01  0.75365217396E+01 -0.55085015318E+02  0.56175719091E+02  0.00000000000E+00 0. -1.
         11    1    1    2    0    0  0.72719957768E+02 -0.16246108344E+02 -0.20026280935E+02  0.77156854668E+02  0.00000000000E+00 0.  1.
</event>
<event>
 7    1  0.2840156E-009  0.9244287E+02  0.7561462E-02  0.1297041E+00
          3   -1    0    0  501    0  0.00000000000E+00  0.00000000000E+00  0.53440688723E+02  0.53440688723E+02  0.00000000000E+00 0. -1.
         -3   -1    0    0    0  501 -0.00000000000E+00 -0.00000000000E+00 -0.24690935762E+03  0.24690935762E+03  0.00000000000E+00 0.  1.
         25    2    1    2    0    0  0.30526381670E+02  0.23171814355E+02 -0.10361902296E+03  0.16689294683E+03  0.12509021074E+03 0.  0.
          5    1    3    3  502    0  0.57296018275E+02 -0.22158519210E+02 -0.14430426716E+02  0.63241942561E+02  0.41800000000E+01 0. -1.
         -5    1    3    3    0  502 -0.26769636604E+02  0.45330333565E+02 -0.89188596246E+02  0.10365100427E+03  0.41800000000E+01 0. -1.
        -11    1    1    2    0    0 -0.19261338440E+02 -0.43325176285E+02 -0.98085409372E+02  0.10894410305E+03  0.00000000000E+00 0.  1.
         11    1    1    2    0    0 -0.11265043231E+02  0.20153361930E+02  0.82357634374E+01  0.24512996460E+02  0.00000000000E+00 0. -1.
</event>
<event>
 7    1  0.2840156E-009  0.2297378E+03  0.7561462E-02  0.1126824E+00
         -2   -1    0    0    0  501 -0.00000000000E+00  0.00000000000E+00  0.35292382723E+03  0.35292382723E+03  0.00000000000E+00 0.  1.
          2   -1    0    0  501    0  0.00000000000E+00 -0.00000000000E+00 -0.18590469760E+03  0.18590469760E+03  0.00000000000E+00 0. -1.
         25    2    1    2    0    0  0.62297076591E+02 -0.20187836043E+03 -0.15004892657E+02  0.24598467231E+03  0.12509002377E+03 0.  0.
          5    1    3    3  502    0  0.30048082695E+02  0.77101655080E+01  0.89077975411E+01  0.32544664429E+02  0.41800000000E+01 0. -1.
         -5    1    3    3    0  502  0.32248993896E+02 -0.20958852594E+03 -0.23912690199E+02  0.21344000788E+03  0.41800000000E+01 0. -1.
        -11    1    1    2    0    0 -0.48643629270E+02  0.81392968780E+02  0.12997914849E+03  0.16089001547E+03  0.00000000000E+00 0. -1.
         11    1    1    2    0    0 -0.13653447321E+02  0.12048539165E+03  0.52044873800E+02  0.13195383706E+03  0.00000000000E+00 0.  1.
</event>
<event>
 7    1  0.2840156E-009  0.7426577E+02  0.7561462E-02  0.1346160E+00
          1   -1    0    0  501    0  0.00000000000E+00  0.00000000000E+00  0.67004254586E+02  0.67004254586E+02  0.00000000000E+00 0. -1.
         -1   -1    0    0    0  501 -0.00000000000E+00 -0.00000000000E+00 -0.18161282388E+03  0.18161282388E+03  0.00000000000E+00 0.  1.
         25    2    1    2    0    0 -0.10790317434E+02 -0.18309170772E+02 -0.76441135001E+02  0.14812879425E+03  0.12508891191E+03 0.  0.
          5    1    3    3  502    0 -0.43068907390E+02 -0.21826637683E+02  0.15218903885E+02  0.50797837865E+02  0.41800000000E+01 0.  1.
         -5    1    3    3    0  502  0.32278589956E+02  0.35174669115E+01 -0.91660038886E+02  0.97330956389E+02  0.41800000000E+01 0.  1.
        -11    1    1    2    0    0  0.68976153266E+01 -0.23933580551E+02 -0.50501549085E+02  0.56309855577E+02  0.00000000000E+00 0.  1.
         11    1    1    2    0    0  0.38927021072E+01  0.42242751322E+02  0.12334114791E+02  0.44178428635E+02  0.00000000000E+00 0. -1.
</event>
<event>
 7    1  0.3132536E-009  0.7886999E+02  0.7561462E-02  0.1332289E+00
         -1   -1    0    0    0  501 -0.00000000000E+00  0.00000000000E+00  0.57245730676E+02  0.57245730676E+02  0.00000000000E+00 0.  1.
          1   -1    0    0  501    0  0.00000000000E+00 -0.00000000000E+00 -0.26899909405E+03  0.26899909405E+03  0.00000000000E+00 0. -1.
         25    2    1    2    0    0  0.50280249604E+01 -0.41135057971E+02 -0.60629805737E+02  0.14505557269E+03  0.12509105401E+03 0.  0.
          5    1    3    3  502    0 -0.36401481937E+02 -0.30971713311E+02  0.21376240840E+02  0.52523623114E+02  0.41800000000E+01 0.  1.
         -5    1    3    3    0  502  0.41429506898E+02 -0.10163344661E+02 -0.82006046577E+02  0.92531949572E+02  0.41800000000E+01 0.  1.
        -11    1    1    2    0    0 -0.28787454755E+02  0.19529353127E+02 -0.96271112095E+01  0.36094244071E+02  0.00000000000E+00 0.  1.
         11    1    1    2    0    0  0.23759429794E+02  0.21605704844E+02 -0.14149644643E+03  0.14509500797E+03  0.00000000000E+00 0. -1.
</event>
<event>
 7    1  0.2884472E-009  0.1397499E+03  0.7561462E-02  0.1213666E+00
          1   -1    0    0  501    0  0.00000000000E+00  0.00000000000E+00  0.15990953708E+04  0.15990953708E+04  0.00000000000E+00 0. -1.
         -1   -1    0    0    0  501 -0.00000000000E+00 -0.00000000000E+00 -0.15785872046E+02  0.15785872046E+02  0.00000000000E+00 0.  1.
         25    2    1    2    0    0 -0.65233536834E+02  0.78352874069E+02  0.11237720747E+04  0.11352998213E+04  0.12508965201E+03 0.  0.
          5    1    3    3  502    0 -0.12182797533E+02 -0.23906049820E+02  0.67521865220E+02  0.72777705766E+02  0.41800000000E+01 0. -1.
         -5    1    3    3    0  502 -0.53050739301E+02  0.10225892389E+03  0.10562502095E+04  0.10625221155E+04  0.41800000000E+01 0. -1.
        -11    1    1    2    0    0 -0.11631408486E+02 -0.55747611091E+02  0.20133943477E+03  0.20923827040E+03  0.00000000000E+00 0. -1.
         11    1    1    2    0    0  0.76864945320E+02 -0.22605262978E+02  0.25819798931E+03  0.27034315123E+03  0.00000000000E+00 0.  1.
</event>
<event>
 7    1  0.3155612E-009  0.1702107E+03  0.7561462E-02  0.1177628E+00
         -2   -1    0    0    0  501 -0.00000000000E+00  0.00000000000E+00  0.74444556688E+02  0.74444556688E+02  0.00000000000E+00 0. -1.
          2   -1    0    0  501    0  0.00000000000E+00 -0.00000000000E+00 -0.51763137174E+03  0.51763137174E+03  0.00000000000E+00 0.  1.
         25    2    1    2    0    0  0.12473018874E+03  0.10334048069E+03 -0.26418789258E+03  0.33418768986E+03  0.12509714040E+03 0.  0.
          5    1    3    3  502    0  0.56012076407E+02  0.89362796581E+02 -0.67390650476E+02  0.12522792934E+03  0.41800000000E+01 0. -1.
         -5    1    3    3    0  502  0.68718112331E+02  0.13977684113E+02 -0.19679724211E+03  0.20895976052E+03  0.41800000000E+01 0. -1.
        -11    1    1    2    0    0 -0.50618640435E+02 -0.23891404531E+02 -0.12413817531E+03  0.13617390550E+03  0.00000000000E+00 0.  1.
         11    1    1    2    0    0 -0.74111548302E+02 -0.79449076163E+02 -0.54860747163E+02  0.12171433307E+03  0.00000000000E+00 0. -1.
</event>
<event>
 7    1  0.2840156E-009  0.6912624E+02  0.7561462E-02  0.1363090E+00
         -4   -1    0    0    0  501 -0.00000000000E+00  0.00000000000E+00  0.20322960398E+03  0.20322960398E+03  0.00000000000E+00 0.  1.
          4   -1    0    0  501    0  0.00000000000E+00 -0.00000000000E+00 -0.59597499584E+02  0.59597499584E+02  0.00000000000E+00 0. -1.
         25    2    1    2    0    0 -0.33899078386E+01  0.25436590634E+02  0.78165271881E+02  0.14972435321E+03  0.12509620537E+03 0.  0.
          5    1    3    3  502    0 -0.14392086151E+01  0.35420949832E+02  0.11020901554E+03  0.11584564952E+03  0.41800000000E+01 0.  1.
         -5    1    3    3    0  502 -0.19506992235E+01 -0.99843591979E+01 -0.32043743655E+02  0.33878703686E+02  0.41800000000E+01 0.  1.
        -11    1    1    2    0    0  0.21877289056E+02 -0.53586567231E+02  0.47833240782E+02  0.75087648037E+02  0.00000000000E+00 0.  1.
         11    1    1    2    0    0 -0.18487381217E+02  0.28149976598E+02  0.17633591732E+02  0.38015102316E+02  0.00000000000E+00 0. -1.
</event>
<event>
 7    1  0.2840156E-009  0.1076387E+03  0.7561462E-02  0.1265006E+00
         -2   -1    0    0    0  501 -0.00000000000E+00  0.00000000000E+00  0.17223667548E+02  0.17223667548E+02  0.00000000000E+00 0.  1.
          2   -1    0    0  501    0  0.00000000000E+00 -0.00000000000E+00 -0.10815062348E+04  0.10815062348E+04  0.00000000000E+00 0. -1.
         25    2    1    2    0    0 -0.54089355287E+02 -0.57696614896E+02 -0.50301291170E+03  0.52433273636E+03  0.12509305077E+03 0.  0.
          5    1    3    3  502    0 -0.28884630067E+02 -0.62475357391E+02 -0.10590915117E+03  0.12637924211E+03  0.41800000000E+01 0. -1.
         -5    1    3    3    0  502 -0.25204725221E+02  0.47787424954E+01 -0.39710376053E+03  0.39795349425E+03  0.41800000000E+01 0. -1.
        -11    1    1    2    0    0  0.31703321085E+02 -0.21318213727E+02 -0.22663117742E+03  0.22982875665E+03  0.00000000000E+00 0.  1.
         11    1    1    2    0    0  0.22386034202E+02  0.79014828623E+02 -0.33463847811E+03  0.34456840932E+03  0.00000000000E+00 0. -1.
</event>
<event>
 7    1  0.2840156E-009  0.5557795E+02  0.7561462E-02  0.1417385E+00
          2   -1    0    0  501    0  0.00000000000E+00  0.00000000000E+00  0.29543627828E+03  0.29543627828E+03  0.00000000000E+00 0. -1.
         -2   -1    0    0    0  501 -0.00000000000E+00 -0.00000000000E+00 -0.42503413349E+02  0.42503413349E+02  0.00000000000E+00 0.  1.
         25    2    1    2    0    0  0.16328302247E+02  0.23896034820E+02  0.16463067005E+03  0.20877655051E+03  0.12508699606E+03 0.  0.
          5    1    3    3  502    0  0.92612712013E+01  0.94458041904E+01  0.18327530071E+03  0.18379962625E+03  0.41800000000E+01 0. -1.
         -5    1    3    3    0  502  0.70670310455E+01  0.14450230629E+02 -0.18644630652E+02  0.24976924254E+02  0.41800000000E+01 0. -1.
        -11    1    1    2    0    0  0.57625718521E+01  0.25716473486E+02  0.10318225010E+01  0.26374398582E+02  0.00000000000E+00 0.  1.
         11    1    1    2    0    0 -0.22090874099E+02 -0.49612508306E+02  0.87270372377E+02  0.10278874254E+03  0.00000000000E+00 0. -1.
</event>
<event>
 7    1  0.2840156E-009  0.1517446E+03  0.7561462E-02  0.1198346E+00
          2   -1    0    0  501    0  0.00000000000E+00  0.00000000000E+00  0.31621387976E+03  0.31621387976E+03  0.00000000000E+00 0. -1.
         -2   -1    0    0    0  501 -0.00000000000E+00 -0.00000000000E+00 -0.99198355924E+02  0.99198355924E+02  0.00000000000E+00 0.  1.
         25    2    1    2    0    0  0.81280101719E+02 -0.90882182136E+02  0.19350577938E+03  0.26069109900E+03  0.12509730803E+03 0.  0.
          5    1    3    3  502    0  0.32478397110E+02  0.27798249517E+02  0.72469710938E+02  0.84243221439E+02  0.41800000000E+01 0.  1.
         -5    1    3    3    0  502  0.48801704609E+02 -0.11868043165E+03  0.12103606845E+03  0.17644787756E+03  0.41800000000E+01 0.  1.
        -11    1    1    2    0    0 -0.41646226678E+02  0.81334515369E+02 -0.21624758263E+02  0.93900701578E+02  0.00000000000E+00 0.  1.
         11    1    1    2    0    0 -0.39633875041E+02  0.95476667670E+01  0.45134502718E+02  0.60820435110E+02  0.00000000000E+00 0. -1.
</event>
<event>
 7    1  0.2840156E-009  0.2573396E+03  0.7561462E-02  0.1108752E+00
          1   -1    0    0  501    0  0.00000000000E+00  0.00000000000E+00  0.74749692517E+03  0.74749692517E+03  0.00000000000E+00 0. -1.
         -1   -1    0    0    0  501 -0.00000000000E+00 -0.00000000000E+00 -0.10651191014E+03  0.10651191014E+03  0.00000000000E+00 0.  1.
         25    2    1    2    0    0 -0.60554681194E+01  0.24425022001E+03  0.19158965105E+03  0.33473687719E+03  0.12508934363E+03 0.  0.
          5    1    3    3  502    0 -0.24046688552E+02  0.21615700500E+02  0.77097117180E+02  0.83707345053E+02  0.41800000000E+01 0. -1.
         -5    1    3    3    0  502  0.17991220433E+02  0.22263451951E+03  0.11449253387E+03  0.25102953213E+03  0.41800000000E+01 0. -1.
        -11    1    1    2    0    0  0.44949664304E+02 -0.15342614122E+03  0.25016317043E+03  0.29688661972E+03  0.00000000000E+00 0.  1.
         11    1    1    2    0    0 -0.38894196185E+02 -0.90824078793E+02  0.19923219355E+03  0.22238533839E+03  0.00000000000E+00 0. -1.
</event>
<event>
 7    1  0.2840156E-009  0.1156657E+03  0.7561462E-02  0.1250424E+00
          2   -1    0    0  501    0  0.00000000000E+00  0.00000000000E+00  0.12619863234E+04  0.12619863234E+04  0.00000000000E+00 0. -1.
         -2   -1    0    0    0  501 -0.00000000000E+00 -0.00000000000E+00 -0.13106770755E+02  0.13106770755E+02  0.00000000000E+00 0.  1.
         25    2    1    2    0    0  0.14754127573E+02  0.50233656350E+02  0.93424346742E+03  0.94403337951E+03  0.12508821169E+03 0.  0.
          5    1    3    3  502    0 -0.53315290719E+02  0.14947718462E+02  0.49772104556E+03  0.50080901161E+03  0.41800000000E+01 0.  1.
         -5    1    3    3    0  502  0.68069418292E+02  0.35285937888E+02  0.43652242186E+03  0.44322436790E+03  0.41800000000E+01 0.  1.
        -11    1    1    2    0    0  0.33091463409E+02 -0.36439624103E+02  0.20194987329E+03  0.20786207562E+03  0.00000000000E+00 0. -1.
         11    1    1    2    0    0 -0.47845590982E+02 -0.13794032247E+02  0.11268621189E+03  0.12319763899E+03  0.00000000000E+00 0.  1.
</event>
<event>
 7    1  0.2840156E-009  0.3369673E+03  0.7561462E-02  0.1068095E+00
          2   -1    0    0  501    0  0.00000000000E+00  0.00000000000E+00  0.19240618886E+04  0.19240618886E+04  0.00000000000E+00 0. -1.
         -2   -1    0    0    0  501 -0.00000000000E+00 -0.00000000000E+00 -0.15253606581E+03  0.15253606581E+03  0.00000000000E+00 0.  1.
         25    2    1    2    0    0  0.26211198906E+03 -0.17560775000E+03  0.16550544948E+04  0.16894948265E+04  0.12508641627E+03 0.  0.
          5    1    3    3  502    0  0.21600707940E+03 -0.11924830560E+03  0.98330671437E+03  0.10137991831E+04  0.41800000000E+01 0. -1.
         -5    1    3    3    0  502  0.46104909658E+02 -0.56359444401E+02  0.67174778038E+03  0.67569564340E+03  0.41800000000E+01 0. -1.
        -11    1    1    2    0    0 -0.86229002595E+02 -0.22692591784E+02  0.79529112337E+02  0.11947917944E+03  0.00000000000E+00 0.  1.
         11    1    1    2    0    0 -0.17588298647E+03  0.19830034178E+03  0.36942215681E+02  0.26762394844E+03  0.00000000000E+00 0. -1.
</event>
<event>
 7    1  0.2840156E-009  0.1053991E+03  0.7561462E-02  0.1269335E+00
         -1   -1    0    0    0  501 -0.00000000000E+00  0.00000000000E+00  0.17968356899E+03  0.17968356899E+03  0.00000000000E+00 0.  1.
          1   -1    0    0  501    0  0.00000000000E+00 -0.00000000000E+00 -0.13381845469E+03  0.13381845469E+03  0.00000000000E+00 0. -1.
         25    2    1    2    0    0 -0.51093585291E+02 -0.73560756179E+02  0.88910255241E+02  0.17769087724E+03  0.12508906851E+03 0.  0.
          5    1    3    3  502    0 -0.32125433937E+02 -0.22457418086E+02  0.11170715279E+03  0.11845817624E+03  0.41800000000E+01 0. -1.
         -5    1    3    3    0  502 -0.18968151355E+02 -0.51103338093E+02 -0.22796897552E+02  0.59232701002E+02  0.41800000000E+01 0. -1.
        -11    1    1    2    0    0 -0.15856975149E+02  0.37388027608E+02  0.11471485765E+02  0.42200749459E+02  0.00000000000E+00 0.  1.
         11    1    1    2    0    0  0.66950560441E+02  0.36172728572E+02 -0.54516626709E+02  0.93610396983E+02  0.00000000000E+00 0. -1.
</event>
<event>
 7    1  0.2840156E-009  0.9764671E+02  0.7561462E-02  0.1285324E+00
          2   -1    0    0  501    0  0.00000000000E+00  0.00000000000E+00  0.34430877409E+02  0.34430877409E+02  0.00000000000E+00 0. -1.
         -2   -1    0    0    0  501 -0.00000000000E+00 -0.00000000000E+00 -0.39860385930E+03  0.39860385930E+03  0.00000000000E+00 0.  1.
         25    2    1    2    0    0 -0.82451919215E+01 -0.36281116747E+02 -0.23209273784E+03  0.26626837068E+03  0.12508998218E+03 0.  0.
          5    1    3    3  502    0 -0.44823583627E+02 -0.41555645097E+02 -0.21808239078E+03  0.22652467163E+03  0.41800000000E+01 0. -1.
         -5    1    3    3    0  502  0.36578391706E+02  0.52745283498E+01 -0.14010347057E+02  0.39743699045E+02  0.41800000000E+01 0. -1.
        -11    1    1    2    0    0 -0.39566691907E+02  0.27599349720E+02 -0.91575364520E+02  0.10350504626E+03  0.00000000000E+00 0.  1.
         11    1    1    2    0    0  0.47811883829E+02  0.86817670269E+01 -0.40504879535E+02  0.63261319778E+02  0.00000000000E+00 0. -1.
</event>
<event>
 7    1  0.2840156E-009  0.9577236E+02  0.7561462E-02  0.1289446E+00
         -2   -1    0    0    0  501 -0.00000000000E+00  0.00000000000E+00  0.25259304064E+03  0.25259304064E+03  0.00000000000E+00 0.  1.
          2   -1    0    0  501    0  0.00000000000E+00 -0.00000000000E+00 -0.54966975913E+02  0.54966975913E+02  0.00000000000E+00 0. -1.
         25    2    1    2    0    0 -0.41607393861E+02  0.56454347423E+01  0.87600749415E+02  0.15838180680E+03  0.12509140367E+03 0.  0.
          5    1    3    3  502    0 -0.26061726176E+02  0.42872920814E+02 -0.11202451449E+02  0.51577788134E+02  0.41800000000E+01 0. -1.
         -5    1    3    3    0  502 -0.15545667685E+02 -0.37227486072E+02  0.98803200864E+02  0.10680401867E+03  0.41800000000E+01 0. -1.
        -11    1    1    2    0    0  0.71022745894E+02 -0.53263318546E+01  0.74783403050E+02  0.10327224999E+03  0.00000000000E+00 0.  1.
         11    1    1    2    0    0 -0.29415352033E+02 -0.31910288766E+00  0.35241912264E+02  0.45905959765E+02  0.00000000000E+00 0. -1.
</event>
<event>
 7    1  0.2840156E-009  0.9063337E+02  0.7561462E-02  0.1301325E+00
          1   -1    0    0  501    0  0.00000000000E+00  0.00000000000E+00  0.23960275196E+03  0.23960275196E+03  0.00000000000E+00 0. -1.
         -1   -1    0    0    0  501 -0.00000000000E+00 -0.00000000000E+00 -0.80777582157E+02  0.80777582157E+02  0.00000000000E+00 0.  1.
         25    2    1    2    0    0 -0.42376080770E+02 -0.55035468780E+02  0.14508360368E+03  0.20376926516E+03  0.12509207138E+03 0.  0.
          5    1    3    3  502    0 -0.25479050919E+02 -0.30191406936E+02 -0.13770086479E+02  0.42045103997E+02  0.41800000000E+01 0.  1.
         -5    1    3    3    0  502 -0.16897029851E+02 -0.24844061844E+02  0.15885369016E+03  0.16172416116E+03  0.41800000000E+01 0.  1.
        -11    1    1    2    0    0  0.63953127536E+02  0.14943143792E+02 -0.79916183660E+01  0.66160154414E+02  0.00000000000E+00 0.  1.
         11    1    1    2    0    0 -0.21577046766E+02  0.40092324987E+02  0.21733184485E+02  0.50450914540E+02  0.00000000000E+00 0. -1.
</event>
<event>
 7    1  0.2840156E-009  0.1323411E+03  0.7561462E-02  0.1224023E+00
         -2   -1    0    0    0  501 -0.00000000000E+00  0.00000000000E+00  0.68066784103E+03  0.68066784103E+03  0.00000000000E+00 0. -1.
          2   -1    0    0  501    0  0.00000000000E+00 -0.00000000000E+00 -0.44817725202E+02  0.44817725202E+02  0.00000000000E+00 0.  1.
         25    2    1    2    0    0 -0.77259416779E+02  0.76196903604E+02  0.51290574551E+03  0.53897662640E+03  0.12509402237E+03 0.  0.
          5    1    3    3  502    0 -0.77021513477E+02  0.50271167395E+01  0.38368412177E+03  0.39139310563E+03  0.41800000000E+01 0.  1.
         -5    1    3    3    0  502 -0.23790330215E+00  0.71169786865E+02  0.12922162374E+03  0.14758352077E+03  0.41800000000E+01 0.  1.
        -11    1    1    2    0    0  0.75057924489E+02 -0.50878673931E+02  0.38833628969E+02  0.98642699824E+02  0.00000000000E+00 0.  1.
         11    1    1    2    0    0  0.22014922904E+01 -0.25318229673E+02  0.84110741348E+02  0.87866240003E+02  0.00000000000E+00 0. -1.
</event>
<event>
 7    1  0.2840156E-009  0.7502362E+02  0.7561462E-02  0.1343798E+00
         -3   -1    0    0    0  501 -0.00000000000E+00  0.00000000000E+00  0.90527520038E+02  0.90527520038E+02  0.00000000000E+00 0.  1.
          3   -1    0    0  501    0  0.00000000000E+00 -0.00000000000E+00 -0.14047113164E+03  0.14047113164E+03  0.00000000000E+00 0. -1.
         25    2    1    2    0    0 -0.13099745429E+02 -0.27341910914E+02 -0.14998683929E+02  0.12957993862E+03  0.12508723577E+03 0.  0.
          5    1    3    3  502    0  0.31265553378E+01 -0.35743734462E+02 -0.66002431657E+02  0.75240835230E+02  0.41800000000E+01 0. -1.
         -5    1    3    3    0  502 -0.16226300767E+02  0.84018235473E+01  0.51003747727E+02  0.54339103394E+02  0.41800000000E+01 0. -1.
        -11    1    1    2    0    0  0.38611751691E+02  0.48530224043E+02 -0.21586515254E+02  0.65666031212E+02  0.00000000000E+00 0.  1.
         11    1    1    2    0    0 -0.25512006262E+02 -0.21188313128E+02 -0.13358412422E+02  0.35752681846E+02  0.00000000000E+00 0. -1.
</event>
<event>
 7    1  0.2840156E-009  0.1214998E+03  0.7561462E-02  0.1240643E+00
         -1   -1    0    0    0  501 -0.00000000000E+00  0.00000000000E+00  0.80191609224E+02  0.80191609224E+02  0.00000000000E+00 0.  1.
          1   -1    0    0  501    0  0.00000000000E+00 -0.00000000000E+00 -0.27343360345E+03  0.27343360345E+03  0.00000000000E+00 0. -1.
         25    2    1    2    0    0 -0.67011682587E+02 -0.60832553342E+02 -0.15736483904E+03  0.22045542705E+03  0.12508292289E+03 0.  0.
          5    1    3    3  502    0 -0.80194547151E+02 -0.76240725653E+02 -0.70756925542E+02  0.13140710998E+03  0.41800000000E+01 0. -1.
         -5    1    3    3    0  502  0.13182864564E+02  0.15408172311E+02 -0.86607913503E+02  0.89048317072E+02  0.41800000000E+01 0. -1.
        -11    1    1    2    0    0  0.34002350345E+02  0.69555815884E+02  0.77070440403E+01  0.77804690605E+02  0.00000000000E+00 0.  1.
         11    1    1    2    0    0  0.33009332242E+02 -0.87232625423E+01 -0.43584199224E+02  0.55365095019E+02  0.00000000000E+00 0. -1.
</event>
<event>
 7    1  0.2840156E-009  0.1095356E+03  0.7561462E-02  0.1261432E+00
         -1   -1    0    0    0  501 -0.00000000000E+00  0.00000000000E+00  0.22750839458E+03  0.22750839458E+03  0.00000000000E+00 0.  1.
          1   -1    0    0  501    0  0.00000000000E+00 -0.00000000000E+00 -0.64264817718E+02  0.64264817718E+02  0.00000000000E+00 0. -1.
         25    2    1    2    0    0  0.23662298793E+02  0.11392687234E+02  0.40054013962E+02  0.13394580403E+03  0.12508979445E+03 0.  0.
          5    1    3    3  502    0  0.63427093737E+02  0.38284273549E+02  0.42835468095E+02  0.85679819958E+02  0.41800000000E+01 0.  1.
         -5    1    3    3    0  502 -0.39764794944E+02 -0.26891586315E+02 -0.27814541332E+01  0.48265984074E+02  0.41800000000E+01 0. -1.
        -11    1    1    2    0    0 -0.34066614406E+02  0.35174235538E+02  0.78082409203E+02  0.92166282825E+02  0.00000000000E+00 0. -1.
         11    1    1    2    0    0  0.10404315613E+02 -0.46566922772E+02  0.45107153701E+02  0.65661125446E+02  0.00000000000E+00 0.  1.
</event>
<event>
 7    1  0.3340670E-009  0.1728826E+03  0.7561462E-02  0.1174875E+00
          1   -1    0    0  501    0  0.00000000000E+00  0.00000000000E+00  0.72906090054E+03  0.72906090054E+03  0.00000000000E+00 0. -1.
         -1   -1    0    0    0  501 -0.00000000000E+00 -0.00000000000E+00 -0.66707486980E+02  0.66707486980E+02  0.00000000000E+00 0.  1.
         25    2    1    2    0    0  0.18685087894E+02  0.14577057234E+03  0.12166753784E+03  0.22814063442E+03  0.12508783730E+03 0.  0.
          5    1    3    3  502    0 -0.20700964826E+02 -0.10356367088E+02 -0.39820443071E+01  0.23856096932E+02  0.41800000000E+01 0. -1.
         -5    1    3    3    0  502  0.39386052720E+02  0.15612693942E+03  0.12564958215E+03  0.20428453749E+03  0.41800000000E+01 0. -1.
        -11    1    1    2    0    0  0.21512384272E+02 -0.89302098194E+02  0.20175326106E+03  0.22168000759E+03  0.00000000000E+00 0.  1.
         11    1    1    2    0    0 -0.40197472166E+02 -0.56468474143E+02  0.33893261466E+03  0.34594774551E+03  0.00000000000E+00 0. -1.
</event>
<event>
 7    1  0.2840156E-009  0.1189847E+03  0.7561462E-02  0.1244781E+00
         -2   -1    0    0    0  501 -0.00000000000E+00  0.00000000000E+00  0.27594493237E+02  0.27594493237E+02  0.00000000000E+00 0. -1.
          2   -1    0    0  501    0  0.00000000000E+00 -0.00000000000E+00 -0.97991244873E+03  0.97991244873E+03  0.00000000000E+00 0.  1.
         25    2    1    2    0    0  0.10873683190E+03  0.15394344829E+02 -0.67484116080E+03  0.69506783673E+03  0.12509204963E+03 0.  0.
          5    1    3    3  502    0  0.62126645433E+02  0.14823550567E+02 -0.61859306246E+03  0.62189573647E+03  0.41800000000E+01 0.  1.
         -5    1    3    3    0  502  0.46610186469E+02  0.57079426144E+00 -0.56248098346E+02  0.73172100259E+02  0.41800000000E+01 0.  1.
        -11    1    1    2    0    0 -0.92341596119E+02 -0.37477784623E+02 -0.13768235183E+03  0.16996465726E+03  0.00000000000E+00 0. -1.
         11    1    1    2    0    0 -0.16395235783E+02  0.22083439795E+02 -0.13979444286E+03  0.14247444797E+03  0.00000000000E+00 0.  1.
</event>
<event>
 7    1  0.2840156E-009  0.9574562E+02  0.7561462E-02  0.1289506E+00
          1   -1    0    0  501    0  0.00000000000E+00  0.00000000000E+00  0.10523638480E+03  0.10523638480E+03  0.00000000000E+00 0. -1.
         -1   -1    0    0    0  501 -0.00000000000E+00 -0.00000000000E+00 -0.13060223657E+03  0.13060223657E+03  0.00000000000E+00 0.  1.
         25    2    1    2    0    0 -0.13299405107E+02 -0.40778730527E+02 -0.25007906922E+02  0.13458561552E+03  0.12509241966E+03 0.  0.
          5    1    3    3  502    0 -0.36266604351E+02  0.13475689206E+02 -0.55759562563E+02  0.67996044061E+02  0.41800000000E+01 0. -1.
         -5    1    3    3    0  502  0.22967199244E+02 -0.54254419733E+02  0.30751655641E+02  0.66589571454E+02  0.41800000000E+01 0. -1.
        -11    1    1    2    0    0 -0.15156748305E+02 -0.20765579945E+02  0.17544756825E+02  0.31124826453E+02  0.00000000000E+00 0. -1.
         11    1    1    2    0    0  0.28456153412E+02  0.61544310472E+02 -0.17902701672E+02  0.70128179398E+02  0.00000000000E+00 0.  1.
</event>
<event>
 7    1  0.2840156E-009  0.1237820E+03  0.7561462E-02  0.1236985E+00
          1   -1    0    0  501    0  0.00000000000E+00  0.00000000000E+00  0.31088689971E+03  0.31088689971E+03  0.00000000000E+00 0. -1.
         -1   -1    0    0    0  501 -0.00000000000E+00 -0.00000000000E+00 -0.68127566952E+02  0.68127566952E+02  0.00000000000E+00 0.  1.
         25    2    1    2    0    0  0.55764965756E+02  0.76782384663E+02  0.10677487786E+03  0.18988007264E+03  0.12509317106E+03 0.  0.
          5    1    3    3  502    0 -0.25697826420E+02  0.10504332764E+01  0.66650565819E+02  0.71562923478E+02  0.41800000000E+01 0.  1.
         -5    1    3    3    0  502  0.81462792176E+02  0.75731951386E+02  0.40124312044E+02  0.11831714917E+03  0.41800000000E+01 0.  1.
        -11    1    1    2    0    0  0.18579465107E+01 -0.43735048294E+02  0.10895337806E+03  0.11741824818E+03  0.00000000000E+00 0. -1.
         11    1    1    2    0    0 -0.57622912266E+02 -0.33047336369E+02  0.27031076835E+02  0.71716145839E+02  0.00000000000E+00 0.  1.
</event>
<event>
 7    1  0.2840156E-009  0.8300892E+02  0.7561462E-02  0.1320723E+00
         -1   -1    0    0    0  501 -0.00000000000E+00  0.00000000000E+00  0.14264486703E+02  0.14264486703E+02  0.00000000000E+00 0.  1.
          1   -1    0    0  501    0  0.00000000000E+00 -0.00000000000E+00 -0.10836258075E+04  0.10836258075E+04  0.00000000000E+00 0. -1.
         25    2    1    2    0    0  0.42520438097E+02  0.58087550234E+01 -0.79605612551E+03  0.80696561044E+03  0.12508561939E+03 0.  0.
          5    1    3    3  502    0  0.30638959595E+02 -0.42056650183E+02 -0.66215882727E+03  0.66421328848E+03  0.41800000000E+01 0. -1.
         -5    1    3    3    0  502  0.11881478502E+02  0.47865405207E+02 -0.13389729824E+03  0.14275232196E+03  0.41800000000E+01 0. -1.
        -11    1    1    2    0    0 -0.52587635097E+02  0.21854540730E+00 -0.27416186728E+03  0.27915987642E+03  0.00000000000E+00 0. -1.
         11    1    1    2    0    0  0.10067196999E+02 -0.60273004307E+01  0.85667196472E+00  0.11764807383E+02  0.00000000000E+00 0.  1.
</event>
<event>
 7    1  0.2840156E-009  0.9993811E+02  0.7561462E-02  0.1280426E+00
          1   -1    0    0  501    0  0.00000000000E+00  0.00000000000E+00  0.29676734672E+03  0.29676734672E+03  0.00000000000E+00 0. -1.
         -1   -1    0    0    0  501 -0.00000000000E+00 -0.00000000000E+00 -0.48910750862E+02  0.48910750862E+02  0.00000000000E+00 0.  1.
         25    2    1    2    0    0 -0.16211504284E+02  0.14672458442E+01  0.69277728903E+02  0.14391638320E+03  0.12509019126E+03 0.  0.
          5    1    3    3  502    0 -0.46010101153E+02  0.47449022098E+02  0.57526303829E+02  0.87721645780E+02  0.41800000000E+01 0.  1.
         -5    1    3    3    0  502  0.29798596869E+02 -0.45981776254E+02  0.11751425074E+02  0.56194737423E+02  0.41800000000E+01 0.  1.
        -11    1    1    2    0    0 -0.30859797799E+02 -0.59006724254E+01  0.22408105470E+02  0.38591038416E+02  0.00000000000E+00 0.  1.
         11    1    1    2    0    0  0.47071302083E+02  0.44334265811E+01  0.15617076149E+03  0.16317067596E+03  0.00000000000E+00 0. -1.
</event>
<event>
 7    1  0.2840156E-009  0.8957807E+02  0.7561462E-02  0.1303877E+00
         -2   -1    0    0    0  501 -0.00000000000E+00  0.00000000000E+00  0.17285318377E+02  0.17285318377E+02  0.00000000000E+00 0.  1.
          2   -1    0    0  501    0  0.00000000000E+00 -0.00000000000E+00 -0.14081319153E+04  0.14081319153E+04  0.00000000000E+00 0. -1.
         25    2    1    2    0    0  0.52618350018E+02 -0.31082280005E+01 -0.12018597022E+04  0.12095023523E+04  0.12510333590E+03 0.  0.
          5    1    3    3  502    0 -0.15879344919E+02 -0.62265562117E+01 -0.24518975409E+02  0.30159180234E+02  0.41800000000E+01 0. -1.
         -5    1    3    3    0  502  0.68497694937E+02  0.31183282113E+01 -0.11773407268E+04  0.11793431721E+04  0.41800000000E+01 0. -1.
        -11    1    1    2    0    0 -0.56915418078E+02 -0.26640377239E+02 -0.74089714561E+02  0.97151223967E+02  0.00000000000E+00 0.  1.
         11    1    1    2    0    0  0.42970680601E+01  0.29748605239E+02 -0.11489718011E+03  0.11876365734E+03  0.00000000000E+00 0. -1.
</event>
<event>
 7    1  0.2840156E-009  0.1888452E+03  0.7561462E-02  0.1159507E+00
          2   -1    0    0  501    0  0.00000000000E+00  0.00000000000E+00  0.18151804608E+04  0.18151804608E+04  0.00000000000E+00 0. -1.
         -2   -1    0    0    0  501 -0.00000000000E+00 -0.00000000000E+00 -0.20423836649E+02  0.20423836649E+02  0.00000000000E+00 0.  1.
         25    2    1    2    0    0 -0.43099036839E+01 -0.15526152914E+03  0.82742445156E+03  0.85111908979E+03  0.12509102393E+03 0.  0.
          5    1    3    3  502    0  0.59236930893E+02 -0.68031941692E+02  0.42212639370E+03  0.43167756918E+03  0.41800000000E+01 0.  1.
         -5    1    3    3    0  502 -0.63546834577E+02 -0.87229587449E+02  0.40529805785E+03  0.41944152061E+03  0.41800000000E+01 0.  1.
        -11    1    1    2    0    0  0.29032240927E+02  0.80743736243E+01  0.10131703977E+03  0.10570340142E+03  0.00000000000E+00 0.  1.
         11    1    1    2    0    0 -0.24722337244E+02  0.14718715552E+03  0.86601513278E+03  0.87878180621E+03  0.00000000000E+00 0. -1.
</event>
<event>
 7    1  0.2840156E-009  0.1387819E+03  0.7561462E-02  0.1214978E+00
          3   -1    0    0  501    0  0.00000000000E+00  0.00000000000E+00  0.10322048032E+03  0.10322048032E+03  0.00000000000E+00 0. -1.
         -3   -1    0    0    0  501 -0.00000000000E+00 -0.00000000000E+00 -0.23142242784E+03  0.23142242784E+03  0.00000000000E+00 0.  1.
         25    2    1    2    0    0 -0.82453636353E+02 -0.74036776146E+02 -0.65607980213E+02  0.17953415061E+03  0.12509219718E+03 0.  0.
          5    1    3    3  502    0 -0.22378223543E+02 -0.98971456140E+02 -0.34004683517E+02  0.10709773537E+03  0.41800000000E+01 0. -1.
         -5    1    3    3    0  502 -0.60075412811E+02  0.24934679993E+02 -0.31603296696E+02  0.72436415240E+02  0.41800000000E+01 0. -1.
        -11    1    1    2    0    0  0.57189674442E+02  0.50265453893E+02 -0.84764507717E+02  0.11393988102E+03  0.00000000000E+00 0.  1.
         11    1    1    2    0    0  0.25263961911E+02  0.23771322253E+02  0.22170540408E+02  0.41168876535E+02  0.00000000000E+00 0. -1.
</event>
<event>
 7    1  0.2840156E-009  0.1396588E+03  0.7561462E-02  0.1213789E+00
         -1   -1    0    0    0  501 -0.00000000000E+00  0.00000000000E+00  0.12751135778E+02  0.12751135778E+02  0.00000000000E+00 0.  1.
          1   -1    0    0  501    0  0.00000000000E+00 -0.00000000000E+00 -0.30178707200E+04  0.30178707200E+04  0.00000000000E+00 0. -1.
         25    2    1    2    0    0  0.11187378233E+03  0.31692772416E+02 -0.24505484730E+04  0.24564925115E+04  0.12508982991E+03 0.  0.
          5    1    3    3  502    0 -0.16542867226E+02  0.10671320591E+02 -0.97603763418E+03  0.97624509180E+03  0.41800000000E+01 0. -1.
         -5    1    3    3    0  502  0.12841664956E+03  0.21021451824E+02 -0.14745108389E+04  0.14802474197E+04  0.41800000000E+01 0. -1.
        -11    1    1    2    0    0 -0.76986408234E+02  0.65133271175E+01 -0.45895601284E+03  0.46541374304E+03  0.00000000000E+00 0. -1.
         11    1    1    2    0    0 -0.34887374099E+02 -0.38206099533E+02 -0.95615098320E+02  0.10871560118E+03  0.00000000000E+00 0.  1.
</event>
<event>
 7    1  0.2840156E-009  0.8931017E+02  0.7561462E-02  0.1304531E+00
         -2   -1    0    0    0  501 -0.00000000000E+00  0.00000000000E+00  0.43219680895E+02  0.43219680895E+02  0.00000000000E+00 0.  1.
          2   -1    0    0  501    0  0.00000000000E+00 -0.00000000000E+00 -0.36920041483E+03  0.36920041483E+03  0.00000000000E+00 0. -1.
         25    2    1    2    0    0  0.13423585174E+02  0.39696763696E+02 -0.10015098634E+03  0.16562821607E+03  0.12508581137E+03 0.  0.
          5    1    3    3  502    0 -0.27571117117E+02  0.67281161880E+01  0.19614739431E+02  0.34751179109E+02  0.41800000000E+01 0. -1.
         -5    1    3    3    0  502  0.40994702291E+02  0.32968647508E+02 -0.11976572577E+03  0.13087703696E+03  0.41800000000E+01 0. -1.
        -11    1    1    2    0    0 -0.44111752253E+02  0.34135960334E+01 -0.12999446746E+03  0.13731737288E+03  0.00000000000E+00 0. -1.
         11    1    1    2    0    0  0.30688167079E+02 -0.43110359729E+02 -0.95835280130E+02  0.10947450677E+03  0.00000000000E+00 0.  1.
</event>
<event>
 7    1  0.2840156E-009  0.9969410E+02  0.7561462E-02  0.1280941E+00
         -1   -1    0    0    0  501 -0.00000000000E+00  0.00000000000E+00  0.13512062766E+02  0.13512062766E+02  0.00000000000E+00 0. -1.
          1   -1    0    0  501    0  0.00000000000E+00 -0.00000000000E+00 -0.11304299468E+04  0.11304299468E+04  0.00000000000E+00 0.  1.
         25    2    1    2    0    0  0.30643102374E+01 -0.32322139162E+02 -0.87380710640E+03  0.88331080919E+03  0.12508003739E+03 0.  0.
          5    1    3    3  502    0 -0.80924196456E+01 -0.73604280820E+02 -0.71353814916E+03  0.71738221341E+03  0.41800000000E+01 0. -1.
         -5    1    3    3    0  502  0.11156729883E+02  0.41282141658E+02 -0.16026895724E+03  0.16592859577E+03  0.41800000000E+01 0. -1.
        -11    1    1    2    0    0 -0.38537427388E+02  0.25282863005E+02 -0.19540326242E+03  0.20076551356E+03  0.00000000000E+00 0.  1.
         11    1    1    2    0    0  0.35473117151E+02  0.70392761568E+01 -0.47707515178E+02  0.59865686780E+02  0.00000000000E+00 0. -1.
</event>
<event>
 7    1  0.2840156E-009  0.2572630E+03  0.7561462E-02  0.1108799E+00
          2   -1    0    0  501    0  0.00000000000E+00  0.00000000000E+00  0.38561521473E+03  0.38561521473E+03  0.00000000000E+00 0. -1.
         -2   -1    0    0    0  501 -0.00000000000E+00 -0.00000000000E+00 -0.30385032191E+03  0.30385032191E+03  0.00000000000E+00 0.  1.
         25    2    1    2    0    0 -0.58619421122E+02  0.23064601542E+03  0.26318989472E+03  0.37623174647E+03  0.12509030900E+03 0.  0.
          5    1    3    3  502    0 -0.26055549153E+01  0.19409566763E+03  0.15271793238E+03  0.24702258273E+03  0.41800000000E+01 0.  1.
         -5    1    3    3    0  502 -0.56013866206E+02  0.36550347796E+02  0.11047196233E+03  0.12920916374E+03  0.41800000000E+01 0.  1.
        -11    1    1    2    0    0  0.74189408885E+02 -0.11627505809E+03 -0.11808492066E+03  0.18157093934E+03  0.00000000000E+00 0. -1.
         11    1    1    2    0    0 -0.15569987763E+02 -0.11437095733E+03 -0.63340081234E+02  0.13166285084E+03  0.00000000000E+00 0.  1.
</event>
<event>
 7    1  0.2840156E-009  0.9615648E+02  0.7561462E-02  0.1288592E+00
         -2   -1    0    0    0  501 -0.00000000000E+00  0.00000000000E+00  0.26721084025E+02  0.26721084025E+02  0.00000000000E+00 0.  1.
          2   -1    0    0  501    0  0.00000000000E+00 -0.00000000000E+00 -0.49759745086E+03  0.49759745086E+03  0.00000000000E+00 0. -1.
         25    2    1    2    0    0 -0.12443309142E+02  0.13441505863E+02 -0.36131102011E+03  0.38279062636E+03  0.12508996906E+03 0.  0.
          5    1    3    3  502    0 -0.57348164458E+02 -0.96324179695E+00 -0.86115276933E+02  0.10355217585E+03  0.41800000000E+01 0. -1.
         -5    1    3    3    0  502  0.44904855315E+02  0.14404747660E+02 -0.27519574317E+03  0.27923845052E+03  0.41800000000E+01 0. -1.
        -11    1    1    2    0    0 -0.12829515274E+02  0.32547756853E+02 -0.59365529167E+02  0.68907321756E+02  0.00000000000E+00 0. -1.
         11    1    1    2    0    0  0.25272824417E+02 -0.45989262715E+02 -0.50199817564E+02  0.72620586768E+02  0.00000000000E+00 0.  1.
</event>
<event>
 7    1  0.2840156E-009  0.1772248E+03  0.7561462E-02  0.1170516E+00
         -3   -1    0    0    0  501 -0.00000000000E+00  0.00000000000E+00  0.16455472519E+02  0.16455472519E+02  0.00000000000E+00 0.  1.
          3   -1    0    0  501    0  0.00000000000E+00 -0.00000000000E+00 -0.24731754632E+04  0.24731754632E+04  0.00000000000E+00 0. -1.
         25    2    1    2    0    0  0.11455885485E+03  0.81826485108E+02 -0.18708803956E+04  0.18803342851E+04  0.12507703258E+03 0.  0.
          5    1    3    3  502    0  0.10833519684E+03  0.11270584373E+03 -0.15825283936E+04  0.15902366839E+04  0.41800000000E+01 0. -1.
         -5    1    3    3    0  502  0.62236580093E+01 -0.30879358621E+02 -0.28835200205E+03  0.29009760115E+03  0.41800000000E+01 0. -1.
        -11    1    1    2    0    0 -0.12746298619E+03 -0.59879056568E+02 -0.46756135298E+03  0.48830925965E+03  0.00000000000E+00 0.  1.
         11    1    1    2    0    0  0.12904131336E+02 -0.21947428539E+02 -0.11827824208E+03  0.12098739097E+03  0.00000000000E+00 0. -1.
</event>
<event>
 7    1  0.2840156E-009  0.1080178E+03  0.7561462E-02  0.1264285E+00
          3   -1    0    0  501    0  0.00000000000E+00  0.00000000000E+00  0.91101438049E+03  0.91101438049E+03  0.00000000000E+00 0. -1.
         -3   -1    0    0    0  501 -0.00000000000E+00 -0.00000000000E+00 -0.13037114106E+02  0.13037114106E+02  0.00000000000E+00 0.  1.
         25    2    1    2    0    0  0.46360897934E+01 -0.31219623275E+01  0.48453370396E+03  0.50045315437E+03  0.12509680039E+03 0.  0.
          5    1    3    3  502    0 -0.21243152727E+02 -0.59246605056E+02  0.25852347598E+03  0.26610766953E+03  0.41800000000E+01 0. -1.
         -5    1    3    3    0  502  0.25879242521E+02  0.56124642729E+02  0.22601022798E+03  0.23434548484E+03  0.41800000000E+01 0. -1.
        -11    1    1    2    0    0 -0.17045387184E+02 -0.41411307631E+02  0.23733727506E+03  0.24152520315E+03  0.00000000000E+00 0.  1.
         11    1    1    2    0    0  0.12409297390E+02  0.44533269959E+02  0.17610628737E+03  0.18207313708E+03  0.00000000000E+00 0. -1.
</event>
<event>
 7    1  0.2840156E-009  0.2929693E+03  0.7561462E-02  0.1088809E+00
         -2   -1    0    0    0  501 -0.00000000000E+00  0.00000000000E+00  0.65956430419E+02  0.65956430419E+02  0.00000000000E+00 0.  1.
          2   -1    0    0  501    0  0.00000000000E+00 -0.00000000000E+00 -0.18408336546E+04  0.18408336546E+04  0.00000000000E+00 0. -1.
         25    2    1    2    0    0 -0.16702528671E+03 -0.21903145689E+03 -0.14048134582E+04  0.14370174730E+04  0.12508453048E+03 0.  0.
          5    1    3    3  502    0 -0.12251089696E+03 -0.22078580736E+03 -0.12732973385E+04  0.12980981770E+04  0.41800000000E+01 0.  1.
         -5    1    3    3    0  502 -0.44514389745E+02  0.17543504706E+01 -0.13151611974E+03  0.13891929597E+03  0.41800000000E+01 0.  1.
        -11    1    1    2    0    0 -0.73097372942E+01  0.32633074033E+02 -0.32969031795E+02  0.46960694603E+02  0.00000000000E+00 0.  1.
         11    1    1    2    0    0  0.17433502400E+03  0.18639838286E+03 -0.33709473421E+03  0.42281191747E+03  0.00000000000E+00 0. -1.
</event>
<event>
 7    1  0.2840156E-009  0.8869848E+02  0.7561462E-02  0.1306034E+00
          2   -1    0    0  501    0  0.00000000000E+00  0.00000000000E+00  0.15548437886E+03  0.15548437886E+03  0.00000000000E+00 0.  1.
         -2   -1    0    0    0  501 -0.00000000000E+00 -0.00000000000E+00 -0.76198994677E+02  0.76198994677E+02  0.00000000000E+00 0. -1.
         25    2    1    2    0    0  0.42040061242E+01  0.22696539617E+02  0.64865079353E+02  0.14278799898E+03  0.12509247602E+03 0.  0.
          5    1    3    3  502    0  0.54119326899E+02  0.23443491272E+02 -0.20934106399E+01  0.59163786180E+02  0.41800000000E+01 0.  1.
         -5    1    3    3    0  502 -0.49915320774E+02 -0.74695165572E+00  0.66958489993E+02  0.83624212803E+02  0.41800000000E+01 0.  1.
        -11    1    1    2    0    0  0.29537138569E+02 -0.46197959675E+01 -0.21166085276E+02  0.36630427728E+02  0.00000000000E+00 0. -1.
         11    1    1    2    0    0 -0.33741144693E+02 -0.18076743649E+02  0.35586390110E+02  0.52264946831E+02  0.00000000000E+00 0.  1.
</event>
<event>
 7    1  0.2840156E-009  0.1323637E+03  0.7561462E-02  0.1223990E+00
          1   -1    0    0  501    0  0.00000000000E+00  0.00000000000E+00  0.31560431431E+03  0.31560431431E+03  0.00000000000E+00 0. -1.
         -1   -1    0    0    0  501 -0.00000000000E+00 -0.00000000000E+00 -0.10641582702E+03  0.10641582702E+03  0.00000000000E+00 0.  1.
         25    2    1    2    0    0 -0.40659754501E+01  0.95845938618E+02  0.24833755313E+03  0.29414478834E+03  0.12508653048E+03 0.  0.
          5    1    3    3  502    0 -0.46905178605E+02  0.99606318666E+02  0.14477555585E+03  0.18193116410E+03  0.41800000000E+01 0.  1.
         -5    1    3    3    0  502  0.42839203155E+02 -0.37603800479E+01  0.10356199728E+03  0.11221362425E+03  0.41800000000E+01 0.  1.
        -11    1    1    2    0    0 -0.24917264050E+02 -0.61786205352E+02 -0.48221722365E+02  0.82241958437E+02  0.00000000000E+00 0.  1.
         11    1    1    2    0    0  0.28983239500E+02 -0.34059733266E+02  0.90726565243E+01  0.45633394553E+02  0.00000000000E+00 0. -1.
</event>
<event>
 7    1  0.2840156E-009  0.1315674E+03  0.7561462E-02  0.1225148E+00
         -1   -1    0    0    0  501 -0.00000000000E+00  0.00000000000E+00  0.26899182604E+02  0.26899182604E+02  0.00000000000E+00 0.  1.
          1   -1    0    0  501    0  0.00000000000E+00 -0.00000000000E+00 -0.95814648766E+03  0.95814648766E+03  0.00000000000E+00 0. -1.
         25    2    1    2    0    0  0.37702870187E+02 -0.91929147407E+02 -0.72573677007E+03  0.74311206655E+03  0.12509680031E+03 0.  0.
          5    1    3    3  502    0  0.41138478263E+02 -0.12205159605E+03 -0.56818421464E+03  0.58261457299E+03  0.41800000000E+01 0. -1.
         -5    1    3    3    0  502 -0.34356080760E+01  0.30122448643E+02 -0.15755255544E+03  0.16049749356E+03  0.41800000000E+01 0. -1.
        -11    1    1    2    0    0  0.43505193228E+01  0.18884075704E+02  0.46073113519E+00  0.19384210243E+02  0.00000000000E+00 0.  1.
         11    1    1    2    0    0 -0.42053389510E+02  0.73045071703E+02 -0.20597126612E+03  0.22254939348E+03  0.00000000000E+00 0. -1.
</event>
<event>
 7    1  0.2840156E-009  0.1249833E+03  0.7561462E-02  0.1235095E+00
          2   -1    0    0  501    0  0.00000000000E+00  0.00000000000E+00  0.68899507253E+03  0.68899507253E+03  0.00000000000E+00 0. -1.
         -2   -1    0    0    0  501 -0.00000000000E+00 -0.00000000000E+00 -0.24483345976E+02  0.24483345976E+02  0.00000000000E+00 0.  1.
         25    2    1    2    0    0  0.66005241808E+02  0.26477523032E+02  0.33260606250E+03  0.36239849902E+03  0.12509247822E+03 0.  0.
          5    1    3    3  502    0 -0.11045712502E+02 -0.37151163318E+02  0.14061509469E+03  0.14591879233E+03  0.41800000000E+01 0.  1.
         -5    1    3    3    0  502  0.77050954310E+02  0.63628686350E+02  0.19199096781E+03  0.21647970669E+03  0.41800000000E+01 0.  1.
        -11    1    1    2    0    0  0.66871239183E+01  0.22396764160E+02  0.11114027751E+03  0.11357153673E+03  0.00000000000E+00 0. -1.
         11    1    1    2    0    0 -0.72692365726E+02 -0.48874287192E+02  0.22076538654E+03  0.23750838275E+03  0.00000000000E+00 0.  1.
</event>
<event>
 7    1  0.2840156E-009  0.9146906E+02  0.7561462E-02  0.1299333E+00
          2   -1    0    0  501    0  0.00000000000E+00  0.00000000000E+00  0.32390960099E+03  0.32390960099E+03  0.00000000000E+00 0.  1.
         -2   -1    0    0    0  501 -0.00000000000E+00 -0.00000000000E+00 -0.38556720628E+02  0.38556720628E+02  0.00000000000E+00 0. -1.
         25    2    1    2    0    0  0.24580081135E+02  0.15951036519E+02  0.13178447025E+03  0.18404310240E+03  0.12508437547E+03 0.  0.
          5    1    3    3  502    0  0.25033261822E+02  0.54875758827E+02  0.17058877092E+02  0.62821101486E+02  0.41800000000E+01 0.  1.
         -5    1    3    3    0  502 -0.45318068639E+00 -0.38924722308E+02  0.11472559316E+03  0.12122200091E+03  0.41800000000E+01 0.  1.
        -11    1    1    2    0    0  0.26698398769E+02 -0.17675017091E+02  0.96540921000E+02  0.10171214359E+03  0.00000000000E+00 0.  1.
         11    1    1    2    0    0 -0.51278479904E+02  0.17239805715E+01  0.57027489115E+02  0.76711075635E+02  0.00000000000E+00 0. -1.
</event>
<event>
 7    1  0.2840156E-009  0.2405753E+03  0.7561462E-02  0.1119410E+00
         -2   -1    0    0    0  501 -0.00000000000E+00  0.00000000000E+00  0.66963707614E+02  0.66963707614E+02  0.00000000000E+00 0. -1.
          2   -1    0    0  501    0  0.00000000000E+00 -0.00000000000E+00 -0.15337904206E+04  0.15337904206E+04  0.00000000000E+00 0.  1.
         25    2    1    2    0    0  0.15029760816E+02  0.23846858607E+03 -0.12042542680E+04  0.12340860924E+04  0.12508789337E+03 0.  0.
          5    1    3    3  502    0 -0.15642645810E+00  0.10129593613E+02 -0.31989407622E+01  0.11416600107E+02  0.41800000000E+01 0. -1.
         -5    1    3    3    0  502  0.15186187274E+02  0.22833899246E+03 -0.12010553273E+04  0.12226694923E+04  0.41800000000E+01 0. -1.
        -11    1    1    2    0    0  0.14611883292E+01 -0.19193368463E+03 -0.25096823556E+03  0.31595210021E+03  0.00000000000E+00 0.  1.
         11    1    1    2    0    0 -0.16490949145E+02 -0.46534901440E+02 -0.11604209455E+02  0.50715935689E+02  0.00000000000E+00 0. -1.
</event>
<event>
 7    1  0.2840156E-009  0.1386592E+03  0.7561462E-02  0.1215145E+00
         -1   -1    0    0    0  501 -0.00000000000E+00  0.00000000000E+00  0.29310891306E+03  0.29310891306E+03  0.00000000000E+00 0.  1.
          1   -1    0    0  501    0  0.00000000000E+00 -0.00000000000E+00 -0.13696315818E+03  0.13696315818E+03  0.00000000000E+00 0. -1.
         25    2    1    2    0    0 -0.10329444569E+03 -0.12401670427E+02 -0.59886033854E+02  0.17337865561E+03  0.12510106806E+03 0.  0.
          5    1    3    3  502    0 -0.75541703853E+02 -0.51387351746E+02  0.62112295691E+01  0.91669300822E+02  0.41800000000E+01 0. -1.
         -5    1    3    3    0  502 -0.27752741839E+02  0.38985681319E+02 -0.66097263423E+02  0.81709354785E+02  0.41800000000E+01 0. -1.
        -11    1    1    2    0    0  0.49139620689E+02  0.51382452980E+02  0.12533321701E+03  0.14409467056E+03  0.00000000000E+00 0.  1.
         11    1    1    2    0    0  0.54154825002E+02 -0.38980782553E+02  0.90698571718E+02  0.11259874507E+03  0.00000000000E+00 0. -1.
</event>
<event>
 7    1  0.2840156E-009  0.1154250E+03  0.7561462E-02  0.1250841E+00
          1   -1    0    0  501    0  0.00000000000E+00  0.00000000000E+00  0.85737757856E+02  0.85737757856E+02  0.00000000000E+00 0. -1.
         -1   -1    0    0    0  501 -0.00000000000E+00 -0.00000000000E+00 -0.25184373941E+03  0.25184373941E+03  0.00000000000E+00 0.  1.
         25    2    1    2    0    0 -0.46571130096E+02 -0.25087328148E+02  0.68503647524E+01  0.13598700680E+03  0.12508914553E+03 0.  0.
          5    1    3    3  502    0 -0.84278076666E+02 -0.41760154300E+02  0.83550113575E+01  0.94519750891E+02  0.41800000000E+01 0.  1.
         -5    1    3    3    0  502  0.37706946570E+02  0.16672826152E+02 -0.15046466051E+01  0.41467255913E+02  0.41800000000E+01 0.  1.
        -11    1    1    2    0    0 -0.47797124477E+01  0.41172650051E+02 -0.11625734568E+03  0.12342529395E+03  0.00000000000E+00 0.  1.
         11    1    1    2    0    0  0.51350842544E+02 -0.16085321903E+02 -0.56699000625E+02  0.78169196507E+02  0.00000000000E+00 0. -1.
</event>
<event>
 7    1  0.2840156E-009  0.2129545E+03  0.7561462E-02  0.1139247E+00
          1   -1    0    0  501    0  0.00000000000E+00  0.00000000000E+00  0.12139108611E+04  0.12139108611E+04  0.00000000000E+00 0. -1.
         -1   -1    0    0    0  501 -0.00000000000E+00 -0.00000000000E+00 -0.80068889526E+02  0.80068889526E+02  0.00000000000E+00 0.  1.
         25    2    1    2    0    0  0.13338677933E+03  0.13964089919E+03  0.10328327158E+04  0.10581503119E+04  0.12508817012E+03 0.  0.
          5    1    3    3  502    0 -0.22776346961E+02  0.46829811350E+01  0.11004708165E+03  0.11255454177E+03  0.41800000000E+01 0.  1.
         -5    1    3    3    0  502  0.15616312629E+03  0.13495791805E+03  0.92278563411E+03  0.94559577018E+03  0.41800000000E+01 0.  1.
        -11    1    1    2    0    0 -0.34014291487E+02 -0.17093536744E+02  0.62892311437E+02  0.73516010920E+02  0.00000000000E+00 0. -1.
         11    1    1    2    0    0 -0.99372487840E+02 -0.12254736245E+03  0.38116944378E+02  0.16231342776E+03  0.00000000000E+00 0.  1.
</event>
<event>
 7    1  0.2840156E-009  0.9017727E+02  0.7561462E-02  0.1302423E+00
         -1   -1    0    0    0  501 -0.00000000000E+00  0.00000000000E+00  0.44325493138E+02  0.44325493138E+02  0.00000000000E+00 0.  1.
          1   -1    0    0  501    0  0.00000000000E+00 -0.00000000000E+00 -0.32698284721E+03  0.32698284721E+03  0.00000000000E+00 0. -1.
         25    2    1    2    0    0 -0.30349414947E+02 -0.81543473781E+01 -0.92833779497E+02  0.15891490317E+03  0.12509298728E+03 0.  0.
          5    1    3    3  502    0  0.20365335936E+02 -0.40078758487E+02 -0.87680417077E+02  0.98622420010E+02  0.41800000000E+01 0. -1.
         -5    1    3    3    0  502 -0.50714750883E+02  0.31924411109E+02 -0.51533624201E+01  0.60292483164E+02  0.41800000000E+01 0. -1.
        -11    1    1    2    0    0  0.47349748121E+02  0.22928996700E+02 -0.56579665556E+02  0.77259278350E+02  0.00000000000E+00 0.  1.
         11    1    1    2    0    0 -0.17000333174E+02 -0.14774649322E+02 -0.13324390902E+03  0.13513415882E+03  0.00000000000E+00 0. -1.
</event>
<event>
 7    1  0.2840156E-009  0.1172618E+03  0.7561462E-02  0.1247684E+00
          1   -1    0    0  501    0  0.00000000000E+00  0.00000000000E+00  0.22109618037E+03  0.22109618037E+03  0.00000000000E+00 0. -1.
         -1   -1    0    0    0  501 -0.00000000000E+00 -0.00000000000E+00 -0.85021479895E+02  0.85021479895E+02  0.00000000000E+00 0.  1.
         25    2    1    2    0    0  0.23341763914E+02  0.77983025494E+02  0.88478193757E+02  0.17349783359E+03  0.12508763841E+03 0.  0.
          5    1    3    3  502    0 -0.26634232389E+02 -0.23644742581E+02  0.19293934789E+02  0.40720811710E+02  0.41800000000E+01 0.  1.
         -5    1    3    3    0  502  0.49975996303E+02  0.10162776808E+03  0.69184258968E+02  0.13277702188E+03  0.41800000000E+01 0.  1.
        -11    1    1    2    0    0 -0.20648782120E+02 -0.25628628633E+02 -0.26221661828E+02  0.42080569836E+02  0.00000000000E+00 0.  1.
         11    1    1    2    0    0 -0.26929817939E+01 -0.52354396861E+02  0.73818168548E+02  0.90539256842E+02  0.00000000000E+00 0. -1.
</event>
<event>
 7    1  0.2840156E-009  0.8969718E+02  0.7561462E-02  0.1303587E+00
          1   -1    0    0  501    0  0.00000000000E+00  0.00000000000E+00  0.18257107457E+03  0.18257107457E+03  0.00000000000E+00 0. -1.
         -1   -1    0    0    0  501 -0.00000000000E+00 -0.00000000000E+00 -0.14557482915E+03  0.14557482915E+03  0.00000000000E+00 0.  1.
         25    2    1    2    0    0 -0.45793109641E+02  0.61667167754E+02 -0.75220061954E+02  0.16493862179E+03  0.12508734056E+03 0.  0.
          5    1    3    3  502    0  0.11709867576E+02  0.35973076908E+02 -0.92053391702E+02  0.99611658879E+02  0.41800000000E+01 0.  1.
         -5    1    3    3    0  502 -0.57502977217E+02  0.25694090847E+02  0.16833329748E+02  0.65326962915E+02  0.41800000000E+01 0.  1.
        -11    1    1    2    0    0  0.27513476631E+02 -0.24706956458E+02  0.11604694836E+03  0.12179622046E+03  0.00000000000E+00 0. -1.
         11    1    1    2    0    0  0.18279633011E+02 -0.36960211296E+02 -0.38306409907E+01  0.41411061475E+02  0.00000000000E+00 0.  1.
</event>
<event>
 7    1  0.2840156E-009  0.1458010E+03  0.7561462E-02  0.1205730E+00
         -2   -1    0    0    0  501 -0.00000000000E+00  0.00000000000E+00  0.10132708396E+03  0.10132708396E+03  0.00000000000E+00 0. -1.
          2   -1    0    0  501    0  0.00000000000E+00 -0.00000000000E+00 -0.17755325094E+04  0.17755325094E+04  0.00000000000E+00 0.  1.
         25    2    1    2    0    0  0.72268546269E+02 -0.10145021883E+03 -0.17095994813E+04  0.17186894056E+04  0.12509195333E+03 0.  0.
          5    1    3    3  502    0 -0.24385534650E+02  0.26554280742E+01 -0.10953362180E+03  0.11232449557E+03  0.41800000000E+01 0. -1.
         -5    1    3    3    0  502  0.96654080919E+02 -0.10410564691E+03 -0.16000658595E+04  0.16063649100E+04  0.41800000000E+01 0. -1.
        -11    1    1    2    0    0 -0.28868351741E+02  0.43281298409E+02 -0.30361297157E+02  0.60236707158E+02  0.00000000000E+00 0.  1.
         11    1    1    2    0    0 -0.43400194528E+02  0.58168920425E+02  0.65755352965E+02  0.97933480649E+02  0.00000000000E+00 0. -1.
</event>
<event>
 7    1  0.2840156E-009  0.2903005E+03  0.7561462E-02  0.1090192E+00
         -2   -1    0    0    0  501 -0.00000000000E+00  0.00000000000E+00  0.89530054423E+02  0.89530054423E+02  0.00000000000E+00 0.  1.
          2   -1    0    0  501    0  0.00000000000E+00 -0.00000000000E+00 -0.10142651061E+04  0.10142651061E+04  0.00000000000E+00 0. -1.
         25    2    1    2    0    0 -0.15921888120E+02  0.27882155359E+03 -0.51031392897E+03  0.59503068055E+03  0.12508492888E+03 0.  0.
          5    1    3    3  502    0 -0.63786711701E+02  0.15258211876E+03 -0.33590880727E+03  0.37443590474E+03  0.41800000000E+01 0. -1.
         -5    1    3    3    0  502  0.47864823581E+02  0.12623943483E+03 -0.17440512169E+03  0.22059477581E+03  0.41800000000E+01 0. -1.
        -11    1    1    2    0    0  0.15897413233E+02 -0.98523371280E+02 -0.76472754023E+02  0.12572853512E+03  0.00000000000E+00 0.  1.
         11    1    1    2    0    0  0.24474886493E-01 -0.18029818231E+03 -0.33794836864E+03  0.38303594480E+03  0.00000000000E+00 0. -1.
</event>
<event>
 7    1  0.2840156E-009  0.1117225E+03  0.7561462E-02  0.1257413E+00
         -1   -1    0    0    0  501 -0.00000000000E+00  0.00000000000E+00  0.20246187569E+03  0.20246187569E+03  0.00000000000E+00 0.  1.
          1   -1    0    0  501    0  0.00000000000E+00 -0.00000000000E+00 -0.76822625992E+02  0.76822625992E+02  0.00000000000E+00 0. -1.
         25    2    1    2    0    0 -0.41009379177E+02 -0.19587570955E+01  0.18213721140E+02  0.13290772835E+03  0.12508844354E+03 0.  0.
          5    1    3    3  502    0 -0.37518863339E+01 -0.60506363831E+02 -0.10143363661E+01  0.60774978349E+02  0.41800000000E+01 0.  1.
         -5    1    3    3    0  502 -0.37257492843E+02  0.58547606735E+02  0.19228057506E+02  0.72132750002E+02  0.41800000000E+01 0.  1.
        -11    1    1    2    0    0 -0.36427732109E+01  0.36513450286E+02  0.18635696242E+02  0.41155692472E+02  0.00000000000E+00 0. -1.
         11    1    1    2    0    0  0.44652152387E+02 -0.34554693191E+02  0.88789832312E+02  0.10522108086E+03  0.00000000000E+00 0.  1.
</event>
<event>
 7    1  0.2840156E-009  0.1016028E+03  0.7561462E-02  0.1276961E+00
         -1   -1    0    0    0  501 -0.00000000000E+00  0.00000000000E+00  0.14111570894E+03  0.14111570894E+03  0.00000000000E+00 0.  1.
          1   -1    0    0  501    0  0.00000000000E+00 -0.00000000000E+00 -0.85168829288E+02  0.85168829288E+02  0.00000000000E+00 0. -1.
         25    2    1    2    0    0  0.14465229397E+02 -0.10076080839E+02  0.23868406660E+02  0.12856198475E+03  0.12509081829E+03 0.  0.
          5    1    3    3  502    0  0.43241364739E+01 -0.65904999667E+02 -0.16632757355E+01  0.66199743379E+02  0.41800000000E+01 0.  1.
         -5    1    3    3    0  502  0.10141092923E+02  0.55828918828E+02  0.25531682395E+02  0.62362241373E+02  0.41800000000E+01 0.  1.
        -11    1    1    2    0    0  0.32428063759E+02  0.15241182768E+01  0.37670474452E+02  0.49728934244E+02  0.00000000000E+00 0.  1.
         11    1    1    2    0    0 -0.46893293155E+02  0.85519625620E+01 -0.55920014583E+01  0.47993619231E+02  0.00000000000E+00 0. -1.
</event>
<event>
 7    1  0.2840156E-009  0.1091728E+03  0.7561462E-02  0.1262109E+00
          3   -1    0    0  501    0  0.00000000000E+00  0.00000000000E+00  0.77679853345E+02  0.77679853345E+02  0.00000000000E+00 0. -1.
         -3   -1    0    0    0  501 -0.00000000000E+00 -0.00000000000E+00 -0.22849718893E+03  0.22849718893E+03  0.00000000000E+00 0.  1.
         25    2    1    2    0    0  0.68037855358E+02  0.14250398813E+02 -0.42844202407E+02  0.14938144445E+03  0.12508783569E+03 0.  0.
          5    1    3    3  502    0  0.98281440023E+02 -0.55905468744E+01 -0.52593367444E+02  0.11168719876E+03  0.41800000000E+01 0. -1.
         -5    1    3    3    0  502 -0.30243584665E+02  0.19840945688E+02  0.97491650367E+01  0.37694245689E+02  0.41800000000E+01 0. -1.
        -11    1    1    2    0    0 -0.47795902477E+02 -0.31137555879E+02 -0.13371846191E+02  0.58590118196E+02  0.00000000000E+00 0. -1.
         11    1    1    2    0    0 -0.20241952881E+02  0.16887157065E+02 -0.94601286986E+02  0.98205479632E+02  0.00000000000E+00 0.  1.
</event>
<event>
 7    1  0.2840156E-009  0.1038500E+03  0.7561462E-02  0.1272402E+00
         -2   -1    0    0    0  501 -0.00000000000E+00  0.00000000000E+00  0.17823610237E+02  0.17823610237E+02  0.00000000000E+00 0.  1.
          2   -1    0    0  501    0  0.00000000000E+00 -0.00000000000E+00 -0.10617344539E+04  0.10617344539E+04  0.00000000000E+00 0. -1.
         25    2    1    2    0    0  0.22272456243E+02 -0.14184712932E+02 -0.88179641412E+03  0.89101661286E+03  0.12509364511E+03 0.  0.
          5    1    3    3  502    0 -0.25141920630E+02  0.44222128318E+02 -0.42403603279E+03  0.42709687697E+03  0.41800000000E+01 0. -1.
         -5    1    3    3    0  502  0.47414376872E+02 -0.58406841249E+02 -0.45776038132E+03  0.46391973589E+03  0.41800000000E+01 0. -1.
        -11    1    1    2    0    0  0.35981534303E+01  0.42676974604E+02 -0.13455396091E+03  0.14120566301E+03  0.00000000000E+00 0.  1.
         11    1    1    2    0    0 -0.25870609673E+02 -0.28492261672E+02 -0.27560468638E+02  0.47335788275E+02  0.00000000000E+00 0. -1.
</event>
<event>
 7    1  0.2840156E-009  0.1298651E+03  0.7561462E-02  0.1227656E+00
          2   -1    0    0  501    0  0.00000000000E+00  0.00000000000E+00  0.72418296698E+03  0.72418296698E+03  0.00000000000E+00 0. -1.
         -2   -1    0    0    0  501 -0.00000000000E+00 -0.00000000000E+00 -0.28020912520E+02  0.28020912520E+02  0.00000000000E+00 0.  1.
         25    2    1    2    0    0  0.36822001322E+02 -0.78245516477E+02  0.46567607588E+03  0.48987729868E+03  0.12508932602E+03 0.  0.
          5    1    3    3  502    0 -0.32663892664E+02 -0.48091373613E+01  0.24326105240E+03  0.24552692256E+03  0.41800000000E+01 0. -1.
         -5    1    3    3    0  502  0.69485893986E+02 -0.73436379116E+02  0.22241502347E+03  0.24435037612E+03  0.41800000000E+01 0. -1.
        -11    1    1    2    0    0 -0.62589066704E+02  0.27525177703E+02  0.12524841398E+03  0.14269615231E+03  0.00000000000E+00 0.  1.
         11    1    1    2    0    0  0.25767065382E+02  0.50720338774E+02  0.10523756460E+03  0.11963042852E+03  0.00000000000E+00 0. -1.
</event>
<event>
 7    1  0.2840156E-009  0.1690352E+03  0.7561462E-02  0.1178858E+00
         -2   -1    0    0    0  501 -0.00000000000E+00  0.00000000000E+00  0.32485892314E+02  0.32485892314E+02  0.00000000000E+00 0.  1.
          2   -1    0    0  501    0  0.00000000000E+00 -0.00000000000E+00 -0.10768847032E+04  0.10768847032E+04  0.00000000000E+00 0. -1.
         25    2    1    2    0    0  0.90951468050E+02 -0.10846434849E+03 -0.38940881635E+03  0.43280903101E+03  0.12509095347E+03 0.  0.
          5    1    3    3  502    0  0.52684374903E+02  0.34601972145E+01 -0.21910169729E+03  0.22541216133E+03  0.41800000000E+01 0.  1.
         -5    1    3    3    0  502  0.38267093148E+02 -0.11192454570E+03 -0.17030711906E+03  0.20739686967E+03  0.41800000000E+01 0.  1.
        -11    1    1    2    0    0 -0.49849991712E+02  0.11480447025E+03 -0.53901720985E+03  0.55335760641E+03  0.00000000000E+00 0. -1.
         11    1    1    2    0    0 -0.41101476338E+02 -0.63401217619E+01 -0.11597278471E+03  0.12320395811E+03  0.00000000000E+00 0.  1.
</event>
<event>
 7    1  0.2840156E-009  0.1243448E+03  0.7561462E-02  0.1236097E+00
          3   -1    0    0  501    0  0.00000000000E+00  0.00000000000E+00  0.89301658014E+02  0.89301658014E+02  0.00000000000E+00 0. -1.
         -3   -1    0    0    0  501 -0.00000000000E+00 -0.00000000000E+00 -0.25855956445E+03  0.25855956445E+03  0.00000000000E+00 0.  1.
         25    2    1    2    0    0 -0.57478934028E+02 -0.86621844535E+02 -0.11739887424E+03  0.20059219111E+03  0.12509020606E+03 0.  0.
          5    1    3    3  502    0 -0.13361112512E+02  0.90873873589E+01  0.20848166128E+02  0.26706148495E+02  0.41800000000E+01 0. -1.
         -5    1    3    3    0  502 -0.44117821516E+02 -0.95709231894E+02 -0.13824704037E+03  0.17388604261E+03  0.41800000000E+01 0. -1.
        -11    1    1    2    0    0  0.36089656621E+02 -0.12293827056E+01 -0.43397573930E+02  0.56456391311E+02  0.00000000000E+00 0. -1.
         11    1    1    2    0    0  0.21389277407E+02  0.87851227241E+02 -0.84614582637E+01  0.90812640043E+02  0.00000000000E+00 0.  1.
</event>
<event>
 7    1  0.2840156E-009  0.1590735E+03  0.7561462E-02  0.1189747E+00
          1   -1    0    0  501    0  0.00000000000E+00  0.00000000000E+00  0.92839498010E+02  0.92839498010E+02  0.00000000000E+00 0. -1.
         -1   -1    0    0    0  501 -0.00000000000E+00 -0.00000000000E+00 -0.38167796363E+03  0.38167796363E+03  0.00000000000E+00 0.  1.
         25    2    1    2    0    0 -0.10836179002E+03  0.46601242411E+02 -0.28522563154E+02  0.17428904550E+03  0.12509668837E+03 0.  0.
          5    1    3    3  502    0  0.26083792665E+02  0.20279963003E+02 -0.15115897146E+02  0.36573267365E+02  0.41800000000E+01 0. -1.
         -5    1    3    3    0  502 -0.13444558269E+03  0.26321279408E+02 -0.13406666008E+02  0.13771577813E+03  0.41800000000E+01 0. -1.
        -11    1    1    2    0    0  0.68006540989E+02  0.19134772849E+02 -0.14773330967E+03  0.16375640425E+03  0.00000000000E+00 0.  1.
         11    1    1    2    0    0  0.40355249032E+02 -0.65736015259E+02 -0.11258259280E+03  0.13647201189E+03  0.00000000000E+00 0. -1.
</event>
<event>
 7    1  0.2840156E-009  0.9336521E+02  0.7561462E-02  0.1294901E+00
          2   -1    0    0  501    0  0.00000000000E+00  0.00000000000E+00  0.13365238241E+04  0.13365238241E+04  0.00000000000E+00 0. -1.
         -2   -1    0    0    0  501 -0.00000000000E+00 -0.00000000000E+00 -0.14541135207E+02  0.14541135207E+02  0.00000000000E+00 0.  1.
         25    2    1    2    0    0  0.22378087195E+02 -0.49700252432E+02  0.10653627142E+04  0.10740633780E+04  0.12507411119E+03 0.  0.
          5    1    3    3  502    0  0.44980680354E+02 -0.19931781019E+01  0.88326972250E+03  0.88442642964E+03  0.41800000000E+01 0. -1.
         -5    1    3    3    0  502 -0.22602593158E+02 -0.47707074330E+02  0.18209299166E+03  0.18963694833E+03  0.41800000000E+01 0. -1.
        -11    1    1    2    0    0  0.19992493608E+02  0.40547397001E+02  0.57115278450E+02  0.72841926365E+02  0.00000000000E+00 0.  1.
         11    1    1    2    0    0 -0.42370580803E+02  0.91528554316E+01  0.19950469629E+03  0.20415965498E+03  0.00000000000E+00 0. -1.
</event>
<event>
 7    1  0.2840156E-009  0.6963736E+02  0.7561462E-02  0.1361331E+00
         -1   -1    0    0    0  501 -0.00000000000E+00  0.00000000000E+00  0.10241876275E+03  0.10241876275E+03  0.00000000000E+00 0.  1.
          1   -1    0    0  501    0  0.00000000000E+00 -0.00000000000E+00 -0.19070280722E+03  0.19070280722E+03  0.00000000000E+00 0. -1.
         25    2    1    2    0    0  0.78726041120E+01 -0.52964357127E+01  0.43382643593E+02  0.13273451454E+03  0.12508544063E+03 0.  0.
          5    1    3    3  502    0  0.45954848433E+01 -0.26408727402E+02  0.83114040311E+02  0.87429717263E+02  0.41800000000E+01 0.  1.
         -5    1    3    3    0  502  0.32771192687E+01  0.21112291689E+02 -0.39731396717E+02  0.45304797275E+02  0.41800000000E+01 0.  1.
        -11    1    1    2    0    0 -0.21848724815E+02  0.44054057169E+02 -0.84434880319E+02  0.97710673642E+02  0.00000000000E+00 0.  1.
         11    1    1    2    0    0  0.13976120703E+02 -0.38757621456E+02 -0.47231807746E+02  0.62676381786E+02  0.00000000000E+00 0. -1.
</event>
<event>
 7    1  0.2840156E-009  0.1143401E+03  0.7561462E-02  0.1252737E+00
         -1   -1    0    0    0  501 -0.00000000000E+00  0.00000000000E+00  0.57026039021E+02  0.57026039021E+02  0.00000000000E+00 0.  1.
          1   -1    0    0  501    0  0.00000000000E+00 -0.00000000000E+00 -0.31187616264E+03  0.31187616264E+03  0.00000000000E+00 0. -1.
         25    2    1    2    0    0  0.60857223180E+02 -0.46287176075E+02 -0.15336127510E+03  0.21216193061E+03  0.12508756859E+03 0.  0.
          5    1    3    3  502    0 -0.20168076365E+02  0.16943933869E+02 -0.83913930732E+02  0.88050374049E+02  0.41800000000E+01 0. -1.
         -5    1    3    3    0  502  0.81025299545E+02 -0.63231109944E+02 -0.69447344369E+02  0.12411155656E+03  0.41800000000E+01 0. -1.
        -11    1    1    2    0    0 -0.40311672159E+02 -0.80035952684E+01 -0.88031244210E+02  0.97152397843E+02  0.00000000000E+00 0. -1.
         11    1    1    2    0    0 -0.20545551022E+02  0.54290771343E+02 -0.13457604303E+02  0.59587873208E+02  0.00000000000E+00 0.  1.
</event>
<event>
 7    1  0.2840156E-009  0.1893811E+03  0.7561462E-02  0.1159021E+00
         -2   -1    0    0    0  501 -0.00000000000E+00  0.00000000000E+00  0.28345875499E+02  0.28345875499E+02  0.00000000000E+00 0.  1.
          2   -1    0    0  501    0  0.00000000000E+00 -0.00000000000E+00 -0.14503068044E+04  0.14503068044E+04  0.00000000000E+00 0. -1.
         25    2    1    2    0    0 -0.61634506842E+02 -0.14274797700E+03 -0.48675064725E+03  0.52607015531E+03  0.12509124003E+03 0.  0.
          5    1    3    3  502    0 -0.21539509948E+02 -0.15456193685E+03 -0.40739973604E+03  0.43628586974E+03  0.41800000000E+01 0.  1.
         -5    1    3    3    0  502 -0.40094996894E+02  0.11813959857E+02 -0.79350911215E+02  0.89784285563E+02  0.41800000000E+01 0.  1.
        -11    1    1    2    0    0 -0.16200941300E+02  0.77207105674E+02 -0.44205079552E+03  0.44903486889E+03  0.00000000000E+00 0. -1.
         11    1    1    2    0    0  0.77835448141E+02  0.65540871322E+02 -0.49315948615E+03  0.50354765572E+03  0.00000000000E+00 0.  1.
</event>
<event>
 7    1  0.2840156E-009  0.1386588E+03  0.7561462E-02  0.1215145E+00
         -1   -1    0    0    0  501 -0.00000000000E+00  0.00000000000E+00  0.59440234304E+02  0.59440234304E+02  0.00000000000E+00 0.  1.
          1   -1    0    0  501    0  0.00000000000E+00 -0.00000000000E+00 -0.41014792240E+03  0.41014792240E+03  0.00000000000E+00 0. -1.
         25    2    1    2    0    0  0.48701459309E+02 -0.77074821834E+02 -0.28821898197E+03  0.32715412458E+03  0.12508908572E+03 0.  0.
          5    1    3    3  502    0  0.21258530716E+02 -0.10739890771E+03 -0.17253809403E+03  0.20438521668E+03  0.41800000000E+01 0. -1.
         -5    1    3    3    0  502  0.27442928593E+02  0.30324085877E+02 -0.11568088794E+03  0.12276890790E+03  0.41800000000E+01 0. -1.
        -11    1    1    2    0    0  0.23640791926E+02  0.42969601335E+01 -0.41184862980E+01  0.24378532332E+02  0.00000000000E+00 0.  1.
         11    1    1    2    0    0 -0.72342251235E+02  0.72777861701E+02 -0.58370219834E+02  0.11805549979E+03  0.00000000000E+00 0. -1.
</event>
<event>
 7    1  0.2840156E-009  0.8547557E+02  0.7561462E-02  0.1314194E+00
         -2   -1    0    0    0  501 -0.00000000000E+00  0.00000000000E+00  0.15057384662E+03  0.15057384662E+03  0.00000000000E+00 0.  1.
          2   -1    0    0  501    0  0.00000000000E+00 -0.00000000000E+00 -0.93718246951E+02  0.93718246951E+02  0.00000000000E+00 0. -1.
         25    2    1    2    0    0 -0.33884487194E+02  0.20031339753E+01  0.65373139745E+02  0.14516410174E+03  0.12508716168E+03 0.  0.
          5    1    3    3  502    0 -0.23496899673E+02 -0.32583463703E+02 -0.25173798301E+02  0.47591794693E+02  0.41800000000E+01 0.  1.
         -5    1    3    3    0  502 -0.10387587521E+02  0.34586597679E+02  0.90546938047E+02  0.97572307050E+02  0.41800000000E+01 0.  1.
        -11    1    1    2    0    0  0.23277369479E+02  0.42500853308E+02  0.10499812464E+02  0.49582300507E+02  0.00000000000E+00 0.  1.
         11    1    1    2    0    0  0.10607117716E+02 -0.44503987283E+02 -0.19017352544E+02  0.49545691318E+02  0.00000000000E+00 0. -1.
</event>
<event>
 7    1  0.2840156E-009  0.6583933E+02  0.7561462E-02  0.1374842E+00
         -1   -1    0    0    0  501 -0.00000000000E+00  0.00000000000E+00  0.28214759039E+02  0.28214759039E+02  0.00000000000E+00 0.  1.
          1   -1    0    0  501    0  0.00000000000E+00 -0.00000000000E+00 -0.46586998434E+03  0.46586998434E+03  0.00000000000E+00 0. -1.
         25    2    1    2    0    0  0.10837932046E+02  0.33899114222E+02 -0.26616915242E+03  0.29625131402E+03  0.12510880321E+03 0.  0.
          5    1    3    3  502    0  0.28248863285E+02  0.37661375836E+02 -0.27274425741E+03  0.27680910363E+03  0.41800000000E+01 0.  1.
         -5    1    3    3    0  502 -0.17410931239E+02 -0.37622616140E+01  0.65751049850E+01  0.19442210385E+02  0.41800000000E+01 0.  1.
        -11    1    1    2    0    0 -0.15548632578E+02  0.12209685353E+02  0.43489210116E+00  0.19774365290E+02  0.00000000000E+00 0.  1.
         11    1    1    2    0    0  0.47107005322E+01 -0.46108799575E+02 -0.17192096498E+03  0.17805906407E+03  0.00000000000E+00 0. -1.
</event>
<event>
 7    1  0.2840156E-009  0.2343048E+03  0.7561462E-02  0.1123646E+00
          2   -1    0    0  501    0  0.00000000000E+00  0.00000000000E+00  0.29793882317E+03  0.29793882317E+03  0.00000000000E+00 0. -1.
         -2   -1    0    0    0  501 -0.00000000000E+00 -0.00000000000E+00 -0.19642280079E+03  0.19642280079E+03  0.00000000000E+00 0.  1.
         25    2    1    2    0    0  0.19566927006E+03 -0.81438166271E+02  0.10016374905E+03  0.26570518799E+03  0.12509129518E+03 0.  0.
          5    1    3    3  502    0  0.16066180707E+02 -0.56153270467E+02  0.51221144361E+02  0.77797107763E+02  0.41800000000E+01 0. -1.
         -5    1    3    3    0  502  0.17960308936E+03 -0.25284895804E+02  0.48942604693E+02  0.18790808023E+03  0.41800000000E+01 0. -1.
        -11    1    1    2    0    0 -0.15713481825E+03  0.99589459990E+02  0.23047565111E+01  0.18605032532E+03  0.00000000000E+00 0. -1.
         11    1    1    2    0    0 -0.38534451811E+02 -0.18151293719E+02 -0.95248318260E+00  0.42606110645E+02  0.00000000000E+00 0.  1.
</event>
<event>
 7    1  0.2840156E-009  0.1175904E+03  0.7561462E-02  0.1247126E+00
         -1   -1    0    0    0  501 -0.00000000000E+00  0.00000000000E+00  0.67771865976E+02  0.67771865976E+02  0.00000000000E+00 0.  1.
          1   -1    0    0  501    0  0.00000000000E+00 -0.00000000000E+00 -0.32935271795E+03  0.32935271795E+03  0.00000000000E+00 0. -1.
         25    2    1    2    0    0 -0.72434170369E+02  0.43282440873E+02 -0.22040679899E+03  0.26710779552E+03  0.12508932273E+03 0.  0.
          5    1    3    3  502    0 -0.20833529163E+02  0.55676320248E+02 -0.20227666741E+03  0.21087249975E+03  0.41800000000E+01 0.  1.
         -5    1    3    3    0  502 -0.51600641205E+02 -0.12393879375E+02 -0.18130131578E+02  0.56235295765E+02  0.41800000000E+01 0.  1.
        -11    1    1    2    0    0  0.59143703265E+02  0.16267300439E+02 -0.12502826897E+02  0.62601304938E+02  0.00000000000E+00 0.  1.
         11    1    1    2    0    0  0.13290467103E+02 -0.59549741312E+02 -0.28671226089E+02  0.67415483471E+02  0.00000000000E+00 0. -1.
</event>
<event>
 7    1  0.2840156E-009  0.9640237E+02  0.7561462E-02  0.1288048E+00
         -2   -1    0    0    0  501 -0.00000000000E+00  0.00000000000E+00  0.37621481187E+02  0.37621481187E+02  0.00000000000E+00 0.  1.
          2   -1    0    0  501    0  0.00000000000E+00 -0.00000000000E+00 -0.47902174316E+03  0.47902174316E+03  0.00000000000E+00 0. -1.
         25    2    1    2    0    0  0.12097422249E+01  0.48362899703E+02 -0.36537646394E+03  0.38921499929E+03  0.12509165330E+03 0.  0.
          5    1    3    3  502    0  0.29840740128E+02  0.61777849147E+02 -0.96628570975E+02  0.11858130352E+03  0.41800000000E+01 0.  1.
         -5    1    3    3    0  502 -0.28630997903E+02 -0.13414949444E+02 -0.26874789297E+03  0.27063369577E+03  0.41800000000E+01 0.  1.
        -11    1    1    2    0    0 -0.38731742387E+02 -0.35420194416E+02 -0.14920554268E+02  0.54565199353E+02  0.00000000000E+00 0.  1.
         11    1    1    2    0    0  0.37522000162E+02 -0.12942705287E+02 -0.61103243762E+02  0.72863025703E+02  0.00000000000E+00 0. -1.
</event>
<event>
 7    1  0.2840156E-009  0.9316307E+02  0.7561462E-02  0.1295368E+00
         -4   -1    0    0    0  501 -0.00000000000E+00  0.00000000000E+00  0.19404781411E+03  0.19404781411E+03  0.00000000000E+00 0.  1.
          4   -1    0    0  501    0  0.00000000000E+00 -0.00000000000E+00 -0.84756661764E+02  0.84756661764E+02  0.00000000000E+00 0. -1.
         25    2    1    2    0    0 -0.68894058481E+01  0.49499727095E+02  0.10362612854E+02  0.13510741950E+03  0.12509573999E+03 0.  0.
          5    1    3    3  502    0  0.30005872365E+02  0.17891491971E+02  0.57419513310E+02  0.67341894614E+02  0.41800000000E+01 0. -1.
         -5    1    3    3    0  502 -0.36895278213E+02  0.31608235124E+02 -0.47056900456E+02  0.67765524883E+02  0.41800000000E+01 0. -1.
        -11    1    1    2    0    0 -0.10073208635E+01 -0.75346328300E+02  0.60080853492E+02  0.96373195651E+02  0.00000000000E+00 0. -1.
         11    1    1    2    0    0  0.78967267116E+01  0.25846601205E+02  0.38847686004E+02  0.47323860731E+02  0.00000000000E+00 0.  1.
</event>
<event>
 7    1  0.2840156E-009  0.1464596E+03  0.7561462E-02  0.1204892E+00
          2   -1    0    0  501    0  0.00000000000E+00  0.00000000000E+00  0.23473558824E+03  0.23473558824E+03  0.00000000000E+00 0.  1.
         -2   -1    0    0    0  501 -0.00000000000E+00 -0.00000000000E+00 -0.10611914812E+03  0.10611914812E+03  0.00000000000E+00 0. -1.
         25    2    1    2    0    0  0.63717696725E+02  0.84688609893E+02  0.23354713563E+02  0.16560570204E+03  0.12509076857E+03 0.  0.
          5    1    3    3  502    0  0.60301809147E+02  0.11097135650E+03 -0.51345968632E+01  0.12647049710E+03  0.41800000000E+01 0. -1.
         -5    1    3    3    0  502  0.34158875778E+01 -0.26282746611E+02  0.28489310427E+02  0.39135204943E+02  0.41800000000E+01 0. -1.
        -11    1    1    2    0    0 -0.14318728293E+02  0.19630285069E+02  0.23481544244E+02  0.33789894819E+02  0.00000000000E+00 0.  1.
         11    1    1    2    0    0 -0.49398968432E+02 -0.10431889496E+03  0.81780182308E+02  0.14145913950E+03  0.00000000000E+00 0. -1.
</event>
<event>
 7    1  0.2840156E-009  0.1117209E+03  0.7561462E-02  0.1257416E+00
         -2   -1    0    0    0  501 -0.00000000000E+00  0.00000000000E+00  0.26184183103E+02  0.26184183103E+02  0.00000000000E+00 0.  1.
          2   -1    0    0  501    0  0.00000000000E+00 -0.00000000000E+00 -0.75269416765E+03  0.75269416765E+03  0.00000000000E+00 0. -1.
         25    2    1    2    0    0  0.75134423084E+02 -0.42003419180E+02 -0.45282859274E+03  0.47760982153E+03  0.12509172019E+03 0.  0.
          5    1    3    3  502    0  0.46775448804E+02 -0.49131771962E+02 -0.86097410842E+02  0.10969097584E+03  0.41800000000E+01 0. -1.
         -5    1    3    3    0  502  0.28358974280E+02  0.71283527819E+01 -0.36673118190E+03  0.36791884569E+03  0.41800000000E+01 0. -1.
        -11    1    1    2    0    0 -0.78971037618E+02  0.65210819185E+02 -0.22165384386E+03  0.24417064160E+03  0.00000000000E+00 0. -1.
         11    1    1    2    0    0  0.38366145333E+01 -0.23207400005E+02 -0.52027547943E+02  0.57097887623E+02  0.00000000000E+00 0.  1.
</event>
<event>
 7    1  0.2840156E-009  0.1235108E+03  0.7561462E-02  0.1237415E+00
          1   -1    0    0  501    0  0.00000000000E+00  0.00000000000E+00  0.21836397930E+03  0.21836397930E+03  0.00000000000E+00 0. -1.
         -1   -1    0    0    0  501 -0.00000000000E+00 -0.00000000000E+00 -0.10634248101E+03  0.10634248101E+03  0.00000000000E+00 0.  1.
         25    2    1    2    0    0  0.47094639973E+02 -0.74951491500E+02  0.12357519347E+03  0.19685636961E+03  0.12508385436E+03 0.  0.
          5    1    3    3  502    0  0.86736693044E+02 -0.29650481658E+02  0.62656954115E+02  0.11111152632E+03  0.41800000000E+01 0. -1.
         -5    1    3    3    0  502 -0.39642053070E+02 -0.45301009841E+02  0.60918239351E+02  0.85744843285E+02  0.41800000000E+01 0. -1.
        -11    1    1    2    0    0 -0.49491672056E+02  0.51792732240E+02  0.32003295687E+02  0.78460968963E+02  0.00000000000E+00 0. -1.
         11    1    1    2    0    0  0.23970320824E+01  0.23158759260E+02 -0.43556990866E+02  0.49389121744E+02  0.00000000000E+00 0.  1.
</event>
<event>
 7    1  0.2840156E-009  0.1186027E+03  0.7561462E-02  0.1245420E+00
          2   -1    0    0  501    0  0.00000000000E+00  0.00000000000E+00  0.59954809122E+02  0.59954809122E+02  0.00000000000E+00 0.  1.
         -2   -1    0    0    0  501 -0.00000000000E+00 -0.00000000000E+00 -0.29504581658E+03  0.29504581658E+03  0.00000000000E+00 0. -1.
         25    2    1    2    0    0  0.38999381047E+02  0.72844224215E+02 -0.12603277785E+03  0.19585372846E+03  0.12508872505E+03 0.  0.
          5    1    3    3  502    0  0.73535916422E+02  0.77898860278E+02 -0.64861109705E+02  0.12530043651E+03  0.41800000000E+01 0. -1.
         -5    1    3    3    0  502 -0.34536535375E+02 -0.50546360629E+01 -0.61171668149E+02  0.70553291954E+02  0.41800000000E+01 0. -1.
        -11    1    1    2    0    0 -0.13392627009E+02 -0.67332806127E+02 -0.28315657064E+02  0.74262006936E+02  0.00000000000E+00 0.  1.
         11    1    1    2    0    0 -0.25606754038E+02 -0.55114180877E+01 -0.80742572542E+02  0.84884890307E+02  0.00000000000E+00 0. -1.
</event>
<event>
 7    1  0.2840156E-009  0.8233158E+02  0.7561462E-02  0.1322562E+00
          1   -1    0    0  501    0  0.00000000000E+00  0.00000000000E+00  0.75114683855E+02  0.75114683855E+02  0.00000000000E+00 0. -1.
         -1   -1    0    0    0  501 -0.00000000000E+00 -0.00000000000E+00 -0.15800669570E+03  0.15800669570E+03  0.00000000000E+00 0.  1.
         25    2    1    2    0    0 -0.55373885914E+01 -0.82193806120E+01 -0.27319413540E+02  0.12841998912E+03  0.12508845814E+03 0.  0.
          5    1    3    3  502    0  0.91461566341E+00 -0.48277533117E+02 -0.59301233955E+02  0.76587632646E+02  0.41800000000E+01 0. -1.
         -5    1    3    3    0  502 -0.64520042548E+01  0.40058152505E+02  0.31981820415E+02  0.51832356479E+02  0.41800000000E+01 0. -1.
        -11    1    1    2    0    0  0.20439575081E+02  0.37411754290E+02 -0.29845638084E+01  0.42735502918E+02  0.00000000000E+00 0. -1.
         11    1    1    2    0    0 -0.14902186489E+02 -0.29192373678E+02 -0.52588034499E+02  0.61965887516E+02  0.00000000000E+00 0.  1.
</event>
<event>
 7    1  0.2840156E-009  0.1305682E+03  0.7561462E-02  0.1226615E+00
         -2   -1    0    0    0  501 -0.00000000000E+00  0.00000000000E+00  0.38143753053E+03  0.38143753053E+03  0.00000000000E+00 0.  1.
          2   -1    0    0  501    0  0.00000000000E+00 -0.00000000000E+00 -0.58300751457E+02  0.58300751457E+02  0.00000000000E+00 0. -1.
         25    2    1    2    0    0 -0.66080174617E+02  0.57121218781E+02  0.26774282450E+03  0.30816159598E+03  0.12509167060E+03 0.  0.
          5    1    3    3  502    0 -0.98706162295E+01 -0.33875823024E+02  0.26776881709E+02  0.44491282791E+02  0.41800000000E+01 0. -1.
         -5    1    3    3    0  502 -0.56209558387E+02  0.90997041805E+02  0.24096594279E+03  0.26367031319E+03  0.41800000000E+01 0. -1.
        -11    1    1    2    0    0 -0.17962618304E+02 -0.19420933027E+02  0.18839941231E+02  0.32477248676E+02  0.00000000000E+00 0.  1.
         11    1    1    2    0    0  0.84042792921E+02 -0.37700285753E+02  0.36554013340E+02  0.99099437330E+02  0.00000000000E+00 0. -1.
</event>
<event>
 7    1  0.2840156E-009  0.9817287E+02  0.7561462E-02  0.1284186E+00
          1   -1    0    0  501    0  0.00000000000E+00  0.00000000000E+00  0.88487600271E+02  0.88487600271E+02  0.00000000000E+00 0. -1.
         -1   -1    0    0    0  501 -0.00000000000E+00 -0.00000000000E+00 -0.13813565675E+03  0.13813565675E+03  0.00000000000E+00 0.  1.
         25    2    1    2    0    0  0.79165812838E+01 -0.25230415891E+02 -0.20466384978E+01  0.12787180803E+03  0.12509102452E+03 0.  0.
          5    1    3    3  502    0 -0.44808184992E+02 -0.44431163580E+02  0.21613646715E+02  0.66832057156E+02  0.41800000000E+01 0.  1.
         -5    1    3    3    0  502  0.52724766276E+02  0.19200747689E+02 -0.23660285213E+02  0.61039750876E+02  0.41800000000E+01 0.  1.
        -11    1    1    2    0    0 -0.40234519213E+02  0.14985649108E+02 -0.34332457575E+01  0.43071723809E+02  0.00000000000E+00 0. -1.
         11    1    1    2    0    0  0.32317937929E+02  0.10244766784E+02 -0.44168172225E+02  0.55679725180E+02  0.00000000000E+00 0.  1.
</event>
<event>
 7    1  0.2840156E-009  0.1138590E+03  0.7561462E-02  0.1253586E+00
         -2   -1    0    0    0  501 -0.00000000000E+00  0.00000000000E+00  0.60601675947E+02  0.60601675947E+02  0.00000000000E+00 0.  1.
          2   -1    0    0  501    0  0.00000000000E+00 -0.00000000000E+00 -0.30344544828E+03  0.30344544828E+03  0.00000000000E+00 0. -1.
         25    2    1    2    0    0  0.59149722676E+01  0.80178788430E+02 -0.11258374615E+03  0.18650608984E+03  0.12508315889E+03 0.  0.
          5    1    3    3  502    0 -0.58135024974E+01  0.90594344362E+02 -0.20706781623E+02  0.93206090181E+02  0.41800000000E+01 0. -1.
         -5    1    3    3    0  502  0.11728474765E+02 -0.10415555932E+02 -0.91876964524E+02  0.93299999656E+02  0.41800000000E+01 0. -1.
        -11    1    1    2    0    0  0.52891079733E+01 -0.98764744145E+02 -0.10827993386E+03  0.14665262843E+03  0.00000000000E+00 0. -1.
         11    1    1    2    0    0 -0.11204080241E+02  0.18585955714E+02 -0.21980092319E+02  0.30888405951E+02  0.00000000000E+00 0.  1.
</event>
<event>
 7    1  0.2840156E-009  0.1316288E+03  0.7561462E-02  0.1225059E+00
         -1   -1    0    0    0  501 -0.00000000000E+00  0.00000000000E+00  0.24183027768E+02  0.24183027768E+02  0.00000000000E+00 0.  1.
          1   -1    0    0  501    0  0.00000000000E+00 -0.00000000000E+00 -0.10741987336E+04  0.10741987336E+04  0.00000000000E+00 0. -1.
         25    2    1    2    0    0  0.69424994960E+02  0.81918869371E+02 -0.74028572579E+03  0.75841944866E+03  0.12508626304E+03 0.  0.
          5    1    3    3  502    0 -0.11142157773E+02  0.70752483235E+01 -0.41097603013E+03  0.41120916400E+03  0.41800000000E+01 0. -1.
         -5    1    3    3    0  502  0.80567152734E+02  0.74843621047E+02 -0.32930969566E+03  0.34721028465E+03  0.41800000000E+01 0. -1.
        -11    1    1    2    0    0 -0.90050013684E+02 -0.55232279355E+02 -0.24927513036E+03  0.27073548024E+03  0.00000000000E+00 0.  1.
         11    1    1    2    0    0  0.20625018724E+02 -0.26686590016E+02 -0.60454849693E+02  0.69226832482E+02  0.00000000000E+00 0. -1.
</event>
<event>
 7    1  0.2840156E-009  0.8448279E+02  0.7561462E-02  0.1316791E+00
         -1   -1    0    0    0  501 -0.00000000000E+00  0.00000000000E+00  0.32690079587E+02  0.32690079587E+02  0.00000000000E+00 0.  1.
          1   -1    0    0  501    0  0.00000000000E+00 -0.00000000000E+00 -0.75812091851E+03  0.75812091851E+03  0.00000000000E+00 0. -1.
         25    2    1    2    0    0 -0.44710473372E+02  0.36838603445E+02 -0.63369473719E+03  0.64851519785E+03  0.12508730063E+03 0.  0.
          5    1    3    3  502    0 -0.41427551515E+02  0.36184966513E+02 -0.63876382812E+03  0.64114139964E+03  0.41800000000E+01 0. -1.
         -5    1    3    3    0  502 -0.32829218576E+01  0.65363693220E+00  0.50690909324E+01  0.73737982101E+01  0.41800000000E+01 0. -1.
        -11    1    1    2    0    0 -0.27774880093E+02 -0.19440273731E+02 -0.23636815161E+02  0.41328770099E+02  0.00000000000E+00 0. -1.
         11    1    1    2    0    0  0.72485353466E+02 -0.17398329715E+02 -0.68099286577E+02  0.10096703014E+03  0.00000000000E+00 0.  1.
</event>
<event>
 7    1  0.2840156E-009  0.1564397E+03  0.7561462E-02  0.1192776E+00
         -1   -1    0    0    0  501 -0.00000000000E+00  0.00000000000E+00  0.45911916327E+02  0.45911916327E+02  0.00000000000E+00 0.  1.
          1   -1    0    0  501    0  0.00000000000E+00 -0.00000000000E+00 -0.81457616153E+03  0.81457616153E+03  0.00000000000E+00 0. -1.
         25    2    1    2    0    0 -0.11226507858E+03 -0.88005858898E+02 -0.56168835371E+03  0.59286520879E+03  0.12508744951E+03 0.  0.
          5    1    3    3  502    0 -0.39833727252E+02  0.12416147418E+02 -0.44905597326E+02  0.61439983844E+02  0.41800000000E+01 0. -1.
         -5    1    3    3    0  502 -0.72431351327E+02 -0.10042200632E+03 -0.51678275639E+03  0.53142522494E+03  0.41800000000E+01 0. -1.
        -11    1    1    2    0    0  0.86385530315E+02  0.84676911686E+02 -0.98334446541E+02  0.15589195809E+03  0.00000000000E+00 0.  1.
         11    1    1    2    0    0  0.25879548264E+02  0.33289472121E+01 -0.10864144495E+03  0.11173091098E+03  0.00000000000E+00 0. -1.
</event>
<event>
 7    1  0.2840156E-009  0.1201999E+03  0.7561462E-02  0.1242768E+00
          1   -1    0    0  501    0  0.00000000000E+00  0.00000000000E+00  0.42463109639E+02  0.42463109639E+02  0.00000000000E+00 0. -1.
         -1   -1    0    0    0  501 -0.00000000000E+00 -0.00000000000E+00 -0.44494833415E+03  0.44494833415E+03  0.00000000000E+00 0.  1.
         25    2    1    2    0    0  0.30808941988E+02 -0.64312684253E+02 -0.30276023236E+03  0.33525376764E+03  0.12508404437E+03 0.  0.
          5    1    3    3  502    0 -0.33917832736E+02 -0.63007404600E+02 -0.10507019831E+03  0.12719108218E+03  0.41800000000E+01 0. -1.
         -5    1    3    3    0  502  0.64726774723E+02 -0.13052796523E+01 -0.19769003404E+03  0.20806268546E+03  0.41800000000E+01 0. -1.
        -11    1    1    2    0    0 -0.55124143149E+02  0.54824326460E+02 -0.41001376919E+02  0.87894771397E+02  0.00000000000E+00 0. -1.
         11    1    1    2    0    0  0.24315201161E+02  0.94883577930E+01 -0.58723615233E+02  0.64262904752E+02  0.00000000000E+00 0.  1.
</event>
<event>
 7    1  0.2840156E-009  0.1207995E+03  0.7561462E-02  0.1241784E+00
         -1   -1    0    0    0  501 -0.00000000000E+00  0.00000000000E+00  0.19459104594E+03  0.19459104594E+03  0.00000000000E+00 0.  1.
          1   -1    0    0  501    0  0.00000000000E+00 -0.00000000000E+00 -0.11077493878E+03  0.11077493878E+03  0.00000000000E+00 0. -1.
         25    2    1    2    0    0  0.69199831586E+02 -0.18883379889E+02  0.11540978102E+03  0.18468856143E+03  0.12508096754E+03 0.  0.
          5    1    3    3  502    0  0.46863867042E+02  0.40226842752E+02  0.10297926337E+03  0.12015249476E+03  0.41800000000E+01 0. -1.
         -5    1    3    3    0  502  0.22335964544E+02 -0.59110222641E+02  0.12430517646E+02  0.64536066674E+02  0.41800000000E+01 0. -1.
        -11    1    1    2    0    0 -0.76980313064E+02 -0.17682116032E+02 -0.23761050967E+02  0.82481594128E+02  0.00000000000E+00 0.  1.
         11    1    1    2    0    0  0.77804814783E+01  0.36565495922E+02 -0.78326228895E+01  0.38195829162E+02  0.00000000000E+00 0. -1.
</event>
<event>
 7    1  0.2840156E-009  0.1033184E+03  0.7561462E-02  0.1273469E+00
          2   -1    0    0  501    0  0.00000000000E+00  0.00000000000E+00  0.54060781262E+02  0.54060781262E+02  0.00000000000E+00 0. -1.
         -2   -1    0    0    0  501 -0.00000000000E+00 -0.00000000000E+00 -0.24465298069E+03  0.24465298069E+03  0.00000000000E+00 0.  1.
         25    2    1    2    0    0 -0.35587146961E+02 -0.92188682737E+01 -0.89044507289E+02  0.15788893075E+03  0.12509419497E+03 0.  0.
          5    1    3    3  502    0  0.19234564423E+02  0.45118685819E+02 -0.53832595557E+02  0.72945767684E+02  0.41800000000E+01 0.  1.
         -5    1    3    3    0  502 -0.54821711384E+02 -0.54337554093E+02 -0.35211911732E+02  0.84943163066E+02  0.41800000000E+01 0.  1.
        -11    1    1    2    0    0  0.10561988770E+02 -0.30995243535E+02 -0.84267581785E+02  0.90406228040E+02  0.00000000000E+00 0.  1.
         11    1    1    2    0    0  0.25025158190E+02  0.40214111808E+02 -0.17280110356E+02  0.50418603163E+02  0.00000000000E+00 0. -1.
</event>
<event>
 7    1  0.2840156E-009  0.1665131E+03  0.7561462E-02  0.1181534E+00
          2   -1    0    0  501    0  0.00000000000E+00  0.00000000000E+00  0.29302634887E+03  0.29302634887E+03  0.00000000000E+00 0. -1.
         -2   -1    0    0    0  501 -0.00000000000E+00 -0.00000000000E+00 -0.13018801440E+03  0.13018801440E+03  0.00000000000E+00 0.  1.
         25    2    1    2    0    0 -0.44376290722E+02  0.14077589045E+03  0.15592042151E+03  0.24848593841E+03  0.12508787805E+03 0.  0.
          5    1    3    3  502    0 -0.79950369550E+02  0.92845886690E+02  0.14094881233E+03  0.18680594306E+03  0.41800000000E+01 0.  1.
         -5    1    3    3    0  502  0.35574078827E+02  0.47930003761E+02  0.14971609180E+02  0.61679995350E+02  0.41800000000E+01 0.  1.
        -11    1    1    2    0    0 -0.17151373807E+01 -0.37042116441E+02 -0.37589786501E+02  0.52802008824E+02  0.00000000000E+00 0.  1.
         11    1    1    2    0    0  0.46091428103E+02 -0.10373377401E+03  0.44507699468E+02  0.12192641603E+03  0.00000000000E+00 0. -1.
</event>
<event>
 7    1  0.2840156E-009  0.1737162E+03  0.7561462E-02  0.1174027E+00
         -1   -1    0    0    0  501 -0.00000000000E+00  0.00000000000E+00  0.18722962058E+03  0.18722962058E+03  0.00000000000E+00 0.  1.
          1   -1    0    0  501    0  0.00000000000E+00 -0.00000000000E+00 -0.19755365373E+03  0.19755365373E+03  0.00000000000E+00 0. -1.
         25    2    1    2    0    0  0.34307415693E+02 -0.13307785941E+03  0.74478003774E+02  0.20020522477E+03  0.12509373903E+03 0.  0.
          5    1    3    3  502    0 -0.46589014053E+02 -0.34550920373E+02  0.26846267349E+02  0.64050736136E+02  0.41800000000E+01 0.  1.
         -5    1    3    3    0  502  0.80896429746E+02 -0.98526939033E+02  0.47631736425E+02  0.13615448864E+03  0.41800000000E+01 0.  1.
        -11    1    1    2    0    0  0.27244229944E+02  0.23195891037E+02 -0.67668250604E+01  0.36415482252E+02  0.00000000000E+00 0. -1.
         11    1    1    2    0    0 -0.61551645637E+02  0.10988196837E+03 -0.78035211862E+02  0.14816256728E+03  0.00000000000E+00 0.  1.
</event>
<event>
 7    1  0.2840156E-009  0.1220724E+03  0.7561462E-02  0.1239717E+00
          1   -1    0    0  501    0  0.00000000000E+00  0.00000000000E+00  0.58044348521E+02  0.58044348521E+02  0.00000000000E+00 0. -1.
         -1   -1    0    0    0  501 -0.00000000000E+00 -0.00000000000E+00 -0.33442268947E+03  0.33442268947E+03  0.00000000000E+00 0.  1.
         25    2    1    2    0    0  0.59168334000E+02 -0.62964572952E+02 -0.14895266151E+03  0.21283731053E+03  0.12508955266E+03 0.  0.
          5    1    3    3  502    0  0.39703903690E+02  0.30693861037E+02 -0.81170455143E+02  0.95522920086E+02  0.41800000000E+01 0.  1.
         -5    1    3    3    0  502  0.19464430310E+02 -0.93658433988E+02 -0.67782206367E+02  0.11731439044E+03  0.41800000000E+01 0.  1.
        -11    1    1    2    0    0 -0.36559083524E+02  0.63939340390E+01  0.13841181673E+01  0.37139800265E+02  0.00000000000E+00 0. -1.
         11    1    1    2    0    0 -0.22609250476E+02  0.56570638913E+02 -0.12880979761E+03  0.14248992720E+03  0.00000000000E+00 0.  1.
</event>
<event>
 7    1  0.2840156E-009  0.1426046E+03  0.7561462E-02  0.1209867E+00
         -2   -1    0    0    0  501 -0.00000000000E+00  0.00000000000E+00  0.55071617878E+02  0.55071617878E+02  0.00000000000E+00 0.  1.
          2   -1    0    0  501    0  0.00000000000E+00 -0.00000000000E+00 -0.70031314738E+03  0.70031314738E+03  0.00000000000E+00 0. -1.
         25    2    1    2    0    0 -0.47107234479E+02  0.11450208682E+03 -0.52994242043E+03  0.55840537086E+03  0.12509104605E+03 0.  0.
          5    1    3    3  502    0 -0.64530659958E+02  0.40220213615E+02 -0.40384535181E+03  0.41096278692E+03  0.41800000000E+01 0. -1.
         -5    1    3    3    0  502  0.17423425479E+02  0.74281873201E+02 -0.12609706863E+03  0.14744258394E+03  0.41800000000E+01 0. -1.
        -11    1    1    2    0    0 -0.97363501087E+01 -0.22212182879E+02  0.14200846411E+02  0.28104121058E+02  0.00000000000E+00 0.  1.
         11    1    1    2    0    0  0.56843584588E+02 -0.92289903938E+02 -0.12949995548E+03  0.16887527335E+03  0.00000000000E+00 0. -1.
</event>
<event>
 7    1  0.2840156E-009  0.8742150E+02  0.7561462E-02  0.1309219E+00
         -1   -1    0    0    0  501 -0.00000000000E+00  0.00000000000E+00  0.62078985337E+02  0.62078985337E+02  0.00000000000E+00 0.  1.
          1   -1    0    0  501    0  0.00000000000E+00 -0.00000000000E+00 -0.21011949136E+03  0.21011949136E+03  0.00000000000E+00 0. -1.
         25    2    1    2    0    0 -0.26827319114E+02  0.15036989886E+02 -0.58292443657E+02  0.14139276856E+03  0.12509232549E+03 0.  0.
          5    1    3    3  502    0 -0.27387543263E+02  0.44032917264E+02 -0.86359062657E+02  0.10081832885E+03  0.41800000000E+01 0.  1.
         -5    1    3    3    0  502  0.56022414891E+00 -0.28995927377E+02  0.28066618999E+02  0.40574439708E+02  0.41800000000E+01 0.  1.
        -11    1    1    2    0    0  0.84330579029E+00 -0.49972312421E+02 -0.59926561018E+02  0.78032915419E+02  0.00000000000E+00 0. -1.
         11    1    1    2    0    0  0.25984013324E+02  0.34935322535E+02 -0.29821501346E+02  0.52772792721E+02  0.00000000000E+00 0.  1.
</event>
<event>
 7    1  0.2840156E-009  0.9339287E+02  0.7561462E-02  0.1294837E+00
         -2   -1    0    0    0  501 -0.00000000000E+00  0.00000000000E+00  0.16513587985E+02  0.16513587985E+02  0.00000000000E+00 0.  1.
          2   -1    0    0  501    0  0.00000000000E+00 -0.00000000000E+00 -0.12149717029E+04  0.12149717029E+04  0.00000000000E+00 0. -1.
         25    2    1    2    0    0  0.79570233716E+02 -0.10654905187E+02 -0.81304955600E+03  0.82652401307E+03  0.12508962615E+03 0.  0.
          5    1    3    3  502    0  0.39962630377E+02 -0.10795306774E+02 -0.63494808912E+02  0.75911880715E+02  0.41800000000E+01 0.  1.
         -5    1    3    3    0  502  0.39607603339E+02  0.14040158728E+00 -0.74955474709E+03  0.75061213236E+03  0.41800000000E+01 0.  1.
        -11    1    1    2    0    0 -0.65919723909E+02 -0.22374429978E+02 -0.34062264419E+03  0.34766335851E+03  0.00000000000E+00 0. -1.
         11    1    1    2    0    0 -0.13650509807E+02  0.33029335165E+02 -0.44785914749E+02  0.57297919328E+02  0.00000000000E+00 0.  1.
</event>
<event>
 7    1  0.2904621E-009  0.1054066E+03  0.7561462E-02  0.1269321E+00
         -1   -1    0    0    0  501 -0.00000000000E+00  0.00000000000E+00  0.52635607733E+02  0.52635607733E+02  0.00000000000E+00 0.  1.
          1   -1    0    0  501    0  0.00000000000E+00 -0.00000000000E+00 -0.33545853212E+03  0.33545853212E+03  0.00000000000E+00 0. -1.
         25    2    1    2    0    0  0.38027879130E+02 -0.61715413714E+02 -0.19115996757E+03  0.23967496075E+03  0.12508813584E+03 0.  0.
          5    1    3    3  502    0  0.28286776131E+02 -0.93521517568E+02 -0.17907278905E+03  0.20403664409E+03  0.41800000000E+01 0. -1.
         -5    1    3    3    0  502  0.97411029995E+01  0.31806103854E+02 -0.12087178516E+02  0.35638316662E+02  0.41800000000E+01 0. -1.
        -11    1    1    2    0    0 -0.57137147793E+01  0.40351811003E+02  0.79647825450E+01  0.41525329003E+02  0.00000000000E+00 0.  1.
         11    1    1    2    0    0 -0.32314164351E+02  0.21363602711E+02 -0.99627739368E+02  0.10689385010E+03  0.00000000000E+00 0. -1.
</event>
<event>
 7    1  0.2840156E-009  0.9888621E+02  0.7561462E-02  0.1282656E+00
         -1   -1    0    0    0  501 -0.00000000000E+00  0.00000000000E+00  0.63076287817E+02  0.63076287817E+02  0.00000000000E+00 0.  1.
          1   -1    0    0  501    0  0.00000000000E+00 -0.00000000000E+00 -0.35011498929E+03  0.35011498929E+03  0.00000000000E+00 0. -1.
         25    2    1    2    0    0 -0.87417759044E+02 -0.26202689561E+02 -0.21834321532E+03  0.26767177679E+03  0.12508387138E+03 0.  0.
          5    1    3    3  502    0 -0.46296772403E+02  0.79908816195E+01 -0.20769295327E+03  0.21298140896E+03  0.41800000000E+01 0.  1.
         -5    1    3    3    0  502 -0.41120986640E+02 -0.34193571181E+02 -0.10650262050E+02  0.54690367837E+02  0.41800000000E+01 0.  1.
        -11    1    1    2    0    0  0.40414945600E+02 -0.47349492647E+01  0.16092554609E+02  0.43757946549E+02  0.00000000000E+00 0.  1.
         11    1    1    2    0    0  0.47002813444E+02  0.30937638826E+02 -0.84788040760E+02  0.10176155376E+03  0.00000000000E+00 0. -1.
</event>
<event>
 7    1  0.2840156E-009  0.1086746E+03  0.7561462E-02  0.1263044E+00
          2   -1    0    0  501    0  0.00000000000E+00  0.00000000000E+00  0.21785346909E+03  0.21785346909E+03  0.00000000000E+00 0. -1.
         -2   -1    0    0    0  501 -0.00000000000E+00 -0.00000000000E+00 -0.59414584930E+02  0.59414584930E+02  0.00000000000E+00 0.  1.
         25    2    1    2    0    0  0.23551021553E+02  0.10858242045E+02  0.10997858031E+03  0.16856903240E+03  0.12509068120E+03 0.  0.
          5    1    3    3  502    0 -0.46003286303E+02  0.19334652154E+02  0.18772223620E+02  0.53478966933E+02  0.41800000000E+01 0. -1.
         -5    1    3    3    0  502  0.69554307856E+02 -0.84764101093E+01  0.91206356688E+02  0.11509006547E+03  0.41800000000E+01 0. -1.
        -11    1    1    2    0    0  0.36421538151E+02 -0.22308436431E+01  0.14709753444E+02  0.39343130925E+02  0.00000000000E+00 0.  1.
         11    1    1    2    0    0 -0.59972559704E+02 -0.86273984021E+01  0.33750550404E+02  0.69355890688E+02  0.00000000000E+00 0. -1.
</event>
<event>
 7    1  0.2840156E-009  0.9407482E+02  0.7561462E-02  0.1293274E+00
          2   -1    0    0  501    0  0.00000000000E+00  0.00000000000E+00  0.80943636690E+02  0.80943636690E+02  0.00000000000E+00 0. -1.
         -2   -1    0    0    0  501 -0.00000000000E+00 -0.00000000000E+00 -0.31767587404E+03  0.31767587404E+03  0.00000000000E+00 0.  1.
         25    2    1    2    0    0  0.96930712729E+01  0.59929542818E+02  0.16391271379E+01  0.13905408565E+03  0.12509135169E+03 0.  0.
          5    1    3    3  502    0 -0.27552134723E+02  0.72632015316E+02  0.36852765628E+02  0.86082103315E+02  0.41800000000E+01 0. -1.
         -5    1    3    3    0  502  0.37245205996E+02 -0.12702472498E+02 -0.35213638490E+02  0.52971982340E+02  0.41800000000E+01 0. -1.
        -11    1    1    2    0    0 -0.23657435570E+02 -0.36061681252E+02 -0.22454349338E+03  0.22864798169E+03  0.00000000000E+00 0.  1.
         11    1    1    2    0    0  0.13964364297E+02 -0.23867861566E+02 -0.13827871108E+02  0.30917443383E+02  0.00000000000E+00 0. -1.
</event>
<event>
 7    1  0.2840156E-009  0.1559708E+03  0.7561462E-02  0.1193322E+00
         -1   -1    0    0    0  501 -0.00000000000E+00  0.00000000000E+00  0.49058178439E+02  0.49058178439E+02  0.00000000000E+00 0.  1.
          1   -1    0    0  501    0  0.00000000000E+00 -0.00000000000E+00 -0.76287639335E+03  0.76287639335E+03  0.00000000000E+00 0. -1.
         25    2    1    2    0    0  0.26671517011E+02  0.12644436649E+03 -0.57527958529E+03  0.60273836674E+03  0.12508952735E+03 0.  0.
          5    1    3    3  502    0 -0.13176848412E+02 -0.10102259160E+02 -0.10013071152E+02  0.19834791859E+02  0.41800000000E+01 0.  1.
         -5    1    3    3    0  502  0.39848365423E+02  0.13654662565E+03 -0.56526651414E+03  0.58290357488E+03  0.41800000000E+01 0.  1.
        -11    1    1    2    0    0 -0.52955939069E+02 -0.54817379310E+02 -0.45092849502E+02  0.88558690332E+02  0.00000000000E+00 0.  1.
         11    1    1    2    0    0  0.26284422058E+02 -0.71626987179E+02 -0.93445780119E+02  0.12063751472E+03  0.00000000000E+00 0. -1.
</event>
<event>
 7    1  0.2840156E-009  0.1501706E+03  0.7561462E-02  0.1200263E+00
          1   -1    0    0  501    0  0.00000000000E+00  0.00000000000E+00  0.49465835390E+02  0.49465835390E+02  0.00000000000E+00 0. -1.
         -1   -1    0    0    0  501 -0.00000000000E+00 -0.00000000000E+00 -0.55816024694E+03  0.55816024694E+03  0.00000000000E+00 0.  1.
         25    2    1    2    0    0 -0.69747564299E+02  0.10321385970E+03 -0.24039007081E+03  0.29825392614E+03  0.12510073841E+03 0.  0.
          5    1    3    3  502    0 -0.87363608849E+02  0.10275979897E+03 -0.13342844207E+03  0.18976985532E+03  0.41800000000E+01 0. -1.
         -5    1    3    3    0  502  0.17616044550E+02  0.45406072459E+00 -0.10696162875E+03  0.10848407082E+03  0.41800000000E+01 0. -1.
        -11    1    1    2    0    0  0.61952283039E+02 -0.22063129795E+02 -0.76012687789E+02  0.10051266475E+03  0.00000000000E+00 0. -1.
         11    1    1    2    0    0  0.77952812603E+01 -0.81150729901E+02 -0.19229165295E+03  0.20885949144E+03  0.00000000000E+00 0.  1.
</event>
<event>
 7    1  0.2840156E-009  0.9739552E+02  0.7561462E-02  0.1285870E+00
         -3   -1    0    0    0  501 -0.00000000000E+00  0.00000000000E+00  0.24745727534E+03  0.24745727534E+03  0.00000000000E+00 0.  1.
          3   -1    0    0  501    0  0.00000000000E+00 -0.00000000000E+00 -0.74348291360E+02  0.74348291360E+02  0.00000000000E+00 0. -1.
         25    2    1    2    0    0  0.32186266265E+02  0.18775839150E+02  0.92397370273E+01  0.13084842194E+03  0.12508976342E+03 0.  0.
          5    1    3    3  502    0  0.39500990517E+02  0.66146291116E+02  0.23517159125E+02  0.80660952472E+02  0.41800000000E+01 0. -1.
         -5    1    3    3    0  502 -0.73147242519E+01 -0.47370451966E+02 -0.14277422098E+02  0.50187469473E+02  0.41800000000E+01 0. -1.
        -11    1    1    2    0    0 -0.32554292733E+02 -0.38145021421E+02  0.16409133929E+03  0.17158319342E+03  0.00000000000E+00 0.  1.
         11    1    1    2    0    0  0.36802646769E+00  0.19369182270E+02 -0.22209233824E+00  0.19373951334E+02  0.00000000000E+00 0. -1.
</event>
<event>
 7    1  0.2840156E-009  0.1303510E+03  0.7561462E-02  0.1226936E+00
         -2   -1    0    0    0  501 -0.00000000000E+00  0.00000000000E+00  0.56173887153E+02  0.56173887153E+02  0.00000000000E+00 0.  1.
          2   -1    0    0  501    0  0.00000000000E+00 -0.00000000000E+00 -0.34471242001E+03  0.34471242001E+03  0.00000000000E+00 0. -1.
         25    2    1    2    0    0  0.22834617774E+02 -0.80314805999E+02 -0.19061781631E+03  0.24280729464E+03  0.12509333557E+03 0.  0.
          5    1    3    3  502    0 -0.46704817553E+02 -0.41773127339E+01 -0.55207854131E+02  0.72554596560E+02  0.41800000000E+01 0.  1.
         -5    1    3    3    0  502  0.69539435327E+02 -0.76137493265E+02 -0.13540996218E+03  0.17025269808E+03  0.41800000000E+01 0.  1.
        -11    1    1    2    0    0 -0.21250561535E+02  0.94140495898E+02 -0.51036302634E+02  0.10917290653E+03  0.00000000000E+00 0.  1.
         11    1    1    2    0    0 -0.15840562397E+01 -0.13825689899E+02 -0.46884413915E+02  0.48906105994E+02  0.00000000000E+00 0. -1.
</event>
<event>
 7    1  0.2840156E-009  0.9813935E+02  0.7561462E-02  0.1284258E+00
          2   -1    0    0  501    0  0.00000000000E+00  0.00000000000E+00  0.85083952934E+03  0.85083952934E+03  0.00000000000E+00 0. -1.
         -2   -1    0    0    0  501 -0.00000000000E+00 -0.00000000000E+00 -0.30640733162E+02  0.30640733162E+02  0.00000000000E+00 0.  1.
         25    2    1    2    0    0 -0.14387715438E+02  0.64333715442E+02  0.70053409779E+03  0.71465916479E+03  0.12507544267E+03 0.  0.
          5    1    3    3  502    0  0.11086429878E+02  0.86482866655E+02  0.29348376376E+03  0.30619011601E+03  0.41800000000E+01 0.  1.
         -5    1    3    3    0  502 -0.25474145316E+02 -0.22149151213E+02  0.40705033402E+03  0.40846904878E+03  0.41800000000E+01 0.  1.
        -11    1    1    2    0    0 -0.92503364944E+01 -0.39972864970E+02 -0.14347400948E+01  0.41054319362E+02  0.00000000000E+00 0.  1.
         11    1    1    2    0    0  0.23638051932E+02 -0.24360850472E+02  0.12109943848E+03  0.12576677835E+03  0.00000000000E+00 0. -1.
</event>
<event>
 7    1  0.2840156E-009  0.1004443E+03  0.7561462E-02  0.1279364E+00
         -1   -1    0    0    0  501 -0.00000000000E+00  0.00000000000E+00  0.10007743178E+03  0.10007743178E+03  0.00000000000E+00 0.  1.
          1   -1    0    0  501    0  0.00000000000E+00 -0.00000000000E+00 -0.17476198982E+03  0.17476198982E+03  0.00000000000E+00 0. -1.
         25    2    1    2    0    0  0.39825597045E+02 -0.37125986676E+02 -0.96265735779E+02  0.16696981935E+03  0.12508961437E+03 0.  0.
          5    1    3    3  502    0  0.29844693652E+02  0.35912828531E+02 -0.15933719103E+01  0.46908935464E+02  0.41800000000E+01 0.  1.
         -5    1    3    3    0  502  0.99809033924E+01 -0.73038815207E+02 -0.94672363869E+02  0.12006088389E+03  0.41800000000E+01 0.  1.
        -11    1    1    2    0    0 -0.55011563259E+01 -0.16000932336E+02 -0.24385177962E+02  0.29680455872E+02  0.00000000000E+00 0. -1.
         11    1    1    2    0    0 -0.34324440719E+02  0.53126919012E+02  0.45966355696E+02  0.78189146371E+02  0.00000000000E+00 0.  1.
</event>
<event>
 7    1  0.2878503E-009  0.1506176E+03  0.7561462E-02  0.1199716E+00
          1   -1    0    0  501    0  0.00000000000E+00  0.00000000000E+00  0.50551456043E+03  0.50551456043E+03  0.00000000000E+00 0. -1.
         -1   -1    0    0    0  501 -0.00000000000E+00 -0.00000000000E+00 -0.53760433713E+02  0.53760433713E+02  0.00000000000E+00 0.  1.
         25    2    1    2    0    0 -0.11666017384E+03  0.12160989767E+02  0.17536295075E+03  0.24526361708E+03  0.12507834160E+03 0.  0.
          5    1    3    3  502    0 -0.33461359911E+02 -0.54658957010E+02  0.57326494353E+02  0.86087534192E+02  0.41800000000E+01 0. -1.
         -5    1    3    3    0  502 -0.83198813928E+02  0.66819946777E+02  0.11803645640E+03  0.15917608289E+03  0.41800000000E+01 0. -1.
        -11    1    1    2    0    0  0.76684736881E+02 -0.34874133058E+02  0.95397189559E+02  0.12726891923E+03  0.00000000000E+00 0.  1.
         11    1    1    2    0    0  0.39975436958E+02  0.22713143291E+02  0.18099398641E+03  0.18674245782E+03  0.00000000000E+00 0. -1.
</event>
<event>
 7    1  0.2840156E-009  0.9920565E+02  0.7561462E-02  0.1281975E+00
         -2   -1    0    0    0  501 -0.00000000000E+00  0.00000000000E+00  0.56155979204E+02  0.56155979204E+02  0.00000000000E+00 0.  1.
          2   -1    0    0  501    0  0.00000000000E+00 -0.00000000000E+00 -0.58207806205E+03  0.58207806205E+03  0.00000000000E+00 0. -1.
         25    2    1    2    0    0 -0.44015041539E+02  0.59420895978E+02 -0.45810000480E+03  0.48059824068E+03  0.12510350827E+03 0.  0.
          5    1    3    3  502    0 -0.55776982926E+02  0.81601799415E+02 -0.43538677447E+03  0.44648520835E+03  0.41800000000E+01 0.  1.
         -5    1    3    3    0  502  0.11761941388E+02 -0.22180903437E+02 -0.22713230338E+02  0.34113032332E+02  0.41800000000E+01 0.  1.
        -11    1    1    2    0    0  0.31310745037E+02 -0.39562324942E+02 -0.10334433044E+03  0.11500256929E+03  0.00000000000E+00 0.  1.
         11    1    1    2    0    0  0.12704296502E+02 -0.19858571036E+02  0.35522252405E+02  0.42633231277E+02  0.00000000000E+00 0. -1.
</event>
<event>
 7    1  0.2840156E-009  0.9421743E+02  0.7561462E-02  0.1292948E+00
          3   -1    0    0  501    0  0.00000000000E+00  0.00000000000E+00  0.34030737749E+03  0.34030737749E+03  0.00000000000E+00 0. -1.
         -3   -1    0    0    0  501 -0.00000000000E+00 -0.00000000000E+00 -0.35591254142E+02  0.35591254142E+02  0.00000000000E+00 0.  1.
         25    2    1    2    0    0  0.19528949882E+02  0.10458264873E+02  0.18654506993E+03  0.22569181564E+03  0.12508787848E+03 0.  0.
          5    1    3    3  502    0  0.59175676416E+02  0.16821145571E+01  0.35337513700E+02  0.69070995817E+02  0.41800000000E+01 0. -1.
         -5    1    3    3    0  502 -0.39646726535E+02  0.87761503160E+01  0.15120755623E+03  0.15662081982E+03  0.41800000000E+01 0. -1.
        -11    1    1    2    0    0  0.18588158803E+02  0.28330471039E+02  0.24215997921E+02  0.41647926626E+02  0.00000000000E+00 0.  1.
         11    1    1    2    0    0 -0.38117108685E+02 -0.38788735912E+02  0.93955055496E+02  0.10855888937E+03  0.00000000000E+00 0. -1.
</event>
<event>
 7    1  0.2840156E-009  0.1508332E+03  0.7561462E-02  0.1199453E+00
          1   -1    0    0  501    0  0.00000000000E+00  0.00000000000E+00  0.96607414611E+03  0.96607414611E+03  0.00000000000E+00 0. -1.
         -1   -1    0    0    0  501 -0.00000000000E+00 -0.00000000000E+00 -0.27535182096E+02  0.27535182096E+02  0.00000000000E+00 0.  1.
         25    2    1    2    0    0  0.28311901895E+02  0.11199053760E+03  0.60431599901E+03  0.62784456421E+03  0.12509007093E+03 0.  0.
          5    1    3    3  502    0  0.73681553869E+02  0.41303611429E+02  0.26009606930E+03  0.27350026940E+03  0.41800000000E+01 0. -1.
         -5    1    3    3    0  502 -0.45369651974E+02  0.70686926173E+02  0.34421992972E+03  0.35434429481E+03  0.41800000000E+01 0. -1.
        -11    1    1    2    0    0 -0.98739143495E+01 -0.11401995820E+03  0.32594228294E+03  0.34545103395E+03  0.00000000000E+00 0. -1.
         11    1    1    2    0    0 -0.18437987545E+02  0.20294206032E+01  0.82806820629E+01  0.20313730040E+02  0.00000000000E+00 0.  1.
</event>
<event>
 7    1  0.2840156E-009  0.1720915E+03  0.7561462E-02  0.1175684E+00
         -2   -1    0    0    0  501 -0.00000000000E+00  0.00000000000E+00  0.53479278066E+03  0.53479278066E+03  0.00000000000E+00 0.  1.
          2   -1    0    0  501    0  0.00000000000E+00 -0.00000000000E+00 -0.61542619358E+02  0.61542619358E+02  0.00000000000E+00 0. -1.
         25    2    1    2    0    0  0.99378576472E+02 -0.10489210108E+03  0.26491214734E+03  0.32665637571E+03  0.12508991826E+03 0.  0.
          5    1    3    3  502    0  0.60654730005E+02  0.17007947484E+02  0.85683068096E+02  0.10642991641E+03  0.41800000000E+01 0.  1.
         -5    1    3    3    0  502  0.38723846467E+02 -0.12190004857E+03  0.17922907925E+03  0.22022645929E+03  0.41800000000E+01 0.  1.
        -11    1    1    2    0    0 -0.92303784352E+02  0.65810592686E+02  0.89665977500E+02  0.14453722786E+03  0.00000000000E+00 0. -1.
         11    1    1    2    0    0 -0.70747921202E+01  0.39081508396E+02  0.11867203646E+03  0.12514179645E+03  0.00000000000E+00 0.  1.
</event>
<event>
 7    1  0.2840156E-009  0.7164762E+02  0.7561462E-02  0.1354578E+00
         -2   -1    0    0    0  501 -0.00000000000E+00  0.00000000000E+00  0.11201469498E+02  0.11201469498E+02  0.00000000000E+00 0.  1.
          2   -1    0    0  501    0  0.00000000000E+00 -0.00000000000E+00 -0.90480565412E+03  0.90480565412E+03  0.00000000000E+00 0. -1.
         25    2    1    2    0    0  0.51181835405E+02  0.64998329476E+00 -0.69138276838E+03  0.70446928985E+03  0.12508735022E+03 0.  0.
          5    1    3    3  502    0 -0.56300652560E+01 -0.25580990961E+02 -0.29696330138E+02  0.39817447897E+02  0.41800000000E+01 0. -1.
         -5    1    3    3    0  502  0.56811900661E+02  0.26230974256E+02 -0.66168643824E+03  0.66465184196E+03  0.41800000000E+01 0. -1.
        -11    1    1    2    0    0 -0.14752234324E+02  0.77592385081E+01 -0.22688060664E+02  0.28152838160E+02  0.00000000000E+00 0.  1.
         11    1    1    2    0    0 -0.36429601082E+02 -0.84092218028E+01 -0.17953335558E+03  0.18338499560E+03  0.00000000000E+00 0. -1.
</event>
<event>
 7    1  0.2840156E-009  0.1680742E+03  0.7561462E-02  0.1179871E+00
          1   -1    0    0  501    0  0.00000000000E+00  0.00000000000E+00  0.54528145859E+03  0.54528145859E+03  0.00000000000E+00 0. -1.
         -1   -1    0    0    0  501 -0.00000000000E+00 -0.00000000000E+00 -0.62025540397E+02  0.62025540397E+02  0.00000000000E+00 0.  1.
         25    2    1    2    0    0  0.97007903973E+02 -0.10809141198E+03  0.22165296594E+03  0.29303888786E+03  0.12508983057E+03 0.  0.
          5    1    3    3  502    0  0.67665855806E+02 -0.18512618643E+02  0.17331893586E+03  0.18702489411E+03  0.41800000000E+01 0.  1.
         -5    1    3    3    0  502  0.29342048166E+02 -0.89578793339E+02  0.48334030082E+02  0.10601399375E+03  0.41800000000E+01 0.  1.
        -11    1    1    2    0    0 -0.23647143434E+02  0.93854121089E+02  0.17412233428E+03  0.19921438385E+03  0.00000000000E+00 0.  1.
         11    1    1    2    0    0 -0.73360760538E+02  0.14237290893E+02  0.87480617972E+02  0.11505372727E+03  0.00000000000E+00 0. -1.
</event>
<event>
 7    1  0.3105915E-009  0.1343507E+03  0.7561462E-02  0.1221139E+00
         -4   -1    0    0    0  501 -0.00000000000E+00  0.00000000000E+00  0.18756163907E+02  0.18756163907E+02  0.00000000000E+00 0. -1.
          4   -1    0    0  501    0  0.00000000000E+00 -0.00000000000E+00 -0.12850675149E+04  0.12850675149E+04  0.00000000000E+00 0.  1.
         25    2    1    2    0    0  0.84762192075E+02 -0.70993670713E+02 -0.71188311361E+03  0.73119756995E+03  0.12509032086E+03 0.  0.
          5    1    3    3  502    0 -0.10656151422E+02  0.35585251077E+01 -0.34436683377E+01  0.12471885009E+02  0.41800000000E+01 0. -1.
         -5    1    3    3    0  502  0.95418343497E+02 -0.74552195821E+02 -0.70843944527E+03  0.71872568494E+03  0.41800000000E+01 0. -1.
        -11    1    1    2    0    0 -0.19902780484E+02 -0.17043590243E+02 -0.49657545198E+02  0.56146918299E+02  0.00000000000E+00 0. -1.
         11    1    1    2    0    0 -0.64859411592E+02  0.88037260957E+02 -0.50477069218E+03  0.51647919055E+03  0.00000000000E+00 0.  1.
</event>
<event>
 7    1  0.2840156E-009  0.8919713E+02  0.7561462E-02  0.1304808E+00
         -1   -1    0    0    0  501 -0.00000000000E+00  0.00000000000E+00  0.80081735661E+02  0.80081735661E+02  0.00000000000E+00 0.  1.
          1   -1    0    0  501    0  0.00000000000E+00 -0.00000000000E+00 -0.16220767570E+03  0.16220767570E+03  0.00000000000E+00 0. -1.
         25    2    1    2    0    0  0.10350539823E+02  0.18443879002E+02 -0.62862538478E+02  0.14158719816E+03  0.12509166875E+03 0.  0.
          5    1    3    3  502    0  0.35433252666E+02  0.64678875870E+02 -0.40883218769E+02  0.84426194721E+02  0.41800000000E+01 0.  1.
         -5    1    3    3    0  502 -0.25082712843E+02 -0.46234996868E+02 -0.21979319709E+02  0.57161003436E+02  0.41800000000E+01 0.  1.
        -11    1    1    2    0    0  0.12884392979E+02  0.90640214554E+01 -0.50583094656E+02  0.52979368931E+02  0.00000000000E+00 0. -1.
         11    1    1    2    0    0 -0.23234932802E+02 -0.27507900457E+02  0.31319693095E+02  0.47722844272E+02  0.00000000000E+00 0.  1.
</event>
<event>
 7    1  0.2840156E-009  0.1153457E+03  0.7561462E-02  0.1250979E+00
          3   -1    0    0  501    0  0.00000000000E+00  0.00000000000E+00  0.32916989699E+02  0.32916989699E+02  0.00000000000E+00 0. -1.
         -3   -1    0    0    0  501 -0.00000000000E+00 -0.00000000000E+00 -0.46667893556E+03  0.46667893556E+03  0.00000000000E+00 0.  1.
         25    2    1    2    0    0  0.38021236271E+02 -0.41197361776E+02 -0.28959550749E+03  0.32039836986E+03  0.12508685152E+03 0.  0.
          5    1    3    3  502    0  0.78069250674E+02 -0.26131347825E+02 -0.12102172795E+03  0.14642877544E+03  0.41800000000E+01 0.  1.
         -5    1    3    3    0  502 -0.40048014404E+02 -0.15066013951E+02 -0.16857377954E+03  0.17396959442E+03  0.41800000000E+01 0.  1.
        -11    1    1    2    0    0 -0.66805985675E+02  0.36419942554E+02 -0.11537423831E+03  0.13820516200E+03  0.00000000000E+00 0.  1.
         11    1    1    2    0    0  0.28784749404E+02  0.47774192221E+01 -0.28792200062E+02  0.40992393406E+02  0.00000000000E+00 0. -1.
</event>
<event>
 7    1  0.2840156E-009  0.2779203E+03  0.7561462E-02  0.1096830E+00
          2   -1    0    0  501    0  0.00000000000E+00  0.00000000000E+00  0.82802469959E+03  0.82802469959E+03  0.00000000000E+00 0. -1.
         -2   -1    0    0    0  501 -0.00000000000E+00 -0.00000000000E+00 -0.11603444022E+03  0.11603444022E+03  0.00000000000E+00 0.  1.
         25    2    1    2    0    0  0.25760043966E+03  0.58738567248E+02  0.54650802281E+03  0.61977924451E+03  0.12508831731E+03 0.  0.
          5    1    3    3  502    0  0.13043588909E+03 -0.20281996052E+02  0.17520521478E+03  0.21940651816E+03  0.41800000000E+01 0.  1.
         -5    1    3    3    0  502  0.12716455057E+03  0.79020563300E+02  0.37130280804E+03  0.40037272635E+03  0.41800000000E+01 0.  1.
        -11    1    1    2    0    0 -0.12536298661E+03  0.84907693340E+01  0.10623099999E+03  0.16453873992E+03  0.00000000000E+00 0.  1.
         11    1    1    2    0    0 -0.13223745305E+03 -0.67229336582E+02  0.59251236568E+02  0.15974115538E+03  0.00000000000E+00 0. -1.
</event>
<event>
 7    1  0.2840156E-009  0.1321112E+03  0.7561462E-02  0.1224356E+00
         -2   -1    0    0    0  501 -0.00000000000E+00  0.00000000000E+00  0.78105608750E+02  0.78105608750E+02  0.00000000000E+00 0.  1.
          2   -1    0    0  501    0  0.00000000000E+00 -0.00000000000E+00 -0.43674157415E+03  0.43674157415E+03  0.00000000000E+00 0. -1.
         25    2    1    2    0    0 -0.38384743878E+02  0.11227102812E+03 -0.60081542712E+02  0.18257930231E+03  0.12508891853E+03 0.  0.
          5    1    3    3  502    0 -0.32905670506E+02  0.72344225920E+02  0.29009009911E+02  0.84708117860E+02  0.41800000000E+01 0. -1.
         -5    1    3    3    0  502 -0.54790733717E+01  0.39926802205E+02 -0.89090552622E+02  0.97871184451E+02  0.41800000000E+01 0. -1.
        -11    1    1    2    0    0 -0.23905688262E+02 -0.52971735567E+02 -0.14599278618E+03  0.15713491119E+03  0.00000000000E+00 0.  1.
         11    1    1    2    0    0  0.62290432139E+02 -0.59299292558E+02 -0.15256163651E+03  0.17513296940E+03  0.00000000000E+00 0. -1.
</event>
<event>
 7    1  0.2840156E-009  0.7104225E+02  0.7561462E-02  0.1356584E+00
         -1   -1    0    0    0  501 -0.00000000000E+00  0.00000000000E+00  0.88024568231E+02  0.88024568231E+02  0.00000000000E+00 0.  1.
          1   -1    0    0  501    0  0.00000000000E+00 -0.00000000000E+00 -0.17892476239E+03  0.17892476239E+03  0.00000000000E+00 0. -1.
         25    2    1    2    0    0 -0.10803466241E+02 -0.51824757296E+02 -0.92803173958E+02  0.16450627040E+03  0.12508942222E+03 0.  0.
          5    1    3    3  502    0  0.87644268672E+01 -0.44790261663E+02  0.19798601291E+02  0.49924340068E+02  0.41800000000E+01 0.  1.
         -5    1    3    3    0  502 -0.19567893109E+02 -0.70344956336E+01 -0.11260177525E+03  0.11458193033E+03  0.41800000000E+01 0.  1.
        -11    1    1    2    0    0 -0.21502282065E+02  0.15985454335E+02  0.34892522027E+02  0.43992851439E+02  0.00000000000E+00 0.  1.
         11    1    1    2    0    0  0.32305748306E+02  0.35839302961E+02 -0.32989542229E+02  0.58450208784E+02  0.00000000000E+00 0. -1.
</event>
<event>
 7    1  0.2840156E-009  0.1176023E+03  0.7561462E-02  0.1247106E+00
         -1   -1    0    0    0  501 -0.00000000000E+00  0.00000000000E+00  0.13604472447E+02  0.13604472447E+02  0.00000000000E+00 0.  1.
          1   -1    0    0  501    0  0.00000000000E+00 -0.00000000000E+00 -0.14949946041E+04  0.14949946041E+04  0.00000000000E+00 0. -1.
         25    2    1    2    0    0  0.19896024973E+02 -0.88466025250E+02 -0.90860292504E+03  0.92164454842E+03  0.12508920340E+03 0.  0.
          5    1    3    3  502    0 -0.20212855399E+02 -0.18475134505E+02 -0.65287358490E+03  0.65346100142E+03  0.41800000000E+01 0. -1.
         -5    1    3    3    0  502  0.40108880372E+02 -0.69990890745E+02 -0.25572934013E+03  0.26818354699E+03  0.41800000000E+01 0. -1.
        -11    1    1    2    0    0  0.29936760650E+02  0.65170004288E+02 -0.27958312708E+03  0.28863482820E+03  0.00000000000E+00 0. -1.
         11    1    1    2    0    0 -0.49832785623E+02  0.23296020962E+02 -0.29320407950E+03  0.29831969990E+03  0.00000000000E+00 0.  1.
</event>
<event>
 7    1  0.2840156E-009  0.1550406E+03  0.7561462E-02  0.1194412E+00
          2   -1    0    0  501    0  0.00000000000E+00  0.00000000000E+00  0.97701111916E+03  0.97701111916E+03  0.00000000000E+00 0. -1.
         -2   -1    0    0    0  501 -0.00000000000E+00 -0.00000000000E+00 -0.33515957861E+02  0.33515957861E+02  0.00000000000E+00 0.  1.
         25    2    1    2    0    0 -0.12913111630E+03 -0.58425753956E+02  0.59596924831E+03  0.62523178605E+03  0.12508807868E+03 0.  0.
          5    1    3    3  502    0 -0.30777526419E+02  0.21646113584E+02  0.40446850652E+02  0.55400636218E+02  0.41800000000E+01 0. -1.
         -5    1    3    3    0  502 -0.98353589886E+02 -0.80071867540E+02  0.55552239766E+03  0.56983114983E+03  0.41800000000E+01 0. -1.
        -11    1    1    2    0    0  0.37322754195E+02  0.16037444780E+01  0.19424801004E+03  0.19780760699E+03  0.00000000000E+00 0. -1.
         11    1    1    2    0    0  0.91808362109E+02  0.56822009478E+02  0.15327790294E+03  0.18748768398E+03  0.00000000000E+00 0.  1.
</event>
<event>
 7    1  0.2840156E-009  0.1163286E+03  0.7561462E-02  0.1249280E+00
          1   -1    0    0  501    0  0.00000000000E+00  0.00000000000E+00  0.17261859347E+03  0.17261859347E+03  0.00000000000E+00 0. -1.
         -1   -1    0    0    0  501 -0.00000000000E+00 -0.00000000000E+00 -0.10495144668E+03  0.10495144668E+03  0.00000000000E+00 0.  1.
         25    2    1    2    0    0 -0.66061919587E+02  0.38229138404E+02  0.13669132225E+02  0.14718151473E+03  0.12509959577E+03 0.  0.
          5    1    3    3  502    0 -0.94753007402E+02  0.33716447197E+02 -0.19886862610E+02  0.10260551120E+03  0.41800000000E+01 0.  1.
         -5    1    3    3    0  502  0.28691087815E+02  0.45126912073E+01  0.33555994835E+02  0.44576003537E+02  0.41800000000E+01 0.  1.
        -11    1    1    2    0    0  0.61972819966E+02  0.22067753317E+01 -0.97920682762E+00  0.62019828426E+02  0.00000000000E+00 0.  1.
         11    1    1    2    0    0  0.40890996203E+01 -0.40435913736E+02  0.54977221401E+02  0.68368696992E+02  0.00000000000E+00 0. -1.
</event>
<event>
 7    1  0.2840156E-009  0.1051130E+03  0.7561462E-02  0.1269897E+00
          2   -1    0    0  501    0  0.00000000000E+00  0.00000000000E+00  0.72648406197E+03  0.72648406197E+03  0.00000000000E+00 0. -1.
         -2   -1    0    0    0  501 -0.00000000000E+00 -0.00000000000E+00 -0.31262813641E+02  0.31262813641E+02  0.00000000000E+00 0.  1.
         25    2    1    2    0    0 -0.46659040116E+02 -0.13163531190E+02  0.60735524969E+03  0.62199535815E+03  0.12508989432E+03 0.  0.
          5    1    3    3  502    0  0.24597133797E+02 -0.46125966520E+02  0.18066669483E+03  0.18812376458E+03  0.41800000000E+01 0. -1.
         -5    1    3    3    0  502 -0.71256173913E+02  0.32962435330E+02  0.42668855486E+03  0.43387159357E+03  0.41800000000E+01 0. -1.
        -11    1    1    2    0    0  0.52337876586E+02 -0.11724305669E+02  0.10991845920E+02  0.54749733750E+02  0.00000000000E+00 0.  1.
         11    1    1    2    0    0 -0.56788364703E+01  0.24887836859E+02  0.76874152723E+02  0.81001783709E+02  0.00000000000E+00 0. -1.
</event>
<event>
 7    1  0.2840156E-009  0.1085118E+03  0.7561462E-02  0.1263351E+00
         -1   -1    0    0    0  501 -0.00000000000E+00  0.00000000000E+00  0.39545873634E+02  0.39545873634E+02  0.00000000000E+00 0.  1.
          1   -1    0    0  501    0  0.00000000000E+00 -0.00000000000E+00 -0.35141336831E+03  0.35141336831E+03  0.00000000000E+00 0. -1.
         25    2    1    2    0    0 -0.10137959078E+02 -0.38569951392E+02 -0.21728680927E+03  0.25387339532E+03  0.12509086299E+03 0.  0.
          5    1    3    3  502    0  0.31591334399E+02  0.25776012121E+02 -0.28111185486E+02  0.49700365787E+02  0.41800000000E+01 0.  1.
         -5    1    3    3    0  502 -0.41729293478E+02 -0.64345963513E+02 -0.18917562378E+03  0.20417302953E+03  0.41800000000E+01 0.  1.
        -11    1    1    2    0    0  0.37039780819E+02 -0.14464262920E+02 -0.38239592758E+02  0.55167261299E+02  0.00000000000E+00 0.  1.
         11    1    1    2    0    0 -0.26901821740E+02  0.53034214312E+02 -0.56341092648E+02  0.81918585323E+02  0.00000000000E+00 0. -1.
</event>
<event>
 7    1  0.2840156E-009  0.9234948E+02  0.7561462E-02  0.1297260E+00
          2   -1    0    0  501    0  0.00000000000E+00  0.00000000000E+00  0.30258814502E+02  0.30258814502E+02  0.00000000000E+00 0. -1.
         -2   -1    0    0    0  501 -0.00000000000E+00 -0.00000000000E+00 -0.40483709580E+03  0.40483709580E+03  0.00000000000E+00 0.  1.
         25    2    1    2    0    0  0.28189552641E+02  0.22830505551E+01 -0.20985353496E+03  0.24593884802E+03  0.12509015802E+03 0.  0.
          5    1    3    3  502    0 -0.28371447766E+02 -0.25969336160E+02 -0.15779052323E+02  0.41782728024E+02  0.41800000000E+01 0. -1.
         -5    1    3    3    0  502  0.56561000406E+02  0.28252386715E+02 -0.19407448263E+03  0.20415612000E+03  0.41800000000E+01 0. -1.
        -11    1    1    2    0    0 -0.24264483384E+02 -0.38885689464E+02 -0.13260059919E+03  0.14029889844E+03  0.00000000000E+00 0.  1.
         11    1    1    2    0    0 -0.39250692570E+01  0.36602638909E+02 -0.32124147158E+02  0.48858163846E+02  0.00000000000E+00 0. -1.
</event>
<event>
 7    1  0.2840156E-009  0.8805384E+02  0.7561462E-02  0.1307634E+00
          1   -1    0    0  501    0  0.00000000000E+00  0.00000000000E+00  0.10031482091E+03  0.10031482091E+03  0.00000000000E+00 0. -1.
         -1   -1    0    0    0  501 -0.00000000000E+00 -0.00000000000E+00 -0.12619563423E+03  0.12619563423E+03  0.00000000000E+00 0.  1.
         25    2    1    2    0    0  0.12289356595E+02 -0.17542026474E+02 -0.44240307730E+02  0.13440156886E+03  0.12509127030E+03 0.  0.
          5    1    3    3  502    0 -0.43682518165E+02 -0.32193678665E+02 -0.52724797702E+02  0.75775801097E+02  0.41800000000E+01 0.  1.
         -5    1    3    3    0  502  0.55971874759E+02  0.14651652191E+02  0.84844899713E+01  0.58625767765E+02  0.41800000000E+01 0.  1.
        -11    1    1    2    0    0  0.20738489975E+02  0.22130773527E+02 -0.23660001488E+02  0.38466242002E+02  0.00000000000E+00 0.  1.
         11    1    1    2    0    0 -0.33027846569E+02 -0.45887470531E+01  0.42019495898E+02  0.53642644268E+02  0.00000000000E+00 0. -1.
</event>
<event>
 7    1  0.2840156E-009  0.1064122E+03  0.7561462E-02  0.1267362E+00
          2   -1    0    0  501    0  0.00000000000E+00  0.00000000000E+00  0.16698449264E+03  0.16698449264E+03  0.00000000000E+00 0. -1.
         -2   -1    0    0    0  501 -0.00000000000E+00 -0.00000000000E+00 -0.10291874938E+03  0.10291874938E+03  0.00000000000E+00 0.  1.
         25    2    1    2    0    0  0.10302546909E+02  0.48787156484E+02 -0.20002600653E+02  0.13613950694E+03  0.12509009635E+03 0.  0.
          5    1    3    3  502    0  0.32046013506E+02 -0.34864597061E+02 -0.13213011975E+02  0.49341090333E+02  0.41800000000E+01 0.  1.
         -5    1    3    3    0  502 -0.21743466597E+02  0.83651753545E+02 -0.67895886784E+01  0.86798416605E+02  0.41800000000E+01 0.  1.
        -11    1    1    2    0    0  0.48270687346E+01 -0.59828487539E+02  0.14542936000E+02  0.61759578215E+02  0.00000000000E+00 0.  1.
         11    1    1    2    0    0 -0.15129615643E+02  0.11041331056E+02  0.69525407910E+02  0.72004156866E+02  0.00000000000E+00 0. -1.
</event>
<event>
 7    1  0.2840156E-009  0.1353735E+03  0.7561462E-02  0.1219693E+00
         -2   -1    0    0    0  501 -0.00000000000E+00  0.00000000000E+00  0.84553457954E+02  0.84553457954E+02  0.00000000000E+00 0.  1.
          2   -1    0    0  501    0  0.00000000000E+00 -0.00000000000E+00 -0.68840579342E+03  0.68840579342E+03  0.00000000000E+00 0. -1.
         25    2    1    2    0    0 -0.30999852670E+02 -0.11065997614E+03 -0.60308516109E+03  0.62654948871E+03  0.12508368836E+03 0.  0.
          5    1    3    3  502    0  0.38845238308E+01 -0.10114699554E+03 -0.22547045364E+03  0.24718455068E+03  0.41800000000E+01 0. -1.
         -5    1    3    3    0  502 -0.34884376501E+02 -0.95129806056E+01 -0.37761470745E+03  0.37936493803E+03  0.41800000000E+01 0. -1.
        -11    1    1    2    0    0 -0.13166208791E+02  0.75357267163E+02  0.29843643770E+02  0.82114005150E+02  0.00000000000E+00 0.  1.
         11    1    1    2    0    0  0.44166061461E+02  0.35302708978E+02 -0.30610818141E+02  0.64295757507E+02  0.00000000000E+00 0. -1.
</event>
<event>
 7    1  0.2840156E-009  0.1125295E+03  0.7561462E-02  0.1255956E+00
          3   -1    0    0  501    0  0.00000000000E+00  0.00000000000E+00  0.32945717137E+03  0.32945717137E+03  0.00000000000E+00 0. -1.
         -3   -1    0    0    0  501 -0.00000000000E+00 -0.00000000000E+00 -0.72134576292E+02  0.72134576292E+02  0.00000000000E+00 0.  1.
         25    2    1    2    0    0 -0.34885600245E+02  0.98214946821E+02  0.13433590397E+03  0.21108698347E+03  0.12509355943E+03 0.  0.
          5    1    3    3  502    0 -0.47780541653E+02  0.46991651655E+02  0.14245041660E+03  0.15748266278E+03  0.41800000000E+01 0. -1.
         -5    1    3    3    0  502  0.12894941408E+02  0.51223295166E+02 -0.81145126291E+01  0.53604320691E+02  0.41800000000E+01 0. -1.
        -11    1    1    2    0    0  0.21213262425E+02 -0.41761961511E+02 -0.77201448045E+01  0.47472777123E+02  0.00000000000E+00 0.  1.
         11    1    1    2    0    0  0.13672337820E+02 -0.56452985310E+02  0.13070683592E+03  0.14303198708E+03  0.00000000000E+00 0. -1.
</event>
<event>
 7    1  0.2840156E-009  0.1090793E+03  0.7561462E-02  0.1262284E+00
          2   -1    0    0  501    0  0.00000000000E+00  0.00000000000E+00  0.12071942246E+02  0.12071942246E+02  0.00000000000E+00 0. -1.
         -2   -1    0    0    0  501 -0.00000000000E+00 -0.00000000000E+00 -0.13593213577E+04  0.13593213577E+04  0.00000000000E+00 0.  1.
         25    2    1    2    0    0  0.27320334435E+02 -0.12428524057E+02 -0.10626658218E+04  0.10704233137E+04  0.12508618175E+03 0.  0.
          5    1    3    3  502    0  0.73289963457E+02  0.14508289369E+02 -0.57975631368E+03  0.58456544959E+03  0.41800000000E+01 0.  1.
         -5    1    3    3    0  502 -0.45969629022E+02 -0.26936813426E+02 -0.48290950809E+03  0.48585786411E+03  0.41800000000E+01 0.  1.
        -11    1    1    2    0    0 -0.22872397703E+02  0.48456807436E+02 -0.10645573977E+03  0.11918067500E+03  0.00000000000E+00 0. -1.
         11    1    1    2    0    0 -0.44479367319E+01 -0.36028283378E+02 -0.17812785391E+03  0.18178931125E+03  0.00000000000E+00 0.  1.
</event>
<event>
 7    1  0.2840156E-009  0.1340525E+03  0.7561462E-02  0.1221564E+00
          1   -1    0    0  501    0  0.00000000000E+00  0.00000000000E+00  0.32934431535E+03  0.32934431535E+03  0.00000000000E+00 0. -1.
         -1   -1    0    0    0  501 -0.00000000000E+00 -0.00000000000E+00 -0.59756419131E+02  0.59756419131E+02  0.00000000000E+00 0.  1.
         25    2    1    2    0    0  0.67368540101E+02 -0.12570234681E+02  0.17329942569E+03  0.22444932053E+03  0.12509306754E+03 0.  0.
          5    1    3    3  502    0 -0.34086985920E+02 -0.19921096855E+02  0.61888063759E+02  0.73528073175E+02  0.41800000000E+01 0.  1.
         -5    1    3    3    0  502  0.10145552602E+03  0.73508621741E+01  0.11141136193E+03  0.15092124735E+03  0.41800000000E+01 0.  1.
        -11    1    1    2    0    0 -0.11088852415E+02  0.55004493355E+02  0.69320298179E+02  0.89183858835E+02  0.00000000000E+00 0. -1.
         11    1    1    2    0    0 -0.56279687686E+02 -0.42434258675E+02  0.26968172346E+02  0.75467555115E+02  0.00000000000E+00 0.  1.
</event>
<event>
 7    1  0.2840156E-009  0.1388982E+03  0.7561462E-02  0.1214819E+00
         -1   -1    0    0    0  501 -0.00000000000E+00  0.00000000000E+00  0.15713671590E+03  0.15713671590E+03  0.00000000000E+00 0.  1.
          1   -1    0    0  501    0  0.00000000000E+00 -0.00000000000E+00 -0.16653718653E+03  0.16653718653E+03  0.00000000000E+00 0. -1.
         25    2    1    2    0    0 -0.11651177360E+03  0.11737274912E+02  0.21102861279E+02  0.17264296477E+03  0.12508998968E+03 0.  0.
          5    1    3    3  502    0 -0.11330497642E+03 -0.64623402526E+01 -0.30567859591E+02  0.11760801827E+03  0.41800000000E+01 0.  1.
         -5    1    3    3    0  502 -0.32067971870E+01  0.18199615165E+02  0.51670720870E+02  0.55034946494E+02  0.41800000000E+01 0.  1.
        -11    1    1    2    0    0  0.13059767105E+03 -0.12378849155E+02 -0.18436868137E+02  0.13247228275E+03  0.00000000000E+00 0.  1.
         11    1    1    2    0    0 -0.14085897446E+02  0.64157424312E+00 -0.12066463766E+02  0.18558654913E+02  0.00000000000E+00 0. -1.
</event>
<event>
 7    1  0.2840156E-009  0.7606954E+02  0.7561462E-02  0.1340591E+00
         -1   -1    0    0    0  501 -0.00000000000E+00  0.00000000000E+00  0.20140030434E+03  0.20140030434E+03  0.00000000000E+00 0.  1.
          1   -1    0    0  501    0  0.00000000000E+00 -0.00000000000E+00 -0.67423803543E+02  0.67423803543E+02  0.00000000000E+00 0. -1.
         25    2    1    2    0    0 -0.28834589767E+01 -0.24430439939E+02  0.12068036646E+03  0.17554204166E+03  0.12508435876E+03 0.  0.
          5    1    3    3  502    0  0.26551500237E+01 -0.42551346977E+02 -0.95366749682E+01  0.43887213635E+02  0.41800000000E+01 0.  1.
         -5    1    3    3    0  502 -0.55386090004E+01  0.18120907039E+02  0.13021704143E+03  0.13165482802E+03  0.41800000000E+01 0.  1.
        -11    1    1    2    0    0  0.44684683216E+02  0.11493209677E+02 -0.38182187711E+01  0.46296798781E+02  0.00000000000E+00 0.  1.
         11    1    1    2    0    0 -0.41801224240E+02  0.12937230262E+02  0.17114353102E+02  0.46985267445E+02  0.00000000000E+00 0. -1.
</event>
<event>
 7    1  0.2840156E-009  0.5231769E+02  0.7561462E-02  0.1433227E+00
          1   -1    0    0  501    0  0.00000000000E+00  0.00000000000E+00  0.27081402529E+03  0.27081402529E+03  0.00000000000E+00 0. -1.
         -1   -1    0    0    0  501 -0.00000000000E+00 -0.00000000000E+00 -0.46063058377E+02  0.46063058377E+02  0.00000000000E+00 0.  1.
         25    2    1    2    0    0 -0.92571965997E+01  0.56245597972E+01  0.90983230890E+02  0.15504466875E+03  0.12507425651E+03 0.  0.
          5    1    3    3  502    0 -0.22509047057E+02 -0.10336012654E+02 -0.26006372609E+02  0.36156523246E+02  0.41800000000E+01 0. -1.
         -5    1    3    3    0  502  0.13251850457E+02  0.15960572451E+02  0.11698960350E+03  0.11888814550E+03  0.41800000000E+01 0. -1.
        -11    1    1    2    0    0  0.27942829662E+02  0.14002731906E+02  0.67756340476E+01  0.31981048249E+02  0.00000000000E+00 0.  1.
         11    1    1    2    0    0 -0.18685633063E+02 -0.19627291704E+02  0.12699210197E+03  0.12985136667E+03  0.00000000000E+00 0. -1.
</event>
<event>
 7    1  0.2840156E-009  0.9873080E+02  0.7561462E-02  0.1282988E+00
          2   -1    0    0  501    0  0.00000000000E+00  0.00000000000E+00  0.11820588632E+03  0.11820588632E+03  0.00000000000E+00 0. -1.
         -2   -1    0    0    0  501 -0.00000000000E+00 -0.00000000000E+00 -0.12745608921E+03  0.12745608921E+03  0.00000000000E+00 0.  1.
         25    2    1    2    0    0  0.61730898016E+02 -0.49438593586E+01 -0.16783138068E+02  0.14058857309E+03  0.12509327578E+03 0.  0.
          5    1    3    3  502    0  0.52656484644E+02 -0.33410135487E+02 -0.60819629806E+02  0.87209187005E+02  0.41800000000E+01 0. -1.
         -5    1    3    3    0  502  0.90744133727E+01  0.28466276129E+02  0.44036491738E+02  0.53379386089E+02  0.41800000000E+01 0. -1.
        -11    1    1    2    0    0 -0.17953813124E+02  0.43118993190E+02  0.25883918863E+01  0.46779127311E+02  0.00000000000E+00 0.  1.
         11    1    1    2    0    0 -0.43777084893E+02 -0.38175133831E+02  0.49445432897E+01  0.58294275131E+02  0.00000000000E+00 0. -1.
</event>
<event>
 7    1  0.2840156E-009  0.1460402E+03  0.7561462E-02  0.1205425E+00
          2   -1    0    0  501    0  0.00000000000E+00  0.00000000000E+00  0.89928044883E+03  0.89928044883E+03  0.00000000000E+00 0. -1.
         -2   -1    0    0    0  501 -0.00000000000E+00 -0.00000000000E+00 -0.30126045886E+02  0.30126045886E+02  0.00000000000E+00 0.  1.
         25    2    1    2    0    0 -0.10291299976E+03  0.70551096819E+02  0.50185175107E+03  0.53204410667E+03  0.12508880285E+03 0.  0.
          5    1    3    3  502    0 -0.44204078605E+02 -0.21751453713E+02  0.64900876362E+02  0.81588739765E+02  0.41800000000E+01 0. -1.
         -5    1    3    3    0  502 -0.58708921159E+02  0.92302550532E+02  0.43695087471E+03  0.45045536690E+03  0.41800000000E+01 0. -1.
        -11    1    1    2    0    0  0.24759888639E+02 -0.44250080921E+02  0.56998092437E+02  0.76288297191E+02  0.00000000000E+00 0.  1.
         11    1    1    2    0    0  0.78153111125E+02 -0.26301015898E+02  0.31030455943E+03  0.32107409086E+03  0.00000000000E+00 0. -1.
</event>
<event>
 7    1  0.2840156E-009  0.1120452E+03  0.7561462E-02  0.1256829E+00
         -2   -1    0    0    0  501 -0.00000000000E+00  0.00000000000E+00  0.45607904698E+02  0.45607904698E+02  0.00000000000E+00 0. -1.
          2   -1    0    0  501    0  0.00000000000E+00 -0.00000000000E+00 -0.33138495344E+03  0.33138495344E+03  0.00000000000E+00 0.  1.
         25    2    1    2    0    0  0.11717015922E+02 -0.26934383650E+02 -0.23433309445E+03  0.26725070233E+03  0.12509272264E+03 0.  0.
          5    1    3    3  502    0  0.15375370255E+02 -0.76062764101E+02 -0.16145197323E+03  0.17918191358E+03  0.41800000000E+01 0. -1.
         -5    1    3    3    0  502 -0.36583543329E+01  0.49128380451E+02 -0.72881121211E+02  0.88068788746E+02  0.41800000000E+01 0. -1.
        -11    1    1    2    0    0 -0.42441681485E+02 -0.14943166989E+02 -0.23511418234E+02  0.50767916584E+02  0.00000000000E+00 0.  1.
         11    1    1    2    0    0  0.30724665563E+02  0.41877550640E+02 -0.27932536059E+02  0.58974239225E+02  0.00000000000E+00 0. -1.
</event>
<event>
 7    1  0.2840156E-009  0.1469913E+03  0.7561462E-02  0.1204220E+00
         -2   -1    0    0    0  501 -0.00000000000E+00  0.00000000000E+00  0.85193849778E+02  0.85193849778E+02  0.00000000000E+00 0.  1.
          2   -1    0    0  501    0  0.00000000000E+00 -0.00000000000E+00 -0.42404842236E+03  0.42404842236E+03  0.00000000000E+00 0. -1.
         25    2    1    2    0    0 -0.71833574079E+02  0.70221357687E+02 -0.20105450859E+02  0.16168349447E+03  0.12508485835E+03 0.  0.
          5    1    3    3  502    0 -0.18376166726E+02 -0.35691656534E+02 -0.14331338365E+02  0.42830333982E+02  0.41800000000E+01 0. -1.
         -5    1    3    3    0  502 -0.53457407353E+02  0.10591301422E+03 -0.57741124948E+01  0.11885316049E+03  0.41800000000E+01 0. -1.
        -11    1    1    2    0    0  0.91877349470E+02 -0.43907185405E+02 -0.27074521442E+03  0.28926157610E+03  0.00000000000E+00 0. -1.
         11    1    1    2    0    0 -0.20043775392E+02 -0.26314172282E+02 -0.48003907303E+02  0.58297201573E+02  0.00000000000E+00 0.  1.
</event>
<event>
 7    1  0.2840156E-009  0.1873261E+03  0.7561462E-02  0.1160895E+00
         -1   -1    0    0    0  501 -0.00000000000E+00  0.00000000000E+00  0.11441767215E+03  0.11441767215E+03  0.00000000000E+00 0.  1.
          1   -1    0    0  501    0  0.00000000000E+00 -0.00000000000E+00 -0.41299460469E+03  0.41299460469E+03  0.00000000000E+00 0. -1.
         25    2    1    2    0    0  0.39815160587E+02  0.15702511983E+03 -0.27136862658E+03  0.33989725415E+03  0.12508827529E+03 0.  0.
          5    1    3    3  502    0 -0.22975410924E+02  0.40219853125E+01 -0.95696480129E+02  0.98586685623E+02  0.41800000000E+01 0. -1.
         -5    1    3    3    0  502  0.62790571512E+02  0.15300313452E+03 -0.17567214645E+03  0.24131056853E+03  0.41800000000E+01 0. -1.
        -11    1    1    2    0    0  0.26285291986E+02 -0.18852571928E+02 -0.56151730645E+01  0.32830872843E+02  0.00000000000E+00 0. -1.
         11    1    1    2    0    0 -0.66100452573E+02 -0.13817254791E+03 -0.21593132889E+02  0.15468414984E+03  0.00000000000E+00 0.  1.
</event>
<event>
 7    1  0.2840156E-009  0.8611900E+02  0.7561462E-02  0.1312532E+00
         -2   -1    0    0    0  501 -0.00000000000E+00  0.00000000000E+00  0.43979886559E+03  0.43979886559E+03  0.00000000000E+00 0. -1.
          2   -1    0    0  501    0  0.00000000000E+00 -0.00000000000E+00 -0.39032081549E+02  0.39032081549E+02  0.00000000000E+00 0.  1.
         25    2    1    2    0    0 -0.75149187972E+01 -0.33913571652E+02  0.10336948355E+03  0.16594477200E+03  0.12508322381E+03 0.  0.
          5    1    3    3  502    0 -0.41984743976E+02 -0.18429754560E+02  0.11686075408E+03  0.12560367361E+03  0.41800000000E+01 0.  1.
         -5    1    3    3    0  502  0.34469825178E+02 -0.15483817092E+02 -0.13491270528E+02  0.40341098399E+02  0.41800000000E+01 0.  1.
        -11    1    1    2    0    0 -0.11762623364E+02 -0.24223343024E+02  0.16274710844E+03  0.16495984652E+03  0.00000000000E+00 0. -1.
         11    1    1    2    0    0  0.19277542161E+02  0.58136914677E+02  0.13465019205E+03  0.14792632862E+03  0.00000000000E+00 0.  1.
</event>
<event>
 7    1  0.2840156E-009  0.6634173E+02  0.7561462E-02  0.1372994E+00
         -1   -1    0    0    0  501 -0.00000000000E+00  0.00000000000E+00  0.13983012132E+03  0.13983012132E+03  0.00000000000E+00 0.  1.
          1   -1    0    0  501    0  0.00000000000E+00 -0.00000000000E+00 -0.10001111454E+03  0.10001111454E+03  0.00000000000E+00 0. -1.
         25    2    1    2    0    0  0.18010933225E+01  0.28683986107E+02 -0.27639388257E+02  0.13129353568E+03  0.12509213298E+03 0.  0.
          5    1    3    3  502    0 -0.95753022995E+01  0.34588781769E+02  0.44831341343E+02  0.57579439082E+02  0.41800000000E+01 0.  1.
         -5    1    3    3    0  502  0.11376395622E+02 -0.59047956624E+01 -0.72470729600E+02  0.73714096602E+02  0.41800000000E+01 0.  1.
        -11    1    1    2    0    0 -0.12772995016E+02 -0.53993562683E+02  0.55514052037E+02  0.78487350487E+02  0.00000000000E+00 0. -1.
         11    1    1    2    0    0  0.10971901694E+02  0.25309576576E+02  0.11944343004E+02  0.30060349683E+02  0.00000000000E+00 0.  1.
</event>
<event>
 7    1  0.2840156E-009  0.1005191E+03  0.7561462E-02  0.1279208E+00
          1   -1    0    0  501    0  0.00000000000E+00  0.00000000000E+00  0.15717887872E+03  0.15717887872E+03  0.00000000000E+00 0. -1.
         -1   -1    0    0    0  501 -0.00000000000E+00 -0.00000000000E+00 -0.97401446406E+02  0.97401446406E+02  0.00000000000E+00 0.  1.
         25    2    1    2    0    0  0.11901890154E+02  0.60941506708E+02  0.45593872074E+02  0.14690596717E+03  0.12508812809E+03 0.  0.
          5    1    3    3  502    0  0.40133609199E+02  0.51835219073E+02 -0.24947624330E+02  0.70267011345E+02  0.41800000000E+01 0. -1.
         -5    1    3    3    0  502 -0.28231719045E+02  0.91062876348E+01  0.70541496404E+02  0.76638955822E+02  0.41800000000E+01 0. -1.
        -11    1    1    2    0    0 -0.11325824547E+01  0.21861899124E+02 -0.39050248844E+01  0.22236784742E+02  0.00000000000E+00 0.  1.
         11    1    1    2    0    0 -0.10769307699E+02 -0.82803405832E+02  0.18088585130E+02  0.85437573220E+02  0.00000000000E+00 0. -1.
</event>
<event>
 7    1  0.2840156E-009  0.8555944E+02  0.7561462E-02  0.1313976E+00
         -1   -1    0    0    0  501 -0.00000000000E+00  0.00000000000E+00  0.29062270712E+03  0.29062270712E+03  0.00000000000E+00 0.  1.
          1   -1    0    0  501    0  0.00000000000E+00 -0.00000000000E+00 -0.42833039411E+02  0.42833039411E+02  0.00000000000E+00 0. -1.
         25    2    1    2    0    0  0.31353534362E+01 -0.79749146695E+01  0.17699678711E+03  0.21690789410E+03  0.12509093560E+03 0.  0.
          5    1    3    3  502    0 -0.13673135702E+02  0.39209597958E+02  0.15759926927E+03  0.16303174318E+03  0.41800000000E+01 0. -1.
         -5    1    3    3    0  502  0.16808489138E+02 -0.47184512627E+02  0.19397517846E+02  0.53876150916E+02  0.41800000000E+01 0. -1.
        -11    1    1    2    0    0  0.10146595940E+02 -0.33797398413E+02  0.24712348872E+01  0.35374066073E+02  0.00000000000E+00 0. -1.
         11    1    1    2    0    0 -0.13281949376E+02  0.41772313083E+02  0.68321645710E+02  0.81173786360E+02  0.00000000000E+00 0.  1.
</event>
<event>
 7    1  0.2840156E-009  0.1247489E+03  0.7561462E-02  0.1235462E+00
         -1   -1    0    0    0  501 -0.00000000000E+00  0.00000000000E+00  0.49669308288E+02  0.49669308288E+02  0.00000000000E+00 0.  1.
          1   -1    0    0  501    0  0.00000000000E+00 -0.00000000000E+00 -0.41524656642E+03  0.41524656642E+03  0.00000000000E+00 0. -1.
         25    2    1    2    0    0 -0.40340624418E+02  0.60555638708E+02 -0.29286082960E+03  0.32666215064E+03  0.12508534600E+03 0.  0.
          5    1    3    3  502    0  0.36666464931E+02  0.55279089798E+02 -0.11697792734E+03  0.13454187194E+03  0.41800000000E+01 0.  1.
         -5    1    3    3    0  502 -0.77007089349E+02  0.52765489099E+01 -0.17588290227E+03  0.19212027870E+03  0.41800000000E+01 0.  1.
        -11    1    1    2    0    0 -0.61274211983E+01  0.15464477065E+02 -0.40032305431E+02  0.43350672654E+02  0.00000000000E+00 0. -1.
         11    1    1    2    0    0  0.46468045616E+02 -0.76020115773E+02 -0.32684123094E+02  0.94903051416E+02  0.00000000000E+00 0.  1.
</event>
<event>
 7    1  0.2840156E-009  0.8342489E+02  0.7561462E-02  0.1319604E+00
         -1   -1    0    0    0  501 -0.00000000000E+00  0.00000000000E+00  0.50250293787E+03  0.50250293787E+03  0.00000000000E+00 0.  1.
          1   -1    0    0  501    0  0.00000000000E+00 -0.00000000000E+00 -0.38679830800E+02  0.38679830800E+02  0.00000000000E+00 0. -1.
         25    2    1    2    0    0 -0.53104464714E+02  0.10203196522E+02  0.38542474427E+03  0.40881248685E+03  0.12510486208E+03 0.  0.
          5    1    3    3  502    0  0.18481873777E+02 -0.21075789887E+02  0.18980412849E+02  0.34110072554E+02  0.41800000000E+01 0. -1.
         -5    1    3    3    0  502 -0.71586338491E+02  0.31278986409E+02  0.36644433142E+03  0.37470241430E+03  0.41800000000E+01 0. -1.
        -11    1    1    2    0    0  0.16527790836E+02 -0.16277289939E+02  0.90454644788E+02  0.93381801232E+02  0.00000000000E+00 0.  1.
         11    1    1    2    0    0  0.36576673878E+02  0.60740934171E+01 -0.12056281992E+02  0.38988480584E+02  0.00000000000E+00 0. -1.
</event>
<event>
 7    1  0.2840156E-009  0.9743161E+02  0.7561462E-02  0.1285792E+00
          1   -1    0    0  501    0  0.00000000000E+00  0.00000000000E+00  0.37316164985E+03  0.37316164985E+03  0.00000000000E+00 0. -1.
         -1   -1    0    0    0  501 -0.00000000000E+00 -0.00000000000E+00 -0.35572464851E+02  0.35572464851E+02  0.00000000000E+00 0.  1.
         25    2    1    2    0    0 -0.32544678468E+02 -0.20027229931E+02  0.19169654890E+03  0.23206812871E+03  0.12509118062E+03 0.  0.
          5    1    3    3  502    0 -0.25059337630E+02 -0.64159453671E+02  0.55229554718E+02  0.88386548819E+02  0.41800000000E+01 0.  1.
         -5    1    3    3    0  502 -0.74853408374E+01  0.44132223740E+02  0.13646699418E+03  0.14368157989E+03  0.41800000000E+01 0.  1.
        -11    1    1    2    0    0  0.29677056123E+01  0.43214974654E+02  0.24884161063E+02  0.49955608121E+02  0.00000000000E+00 0.  1.
         11    1    1    2    0    0  0.29576972856E+02 -0.23187744723E+02  0.12100847504E+03  0.12671037787E+03  0.00000000000E+00 0. -1.
</event>
<event>
 7    1  0.2840156E-009  0.1357901E+03  0.7561462E-02  0.1219109E+00
         -1   -1    0    0    0  501 -0.00000000000E+00  0.00000000000E+00  0.29543111237E+02  0.29543111237E+02  0.00000000000E+00 0.  1.
          1   -1    0    0  501    0  0.00000000000E+00 -0.00000000000E+00 -0.75857495866E+03  0.75857495866E+03  0.00000000000E+00 0. -1.
         25    2    1    2    0    0  0.95894074245E+02  0.24447733069E+02 -0.46186710367E+03  0.48863274671E+03  0.12508946631E+03 0.  0.
          5    1    3    3  502    0  0.47006699931E+02  0.74616873067E+02 -0.28465624528E+03  0.29803348463E+03  0.41800000000E+01 0.  1.
         -5    1    3    3    0  502  0.48887374314E+02 -0.50169139998E+02 -0.17721085839E+03  0.19059926208E+03  0.41800000000E+01 0.  1.
        -11    1    1    2    0    0 -0.68233106821E+01  0.14407390825E+02 -0.81539159619E+00  0.15962310062E+02  0.00000000000E+00 0. -1.
         11    1    1    2    0    0 -0.89070763563E+02 -0.38855123894E+02 -0.26634935216E+03  0.28352301312E+03  0.00000000000E+00 0.  1.
</event>
<event>
 7    1  0.2840156E-009  0.1026953E+03  0.7561462E-02  0.1274728E+00
          2   -1    0    0  501    0  0.00000000000E+00  0.00000000000E+00  0.97680598707E+02  0.97680598707E+02  0.00000000000E+00 0.  1.
         -2   -1    0    0    0  501 -0.00000000000E+00 -0.00000000000E+00 -0.21108430588E+03  0.21108430588E+03  0.00000000000E+00 0. -1.
         25    2    1    2    0    0  0.74420778218E+02 -0.29357750402E+02 -0.11472880709E+02  0.14893443266E+03  0.12509799559E+03 0.  0.
          5    1    3    3  502    0  0.45876134675E+02 -0.31711164334E+02  0.53755993242E+02  0.77571882055E+02  0.41800000000E+01 0. -1.
         -5    1    3    3    0  502  0.28544643544E+02  0.23534139321E+01 -0.65228873951E+02  0.71362550606E+02  0.41800000000E+01 0. -1.
        -11    1    1    2    0    0 -0.89080131503E+02  0.15602409725E+01 -0.59932013070E+02  0.10737574387E+03  0.00000000000E+00 0.  1.
         11    1    1    2    0    0  0.14659353284E+02  0.27797509430E+02 -0.41998813395E+02  0.52454728060E+02  0.00000000000E+00 0. -1.
</event>
<event>
 7    1  0.2840156E-009  0.1179056E+03  0.7561462E-02  0.1246593E+00
          2   -1    0    0  501    0  0.00000000000E+00  0.00000000000E+00  0.46257857968E+03  0.46257857968E+03  0.00000000000E+00 0. -1.
         -2   -1    0    0    0  501 -0.00000000000E+00 -0.00000000000E+00 -0.38049626255E+02  0.38049626255E+02  0.00000000000E+00 0.  1.
         25    2    1    2    0    0 -0.49262864466E+02  0.26322986975E+02  0.13580115971E+03  0.19289220170E+03  0.12508284071E+03 0.  0.
          5    1    3    3  502    0 -0.58519183454E+01  0.68482336368E+02  0.40386359741E+02  0.79828602618E+02  0.41800000000E+01 0. -1.
         -5    1    3    3    0  502 -0.43410946121E+02 -0.42159349393E+02  0.95414799972E+02  0.11306359908E+03  0.41800000000E+01 0. -1.
        -11    1    1    2    0    0 -0.25611796939E+02  0.31970453247E+01  0.78130924871E+02  0.82283817743E+02  0.00000000000E+00 0. -1.
         11    1    1    2    0    0  0.74874661405E+02 -0.29520032300E+02  0.21059686884E+03  0.22545218649E+03  0.00000000000E+00 0.  1.
</event>
<event>
 7    1  0.2840156E-009  0.1266107E+03  0.7561462E-02  0.1232573E+00
         -1   -1    0    0    0  501 -0.00000000000E+00  0.00000000000E+00  0.36729233083E+02  0.36729233083E+02  0.00000000000E+00 0.  1.
          1   -1    0    0  501    0  0.00000000000E+00 -0.00000000000E+00 -0.44329506450E+03  0.44329506450E+03  0.00000000000E+00 0. -1.
         25    2    1    2    0    0  0.66731606659E+02  0.42239241246E+00 -0.21914789947E+03  0.26101088492E+03  0.12509034520E+03 0.  0.
          5    1    3    3  502    0 -0.32461991985E+02  0.20718100177E+02 -0.43663224105E+02  0.58369256787E+02  0.41800000000E+01 0. -1.
         -5    1    3    3    0  502  0.99193598644E+02 -0.20295707764E+02 -0.17548467536E+03  0.20264162813E+03  0.41800000000E+01 0. -1.
        -11    1    1    2    0    0  0.62565106384E+01 -0.32736405706E+02 -0.60780522510E+02  0.69318742780E+02  0.00000000000E+00 0.  1.
         11    1    1    2    0    0 -0.72988117297E+02  0.32314013293E+02 -0.12663740943E+03  0.14969466988E+03  0.00000000000E+00 0. -1.
</event>
<event>
 7    1  0.2840156E-009  0.1081650E+03  0.7561462E-02  0.1264006E+00
          2   -1    0    0  501    0  0.00000000000E+00  0.00000000000E+00  0.55970121900E+03  0.55970121900E+03  0.00000000000E+00 0. -1.
         -2   -1    0    0    0  501 -0.00000000000E+00 -0.00000000000E+00 -0.58692641160E+02  0.58692641160E+02  0.00000000000E+00 0.  1.
         25    2    1    2    0    0  0.38235953576E+02 -0.11394947566E+01  0.50332230974E+03  0.52004226177E+03  0.12508924792E+03 0.  0.
          5    1    3    3  502    0 -0.12890691988E+02  0.51521243017E+02  0.27709615570E+03  0.28217079992E+03  0.41800000000E+01 0. -1.
         -5    1    3    3    0  502  0.51126645564E+02 -0.52660737774E+02  0.22622615404E+03  0.23787146185E+03  0.41800000000E+01 0. -1.
        -11    1    1    2    0    0 -0.17919584243E+02  0.41031147217E+02 -0.21473593649E+02  0.49656638686E+02  0.00000000000E+00 0.  1.
         11    1    1    2    0    0 -0.20316369333E+02 -0.39891652460E+02  0.19159861749E+02  0.48694959710E+02  0.00000000000E+00 0. -1.
</event>
<event>
 7    1  0.2840156E-009  0.2242990E+03  0.7561462E-02  0.1130718E+00
         -3   -1    0    0    0  501 -0.00000000000E+00  0.00000000000E+00  0.63630730298E+02  0.63630730298E+02  0.00000000000E+00 0. -1.
          3   -1    0    0  501    0  0.00000000000E+00 -0.00000000000E+00 -0.10888481567E+04  0.10888481567E+04  0.00000000000E+00 0.  1.
         25    2    1    2    0    0  0.60990206399E+01 -0.21206107712E+03 -0.76874401881E+03  0.80723127028E+03  0.12509140167E+03 0.  0.
          5    1    3    3  502    0 -0.31555941768E+02 -0.18035205545E+03 -0.46983449494E+03  0.50426636454E+03  0.41800000000E+01 0. -1.
         -5    1    3    3    0  502  0.37654962408E+02 -0.31709021663E+02 -0.29890952387E+03  0.30296490574E+03  0.41800000000E+01 0. -1.
        -11    1    1    2    0    0  0.17543698733E+02  0.81137216433E+02 -0.16214399152E+03  0.18215845641E+03  0.00000000000E+00 0.  1.
         11    1    1    2    0    0 -0.23642719373E+02  0.13092386069E+03 -0.94329416078E+02  0.16308916032E+03  0.00000000000E+00 0. -1.
</event>
<event>
 7    1  0.2840156E-009  0.9991351E+02  0.7561462E-02  0.1280478E+00
         -2   -1    0    0    0  501 -0.00000000000E+00  0.00000000000E+00  0.10712631229E+03  0.10712631229E+03  0.00000000000E+00 0.  1.
          2   -1    0    0  501    0  0.00000000000E+00 -0.00000000000E+00 -0.16485947060E+03  0.16485947060E+03  0.00000000000E+00 0. -1.
         25    2    1    2    0    0  0.52825574592E+02  0.30977777465E+02 -0.80594915997E+02  0.16091428204E+03  0.12509077365E+03 0.  0.
          5    1    3    3  502    0  0.36242431796E+02 -0.18250307125E+02  0.21629433320E+02  0.46172419889E+02  0.41800000000E+01 0.  1.
         -5    1    3    3    0  502  0.16583142796E+02  0.49228084590E+02 -0.10222434932E+03  0.11474186215E+03  0.41800000000E+01 0.  1.
        -11    1    1    2    0    0 -0.19323787631E+02  0.30963874381E+02  0.17413015169E+02  0.40439873669E+02  0.00000000000E+00 0.  1.
         11    1    1    2    0    0 -0.33501786961E+02 -0.61941651847E+02  0.54487425215E+01  0.70631627180E+02  0.00000000000E+00 0. -1.
</event>
<event>
 7    1  0.2840156E-009  0.9853199E+02  0.7561462E-02  0.1283414E+00
         -1   -1    0    0    0  501 -0.00000000000E+00  0.00000000000E+00  0.71320752353E+03  0.71320752353E+03  0.00000000000E+00 0.  1.
          1   -1    0    0  501    0  0.00000000000E+00 -0.00000000000E+00 -0.24662222576E+02  0.24662222576E+02  0.00000000000E+00 0. -1.
         25    2    1    2    0    0  0.64183792405E+02  0.38399866446E+02  0.42914292973E+03  0.45321740400E+03  0.12509297424E+03 0.  0.
          5    1    3    3  502    0  0.35417247751E+02  0.36038096221E+02  0.41942232739E+03  0.42247566430E+03  0.41800000000E+01 0.  1.
         -5    1    3    3    0  502  0.28766544654E+02  0.23617702249E+01  0.97206023441E+01  0.30741739701E+02  0.41800000000E+01 0.  1.
        -11    1    1    2    0    0  0.54097697094E+01  0.23466398009E+02  0.54658901541E+02  0.59728828562E+02  0.00000000000E+00 0. -1.
         11    1    1    2    0    0 -0.69593562115E+02 -0.61866264455E+02  0.20474346968E+03  0.22492351354E+03  0.00000000000E+00 0.  1.
</event>
<event>
 7    1  0.2840156E-009  0.1126321E+03  0.7561462E-02  0.1255772E+00
         -1   -1    0    0    0  501 -0.00000000000E+00  0.00000000000E+00  0.49145097012E+02  0.49145097012E+02  0.00000000000E+00 0.  1.
          1   -1    0    0  501    0  0.00000000000E+00 -0.00000000000E+00 -0.38037352796E+03  0.38037352796E+03  0.00000000000E+00 0. -1.
         25    2    1    2    0    0 -0.32247799694E+02 -0.65171951752E+02 -0.24381715956E+03  0.28351694254E+03  0.12509094902E+03 0.  0.
          5    1    3    3  502    0 -0.40799534689E+02  0.43436542638E+01 -0.19177339966E+03  0.19615804490E+03  0.41800000000E+01 0. -1.
         -5    1    3    3    0  502  0.85517349948E+01 -0.69515606016E+02 -0.52043759909E+02  0.87358897638E+02  0.41800000000E+01 0. -1.
        -11    1    1    2    0    0  0.22551201883E+02 -0.18780239262E+02 -0.38323071416E+02  0.48269160920E+02  0.00000000000E+00 0.  1.
         11    1    1    2    0    0  0.96965978104E+01  0.83952191014E+02 -0.49088199965E+02  0.97732521512E+02  0.00000000000E+00 0. -1.
</event>
<event>
 7    1  0.2840156E-009  0.9410490E+02  0.7561462E-02  0.1293205E+00
         -2   -1    0    0    0  501 -0.00000000000E+00  0.00000000000E+00  0.67952545055E+02  0.67952545055E+02  0.00000000000E+00 0.  1.
          2   -1    0    0  501    0  0.00000000000E+00 -0.00000000000E+00 -0.22250298304E+03  0.22250298304E+03  0.00000000000E+00 0. -1.
         25    2    1    2    0    0 -0.44134510300E+02 -0.12012173282E+02 -0.45120130727E+02  0.14062439593E+03  0.12508895725E+03 0.  0.
          5    1    3    3  502    0 -0.42137968746E+02  0.53089770071E+02 -0.24026094535E+02  0.72033726232E+02  0.41800000000E+01 0.  1.
         -5    1    3    3    0  502 -0.19965415533E+01 -0.65101943353E+02 -0.21094036192E+02  0.68590669697E+02  0.41800000000E+01 0.  1.
        -11    1    1    2    0    0  0.18945298980E+02  0.21006359828E+02 -0.11831318075E+03  0.12164785343E+03  0.00000000000E+00 0. -1.
         11    1    1    2    0    0  0.25189211320E+02 -0.89941865451E+01  0.88828734911E+01  0.28183278730E+02  0.00000000000E+00 0.  1.
</event>
<event>
 7    1  0.2840156E-009  0.2484489E+03  0.7561462E-02  0.1114289E+00
          1   -1    0    0  501    0  0.00000000000E+00  0.00000000000E+00  0.87150090296E+03  0.87150090296E+03  0.00000000000E+00 0. -1.
         -1   -1    0    0    0  501 -0.00000000000E+00 -0.00000000000E+00 -0.96139392976E+02  0.96139392976E+02  0.00000000000E+00 0.  1.
         25    2    1    2    0    0 -0.14494066739E+03 -0.18700970648E+03  0.18593509008E+03  0.32588331584E+03  0.12509056893E+03 0.  0.
          5    1    3    3  502    0 -0.53651537414E+02 -0.12681099630E+03  0.16416860721E+03  0.21430893645E+03  0.41800000000E+01 0.  1.
         -5    1    3    3    0  502 -0.91289129975E+02 -0.60198710184E+02  0.21766482879E+02  0.11157437939E+03  0.41800000000E+01 0.  1.
        -11    1    1    2    0    0  0.79472657264E+02  0.40410341266E+02  0.15792223608E+03  0.18135140359E+03  0.00000000000E+00 0. -1.
         11    1    1    2    0    0  0.65468010124E+02  0.14659936522E+03  0.43150418382E+03  0.46040557652E+03  0.00000000000E+00 0.  1.
</event>
<event>
 7    1  0.2840156E-009  0.1184678E+03  0.7561462E-02  0.1245646E+00
         -1   -1    0    0    0  501 -0.00000000000E+00  0.00000000000E+00  0.19206160537E+03  0.19206160537E+03  0.00000000000E+00 0.  1.
          1   -1    0    0  501    0  0.00000000000E+00 -0.00000000000E+00 -0.12337448026E+03  0.12337448026E+03  0.00000000000E+00 0. -1.
         25    2    1    2    0    0  0.26247189630E+02 -0.75574862909E+02 -0.38141701277E+02  0.15330705547E+03  0.12509112284E+03 0.  0.
          5    1    3    3  502    0 -0.39804546571E+02  0.57775616989E+01  0.32316348894E+01  0.40567203638E+02  0.41800000000E+01 0. -1.
         -5    1    3    3    0  502  0.66051736202E+02 -0.81352424608E+02 -0.41373336167E+02  0.11273985183E+03  0.41800000000E+01 0. -1.
        -11    1    1    2    0    0  0.64932545077E+01  0.49074156786E+02  0.10924619866E+03  0.11993818049E+03  0.00000000000E+00 0.  1.
         11    1    1    2    0    0 -0.32740444138E+02  0.26500706123E+02 -0.24173722701E+01  0.42190849672E+02  0.00000000000E+00 0. -1.
</event>
<event>
 7    1  0.2840156E-009  0.1143970E+03  0.7561462E-02  0.1252637E+00
          2   -1    0    0  501    0  0.00000000000E+00  0.00000000000E+00  0.12683671625E+04  0.12683671625E+04  0.00000000000E+00 0. -1.
         -2   -1    0    0    0  501 -0.00000000000E+00 -0.00000000000E+00 -0.20720559039E+02  0.20720559039E+02  0.00000000000E+00 0.  1.
         25    2    1    2    0    0 -0.16432166730E+02  0.78164601019E+02  0.10532552165E+04  0.10636606205E+04  0.12509054117E+03 0.  0.
          5    1    3    3  502    0  0.35742918397E+02 -0.26828558532E+01  0.11634057712E+03  0.12180868695E+03  0.41800000000E+01 0. -1.
         -5    1    3    3    0  502 -0.52175085128E+02  0.80847456872E+02  0.93691463936E+03  0.94185193350E+03  0.41800000000E+01 0. -1.
        -11    1    1    2    0    0  0.36117602270E+02 -0.57102873038E+02  0.18183473936E+03  0.19398219439E+03  0.00000000000E+00 0. -1.
         11    1    1    2    0    0 -0.19685435540E+02 -0.21061727981E+02  0.12556647623E+02  0.31444906701E+02  0.00000000000E+00 0.  1.
</event>
<event>
 7    1  0.2840156E-009  0.7683780E+02  0.7561462E-02  0.1338273E+00
         -2   -1    0    0    0  501 -0.00000000000E+00  0.00000000000E+00  0.14517948940E+03  0.14517948940E+03  0.00000000000E+00 0.  1.
          2   -1    0    0  501    0  0.00000000000E+00 -0.00000000000E+00 -0.85615667128E+02  0.85615667128E+02  0.00000000000E+00 0. -1.
         25    2    1    2    0    0  0.24400715987E+02 -0.10239534072E+02  0.41180917198E+02  0.13432373371E+03  0.12508698772E+03 0.  0.
          5    1    3    3  502    0  0.24678612615E+02 -0.36403215363E+02  0.77594826728E+02  0.89289739300E+02  0.41800000000E+01 0.  1.
         -5    1    3    3    0  502 -0.27789662773E+00  0.26163681290E+02 -0.36413909530E+02  0.45033994409E+02  0.41800000000E+01 0.  1.
        -11    1    1    2    0    0 -0.47187656601E+02 -0.14500730009E+02  0.33434306687E+02  0.59622134899E+02  0.00000000000E+00 0.  1.
         11    1    1    2    0    0  0.22786940614E+02  0.24740264081E+02 -0.15051401616E+02  0.36849287916E+02  0.00000000000E+00 0. -1.
</event>
<event>
 7    1  0.2840156E-009  0.1061913E+03  0.7561462E-02  0.1267790E+00
         -4   -1    0    0    0  501 -0.00000000000E+00  0.00000000000E+00  0.88571072082E+02  0.88571072082E+02  0.00000000000E+00 0.  1.
          4   -1    0    0  501    0  0.00000000000E+00 -0.00000000000E+00 -0.16050184855E+03  0.16050184855E+03  0.00000000000E+00 0. -1.
         25    2    1    2    0    0 -0.18162630730E+02  0.77412441803E+01  0.45300481883E+01  0.12671882694E+03  0.12508929510E+03 0.  0.
          5    1    3    3  502    0  0.17835435785E+02  0.60172908145E+02  0.25276733925E+01  0.62950323089E+02  0.41800000000E+01 0. -1.
         -5    1    3    3    0  502 -0.35998066515E+02 -0.52431663965E+02  0.20023747959E+01  0.63768503854E+02  0.41800000000E+01 0. -1.
        -11    1    1    2    0    0 -0.82627366631E+00  0.37069072657E+02 -0.73065075727E+01  0.37791320812E+02  0.00000000000E+00 0.  1.
         11    1    1    2    0    0  0.18988904396E+02 -0.44810316837E+02 -0.69154317085E+02  0.84562772877E+02  0.00000000000E+00 0. -1.
</event>
<event>
 7    1  0.2840156E-009  0.6566125E+02  0.7561462E-02  0.1375501E+00
          1   -1    0    0  501    0  0.00000000000E+00  0.00000000000E+00  0.13631321956E+03  0.13631321956E+03  0.00000000000E+00 0. -1.
         -1   -1    0    0    0  501 -0.00000000000E+00 -0.00000000000E+00 -0.91570979638E+02  0.91570979638E+02  0.00000000000E+00 0.  1.
         25    2    1    2    0    0 -0.16452065606E+01  0.15852982338E+02 -0.71290190002E+01  0.12630403879E+03  0.12509142077E+03 0.  0.
          5    1    3    3  502    0 -0.25600085647E+02  0.19403702613E+02  0.52567633246E+02  0.61747036571E+02  0.41800000000E+01 0. -1.
         -5    1    3    3    0  502  0.23954879086E+02 -0.35507202751E+01 -0.59696652246E+02  0.64557002222E+02  0.41800000000E+01 0. -1.
        -11    1    1    2    0    0 -0.35695744470E+01 -0.44799649643E+02  0.56082125100E+02  0.71867622930E+02  0.00000000000E+00 0. -1.
         11    1    1    2    0    0  0.52147810076E+01  0.28946667305E+02 -0.42108661810E+01  0.29712537472E+02  0.00000000000E+00 0.  1.
</event>
<event>
 7    1  0.2840156E-009  0.1232685E+03  0.7561462E-02  0.1237800E+00
         -2   -1    0    0    0  501 -0.00000000000E+00  0.00000000000E+00  0.90484958089E+01  0.90484958089E+01  0.00000000000E+00 0.  1.
          2   -1    0    0  501    0  0.00000000000E+00 -0.00000000000E+00 -0.17958784677E+04  0.17958784677E+04  0.00000000000E+00 0. -1.
         25    2    1    2    0    0 -0.56640857695E+02 -0.17318622637E+02 -0.11585316598E+04  0.11667692066E+04  0.12508658362E+03 0.  0.
          5    1    3    3  502    0  0.37390165905E+02 -0.15510289778E+02 -0.48267905120E+03  0.48439150742E+03  0.41800000000E+01 0.  1.
         -5    1    3    3    0  502 -0.94031023600E+02 -0.18083328589E+01 -0.67585260859E+03  0.68237769923E+03  0.41800000000E+01 0.  1.
        -11    1    1    2    0    0  0.30269660853E+02 -0.39085673309E+02 -0.28682575323E+03  0.29105490022E+03  0.00000000000E+00 0. -1.
         11    1    1    2    0    0  0.26371196842E+02  0.56404295946E+02 -0.34147255886E+03  0.34710285663E+03  0.00000000000E+00 0.  1.
</event>
<event>
 7    1  0.2840156E-009  0.1076527E+03  0.7561462E-02  0.1264979E+00
         -2   -1    0    0    0  501 -0.00000000000E+00  0.00000000000E+00  0.29721443898E+02  0.29721443898E+02  0.00000000000E+00 0.  1.
          2   -1    0    0  501    0  0.00000000000E+00 -0.00000000000E+00 -0.60274220128E+03  0.60274220128E+03  0.00000000000E+00 0. -1.
         25    2    1    2    0    0 -0.42319459119E+02 -0.39673810990E+01 -0.16728138008E+03  0.21316151039E+03  0.12509233653E+03 0.  0.
          5    1    3    3  502    0 -0.60345600827E+02 -0.37572655081E+02 -0.15856495043E+03  0.17382063127E+03  0.41800000000E+01 0. -1.
         -5    1    3    3    0  502  0.18026141708E+02  0.33605273982E+02 -0.87164296480E+01  0.39340879122E+02  0.41800000000E+01 0. -1.
        -11    1    1    2    0    0  0.62084156855E+01  0.48219092458E+02 -0.19294083145E+03  0.19897183154E+03  0.00000000000E+00 0. -1.
         11    1    1    2    0    0  0.36111043433E+02 -0.44251711359E+02 -0.21279854585E+03  0.22033030325E+03  0.00000000000E+00 0.  1.
</event>
<event>
 7    1  0.2840156E-009  0.3338234E+03  0.7561462E-02  0.1069458E+00
          2   -1    0    0  501    0  0.00000000000E+00  0.00000000000E+00  0.74143036976E+03  0.74143036976E+03  0.00000000000E+00 0.  1.
         -2   -1    0    0    0  501 -0.00000000000E+00 -0.00000000000E+00 -0.16752250186E+03  0.16752250186E+03  0.00000000000E+00 0. -1.
         25    2    1    2    0    0 -0.32965774449E+03  0.10930376838E+02  0.36754556052E+03  0.50944170949E+03  0.12508962658E+03 0.  0.
          5    1    3    3  502    0 -0.27953941700E+03 -0.62488810128E+01  0.23030227447E+03  0.36226777968E+03  0.41800000000E+01 0.  1.
         -5    1    3    3    0  502 -0.50118327487E+02  0.17179257851E+02  0.13724328605E+03  0.14717392981E+03  0.41800000000E+01 0.  1.
        -11    1    1    2    0    0  0.23093686802E+03 -0.34144360684E+02  0.17984117961E+03  0.29468716338E+03  0.00000000000E+00 0.  1.
         11    1    1    2    0    0  0.98720876469E+02  0.23213983846E+02  0.26521127775E+02  0.10482399876E+03  0.00000000000E+00 0. -1.
</event>
<event>
 7    1  0.2840156E-009  0.1202560E+03  0.7561462E-02  0.1242675E+00
         -2   -1    0    0    0  501 -0.00000000000E+00  0.00000000000E+00  0.20719314121E+02  0.20719314121E+02  0.00000000000E+00 0.  1.
          2   -1    0    0  501    0  0.00000000000E+00 -0.00000000000E+00 -0.13865917097E+04  0.13865917097E+04  0.00000000000E+00 0. -1.
         25    2    1    2    0    0  0.42364052450E+02 -0.66887455157E+02 -0.11473409735E+04  0.11568520176E+04  0.12508651573E+03 0.  0.
          5    1    3    3  502    0  0.77658330652E+02 -0.22314340904E+02 -0.45251010209E+03  0.45968642684E+03  0.41800000000E+01 0.  1.
         -5    1    3    3    0  502 -0.35294278202E+02 -0.44573114253E+02 -0.69483087146E+03  0.69716559074E+03  0.41800000000E+01 0.  1.
        -11    1    1    2    0    0  0.15135274504E+02  0.31845830806E+02 -0.15111828013E+03  0.15517721503E+03  0.00000000000E+00 0. -1.
         11    1    1    2    0    0 -0.57499326953E+02  0.35041624351E+02 -0.67413141948E+02  0.95281791254E+02  0.00000000000E+00 0.  1.
</event>
<event>
 7    1  0.2840156E-009  0.9566476E+02  0.7561462E-02  0.1289686E+00
          1   -1    0    0  501    0  0.00000000000E+00  0.00000000000E+00  0.47939529894E+03  0.47939529894E+03  0.00000000000E+00 0. -1.
         -1   -1    0    0    0  501 -0.00000000000E+00 -0.00000000000E+00 -0.33311880927E+02  0.33311880927E+02  0.00000000000E+00 0.  1.
         25    2    1    2    0    0  0.40925190880E+02  0.33029928514E+02  0.32173041065E+03  0.34917580176E+03  0.12508971170E+03 0.  0.
          5    1    3    3  502    0  0.53042344924E+02  0.67744322974E+02  0.28208085058E+03  0.29494043859E+03  0.41800000000E+01 0. -1.
         -5    1    3    3    0  502 -0.12117154044E+02 -0.34714394461E+02  0.39649560067E+02  0.54235363172E+02  0.41800000000E+01 0. -1.
        -11    1    1    2    0    0 -0.13632322901E+02 -0.38062758746E+02  0.12918232261E+03  0.13536131761E+03  0.00000000000E+00 0. -1.
         11    1    1    2    0    0 -0.27292867978E+02  0.50328302319E+01 -0.48293152426E+01  0.28170060496E+02  0.00000000000E+00 0.  1.
</event>
<event>
 7    1  0.2840156E-009  0.1026154E+03  0.7561462E-02  0.1274890E+00
         -1   -1    0    0    0  501 -0.00000000000E+00  0.00000000000E+00  0.31024151715E+03  0.31024151715E+03  0.00000000000E+00 0.  1.
          1   -1    0    0  501    0  0.00000000000E+00 -0.00000000000E+00 -0.58839728213E+02  0.58839728213E+02  0.00000000000E+00 0. -1.
         25    2    1    2    0    0 -0.78156329026E+02 -0.12556611611E+02  0.15899897579E+03  0.21724424672E+03  0.12509319793E+03 0.  0.
          5    1    3    3  502    0 -0.34822302885E+02  0.42972873551E+02  0.15912529933E+02  0.57705646589E+02  0.41800000000E+01 0.  1.
         -5    1    3    3    0  502 -0.43334026141E+02 -0.55529485162E+02  0.14308644586E+03  0.15953860013E+03  0.41800000000E+01 0.  1.
        -11    1    1    2    0    0  0.33118843831E+02  0.66288856306E+01 -0.13677233420E+02  0.36439904712E+02  0.00000000000E+00 0. -1.
         11    1    1    2    0    0  0.45037485195E+02  0.59277259803E+01  0.10608004657E+03  0.11539709393E+03  0.00000000000E+00 0.  1.
</event>
<event>
 7    1  0.2840156E-009  0.1018082E+03  0.7561462E-02  0.1276539E+00
          2   -1    0    0  501    0  0.00000000000E+00  0.00000000000E+00  0.25600828198E+03  0.25600828198E+03  0.00000000000E+00 0. -1.
         -2   -1    0    0    0  501 -0.00000000000E+00 -0.00000000000E+00 -0.93920531733E+02  0.93920531733E+02  0.00000000000E+00 0.  1.
         25    2    1    2    0    0  0.78339859486E+01 -0.62643664265E+02 -0.15244738397E+02  0.14094714818E+03  0.12509235198E+03 0.  0.
          5    1    3    3  502    0  0.36094370337E+02 -0.17266637641E+02  0.44956578332E+02  0.60328324034E+02  0.41800000000E+01 0. -1.
         -5    1    3    3    0  502 -0.28260384388E+02 -0.45377026624E+02 -0.60201316728E+02  0.80618824147E+02  0.41800000000E+01 0. -1.
        -11    1    1    2    0    0  0.18346275848E+02  0.77515166963E+02  0.13937682410E+03  0.16053375359E+03  0.00000000000E+00 0.  1.
         11    1    1    2    0    0 -0.26180261797E+02 -0.14871502698E+02  0.37955664551E+02  0.48447911944E+02  0.00000000000E+00 0. -1.
</event>
<event>
 7    1  0.2840156E-009  0.1081421E+03  0.7561462E-02  0.1264050E+00
          1   -1    0    0  501    0  0.00000000000E+00  0.00000000000E+00  0.82758726938E+03  0.82758726938E+03  0.00000000000E+00 0. -1.
         -1   -1    0    0    0  501 -0.00000000000E+00 -0.00000000000E+00 -0.18026386542E+02  0.18026386542E+02  0.00000000000E+00 0.  1.
         25    2    1    2    0    0  0.48807240384E+02  0.21302493143E+02  0.49255433720E+03  0.51097375500E+03  0.12509380593E+03 0.  0.
          5    1    3    3  502    0 -0.19825994105E+01 -0.34402474807E+02  0.43674124042E+02  0.55788551551E+02  0.41800000000E+01 0. -1.
         -5    1    3    3    0  502  0.50789839794E+02  0.55704967951E+02  0.44888021315E+03  0.45518520345E+03  0.41800000000E+01 0. -1.
        -11    1    1    2    0    0 -0.61467503237E+02 -0.47032271723E+02  0.25129739620E+03  0.26294613493E+03  0.00000000000E+00 0.  1.
         11    1    1    2    0    0  0.12660262854E+02  0.25729778580E+02  0.65709149441E+02  0.71693765988E+02  0.00000000000E+00 0. -1.
</event>
<event>
 7    1  0.2840156E-009  0.1221936E+03  0.7561462E-02  0.1239522E+00
          3   -1    0    0  501    0  0.00000000000E+00  0.00000000000E+00  0.30989731419E+03  0.30989731419E+03  0.00000000000E+00 0. -1.
         -3   -1    0    0    0  501 -0.00000000000E+00 -0.00000000000E+00 -0.57440933630E+02  0.57440933630E+02  0.00000000000E+00 0.  1.
         25    2    1    2    0    0  0.19574263288E+02  0.74425520618E+02  0.13612603460E+03  0.20025086020E+03  0.12509116601E+03 0.  0.
          5    1    3    3  502    0 -0.49015415253E+02  0.52206540885E+02  0.87693212551E+02  0.11329433248E+03  0.41800000000E+01 0. -1.
         -5    1    3    3    0  502  0.68589678540E+02  0.22218979732E+02  0.48432822044E+02  0.86956527724E+02  0.41800000000E+01 0. -1.
        -11    1    1    2    0    0 -0.17339057681E+02  0.72032990233E+01 -0.62579808675E+01  0.19791229437E+02  0.00000000000E+00 0.  1.
         11    1    1    2    0    0 -0.22352056069E+01 -0.81628819641E+02  0.12258832683E+03  0.14729615818E+03  0.00000000000E+00 0. -1.
</event>
<event>
 7    1  0.2840156E-009  0.1165876E+03  0.7561462E-02  0.1248835E+00
          2   -1    0    0  501    0  0.00000000000E+00  0.00000000000E+00  0.62654376390E+03  0.62654376390E+03  0.00000000000E+00 0. -1.
         -2   -1    0    0    0  501 -0.00000000000E+00 -0.00000000000E+00 -0.28528002699E+02  0.28528002699E+02  0.00000000000E+00 0.  1.
         25    2    1    2    0    0  0.21110303148E+02 -0.13023648267E+02  0.16607254257E+03  0.20938696294E+03  0.12509016963E+03 0.  0.
          5    1    3    3  502    0 -0.22869003881E+02  0.44963751740E+02  0.43341042503E+02  0.66638192310E+02  0.41800000000E+01 0.  1.
         -5    1    3    3    0  502  0.43979307029E+02 -0.57987400007E+02  0.12273150007E+03  0.14274877063E+03  0.41800000000E+01 0.  1.
        -11    1    1    2    0    0 -0.26876254291E+02  0.58205102435E+02  0.26426005756E+03  0.27192562405E+03  0.00000000000E+00 0.  1.
         11    1    1    2    0    0  0.57659511434E+01 -0.45181454168E+02  0.16768316107E+03  0.17375917962E+03  0.00000000000E+00 0. -1.
</event>
<event>
 7    1  0.2840156E-009  0.1947812E+03  0.7561462E-02  0.1154218E+00
         -3   -1    0    0    0  501 -0.00000000000E+00  0.00000000000E+00  0.17558923431E+04  0.17558923431E+04  0.00000000000E+00 0.  1.
          3   -1    0    0  501    0  0.00000000000E+00 -0.00000000000E+00 -0.23299948609E+02  0.23299948609E+02  0.00000000000E+00 0. -1.
         25    2    1    2    0    0  0.15586625233E+03 -0.46849049409E+02  0.11123547872E+04  0.11311369173E+04  0.12509368893E+03 0.  0.
          5    1    3    3  502    0 -0.19230943184E+02 -0.13997409528E+02  0.81875852281E+02  0.85363248743E+02  0.41800000000E+01 0. -1.
         -5    1    3    3    0  502  0.17509719551E+03 -0.32851639881E+02  0.10304789349E+04  0.10457736686E+04  0.41800000000E+01 0. -1.
        -11    1    1    2    0    0 -0.27016529909E+02  0.51631239398E+02  0.16942635138E+03  0.17916742536E+03  0.00000000000E+00 0.  1.
         11    1    1    2    0    0 -0.12884972242E+03 -0.47821899887E+01  0.45081125586E+03  0.46888794900E+03  0.00000000000E+00 0. -1.
</event>
<event>
 7    1  0.2840156E-009  0.8042487E+02  0.7561462E-02  0.1327850E+00
         -1   -1    0    0    0  501 -0.00000000000E+00  0.00000000000E+00  0.26498732569E+02  0.26498732569E+02  0.00000000000E+00 0.  1.
          1   -1    0    0  501    0  0.00000000000E+00 -0.00000000000E+00 -0.79160128512E+03  0.79160128512E+03  0.00000000000E+00 0. -1.
         25    2    1    2    0    0  0.31343337875E+02  0.14231518262E+01 -0.63403489469E+03  0.64701874699E+03  0.12509428876E+03 0.  0.
          5    1    3    3  502    0 -0.16229650940E+02 -0.46130415491E+01 -0.54922854025E+03  0.54950354280E+03  0.41800000000E+01 0.  1.
         -5    1    3    3    0  502  0.47572988815E+02  0.60361933753E+01 -0.84806354441E+02  0.97515204193E+02  0.41800000000E+01 0.  1.
        -11    1    1    2    0    0 -0.27608934354E+02  0.42809873561E+02 -0.26368736874E+02  0.57360690502E+02  0.00000000000E+00 0.  1.
         11    1    1    2    0    0 -0.37344035214E+01 -0.44233025387E+02 -0.10469892098E+03  0.11372058019E+03  0.00000000000E+00 0. -1.
</event>
<event>
 7    1  0.2840156E-009  0.8630337E+02  0.7561462E-02  0.1312059E+00
          1   -1    0    0  501    0  0.00000000000E+00  0.00000000000E+00  0.16875254664E+04  0.16875254664E+04  0.00000000000E+00 0. -1.
         -1   -1    0    0    0  501 -0.00000000000E+00 -0.00000000000E+00 -0.12951801866E+02  0.12951801866E+02  0.00000000000E+00 0.  1.
         25    2    1    2    0    0 -0.84134192569E+01  0.51626168169E+02  0.13977440953E+04  0.14043048020E+04  0.12508946472E+03 0.  0.
          5    1    3    3  502    0  0.15928783521E+02  0.36230588480E+02  0.13297293661E+04  0.13303247878E+04  0.41800000000E+01 0. -1.
         -5    1    3    3    0  502 -0.24342202778E+02  0.15395579689E+02  0.68014729202E+02  0.73980014183E+02  0.41800000000E+01 0. -1.
        -11    1    1    2    0    0 -0.37053680124E+02 -0.30636249591E+01  0.12490385250E+03  0.13032011886E+03  0.00000000000E+00 0.  1.
         11    1    1    2    0    0  0.45467099381E+02 -0.48562543210E+02  0.15192571675E+03  0.16585234740E+03  0.00000000000E+00 0. -1.
</event>
<event>
 7    1  0.2840156E-009  0.8240080E+02  0.7561462E-02  0.1322373E+00
          1   -1    0    0  501    0  0.00000000000E+00  0.00000000000E+00  0.52778187311E+02  0.52778187311E+02  0.00000000000E+00 0. -1.
         -1   -1    0    0    0  501 -0.00000000000E+00 -0.00000000000E+00 -0.26230072797E+03  0.26230072797E+03  0.00000000000E+00 0.  1.
         25    2    1    2    0    0 -0.78781148066E+01  0.29661560730E+02 -0.16346500514E+03  0.20811193974E+03  0.12509156119E+03 0.  0.
          5    1    3    3  502    0 -0.56533821591E+01  0.48418633945E+02 -0.58051572818E+01  0.49269636634E+02  0.41800000000E+01 0. -1.
         -5    1    3    3    0  502 -0.22247326475E+01 -0.18757073215E+02 -0.15765984785E+03  0.15884230311E+03  0.41800000000E+01 0. -1.
        -11    1    1    2    0    0 -0.41006095247E+02 -0.36828211888E+01 -0.20540475979E+02  0.46010587616E+02  0.00000000000E+00 0.  1.
         11    1    1    2    0    0  0.48884210053E+02 -0.25978739542E+02 -0.25517059540E+02  0.60956387920E+02  0.00000000000E+00 0. -1.
</event>
<event>
 7    1  0.2840156E-009  0.1600355E+03  0.7561462E-02  0.1188657E+00
         -1   -1    0    0    0  501 -0.00000000000E+00  0.00000000000E+00  0.53158289331E+03  0.53158289331E+03  0.00000000000E+00 0.  1.
          1   -1    0    0  501    0  0.00000000000E+00 -0.00000000000E+00 -0.56524624310E+02  0.56524624310E+02  0.00000000000E+00 0. -1.
         25    2    1    2    0    0  0.71453806627E+02  0.95710589348E+02  0.14570409215E+03  0.22615317967E+03  0.12509762113E+03 0.  0.
          5    1    3    3  502    0  0.90501356786E+02  0.11251193730E+03  0.10740376019E+03  0.18000686575E+03  0.41800000000E+01 0.  1.
         -5    1    3    3    0  502 -0.19047550159E+02 -0.16801347953E+02  0.38300331954E+02  0.46146313915E+02  0.41800000000E+01 0.  1.
        -11    1    1    2    0    0  0.44504849928E+01 -0.69399076432E+02  0.16317749396E+03  0.17737793877E+03  0.00000000000E+00 0.  1.
         11    1    1    2    0    0 -0.75904291620E+02 -0.26311512916E+02  0.16617668289E+03  0.18457639918E+03  0.00000000000E+00 0. -1.
</event>
<event>
 7    1  0.2840156E-009  0.7892864E+02  0.7561462E-02  0.1332120E+00
         -2   -1    0    0    0  501 -0.00000000000E+00  0.00000000000E+00  0.23959739093E+02  0.23959739093E+02  0.00000000000E+00 0.  1.
          2   -1    0    0  501    0  0.00000000000E+00 -0.00000000000E+00 -0.53180665280E+03  0.53180665280E+03  0.00000000000E+00 0. -1.
         25    2    1    2    0    0  0.27952971785E+02  0.17343310628E+01 -0.32745241695E+03  0.35164897187E+03  0.12509011756E+03 0.  0.
          5    1    3    3  502    0  0.11001619083E+02 -0.27956198988E+02 -0.31271913644E+03  0.31418675240E+03  0.41800000000E+01 0.  1.
         -5    1    3    3    0  502  0.16951352702E+02  0.29690530051E+02 -0.14733280511E+02  0.37462219472E+02  0.41800000000E+01 0.  1.
        -11    1    1    2    0    0 -0.46089975329E+01 -0.44297682955E+02 -0.10934699596E+03  0.11806901837E+03  0.00000000000E+00 0. -1.
         11    1    1    2    0    0 -0.23343974252E+02  0.42563351892E+02 -0.71047500796E+02  0.86048401656E+02  0.00000000000E+00 0.  1.
</event>
<event>
 7    1  0.2840156E-009  0.1731495E+03  0.7561462E-02  0.1174603E+00
          1   -1    0    0  501    0  0.00000000000E+00  0.00000000000E+00  0.67852439980E+02  0.67852439980E+02  0.00000000000E+00 0. -1.
         -1   -1    0    0    0  501 -0.00000000000E+00 -0.00000000000E+00 -0.48171271847E+03  0.48171271847E+03  0.00000000000E+00 0.  1.
         25    2    1    2    0    0  0.44777367082E+02  0.13628446428E+03 -0.18758016189E+03  0.26723123594E+03  0.12509096098E+03 0.  0.
          5    1    3    3  502    0  0.88664372617E+02  0.90081947934E+02 -0.12371066695E+03  0.17691220939E+03  0.41800000000E+01 0. -1.
         -5    1    3    3    0  502 -0.43887005535E+02  0.46202516351E+02 -0.63869494942E+02  0.90319026545E+02  0.41800000000E+01 0. -1.
        -11    1    1    2    0    0 -0.84051246642E+01 -0.11182572306E+03 -0.20486863983E+03  0.23355255949E+03  0.00000000000E+00 0.  1.
         11    1    1    2    0    0 -0.36372242417E+02 -0.24458741226E+02 -0.21411476767E+02  0.48781363021E+02  0.00000000000E+00 0. -1.
</event>
<event>
 7    1  0.2840156E-009  0.1007365E+03  0.7561462E-02  0.1278755E+00
          2   -1    0    0  501    0  0.00000000000E+00  0.00000000000E+00  0.12622384637E+03  0.12622384637E+03  0.00000000000E+00 0. -1.
         -2   -1    0    0    0  501 -0.00000000000E+00 -0.00000000000E+00 -0.11243747982E+03  0.11243747982E+03  0.00000000000E+00 0.  1.
         25    2    1    2    0    0 -0.43295528979E+02 -0.19660152984E+02 -0.11588647824E+02  0.13432148821E+03  0.12508773318E+03 0.  0.
          5    1    3    3  502    0 -0.25210623401E+02 -0.66225035371E+02  0.21604998201E+02  0.74199590224E+02  0.41800000000E+01 0. -1.
         -5    1    3    3    0  502 -0.18084905578E+02  0.46564882387E+02 -0.33193646026E+02  0.60121897990E+02  0.41800000000E+01 0. -1.
        -11    1    1    2    0    0  0.23278049360E+01  0.36130760002E+02 -0.19719586125E+02  0.41227570522E+02  0.00000000000E+00 0.  1.
         11    1    1    2    0    0  0.40967724043E+02 -0.16470607019E+02  0.45094600505E+02  0.63112267457E+02  0.00000000000E+00 0. -1.
</event>
<event>
 7    1  0.2840156E-009  0.1221306E+03  0.7561462E-02  0.1239623E+00
          1   -1    0    0  501    0  0.00000000000E+00  0.00000000000E+00  0.72354400069E+02  0.72354400069E+02  0.00000000000E+00 0. -1.
         -1   -1    0    0    0  501 -0.00000000000E+00 -0.00000000000E+00 -0.47913383729E+03  0.47913383729E+03  0.00000000000E+00 0.  1.
         25    2    1    2    0    0  0.80742133362E+02  0.28831515034E+02 -0.39528593777E+03  0.42337909853E+03  0.12509332564E+03 0.  0.
          5    1    3    3  502    0  0.53594513192E+02 -0.37135175402E+02 -0.28176339100E+03  0.28923947519E+03  0.41800000000E+01 0.  1.
         -5    1    3    3    0  502  0.27147620170E+02  0.65966690436E+02 -0.11352254676E+03  0.13413962335E+03  0.41800000000E+01 0.  1.
        -11    1    1    2    0    0 -0.61486915710E+02  0.11704562256E+02 -0.40612895861E+02  0.74612632250E+02  0.00000000000E+00 0.  1.
         11    1    1    2    0    0 -0.19255217653E+02 -0.40536077289E+02  0.29119396405E+02  0.53496506576E+02  0.00000000000E+00 0. -1.
</event>
<event>
 7    1  0.2840156E-009  0.1118345E+03  0.7561462E-02  0.1257210E+00
          1   -1    0    0  501    0  0.00000000000E+00  0.00000000000E+00  0.15648457609E+03  0.15648457609E+03  0.00000000000E+00 0. -1.
         -1   -1    0    0    0  501 -0.00000000000E+00 -0.00000000000E+00 -0.11148890477E+03  0.11148890477E+03  0.00000000000E+00 0.  1.
         25    2    1    2    0    0 -0.79225299315E+01 -0.72948539273E+02  0.40650309146E+02  0.15061300883E+03  0.12509026714E+03 0.  0.
          5    1    3    3  502    0  0.19951079111E+02  0.22990697233E+02 -0.17076505495E+02  0.35152484362E+02  0.41800000000E+01 0.  1.
         -5    1    3    3    0  502 -0.27873609043E+02 -0.95939236505E+02  0.57726814640E+02  0.11546052447E+03  0.41800000000E+01 0.  1.
        -11    1    1    2    0    0 -0.24477528175E+02  0.24240353153E+02 -0.33204241997E+02  0.47846272510E+02  0.00000000000E+00 0.  1.
         11    1    1    2    0    0  0.32400058107E+02  0.48708186120E+02  0.37549604172E+02  0.69514199513E+02  0.00000000000E+00 0. -1.
</event>
<event>
 7    1  0.2840156E-009  0.1192547E+03  0.7561462E-02  0.1244332E+00
         -2   -1    0    0    0  501 -0.00000000000E+00  0.00000000000E+00  0.19973172489E+03  0.19973172489E+03  0.00000000000E+00 0.  1.
          2   -1    0    0  501    0  0.00000000000E+00 -0.00000000000E+00 -0.10171158893E+03  0.10171158893E+03  0.00000000000E+00 0. -1.
         25    2    1    2    0    0  0.77387389317E+02  0.35561925006E+02  0.33598029374E+02  0.15501783708E+03  0.12509294025E+03 0.  0.
          5    1    3    3  502    0  0.40722365240E+02  0.77785223271E+02 -0.31790673385E+01  0.87956983004E+02  0.41800000000E+01 0. -1.
         -5    1    3    3    0  502  0.36665024077E+02 -0.42223298265E+02  0.36777096712E+02  0.67060854077E+02  0.41800000000E+01 0. -1.
        -11    1    1    2    0    0 -0.47629079113E+02 -0.42659269384E+02 -0.11141671507E+02  0.64903615350E+02  0.00000000000E+00 0. -1.
         11    1    1    2    0    0 -0.29758310204E+02  0.70973443778E+01  0.75563778093E+02  0.81521861381E+02  0.00000000000E+00 0.  1.
</event>
<event>
 7    1  0.4081823E-009  0.1595771E+03  0.7561462E-02  0.1189175E+00
          2   -1    0    0  501    0  0.00000000000E+00  0.00000000000E+00  0.12920445735E+04  0.12920445735E+04  0.00000000000E+00 0. -1.
         -2   -1    0    0    0  501 -0.00000000000E+00 -0.00000000000E+00 -0.24328647806E+02  0.24328647806E+02  0.00000000000E+00 0.  1.
         25    2    1    2    0    0  0.11766754734E+03 -0.38414713203E+02  0.91165669373E+03  0.92848578088E+03  0.12508627501E+03 0.  0.
          5    1    3    3  502    0  0.12189655735E+03  0.71468477919E+01  0.52088211244E+03  0.53501915441E+03  0.41800000000E+01 0. -1.
         -5    1    3    3    0  502 -0.42290100100E+01 -0.45561560995E+02  0.39077458129E+03  0.39346662647E+03  0.41800000000E+01 0. -1.
        -11    1    1    2    0    0 -0.50651959762E+02 -0.26983585677E+02  0.17297486631E+03  0.18224719284E+03  0.00000000000E+00 0. -1.
         11    1    1    2    0    0 -0.67015587582E+02  0.65398298880E+02  0.18308436561E+03  0.20564024754E+03  0.00000000000E+00 0.  1.
</event>
<event>
 7    1  0.2840156E-009  0.7894661E+02  0.7561462E-02  0.1332068E+00
          2   -1    0    0  501    0  0.00000000000E+00  0.00000000000E+00  0.38268042982E+03  0.38268042982E+03  0.00000000000E+00 0. -1.
         -2   -1    0    0    0  501 -0.00000000000E+00 -0.00000000000E+00 -0.56704360306E+02  0.56704360306E+02  0.00000000000E+00 0.  1.
         25    2    1    2    0    0 -0.71294588927E+02 -0.31694346063E+01  0.73596875036E+02  0.16172743907E+03  0.12508517421E+03 0.  0.
          5    1    3    3  502    0 -0.58651003517E+02 -0.93040776041E+01 -0.23151327956E+02  0.63874583832E+02  0.41800000000E+01 0. -1.
         -5    1    3    3    0  502 -0.12643585411E+02  0.61346429977E+01  0.96748202992E+02  0.97852855242E+02  0.41800000000E+01 0. -1.
        -11    1    1    2    0    0  0.38080802252E+02  0.23509442305E+02  0.22654032876E+03  0.23091851795E+03  0.00000000000E+00 0. -1.
         11    1    1    2    0    0  0.33213786675E+02 -0.20340007699E+02  0.25838865725E+02  0.46738833110E+02  0.00000000000E+00 0.  1.
</event>
<event>
 7    1  0.2840156E-009  0.7097709E+02  0.7561462E-02  0.1356802E+00
          2   -1    0    0  501    0  0.00000000000E+00  0.00000000000E+00  0.55812696163E+03  0.55812696163E+03  0.00000000000E+00 0. -1.
         -2   -1    0    0    0  501 -0.00000000000E+00 -0.00000000000E+00 -0.43562172375E+02  0.43562172375E+02  0.00000000000E+00 0.  1.
         25    2    1    2    0    0 -0.34104228675E+02 -0.53309643906E+01  0.48135787126E+03  0.49854146137E+03  0.12508665349E+03 0.  0.
          5    1    3    3  502    0 -0.59394099448E+02 -0.24571736962E+02  0.12383773886E+03  0.13958756131E+03  0.41800000000E+01 0. -1.
         -5    1    3    3    0  502  0.25289870773E+02  0.19240772571E+02  0.35752013240E+03  0.35895390006E+03  0.41800000000E+01 0. -1.
        -11    1    1    2    0    0  0.16452896750E+02  0.17524720226E+02 -0.28812212204E+02  0.37522755797E+02  0.00000000000E+00 0.  1.
         11    1    1    2    0    0  0.17651331925E+02 -0.12193755835E+02  0.62019130201E+02  0.65624916845E+02  0.00000000000E+00 0. -1.
</event>
<event>
 7    1  0.2840156E-009  0.7086719E+02  0.7561462E-02  0.1357169E+00
          1   -1    0    0  501    0  0.00000000000E+00  0.00000000000E+00  0.12443079321E+03  0.12443079321E+03  0.00000000000E+00 0. -1.
         -1   -1    0    0    0  501 -0.00000000000E+00 -0.00000000000E+00 -0.12954428117E+03  0.12954428117E+03  0.00000000000E+00 0.  1.
         25    2    1    2    0    0 -0.27033582486E+02  0.40471107172E+02 -0.49375243714E+02  0.14301874988E+03  0.12509085909E+03 0.  0.
          5    1    3    3  502    0 -0.23156607227E+02  0.37379419247E+02  0.36255025740E+02  0.57143229983E+02  0.41800000000E+01 0.  1.
         -5    1    3    3    0  502 -0.38769752587E+01  0.30916879246E+01 -0.85630269454E+02  0.85875519900E+02  0.41800000000E+01 0.  1.
        -11    1    1    2    0    0  0.40437016360E+02  0.76260053913E+01 -0.42145806268E+01  0.41365093258E+02  0.00000000000E+00 0.  1.
         11    1    1    2    0    0 -0.13403433875E+02 -0.48097112563E+02  0.48476336374E+02  0.69591231235E+02  0.00000000000E+00 0. -1.
</event>
<event>
 7    1  0.2840156E-009  0.7981832E+02  0.7561462E-02  0.1329568E+00
          1   -1    0    0  501    0  0.00000000000E+00  0.00000000000E+00  0.12052316378E+03  0.12052316378E+03  0.00000000000E+00 0. -1.
         -1   -1    0    0    0  501 -0.00000000000E+00 -0.00000000000E+00 -0.60273985465E+02  0.60273985465E+02  0.00000000000E+00 0.  1.
         25    2    1    2    0    0 -0.10427605638E+02  0.11294466587E+02  0.58141244739E+02  0.13880900216E+03  0.12510489522E+03 0.  0.
          5    1    3    3  502    0 -0.30612420716E+02  0.60156899789E+02  0.52229649841E+02  0.85448122372E+02  0.41800000000E+01 0. -1.
         -5    1    3    3    0  502  0.20184815077E+02 -0.48862433202E+02  0.59115948982E+01  0.53360879793E+02  0.41800000000E+01 0. -1.
        -11    1    1    2    0    0 -0.51889930519E+01  0.10764361278E+02  0.79291482154E+01  0.14341147585E+02  0.00000000000E+00 0. -1.
         11    1    1    2    0    0  0.15616598690E+02 -0.22058827866E+02 -0.58212146368E+01  0.27646999499E+02  0.00000000000E+00 0.  1.
</event>
<event>
 7    1  0.2840156E-009  0.1338904E+03  0.7561462E-02  0.1221795E+00
         -1   -1    0    0    0  501 -0.00000000000E+00  0.00000000000E+00  0.51086797745E+03  0.51086797745E+03  0.00000000000E+00 0.  1.
          1   -1    0    0  501    0  0.00000000000E+00 -0.00000000000E+00 -0.49635100738E+02  0.49635100738E+02  0.00000000000E+00 0. -1.
         25    2    1    2    0    0  0.43132664061E+02 -0.10658421141E+03  0.27318314435E+03  0.32170939689E+03  0.12508910767E+03 0.  0.
          5    1    3    3  502    0  0.49635155898E+02 -0.94263900795E+02  0.28415033555E+03  0.30349335625E+03  0.41800000000E+01 0.  1.
         -5    1    3    3    0  502 -0.65024918374E+01 -0.12320310616E+02 -0.10967191200E+02  0.18216040640E+02  0.41800000000E+01 0.  1.
        -11    1    1    2    0    0 -0.65013563738E+02  0.10645759889E+03  0.16687811614E+03  0.20834656099E+03  0.00000000000E+00 0.  1.
         11    1    1    2    0    0  0.21880899677E+02  0.12661252099E+00  0.21171616218E+02  0.30447120302E+02  0.00000000000E+00 0. -1.
</event>
<event>
 7    1  0.2840156E-009  0.1811964E+03  0.7561462E-02  0.1166650E+00
          2   -1    0    0  501    0  0.00000000000E+00  0.00000000000E+00  0.46101750099E+03  0.46101750099E+03  0.00000000000E+00 0. -1.
         -2   -1    0    0    0  501 -0.00000000000E+00 -0.00000000000E+00 -0.89184425469E+02  0.89184425469E+02  0.00000000000E+00 0.  1.
         25    2    1    2    0    0  0.15922097409E+03  0.58284762687E+02  0.22449065010E+03  0.30788343632E+03  0.12509087187E+03 0.  0.
          5    1    3    3  502    0  0.28646545473E+02  0.50709209107E+02  0.14111576160E+03  0.15271928178E+03  0.41800000000E+01 0.  1.
         -5    1    3    3    0  502  0.13057442862E+03  0.75755535802E+01  0.83374888499E+02  0.15516415454E+03  0.41800000000E+01 0.  1.
        -11    1    1    2    0    0 -0.65628359236E+02 -0.59190690291E+01  0.78446416968E+01  0.66360043080E+02  0.00000000000E+00 0.  1.
         11    1    1    2    0    0 -0.93592614856E+02 -0.52365693658E+02  0.13949778373E+03  0.17595844706E+03  0.00000000000E+00 0. -1.
</event>
<event>
 7    1  0.2840156E-009  0.9918945E+02  0.7561462E-02  0.1282010E+00
         -2   -1    0    0    0  501 -0.00000000000E+00  0.00000000000E+00  0.29166019223E+03  0.29166019223E+03  0.00000000000E+00 0.  1.
          2   -1    0    0  501    0  0.00000000000E+00 -0.00000000000E+00 -0.63191782674E+02  0.63191782674E+02  0.00000000000E+00 0. -1.
         25    2    1    2    0    0  0.17772301599E+02 -0.76820644755E+02  0.12746721381E+03  0.19522446950E+03  0.12508971472E+03 0.  0.
          5    1    3    3  502    0  0.48435217570E+02 -0.16212525893E+02  0.59167359090E+00  0.51250744137E+02  0.41800000000E+01 0.  1.
         -5    1    3    3    0  502 -0.30662915971E+02 -0.60608118861E+02  0.12687554022E+03  0.14397372536E+03  0.41800000000E+01 0.  1.
        -11    1    1    2    0    0 -0.92411753227E+01  0.52481980056E+02  0.11749430280E+03  0.12901421915E+03  0.00000000000E+00 0.  1.
         11    1    1    2    0    0 -0.85311262766E+01  0.24338664699E+02 -0.16493107059E+02  0.30613286255E+02  0.00000000000E+00 0. -1.
</event>
<event>
 7    1  0.2840156E-009  0.2288942E+03  0.7561462E-02  0.1127421E+00
          2   -1    0    0  501    0  0.00000000000E+00  0.00000000000E+00  0.28674494867E+03  0.28674494867E+03  0.00000000000E+00 0. -1.
         -2   -1    0    0    0  501 -0.00000000000E+00 -0.00000000000E+00 -0.22003710273E+03  0.22003710273E+03  0.00000000000E+00 0.  1.
         25    2    1    2    0    0  0.89120369385E+02 -0.18666122578E+03  0.12425806409E+03  0.27180012390E+03  0.12510150842E+03 0.  0.
          5    1    3    3  502    0  0.49991512415E+02  0.65203009354E+00  0.21824420973E+02  0.54711554608E+02  0.41800000000E+01 0.  1.
         -5    1    3    3    0  502  0.39128856970E+02 -0.18731325588E+03  0.10243364311E+03  0.21708856929E+03  0.41800000000E+01 0.  1.
        -11    1    1    2    0    0 -0.12632146018E+02  0.99307840542E+02 -0.63793051519E+02  0.11870624132E+03  0.00000000000E+00 0.  1.
         11    1    1    2    0    0 -0.76488223368E+02  0.87353385241E+02  0.62428333709E+01  0.11627568618E+03  0.00000000000E+00 0. -1.
</event>
<event>
 7    1  0.2901968E-009  0.3175107E+03  0.7561462E-02  0.1076801E+00
          3   -1    0    0  501    0  0.00000000000E+00  0.00000000000E+00  0.12276725061E+04  0.12276725061E+04  0.00000000000E+00 0. -1.
         -3   -1    0    0    0  501 -0.00000000000E+00 -0.00000000000E+00 -0.10134958505E+03  0.10134958505E+03  0.00000000000E+00 0.  1.
         25    2    1    2    0    0 -0.30480683161E+03  0.63208231778E+02  0.80719621300E+03  0.87413537714E+03  0.12507776031E+03 0.  0.
          5    1    3    3  502    0 -0.15984800594E+03  0.25793719922E+02  0.25584559539E+03  0.30280545251E+03  0.41800000000E+01 0.  1.
         -5    1    3    3    0  502 -0.14495882567E+03  0.37414511856E+02  0.55135061761E+03  0.57132992463E+03  0.41800000000E+01 0.  1.
        -11    1    1    2    0    0  0.20769807832E+03 -0.51984811027E+00  0.22080862240E+03  0.30314222686E+03  0.00000000000E+00 0.  1.
         11    1    1    2    0    0  0.97108753289E+02 -0.62688383667E+02  0.98318085628E+02  0.15174448713E+03  0.00000000000E+00 0. -1.
</event>
<event>
 7    1  0.2840156E-009  0.1010237E+03  0.7561462E-02  0.1278158E+00
          2   -1    0    0  501    0  0.00000000000E+00  0.00000000000E+00  0.12122114530E+03  0.12122114530E+03  0.00000000000E+00 0. -1.
         -2   -1    0    0    0  501 -0.00000000000E+00 -0.00000000000E+00 -0.15858448039E+03  0.15858448039E+03  0.00000000000E+00 0.  1.
         25    2    1    2    0    0 -0.49856125709E+02  0.62013304677E+02 -0.54415600051E+02  0.15792471854E+03  0.12509147041E+03 0.  0.
          5    1    3    3  502    0 -0.43373873919E+02  0.58368893403E+02 -0.93157899453E+02  0.11825433306E+03  0.41800000000E+01 0. -1.
         -5    1    3    3    0  502 -0.64822517897E+01  0.36444112732E+01  0.38742299401E+02  0.39670385487E+02  0.41800000000E+01 0. -1.
        -11    1    1    2    0    0  0.72892925149E+02 -0.64723414870E+02  0.14240915197E+02  0.98515494390E+02  0.00000000000E+00 0. -1.
         11    1    1    2    0    0 -0.23036799440E+02  0.27101101939E+01  0.28113497705E+01  0.23365412756E+02  0.00000000000E+00 0.  1.
</event>
<event>
 7    1  0.2840156E-009  0.9578628E+02  0.7561462E-02  0.1289415E+00
         -2   -1    0    0    0  501 -0.00000000000E+00  0.00000000000E+00  0.33694856279E+02  0.33694856279E+02  0.00000000000E+00 0.  1.
          2   -1    0    0  501    0  0.00000000000E+00 -0.00000000000E+00 -0.43589308981E+03  0.43589308981E+03  0.00000000000E+00 0. -1.
         25    2    1    2    0    0  0.26120772071E+01 -0.20428761784E+02 -0.12947296824E+03  0.18120511032E+03  0.12509150750E+03 0.  0.
          5    1    3    3  502    0 -0.27253846669E+02 -0.55980869539E+02 -0.11754694835E+03  0.13308413646E+03  0.41800000000E+01 0.  1.
         -5    1    3    3    0  502  0.29865923877E+02  0.35552107756E+02 -0.11926019890E+02  0.48120973861E+02  0.41800000000E+01 0.  1.
        -11    1    1    2    0    0 -0.40982556417E+02  0.53803767155E+01 -0.68216784320E+02  0.79762447599E+02  0.00000000000E+00 0. -1.
         11    1    1    2    0    0  0.38370479210E+02  0.15048385068E+02 -0.20450848097E+03  0.20862038816E+03  0.00000000000E+00 0.  1.
</event>
<event>
 7    1  0.2840156E-009  0.1262950E+03  0.7561462E-02  0.1233059E+00
          1   -1    0    0  501    0  0.00000000000E+00  0.00000000000E+00  0.13213865570E+04  0.13213865570E+04  0.00000000000E+00 0. -1.
         -1   -1    0    0    0  501 -0.00000000000E+00 -0.00000000000E+00 -0.17889349122E+02  0.17889349122E+02  0.00000000000E+00 0.  1.
         25    2    1    2    0    0  0.75604122446E+02  0.51105509743E+02  0.10216293987E+04  0.10332965839E+04  0.12508974978E+03 0.  0.
          5    1    3    3  502    0  0.91883263588E+02  0.67400838664E+02  0.96911590974E+03  0.97580147883E+03  0.41800000000E+01 0.  1.
         -5    1    3    3    0  502 -0.16279141142E+02 -0.16295328921E+02  0.52513488955E+02  0.57495105036E+02  0.41800000000E+01 0.  1.
        -11    1    1    2    0    0 -0.81700739627E+02 -0.20894845954E+02  0.16749012724E+03  0.18752212713E+03  0.00000000000E+00 0.  1.
         11    1    1    2    0    0  0.60966171811E+01 -0.30210663789E+02  0.11437768190E+03  0.11845719507E+03  0.00000000000E+00 0. -1.
</event>
<event>
 7    1  0.2840156E-009  0.1269418E+03  0.7561462E-02  0.1232065E+00
          2   -1    0    0  501    0  0.00000000000E+00  0.00000000000E+00  0.17855595003E+03  0.17855595003E+03  0.00000000000E+00 0. -1.
         -2   -1    0    0    0  501 -0.00000000000E+00 -0.00000000000E+00 -0.12530825391E+03  0.12530825391E+03  0.00000000000E+00 0.  1.
         25    2    1    2    0    0  0.74280689284E+02 -0.24960766568E+02  0.87548885115E+02  0.17162049992E+03  0.12509247796E+03 0.  0.
          5    1    3    3  502    0 -0.20046292754E+02  0.17163910080E+02 -0.10898838516E+02  0.28856727871E+02  0.41800000000E+01 0.  1.
         -5    1    3    3    0  502  0.94326982038E+02 -0.42124676647E+02  0.98447723630E+02  0.14276377205E+03  0.41800000000E+01 0.  1.
        -11    1    1    2    0    0 -0.78602695018E+02  0.53388493295E+02 -0.11835803167E+02  0.95753856930E+02  0.00000000000E+00 0.  1.
         11    1    1    2    0    0  0.43220057334E+01 -0.28427726727E+02 -0.22465385822E+02  0.36489847089E+02  0.00000000000E+00 0. -1.
</event>
<event>
 7    1  0.2840156E-009  0.2725312E+03  0.7561462E-02  0.1099840E+00
         -2   -1    0    0    0  501 -0.00000000000E+00  0.00000000000E+00  0.18073114795E+04  0.18073114795E+04  0.00000000000E+00 0. -1.
          2   -1    0    0  501    0  0.00000000000E+00 -0.00000000000E+00 -0.49365200522E+02  0.49365200522E+02  0.00000000000E+00 0.  1.
         25    2    1    2    0    0 -0.26366458925E+03  0.27210681370E+02  0.63560779118E+03  0.69993105444E+03  0.12508708951E+03 0.  0.
          5    1    3    3  502    0 -0.14899276554E+03  0.50431358900E+02  0.48044172213E+03  0.50555305054E+03  0.41800000000E+01 0. -1.
         -5    1    3    3    0  502 -0.11467182371E+03 -0.23220677530E+02  0.15516606905E+03  0.19437800391E+03  0.41800000000E+01 0. -1.
        -11    1    1    2    0    0  0.17342339673E+03 -0.43833463870E+02  0.58872022349E+03  0.61529549701E+03  0.00000000000E+00 0. -1.
         11    1    1    2    0    0  0.90241192522E+02  0.16622782500E+02  0.53361826428E+03  0.54145012854E+03  0.00000000000E+00 0.  1.
</event>
<event>
 7    1  0.2840156E-009  0.1401371E+03  0.7561462E-02  0.1213145E+00
         -1   -1    0    0    0  501 -0.00000000000E+00  0.00000000000E+00  0.68665470604E+02  0.68665470604E+02  0.00000000000E+00 0.  1.
          1   -1    0    0  501    0  0.00000000000E+00 -0.00000000000E+00 -0.40850976375E+03  0.40850976375E+03  0.00000000000E+00 0. -1.
         25    2    1    2    0    0 -0.16386413875E+02 -0.11408185228E+03 -0.95239792666E+02  0.19493590703E+03  0.12508479590E+03 0.  0.
          5    1    3    3  502    0  0.48817817430E+02 -0.57338385121E+02 -0.74360827175E+02  0.10591446891E+03  0.41800000000E+01 0. -1.
         -5    1    3    3    0  502 -0.65204231305E+02 -0.56743467155E+02 -0.20878965491E+02  0.89021438120E+02  0.41800000000E+01 0. -1.
        -11    1    1    2    0    0 -0.74502624247E+01  0.30859951016E+02 -0.15277335029E+03  0.15603698134E+03  0.00000000000E+00 0.  1.
         11    1    1    2    0    0  0.23836676300E+02  0.83221901260E+02 -0.91831150192E+02  0.12620234598E+03  0.00000000000E+00 0. -1.
</event>
<event>
 7    1  0.2840156E-009  0.1064158E+03  0.7561462E-02  0.1267355E+00
         -2   -1    0    0    0  501 -0.00000000000E+00  0.00000000000E+00  0.13921265088E+03  0.13921265088E+03  0.00000000000E+00 0. -1.
          2   -1    0    0  501    0  0.00000000000E+00 -0.00000000000E+00 -0.10540063229E+03  0.10540063229E+03  0.00000000000E+00 0.  1.
         25    2    1    2    0    0  0.17400105657E+02  0.34996541892E+02 -0.17173958743E+02  0.13216837890E+03  0.12508402736E+03 0.  0.
          5    1    3    3  502    0  0.55471958951E+02 -0.14313792607E+02  0.18389284560E+02  0.60313025751E+02  0.41800000000E+01 0. -1.
         -5    1    3    3    0  502 -0.38071853294E+02  0.49310334499E+02 -0.35563243303E+02  0.71855353147E+02  0.41800000000E+01 0. -1.
        -11    1    1    2    0    0 -0.29993162115E+02  0.20315181527E+02  0.41232286380E+02  0.54885315106E+02  0.00000000000E+00 0. -1.
         11    1    1    2    0    0  0.12593056458E+02 -0.55311723419E+02  0.97536909536E+01  0.57559589173E+02  0.00000000000E+00 0.  1.
</event>
<event>
 7    1  0.2840156E-009  0.9581264E+02  0.7561462E-02  0.1289356E+00
         -1   -1    0    0    0  501 -0.00000000000E+00  0.00000000000E+00  0.38876611405E+03  0.38876611405E+03  0.00000000000E+00 0.  1.
          1   -1    0    0  501    0  0.00000000000E+00 -0.00000000000E+00 -0.50816431821E+02  0.50816431821E+02  0.00000000000E+00 0. -1.
         25    2    1    2    0    0  0.44076746105E+02  0.49355013237E+02  0.93314375871E+02  0.16951083101E+03  0.12509065595E+03 0.  0.
          5    1    3    3  502    0  0.37356835038E+02  0.58879988564E+02 -0.53610282342E+01  0.70061395940E+02  0.41800000000E+01 0. -1.
         -5    1    3    3    0  502  0.67199110663E+01 -0.95249753276E+01  0.98675404106E+02  0.99449435067E+02  0.41800000000E+01 0. -1.
        -11    1    1    2    0    0  0.22857489782E+02 -0.33574009122E+02  0.55143952831E+02  0.68487476676E+02  0.00000000000E+00 0. -1.
         11    1    1    2    0    0 -0.66934235886E+02 -0.15781004115E+02  0.18949135353E+03  0.20158423819E+03  0.00000000000E+00 0.  1.
</event>
<event>
 7    1  0.2840156E-009  0.1261312E+03  0.7561462E-02  0.1233312E+00
         -1   -1    0    0    0  501 -0.00000000000E+00  0.00000000000E+00  0.19507394953E+03  0.19507394953E+03  0.00000000000E+00 0.  1.
          1   -1    0    0  501    0  0.00000000000E+00 -0.00000000000E+00 -0.94760911762E+02  0.94760911762E+02  0.00000000000E+00 0. -1.
         25    2    1    2    0    0 -0.12154191301E+02 -0.63406682316E+02  0.10818601811E+03  0.17753812223E+03  0.12508972221E+03 0.  0.
          5    1    3    3  502    0 -0.53073631188E+02  0.11800503496E+02  0.34737834481E+02  0.64654866443E+02  0.41800000000E+01 0. -1.
         -5    1    3    3    0  502  0.40919439887E+02 -0.75207185812E+02  0.73448183633E+02  0.11288325579E+03  0.41800000000E+01 0. -1.
        -11    1    1    2    0    0 -0.33072098402E+02 -0.12636896491E+01 -0.16927402184E+01  0.33139492659E+02  0.00000000000E+00 0.  1.
         11    1    1    2    0    0  0.45226289704E+02  0.64670371965E+02 -0.61802401249E+01  0.79157246405E+02  0.00000000000E+00 0. -1.
</event>
<event>
 7    1  0.2840156E-009  0.2816352E+03  0.7561462E-02  0.1094799E+00
          2   -1    0    0  501    0  0.00000000000E+00  0.00000000000E+00  0.17247752093E+04  0.17247752093E+04  0.00000000000E+00 0. -1.
         -2   -1    0    0    0  501 -0.00000000000E+00 -0.00000000000E+00 -0.78380240474E+02  0.78380240474E+02  0.00000000000E+00 0.  1.
         25    2    1    2    0    0  0.51750901973E+02  0.26710342967E+03  0.29049700928E+03  0.41720428895E+03  0.12509399794E+03 0.  0.
          5    1    3    3  502    0  0.40907071414E+02  0.27366690945E+03  0.24438581626E+03  0.36920030527E+03  0.41800000000E+01 0.  1.
         -5    1    3    3    0  502  0.10843830559E+02 -0.65634797781E+01  0.46111193013E+02  0.48003983679E+02  0.41800000000E+01 0.  1.
        -11    1    1    2    0    0 -0.25652770847E+02 -0.73888654364E+02  0.22111372633E+03  0.23453971491E+03  0.00000000000E+00 0.  1.
         11    1    1    2    0    0 -0.26098131126E+02 -0.19321477530E+03  0.11347842332E+04  0.11514114460E+04  0.00000000000E+00 0. -1.
</event>
<event>
 7    1  0.2840156E-009  0.9891201E+02  0.7561462E-02  0.1282601E+00
          2   -1    0    0  501    0  0.00000000000E+00  0.00000000000E+00  0.47199039559E+03  0.47199039559E+03  0.00000000000E+00 0.  1.
         -2   -1    0    0    0  501 -0.00000000000E+00 -0.00000000000E+00 -0.28784773984E+02  0.28784773984E+02  0.00000000000E+00 0. -1.
         25    2    1    2    0    0  0.80022315239E+00  0.13066803860E+02  0.33874534153E+03  0.36134097704E+03  0.12509002183E+03 0.  0.
          5    1    3    3  502    0 -0.46656476918E+02  0.39697427554E+02  0.24763750232E+03  0.25513627251E+03  0.41800000000E+01 0. -1.
         -5    1    3    3    0  502  0.47456700070E+02 -0.26630623694E+02  0.91107839206E+02  0.10620470453E+03  0.41800000000E+01 0. -1.
        -11    1    1    2    0    0 -0.37936778082E+02 -0.21717124209E+02  0.87273953621E+02  0.97609300765E+02  0.00000000000E+00 0.  1.
         11    1    1    2    0    0  0.37136554929E+02  0.86503203484E+01  0.17186326451E+02  0.41824891763E+02  0.00000000000E+00 0. -1.
</event>
<event>
 7    1  0.2840156E-009  0.1420986E+03  0.7561462E-02  0.1210533E+00
          2   -1    0    0  501    0  0.00000000000E+00  0.00000000000E+00  0.83367288174E+03  0.83367288174E+03  0.00000000000E+00 0.  1.
         -2   -1    0    0    0  501 -0.00000000000E+00 -0.00000000000E+00 -0.31604460428E+02  0.31604460428E+02  0.00000000000E+00 0. -1.
         25    2    1    2    0    0  0.87768229657E+02  0.94525870780E+01  0.34075761126E+03  0.37357251119E+03  0.12509219776E+03 0.  0.
          5    1    3    3  502    0  0.13516246894E+02  0.38121835663E+02  0.24604089419E+02  0.47526801918E+02  0.41800000000E+01 0.  1.
         -5    1    3    3    0  502  0.74251982763E+02 -0.28669248585E+02  0.31615352184E+03  0.32604570927E+03  0.41800000000E+01 0.  1.
        -11    1    1    2    0    0 -0.84959084662E+02 -0.65770778615E+02  0.36079111476E+03  0.37644929257E+03  0.00000000000E+00 0. -1.
         11    1    1    2    0    0 -0.28091449948E+01  0.56318191537E+02  0.10051969529E+03  0.11525553841E+03  0.00000000000E+00 0.  1.
</event>
<event>
 7    1  0.2840156E-009  0.1560426E+03  0.7561462E-02  0.1193239E+00
         -1   -1    0    0    0  501 -0.00000000000E+00  0.00000000000E+00  0.33854916254E+02  0.33854916254E+02  0.00000000000E+00 0.  1.
          1   -1    0    0  501    0  0.00000000000E+00 -0.00000000000E+00 -0.17264559467E+04  0.17264559467E+04  0.00000000000E+00 0. -1.
         25    2    1    2    0    0 -0.11179325319E+03  0.87854371366E+02 -0.14264522417E+04  0.14389681199E+04  0.12508848940E+03 0.  0.
          5    1    3    3  502    0 -0.96588672623E+02  0.91837249052E+02 -0.14082872339E+04  0.14145861083E+04  0.41800000000E+01 0. -1.
         -5    1    3    3    0  502 -0.15204580566E+02 -0.39828776865E+01 -0.18165007801E+02  0.24382011674E+02  0.41800000000E+01 0. -1.
        -11    1    1    2    0    0  0.17067843782E+02 -0.61970474991E+02 -0.42424267818E+02  0.77016034446E+02  0.00000000000E+00 0.  1.
         11    1    1    2    0    0  0.94725409407E+02 -0.25883896375E+02 -0.22372452091E+03  0.24432670860E+03  0.00000000000E+00 0. -1.
</event>
<event>
 7    1  0.2840156E-009  0.2101223E+03  0.7561462E-02  0.1141469E+00
         -2   -1    0    0    0  501 -0.00000000000E+00  0.00000000000E+00  0.22108052117E+03  0.22108052117E+03  0.00000000000E+00 0.  1.
          2   -1    0    0  501    0  0.00000000000E+00 -0.00000000000E+00 -0.30930742523E+03  0.30930742523E+03  0.00000000000E+00 0. -1.
         25    2    1    2    0    0 -0.23907565749E+01  0.20640338860E+03  0.74357483647E+02  0.25255751503E+03  0.12509271954E+03 0.  0.
          5    1    3    3  502    0 -0.13391031180E+02  0.20643812297E+02  0.61044705874E+02  0.65950096418E+02  0.41800000000E+01 0. -1.
         -5    1    3    3    0  502  0.11000274605E+02  0.18575957630E+03  0.13312777773E+02  0.18660741861E+03  0.41800000000E+01 0. -1.
        -11    1    1    2    0    0 -0.12668103012E+02 -0.15689623596E+03 -0.71088282939E+02  0.17271494916E+03  0.00000000000E+00 0.  1.
         11    1    1    2    0    0  0.15058859587E+02 -0.49507152631E+02 -0.91496104760E+02  0.10511548221E+03  0.00000000000E+00 0. -1.
</event>
<event>
 7    1  0.2840156E-009  0.1588856E+03  0.7561462E-02  0.1189961E+00
          1   -1    0    0  501    0  0.00000000000E+00  0.00000000000E+00  0.10956581389E+03  0.10956581389E+03  0.00000000000E+00 0. -1.
         -1   -1    0    0    0  501 -0.00000000000E+00 -0.00000000000E+00 -0.24799247196E+03  0.24799247196E+03  0.00000000000E+00 0.  1.
         25    2    1    2    0    0 -0.12338816892E+03  0.17420985841E+02 -0.88332674895E+02  0.19742919013E+03  0.12508993838E+03 0.  0.
          5    1    3    3  502    0 -0.12858577705E+02 -0.42480222101E+02 -0.15440965263E+01  0.44606825985E+02  0.41800000000E+01 0. -1.
         -5    1    3    3    0  502 -0.11052959122E+03  0.59901207942E+02 -0.86788578369E+02  0.15282236415E+03  0.41800000000E+01 0. -1.
        -11    1    1    2    0    0  0.79638258237E+02  0.27926222269E+02 -0.47988662696E+02  0.97082633939E+02  0.00000000000E+00 0.  1.
         11    1    1    2    0    0  0.43749910687E+02 -0.45347208110E+02 -0.21053204754E+01  0.63046461779E+02  0.00000000000E+00 0. -1.
</event>
<event>
 7    1  0.2840156E-009  0.1818729E+03  0.7561462E-02  0.1166003E+00
          2   -1    0    0  501    0  0.00000000000E+00  0.00000000000E+00  0.68409415919E+02  0.68409415919E+02  0.00000000000E+00 0. -1.
         -2   -1    0    0    0  501 -0.00000000000E+00 -0.00000000000E+00 -0.54171851292E+03  0.54171851292E+03  0.00000000000E+00 0.  1.
         25    2    1    2    0    0 -0.11607123155E+03  0.10132193758E+03 -0.30498788445E+03  0.36387570908E+03  0.12509698705E+03 0.  0.
          5    1    3    3  502    0 -0.18042107659E+02  0.83640186883E+02 -0.20726349307E+03  0.22426953977E+03  0.41800000000E+01 0.  1.
         -5    1    3    3    0  502 -0.98029123893E+02  0.17681750702E+02 -0.97724391381E+02  0.13960616931E+03  0.41800000000E+01 0.  1.
        -11    1    1    2    0    0 -0.14647811270E+02 -0.18645361803E+02 -0.33675476267E+02  0.41185502226E+02  0.00000000000E+00 0. -1.
         11    1    1    2    0    0  0.13071904282E+03 -0.82676575781E+02 -0.13464573629E+03  0.20506671753E+03  0.00000000000E+00 0.  1.
</event>
<event>
 7    1  0.2840156E-009  0.1349920E+03  0.7561462E-02  0.1220231E+00
         -4   -1    0    0    0  501 -0.00000000000E+00  0.00000000000E+00  0.12953847418E+03  0.12953847418E+03  0.00000000000E+00 0.  1.
          4   -1    0    0  501    0  0.00000000000E+00 -0.00000000000E+00 -0.15335260507E+03  0.15335260507E+03  0.00000000000E+00 0. -1.
         25    2    1    2    0    0  0.89573891090E+02  0.16603326458E+02 -0.21247310151E+02  0.15619707502E+03  0.12508767182E+03 0.  0.
          5    1    3    3  502    0  0.23540080589E+02  0.65715526132E+02  0.39170444694E+01  0.70039141959E+02  0.41800000000E+01 0. -1.
         -5    1    3    3    0  502  0.66033810501E+02 -0.49112199674E+02 -0.25164354620E+02  0.86157933062E+02  0.41800000000E+01 0. -1.
        -11    1    1    2    0    0  0.13219387273E+02 -0.52929441439E+01 -0.17112732882E+02  0.22262369242E+02  0.00000000000E+00 0. -1.
         11    1    1    2    0    0 -0.10279327836E+03 -0.11310382314E+02  0.14545912146E+02  0.10443163498E+03  0.00000000000E+00 0.  1.
</event>
<event>
 7    1  0.2840156E-009  0.1076162E+03  0.7561462E-02  0.1265049E+00
         -4   -1    0    0    0  501 -0.00000000000E+00  0.00000000000E+00  0.10104895749E+03  0.10104895749E+03  0.00000000000E+00 0.  1.
          4   -1    0    0  501    0  0.00000000000E+00 -0.00000000000E+00 -0.20030087100E+03  0.20030087100E+03  0.00000000000E+00 0. -1.
         25    2    1    2    0    0 -0.70895621650E+02 -0.88021499306E+01 -0.11604706804E+03  0.18498096143E+03  0.12508943632E+03 0.  0.
          5    1    3    3  502    0  0.24161108810E+01  0.40326940107E+02 -0.19306210024E+01  0.40660784396E+02  0.41800000000E+01 0. -1.
         -5    1    3    3    0  502 -0.73311732531E+02 -0.49129090038E+02 -0.11411644704E+03  0.14432017703E+03  0.41800000000E+01 0. -1.
        -11    1    1    2    0    0 -0.45226029630E+01  0.98533267066E+01 -0.27038583023E+02  0.29131202458E+02  0.00000000000E+00 0. -1.
         11    1    1    2    0    0  0.75418224613E+02 -0.10511767760E+01  0.43833737559E+02  0.87237664600E+02  0.00000000000E+00 0.  1.
</event>
<event>
 7    1  0.2840156E-009  0.2072882E+03  0.7561462E-02  0.1143732E+00
          1   -1    0    0  501    0  0.00000000000E+00  0.00000000000E+00  0.12481489961E+04  0.12481489961E+04  0.00000000000E+00 0. -1.
         -1   -1    0    0    0  501 -0.00000000000E+00 -0.00000000000E+00 -0.53118689764E+02  0.53118689764E+02  0.00000000000E+00 0.  1.
         25    2    1    2    0    0 -0.17313227050E+03 -0.77358772660E+02  0.27157844092E+03  0.35406331352E+03  0.12508724001E+03 0.  0.
          5    1    3    3  502    0 -0.47572759835E+02 -0.67055891714E+02  0.18100390759E+03  0.19884553567E+03  0.41800000000E+01 0. -1.
         -5    1    3    3    0  502 -0.12555951067E+03 -0.10302880946E+02  0.90574533332E+02  0.15521777786E+03  0.41800000000E+01 0. -1.
        -11    1    1    2    0    0  0.93251502651E+02  0.84711712173E+02  0.46385456166E+03  0.48065889288E+03  0.00000000000E+00 0. -1.
         11    1    1    2    0    0  0.79880767851E+02 -0.73529395132E+01  0.45959730373E+03  0.46654547944E+03  0.00000000000E+00 0.  1.
</event>
<event>
 7    1  0.2840156E-009  0.1487251E+03  0.7561462E-02  0.1202048E+00
          2   -1    0    0  501    0  0.00000000000E+00  0.00000000000E+00  0.48097630509E+03  0.48097630509E+03  0.00000000000E+00 0. -1.
         -2   -1    0    0    0  501 -0.00000000000E+00 -0.00000000000E+00 -0.50397777180E+02  0.50397777180E+02  0.00000000000E+00 0.  1.
         25    2    1    2    0    0 -0.48819605603E+02  0.97381805284E+02  0.26735691990E+03  0.31463285827E+03  0.12509013947E+03 0.  0.
          5    1    3    3  502    0 -0.53015985486E+02 -0.13164515549E+02  0.78655281943E+02  0.95854707574E+02  0.41800000000E+01 0. -1.
         -5    1    3    3    0  502  0.41963798826E+01  0.11054632083E+03  0.18870163795E+03  0.21877815069E+03  0.41800000000E+01 0. -1.
        -11    1    1    2    0    0  0.44745934677E+02 -0.11792849903E+02  0.21258782162E+02  0.50923528923E+02  0.00000000000E+00 0.  1.
         11    1    1    2    0    0  0.40736709263E+01 -0.85588955381E+02  0.14196282585E+03  0.16581769508E+03  0.00000000000E+00 0. -1.
</event>
<event>
 7    1  0.2840156E-009  0.1326882E+03  0.7561462E-02  0.1223521E+00
          2   -1    0    0  501    0  0.00000000000E+00  0.00000000000E+00  0.33671894347E+03  0.33671894347E+03  0.00000000000E+00 0. -1.
         -2   -1    0    0    0  501 -0.00000000000E+00 -0.00000000000E+00 -0.60233739301E+02  0.60233739301E+02  0.00000000000E+00 0.  1.
         25    2    1    2    0    0 -0.28571126550E+02 -0.70784747038E+02  0.79057760708E+02  0.16650734357E+03  0.12509107182E+03 0.  0.
          5    1    3    3  502    0 -0.24390898589E+02 -0.10700495885E+03  0.58278379274E+02  0.12433349928E+03  0.41800000000E+01 0. -1.
         -5    1    3    3    0  502 -0.41802279607E+01  0.36220211811E+02  0.20779381434E+02  0.42173844290E+02  0.41800000000E+01 0. -1.
        -11    1    1    2    0    0  0.54657990939E+02  0.74602944257E+02  0.15493676744E+03  0.18043973279E+03  0.00000000000E+00 0.  1.
         11    1    1    2    0    0 -0.26086864389E+02 -0.38181972188E+01  0.42490676027E+02  0.50005606414E+02  0.00000000000E+00 0. -1.
</event>
<event>
 7    1  0.2840156E-009  0.1400844E+03  0.7561462E-02  0.1213215E+00
         -2   -1    0    0    0  501 -0.00000000000E+00  0.00000000000E+00  0.84587798700E+02  0.84587798700E+02  0.00000000000E+00 0. -1.
          2   -1    0    0  501    0  0.00000000000E+00 -0.00000000000E+00 -0.30505263942E+03  0.30505263942E+03  0.00000000000E+00 0.  1.
         25    2    1    2    0    0  0.11184872770E+03 -0.29875553998E+02 -0.11269352355E+03  0.20433420245E+03  0.12509975789E+03 0.  0.
          5    1    3    3  502    0  0.69825720540E+01 -0.42795496788E+02  0.75478379514E+01  0.44211459098E+02  0.41800000000E+01 0.  1.
         -5    1    3    3    0  502  0.10486615565E+03  0.12919942790E+02 -0.12024136150E+03  0.16012274335E+03  0.41800000000E+01 0.  1.
        -11    1    1    2    0    0 -0.76319367333E+02 -0.10549836802E+02 -0.10653188342E+03  0.13147238140E+03  0.00000000000E+00 0.  1.
         11    1    1    2    0    0 -0.35529360369E+02  0.40425390800E+02 -0.12394337508E+01  0.53833854271E+02  0.00000000000E+00 0. -1.
</event>
<event>
 7    1  0.2840156E-009  0.1058449E+03  0.7561462E-02  0.1268464E+00
          1   -1    0    0  501    0  0.00000000000E+00  0.00000000000E+00  0.12505680675E+03  0.12505680675E+03  0.00000000000E+00 0.  1.
         -1   -1    0    0    0  501 -0.00000000000E+00 -0.00000000000E+00 -0.13407256896E+03  0.13407256896E+03  0.00000000000E+00 0. -1.
         25    2    1    2    0    0 -0.27204680687E+02  0.16839255090E+02  0.57113882719E+02  0.14118270405E+03  0.12508758996E+03 0.  0.
          5    1    3    3  502    0 -0.46613824595E+02 -0.39907419311E+02  0.51545053137E+01  0.61721082982E+02  0.41800000000E+01 0. -1.
         -5    1    3    3    0  502  0.19409143908E+02  0.56746674402E+02  0.51959377405E+02  0.79461621071E+02  0.41800000000E+01 0. -1.
        -11    1    1    2    0    0 -0.28392018388E+02 -0.19436200667E+02 -0.41693743384E+01  0.34659144347E+02  0.00000000000E+00 0.  1.
         11    1    1    2    0    0  0.55596699074E+02  0.25969455765E+01 -0.61960270589E+02  0.83287527312E+02  0.00000000000E+00 0. -1.
</event>
<event>
 7    1  0.2840156E-009  0.1076291E+03  0.7561462E-02  0.1265024E+00
          1   -1    0    0  501    0  0.00000000000E+00  0.00000000000E+00  0.14418041913E+03  0.14418041913E+03  0.00000000000E+00 0. -1.
         -1   -1    0    0    0  501 -0.00000000000E+00 -0.00000000000E+00 -0.13126270476E+03  0.13126270476E+03  0.00000000000E+00 0.  1.
         25    2    1    2    0    0 -0.36257899177E+02  0.62823692084E+02  0.50085189085E+02  0.15302598445E+03  0.12508786596E+03 0.  0.
          5    1    3    3  502    0 -0.66560164032E+02  0.25882798058E+02  0.70920489956E+02  0.10073412017E+03  0.41800000000E+01 0. -1.
         -5    1    3    3    0  502  0.30302264854E+02  0.36940894026E+02 -0.20835300872E+02  0.52291864273E+02  0.41800000000E+01 0. -1.
        -11    1    1    2    0    0 -0.17791807273E+02 -0.20248200772E+02 -0.45729320330E+02  0.53082094706E+02  0.00000000000E+00 0.  1.
         11    1    1    2    0    0  0.54049706451E+02 -0.42575491312E+02  0.85618456155E+01  0.69335044734E+02  0.00000000000E+00 0. -1.
</event>
<event>
 7    1  0.2840156E-009  0.9554098E+02  0.7561462E-02  0.1289962E+00
          1   -1    0    0  501    0  0.00000000000E+00  0.00000000000E+00  0.68305179478E+03  0.68305179478E+03  0.00000000000E+00 0. -1.
         -1   -1    0    0    0  501 -0.00000000000E+00 -0.00000000000E+00 -0.28288169779E+02  0.28288169779E+02  0.00000000000E+00 0.  1.
         25    2    1    2    0    0 -0.38023082756E+02  0.46438850541E+02  0.26758193434E+03  0.30141085505E+03  0.12508433272E+03 0.  0.
          5    1    3    3  502    0 -0.40253264923E+01 -0.18289836382E+01 -0.13159596679E+02  0.14498131579E+02  0.41800000000E+01 0. -1.
         -5    1    3    3    0  502 -0.33997756263E+02  0.48267834179E+02  0.28074153102E+03  0.28691272347E+03  0.41800000000E+01 0. -1.
        -11    1    1    2    0    0 -0.52785346355E+01  0.34026637314E+02  0.18331035318E+03  0.18651638147E+03  0.00000000000E+00 0.  1.
         11    1    1    2    0    0  0.43301617391E+02 -0.80465487855E+02  0.20387133748E+03  0.22341272804E+03  0.00000000000E+00 0. -1.
</event>
<event>
 7    1  0.3046705E-009  0.2052642E+03  0.7561462E-02  0.1145372E+00
         -1   -1    0    0    0  501 -0.00000000000E+00  0.00000000000E+00  0.58547804824E+02  0.58547804824E+02  0.00000000000E+00 0.  1.
          1   -1    0    0  501    0  0.00000000000E+00 -0.00000000000E+00 -0.84971092942E+03  0.84971092942E+03  0.00000000000E+00 0. -1.
         25    2    1    2    0    0  0.19234770394E+03 -0.27869114235E+02 -0.39296792057E+03  0.45590409677E+03  0.12510168709E+03 0.  0.
          5    1    3    3  502    0  0.13496202493E+03  0.12593163135E+02 -0.34518579244E+03  0.37086930263E+03  0.41800000000E+01 0. -1.
         -5    1    3    3    0  502  0.57385679009E+02 -0.40462277369E+02 -0.47782128127E+02  0.85034794135E+02  0.41800000000E+01 0. -1.
        -11    1    1    2    0    0 -0.11354221602E+03  0.47949301703E+02 -0.16907732790E+03  0.20923219915E+03  0.00000000000E+00 0.  1.
         11    1    1    2    0    0 -0.78805487916E+02 -0.20080187468E+02 -0.22911787613E+03  0.24312243833E+03  0.00000000000E+00 0. -1.
</event>
<event>
 7    1  0.3075947E-009  0.2378453E+03  0.7561462E-02  0.1121237E+00
          1   -1    0    0  501    0  0.00000000000E+00  0.00000000000E+00  0.64850533118E+03  0.64850533118E+03  0.00000000000E+00 0.  1.
         -1   -1    0    0    0  501 -0.00000000000E+00 -0.00000000000E+00 -0.10041212326E+03  0.10041212326E+03  0.00000000000E+00 0. -1.
         25    2    1    2    0    0 -0.21875017340E+03 -0.72392341984E+02  0.29683785685E+03  0.39604677923E+03  0.12509216018E+03 0.  0.
          5    1    3    3  502    0 -0.30403747687E+02  0.26213467522E+01 -0.62031490466E+01  0.31419910731E+02  0.41800000000E+01 0.  1.
         -5    1    3    3    0  502 -0.18834642572E+03 -0.75013688736E+02  0.30304100589E+03  0.36462686850E+03  0.41800000000E+01 0.  1.
        -11    1    1    2    0    0  0.20576484635E+03  0.43326893037E+02  0.24004403791E+03  0.31911993324E+03  0.00000000000E+00 0.  1.
         11    1    1    2    0    0  0.12985327057E+02  0.29065448946E+02  0.11211313160E+02  0.33750741977E+02  0.00000000000E+00 0. -1.
</event>
<event>
 7    1  0.2840156E-009  0.6947435E+02  0.7561462E-02  0.1361890E+00
          1   -1    0    0  501    0  0.00000000000E+00  0.00000000000E+00  0.42665949512E+02  0.42665949512E+02  0.00000000000E+00 0. -1.
         -1   -1    0    0    0  501 -0.00000000000E+00 -0.00000000000E+00 -0.29715988183E+03  0.29715988183E+03  0.00000000000E+00 0.  1.
         25    2    1    2    0    0  0.23076295737E+02 -0.71003137784E-01 -0.10592332506E+03  0.16552717920E+03  0.12508787229E+03 0.  0.
          5    1    3    3  502    0  0.62718139793E+01 -0.33346402654E+02 -0.12052045402E+03  0.12527557806E+03  0.41800000000E+01 0.  1.
         -5    1    3    3    0  502  0.16804481758E+02  0.33275399516E+02  0.14597128960E+02  0.40251601136E+02  0.41800000000E+01 0.  1.
        -11    1    1    2    0    0 -0.25394163562E+02 -0.28736457584E+02 -0.21462536996E+02  0.43946422286E+02  0.00000000000E+00 0. -1.
         11    1    1    2    0    0  0.23178678244E+01  0.28807460721E+02 -0.12710807026E+03  0.13035222986E+03  0.00000000000E+00 0.  1.
</event>
<event>
 7    1  0.3468367E-009  0.1458836E+03  0.7561462E-02  0.1205624E+00
         -2   -1    0    0    0  501 -0.00000000000E+00  0.00000000000E+00  0.33061335468E+03  0.33061335468E+03  0.00000000000E+00 0.  1.
          2   -1    0    0  501    0  0.00000000000E+00 -0.00000000000E+00 -0.67699701218E+02  0.67699701218E+02  0.00000000000E+00 0. -1.
         25    2    1    2    0    0  0.95432658454E+02  0.36569261667E+02  0.12702203259E+03  0.20549623968E+03  0.12509758016E+03 0.  0.
          5    1    3    3  502    0 -0.27060675683E+02 -0.96875544752E+01  0.12998318479E+02  0.31820709662E+02  0.41800000000E+01 0.  1.
         -5    1    3    3    0  502  0.12249333414E+03  0.46256816142E+02  0.11402371411E+03  0.17367553002E+03  0.41800000000E+01 0.  1.
        -11    1    1    2    0    0 -0.44303435967E+02 -0.60727094531E+02  0.10261854557E+03  0.12720511131E+03  0.00000000000E+00 0.  1.
         11    1    1    2    0    0 -0.51129222487E+02  0.24157832864E+02  0.33273075299E+02  0.65611704906E+02  0.00000000000E+00 0. -1.
</event>
<event>
 7    1  0.2840156E-009  0.1163557E+03  0.7561462E-02  0.1249233E+00
          3   -1    0    0  501    0  0.00000000000E+00  0.00000000000E+00  0.55814134249E+02  0.55814134249E+02  0.00000000000E+00 0. -1.
         -3   -1    0    0    0  501 -0.00000000000E+00 -0.00000000000E+00 -0.34646467984E+03  0.34646467984E+03  0.00000000000E+00 0.  1.
         25    2    1    2    0    0  0.26590411415E+02  0.73079146057E+02 -0.97314717147E+02  0.17653770440E+03  0.12509114811E+03 0.  0.
          5    1    3    3  502    0 -0.32324607994E+02  0.15909764919E+02  0.13381578316E+02  0.38659280128E+02  0.41800000000E+01 0. -1.
         -5    1    3    3    0  502  0.58915019409E+02  0.57169381137E+02 -0.11069629546E+03  0.13787842428E+03  0.41800000000E+01 0. -1.
        -11    1    1    2    0    0 -0.55716856524E+02 -0.61263027007E+02 -0.11845337101E+03  0.14452933156E+03  0.00000000000E+00 0.  1.
         11    1    1    2    0    0  0.29126445109E+02 -0.11816119050E+02 -0.74882457434E+02  0.81211778120E+02  0.00000000000E+00 0. -1.
</event>
<event>
 7    1  0.2840156E-009  0.1587364E+03  0.7561462E-02  0.1190131E+00
         -1   -1    0    0    0  501 -0.00000000000E+00  0.00000000000E+00  0.37513927283E+02  0.37513927283E+02  0.00000000000E+00 0.  1.
          1   -1    0    0  501    0  0.00000000000E+00 -0.00000000000E+00 -0.88025856515E+03  0.88025856515E+03  0.00000000000E+00 0. -1.
         25    2    1    2    0    0  0.58878926974E+02 -0.10165547598E+03 -0.22885992155E+03  0.28605082874E+03  0.12509056356E+03 0.  0.
          5    1    3    3  502    0  0.40929911010E+02  0.19737611636E+02 -0.88452316399E+02  0.99529471036E+02  0.41800000000E+01 0. -1.
         -5    1    3    3    0  502  0.17949015965E+02 -0.12139308762E+03 -0.14040760516E+03  0.18652135771E+03  0.41800000000E+01 0. -1.
        -11    1    1    2    0    0  0.63770667908E+01 -0.14491756975E+02 -0.65120404055E+02  0.67017497904E+02  0.00000000000E+00 0. -1.
         11    1    1    2    0    0 -0.65255993765E+02  0.11614723296E+03 -0.54876431225E+03  0.56470416578E+03  0.00000000000E+00 0.  1.
</event>
<event>
 7    1  0.2840156E-009  0.1535125E+03  0.7561462E-02  0.1196222E+00
          2   -1    0    0  501    0  0.00000000000E+00  0.00000000000E+00  0.58610064532E+03  0.58610064532E+03  0.00000000000E+00 0. -1.
         -2   -1    0    0    0  501 -0.00000000000E+00 -0.00000000000E+00 -0.42129198341E+02  0.42129198341E+02  0.00000000000E+00 0.  1.
         25    2    1    2    0    0  0.64584913948E+02 -0.92833817835E+02  0.30841478507E+03  0.35150613605E+03  0.12509018819E+03 0.  0.
          5    1    3    3  502    0  0.32930938292E+02  0.24145781539E+02  0.41663391693E+02  0.58487400953E+02  0.41800000000E+01 0.  1.
         -5    1    3    3    0  502  0.31653975656E+02 -0.11697959937E+03  0.26675139338E+03  0.29301873509E+03  0.41800000000E+01 0.  1.
        -11    1    1    2    0    0 -0.54645160080E+02  0.11116263731E+03  0.19293391291E+03  0.22927433394E+03  0.00000000000E+00 0.  1.
         11    1    1    2    0    0 -0.99397538674E+01 -0.18328819472E+02  0.42622748989E+02  0.47449373669E+02  0.00000000000E+00 0. -1.
</event>
<event>
 7    1  0.2840156E-009  0.9642256E+02  0.7561462E-02  0.1288004E+00
          1   -1    0    0  501    0  0.00000000000E+00  0.00000000000E+00  0.33371809227E+03  0.33371809227E+03  0.00000000000E+00 0. -1.
         -1   -1    0    0    0  501 -0.00000000000E+00 -0.00000000000E+00 -0.36209908370E+02  0.36209908370E+02  0.00000000000E+00 0.  1.
         25    2    1    2    0    0 -0.13025882863E+02 -0.15892031067E+02  0.17447261953E+03  0.21566186103E+03  0.12508842098E+03 0.  0.
          5    1    3    3  502    0  0.42529722311E+02 -0.97425646180E+00  0.13747882743E+02  0.44902150677E+02  0.41800000000E+01 0. -1.
         -5    1    3    3    0  502 -0.55555605174E+02 -0.14917774606E+02  0.16072473679E+03  0.17075971035E+03  0.41800000000E+01 0. -1.
        -11    1    1    2    0    0 -0.12465665420E+01  0.52819625066E+02  0.61298385351E+02  0.80925637266E+02  0.00000000000E+00 0.  1.
         11    1    1    2    0    0  0.14272449405E+02 -0.36927593999E+02  0.61737179020E+02  0.73340502343E+02  0.00000000000E+00 0. -1.
</event>
<event>
 7    1  0.2840156E-009  0.5881381E+02  0.7561462E-02  0.1402878E+00
          2   -1    0    0  501    0  0.00000000000E+00  0.00000000000E+00  0.25204870934E+02  0.25204870934E+02  0.00000000000E+00 0. -1.
         -2   -1    0    0    0  501 -0.00000000000E+00 -0.00000000000E+00 -0.46761440470E+03  0.46761440470E+03  0.00000000000E+00 0.  1.
         25    2    1    2    0    0 -0.72939818998E+01 -0.14915349454E+01 -0.25300956736E+03  0.28233643267E+03  0.12507834821E+03 0.  0.
          5    1    3    3  502    0 -0.24149494336E+02  0.55219437014E+01 -0.26083238036E+03  0.26203948745E+03  0.41800000000E+01 0.  1.
         -5    1    3    3    0  502  0.16855512436E+02 -0.70134786469E+01  0.78228129997E+01  0.20296945224E+02  0.41800000000E+01 0.  1.
        -11    1    1    2    0    0  0.27882725360E+02 -0.26874297311E+02 -0.16034714584E+03  0.16495721084E+03  0.00000000000E+00 0.  1.
         11    1    1    2    0    0 -0.20588743460E+02  0.28365832256E+02 -0.29052820562E+02  0.45525632115E+02  0.00000000000E+00 0. -1.
</event>
<event>
 7    1  0.2840156E-009  0.1346166E+03  0.7561462E-02  0.1220762E+00
         -1   -1    0    0    0  501 -0.00000000000E+00  0.00000000000E+00  0.17440047010E+02  0.17440047010E+02  0.00000000000E+00 0.  1.
          1   -1    0    0  501    0  0.00000000000E+00 -0.00000000000E+00 -0.13395709315E+04  0.13395709315E+04  0.00000000000E+00 0. -1.
         25    2    1    2    0    0  0.11582064019E+02 -0.78434011693E+02 -0.10192171365E+04  0.10299209550E+04  0.12509022230E+03 0.  0.
          5    1    3    3  502    0 -0.11788542558E+02  0.32387925478E+02 -0.22849215543E+03  0.23111487392E+03  0.41800000000E+01 0. -1.
         -5    1    3    3    0  502  0.23370606577E+02 -0.11082193717E+03 -0.79072498110E+03  0.79880608106E+03  0.41800000000E+01 0. -1.
        -11    1    1    2    0    0  0.17022319458E+02 -0.15477234455E+02 -0.85470760498E+02  0.88513021902E+02  0.00000000000E+00 0. -1.
         11    1    1    2    0    0 -0.28604383477E+02  0.93911246148E+02 -0.21744298742E+03  0.23857700159E+03  0.00000000000E+00 0.  1.
</event>
<event>
 7    1  0.2840156E-009  0.2025383E+03  0.7561462E-02  0.1147615E+00
         -2   -1    0    0    0  501 -0.00000000000E+00  0.00000000000E+00  0.88610053422E+02  0.88610053422E+02  0.00000000000E+00 0.  1.
          2   -1    0    0  501    0  0.00000000000E+00 -0.00000000000E+00 -0.47459675127E+03  0.47459675127E+03  0.00000000000E+00 0. -1.
         25    2    1    2    0    0  0.84789781258E+02  0.14763161128E+03 -0.15770768668E+03  0.26363437469E+03  0.12508784682E+03 0.  0.
          5    1    3    3  502    0  0.11116716019E+03  0.14703007051E+03 -0.13408199836E+03  0.22797244093E+03  0.41800000000E+01 0.  1.
         -5    1    3    3    0  502 -0.26377378929E+02  0.60154076653E+00 -0.23625688328E+02  0.35661933759E+02  0.41800000000E+01 0.  1.
        -11    1    1    2    0    0 -0.22180394354E+02 -0.12571333957E+03 -0.14993363102E+03  0.19691599059E+03  0.00000000000E+00 0.  1.
         11    1    1    2    0    0 -0.62609386904E+02 -0.21918271710E+02 -0.78345380139E+02  0.10265643941E+03  0.00000000000E+00 0. -1.
</event>
<event>
 7    1  0.2840156E-009  0.1161570E+03  0.7561462E-02  0.1249575E+00
         -2   -1    0    0    0  501 -0.00000000000E+00  0.00000000000E+00  0.22060790769E+02  0.22060790769E+02  0.00000000000E+00 0. -1.
          2   -1    0    0  501    0  0.00000000000E+00 -0.00000000000E+00 -0.62497254184E+03  0.62497254184E+03  0.00000000000E+00 0.  1.
         25    2    1    2    0    0 -0.13618847846E+02 -0.46010643749E+02 -0.30769432641E+03  0.33559775770E+03  0.12509038377E+03 0.  0.
          5    1    3    3  502    0 -0.65805866224E+02 -0.47623158239E+02 -0.19725666716E+03  0.21336832560E+03  0.41800000000E+01 0. -1.
         -5    1    3    3    0  502  0.52187018378E+02  0.16125144902E+01 -0.11043765924E+03  0.12222943209E+03  0.41800000000E+01 0. -1.
        -11    1    1    2    0    0 -0.78943777482E+01  0.67634966201E+02 -0.18747311789E+03  0.19945671156E+03  0.00000000000E+00 0.  1.
         11    1    1    2    0    0  0.21513225594E+02 -0.21624322452E+02 -0.10774430677E+03  0.11197886335E+03  0.00000000000E+00 0. -1.
</event>
<event>
 7    1  0.2840156E-009  0.2149487E+03  0.7561462E-02  0.1137706E+00
         -1   -1    0    0    0  501 -0.00000000000E+00  0.00000000000E+00  0.19200913477E+03  0.19200913477E+03  0.00000000000E+00 0.  1.
          1   -1    0    0  501    0  0.00000000000E+00 -0.00000000000E+00 -0.25869424859E+03  0.25869424859E+03  0.00000000000E+00 0. -1.
         25    2    1    2    0    0  0.59556303852E+02 -0.18310372467E+03 -0.92340052286E+01  0.22979516472E+03  0.12508646433E+03 0.  0.
          5    1    3    3  502    0  0.53369124738E+02 -0.19520253370E+03 -0.30007682878E+02  0.20462215440E+03  0.41800000000E+01 0.  1.
         -5    1    3    3    0  502  0.61871791143E+01  0.12098809033E+02  0.20773677650E+02  0.25173010319E+02  0.41800000000E+01 0.  1.
        -11    1    1    2    0    0 -0.82577296693E+02  0.11648316319E+03 -0.40387474715E+02  0.14838627076E+03  0.00000000000E+00 0. -1.
         11    1    1    2    0    0  0.23020992841E+02  0.66620561483E+02 -0.17063633881E+02  0.72521947884E+02  0.00000000000E+00 0.  1.
</event>
<event>
 7    1  0.2840156E-009  0.1088397E+03  0.7561462E-02  0.1262734E+00
          1   -1    0    0  501    0  0.00000000000E+00  0.00000000000E+00  0.50213685788E+03  0.50213685788E+03  0.00000000000E+00 0. -1.
         -1   -1    0    0    0  501 -0.00000000000E+00 -0.00000000000E+00 -0.25096259063E+02  0.25096259063E+02  0.00000000000E+00 0.  1.
         25    2    1    2    0    0  0.29824120491E+02  0.81327895475E+01  0.29247791826E+03  0.31960477293E+03  0.12509299655E+03 0.  0.
          5    1    3    3  502    0  0.16131391159E+02 -0.58365702566E+02  0.14526026583E+03  0.15743187176E+03  0.41800000000E+01 0.  1.
         -5    1    3    3    0  502  0.13692729332E+02  0.66498492113E+02  0.14721765243E+03  0.16217290118E+03  0.41800000000E+01 0.  1.
        -11    1    1    2    0    0 -0.58355013612E+02  0.27584943023E+01  0.82466340003E+02  0.10106242693E+03  0.00000000000E+00 0.  1.
         11    1    1    2    0    0  0.28530893120E+02 -0.10891283850E+02  0.10209634056E+03  0.10656591707E+03  0.00000000000E+00 0. -1.
</event>
<event>
 7    1  0.2840156E-009  0.1966980E+03  0.7561462E-02  0.1152555E+00
         -1   -1    0    0    0  501 -0.00000000000E+00  0.00000000000E+00  0.96077517576E+03  0.96077517576E+03  0.00000000000E+00 0.  1.
          1   -1    0    0  501    0  0.00000000000E+00 -0.00000000000E+00 -0.50102226379E+02  0.50102226379E+02  0.00000000000E+00 0. -1.
         25    2    1    2    0    0  0.11452957949E+02 -0.18720312513E+03  0.40746021973E+03  0.46566840878E+03  0.12508819276E+03 0.  0.
          5    1    3    3  502    0  0.20447050965E+01 -0.10964728368E+03  0.10021168845E+03  0.14861548553E+03  0.41800000000E+01 0.  1.
         -5    1    3    3    0  502  0.94082528529E+01 -0.77555841444E+02  0.30724853128E+03  0.31705292325E+03  0.41800000000E+01 0.  1.
        -11    1    1    2    0    0  0.36156093213E+02  0.94933342641E+02  0.30462122837E+03  0.32111321273E+03  0.00000000000E+00 0.  1.
         11    1    1    2    0    0 -0.47609051162E+02  0.92269782486E+02  0.19859150128E+03  0.22409578062E+03  0.00000000000E+00 0. -1.
</event>
<event>
 7    1  0.2840156E-009  0.1650388E+03  0.7561462E-02  0.1183123E+00
          2   -1    0    0  501    0  0.00000000000E+00  0.00000000000E+00  0.12707520939E+04  0.12707520939E+04  0.00000000000E+00 0.  1.
         -2   -1    0    0    0  501 -0.00000000000E+00 -0.00000000000E+00 -0.26070182451E+02  0.26070182451E+02  0.00000000000E+00 0. -1.
         25    2    1    2    0    0 -0.14307197536E+03 -0.44607951533E+01  0.76086295035E+03  0.78425118487E+03  0.12509197786E+03 0.  0.
          5    1    3    3  502    0 -0.84430509122E+02  0.33700514009E+02  0.20897562512E+03  0.22793095404E+03  0.41800000000E+01 0.  1.
         -5    1    3    3    0  502 -0.58641466234E+02 -0.38161309162E+02  0.55188732523E+03  0.55632023082E+03  0.41800000000E+01 0.  1.
        -11    1    1    2    0    0  0.29006352936E+02  0.40090126501E+02  0.15527886105E+03  0.16297273220E+03  0.00000000000E+00 0.  1.
         11    1    1    2    0    0  0.11406562242E+03 -0.35629331347E+02  0.32854010005E+03  0.34959835928E+03  0.00000000000E+00 0. -1.
</event>
<event>
 7    1  0.2840156E-009  0.1901693E+03  0.7561462E-02  0.1158309E+00
         -1   -1    0    0    0  501 -0.00000000000E+00  0.00000000000E+00  0.87653352914E+02  0.87653352914E+02  0.00000000000E+00 0.  1.
          1   -1    0    0  501    0  0.00000000000E+00 -0.00000000000E+00 -0.49364318568E+03  0.49364318568E+03  0.00000000000E+00 0. -1.
         25    2    1    2    0    0  0.64853676713E+02 -0.16276545015E+03 -0.22573110251E+03  0.31192965654E+03  0.12508792446E+03 0.  0.
          5    1    3    3  502    0  0.12918861581E+02  0.49900350583E+01 -0.86722434889E+02  0.87920706023E+02  0.41800000000E+01 0. -1.
         -5    1    3    3    0  502  0.51934815132E+02 -0.16775548520E+03 -0.13900866762E+03  0.22400895052E+03  0.41800000000E+01 0. -1.
        -11    1    1    2    0    0  0.16056252555E+02  0.40839763805E+02 -0.10264355583E+02  0.45067133804E+02  0.00000000000E+00 0. -1.
         11    1    1    2    0    0 -0.80909929268E+02  0.12192568634E+03 -0.16999437467E+03  0.22429974824E+03  0.00000000000E+00 0.  1.
</event>
<event>
 7    1  0.2840156E-009  0.1456290E+03  0.7561462E-02  0.1205949E+00
         -1   -1    0    0    0  501 -0.00000000000E+00  0.00000000000E+00  0.26475955337E+02  0.26475955337E+02  0.00000000000E+00 0.  1.
          1   -1    0    0  501    0  0.00000000000E+00 -0.00000000000E+00 -0.10879979669E+04  0.10879979669E+04  0.00000000000E+00 0. -1.
         25    2    1    2    0    0  0.12544821682E+03  0.16157038638E+02 -0.46990561339E+03  0.50245101484E+03  0.12508969511E+03 0.  0.
          5    1    3    3  502    0  0.97809853512E+02  0.31947401751E+02 -0.15610508421E+03  0.18701249595E+03  0.41800000000E+01 0.  1.
         -5    1    3    3    0  502  0.27638363304E+02 -0.15790363114E+02 -0.31380052917E+03  0.31543851890E+03  0.41800000000E+01 0.  1.
        -11    1    1    2    0    0 -0.51649026500E+02  0.38432073400E+02 -0.21904258381E+03  0.22830746752E+03  0.00000000000E+00 0. -1.
         11    1    1    2    0    0 -0.73799190316E+02 -0.54589112037E+02 -0.37257381433E+03  0.38371543984E+03  0.00000000000E+00 0.  1.
</event>
<event>
 7    1  0.2840156E-009  0.1102312E+03  0.7561462E-02  0.1260142E+00
          3   -1    0    0  501    0  0.00000000000E+00  0.00000000000E+00  0.51705247410E+03  0.51705247410E+03  0.00000000000E+00 0. -1.
         -3   -1    0    0    0  501 -0.00000000000E+00 -0.00000000000E+00 -0.29859804552E+02  0.29859804552E+02  0.00000000000E+00 0.  1.
         25    2    1    2    0    0  0.49917638929E+02  0.32566440301E+02  0.27978095643E+03  0.31221305791E+03  0.12508903326E+03 0.  0.
          5    1    3    3  502    0  0.52443805922E+02  0.70322225358E+02  0.24638939516E+03  0.26157365044E+03  0.41800000000E+01 0. -1.
         -5    1    3    3    0  502 -0.25261669929E+01 -0.37755785056E+02  0.33391561267E+02  0.50639407468E+02  0.41800000000E+01 0. -1.
        -11    1    1    2    0    0 -0.36039670765E+01  0.22401829309E+02  0.10351953022E+02  0.24939796841E+02  0.00000000000E+00 0. -1.
         11    1    1    2    0    0 -0.46313671853E+02 -0.54968269610E+02  0.19705976010E+03  0.20975942390E+03  0.00000000000E+00 0.  1.
</event>
<event>
 7    1  0.2840156E-009  0.1186747E+03  0.7561462E-02  0.1245299E+00
          1   -1    0    0  501    0  0.00000000000E+00  0.00000000000E+00  0.93511399217E+03  0.93511399217E+03  0.00000000000E+00 0. -1.
         -1   -1    0    0    0  501 -0.00000000000E+00 -0.00000000000E+00 -0.19769185893E+02  0.19769185893E+02  0.00000000000E+00 0.  1.
         25    2    1    2    0    0 -0.70729468391E+02 -0.42153448008E+02  0.51168591810E+03  0.53315047165E+03  0.12508947105E+03 0.  0.
          5    1    3    3  502    0  0.10546477015E+02 -0.55985392953E+02  0.31009137821E+03  0.31530894000E+03  0.41800000000E+01 0.  1.
         -5    1    3    3    0  502 -0.81275945406E+02  0.13831944944E+02  0.20159453989E+03  0.21784153166E+03  0.41800000000E+01 0.  1.
        -11    1    1    2    0    0  0.10396531032E+02  0.35483542947E+02  0.46286723652E+02  0.59242134195E+02  0.00000000000E+00 0.  1.
         11    1    1    2    0    0  0.60332937358E+02  0.66699050612E+01  0.35737216453E+03  0.36249057221E+03  0.00000000000E+00 0. -1.
</event>
<event>
 7    1  0.2840156E-009  0.1156378E+03  0.7561462E-02  0.1250472E+00
          2   -1    0    0  501    0  0.00000000000E+00  0.00000000000E+00  0.21128767003E+03  0.21128767003E+03  0.00000000000E+00 0. -1.
         -2   -1    0    0    0  501 -0.00000000000E+00 -0.00000000000E+00 -0.78236028989E+02  0.78236028989E+02  0.00000000000E+00 0.  1.
         25    2    1    2    0    0 -0.39880980554E+02 -0.19107034474E+02  0.13685985529E+03  0.19061504688E+03  0.12509158537E+03 0.  0.
          5    1    3    3  502    0  0.33035662113E+02  0.29835473072E+02  0.48614727171E+02  0.66048274183E+02  0.41800000000E+01 0.  1.
         -5    1    3    3    0  502 -0.72916642667E+02 -0.48942507547E+02  0.88245128119E+02  0.12456677269E+03  0.41800000000E+01 0.  1.
        -11    1    1    2    0    0  0.34839115596E+02 -0.31992190056E+02 -0.48744041529E+01  0.47550226245E+02  0.00000000000E+00 0.  1.
         11    1    1    2    0    0  0.50418649575E+01  0.51099224530E+02  0.10661899070E+01  0.51358425898E+02  0.00000000000E+00 0. -1.
</event>
<event>
 7    1  0.2840156E-009  0.9791860E+02  0.7561462E-02  0.1284735E+00
         -1   -1    0    0    0  501 -0.00000000000E+00  0.00000000000E+00  0.25467529545E+03  0.25467529545E+03  0.00000000000E+00 0.  1.
          1   -1    0    0  501    0  0.00000000000E+00 -0.00000000000E+00 -0.51252007312E+02  0.51252007312E+02  0.00000000000E+00 0. -1.
         25    2    1    2    0    0  0.66094349446E+01  0.10402648390E+02  0.15488610838E+03  0.19947588010E+03  0.12509604489E+03 0.  0.
          5    1    3    3  502    0  0.65425998097E+02 -0.27948301118E+00  0.75056325981E+02  0.99657231587E+02  0.41800000000E+01 0.  1.
         -5    1    3    3    0  502 -0.58816563153E+02  0.10682131401E+02  0.79829782402E+02  0.99818648512E+02  0.41800000000E+01 0.  1.
        -11    1    1    2    0    0 -0.29619286789E+02 -0.28480439106E+02 -0.88514442438E+01  0.42033149141E+02  0.00000000000E+00 0. -1.
         11    1    1    2    0    0  0.23009851844E+02  0.18077790716E+02  0.57388624002E+02  0.64418273525E+02  0.00000000000E+00 0.  1.
</event>
<event>
 7    1  0.2840156E-009  0.1054185E+03  0.7561462E-02  0.1269297E+00
          2   -1    0    0  501    0  0.00000000000E+00  0.00000000000E+00  0.31579801354E+02  0.31579801354E+02  0.00000000000E+00 0. -1.
         -2   -1    0    0    0  501 -0.00000000000E+00 -0.00000000000E+00 -0.39160691763E+03  0.39160691763E+03  0.00000000000E+00 0.  1.
         25    2    1    2    0    0  0.18529194863E+02  0.10258935723E+02 -0.18388209479E+03  0.22340640690E+03  0.12509684663E+03 0.  0.
          5    1    3    3  502    0 -0.47651587742E+02  0.16853528812E+02 -0.12338653725E+03  0.13340324293E+03  0.41800000000E+01 0. -1.
         -5    1    3    3    0  502  0.66180782604E+02 -0.65945930883E+01 -0.60495557538E+02  0.90003163977E+02  0.41800000000E+01 0. -1.
        -11    1    1    2    0    0  0.89864796928E+01 -0.46846699319E+02 -0.77028733292E+02  0.90602405084E+02  0.00000000000E+00 0.  1.
         11    1    1    2    0    0 -0.27515674555E+02  0.36587763595E+02 -0.99116288189E+02  0.10917790699E+03  0.00000000000E+00 0. -1.
</event>
<event>
 7    1  0.2840156E-009  0.2662564E+03  0.7561462E-02  0.1103441E+00
         -2   -1    0    0    0  501 -0.00000000000E+00  0.00000000000E+00  0.11026791043E+03  0.11026791043E+03  0.00000000000E+00 0.  1.
          2   -1    0    0  501    0  0.00000000000E+00 -0.00000000000E+00 -0.75216295324E+03  0.75216295324E+03  0.00000000000E+00 0. -1.
         25    2    1    2    0    0  0.12971071391E+03  0.21748361165E+03 -0.45201870328E+03  0.53300218011E+03  0.12508567163E+03 0.  0.
          5    1    3    3  502    0  0.14975537201E+03  0.18058733664E+03 -0.41560074161E+03  0.47726293217E+03  0.41800000000E+01 0. -1.
         -5    1    3    3    0  502 -0.20044658098E+02  0.36896275016E+02 -0.36417961666E+02  0.55739247934E+02  0.41800000000E+01 0. -1.
        -11    1    1    2    0    0 -0.72931680309E+02 -0.88022963779E+02 -0.13717254833E+03  0.17855917832E+03  0.00000000000E+00 0. -1.
         11    1    1    2    0    0 -0.56779033606E+02 -0.12946064788E+03 -0.52703791199E+02  0.15086950524E+03  0.00000000000E+00 0.  1.
</event>
<event>
 7    1  0.2840156E-009  0.1244421E+03  0.7561462E-02  0.1235944E+00
         -2   -1    0    0    0  501 -0.00000000000E+00  0.00000000000E+00  0.15523278975E+03  0.15523278975E+03  0.00000000000E+00 0.  1.
          2   -1    0    0  501    0  0.00000000000E+00 -0.00000000000E+00 -0.12680128623E+03  0.12680128623E+03  0.00000000000E+00 0. -1.
         25    2    1    2    0    0  0.35552962803E+02 -0.81046100919E+02  0.22624120913E+02  0.15489229546E+03  0.12508912306E+03 0.  0.
          5    1    3    3  502    0  0.71037985461E+02 -0.76850403401E+02 -0.11425070285E+02  0.10535836233E+03  0.41800000000E+01 0. -1.
         -5    1    3    3    0  502 -0.35485022658E+02 -0.41956975181E+01  0.34049191198E+02  0.49533933136E+02  0.41800000000E+01 0. -1.
        -11    1    1    2    0    0 -0.25855341116E+02 -0.68735835976E+00  0.31649278246E+02  0.40873560393E+02  0.00000000000E+00 0.  1.
         11    1    1    2    0    0 -0.96976216869E+01  0.81733459279E+02 -0.25841895643E+02  0.86268220119E+02  0.00000000000E+00 0. -1.
</event>
<event>
 7    1  0.2840156E-009  0.1253878E+03  0.7561462E-02  0.1234464E+00
          2   -1    0    0  501    0  0.00000000000E+00  0.00000000000E+00  0.55471551216E+03  0.55471551216E+03  0.00000000000E+00 0. -1.
         -2   -1    0    0    0  501 -0.00000000000E+00 -0.00000000000E+00 -0.50426853020E+02  0.50426853020E+02  0.00000000000E+00 0.  1.
         25    2    1    2    0    0  0.43018123457E+02 -0.10805947489E+03  0.35664959155E+03  0.39544146956E+03  0.12509042984E+03 0.  0.
          5    1    3    3  502    0  0.55908936355E+02 -0.88731227857E+02  0.12779436059E+03  0.16537203802E+03  0.41800000000E+01 0.  1.
         -5    1    3    3    0  502 -0.12890812898E+02 -0.19328247030E+02  0.22885523096E+03  0.23006943154E+03  0.41800000000E+01 0.  1.
        -11    1    1    2    0    0 -0.13949715684E+02  0.45136479568E+01  0.82865933052E+02  0.84153018045E+02  0.00000000000E+00 0. -1.
         11    1    1    2    0    0 -0.29068407773E+02  0.10354582693E+03  0.64773134540E+02  0.12554787757E+03  0.00000000000E+00 0.  1.
</event>
<event>
 7    1  0.2840156E-009  0.1128666E+03  0.7561462E-02  0.1255352E+00
         -1   -1    0    0    0  501 -0.00000000000E+00  0.00000000000E+00  0.97687365842E+03  0.97687365842E+03  0.00000000000E+00 0. -1.
          1   -1    0    0  501    0  0.00000000000E+00 -0.00000000000E+00 -0.21267061051E+02  0.21267061051E+02  0.00000000000E+00 0.  1.
         25    2    1    2    0    0  0.59233779416E+02  0.47842540213E+02  0.71189041502E+03  0.72679654098E+03  0.12509076586E+03 0.  0.
          5    1    3    3  502    0  0.62816608595E+02 -0.17347565618E+02  0.51947321337E+03  0.52356160684E+03  0.41800000000E+01 0. -1.
         -5    1    3    3    0  502 -0.35828291793E+01  0.65190105831E+02  0.19241720164E+03  0.20323493413E+03  0.41800000000E+01 0. -1.
        -11    1    1    2    0    0 -0.11359597193E+02  0.13211456308E+02  0.20675767732E+01  0.17545879855E+02  0.00000000000E+00 0.  1.
         11    1    1    2    0    0 -0.47874182223E+02 -0.61053996521E+02  0.24164860558E+03  0.25379829864E+03  0.00000000000E+00 0. -1.
</event>
<event>
 7    1  0.2840156E-009  0.1112515E+03  0.7561462E-02  0.1258270E+00
          3   -1    0    0  501    0  0.00000000000E+00  0.00000000000E+00  0.17569048790E+03  0.17569048790E+03  0.00000000000E+00 0. -1.
         -3   -1    0    0    0  501 -0.00000000000E+00 -0.00000000000E+00 -0.72588928558E+02  0.72588928558E+02  0.00000000000E+00 0.  1.
         25    2    1    2    0    0 -0.24244457998E+02  0.20982863862E+02  0.57308030361E+02  0.14127936437E+03  0.12509026394E+03 0.  0.
          5    1    3    3  502    0 -0.25088585210E+02 -0.50470506002E+02  0.16466685528E+02  0.58867080921E+02  0.41800000000E+01 0. -1.
         -5    1    3    3    0  502  0.84412721118E+00  0.71453369863E+02  0.40841344833E+02  0.82412283449E+02  0.41800000000E+01 0. -1.
        -11    1    1    2    0    0  0.21892718156E+02 -0.55575883771E+02  0.39891937708E+02  0.71828522602E+02  0.00000000000E+00 0.  1.
         11    1    1    2    0    0  0.23517398426E+01  0.34593019909E+02  0.59015912734E+01  0.35171529485E+02  0.00000000000E+00 0. -1.
</event>
<event>
 7    1  0.2840156E-009  0.8950106E+02  0.7561462E-02  0.1304064E+00
          2   -1    0    0  501    0  0.00000000000E+00  0.00000000000E+00  0.15162311943E+03  0.15162311943E+03  0.00000000000E+00 0. -1.
         -2   -1    0    0    0  501 -0.00000000000E+00 -0.00000000000E+00 -0.86480514324E+02  0.86480514324E+02  0.00000000000E+00 0.  1.
         25    2    1    2    0    0 -0.58052394253E+01 -0.32941939306E+02  0.49193142468E+02  0.13851455281E+03  0.12508974340E+03 0.  0.
          5    1    3    3  502    0 -0.64756051585E+02 -0.16897157921E+02  0.35057638743E+02  0.75666178685E+02  0.41800000000E+01 0.  1.
         -5    1    3    3    0  502  0.58950812159E+02 -0.16044781385E+02  0.14135503725E+02  0.62848374120E+02  0.41800000000E+01 0.  1.
        -11    1    1    2    0    0 -0.10442860154E+02  0.32840524832E+02 -0.33182754425E+02  0.47839822226E+02  0.00000000000E+00 0.  1.
         11    1    1    2    0    0  0.16248099579E+02  0.10141447418E+00  0.49132217059E+02  0.51749258719E+02  0.00000000000E+00 0. -1.
</event>
<event>
 7    1  0.2840156E-009  0.1088393E+03  0.7561462E-02  0.1262734E+00
         -1   -1    0    0    0  501 -0.00000000000E+00  0.00000000000E+00  0.21311441700E+03  0.21311441700E+03  0.00000000000E+00 0.  1.
          1   -1    0    0  501    0  0.00000000000E+00 -0.00000000000E+00 -0.59302643075E+02  0.59302643075E+02  0.00000000000E+00 0. -1.
         25    2    1    2    0    0  0.53880736068E+01  0.10398615402E+02  0.11537361638E+03  0.17057588705E+03  0.12509156384E+03 0.  0.
          5    1    3    3  502    0  0.64769301239E+02  0.12377680135E+02  0.61339555279E+02  0.90156989692E+02  0.41800000000E+01 0.  1.
         -5    1    3    3    0  502 -0.59381227632E+02 -0.19790647331E+01  0.54034061105E+02  0.80418897355E+02  0.41800000000E+01 0.  1.
        -11    1    1    2    0    0  0.42493876752E+02  0.21389550410E+01  0.28899404593E+02  0.51434232530E+02  0.00000000000E+00 0.  1.
         11    1    1    2    0    0 -0.47881950359E+02 -0.12537570443E+02  0.95387529516E+01  0.50406940501E+02  0.00000000000E+00 0. -1.
</event>
<event>
 7    1  0.2840156E-009  0.8531629E+02  0.7561462E-02  0.1314607E+00
         -1   -1    0    0    0  501 -0.00000000000E+00  0.00000000000E+00  0.18748686418E+03  0.18748686418E+03  0.00000000000E+00 0.  1.
          1   -1    0    0  501    0  0.00000000000E+00 -0.00000000000E+00 -0.71120051526E+02  0.71120051526E+02  0.00000000000E+00 0. -1.
         25    2    1    2    0    0 -0.23058405433E+01 -0.27742299906E+02  0.98061349092E+02  0.16136086725E+03  0.12508536761E+03 0.  0.
          5    1    3    3  502    0 -0.37120004439E+02 -0.77111263085E+01 -0.15243011153E+02  0.41075272215E+02  0.41800000000E+01 0.  1.
         -5    1    3    3    0  502  0.34814163896E+02 -0.20031173597E+02  0.11330436025E+03  0.12028559504E+03  0.41800000000E+01 0.  1.
        -11    1    1    2    0    0 -0.27596213504E+01  0.59693686007E+02  0.24002604910E+02  0.64397800440E+02  0.00000000000E+00 0. -1.
         11    1    1    2    0    0  0.50654618938E+01 -0.31951386101E+02 -0.56971413473E+01  0.32848248013E+02  0.00000000000E+00 0.  1.
</event>
<event>
 7    1  0.2840156E-009  0.1973726E+03  0.7561462E-02  0.1151975E+00
          1   -1    0    0  501    0  0.00000000000E+00  0.00000000000E+00  0.18562370000E+03  0.18562370000E+03  0.00000000000E+00 0. -1.
         -1   -1    0    0    0  501 -0.00000000000E+00 -0.00000000000E+00 -0.28853364033E+03  0.28853364033E+03  0.00000000000E+00 0.  1.
         25    2    1    2    0    0 -0.46624020528E+02  0.17310342210E+03 -0.15172108865E+03  0.26609281074E+03  0.12508997222E+03 0.  0.
          5    1    3    3  502    0  0.19995277903E+02  0.93119943621E+02 -0.18730862953E+02  0.97156845695E+02  0.41800000000E+01 0. -1.
         -5    1    3    3    0  502 -0.66619298431E+02  0.79983478482E+02 -0.13299022570E+03  0.16893596504E+03  0.41800000000E+01 0. -1.
        -11    1    1    2    0    0 -0.13350909082E+02 -0.99021514910E+02 -0.22307335777E+01  0.99942400214E+02  0.00000000000E+00 0.  1.
         11    1    1    2    0    0  0.59974929610E+02 -0.74081907193E+02  0.51041881889E+02  0.10812212938E+03  0.00000000000E+00 0. -1.
</event>
<event>
 7    1  0.2840156E-009  0.1320797E+03  0.7561462E-02  0.1224402E+00
          1   -1    0    0  501    0  0.00000000000E+00  0.00000000000E+00  0.41557121183E+03  0.41557121183E+03  0.00000000000E+00 0. -1.
         -1   -1    0    0    0  501 -0.00000000000E+00 -0.00000000000E+00 -0.54631186850E+02  0.54631186850E+02  0.00000000000E+00 0.  1.
         25    2    1    2    0    0  0.40250441048E+02 -0.88293656823E+02  0.25226456321E+03  0.29783313876E+03  0.12510515916E+03 0.  0.
          5    1    3    3  502    0  0.64819317979E+02 -0.37048735171E+02  0.21997405011E+03  0.23233641101E+03  0.41800000000E+01 0.  1.
         -5    1    3    3    0  502 -0.24568876931E+02 -0.51244921652E+02  0.32290513105E+02  0.65496727745E+02  0.41800000000E+01 0.  1.
        -11    1    1    2    0    0 -0.69453859349E+02  0.62521388190E+02  0.64903116999E+02  0.11377687443E+03  0.00000000000E+00 0. -1.
         11    1    1    2    0    0  0.29203418301E+02  0.25772268633E+02  0.43772344771E+02  0.58592385492E+02  0.00000000000E+00 0.  1.
</event>
<event>
 7    1  0.2840156E-009  0.1178807E+03  0.7561462E-02  0.1246635E+00
          2   -1    0    0  501    0  0.00000000000E+00  0.00000000000E+00  0.22088044575E+03  0.22088044575E+03  0.00000000000E+00 0. -1.
         -2   -1    0    0    0  501 -0.00000000000E+00 -0.00000000000E+00 -0.91119265320E+02  0.91119265320E+02  0.00000000000E+00 0.  1.
         25    2    1    2    0    0  0.70564675846E+02 -0.41518070924E+02  0.20583319337E+02  0.15091416337E+03  0.12509311724E+03 0.  0.
          5    1    3    3  502    0 -0.22814146864E+02 -0.42960285293E+02 -0.14711289726E+02  0.50989860315E+02  0.41800000000E+01 0. -1.
         -5    1    3    3    0  502  0.93378822710E+02  0.14422143687E+01  0.35294609064E+02  0.99924303059E+02  0.41800000000E+01 0. -1.
        -11    1    1    2    0    0 -0.75575712292E+01 -0.96727737083E+01 -0.10714837056E+02  0.16293776948E+02  0.00000000000E+00 0.  1.
         11    1    1    2    0    0 -0.63007104617E+02  0.51190844633E+02  0.11989269815E+03  0.14479177075E+03  0.00000000000E+00 0. -1.
</event>
<event>
 7    1  0.2840156E-009  0.1071816E+03  0.7561462E-02  0.1265880E+00
          3   -1    0    0  501    0  0.00000000000E+00  0.00000000000E+00  0.11279972477E+03  0.11279972477E+03  0.00000000000E+00 0. -1.
         -3   -1    0    0    0  501 -0.00000000000E+00 -0.00000000000E+00 -0.19146836747E+03  0.19146836747E+03  0.00000000000E+00 0.  1.
         25    2    1    2    0    0  0.43528655595E+02  0.35735515862E+02  0.41500302548E+02  0.14332245069E+03  0.12508908349E+03 0.  0.
          5    1    3    3  502    0  0.32753757420E+02 -0.27559236580E+02 -0.25848649811E+02  0.50179131549E+02  0.41800000000E+01 0. -1.
         -5    1    3    3    0  502  0.10774898175E+02  0.63294752442E+02  0.67348952359E+02  0.93143319144E+02  0.41800000000E+01 0. -1.
        -11    1    1    2    0    0  0.96665700018E+00  0.28694944035E+02 -0.30037691492E+02  0.41552342282E+02  0.00000000000E+00 0. -1.
         11    1    1    2    0    0 -0.44495312595E+02 -0.64430459897E+02 -0.90131253762E+02  0.11939329927E+03  0.00000000000E+00 0.  1.
</event>
<event>
 7    1  0.2840156E-009  0.2798754E+03  0.7561462E-02  0.1095757E+00
          2   -1    0    0  501    0  0.00000000000E+00  0.00000000000E+00  0.90478863318E+03  0.90478863318E+03  0.00000000000E+00 0.  1.
         -2   -1    0    0    0  501 -0.00000000000E+00 -0.00000000000E+00 -0.90651047697E+02  0.90651047697E+02  0.00000000000E+00 0. -1.
         25    2    1    2    0    0 -0.37878853667E+02  0.26072472682E+03  0.45678921010E+03  0.54195509510E+03  0.12508697739E+03 0.  0.
          5    1    3    3  502    0 -0.21967959812E+02 -0.24639242843E+01  0.13724564229E+02  0.26353334598E+02  0.41800000000E+01 0.  1.
         -5    1    3    3    0  502 -0.15910893855E+02  0.26318865110E+03  0.44306464587E+03  0.51560176050E+03  0.41800000000E+01 0.  1.
        -11    1    1    2    0    0 -0.11740168216E+01 -0.20766821843E+03  0.22850205154E+03  0.30877282073E+03  0.00000000000E+00 0.  1.
         11    1    1    2    0    0  0.39052870489E+02 -0.53056508384E+02  0.12884632385E+03  0.14471176505E+03  0.00000000000E+00 0. -1.
</event>
<event>
 7    1  0.2840156E-009  0.1407783E+03  0.7561462E-02  0.1212286E+00
         -2   -1    0    0    0  501 -0.00000000000E+00  0.00000000000E+00  0.98807868947E+02  0.98807868947E+02  0.00000000000E+00 0.  1.
          2   -1    0    0  501    0  0.00000000000E+00 -0.00000000000E+00 -0.29885407960E+03  0.29885407960E+03  0.00000000000E+00 0. -1.
         25    2    1    2    0    0  0.58355477454E+02 -0.95093779363E+02 -0.18944192837E+03  0.25294865059E+03  0.12508631816E+03 0.  0.
          5    1    3    3  502    0  0.10603159310E+02 -0.10370853844E+03 -0.17209014374E+03  0.20124705688E+03  0.41800000000E+01 0.  1.
         -5    1    3    3    0  502  0.47752318145E+02  0.86147590786E+01 -0.17351784630E+02  0.51701593709E+02  0.41800000000E+01 0.  1.
        -11    1    1    2    0    0 -0.13348261237E+02  0.79916178126E+02 -0.38419452739E+02  0.89670652686E+02  0.00000000000E+00 0. -1.
         11    1    1    2    0    0 -0.45007216217E+02  0.15177601237E+02  0.27815170452E+02  0.55042645269E+02  0.00000000000E+00 0.  1.
</event>
<event>
 7    1  0.2840156E-009  0.1665767E+03  0.7561462E-02  0.1181466E+00
         -1   -1    0    0    0  501 -0.00000000000E+00  0.00000000000E+00  0.50501428324E+02  0.50501428324E+02  0.00000000000E+00 0.  1.
          1   -1    0    0  501    0  0.00000000000E+00 -0.00000000000E+00 -0.57047633722E+03  0.57047633722E+03  0.00000000000E+00 0. -1.
         25    2    1    2    0    0  0.47942603919E+02 -0.12106273585E+03 -0.26227508788E+03  0.31841788133E+03  0.12508815352E+03 0.  0.
          5    1    3    3  502    0 -0.42828133919E+02 -0.39989270916E+02 -0.82300419776E+02  0.10111489672E+03  0.41800000000E+01 0. -1.
         -5    1    3    3    0  502  0.90770737838E+02 -0.81073464933E+02 -0.17997466810E+03  0.21730298461E+03  0.41800000000E+01 0. -1.
        -11    1    1    2    0    0 -0.70445664981E+02  0.92419170779E+02 -0.15593746178E+03  0.19447464315E+03  0.00000000000E+00 0.  1.
         11    1    1    2    0    0  0.22503061062E+02  0.28643565070E+02 -0.10176235924E+03  0.10808524106E+03  0.00000000000E+00 0. -1.
</event>
<event>
 7    1  0.2840156E-009  0.8554887E+02  0.7561462E-02  0.1314003E+00
         -1   -1    0    0    0  501 -0.00000000000E+00  0.00000000000E+00  0.11905849101E+02  0.11905849101E+02  0.00000000000E+00 0.  1.
          1   -1    0    0  501    0  0.00000000000E+00 -0.00000000000E+00 -0.14339514063E+04  0.14339514063E+04  0.00000000000E+00 0. -1.
         25    2    1    2    0    0 -0.98184165431E+01  0.17535368389E+02 -0.11760877627E+04  0.11828924886E+04  0.12509326003E+03 0.  0.
          5    1    3    3  502    0  0.31270629079E+02  0.28367452609E+02 -0.14913630713E+03  0.15505378136E+03  0.41800000000E+01 0.  1.
         -5    1    3    3    0  502 -0.41089045622E+02 -0.10832084219E+02 -0.10269514556E+04  0.10278387073E+04  0.41800000000E+01 0.  1.
        -11    1    1    2    0    0  0.45829564582E+02  0.20302191099E+00 -0.79776175574E+02  0.92003415137E+02  0.00000000000E+00 0.  1.
         11    1    1    2    0    0 -0.36011148039E+02 -0.17738390300E+02 -0.16618161890E+03  0.17096135158E+03  0.00000000000E+00 0. -1.
</event>
<event>
 7    1  0.2840156E-009  0.1345080E+03  0.7561462E-02  0.1220916E+00
          2   -1    0    0  501    0  0.00000000000E+00  0.00000000000E+00  0.18530137938E+03  0.18530137938E+03  0.00000000000E+00 0. -1.
         -2   -1    0    0    0  501 -0.00000000000E+00 -0.00000000000E+00 -0.12546096515E+03  0.12546096515E+03  0.00000000000E+00 0.  1.
         25    2    1    2    0    0 -0.78734329427E+02  0.25654644856E+02 -0.36983060256E+02  0.15450589280E+03  0.12508824378E+03 0.  0.
          5    1    3    3  502    0 -0.90844128159E+02  0.62688088330E+02 -0.22454085644E+02  0.11271251218E+03  0.41800000000E+01 0. -1.
         -5    1    3    3    0  502  0.12109798732E+02 -0.37033443474E+02 -0.14528974612E+02  0.41793380626E+02  0.41800000000E+01 0. -1.
        -11    1    1    2    0    0  0.71907707657E+02  0.18860821403E+02  0.42277096802E+02  0.85520768930E+02  0.00000000000E+00 0. -1.
         11    1    1    2    0    0  0.68266217705E+01 -0.44515466260E+02  0.54546377685E+02  0.70735682789E+02  0.00000000000E+00 0.  1.
</event>
<event>
 7    1  0.2840156E-009  0.1074716E+03  0.7561462E-02  0.1265325E+00
          1   -1    0    0  501    0  0.00000000000E+00  0.00000000000E+00  0.89098533798E+02  0.89098533798E+02  0.00000000000E+00 0. -1.
         -1   -1    0    0    0  501 -0.00000000000E+00 -0.00000000000E+00 -0.21323746343E+03  0.21323746343E+03  0.00000000000E+00 0.  1.
         25    2    1    2    0    0  0.68707692580E+01 -0.42894839784E+02 -0.14650520392E+03  0.19748264871E+03  0.12509375291E+03 0.  0.
          5    1    3    3  502    0 -0.36146443082E+02  0.29330197458E+02 -0.67077166277E+02  0.81753559348E+02  0.41800000000E+01 0. -1.
         -5    1    3    3    0  502  0.43017212340E+02 -0.72225037242E+02 -0.79428037640E+02  0.11572908937E+03  0.41800000000E+01 0. -1.
        -11    1    1    2    0    0 -0.21896852414E+02 -0.13467409353E+02 -0.20157692361E+02  0.32667657119E+02  0.00000000000E+00 0.  1.
         11    1    1    2    0    0  0.15026083156E+02  0.56362249137E+02  0.42523966646E+02  0.72185691395E+02  0.00000000000E+00 0. -1.
</event>
<event>
 7    1  0.2840156E-009  0.1357932E+03  0.7561462E-02  0.1219104E+00
          2   -1    0    0  501    0  0.00000000000E+00  0.00000000000E+00  0.28696430787E+03  0.28696430787E+03  0.00000000000E+00 0. -1.
         -2   -1    0    0    0  501 -0.00000000000E+00 -0.00000000000E+00 -0.83805744098E+02  0.83805744098E+02  0.00000000000E+00 0.  1.
         25    2    1    2    0    0  0.76250087065E+02 -0.62078982970E+02  0.64141930584E+02  0.17155370509E+03  0.12509440661E+03 0.  0.
          5    1    3    3  502    0  0.87941025727E+02 -0.40487324642E+01  0.57835246597E+01  0.88322917739E+02  0.41800000000E+01 0. -1.
         -5    1    3    3    0  502 -0.11690938662E+02 -0.58030250505E+02  0.58358405925E+02  0.83230787348E+02  0.41800000000E+01 0. -1.
        -11    1    1    2    0    0 -0.53149344986E+02  0.79182424020E+02  0.14120232447E+03  0.17039015694E+03  0.00000000000E+00 0.  1.
         11    1    1    2    0    0 -0.23100742079E+02 -0.17103441051E+02 -0.21856912790E+01  0.28826189945E+02  0.00000000000E+00 0. -1.
</event>
<event>
 7    1  0.2840156E-009  0.1383514E+03  0.7561462E-02  0.1215565E+00
         -2   -1    0    0    0  501 -0.00000000000E+00  0.00000000000E+00  0.25099913720E+02  0.25099913720E+02  0.00000000000E+00 0.  1.
          2   -1    0    0  501    0  0.00000000000E+00 -0.00000000000E+00 -0.92039843007E+03  0.92039843007E+03  0.00000000000E+00 0. -1.
         25    2    1    2    0    0 -0.12547321908E+02 -0.87937634608E+02 -0.66743151398E+03  0.68483853791E+03  0.12509410172E+03 0.  0.
          5    1    3    3  502    0 -0.25326014544E+02  0.25338057952E+02 -0.10698922436E+03  0.11290522894E+03  0.41800000000E+01 0.  1.
         -5    1    3    3    0  502  0.12778692636E+02 -0.11327569256E+03 -0.56044228962E+03  0.57193330897E+03  0.41800000000E+01 0.  1.
        -11    1    1    2    0    0  0.44272825500E+02  0.83524982198E+02 -0.17136555634E+03  0.19571065282E+03  0.00000000000E+00 0.  1.
         11    1    1    2    0    0 -0.31725503592E+02  0.44126524097E+01 -0.56501446035E+02  0.64949153062E+02  0.00000000000E+00 0. -1.
</event>
<event>
 7    1  0.2840156E-009  0.1642043E+03  0.7561462E-02  0.1184030E+00
         -2   -1    0    0    0  501 -0.00000000000E+00  0.00000000000E+00  0.23453437795E+02  0.23453437795E+02  0.00000000000E+00 0.  1.
          2   -1    0    0  501    0  0.00000000000E+00 -0.00000000000E+00 -0.12464791572E+04  0.12464791572E+04  0.00000000000E+00 0. -1.
         25    2    1    2    0    0 -0.12640982531E+03  0.24677119574E+02 -0.54147282948E+03  0.57046464859E+03  0.12509470838E+03 0.  0.
          5    1    3    3  502    0 -0.11900260135E+03  0.64120448064E+02 -0.46121239996E+03  0.48063229320E+03  0.41800000000E+01 0. -1.
         -5    1    3    3    0  502 -0.74072239670E+01 -0.39443328490E+02 -0.80260429515E+02  0.89832355392E+02  0.41800000000E+01 0. -1.
        -11    1    1    2    0    0  0.99946563159E+01  0.24484776726E+02 -0.66471417080E+02  0.71539127299E+02  0.00000000000E+00 0.  1.
         11    1    1    2    0    0  0.11641516900E+03 -0.49161896300E+02 -0.61508147289E+03  0.62792881914E+03  0.00000000000E+00 0. -1.
</event>
<event>
 7    1  0.2840156E-009  0.8520297E+02  0.7561462E-02  0.1314903E+00
          2   -1    0    0  501    0  0.00000000000E+00  0.00000000000E+00  0.42407923159E+03  0.42407923159E+03  0.00000000000E+00 0. -1.
         -2   -1    0    0    0  501 -0.00000000000E+00 -0.00000000000E+00 -0.42681333832E+02  0.42681333832E+02  0.00000000000E+00 0.  1.
         25    2    1    2    0    0 -0.36244390480E+02  0.15619158627E+02  0.32942414736E+03  0.35457889998E+03  0.12509321919E+03 0.  0.
          5    1    3    3  502    0 -0.54227766816E+02 -0.17393797228E+02  0.30325370352E+03  0.30858301310E+03  0.41800000000E+01 0.  1.
         -5    1    3    3    0  502  0.17983376337E+02  0.33012955855E+02  0.26170443839E+02  0.45995886876E+02  0.41800000000E+01 0.  1.
        -11    1    1    2    0    0 -0.92270024256E+01 -0.27060197844E+02 -0.13526473567E+02  0.31628426586E+02  0.00000000000E+00 0.  1.
         11    1    1    2    0    0  0.45471392905E+02  0.11441039217E+02  0.65500223963E+02  0.80553238856E+02  0.00000000000E+00 0. -1.
</event>
<event>
 7    1  0.2840156E-009  0.7318133E+02  0.7561462E-02  0.1349597E+00
         -1   -1    0    0    0  501 -0.00000000000E+00  0.00000000000E+00  0.39059796862E+02  0.39059796862E+02  0.00000000000E+00 0.  1.
          1   -1    0    0  501    0  0.00000000000E+00 -0.00000000000E+00 -0.54527373441E+03  0.54527373441E+03  0.00000000000E+00 0. -1.
         25    2    1    2    0    0 -0.36429803283E+02 -0.60450460819E+02 -0.40840451228E+03  0.43292376544E+03  0.12508937705E+03 0.  0.
          5    1    3    3  502    0 -0.27649518421E+02 -0.21743681453E+02 -0.38506432727E+03  0.38669017584E+03  0.41800000000E+01 0.  1.
         -5    1    3    3    0  502 -0.87802848616E+01 -0.38706779366E+02 -0.23340185005E+02  0.46233589599E+02  0.41800000000E+01 0.  1.
        -11    1    1    2    0    0  0.10596713854E+02  0.25114782594E+02 -0.10371880497E+03  0.10724100500E+03  0.00000000000E+00 0. -1.
         11    1    1    2    0    0  0.25833089428E+02  0.35335678226E+02  0.59093797007E+01  0.44168760833E+02  0.00000000000E+00 0.  1.
</event>
<event>
 7    1  0.2840156E-009  0.7839187E+02  0.7561462E-02  0.1333678E+00
          1   -1    0    0  501    0  0.00000000000E+00  0.00000000000E+00  0.17582048438E+03  0.17582048438E+03  0.00000000000E+00 0. -1.
         -1   -1    0    0    0  501 -0.00000000000E+00 -0.00000000000E+00 -0.83447970520E+02  0.83447970520E+02  0.00000000000E+00 0.  1.
         25    2    1    2    0    0  0.24505259079E+01  0.52153938411E+02  0.64988311006E+02  0.15031824224E+03  0.12508419170E+03 0.  0.
          5    1    3    3  502    0  0.80527877617E+01 -0.51008986998E+01  0.87709160405E+02  0.88324604597E+02  0.41800000000E+01 0. -1.
         -5    1    3    3    0  502 -0.56022618538E+01  0.57254837111E+02 -0.22720849399E+02  0.61993637640E+02  0.41800000000E+01 0. -1.
        -11    1    1    2    0    0  0.25441198321E+02  0.42293459960E+01  0.37218875229E+02  0.45281194915E+02  0.00000000000E+00 0. -1.
         11    1    1    2    0    0 -0.27891724229E+02 -0.56383284407E+02 -0.98346723706E+01  0.63669017753E+02  0.00000000000E+00 0.  1.
</event>
<event>
 7    1  0.2840156E-009  0.1171975E+03  0.7561462E-02  0.1247793E+00
         -1   -1    0    0    0  501 -0.00000000000E+00  0.00000000000E+00  0.43460221395E+02  0.43460221395E+02  0.00000000000E+00 0.  1.
          1   -1    0    0  501    0  0.00000000000E+00 -0.00000000000E+00 -0.48535711106E+03  0.48535711106E+03  0.00000000000E+00 0. -1.
         25    2    1    2    0    0  0.82161489089E+02 -0.75238482713E+01 -0.15014326231E+03  0.21213081732E+03  0.12509742546E+03 0.  0.
          5    1    3    3  502    0  0.99411508714E+02 -0.34360801417E+00 -0.16163123352E+03  0.18980225020E+03  0.41800000000E+01 0.  1.
         -5    1    3    3    0  502 -0.17250019625E+02 -0.71802402571E+01  0.11487971206E+02  0.22328567121E+02  0.41800000000E+01 0.  1.
        -11    1    1    2    0    0 -0.46357291024E+01 -0.29481397750E+02 -0.13167142574E+03  0.13501113714E+03  0.00000000000E+00 0. -1.
         11    1    1    2    0    0 -0.77525759987E+02  0.37005246021E+02 -0.16008220162E+03  0.18167537800E+03  0.00000000000E+00 0.  1.
</event>
<event>
 7    1  0.2840156E-009  0.9774137E+02  0.7561462E-02  0.1285119E+00
          2   -1    0    0  501    0  0.00000000000E+00  0.00000000000E+00  0.46653731848E+03  0.46653731848E+03  0.00000000000E+00 0. -1.
         -2   -1    0    0    0  501 -0.00000000000E+00 -0.00000000000E+00 -0.31363462170E+02  0.31363462170E+02  0.00000000000E+00 0.  1.
         25    2    1    2    0    0 -0.14630236787E+02  0.51304282916E+02  0.22431976748E+03  0.26232705708E+03  0.12509977426E+03 0.  0.
          5    1    3    3  502    0 -0.44671887800E+02  0.46505290801E+02  0.41170364154E+02  0.76621086632E+02  0.41800000000E+01 0. -1.
         -5    1    3    3    0  502  0.30041651013E+02  0.47989921152E+01  0.18314940332E+03  0.18570597045E+03  0.41800000000E+01 0. -1.
        -11    1    1    2    0    0 -0.28444567084E+02  0.53916003383E+01  0.97538661705E+02  0.10174454913E+03  0.00000000000E+00 0. -1.
         11    1    1    2    0    0  0.43074803871E+02 -0.56695883255E+02  0.11331542712E+03  0.13382917444E+03  0.00000000000E+00 0.  1.
</event>
<event>
 7    1  0.2840156E-009  0.1557179E+03  0.7561462E-02  0.1193618E+00
         -2   -1    0    0    0  501 -0.00000000000E+00  0.00000000000E+00  0.10957648380E+03  0.10957648380E+03  0.00000000000E+00 0.  1.
          2   -1    0    0  501    0  0.00000000000E+00 -0.00000000000E+00 -0.31218780724E+03  0.31218780724E+03  0.00000000000E+00 0. -1.
         25    2    1    2    0    0  0.12971420678E+02 -0.12737396080E+03 -0.19440463373E+03  0.26426007793E+03  0.12509134074E+03 0.  0.
          5    1    3    3  502    0 -0.16352753103E+02  0.12168551607E+02 -0.76226637507E+02  0.79015560796E+02  0.41800000000E+01 0.  1.
         -5    1    3    3    0  502  0.29324173781E+02 -0.13954251241E+03 -0.11817799622E+03  0.18524451713E+03  0.41800000000E+01 0.  1.
        -11    1    1    2    0    0  0.28472130268E+02  0.80612410191E+02  0.21741759395E+02  0.88214097402E+02  0.00000000000E+00 0. -1.
         11    1    1    2    0    0 -0.41443550945E+02  0.46761550608E+02 -0.29948449107E+02  0.69290115703E+02  0.00000000000E+00 0.  1.
</event>
<event>
 7    1  0.2840156E-009  0.1858904E+03  0.7561462E-02  0.1162221E+00
         -1   -1    0    0    0  501 -0.00000000000E+00  0.00000000000E+00  0.75856821083E+02  0.75856821083E+02  0.00000000000E+00 0.  1.
          1   -1    0    0  501    0  0.00000000000E+00 -0.00000000000E+00 -0.49475496302E+03  0.49475496302E+03  0.00000000000E+00 0. -1.
         25    2    1    2    0    0 -0.50178878289E+02 -0.14991971569E+03 -0.18952248767E+03  0.27669358349E+03  0.12508686914E+03 0.  0.
          5    1    3    3  502    0  0.33918231086E+02 -0.41276206582E+02 -0.97577881768E+02  0.11132424282E+03  0.41800000000E+01 0. -1.
         -5    1    3    3    0  502 -0.84097109375E+02 -0.10864350911E+03 -0.91944605901E+02  0.16536934066E+03  0.41800000000E+01 0. -1.
        -11    1    1    2    0    0  0.48123023555E+02  0.22187121926E+02 -0.93117485427E+02  0.10713990791E+03  0.00000000000E+00 0. -1.
         11    1    1    2    0    0  0.20558547335E+01  0.12773259377E+03 -0.13625816884E+03  0.18677829270E+03  0.00000000000E+00 0.  1.
</event>
<event>
 7    1  0.2840156E-009  0.1204446E+03  0.7561462E-02  0.1242365E+00
          1   -1    0    0  501    0  0.00000000000E+00  0.00000000000E+00  0.24527993709E+03  0.24527993709E+03  0.00000000000E+00 0. -1.
         -1   -1    0    0    0  501 -0.00000000000E+00 -0.00000000000E+00 -0.86643195257E+02  0.86643195257E+02  0.00000000000E+00 0.  1.
         25    2    1    2    0    0  0.78221874055E+02 -0.44723212990E+02  0.46372935806E+02  0.16098724447E+03  0.12509043267E+03 0.  0.
          5    1    3    3  502    0  0.33734583888E+02  0.21219284481E+02 -0.30445117601E+02  0.50325518077E+02  0.41800000000E+01 0. -1.
         -5    1    3    3    0  502  0.44487290166E+02 -0.65942497471E+02  0.76818053407E+02  0.11066172639E+03  0.41800000000E+01 0. -1.
        -11    1    1    2    0    0 -0.40684347930E+01 -0.21415520860E+02  0.10844885227E+01  0.21825508258E+02  0.00000000000E+00 0.  1.
         11    1    1    2    0    0 -0.74153439261E+02  0.66138733850E+02  0.11117931751E+03  0.14911037962E+03  0.00000000000E+00 0. -1.
</event>
<event>
 7    1  0.2840156E-009  0.1073940E+03  0.7561462E-02  0.1265473E+00
          1   -1    0    0  501    0  0.00000000000E+00  0.00000000000E+00  0.93993445112E+02  0.93993445112E+02  0.00000000000E+00 0. -1.
         -1   -1    0    0    0  501 -0.00000000000E+00 -0.00000000000E+00 -0.28959451820E+03  0.28959451820E+03  0.00000000000E+00 0.  1.
         25    2    1    2    0    0  0.17632719956E+02  0.31817285306E+02  0.33401706088E+02  0.13448589899E+03  0.12509008994E+03 0.  0.
          5    1    3    3  502    0  0.17731654852E+02 -0.47224574655E+02  0.72970006974E+01  0.51139912537E+02  0.41800000000E+01 0. -1.
         -5    1    3    3    0  502 -0.98934895715E-01  0.79041859961E+02  0.26104705391E+02  0.83345986453E+02  0.41800000000E+01 0. -1.
        -11    1    1    2    0    0  0.15136422726E+02 -0.46653727697E+02 -0.18919594385E+03  0.19545021558E+03  0.00000000000E+00 0.  1.
         11    1    1    2    0    0 -0.32769142682E+02  0.14836442391E+02 -0.39806835333E+02  0.53651848749E+02  0.00000000000E+00 0. -1.
</event>
<event>
 7    1  0.2840156E-009  0.2846212E+03  0.7561462E-02  0.1093191E+00
         -2   -1    0    0    0  501 -0.00000000000E+00  0.00000000000E+00  0.12561791426E+03  0.12561791426E+03  0.00000000000E+00 0.  1.
          2   -1    0    0  501    0  0.00000000000E+00 -0.00000000000E+00 -0.68170485408E+03  0.68170485408E+03  0.00000000000E+00 0. -1.
         25    2    1    2    0    0  0.15505905286E+03 -0.22116588263E+03 -0.33331771125E+03  0.44688403001E+03  0.12508789761E+03 0.  0.
          5    1    3    3  502    0  0.10764162560E+03 -0.21574885874E+03 -0.31230262774E+03  0.39456899688E+03  0.41800000000E+01 0.  1.
         -5    1    3    3    0  502  0.47417427260E+02 -0.54170238948E+01 -0.21015083509E+02  0.52315033124E+02  0.41800000000E+01 0.  1.
        -11    1    1    2    0    0 -0.40133515882E+01  0.56864975299E+02 -0.25026653032E+02  0.62258057862E+02  0.00000000000E+00 0.  1.
         11    1    1    2    0    0 -0.15104570127E+03  0.16430090733E+03 -0.19774257555E+03  0.29818068047E+03  0.00000000000E+00 0. -1.
</event>
<event>
 7    1  0.2840156E-009  0.2390778E+03  0.7561462E-02  0.1120409E+00
          1   -1    0    0  501    0  0.00000000000E+00  0.00000000000E+00  0.34239861582E+03  0.34239861582E+03  0.00000000000E+00 0. -1.
         -1   -1    0    0    0  501 -0.00000000000E+00 -0.00000000000E+00 -0.23114000515E+03  0.23114000515E+03  0.00000000000E+00 0.  1.
         25    2    1    2    0    0 -0.22772554836E+03 -0.70433106405E+02  0.16041010240E+03  0.31336704271E+03  0.12509098551E+03 0.  0.
          5    1    3    3  502    0 -0.19692944816E+03 -0.66250201113E+02  0.72612204369E+02  0.22013700581E+03  0.41800000000E+01 0.  1.
         -5    1    3    3    0  502 -0.30796100192E+02 -0.41829052922E+01  0.87797898027E+02  0.93230036906E+02  0.41800000000E+01 0.  1.
        -11    1    1    2    0    0  0.17393151902E+03  0.46090095805E+02  0.50714455436E+01  0.18000608267E+03  0.00000000000E+00 0. -1.
         11    1    1    2    0    0  0.53794029335E+02  0.24343010600E+02 -0.54222937270E+02  0.80165495591E+02  0.00000000000E+00 0.  1.
</event>
<event>
 7    1  0.2840156E-009  0.1064387E+03  0.7561462E-02  0.1267311E+00
          2   -1    0    0  501    0  0.00000000000E+00  0.00000000000E+00  0.14821704860E+03  0.14821704860E+03  0.00000000000E+00 0.  1.
         -2   -1    0    0    0  501 -0.00000000000E+00 -0.00000000000E+00 -0.91714034677E+02  0.91714034677E+02  0.00000000000E+00 0. -1.
         25    2    1    2    0    0  0.24588652872E+02 -0.18206526967E+02  0.62105693597E+02  0.14297184388E+03  0.12509097285E+03 0.  0.
          5    1    3    3  502    0 -0.13398924651E+02  0.42293138155E+02  0.55402010549E+02  0.71099197532E+02  0.41800000000E+01 0.  1.
         -5    1    3    3    0  502  0.37987577524E+02 -0.60499665122E+02  0.67036830478E+01  0.71872646343E+02  0.41800000000E+01 0.  1.
        -11    1    1    2    0    0 -0.55395323328E+02 -0.84278767351E+01 -0.18598211971E+01  0.56063623569E+02  0.00000000000E+00 0. -1.
         11    1    1    2    0    0  0.30806670455E+02  0.26634403702E+02 -0.37428584724E+01  0.40895615836E+02  0.00000000000E+00 0.  1.
</event>
<event>
 7    1  0.2840156E-009  0.1053518E+03  0.7561462E-02  0.1269428E+00
         -1   -1    0    0    0  501 -0.00000000000E+00  0.00000000000E+00  0.74040098357E+02  0.74040098357E+02  0.00000000000E+00 0.  1.
          1   -1    0    0  501    0  0.00000000000E+00 -0.00000000000E+00 -0.22690288757E+03  0.22690288757E+03  0.00000000000E+00 0. -1.
         25    2    1    2    0    0 -0.61710827496E+02 -0.36005161825E+02 -0.74778789553E+02  0.16232170132E+03  0.12510743161E+03 0.  0.
          5    1    3    3  502    0  0.11864796910E+02 -0.27236063544E+02  0.24245881580E+02  0.38573458967E+02  0.41800000000E+01 0. -1.
         -5    1    3    3    0  502 -0.73575624407E+02 -0.87690982811E+01 -0.99024671133E+02  0.12374824235E+03  0.41800000000E+01 0. -1.
        -11    1    1    2    0    0  0.39548146648E+02  0.61242125728E+02 -0.27529153957E+02  0.77926299697E+02  0.00000000000E+00 0.  1.
         11    1    1    2    0    0  0.22162680848E+02 -0.25236963903E+02 -0.50554845700E+02  0.60694984910E+02  0.00000000000E+00 0. -1.
</event>
<event>
 7    1  0.2840156E-009  0.1141607E+03  0.7561462E-02  0.1253053E+00
         -2   -1    0    0    0  501 -0.00000000000E+00  0.00000000000E+00  0.64310360081E+02  0.64310360081E+02  0.00000000000E+00 0.  1.
          2   -1    0    0  501    0  0.00000000000E+00 -0.00000000000E+00 -0.31872579623E+03  0.31872579623E+03  0.00000000000E+00 0. -1.
         25    2    1    2    0    0  0.73746461940E+01  0.91815022136E+02 -0.11935763000E+03  0.19590325522E+03  0.12508979923E+03 0.  0.
          5    1    3    3  502    0  0.10091533022E+02 -0.20745909523E+02 -0.68283250549E+02  0.72196305350E+02  0.41800000000E+01 0.  1.
         -5    1    3    3    0  502 -0.27168868283E+01  0.11256093166E+03 -0.51074379447E+02  0.12370694987E+03  0.41800000000E+01 0.  1.
        -11    1    1    2    0    0 -0.42963175442E+01 -0.74053541578E+02 -0.14758730193E+03  0.16517989302E+03  0.00000000000E+00 0. -1.
         11    1    1    2    0    0 -0.30783286498E+01 -0.17761480557E+02  0.12529495785E+02  0.21953008073E+02  0.00000000000E+00 0.  1.
</event>
<event>
 7    1  0.2840156E-009  0.1106803E+03  0.7561462E-02  0.1259315E+00
         -2   -1    0    0    0  501 -0.00000000000E+00  0.00000000000E+00  0.26783322497E+02  0.26783322497E+02  0.00000000000E+00 0.  1.
          2   -1    0    0  501    0  0.00000000000E+00 -0.00000000000E+00 -0.47995461738E+03  0.47995461738E+03  0.00000000000E+00 0. -1.
         25    2    1    2    0    0 -0.16205026863E+02  0.26907349611E+02 -0.27890714452E+03  0.30728404586E+03  0.12509069197E+03 0.  0.
          5    1    3    3  502    0 -0.11664123902E+02 -0.49677535556E+02 -0.13009910281E+03  0.13981115219E+03  0.41800000000E+01 0.  1.
         -5    1    3    3    0  502 -0.45409029609E+01  0.76584885166E+02 -0.14880804171E+03  0.16747289367E+03  0.41800000000E+01 0.  1.
        -11    1    1    2    0    0  0.36537511888E+02 -0.50405023258E+02 -0.88246973094E+02  0.10799622403E+03  0.00000000000E+00 0.  1.
         11    1    1    2    0    0 -0.20332485025E+02  0.23497673647E+02 -0.86017177268E+02  0.91457669986E+02  0.00000000000E+00 0. -1.
</event>
<event>
 7    1  0.2840156E-009  0.1048535E+03  0.7561462E-02  0.1270409E+00
         -2   -1    0    0    0  501 -0.00000000000E+00  0.00000000000E+00  0.12974283431E+02  0.12974283431E+02  0.00000000000E+00 0.  1.
          2   -1    0    0  501    0  0.00000000000E+00 -0.00000000000E+00 -0.99685064200E+03  0.99685064200E+03  0.00000000000E+00 0. -1.
         25    2    1    2    0    0  0.30045602168E+02 -0.72842370630E+01 -0.49103359453E+03  0.50765792748E+03  0.12508709788E+03 0.  0.
          5    1    3    3  502    0 -0.40900992109E+02 -0.10212292486E+02 -0.80090262774E+02  0.90604109535E+02  0.41800000000E+01 0.  1.
         -5    1    3    3    0  502  0.70946594276E+02  0.29280554235E+01 -0.41094333176E+03  0.41705381795E+03  0.41800000000E+01 0.  1.
        -11    1    1    2    0    0 -0.62931618977E+02  0.24972784241E+01 -0.31118529434E+03  0.31749474402E+03  0.00000000000E+00 0.  1.
         11    1    1    2    0    0  0.32886016809E+02  0.47869586388E+01 -0.18165746970E+03  0.18467225393E+03  0.00000000000E+00 0. -1.
</event>
<event>
 7    1  0.2840156E-009  0.1040119E+03  0.7561462E-02  0.1272079E+00
         -3   -1    0    0    0  501 -0.00000000000E+00  0.00000000000E+00  0.87328165201E+02  0.87328165201E+02  0.00000000000E+00 0.  1.
          3   -1    0    0  501    0  0.00000000000E+00 -0.00000000000E+00 -0.18541804300E+03  0.18541804300E+03  0.00000000000E+00 0. -1.
         25    2    1    2    0    0  0.44942394880E+02  0.40279418629E+02 -0.24967908810E+02  0.14111473782E+03  0.12509085633E+03 0.  0.
          5    1    3    3  502    0 -0.26743336043E+02 -0.80056192826E+01 -0.44225568693E+02  0.52465886908E+02  0.41800000000E+01 0.  1.
         -5    1    3    3    0  502  0.71685730923E+02  0.48285037911E+02  0.19257659882E+02  0.88648850913E+02  0.41800000000E+01 0.  1.
        -11    1    1    2    0    0 -0.42130145269E+00  0.19068880447E+02  0.88875626623E+01  0.21042539450E+02  0.00000000000E+00 0.  1.
         11    1    1    2    0    0 -0.44521093427E+02 -0.59348299076E+02 -0.82009531655E+02  0.11058893094E+03  0.00000000000E+00 0. -1.
</event>
<event>
 7    1  0.2840156E-009  0.1338129E+03  0.7561462E-02  0.1221905E+00
          1   -1    0    0  501    0  0.00000000000E+00  0.00000000000E+00  0.20807129765E+03  0.20807129765E+03  0.00000000000E+00 0. -1.
         -1   -1    0    0    0  501 -0.00000000000E+00 -0.00000000000E+00 -0.11090828698E+03  0.11090828698E+03  0.00000000000E+00 0.  1.
         25    2    1    2    0    0  0.98557450151E+02  0.14439358668E+02  0.90783839577E+02  0.18388314709E+03  0.12509692320E+03 0.  0.
          5    1    3    3  502    0  0.10295501751E+03 -0.26088694314E+02  0.29764345646E+02  0.11037999942E+03  0.41800000000E+01 0.  1.
         -5    1    3    3    0  502 -0.43975673539E+01  0.40528052983E+02  0.61019493931E+02  0.73503147666E+02  0.41800000000E+01 0.  1.
        -11    1    1    2    0    0 -0.18267833465E+02 -0.33207836785E+02  0.31087924664E+02  0.49019722799E+02  0.00000000000E+00 0. -1.
         11    1    1    2    0    0 -0.80289616687E+02  0.18768478116E+02 -0.24708753568E+02  0.86076714746E+02  0.00000000000E+00 0.  1.
</event>
<event>
 7    1  0.2840156E-009  0.1243756E+03  0.7561462E-02  0.1236048E+00
         -2   -1    0    0    0  501 -0.00000000000E+00  0.00000000000E+00  0.69337680444E+03  0.69337680444E+03  0.00000000000E+00 0.  1.
          2   -1    0    0  501    0  0.00000000000E+00 -0.00000000000E+00 -0.35197292047E+02  0.35197292047E+02  0.00000000000E+00 0. -1.
         25    2    1    2    0    0  0.45950182960E+02  0.67187702309E+02  0.53373848783E+03  0.55421231140E+03  0.12509558770E+03 0.  0.
          5    1    3    3  502    0  0.70005648451E+02  0.18053638986E+02  0.43732785721E+03  0.44328303801E+03  0.41800000000E+01 0.  1.
         -5    1    3    3    0  502 -0.24055465491E+02  0.49134063323E+02  0.96410630622E+02  0.11092927339E+03  0.41800000000E+01 0.  1.
        -11    1    1    2    0    0 -0.15302164388E+02 -0.84766532883E+02  0.96222982589E+02  0.12914481682E+03  0.00000000000E+00 0.  1.
         11    1    1    2    0    0 -0.30648018573E+02  0.17578830574E+02  0.28218041977E+02  0.45216968273E+02  0.00000000000E+00 0. -1.
</event>
<event>
 7    1  0.2840156E-009  0.1399101E+03  0.7561462E-02  0.1213450E+00
          1   -1    0    0  501    0  0.00000000000E+00  0.00000000000E+00  0.67541546343E+03  0.67541546343E+03  0.00000000000E+00 0. -1.
         -1   -1    0    0    0  501 -0.00000000000E+00 -0.00000000000E+00 -0.42130041252E+02  0.42130041252E+02  0.00000000000E+00 0.  1.
         25    2    1    2    0    0 -0.74638883832E+02 -0.73048494827E+02  0.49501535574E+03  0.52114722116E+03  0.12508868104E+03 0.  0.
          5    1    3    3  502    0 -0.10606513443E+03 -0.33872313944E+02  0.31105946434E+03  0.33041278600E+03  0.41800000000E+01 0.  1.
         -5    1    3    3    0  502  0.31426250598E+02 -0.39176180883E+02  0.18395589140E+03  0.19073443516E+03  0.41800000000E+01 0.  1.
        -11    1    1    2    0    0  0.69938399965E+02  0.32392663227E+02  0.33731206573E+02  0.84133576635E+02  0.00000000000E+00 0.  1.
         11    1    1    2    0    0  0.47004838675E+01  0.40655831600E+02  0.10453885986E+03  0.11226470689E+03  0.00000000000E+00 0. -1.
</event>
<event>
 7    1  0.2840156E-009  0.1277722E+03  0.7561462E-02  0.1230799E+00
          2   -1    0    0  501    0  0.00000000000E+00  0.00000000000E+00  0.80203136483E+03  0.80203136483E+03  0.00000000000E+00 0. -1.
         -2   -1    0    0    0  501 -0.00000000000E+00 -0.00000000000E+00 -0.24676732278E+02  0.24676732278E+02  0.00000000000E+00 0.  1.
         25    2    1    2    0    0 -0.79297830921E+02 -0.26710222628E+02  0.53604124166E+03  0.55676635994E+03  0.12508790836E+03 0.  0.
          5    1    3    3  502    0 -0.90725134758E+02  0.15776953147E+02  0.23388953265E+03  0.25139957878E+03  0.41800000000E+01 0.  1.
         -5    1    3    3    0  502  0.11427303837E+02 -0.42487175775E+02  0.30215170900E+03  0.30536678115E+03  0.41800000000E+01 0.  1.
        -11    1    1    2    0    0  0.78120821009E+02 -0.13210260077E+02  0.18127447150E+03  0.19783277703E+03  0.00000000000E+00 0. -1.
         11    1    1    2    0    0  0.11770099112E+01  0.39920482705E+02  0.60038919394E+02  0.72108960149E+02  0.00000000000E+00 0.  1.
</event>
<event>
 7    1  0.2840156E-009  0.1007811E+03  0.7561462E-02  0.1278662E+00
         -2   -1    0    0    0  501 -0.00000000000E+00  0.00000000000E+00  0.70778776811E+02  0.70778776811E+02  0.00000000000E+00 0.  1.
          2   -1    0    0  501    0  0.00000000000E+00 -0.00000000000E+00 -0.20983580060E+03  0.20983580060E+03  0.00000000000E+00 0. -1.
         25    2    1    2    0    0 -0.45180015064E+02  0.17520929819E+02 -0.51419026014E+02  0.14366212672E+03  0.12508666466E+03 0.  0.
          5    1    3    3  502    0  0.25593778451E+01 -0.50608146237E+02 -0.20085307478E+02  0.54668335048E+02  0.41800000000E+01 0. -1.
         -5    1    3    3    0  502 -0.47739392909E+02  0.68129076056E+02 -0.31333718536E+02  0.88993791676E+02  0.41800000000E+01 0. -1.
        -11    1    1    2    0    0  0.27451027486E+02 -0.33668920337E+02 -0.10068173379E+03  0.10965384911E+03  0.00000000000E+00 0. -1.
         11    1    1    2    0    0  0.17728987578E+02  0.16147990517E+02  0.13043736019E+02  0.27298601568E+02  0.00000000000E+00 0.  1.
</event>
<event>
 7    1  0.2840156E-009  0.1169945E+03  0.7561462E-02  0.1248139E+00
          2   -1    0    0  501    0  0.00000000000E+00  0.00000000000E+00  0.72256311072E+03  0.72256311072E+03  0.00000000000E+00 0. -1.
         -2   -1    0    0    0  501 -0.00000000000E+00 -0.00000000000E+00 -0.21663659415E+02  0.21663659415E+02  0.00000000000E+00 0.  1.
         25    2    1    2    0    0 -0.28903039967E+02  0.41824633208E+02  0.29061130283E+03  0.32044853416E+03  0.12509055940E+03 0.  0.
          5    1    3    3  502    0  0.42576291235E+02 -0.50552231407E+01  0.55579007000E+02  0.70319231193E+02  0.41800000000E+01 0.  1.
         -5    1    3    3    0  502 -0.71479331202E+02  0.46879856348E+02  0.23503229583E+03  0.25012930297E+03  0.41800000000E+01 0.  1.
        -11    1    1    2    0    0  0.57976152778E+02 -0.48395607495E+02  0.31557760743E+03  0.32448820537E+03  0.00000000000E+00 0. -1.
         11    1    1    2    0    0 -0.29073112811E+02  0.65709742878E+01  0.94710541047E+02  0.99290030603E+02  0.00000000000E+00 0.  1.
</event>
<event>
 7    1  0.2840156E-009  0.1161023E+03  0.7561462E-02  0.1249669E+00
          2   -1    0    0  501    0  0.00000000000E+00  0.00000000000E+00  0.35335369391E+02  0.35335369391E+02  0.00000000000E+00 0. -1.
         -2   -1    0    0    0  501 -0.00000000000E+00 -0.00000000000E+00 -0.40147245767E+03  0.40147245767E+03  0.00000000000E+00 0.  1.
         25    2    1    2    0    0 -0.40603836607E+02  0.25309892269E+02 -0.16788529165E+03  0.21476122840E+03  0.12509057470E+03 0.  0.
          5    1    3    3  502    0  0.13544687987E+02 -0.43674670717E+02 -0.51973894249E+02  0.69351953962E+02  0.41800000000E+01 0. -1.
         -5    1    3    3    0  502 -0.54148524595E+02  0.68984562986E+02 -0.11591139740E+03  0.14540927444E+03  0.41800000000E+01 0. -1.
        -11    1    1    2    0    0 -0.20010093882E+02  0.15590953004E+02 -0.69421585347E+02  0.73911015315E+02  0.00000000000E+00 0.  1.
         11    1    1    2    0    0  0.60613930489E+02 -0.40900845273E+02 -0.12883021128E+03  0.14813558335E+03  0.00000000000E+00 0. -1.
</event>
<event>
 7    1  0.2840156E-009  0.8620409E+02  0.7561462E-02  0.1312313E+00
         -2   -1    0    0    0  501 -0.00000000000E+00  0.00000000000E+00  0.12995783841E+03  0.12995783841E+03  0.00000000000E+00 0.  1.
          2   -1    0    0  501    0  0.00000000000E+00 -0.00000000000E+00 -0.10983397016E+03  0.10983397016E+03  0.00000000000E+00 0. -1.
         25    2    1    2    0    0  0.24946033694E+02  0.31274573701E+01 -0.32789044076E+02  0.13174961262E+03  0.12510297130E+03 0.  0.
          5    1    3    3  502    0 -0.25794794667E+02 -0.11619883226E+02  0.35319365570E+02  0.45445826017E+02  0.41800000000E+01 0. -1.
         -5    1    3    3    0  502  0.50740828361E+02  0.14747340596E+02 -0.68108409645E+02  0.86303786602E+02  0.41800000000E+01 0. -1.
        -11    1    1    2    0    0  0.21017412711E+02 -0.30699902337E+02  0.78666977652E+01  0.38027629091E+02  0.00000000000E+00 0.  1.
         11    1    1    2    0    0 -0.45963446405E+02  0.27572444967E+02  0.45046214558E+02  0.70014566862E+02  0.00000000000E+00 0. -1.
</event>
<event>
 7    1  0.2840156E-009  0.1208511E+03  0.7561462E-02  0.1241700E+00
          1   -1    0    0  501    0  0.00000000000E+00  0.00000000000E+00  0.47218408606E+03  0.47218408606E+03  0.00000000000E+00 0. -1.
         -1   -1    0    0    0  501 -0.00000000000E+00 -0.00000000000E+00 -0.39633826554E+02  0.39633826554E+02  0.00000000000E+00 0.  1.
         25    2    1    2    0    0 -0.33704730752E+01  0.78369800467E+02  0.29276247308E+03  0.32788751250E+03  0.12508864654E+03 0.  0.
          5    1    3    3  502    0 -0.25184318587E+02 -0.18287099173E+02  0.15494324866E+03  0.15809348692E+03  0.41800000000E+01 0.  1.
         -5    1    3    3    0  502  0.21813845511E+02  0.96656899640E+02  0.13781922442E+03  0.16979402558E+03  0.41800000000E+01 0.  1.
        -11    1    1    2    0    0  0.22212508516E+02 -0.87436155613E+02  0.79942921630E+02  0.12053774331E+03  0.00000000000E+00 0.  1.
         11    1    1    2    0    0 -0.18842035441E+02  0.90663551455E+01  0.59844864798E+02  0.63392656813E+02  0.00000000000E+00 0. -1.
</event>
<event>
 7    1  0.2840156E-009  0.9332657E+02  0.7561462E-02  0.1294990E+00
          1   -1    0    0  501    0  0.00000000000E+00  0.00000000000E+00  0.12564803143E+03  0.12564803143E+03  0.00000000000E+00 0. -1.
         -1   -1    0    0    0  501 -0.00000000000E+00 -0.00000000000E+00 -0.92083655264E+02  0.92083655264E+02  0.00000000000E+00 0.  1.
         25    2    1    2    0    0 -0.14339481555E+02  0.82246501197E+01  0.44614360111E+02  0.13383289913E+03  0.12509012016E+03 0.  0.
          5    1    3    3  502    0 -0.69940405234E+02  0.46916968754E+01  0.27295817044E+02  0.75340602147E+02  0.41800000000E+01 0.  1.
         -5    1    3    3    0  502  0.55600923679E+02  0.35329532443E+01  0.17318543067E+02  0.58492296985E+02  0.41800000000E+01 0.  1.
        -11    1    1    2    0    0 -0.14126105041E+02  0.17295341334E+02 -0.32977033790E+02  0.39826629698E+02  0.00000000000E+00 0.  1.
         11    1    1    2    0    0  0.28465586596E+02 -0.25519991453E+02  0.21927049847E+02  0.44072157867E+02  0.00000000000E+00 0. -1.
</event>
<event>
 7    1  0.2840156E-009  0.1515463E+03  0.7561462E-02  0.1198586E+00
         -2   -1    0    0    0  501 -0.00000000000E+00  0.00000000000E+00  0.80222308225E+02  0.80222308225E+02  0.00000000000E+00 0.  1.
          2   -1    0    0  501    0  0.00000000000E+00 -0.00000000000E+00 -0.40320315203E+03  0.40320315203E+03  0.00000000000E+00 0. -1.
         25    2    1    2    0    0  0.88197199018E+02 -0.96397209779E+02 -0.92289374142E+02  0.20306588780E+03  0.12508900128E+03 0.  0.
          5    1    3    3  502    0  0.10610304405E+03 -0.93740914046E+02 -0.10848904203E+03  0.17841681413E+03  0.41800000000E+01 0. -1.
         -5    1    3    3    0  502 -0.17905845028E+02 -0.26562957337E+01  0.16199667889E+02  0.24649073673E+02  0.41800000000E+01 0. -1.
        -11    1    1    2    0    0 -0.92868233314E+02  0.70605692327E+02 -0.22513580501E+03  0.25356617134E+03  0.00000000000E+00 0. -1.
         11    1    1    2    0    0  0.46710342960E+01  0.25791517452E+02 -0.55556646516E+01  0.26793401121E+02  0.00000000000E+00 0.  1.
</event>
<event>
 7    1  0.2840156E-009  0.6481189E+02  0.7561462E-02  0.1378680E+00
          1   -1    0    0  501    0  0.00000000000E+00  0.00000000000E+00  0.94087901830E+03  0.94087901830E+03  0.00000000000E+00 0. -1.
         -1   -1    0    0    0  501 -0.00000000000E+00 -0.00000000000E+00 -0.13369692445E+02  0.13369692445E+02  0.00000000000E+00 0.  1.
         25    2    1    2    0    0 -0.18482831204E+02 -0.38076362495E+01  0.60725578880E+03  0.62029197920E+03  0.12508570378E+03 0.  0.
          5    1    3    3  502    0 -0.27665256377E+02  0.63319440235E+01  0.60515513860E+03  0.60583469206E+03  0.41800000000E+01 0. -1.
         -5    1    3    3    0  502  0.91824251725E+01 -0.10139580273E+02  0.21006501919E+01  0.14457287138E+02  0.41800000000E+01 0. -1.
        -11    1    1    2    0    0  0.50803961454E+02 -0.94912293354E+01  0.25233238969E+03  0.25757088504E+03  0.00000000000E+00 0.  1.
         11    1    1    2    0    0 -0.32321130249E+02  0.13298865585E+02  0.67921147371E+02  0.76385846507E+02  0.00000000000E+00 0. -1.
</event>
<event>
 7    1  0.2840156E-009  0.8078743E+02  0.7561462E-02  0.1326832E+00
         -1   -1    0    0    0  501 -0.00000000000E+00  0.00000000000E+00  0.35598817255E+03  0.35598817255E+03  0.00000000000E+00 0.  1.
          1   -1    0    0  501    0  0.00000000000E+00 -0.00000000000E+00 -0.36117768401E+02  0.36117768401E+02  0.00000000000E+00 0. -1.
         25    2    1    2    0    0  0.56089264294E+01 -0.33428216801E+02  0.19838348829E+03  0.23695953106E+03  0.12507959546E+03 0.  0.
          5    1    3    3  502    0 -0.16084329322E+02  0.22273194109E+02 -0.19480696163E+01  0.27858000661E+02  0.41800000000E+01 0. -1.
         -5    1    3    3    0  502  0.21693255752E+02 -0.55701410910E+02  0.20033155791E+03  0.20910153040E+03  0.41800000000E+01 0. -1.
        -11    1    1    2    0    0  0.28772142544E+02  0.48992177879E+01  0.40091486569E+01  0.29460342742E+02  0.00000000000E+00 0. -1.
         11    1    1    2    0    0 -0.34381068974E+02  0.28528999013E+02  0.11747776720E+03  0.12568606715E+03  0.00000000000E+00 0.  1.
</event>
<event>
 7    1  0.2840156E-009  0.1069856E+03  0.7561462E-02  0.1266256E+00
         -2   -1    0    0    0  501 -0.00000000000E+00  0.00000000000E+00  0.18561358620E+02  0.18561358620E+02  0.00000000000E+00 0.  1.
          2   -1    0    0  501    0  0.00000000000E+00 -0.00000000000E+00 -0.70827828319E+03  0.70827828319E+03  0.00000000000E+00 0. -1.
         25    2    1    2    0    0 -0.30887314666E+02 -0.97061480719E+01 -0.45045412770E+03  0.46862006554E+03  0.12509040391E+03 0.  0.
          5    1    3    3  502    0 -0.73197356436E+02  0.10314504012E+02 -0.18915803658E+03  0.20313167450E+03  0.41800000000E+01 0.  1.
         -5    1    3    3    0  502  0.42310041770E+02 -0.20020652084E+02 -0.26129609112E+03  0.26548839104E+03  0.41800000000E+01 0.  1.
        -11    1    1    2    0    0  0.49814252102E+02  0.35338300044E+02 -0.18977916866E+03  0.19936496187E+03  0.00000000000E+00 0. -1.
         11    1    1    2    0    0 -0.18926937436E+02 -0.25632151972E+02 -0.49483628210E+02  0.58854614401E+02  0.00000000000E+00 0.  1.
</event>
<event>
 7    1  0.2840156E-009  0.6899667E+02  0.7561462E-02  0.1363539E+00
          2   -1    0    0  501    0  0.00000000000E+00  0.00000000000E+00  0.13378110905E+03  0.13378110905E+03  0.00000000000E+00 0. -1.
         -2   -1    0    0    0  501 -0.00000000000E+00 -0.00000000000E+00 -0.99559031955E+02  0.99559031955E+02  0.00000000000E+00 0.  1.
         25    2    1    2    0    0  0.12809638697E+02 -0.35942810962E+02  0.27019253977E+02  0.13353622023E+03  0.12508361014E+03 0.  0.
          5    1    3    3  502    0  0.16441381787E+02 -0.64346955028E+02 -0.27348594682E+02  0.71946283347E+02  0.41800000000E+01 0.  1.
         -5    1    3    3    0  502 -0.36317430896E+01  0.28404144065E+02  0.54367848659E+02  0.61589936887E+02  0.41800000000E+01 0.  1.
        -11    1    1    2    0    0  0.44011595340E+01  0.13671067205E+02 -0.41299868669E+02  0.43725821157E+02  0.00000000000E+00 0.  1.
         11    1    1    2    0    0 -0.17210798231E+02  0.22271743758E+02  0.48502691791E+02  0.56078099617E+02  0.00000000000E+00 0. -1.
</event>
<event>
 7    1  0.2840156E-009  0.8356043E+02  0.7561462E-02  0.1319241E+00
         -1   -1    0    0    0  501 -0.00000000000E+00  0.00000000000E+00  0.21029136026E+03  0.21029136026E+03  0.00000000000E+00 0.  1.
          1   -1    0    0  501    0  0.00000000000E+00 -0.00000000000E+00 -0.56800082015E+02  0.56800082015E+02  0.00000000000E+00 0. -1.
         25    2    1    2    0    0  0.41759744407E+01 -0.55087307669E+01  0.11066752439E+03  0.16716259417E+03  0.12509295367E+03 0.  0.
          5    1    3    3  502    0  0.13830764168E+02 -0.44539079792E+02  0.11720663424E+03  0.12621365685E+03  0.41800000000E+01 0. -1.
         -5    1    3    3    0  502 -0.96547897278E+01  0.39030349025E+02 -0.65391098520E+01  0.40948937317E+02  0.41800000000E+01 0. -1.
        -11    1    1    2    0    0  0.90057663688E+00 -0.37025896521E+02 -0.30527679995E+01  0.37162446689E+02  0.00000000000E+00 0.  1.
         11    1    1    2    0    0 -0.50765510775E+01  0.42534627288E+02  0.45876521858E+02  0.62766401419E+02  0.00000000000E+00 0. -1.
</event>
<event>
 7    1  0.2840156E-009  0.1927491E+03  0.7561462E-02  0.1156005E+00
          1   -1    0    0  501    0  0.00000000000E+00  0.00000000000E+00  0.44629387629E+03  0.44629387629E+03  0.00000000000E+00 0. -1.
         -1   -1    0    0    0  501 -0.00000000000E+00 -0.00000000000E+00 -0.13897293371E+03  0.13897293371E+03  0.00000000000E+00 0.  1.
         25    2    1    2    0    0  0.14309986145E+03  0.12306156132E+03  0.29921341188E+03  0.37523035012E+03  0.12508969417E+03 0.  0.
          5    1    3    3  502    0  0.58291038204E+02  0.85603604456E+02  0.62648288866E+02  0.12111194296E+03  0.41800000000E+01 0. -1.
         -5    1    3    3    0  502  0.84808823244E+02  0.37457956864E+02  0.23656512301E+03  0.25411840716E+03  0.41800000000E+01 0. -1.
        -11    1    1    2    0    0 -0.77137693695E+02 -0.73350720211E+02 -0.40857367544E+02  0.11401700060E+03  0.00000000000E+00 0.  1.
         11    1    1    2    0    0 -0.65962167753E+02 -0.49710841109E+02  0.48964898255E+02  0.96019459276E+02  0.00000000000E+00 0. -1.
</event>
<event>
 7    1  0.2840156E-009  0.1705745E+03  0.7561462E-02  0.1177250E+00
         -2   -1    0    0    0  501 -0.00000000000E+00  0.00000000000E+00  0.63253247252E+02  0.63253247252E+02  0.00000000000E+00 0.  1.
          2   -1    0    0  501    0  0.00000000000E+00 -0.00000000000E+00 -0.50937844267E+03  0.50937844267E+03  0.00000000000E+00 0. -1.
         25    2    1    2    0    0  0.13409976294E+03 -0.44143047798E+02 -0.26458663071E+03  0.32493892574E+03  0.12509142747E+03 0.  0.
          5    1    3    3  502    0  0.15487797465E+03 -0.52504440703E+02 -0.21321624864E+03  0.26874252438E+03  0.41800000000E+01 0. -1.
         -5    1    3    3    0  502 -0.20778211708E+02  0.83613929047E+01 -0.51370382064E+02  0.56196401366E+02  0.41800000000E+01 0. -1.
        -11    1    1    2    0    0 -0.17846607312E+02 -0.15927074476E+02 -0.14545354716E-01  0.23920144345E+02  0.00000000000E+00 0.  1.
         11    1    1    2    0    0 -0.11625315563E+03  0.60070122274E+02 -0.18152401936E+03  0.22377261984E+03  0.00000000000E+00 0. -1.
</event>
<event>
 7    1  0.2840156E-009  0.1338954E+03  0.7561462E-02  0.1221788E+00
          2   -1    0    0  501    0  0.00000000000E+00  0.00000000000E+00  0.23997216934E+03  0.23997216934E+03  0.00000000000E+00 0. -1.
         -2   -1    0    0    0  501 -0.00000000000E+00 -0.00000000000E+00 -0.12751141072E+03  0.12751141072E+03  0.00000000000E+00 0.  1.
         25    2    1    2    0    0  0.74335742851E+01  0.93878491112E+02  0.16247187271E+03  0.22564045372E+03  0.12509226919E+03 0.  0.
          5    1    3    3  502    0 -0.18765424074E+02 -0.26668035001E+02  0.39742597988E+02  0.51577822039E+02  0.41800000000E+01 0. -1.
         -5    1    3    3    0  502  0.26198998359E+02  0.12054652611E+03  0.12272927472E+03  0.17406263168E+03  0.41800000000E+01 0. -1.
        -11    1    1    2    0    0 -0.30928647985E+02 -0.28674471915E+02 -0.58391559928E+02  0.72030416330E+02  0.00000000000E+00 0.  1.
         11    1    1    2    0    0  0.23495073700E+02 -0.65204019197E+02  0.83804458344E+01  0.69812710018E+02  0.00000000000E+00 0. -1.
</event>
<event>
 7    1  0.2840156E-009  0.1186785E+03  0.7561462E-02  0.1245293E+00
          3   -1    0    0  501    0  0.00000000000E+00  0.00000000000E+00  0.36121804994E+02  0.36121804994E+02  0.00000000000E+00 0. -1.
         -3   -1    0    0    0  501 -0.00000000000E+00 -0.00000000000E+00 -0.42613895437E+03  0.42613895437E+03  0.00000000000E+00 0.  1.
         25    2    1    2    0    0  0.26891164295E+02  0.49204917933E+02 -0.24294615036E+03  0.27895140782E+03  0.12508715874E+03 0.  0.
          5    1    3    3  502    0  0.38333922452E+01 -0.39463205341E+02 -0.41170508701E+02  0.57310755174E+02  0.41800000000E+01 0.  1.
         -5    1    3    3    0  502  0.23057772050E+02  0.88668123274E+02 -0.20177564166E+03  0.22164065265E+03  0.41800000000E+01 0.  1.
        -11    1    1    2    0    0 -0.55782597959E+02 -0.93657174484E+01 -0.10171080473E+03  0.11638085194E+03  0.00000000000E+00 0.  1.
         11    1    1    2    0    0  0.28891433664E+02 -0.39839200485E+02 -0.45360194280E+02  0.66928499606E+02  0.00000000000E+00 0. -1.
</event>
<event>
 7    1  0.2840156E-009  0.1177977E+03  0.7561462E-02  0.1246775E+00
          2   -1    0    0  501    0  0.00000000000E+00  0.00000000000E+00  0.28271083163E+03  0.28271083163E+03  0.00000000000E+00 0. -1.
         -2   -1    0    0    0  501 -0.00000000000E+00 -0.00000000000E+00 -0.62261759029E+02  0.62261759029E+02  0.00000000000E+00 0.  1.
         25    2    1    2    0    0  0.79822363929E+02 -0.14600495149E+02  0.11318656823E+03  0.18721097442E+03  0.12510781541E+03 0.  0.
          5    1    3    3  502    0  0.17270424117E+02  0.51691088865E+02  0.24255039606E+02  0.59799795682E+02  0.41800000000E+01 0.  1.
         -5    1    3    3    0  502  0.62551939812E+02 -0.66291584014E+02  0.88931528620E+02  0.12741117874E+03  0.41800000000E+01 0.  1.
        -11    1    1    2    0    0 -0.54890032764E+02  0.27751964832E+02  0.11331421302E+03  0.12893098201E+03  0.00000000000E+00 0. -1.
         11    1    1    2    0    0 -0.24932331165E+02 -0.13151469683E+02 -0.60517086514E+01  0.28830634224E+02  0.00000000000E+00 0.  1.
</event>
<event>
 7    1  0.2840156E-009  0.7906994E+02  0.7561462E-02  0.1331712E+00
          1   -1    0    0  501    0  0.00000000000E+00  0.00000000000E+00  0.38989985375E+02  0.38989985375E+02  0.00000000000E+00 0. -1.
         -1   -1    0    0    0  501 -0.00000000000E+00 -0.00000000000E+00 -0.10292184764E+04  0.10292184764E+04  0.00000000000E+00 0.  1.
         25    2    1    2    0    0 -0.93081460558E+01  0.41121739095E+02 -0.95147747164E+03  0.96059103913E+03  0.12509247140E+03 0.  0.
          5    1    3    3  502    0  0.17252579429E+02  0.66730767160E+02 -0.29138693458E+03  0.29945694987E+03  0.41800000000E+01 0.  1.
         -5    1    3    3    0  502 -0.26560725485E+02 -0.25609028065E+02 -0.66009053706E+03  0.66113408925E+03  0.41800000000E+01 0.  1.
        -11    1    1    2    0    0  0.19293410735E+02 -0.16498608443E+02  0.26782733205E+02  0.36901958976E+02  0.00000000000E+00 0. -1.
         11    1    1    2    0    0 -0.99852646792E+01 -0.24623130652E+02 -0.65533752567E+02  0.70715463651E+02  0.00000000000E+00 0.  1.
</event>
<event>
 7    1  0.2840156E-009  0.9475341E+02  0.7561462E-02  0.1291732E+00
         -1   -1    0    0    0  501 -0.00000000000E+00  0.00000000000E+00  0.32066356195E+02  0.32066356195E+02  0.00000000000E+00 0.  1.
          1   -1    0    0  501    0  0.00000000000E+00 -0.00000000000E+00 -0.38358417189E+03  0.38358417189E+03  0.00000000000E+00 0. -1.
         25    2    1    2    0    0  0.83486959114E+01 -0.47263282027E+01 -0.24142677605E+03  0.27207759708E+03  0.12508913516E+03 0.  0.
          5    1    3    3  502    0  0.35630472513E+02  0.42009455550E+02 -0.55171366752E+02  0.78074816915E+02  0.41800000000E+01 0. -1.
         -5    1    3    3    0  502 -0.27281776601E+02 -0.46735783753E+02 -0.18625540930E+03  0.19400278016E+03  0.41800000000E+01 0. -1.
        -11    1    1    2    0    0 -0.31426237291E+02 -0.26534659663E+02 -0.20579393564E+02  0.45991390425E+02  0.00000000000E+00 0. -1.
         11    1    1    2    0    0  0.23077541380E+02  0.31260987866E+02 -0.89511646082E+02  0.97581540584E+02  0.00000000000E+00 0.  1.
</event>
<event>
 7    1  0.2840156E-009  0.1111584E+03  0.7561462E-02  0.1258440E+00
         -1   -1    0    0    0  501 -0.00000000000E+00  0.00000000000E+00  0.24048722719E+03  0.24048722719E+03  0.00000000000E+00 0.  1.
          1   -1    0    0  501    0  0.00000000000E+00 -0.00000000000E+00 -0.75275208824E+02  0.75275208824E+02  0.00000000000E+00 0. -1.
         25    2    1    2    0    0 -0.75581422583E+02  0.20707966949E+02  0.67820622938E+02  0.16244652723E+03  0.12509143048E+03 0.  0.
          5    1    3    3  502    0 -0.37261013322E+02 -0.25059741319E+02  0.88341814867E+02  0.99187309686E+02  0.41800000000E+01 0.  1.
         -5    1    3    3    0  502 -0.38320409261E+02  0.45767708268E+02 -0.20521191929E+02  0.63259217544E+02  0.41800000000E+01 0.  1.
        -11    1    1    2    0    0 -0.20831125816E+01  0.26442000096E+02  0.30933000591E+02  0.40747628798E+02  0.00000000000E+00 0.  1.
         11    1    1    2    0    0  0.77664535165E+02 -0.47149967044E+02  0.66458394833E+02  0.11256827998E+03  0.00000000000E+00 0. -1.
</event>
<event>
 7    1  0.2840156E-009  0.3665499E+03  0.7561462E-02  0.1056020E+00
         -1   -1    0    0    0  501 -0.00000000000E+00  0.00000000000E+00  0.16903402657E+03  0.16903402657E+03  0.00000000000E+00 0.  1.
          1   -1    0    0  501    0  0.00000000000E+00 -0.00000000000E+00 -0.89433074487E+03  0.89433074487E+03  0.00000000000E+00 0. -1.
         25    2    1    2    0    0  0.30915961886E+03 -0.18027331599E+03 -0.51142589326E+03  0.63661679677E+03  0.12508542374E+03 0.  0.
          5    1    3    3  502    0  0.29929074881E+03 -0.19374430285E+03 -0.45762635703E+03  0.58013029766E+03  0.41800000000E+01 0. -1.
         -5    1    3    3    0  502  0.98688700479E+01  0.13470986855E+02 -0.53799536232E+02  0.56486499109E+02  0.41800000000E+01 0. -1.
        -11    1    1    2    0    0 -0.62444415746E+02  0.21962171317E+02 -0.81807355214E+02  0.10523348038E+03  0.00000000000E+00 0.  1.
         11    1    1    2    0    0 -0.24671520311E+03  0.15831114468E+03 -0.13206346983E+03  0.32151449429E+03  0.00000000000E+00 0. -1.
</event>
<event>
 7    1  0.2840156E-009  0.1136275E+03  0.7561462E-02  0.1253996E+00
          1   -1    0    0  501    0  0.00000000000E+00  0.00000000000E+00  0.59476966792E+02  0.59476966792E+02  0.00000000000E+00 0. -1.
         -1   -1    0    0    0  501 -0.00000000000E+00 -0.00000000000E+00 -0.37495742440E+03  0.37495742440E+03  0.00000000000E+00 0.  1.
         25    2    1    2    0    0  0.93025527469E+02  0.40049261740E+02 -0.13455267331E+03  0.20978172578E+03  0.12508500489E+03 0.  0.
          5    1    3    3  502    0  0.98945246504E+02  0.15327262252E+02 -0.14951292175E+03  0.17999075794E+03  0.41800000000E+01 0. -1.
         -5    1    3    3    0  502 -0.59197190349E+01  0.24721999487E+02  0.14960248431E+02  0.29790967846E+02  0.41800000000E+01 0. -1.
        -11    1    1    2    0    0 -0.28228219629E+02 -0.12166766947E+02 -0.13949829017E+03  0.14284479536E+03  0.00000000000E+00 0.  1.
         11    1    1    2    0    0 -0.64797307840E+02 -0.27882494792E+02 -0.41429494131E+02  0.81807870056E+02  0.00000000000E+00 0. -1.
</event>
<event>
 7    1  0.2840156E-009  0.7387491E+02  0.7561462E-02  0.1347391E+00
         -1   -1    0    0    0  501 -0.00000000000E+00  0.00000000000E+00  0.64163329504E+02  0.64163329504E+02  0.00000000000E+00 0.  1.
          1   -1    0    0  501    0  0.00000000000E+00 -0.00000000000E+00 -0.31357820833E+03  0.31357820833E+03  0.00000000000E+00 0. -1.
         25    2    1    2    0    0 -0.36982876086E+01 -0.56504273634E+02 -0.41354798074E+02  0.14340116763E+03  0.12508902944E+03 0.  0.
          5    1    3    3  502    0 -0.65661268060E+01 -0.31486935583E+02  0.43800580687E+02  0.54502333915E+02  0.41800000000E+01 0.  1.
         -5    1    3    3    0  502  0.28678391973E+01 -0.25017338051E+02 -0.85155378761E+02  0.88898833720E+02  0.41800000000E+01 0.  1.
        -11    1    1    2    0    0  0.27641752117E+02  0.59550264624E+02 -0.19725861540E+03  0.20789723862E+03  0.00000000000E+00 0. -1.
         11    1    1    2    0    0 -0.23943464508E+02 -0.30459909898E+01 -0.10801465347E+02  0.26443131573E+02  0.00000000000E+00 0.  1.
</event>
<event>
 7    1  0.2840156E-009  0.9750124E+02  0.7561462E-02  0.1285640E+00
         -1   -1    0    0    0  501 -0.00000000000E+00  0.00000000000E+00  0.15654831647E+03  0.15654831647E+03  0.00000000000E+00 0.  1.
          1   -1    0    0  501    0  0.00000000000E+00 -0.00000000000E+00 -0.11141639598E+03  0.11141639598E+03  0.00000000000E+00 0. -1.
         25    2    1    2    0    0  0.98762813628E+01 -0.18876341362E+02  0.99169095860E+02  0.16104634147E+03  0.12509019679E+03 0.  0.
          5    1    3    3  502    0 -0.19714501791E+02  0.40379629830E+02  0.43899977529E+01  0.45342260269E+02  0.41800000000E+01 0. -1.
         -5    1    3    3    0  502  0.29590783153E+02 -0.59255971192E+02  0.94779098107E+02  0.11570408121E+03  0.41800000000E+01 0. -1.
        -11    1    1    2    0    0  0.35692450166E+02  0.10191202286E+02 -0.47170499081E+02  0.60023891797E+02  0.00000000000E+00 0. -1.
         11    1    1    2    0    0 -0.45568731529E+02  0.86851390768E+01 -0.68666762916E+01  0.46894479176E+02  0.00000000000E+00 0.  1.
</event>
<event>
 7    1  0.2840156E-009  0.1482142E+03  0.7561462E-02  0.1202685E+00
          2   -1    0    0  501    0  0.00000000000E+00  0.00000000000E+00  0.98639447622E+03  0.98639447622E+03  0.00000000000E+00 0. -1.
         -2   -1    0    0    0  501 -0.00000000000E+00 -0.00000000000E+00 -0.33869024610E+02  0.33869024610E+02  0.00000000000E+00 0.  1.
         25    2    1    2    0    0 -0.40002305184E+02 -0.11303006723E+03  0.76925527930E+03  0.78852854346E+03  0.12509036179E+03 0.  0.
          5    1    3    3  502    0  0.37569519093E+02 -0.65735074247E+02  0.24579388145E+03  0.25722494691E+03  0.41800000000E+01 0. -1.
         -5    1    3    3    0  502 -0.77571824277E+02 -0.47294992981E+02  0.52346139784E+03  0.53130359656E+03  0.41800000000E+01 0. -1.
        -11    1    1    2    0    0  0.50674326206E+02  0.77868607636E+02  0.81686633811E+02  0.12370979563E+03  0.00000000000E+00 0.  1.
         11    1    1    2    0    0 -0.10672021023E+02  0.35161459591E+02  0.10158353851E+03  0.10802516174E+03  0.00000000000E+00 0. -1.
</event>
<event>
 7    1  0.2840156E-009  0.9918466E+02  0.7561462E-02  0.1282020E+00
          2   -1    0    0  501    0  0.00000000000E+00  0.00000000000E+00  0.13031043692E+03  0.13031043692E+03  0.00000000000E+00 0. -1.
         -2   -1    0    0    0  501 -0.00000000000E+00 -0.00000000000E+00 -0.10901145929E+03  0.10901145929E+03  0.00000000000E+00 0.  1.
         25    2    1    2    0    0 -0.15116678529E+02 -0.18735043956E+02  0.54547418877E+02  0.13857601278E+03  0.12509346334E+03 0.  0.
          5    1    3    3  502    0 -0.44014783321E+02  0.26187072567E+02  0.66142707035E+02  0.83757948963E+02  0.41800000000E+01 0. -1.
         -5    1    3    3    0  502  0.28898104792E+02 -0.44922116523E+02 -0.11595288159E+02  0.54818063820E+02  0.41800000000E+01 0. -1.
        -11    1    1    2    0    0 -0.30184624839E+02  0.34127158873E+02 -0.67642225037E+01  0.46060061393E+02  0.00000000000E+00 0.  1.
         11    1    1    2    0    0  0.45301303368E+02 -0.15392114917E+02 -0.26484218741E+02  0.54685822027E+02  0.00000000000E+00 0. -1.
</event>
<event>
 7    1  0.2840156E-009  0.2125590E+03  0.7561462E-02  0.1139555E+00
          1   -1    0    0  501    0  0.00000000000E+00  0.00000000000E+00  0.67740375940E+03  0.67740375940E+03  0.00000000000E+00 0. -1.
         -1   -1    0    0    0  501 -0.00000000000E+00 -0.00000000000E+00 -0.71668065731E+02  0.71668065731E+02  0.00000000000E+00 0.  1.
         25    2    1    2    0    0 -0.17180380492E+03  0.73939924968E+02  0.24023777149E+03  0.32915890093E+03  0.12509090823E+03 0.  0.
          5    1    3    3  502    0 -0.30648777709E+02  0.72369510189E+02  0.54074395646E+02  0.95489299110E+02  0.41800000000E+01 0. -1.
         -5    1    3    3    0  502 -0.14115502721E+03  0.15704147790E+01  0.18616337584E+03  0.23366960182E+03  0.41800000000E+01 0. -1.
        -11    1    1    2    0    0  0.12460279746E+03 -0.90265999256E+01  0.19694486209E+03  0.23322653225E+03  0.00000000000E+00 0.  1.
         11    1    1    2    0    0  0.47201007461E+02 -0.64913325042E+02  0.16855306009E+03  0.18668639195E+03  0.00000000000E+00 0. -1.
</event>
<event>
 7    1  0.2840156E-009  0.9418939E+02  0.7561462E-02  0.1293012E+00
         -2   -1    0    0    0  501 -0.00000000000E+00  0.00000000000E+00  0.11387235634E+03  0.11387235634E+03  0.00000000000E+00 0.  1.
          2   -1    0    0  501    0  0.00000000000E+00 -0.00000000000E+00 -0.14438686705E+03  0.14438686705E+03  0.00000000000E+00 0. -1.
         25    2    1    2    0    0 -0.22976670606E+02 -0.21380717228E+02 -0.78204465904E+02  0.15082523669E+03  0.12508897263E+03 0.  0.
          5    1    3    3  502    0 -0.33771028349E+02 -0.51570452354E+02  0.45755837912E+01  0.61954840640E+02  0.41800000000E+01 0. -1.
         -5    1    3    3    0  502  0.10794357743E+02  0.30189735125E+02 -0.82780049695E+02  0.88870396047E+02  0.41800000000E+01 0. -1.
        -11    1    1    2    0    0  0.52041092562E+02  0.34431412649E+02  0.20899491646E+02  0.65807189905E+02  0.00000000000E+00 0. -1.
         11    1    1    2    0    0 -0.29064421956E+02 -0.13050695421E+02  0.26790463551E+02  0.41626796801E+02  0.00000000000E+00 0.  1.
</event>
<event>
 7    1  0.2840156E-009  0.9474442E+02  0.7561462E-02  0.1291753E+00
         -4   -1    0    0    0  501 -0.00000000000E+00  0.00000000000E+00  0.93645103384E+02  0.93645103384E+02  0.00000000000E+00 0.  1.
          4   -1    0    0  501    0  0.00000000000E+00 -0.00000000000E+00 -0.15484305400E+03  0.15484305400E+03  0.00000000000E+00 0. -1.
         25    2    1    2    0    0 -0.30870199390E+02 -0.30953438194E+02 -0.61176015545E+02  0.14595493759E+03  0.12509697991E+03 0.  0.
          5    1    3    3  502    0  0.21355636519E+02  0.20109593882E+02  0.20707657890E+02  0.36148837775E+02  0.41800000000E+01 0. -1.
         -5    1    3    3    0  502 -0.52225835908E+02 -0.51063032075E+02 -0.81883673435E+02  0.10980609981E+03  0.41800000000E+01 0. -1.
        -11    1    1    2    0    0  0.41589996264E+02 -0.11307071316E+02  0.27358560309E+02  0.51049666729E+02  0.00000000000E+00 0.  1.
         11    1    1    2    0    0 -0.10719796874E+02  0.42260509509E+02 -0.27380495380E+02  0.51483553066E+02  0.00000000000E+00 0. -1.
</event>
<event>
 7    1  0.2840156E-009  0.2154652E+03  0.7561462E-02  0.1137310E+00
          2   -1    0    0  501    0  0.00000000000E+00  0.00000000000E+00  0.51849691283E+03  0.51849691283E+03  0.00000000000E+00 0. -1.
         -2   -1    0    0    0  501 -0.00000000000E+00 -0.00000000000E+00 -0.95651716083E+02  0.95651716083E+02  0.00000000000E+00 0.  1.
         25    2    1    2    0    0  0.67385145915E+02 -0.17492797010E+03  0.14838165489E+03  0.26982416797E+03  0.12508962187E+03 0.  0.
          5    1    3    3  502    0  0.72241386564E+02 -0.19219647890E+03  0.12641241481E+03  0.24115529323E+03  0.41800000000E+01 0.  1.
         -5    1    3    3    0  502 -0.48562406489E+01  0.17268508796E+02  0.21969240079E+02  0.28668874742E+02  0.41800000000E+01 0.  1.
        -11    1    1    2    0    0 -0.68972918197E+02  0.57755679097E+02  0.10463601536E+03  0.13799158533E+03  0.00000000000E+00 0.  1.
         11    1    1    2    0    0  0.15877722817E+01  0.11717229101E+03  0.16982752650E+03  0.20633287561E+03  0.00000000000E+00 0. -1.
</event>
<event>
 7    1  0.2840156E-009  0.1096558E+03  0.7561462E-02  0.1261209E+00
          2   -1    0    0  501    0  0.00000000000E+00  0.00000000000E+00  0.90212945139E+03  0.90212945139E+03  0.00000000000E+00 0. -1.
         -2   -1    0    0    0  501 -0.00000000000E+00 -0.00000000000E+00 -0.20880992673E+02  0.20880992673E+02  0.00000000000E+00 0.  1.
         25    2    1    2    0    0 -0.50729274873E+00 -0.82908097837E+02  0.37054692437E+03  0.39978363578E+03  0.12509165538E+03 0.  0.
          5    1    3    3  502    0 -0.17663881723E+02  0.24910501092E+01  0.25174511260E+03  0.25241095889E+03  0.41800000000E+01 0. -1.
         -5    1    3    3    0  502  0.17156588974E+02 -0.85399147946E+02  0.11880181177E+03  0.14737267689E+03  0.41800000000E+01 0. -1.
        -11    1    1    2    0    0 -0.35418432165E+02  0.18318075387E+02  0.18306795901E+03  0.18736033422E+03  0.00000000000E+00 0.  1.
         11    1    1    2    0    0  0.35925724914E+02  0.64590022450E+02  0.32763357534E+03  0.33586647407E+03  0.00000000000E+00 0. -1.
</event>
<event>
 7    1  0.2840156E-009  0.1063359E+03  0.7561462E-02  0.1267510E+00
          1   -1    0    0  501    0  0.00000000000E+00  0.00000000000E+00  0.11611738591E+04  0.11611738591E+04  0.00000000000E+00 0. -1.
         -1   -1    0    0    0  501 -0.00000000000E+00 -0.00000000000E+00 -0.10807500574E+02  0.10807500574E+02  0.00000000000E+00 0.  1.
         25    2    1    2    0    0 -0.42877091306E+02 -0.22659518351E+02  0.84077669255E+03  0.85141336054E+03  0.12508942812E+03 0.  0.
          5    1    3    3  502    0  0.40607483881E+02  0.12187883385E+02  0.22285542929E+03  0.22689100250E+03  0.41800000000E+01 0.  1.
         -5    1    3    3    0  502 -0.83484575186E+02 -0.34847401735E+02  0.61792126326E+03  0.62452235804E+03  0.41800000000E+01 0.  1.
        -11    1    1    2    0    0  0.24870857268E+00  0.35099781702E+02  0.18501703203E+03  0.18831717572E+03  0.00000000000E+00 0. -1.
         11    1    1    2    0    0  0.42628382733E+02 -0.12440263351E+02  0.12457263398E+03  0.13225082345E+03  0.00000000000E+00 0.  1.
</event>
<event>
 7    1  0.2840156E-009  0.9656176E+02  0.7561462E-02  0.1287697E+00
          1   -1    0    0  501    0  0.00000000000E+00  0.00000000000E+00  0.16400926192E+03  0.16400926192E+03  0.00000000000E+00 0. -1.
         -1   -1    0    0    0  501 -0.00000000000E+00 -0.00000000000E+00 -0.90428422988E+02  0.90428422988E+02  0.00000000000E+00 0.  1.
         25    2    1    2    0    0 -0.46005278789E+02 -0.32952854095E+02  0.35201186287E+02  0.14173947789E+03  0.12509428367E+03 0.  0.
          5    1    3    3  502    0  0.18232476490E+01  0.28749914230E+02 -0.28615782514E+02  0.40819323967E+02  0.41800000000E+01 0. -1.
         -5    1    3    3    0  502 -0.47828526438E+02 -0.61702768324E+02  0.63816968801E+02  0.10092015392E+03  0.41800000000E+01 0. -1.
        -11    1    1    2    0    0  0.78537784413E+01 -0.19471678060E+02 -0.17322608283E+02  0.27219493750E+02  0.00000000000E+00 0.  1.
         11    1    1    2    0    0  0.38151500347E+02  0.52424532154E+02  0.55702260932E+02  0.85478713276E+02  0.00000000000E+00 0. -1.
</event>
<event>
 7    1  0.2840156E-009  0.9246654E+02  0.7561462E-02  0.1296986E+00
          4   -1    0    0  501    0  0.00000000000E+00  0.00000000000E+00  0.31691397541E+02  0.31691397541E+02  0.00000000000E+00 0. -1.
         -4   -1    0    0    0  501 -0.00000000000E+00 -0.00000000000E+00 -0.48878763490E+03  0.48878763490E+03  0.00000000000E+00 0.  1.
         25    2    1    2    0    0 -0.24089123850E+02 -0.11861993117E+00 -0.37358413335E+03  0.39470727252E+03  0.12509367022E+03 0.  0.
          5    1    3    3  502    0 -0.51032412322E+02 -0.47914046374E+02 -0.17194558777E+03  0.18569550479E+03  0.41800000000E+01 0.  1.
         -5    1    3    3    0  502  0.26943288472E+02  0.47795426443E+02 -0.20163854559E+03  0.20901176773E+03  0.41800000000E+01 0.  1.
        -11    1    1    2    0    0 -0.51452377678E+01 -0.22335181041E+02  0.10187283963E+02  0.25082155776E+02  0.00000000000E+00 0. -1.
         11    1    1    2    0    0  0.29234361618E+02  0.22453800972E+02 -0.93699387970E+02  0.10068960415E+03  0.00000000000E+00 0.  1.
</event>
<event>
 7    1  0.2840156E-009  0.8246173E+02  0.7561462E-02  0.1322207E+00
          1   -1    0    0  501    0  0.00000000000E+00  0.00000000000E+00  0.25111576809E+03  0.25111576809E+03  0.00000000000E+00 0. -1.
         -1   -1    0    0    0  501 -0.00000000000E+00 -0.00000000000E+00 -0.69140297642E+02  0.69140297642E+02  0.00000000000E+00 0.  1.
         25    2    1    2    0    0 -0.39846874415E+02 -0.14375597968E+02  0.17554901730E+03  0.21967511739E+03  0.12508104775E+03 0.  0.
          5    1    3    3  502    0  0.17161814398E+02 -0.34959492945E+01  0.15782343148E+03  0.15884727715E+03  0.41800000000E+01 0.  1.
         -5    1    3    3    0  502 -0.57008688813E+02 -0.10879648674E+02  0.17725585826E+02  0.60827840241E+02  0.41800000000E+01 0.  1.
        -11    1    1    2    0    0  0.35146398485E+02 -0.28713739720E+02 -0.20236689865E+02  0.49691767848E+02  0.00000000000E+00 0.  1.
         11    1    1    2    0    0  0.47004759299E+01  0.43089337688E+02  0.26663143015E+02  0.50889180498E+02  0.00000000000E+00 0. -1.
</event>
<event>
 7    1  0.2840156E-009  0.9950053E+02  0.7561462E-02  0.1281350E+00
          1   -1    0    0  501    0  0.00000000000E+00  0.00000000000E+00  0.23755567979E+03  0.23755567979E+03  0.00000000000E+00 0. -1.
         -1   -1    0    0    0  501 -0.00000000000E+00 -0.00000000000E+00 -0.55112565106E+02  0.55112565106E+02  0.00000000000E+00 0.  1.
         25    2    1    2    0    0 -0.20058357295E+02  0.18138208884E+02  0.72591093432E+02  0.14713443755E+03  0.12509094112E+03 0.  0.
          5    1    3    3  502    0 -0.18561955737E+02  0.62607529364E+02  0.78343224932E+02  0.10207537522E+03  0.41800000000E+01 0. -1.
         -5    1    3    3    0  502 -0.14964015581E+01 -0.44469320480E+02 -0.57521314993E+01  0.45059062333E+02  0.41800000000E+01 0. -1.
        -11    1    1    2    0    0  0.53180210622E+02 -0.56565926625E+01  0.90689440676E+02  0.10528393274E+03  0.00000000000E+00 0.  1.
         11    1    1    2    0    0 -0.33121853327E+02 -0.12481616221E+02  0.19162580575E+02  0.40249874604E+02  0.00000000000E+00 0. -1.
</event>
<event>
 7    1  0.2840156E-009  0.2911318E+03  0.7561462E-02  0.1089760E+00
         -1   -1    0    0    0  501 -0.00000000000E+00  0.00000000000E+00  0.11673573511E+04  0.11673573511E+04  0.00000000000E+00 0.  1.
          1   -1    0    0  501    0  0.00000000000E+00 -0.00000000000E+00 -0.79970071319E+02  0.79970071319E+02  0.00000000000E+00 0. -1.
         25    2    1    2    0    0 -0.19188718376E+03 -0.21070469824E+03  0.58343139122E+03  0.66125350702E+03  0.12508737397E+03 0.  0.
          5    1    3    3  502    0 -0.14677134056E+03 -0.12173246998E+03  0.25797314107E+03  0.32082430483E+03  0.41800000000E+01 0. -1.
         -5    1    3    3    0  502 -0.45115843206E+02 -0.88972228259E+02  0.32545825015E+03  0.34042920219E+03  0.41800000000E+01 0. -1.
        -11    1    1    2    0    0  0.40592720491E+02  0.87923508513E+02  0.10991762310E+03  0.14649299019E+03  0.00000000000E+00 0. -1.
         11    1    1    2    0    0  0.15129446327E+03  0.12278118973E+03  0.39403826551E+03  0.43958092527E+03  0.00000000000E+00 0.  1.
</event>
<event>
 7    1  0.2840156E-009  0.1784449E+03  0.7561462E-02  0.1169317E+00
         -1   -1    0    0    0  501 -0.00000000000E+00  0.00000000000E+00  0.87238711262E+02  0.87238711262E+02  0.00000000000E+00 0.  1.
          1   -1    0    0  501    0  0.00000000000E+00 -0.00000000000E+00 -0.58750749555E+03  0.58750749555E+03  0.00000000000E+00 0. -1.
         25    2    1    2    0    0 -0.80762930535E+02 -0.12232176394E+03 -0.60994578245E+02  0.20211337990E+03  0.12507683589E+03 0.  0.
          5    1    3    3  502    0 -0.92013274103E+02 -0.14053849965E+03 -0.64561366367E+02  0.18000876346E+03  0.41800000000E+01 0. -1.
         -5    1    3    3    0  502  0.11250343569E+02  0.18216735712E+02  0.35667881225E+01  0.22104616439E+02  0.41800000000E+01 0. -1.
        -11    1    1    2    0    0 -0.16358970108E+02  0.21933128363E+02 -0.32169773669E+02  0.42232361533E+02  0.00000000000E+00 0.  1.
         11    1    1    2    0    0  0.97121900643E+02  0.10038863558E+03 -0.40710443238E+03  0.43040046538E+03  0.00000000000E+00 0. -1.
</event>
<event>
 7    1  0.2840156E-009  0.1074578E+03  0.7561462E-02  0.1265351E+00
          2   -1    0    0  501    0  0.00000000000E+00  0.00000000000E+00  0.71320558860E+03  0.71320558860E+03  0.00000000000E+00 0. -1.
         -2   -1    0    0    0  501 -0.00000000000E+00 -0.00000000000E+00 -0.17358863489E+02  0.17358863489E+02  0.00000000000E+00 0.  1.
         25    2    1    2    0    0 -0.21510489254E+02 -0.15558190284E+02  0.37850029501E+03  0.39951832971E+03  0.12509062323E+03 0.  0.
          5    1    3    3  502    0  0.20216624225E+02  0.43556382783E+02  0.22021042329E+03  0.22542398564E+03  0.41800000000E+01 0.  1.
         -5    1    3    3    0  502 -0.41727113479E+02 -0.59114573067E+02  0.15828987172E+03  0.17409434407E+03  0.41800000000E+01 0.  1.
        -11    1    1    2    0    0 -0.58928778894E+01  0.49930385342E+02  0.17200686571E+03  0.17920416078E+03  0.00000000000E+00 0.  1.
         11    1    1    2    0    0  0.27403367143E+02 -0.34372195058E+02  0.14533956439E+03  0.15184196159E+03  0.00000000000E+00 0. -1.
</event>
<event>
 7    1  0.2840156E-009  0.1090113E+03  0.7561462E-02  0.1262412E+00
         -2   -1    0    0    0  501 -0.00000000000E+00  0.00000000000E+00  0.12051712122E+03  0.12051712122E+03  0.00000000000E+00 0.  1.
          2   -1    0    0  501    0  0.00000000000E+00 -0.00000000000E+00 -0.24695448855E+03  0.24695448855E+03  0.00000000000E+00 0. -1.
         25    2    1    2    0    0 -0.50572972311E+02 -0.25716913753E+02  0.60894087632E+02  0.15024874503E+03  0.12509040847E+03 0.  0.
          5    1    3    3  502    0 -0.14455715855E+02 -0.57766700993E+02 -0.13742418520E+02  0.61255905276E+02  0.41800000000E+01 0. -1.
         -5    1    3    3    0  502 -0.36117256456E+02  0.32049787240E+02  0.74636506152E+02  0.88992839749E+02  0.41800000000E+01 0. -1.
        -11    1    1    2    0    0 -0.26110489163E+02 -0.61404311227E+01 -0.49935811331E+02  0.56683752452E+02  0.00000000000E+00 0. -1.
         11    1    1    2    0    0  0.76683461474E+02  0.31857344875E+02 -0.13739564364E+03  0.16053911229E+03  0.00000000000E+00 0.  1.
</event>
<event>
 7    1  0.2840156E-009  0.1056589E+03  0.7561462E-02  0.1268827E+00
          1   -1    0    0  501    0  0.00000000000E+00  0.00000000000E+00  0.37410499438E+03  0.37410499438E+03  0.00000000000E+00 0. -1.
         -1   -1    0    0    0  501 -0.00000000000E+00 -0.00000000000E+00 -0.52315186826E+02  0.52315186826E+02  0.00000000000E+00 0.  1.
         25    2    1    2    0    0  0.76824356232E+02 -0.37294248736E+02  0.20555502328E+03  0.25532894559E+03  0.12508860925E+03 0.  0.
          5    1    3    3  502    0  0.45081572704E+02 -0.31359107852E+02  0.86501297527E+01  0.55749789125E+02  0.41800000000E+01 0. -1.
         -5    1    3    3    0  502  0.31742783528E+02 -0.59351408844E+01  0.19690489352E+03  0.19957915647E+03  0.41800000000E+01 0. -1.
        -11    1    1    2    0    0 -0.29279055080E+02 -0.29584949649E+02  0.53584356875E+02  0.67851423079E+02  0.00000000000E+00 0.  1.
         11    1    1    2    0    0 -0.47545301152E+02  0.66879198385E+02  0.62650427402E+02  0.10323981253E+03  0.00000000000E+00 0. -1.
</event>
<event>
 7    1  0.2840156E-009  0.1305254E+03  0.7561462E-02  0.1226678E+00
         -1   -1    0    0    0  501 -0.00000000000E+00  0.00000000000E+00  0.33701343309E+02  0.33701343309E+02  0.00000000000E+00 0.  1.
          1   -1    0    0  501    0  0.00000000000E+00 -0.00000000000E+00 -0.85996620482E+03  0.85996620482E+03  0.00000000000E+00 0. -1.
         25    2    1    2    0    0 -0.78367734603E+02 -0.92086450992E+02 -0.30635479289E+03  0.35231294247E+03  0.12509889695E+03 0.  0.
          5    1    3    3  502    0 -0.31691084703E+02 -0.58725288403E+00 -0.20662825479E+03  0.20908701010E+03  0.41800000000E+01 0.  1.
         -5    1    3    3    0  502 -0.46676649900E+02 -0.91499198108E+02 -0.99726538106E+02  0.14322593237E+03  0.41800000000E+01 0.  1.
        -11    1    1    2    0    0  0.73400459773E+01  0.33236884501E+02 -0.39378873059E+02  0.52050575498E+02  0.00000000000E+00 0.  1.
         11    1    1    2    0    0  0.71027688626E+02  0.58849566491E+02 -0.48053119556E+03  0.48930403016E+03  0.00000000000E+00 0. -1.
</event>
<event>
 7    1  0.2840156E-009  0.1170391E+03  0.7561462E-02  0.1248063E+00
          1   -1    0    0  501    0  0.00000000000E+00  0.00000000000E+00  0.61430521450E+03  0.61430521450E+03  0.00000000000E+00 0. -1.
         -1   -1    0    0    0  501 -0.00000000000E+00 -0.00000000000E+00 -0.48517465791E+02  0.48517465791E+02  0.00000000000E+00 0.  1.
         25    2    1    2    0    0  0.65346964017E+02 -0.33298126283E+02  0.51872254896E+03  0.53860843585E+03  0.12508786293E+03 0.  0.
          5    1    3    3  502    0 -0.21258448589E+02 -0.38605497273E+02  0.80602540330E+02  0.91959490885E+02  0.41800000000E+01 0. -1.
         -5    1    3    3    0  502  0.86605412606E+02  0.53073709905E+01  0.43812000863E+03  0.44664894496E+03  0.41800000000E+01 0. -1.
        -11    1    1    2    0    0 -0.19908474581E+02 -0.23112922583E+02  0.41582408529E+02  0.51571806732E+02  0.00000000000E+00 0. -1.
         11    1    1    2    0    0 -0.45438489436E+02  0.56411048866E+02  0.54827912202E+01  0.72642437706E+02  0.00000000000E+00 0.  1.
</event>
<event>
 7    1  0.2840156E-009  0.1323275E+03  0.7561462E-02  0.1224042E+00
          2   -1    0    0  501    0  0.00000000000E+00  0.00000000000E+00  0.39145408581E+03  0.39145408581E+03  0.00000000000E+00 0. -1.
         -2   -1    0    0    0  501 -0.00000000000E+00 -0.00000000000E+00 -0.65762541362E+02  0.65762541362E+02  0.00000000000E+00 0.  1.
         25    2    1    2    0    0  0.10830498993E+03  0.63471499199E+02  0.18666933786E+03  0.25739718765E+03  0.12509703617E+03 0.  0.
          5    1    3    3  502    0  0.73606288294E+02  0.70785050065E+02  0.19550961248E+03  0.22061253356E+03  0.41800000000E+01 0.  1.
         -5    1    3    3    0  502  0.34698701632E+02 -0.73135508655E+01 -0.88402746220E+01  0.36784654091E+02  0.41800000000E+01 0.  1.
        -11    1    1    2    0    0 -0.73686853501E+02 -0.52324491138E+02  0.49167435641E+02  0.10288363076E+03  0.00000000000E+00 0.  1.
         11    1    1    2    0    0 -0.34618136425E+02 -0.11147008061E+02  0.89854770949E+02  0.96935808763E+02  0.00000000000E+00 0. -1.
</event>
<event>
 7    1  0.2840156E-009  0.1010674E+03  0.7561462E-02  0.1278067E+00
         -2   -1    0    0    0  501 -0.00000000000E+00  0.00000000000E+00  0.20052216970E+02  0.20052216970E+02  0.00000000000E+00 0.  1.
          2   -1    0    0  501    0  0.00000000000E+00 -0.00000000000E+00 -0.59427179039E+03  0.59427179039E+03  0.00000000000E+00 0. -1.
         25    2    1    2    0    0  0.44710190002E+01  0.27956740279E+00 -0.28714053883E+03  0.31323601103E+03  0.12508813453E+03 0.  0.
          5    1    3    3  502    0  0.74830216276E+01 -0.61605483154E+02 -0.16212051702E+03  0.17364263764E+03  0.41800000000E+01 0. -1.
         -5    1    3    3    0  502 -0.30120026274E+01  0.61885050557E+02 -0.12502002180E+03  0.13959337339E+03  0.41800000000E+01 0. -1.
        -11    1    1    2    0    0  0.35975123419E+02 -0.75067348032E+01 -0.60293552087E+02  0.70610714454E+02  0.00000000000E+00 0.  1.
         11    1    1    2    0    0 -0.40446142419E+02  0.72271674004E+01 -0.22678548250E+03  0.23047728187E+03  0.00000000000E+00 0. -1.
</event>
<event>
 7    1  0.2840156E-009  0.1280533E+03  0.7561462E-02  0.1230373E+00
          1   -1    0    0  501    0  0.00000000000E+00  0.00000000000E+00  0.10798983113E+04  0.10798983113E+04  0.00000000000E+00 0. -1.
         -1   -1    0    0    0  501 -0.00000000000E+00 -0.00000000000E+00 -0.18688679853E+02  0.18688679853E+02  0.00000000000E+00 0.  1.
         25    2    1    2    0    0 -0.50369585474E+02 -0.76565286398E+02  0.77120555144E+03  0.78664089007E+03  0.12508616685E+03 0.  0.
          5    1    3    3  502    0 -0.75202688435E+02 -0.12891267867E+02  0.26407299145E+03  0.27490661387E+03  0.41800000000E+01 0.  1.
         -5    1    3    3    0  502  0.24833102961E+02 -0.63674018531E+02  0.50713255999E+03  0.51173427620E+03  0.41800000000E+01 0.  1.
        -11    1    1    2    0    0  0.55557143683E+02  0.27699861067E+02  0.12175920323E+03  0.13667180429E+03  0.00000000000E+00 0.  1.
         11    1    1    2    0    0 -0.51875582089E+01  0.48865425332E+02  0.16824487674E+03  0.17527429675E+03  0.00000000000E+00 0. -1.
</event>
<event>
 7    1  0.2840156E-009  0.1278375E+03  0.7561462E-02  0.1230700E+00
         -1   -1    0    0    0  501 -0.00000000000E+00  0.00000000000E+00  0.81725790707E+02  0.81725790707E+02  0.00000000000E+00 0.  1.
          1   -1    0    0  501    0  0.00000000000E+00 -0.00000000000E+00 -0.40017477009E+03  0.40017477009E+03  0.00000000000E+00 0. -1.
         25    2    1    2    0    0  0.10699360819E+03 -0.62023752017E+02 -0.26296089376E+03  0.31636841454E+03  0.12508382814E+03 0.  0.
          5    1    3    3  502    0  0.18181078595E+02 -0.31372357138E+02  0.62718796182E+00  0.36505371879E+02  0.41800000000E+01 0. -1.
         -5    1    3    3    0  502  0.88812529599E+02 -0.30651394879E+02 -0.26358808173E+03  0.27986304266E+03  0.41800000000E+01 0. -1.
        -11    1    1    2    0    0 -0.25134939146E+02  0.24427406614E+02  0.26333371707E+02  0.43839591983E+02  0.00000000000E+00 0.  1.
         11    1    1    2    0    0 -0.81858669048E+02  0.37596345403E+02 -0.81821457324E+02  0.12169255427E+03  0.00000000000E+00 0. -1.
</event>
<event>
 7    1  0.2840156E-009  0.1221354E+03  0.7561462E-02  0.1239615E+00
          1   -1    0    0  501    0  0.00000000000E+00  0.00000000000E+00  0.16308002050E+03  0.16308002050E+03  0.00000000000E+00 0. -1.
         -1   -1    0    0    0  501 -0.00000000000E+00 -0.00000000000E+00 -0.11809472200E+03  0.11809472200E+03  0.00000000000E+00 0.  1.
         25    2    1    2    0    0  0.81296741727E+02  0.27741167315E+02  0.13193645173E+02  0.15231740910E+03  0.12509111983E+03 0.  0.
          5    1    3    3  502    0  0.30161678740E+02  0.72469712217E+02  0.26519191541E+02  0.82959785277E+02  0.41800000000E+01 0. -1.
         -5    1    3    3    0  502  0.51135062987E+02 -0.44728544902E+02 -0.13325546369E+02  0.69357623819E+02  0.41800000000E+01 0. -1.
        -11    1    1    2    0    0 -0.55611672511E+01  0.11150680518E+02 -0.24017860870E+02  0.27057751162E+02  0.00000000000E+00 0.  1.
         11    1    1    2    0    0 -0.75735574476E+02 -0.38891847834E+02  0.55809514198E+02  0.10179958224E+03  0.00000000000E+00 0. -1.
</event>
<event>
 7    1  0.2840156E-009  0.1649782E+03  0.7561462E-02  0.1183188E+00
          1   -1    0    0  501    0  0.00000000000E+00  0.00000000000E+00  0.93875004739E+02  0.93875004739E+02  0.00000000000E+00 0. -1.
         -1   -1    0    0    0  501 -0.00000000000E+00 -0.00000000000E+00 -0.38743344875E+03  0.38743344875E+03  0.00000000000E+00 0.  1.
         25    2    1    2    0    0 -0.14473472426E+03 -0.72929670082E+01 -0.22924145207E+03  0.29866268008E+03  0.12508567203E+03 0.  0.
          5    1    3    3  502    0 -0.85236155786E+02 -0.45775324142E+02 -0.57004258491E+02  0.11237232951E+03  0.41800000000E+01 0.  1.
         -5    1    3    3    0  502 -0.59498568479E+02  0.38482357133E+02 -0.17223719358E+03  0.18629035057E+03  0.41800000000E+01 0.  1.
        -11    1    1    2    0    0  0.14597063048E+03  0.21786772117E+02 -0.74070749783E+02  0.16513196049E+03  0.00000000000E+00 0.  1.
         11    1    1    2    0    0 -0.12359062174E+01 -0.14493805108E+02  0.97537578489E+01  0.17513812916E+02  0.00000000000E+00 0. -1.
</event>
<event>
 7    1  0.2840156E-009  0.1330053E+03  0.7561462E-02  0.1223063E+00
         -2   -1    0    0    0  501 -0.00000000000E+00  0.00000000000E+00  0.57516185460E+02  0.57516185460E+02  0.00000000000E+00 0.  1.
          2   -1    0    0  501    0  0.00000000000E+00 -0.00000000000E+00 -0.46435208526E+03  0.46435208526E+03  0.00000000000E+00 0. -1.
         25    2    1    2    0    0  0.11172519406E+03  0.35507378632E+02 -0.17042463930E+03  0.24173354979E+03  0.12508900227E+03 0.  0.
          5    1    3    3  502    0  0.28863621635E+02  0.55929494173E+02 -0.15726919513E+02  0.65007886980E+02  0.41800000000E+01 0. -1.
         -5    1    3    3    0  502  0.82861572421E+02 -0.20422115540E+02 -0.15469771979E+03  0.17672566281E+03  0.41800000000E+01 0. -1.
        -11    1    1    2    0    0 -0.93747827865E+02 -0.26726872252E+02 -0.24068418597E+03  0.25967644927E+03  0.00000000000E+00 0. -1.
         11    1    1    2    0    0 -0.17977366191E+02 -0.87805063806E+01  0.42729254675E+01  0.20458271665E+02  0.00000000000E+00 0.  1.
</event>
<event>
 7    1  0.2840156E-009  0.8330128E+02  0.7561462E-02  0.1319936E+00
         -1   -1    0    0    0  501 -0.00000000000E+00  0.00000000000E+00  0.31548816265E+02  0.31548816265E+02  0.00000000000E+00 0.  1.
          1   -1    0    0  501    0  0.00000000000E+00 -0.00000000000E+00 -0.38872885722E+03  0.38872885722E+03  0.00000000000E+00 0. -1.
         25    2    1    2    0    0 -0.23558638989E+02  0.63456526641E+01 -0.23343834474E+03  0.26596337152E+03  0.12509107650E+03 0.  0.
          5    1    3    3  502    0  0.43120406080E+02  0.68740341084E+01 -0.16333139006E+03  0.16911900291E+03  0.41800000000E+01 0. -1.
         -5    1    3    3    0  502 -0.66679045069E+02 -0.52838144431E+00 -0.70106954674E+02  0.96844368612E+02  0.41800000000E+01 0. -1.
        -11    1    1    2    0    0  0.15578449579E+02  0.21730573991E+02  0.44715638567E+00  0.26741463799E+02  0.00000000000E+00 0.  1.
         11    1    1    2    0    0  0.79801894102E+01 -0.28076226655E+02 -0.12418885261E+03  0.12757283817E+03  0.00000000000E+00 0. -1.
</event>
<event>
 7    1  0.2840156E-009  0.1124294E+03  0.7561462E-02  0.1256136E+00
         -1   -1    0    0    0  501 -0.00000000000E+00  0.00000000000E+00  0.62415621497E+02  0.62415621497E+02  0.00000000000E+00 0.  1.
          1   -1    0    0  501    0  0.00000000000E+00 -0.00000000000E+00 -0.28117695812E+03  0.28117695812E+03  0.00000000000E+00 0. -1.
         25    2    1    2    0    0  0.50024843073E+02  0.53919141722E+02 -0.13524491950E+03  0.19836192233E+03  0.12508599125E+03 0.  0.
          5    1    3    3  502    0  0.61214082331E+02  0.66687644560E+02 -0.15015671062E+03  0.17538219965E+03  0.41800000000E+01 0. -1.
         -5    1    3    3    0  502 -0.11189239258E+02 -0.12768502838E+02  0.14911791111E+02  0.22979722671E+02  0.41800000000E+01 0. -1.
        -11    1    1    2    0    0 -0.73831944902E+02 -0.56272346394E+02 -0.76524208747E+02  0.12030663980E+03  0.00000000000E+00 0. -1.
         11    1    1    2    0    0  0.23807101829E+02  0.23532046720E+01 -0.69922083698E+01  0.24924017485E+02  0.00000000000E+00 0.  1.
</event>
<event>
 7    1  0.2840156E-009  0.1022117E+03  0.7561462E-02  0.1275713E+00
          3   -1    0    0  501    0  0.00000000000E+00  0.00000000000E+00  0.13757917329E+03  0.13757917329E+03  0.00000000000E+00 0. -1.
         -3   -1    0    0    0  501 -0.00000000000E+00 -0.00000000000E+00 -0.12241060423E+03  0.12241060423E+03  0.00000000000E+00 0.  1.
         25    2    1    2    0    0  0.32004998638E+02 -0.32362904429E+02  0.62743016765E+02  0.14715753966E+03  0.12508788032E+03 0.  0.
          5    1    3    3  502    0 -0.22039174199E+02  0.17617335563E+02  0.67494052892E+02  0.73273564725E+02  0.41800000000E+01 0.  1.
         -5    1    3    3    0  502  0.54044172837E+02 -0.49980239993E+02 -0.47510361264E+01  0.73883974931E+02  0.41800000000E+01 0.  1.
        -11    1    1    2    0    0  0.30304834832E+02  0.25267476799E+02 -0.21291683566E+02  0.44834854601E+02  0.00000000000E+00 0. -1.
         11    1    1    2    0    0 -0.62309833471E+02  0.70954276296E+01 -0.26282764132E+02  0.67997383264E+02  0.00000000000E+00 0.  1.
</event>
<event>
 7    1  0.2840156E-009  0.1201516E+03  0.7561462E-02  0.1242847E+00
         -2   -1    0    0    0  501 -0.00000000000E+00  0.00000000000E+00  0.65744863846E+02  0.65744863846E+02  0.00000000000E+00 0.  1.
          2   -1    0    0  501    0  0.00000000000E+00 -0.00000000000E+00 -0.27273084228E+03  0.27273084228E+03  0.00000000000E+00 0. -1.
         25    2    1    2    0    0 -0.33318197543E+02  0.45714706981E+02 -0.18337759242E+03  0.22907300226E+03  0.12508861755E+03 0.  0.
          5    1    3    3  502    0  0.27915171868E+02 -0.28069474421E+02 -0.39164853511E+02  0.55843624212E+02  0.41800000000E+01 0.  1.
         -5    1    3    3    0  502 -0.61233369411E+02  0.73784181402E+02 -0.14421273891E+03  0.17322937805E+03  0.41800000000E+01 0.  1.
        -11    1    1    2    0    0  0.33730728993E+02 -0.71329729299E+02 -0.27358036633E+02  0.83511403585E+02  0.00000000000E+00 0.  1.
         11    1    1    2    0    0 -0.41253144987E+00  0.25615022318E+02  0.37496506191E+01  0.25891300282E+02  0.00000000000E+00 0. -1.
</event>
<event>
 7    1  0.2840156E-009  0.1150099E+03  0.7561462E-02  0.1251564E+00
         -2   -1    0    0    0  501 -0.00000000000E+00  0.00000000000E+00  0.65550318129E+02  0.65550318129E+02  0.00000000000E+00 0.  1.
          2   -1    0    0  501    0  0.00000000000E+00 -0.00000000000E+00 -0.32002982040E+03  0.32002982040E+03  0.00000000000E+00 0. -1.
         25    2    1    2    0    0  0.82081713901E+02  0.38216043413E+02 -0.97179287723E+02  0.18244005250E+03  0.12507072025E+03 0.  0.
          5    1    3    3  502    0 -0.18097721161E+01  0.13100753111E+02  0.27045434985E+02  0.30394620589E+02  0.41800000000E+01 0.  1.
         -5    1    3    3    0  502  0.83891486017E+02  0.25115290301E+02 -0.12422472271E+03  0.15204543191E+03  0.41800000000E+01 0.  1.
        -11    1    1    2    0    0 -0.62288601564E+02 -0.68319494243E+02 -0.11595109039E+03  0.14829726411E+03  0.00000000000E+00 0.  1.
         11    1    1    2    0    0 -0.19793112337E+02  0.30103450831E+02 -0.41349124150E+02  0.54842821917E+02  0.00000000000E+00 0. -1.
</event>
<event>
 7    1  0.2840156E-009  0.1076398E+03  0.7561462E-02  0.1265004E+00
          1   -1    0    0  501    0  0.00000000000E+00  0.00000000000E+00  0.65701334398E+03  0.65701334398E+03  0.00000000000E+00 0. -1.
         -1   -1    0    0    0  501 -0.00000000000E+00 -0.00000000000E+00 -0.31237190662E+02  0.31237190662E+02  0.00000000000E+00 0.  1.
         25    2    1    2    0    0 -0.24082448170E+02  0.60930295097E+02  0.50435208350E+03  0.52374715590E+03  0.12509034341E+03 0.  0.
          5    1    3    3  502    0  0.42893899924E+02 -0.92708997265E+01  0.15453911761E+03  0.16070360140E+03  0.41800000000E+01 0. -1.
         -5    1    3    3    0  502 -0.66976348095E+02  0.70201194823E+02  0.34981296589E+03  0.36304355450E+03  0.41800000000E+01 0. -1.
        -11    1    1    2    0    0  0.38550207732E+01 -0.51705663026E+02  0.12501287102E+02  0.53334969329E+02  0.00000000000E+00 0.  1.
         11    1    1    2    0    0  0.20227427397E+02 -0.92246320707E+01  0.10892278272E+03  0.11116840941E+03  0.00000000000E+00 0. -1.
</event>
<event>
 7    1  0.2840156E-009  0.1636935E+03  0.7561462E-02  0.1184589E+00
         -2   -1    0    0    0  501 -0.00000000000E+00  0.00000000000E+00  0.10141122719E+03  0.10141122719E+03  0.00000000000E+00 0. -1.
          2   -1    0    0  501    0  0.00000000000E+00 -0.00000000000E+00 -0.37308562139E+03  0.37308562139E+03  0.00000000000E+00 0.  1.
         25    2    1    2    0    0 -0.34287736300E+02  0.14658887385E+03 -0.21011931317E+03  0.28716223481E+03  0.12509227209E+03 0.  0.
          5    1    3    3  502    0 -0.13381919398E+02  0.64923266670E+02 -0.18875165676E+03  0.20009689316E+03  0.41800000000E+01 0. -1.
         -5    1    3    3    0  502 -0.20905816902E+02  0.81665607175E+02 -0.21367656407E+02  0.87065341646E+02  0.41800000000E+01 0. -1.
        -11    1    1    2    0    0 -0.81943020643E+01 -0.13108678505E+03 -0.51002229592E+02  0.14089754868E+03  0.00000000000E+00 0.  1.
         11    1    1    2    0    0  0.42482038365E+02 -0.15502088800E+02 -0.10552851440E+02  0.46437065091E+02  0.00000000000E+00 0. -1.
</event>
<event>
 7    1  0.2840156E-009  0.7409321E+02  0.7561462E-02  0.1346702E+00
         -2   -1    0    0    0  501 -0.00000000000E+00  0.00000000000E+00  0.17053663168E+02  0.17053663168E+02  0.00000000000E+00 0.  1.
          2   -1    0    0  501    0  0.00000000000E+00 -0.00000000000E+00 -0.79519132041E+03  0.79519132041E+03  0.00000000000E+00 0. -1.
         25    2    1    2    0    0 -0.14266464582E+02  0.98576881720E+00 -0.58201279630E+03  0.59547501685E+03  0.12508835629E+03 0.  0.
          5    1    3    3  502    0 -0.19093418106E+01  0.27713594273E+02 -0.24810734086E+02  0.37479778809E+02  0.41800000000E+01 0.  1.
         -5    1    3    3    0  502 -0.12357122771E+02 -0.26727825456E+02 -0.55720206221E+03  0.55799523804E+03  0.41800000000E+01 0.  1.
        -11    1    1    2    0    0  0.25716772052E+02  0.40135307326E+02 -0.12550006844E+03  0.13424776511E+03  0.00000000000E+00 0. -1.
         11    1    1    2    0    0 -0.11450307471E+02 -0.41121076143E+02 -0.70624792502E+02  0.82522201620E+02  0.00000000000E+00 0.  1.
</event>
<event>
 7    1  0.2840156E-009  0.1220776E+03  0.7561462E-02  0.1239708E+00
          2   -1    0    0  501    0  0.00000000000E+00  0.00000000000E+00  0.65788988325E+03  0.65788988325E+03  0.00000000000E+00 0. -1.
         -2   -1    0    0    0  501 -0.00000000000E+00 -0.00000000000E+00 -0.32173797320E+02  0.32173797320E+02  0.00000000000E+00 0.  1.
         25    2    1    2    0    0  0.81610403442E+02 -0.21605062054E+02  0.45171429650E+03  0.47626116727E+03  0.12510738242E+03 0.  0.
          5    1    3    3  502    0 -0.79945979979E+01  0.27151474866E+02  0.26624488658E+02  0.39082630168E+02  0.41800000000E+01 0.  1.
         -5    1    3    3    0  502  0.89605001440E+02 -0.48756536920E+02  0.42508980784E+03  0.43717853711E+03  0.41800000000E+01 0.  1.
        -11    1    1    2    0    0 -0.13384667795E+02 -0.26690175792E+02  0.13353085563E+02  0.32708098536E+02  0.00000000000E+00 0.  1.
         11    1    1    2    0    0 -0.68225735647E+02  0.48295237846E+02  0.16064870387E+03  0.18109441476E+03  0.00000000000E+00 0. -1.
</event>
<event>
 7    1  0.2840156E-009  0.1330168E+03  0.7561462E-02  0.1223047E+00
         -2   -1    0    0    0  501 -0.00000000000E+00  0.00000000000E+00  0.90126381358E+02  0.90126381358E+02  0.00000000000E+00 0.  1.
          2   -1    0    0  501    0  0.00000000000E+00 -0.00000000000E+00 -0.27122253002E+03  0.27122253002E+03  0.00000000000E+00 0. -1.
         25    2    1    2    0    0  0.85537853944E+02  0.11228561169E+02 -0.94074351988E+01  0.15224648171E+03  0.12509071234E+03 0.  0.
          5    1    3    3  502    0  0.58144091608E+02  0.65120271465E+02 -0.22498432351E+02  0.90249858742E+02  0.41800000000E+01 0. -1.
         -5    1    3    3    0  502  0.27393762336E+02 -0.53891710297E+02  0.13090997152E+02  0.61996622973E+02  0.41800000000E+01 0. -1.
        -11    1    1    2    0    0 -0.49888322883E+02 -0.46272874893E+02 -0.83323935216E+02  0.10757742277E+03  0.00000000000E+00 0.  1.
         11    1    1    2    0    0 -0.35649531061E+02  0.35044313724E+02 -0.88364778249E+02  0.10152500689E+03  0.00000000000E+00 0. -1.
</event>
<event>
 7    1  0.3370788E-009  0.1313207E+03  0.7561462E-02  0.1225509E+00
         -2   -1    0    0    0  501 -0.00000000000E+00  0.00000000000E+00  0.13947532682E+02  0.13947532682E+02  0.00000000000E+00 0. -1.
          2   -1    0    0  501    0  0.00000000000E+00 -0.00000000000E+00 -0.17215462779E+04  0.17215462779E+04  0.00000000000E+00 0.  1.
         25    2    1    2    0    0 -0.89833371708E+02  0.42456431479E+02 -0.11883135783E+04  0.11990026956E+04  0.12508285376E+03 0.  0.
          5    1    3    3  502    0 -0.13687766052E+02 -0.37761024687E+02 -0.17185045389E+03  0.17653130268E+03  0.41800000000E+01 0. -1.
         -5    1    3    3    0  502 -0.76145605656E+02  0.80217456166E+02 -0.10164631244E+04  0.10224713929E+04  0.41800000000E+01 0. -1.
        -11    1    1    2    0    0  0.80499882992E+02 -0.14101247973E+02 -0.48125145403E+03  0.48814141226E+03  0.00000000000E+00 0.  1.
         11    1    1    2    0    0  0.93334887152E+01 -0.28355183506E+02 -0.38033712914E+02  0.48349702804E+02  0.00000000000E+00 0. -1.
</event>
<event>
 7    1  0.2840156E-009  0.1002613E+03  0.7561462E-02  0.1279747E+00
         -2   -1    0    0    0  501 -0.00000000000E+00  0.00000000000E+00  0.12967247857E+02  0.12967247857E+02  0.00000000000E+00 0. -1.
          2   -1    0    0  501    0  0.00000000000E+00 -0.00000000000E+00 -0.96916191797E+03  0.96916191797E+03  0.00000000000E+00 0.  1.
         25    2    1    2    0    0  0.83173964982E+01  0.12970026683E+02 -0.67348341093E+03  0.68517467104E+03  0.12508806644E+03 0.  0.
          5    1    3    3  502    0  0.20221412401E+02 -0.45435281895E+02 -0.48220021544E+03  0.48477602100E+03  0.41800000000E+01 0.  1.
         -5    1    3    3    0  502 -0.11904015903E+02  0.58405308578E+02 -0.19128319549E+03  0.20039865005E+03  0.41800000000E+01 0.  1.
        -11    1    1    2    0    0  0.22190099359E+02 -0.42790386255E+02 -0.15080561895E+03  0.15832167373E+03  0.00000000000E+00 0.  1.
         11    1    1    2    0    0 -0.30507495857E+02  0.29820359572E+02 -0.13190564023E+03  0.13863282105E+03  0.00000000000E+00 0. -1.
</event>
<event>
 7    1  0.2840156E-009  0.1192966E+03  0.7561462E-02  0.1244262E+00
          3   -1    0    0  501    0  0.00000000000E+00  0.00000000000E+00  0.19331262854E+02  0.19331262854E+02  0.00000000000E+00 0. -1.
         -3   -1    0    0    0  501 -0.00000000000E+00 -0.00000000000E+00 -0.75973190835E+03  0.75973190835E+03  0.00000000000E+00 0.  1.
         25    2    1    2    0    0 -0.47847518181E+02  0.24427508478E+02 -0.43990149834E+03  0.46048437495E+03  0.12508574322E+03 0.  0.
          5    1    3    3  502    0 -0.85080861937E+02 -0.53961247315E+01 -0.32458324107E+03  0.33561827127E+03  0.41800000000E+01 0.  1.
         -5    1    3    3    0  502  0.37233343756E+02  0.29823633209E+02 -0.11531825728E+03  0.12486610367E+03  0.41800000000E+01 0.  1.
        -11    1    1    2    0    0 -0.13093374372E+02  0.24114714208E+02 -0.66053260397E+02  0.71526142793E+02  0.00000000000E+00 0.  1.
         11    1    1    2    0    0  0.60940892553E+02 -0.48542222686E+02 -0.23444588676E+03  0.24705265347E+03  0.00000000000E+00 0. -1.
</event>
<event>
 7    1  0.2840156E-009  0.9507859E+02  0.7561462E-02  0.1290999E+00
          1   -1    0    0  501    0  0.00000000000E+00  0.00000000000E+00  0.11414244112E+03  0.11414244112E+03  0.00000000000E+00 0. -1.
         -1   -1    0    0    0  501 -0.00000000000E+00 -0.00000000000E+00 -0.15403970410E+03  0.15403970410E+03  0.00000000000E+00 0.  1.
         25    2    1    2    0    0 -0.35896582173E+02  0.49354740545E+02 -0.66085016694E+02  0.15407366161E+03  0.12508800401E+03 0.  0.
          5    1    3    3  502    0  0.18640567650E+02 -0.64310364504E+01 -0.72913912636E+02  0.75648794095E+02  0.41800000000E+01 0.  1.
         -5    1    3    3    0  502 -0.54537149822E+02  0.55785776995E+02  0.68288959423E+01  0.78424867520E+02  0.41800000000E+01 0.  1.
        -11    1    1    2    0    0  0.34794124644E+02  0.70137492802E+01 -0.20428674807E+02  0.40953077334E+02  0.00000000000E+00 0.  1.
         11    1    1    2    0    0  0.11024575283E+01 -0.56368489825E+02  0.46616428520E+02  0.73155406264E+02  0.00000000000E+00 0. -1.
</event>
<event>
 7    1  0.2840156E-009  0.1120536E+03  0.7561462E-02  0.1256813E+00
         -1   -1    0    0    0  501 -0.00000000000E+00  0.00000000000E+00  0.69219316289E+02  0.69219316289E+02  0.00000000000E+00 0.  1.
          1   -1    0    0  501    0  0.00000000000E+00 -0.00000000000E+00 -0.26706143110E+03  0.26706143110E+03  0.00000000000E+00 0. -1.
         25    2    1    2    0    0 -0.40426849326E+02  0.51987746369E+02 -0.51715587584E+02  0.15053019283E+03  0.12509109095E+03 0.  0.
          5    1    3    3  502    0 -0.77200347346E+02  0.38645570927E+02 -0.65919894127E+02  0.10870270753E+03  0.41800000000E+01 0. -1.
         -5    1    3    3    0  502  0.36773498020E+02  0.13342175441E+02  0.14204306543E+02  0.41827485299E+02  0.41800000000E+01 0. -1.
        -11    1    1    2    0    0  0.30057775629E+02  0.12835826481E+02 -0.92850967649E+01  0.33977070785E+02  0.00000000000E+00 0.  1.
         11    1    1    2    0    0  0.10369073697E+02 -0.64823572850E+02 -0.13684143046E+03  0.15177348378E+03  0.00000000000E+00 0. -1.
</event>
<event>
 7    1  0.2840156E-009  0.1144144E+03  0.7561462E-02  0.1252607E+00
         -1   -1    0    0    0  501 -0.00000000000E+00  0.00000000000E+00  0.38598770092E+02  0.38598770092E+02  0.00000000000E+00 0.  1.
          1   -1    0    0  501    0  0.00000000000E+00 -0.00000000000E+00 -0.53800687032E+03  0.53800687032E+03  0.00000000000E+00 0. -1.
         25    2    1    2    0    0  0.51972907918E+02 -0.62049236497E+02 -0.37168241213E+03  0.40043310266E+03  0.12509022071E+03 0.  0.
          5    1    3    3  502    0  0.83934533157E+02 -0.18108407508E+02 -0.15758470091E+03  0.17950858096E+03  0.41800000000E+01 0. -1.
         -5    1    3    3    0  502 -0.31961625239E+02 -0.43940828989E+02 -0.21409771122E+03  0.22092452170E+03  0.41800000000E+01 0. -1.
        -11    1    1    2    0    0 -0.36909390404E+02  0.16573507358E+02 -0.12126087917E+03  0.12783264475E+03  0.00000000000E+00 0. -1.
         11    1    1    2    0    0 -0.15063517514E+02  0.45475729139E+02 -0.64648089309E+01  0.48339892999E+02  0.00000000000E+00 0.  1.
</event>
<event>
 7    1  0.3214715E-009  0.1097223E+03  0.7561462E-02  0.1261085E+00
         -1   -1    0    0    0  501 -0.00000000000E+00  0.00000000000E+00  0.41766221677E+02  0.41766221677E+02  0.00000000000E+00 0.  1.
          1   -1    0    0  501    0  0.00000000000E+00 -0.00000000000E+00 -0.35978231584E+03  0.35978231584E+03  0.00000000000E+00 0. -1.
         25    2    1    2    0    0  0.30184429346E+02  0.27842382912E+02 -0.24277796094E+03  0.27617982867E+03  0.12509141211E+03 0.  0.
          5    1    3    3  502    0 -0.48499437967E+02  0.19041755305E+02 -0.10185989704E+03  0.11448884204E+03  0.41800000000E+01 0.  1.
         -5    1    3    3    0  502  0.78683867314E+02  0.88006276067E+01 -0.14091806391E+03  0.16169098663E+03  0.41800000000E+01 0.  1.
        -11    1    1    2    0    0 -0.19303691839E+02  0.26322377047E+02 -0.59596523869E+02  0.67950317948E+02  0.00000000000E+00 0. -1.
         11    1    1    2    0    0 -0.10880737508E+02 -0.54164759959E+02 -0.15641609353E+02  0.57418390897E+02  0.00000000000E+00 0.  1.
</event>
<event>
 7    1  0.2840156E-009  0.9661325E+02  0.7561462E-02  0.1287583E+00
          2   -1    0    0  501    0  0.00000000000E+00  0.00000000000E+00  0.22349109639E+03  0.22349109639E+03  0.00000000000E+00 0.  1.
         -2   -1    0    0    0  501 -0.00000000000E+00 -0.00000000000E+00 -0.83588719889E+02  0.83588719889E+02  0.00000000000E+00 0. -1.
         25    2    1    2    0    0  0.20846376169E+02 -0.52123013515E+02  0.14310062636E+03  0.19818375839E+03  0.12509049879E+03 0.  0.
          5    1    3    3  502    0  0.12164419746E+02  0.41161878569E+02  0.40139709910E+02  0.58914701618E+02  0.41800000000E+01 0. -1.
         -5    1    3    3    0  502  0.86819564223E+01 -0.93284892084E+02  0.10296091645E+03  0.13926905677E+03  0.41800000000E+01 0. -1.
        -11    1    1    2    0    0 -0.51384109576E+01  0.18652378240E+02  0.44512886231E+02  0.48535672673E+02  0.00000000000E+00 0.  1.
         11    1    1    2    0    0 -0.15707965211E+02  0.33470635275E+02 -0.47711136087E+02  0.60360385217E+02  0.00000000000E+00 0. -1.
</event>
<event>
 7    1  0.2840156E-009  0.1091646E+03  0.7561462E-02  0.1262125E+00
         -1   -1    0    0    0  501 -0.00000000000E+00  0.00000000000E+00  0.28928293735E+02  0.28928293735E+02  0.00000000000E+00 0.  1.
          1   -1    0    0  501    0  0.00000000000E+00 -0.00000000000E+00 -0.60367554701E+03  0.60367554701E+03  0.00000000000E+00 0. -1.
         25    2    1    2    0    0 -0.25996470588E+02 -0.43303573257E+02 -0.45118139202E+03  0.47091772042E+03  0.12509130649E+03 0.  0.
          5    1    3    3  502    0  0.48871230365E+02 -0.35540570617E+01 -0.19183080505E+03  0.19803423604E+03  0.41800000000E+01 0.  1.
         -5    1    3    3    0  502 -0.74867700953E+02 -0.39749516195E+02 -0.25935058698E+03  0.27288348438E+03  0.41800000000E+01 0.  1.
        -11    1    1    2    0    0 -0.22627109169E+02  0.72833387371E+01 -0.88739235732E+02  0.91867758495E+02  0.00000000000E+00 0. -1.
         11    1    1    2    0    0  0.48623579757E+02  0.36020234520E+02 -0.34826625521E+02  0.69818361828E+02  0.00000000000E+00 0.  1.
</event>
<event>
 7    1  0.2840156E-009  0.1627428E+03  0.7561462E-02  0.1185634E+00
          2   -1    0    0  501    0  0.00000000000E+00  0.00000000000E+00  0.12368998153E+04  0.12368998153E+04  0.00000000000E+00 0. -1.
         -2   -1    0    0    0  501 -0.00000000000E+00 -0.00000000000E+00 -0.27624385690E+02  0.27624385690E+02  0.00000000000E+00 0.  1.
         25    2    1    2    0    0 -0.40226428064E+02  0.14322040409E+03  0.63895196689E+03  0.66785987151E+03  0.12508773848E+03 0.  0.
          5    1    3    3  502    0 -0.58852619426E+02  0.12570447747E+03  0.33273131915E+03  0.36054521161E+03  0.41800000000E+01 0.  1.
         -5    1    3    3    0  502  0.18626191362E+02  0.17515926625E+02  0.30622064774E+03  0.30731465991E+03  0.41800000000E+01 0.  1.
        -11    1    1    2    0    0 -0.14454915186E+02 -0.55467897098E+02  0.10142734130E+03  0.11650381000E+03  0.00000000000E+00 0.  1.
         11    1    1    2    0    0  0.54681343250E+02 -0.87752506994E+02  0.46889612146E+03  0.48016051952E+03  0.00000000000E+00 0. -1.
</event>
<event>
 7    1  0.2840156E-009  0.1522390E+03  0.7561462E-02  0.1197748E+00
         -1   -1    0    0    0  501 -0.00000000000E+00  0.00000000000E+00  0.10109973308E+03  0.10109973308E+03  0.00000000000E+00 0.  1.
          1   -1    0    0  501    0  0.00000000000E+00 -0.00000000000E+00 -0.25468562827E+03  0.25468562827E+03  0.00000000000E+00 0. -1.
         25    2    1    2    0    0 -0.31597187314E+02  0.11095774493E+03 -0.69220710416E+02  0.18370756989E+03  0.12508781346E+03 0.  0.
          5    1    3    3  502    0  0.39308075144E+02  0.36142000176E+02  0.89105428959E+01  0.54297689849E+02  0.41800000000E+01 0.  1.
         -5    1    3    3    0  502 -0.70905262458E+02  0.74815744753E+02 -0.78131253311E+02  0.12940988004E+03  0.41800000000E+01 0.  1.
        -11    1    1    2    0    0  0.62586821552E+02 -0.52919931843E+02 -0.61336205746E+02  0.10237069675E+03  0.00000000000E+00 0. -1.
         11    1    1    2    0    0 -0.30989634238E+02 -0.58037813086E+02 -0.23028979026E+02  0.69707094710E+02  0.00000000000E+00 0.  1.
</event>
<event>
 7    1  0.2840156E-009  0.1446880E+03  0.7561462E-02  0.1207157E+00
         -1   -1    0    0    0  501 -0.00000000000E+00  0.00000000000E+00  0.43595140750E+03  0.43595140750E+03  0.00000000000E+00 0.  1.
          1   -1    0    0  501    0  0.00000000000E+00 -0.00000000000E+00 -0.71921826146E+02  0.71921826146E+02  0.00000000000E+00 0. -1.
         25    2    1    2    0    0  0.12712430903E+03 -0.56056050841E+02  0.17148065239E+03  0.25368558479E+03  0.12509153051E+03 0.  0.
          5    1    3    3  502    0  0.28356924894E+02 -0.36367590796E+02 -0.88051917483E+01  0.47135131818E+02  0.41800000000E+01 0.  1.
         -5    1    3    3    0  502  0.98767384138E+02 -0.19688460045E+02  0.18028584414E+03  0.20655045297E+03  0.41800000000E+01 0.  1.
        -11    1    1    2    0    0 -0.82077366338E+01  0.13830108174E+02  0.90442185111E+02  0.91860914868E+02  0.00000000000E+00 0.  1.
         11    1    1    2    0    0 -0.11891657240E+03  0.42225942667E+02  0.10210674385E+03  0.16232673398E+03  0.00000000000E+00 0. -1.
</event>
<event>
 7    1  0.2840156E-009  0.8874179E+02  0.7561462E-02  0.1305928E+00
         -2   -1    0    0    0  501 -0.00000000000E+00  0.00000000000E+00  0.97691542137E+02  0.97691542137E+02  0.00000000000E+00 0.  1.
          2   -1    0    0  501    0  0.00000000000E+00 -0.00000000000E+00 -0.15304977753E+03  0.15304977753E+03  0.00000000000E+00 0. -1.
         25    2    1    2    0    0 -0.42849545370E+02  0.19141900970E+02 -0.52106942130E+02  0.14340641464E+03  0.12509104856E+03 0.  0.
          5    1    3    3  502    0  0.75957379727E+01  0.62987345039E+02 -0.40652500282E+02  0.75466542584E+02  0.41800000000E+01 0. -1.
         -5    1    3    3    0  502 -0.50445283342E+02 -0.43845444069E+02 -0.11454441848E+02  0.67939872057E+02  0.41800000000E+01 0. -1.
        -11    1    1    2    0    0  0.17838918129E+02 -0.76278361093E+01  0.46548774810E+02  0.50430142970E+02  0.00000000000E+00 0.  1.
         11    1    1    2    0    0  0.25010627241E+02 -0.11514064861E+02 -0.49800068078E+02  0.56904762060E+02  0.00000000000E+00 0. -1.
</event>
<event>
 7    1  0.2840156E-009  0.1056733E+03  0.7561462E-02  0.1268799E+00
         -3   -1    0    0    0  501 -0.00000000000E+00  0.00000000000E+00  0.19550030248E+03  0.19550030248E+03  0.00000000000E+00 0.  1.
          3   -1    0    0  501    0  0.00000000000E+00 -0.00000000000E+00 -0.99027235622E+02  0.99027235622E+02  0.00000000000E+00 0. -1.
         25    2    1    2    0    0  0.22113958721E+01  0.68353237329E+02 -0.45542812867E+01  0.14263674900E+03  0.12508974923E+03 0.  0.
          5    1    3    3  502    0 -0.48257503295E+02 -0.94168807756E+01 -0.67571485378E+01  0.49805579247E+02  0.41800000000E+01 0. -1.
         -5    1    3    3    0  502  0.50468899167E+02  0.77770118105E+02  0.22028672511E+01  0.92831169751E+02  0.41800000000E+01 0. -1.
        -11    1    1    2    0    0 -0.64773982474E+01 -0.38806268005E+02  0.11305536073E+03  0.11970546234E+03  0.00000000000E+00 0.  1.
         11    1    1    2    0    0  0.42660023754E+01 -0.29546969325E+02 -0.12028012580E+02  0.32185326768E+02  0.00000000000E+00 0. -1.
</event>
<event>
 7    1  0.2840156E-009  0.2977631E+03  0.7561462E-02  0.1086364E+00
          2   -1    0    0  501    0  0.00000000000E+00  0.00000000000E+00  0.13505036823E+04  0.13505036823E+04  0.00000000000E+00 0. -1.
         -2   -1    0    0    0  501 -0.00000000000E+00 -0.00000000000E+00 -0.71240149004E+02  0.71240149004E+02  0.00000000000E+00 0.  1.
         25    2    1    2    0    0  0.20913782013E+03  0.20144211542E+03  0.65128205681E+03  0.72397061790E+03  0.12509030490E+03 0.  0.
          5    1    3    3  502    0  0.16703990238E+02 -0.67502991400E+01  0.65045435947E+01  0.19605389966E+02  0.41800000000E+01 0.  1.
         -5    1    3    3    0  502  0.19243382989E+03  0.20819241456E+03  0.64477751322E+03  0.70436522793E+03  0.41800000000E+01 0.  1.
        -11    1    1    2    0    0 -0.91934928335E+02 -0.11818035991E+03  0.41157394037E+03  0.43796316844E+03  0.00000000000E+00 0.  1.
         11    1    1    2    0    0 -0.11720289179E+03 -0.83261755512E+02  0.21640753607E+03  0.25981004493E+03  0.00000000000E+00 0. -1.
</event>
<event>
 7    1  0.2840156E-009  0.1243343E+03  0.7561462E-02  0.1236113E+00
         -1   -1    0    0    0  501 -0.00000000000E+00  0.00000000000E+00  0.31881843918E+02  0.31881843918E+02  0.00000000000E+00 0.  1.
          1   -1    0    0  501    0  0.00000000000E+00 -0.00000000000E+00 -0.56530410096E+03  0.56530410096E+03  0.00000000000E+00 0. -1.
         25    2    1    2    0    0 -0.25722855592E+02 -0.39630471300E+02 -0.17591520223E+03  0.22096660231E+03  0.12509133226E+03 0.  0.
          5    1    3    3  502    0  0.50095807177E+02 -0.88925901330E+01 -0.56420087564E+02  0.76087888239E+02  0.41800000000E+01 0.  1.
         -5    1    3    3    0  502 -0.75818662768E+02 -0.30737881167E+02 -0.11949511466E+03  0.14487871407E+03  0.41800000000E+01 0.  1.
        -11    1    1    2    0    0  0.39751533876E+02  0.70980250195E+02 -0.22231048027E+03  0.23672838867E+03  0.00000000000E+00 0. -1.
         11    1    1    2    0    0 -0.14028678285E+02 -0.31349778896E+02 -0.13519657455E+03  0.13949095390E+03  0.00000000000E+00 0.  1.
</event>
<event>
 7    1  0.2840156E-009  0.9604712E+02  0.7561462E-02  0.1288835E+00
         -1   -1    0    0    0  501 -0.00000000000E+00  0.00000000000E+00  0.17175910686E+02  0.17175910686E+02  0.00000000000E+00 0.  1.
          1   -1    0    0  501    0  0.00000000000E+00 -0.00000000000E+00 -0.75753651678E+03  0.75753651678E+03  0.00000000000E+00 0. -1.
         25    2    1    2    0    0  0.22527828193E+02  0.25283255129E+02 -0.43209229894E+03  0.45110717956E+03  0.12508871498E+03 0.  0.
          5    1    3    3  502    0  0.83773244081E+01 -0.39247718704E+02 -0.30643526518E+03  0.30908026002E+03  0.41800000000E+01 0. -1.
         -5    1    3    3    0  502  0.14150503784E+02  0.64530973833E+02 -0.12565703376E+03  0.14202691954E+03  0.41800000000E+01 0. -1.
        -11    1    1    2    0    0 -0.46312694452E+02 -0.36770996024E+02 -0.27416042833E+03  0.28046552779E+03  0.00000000000E+00 0.  1.
         11    1    1    2    0    0  0.23784866260E+02  0.11487740895E+02 -0.34107878829E+02  0.43139720120E+02  0.00000000000E+00 0. -1.
</event>
<event>
 7    1  0.2840156E-009  0.1097015E+03  0.7561462E-02  0.1261124E+00
          1   -1    0    0  501    0  0.00000000000E+00  0.00000000000E+00  0.93257458255E+02  0.93257458255E+02  0.00000000000E+00 0. -1.
         -1   -1    0    0    0  501 -0.00000000000E+00 -0.00000000000E+00 -0.16516438387E+03  0.16516438387E+03  0.00000000000E+00 0.  1.
         25    2    1    2    0    0 -0.41166768403E+02  0.10348863683E+01 -0.84831658975E+02  0.15665356445E+03  0.12509258603E+03 0.  0.
          5    1    3    3  502    0 -0.12609275692E+02 -0.54431640695E+02 -0.74597049065E+02  0.93295173892E+02  0.41800000000E+01 0. -1.
         -5    1    3    3    0  502 -0.28557492710E+02  0.55466527063E+02 -0.10234609910E+02  0.63358390560E+02  0.41800000000E+01 0. -1.
        -11    1    1    2    0    0  0.17082888912E+02 -0.46422521413E+02  0.41136464293E+01  0.49636656564E+02  0.00000000000E+00 0.  1.
         11    1    1    2    0    0  0.24083879491E+02  0.45387635045E+02  0.88110869320E+01  0.52131621107E+02  0.00000000000E+00 0. -1.
</event>
<event>
 7    1  0.2840156E-009  0.9198882E+02  0.7561462E-02  0.1298106E+00
          1   -1    0    0  501    0  0.00000000000E+00  0.00000000000E+00  0.75175672631E+02  0.75175672631E+02  0.00000000000E+00 0. -1.
         -1   -1    0    0    0  501 -0.00000000000E+00 -0.00000000000E+00 -0.19949119694E+03  0.19949119694E+03  0.00000000000E+00 0.  1.
         25    2    1    2    0    0 -0.52969372812E+02  0.90382266769E+01 -0.89105934885E+02  0.16271143601E+03  0.12509076616E+03 0.  0.
          5    1    3    3  502    0  0.12298049949E+02  0.16338952777E+02 -0.94410784090E+02  0.96690599144E+02  0.41800000000E+01 0.  1.
         -5    1    3    3    0  502 -0.65267422760E+02 -0.73007261004E+01  0.53048492051E+01  0.66020836866E+02  0.41800000000E+01 0.  1.
        -11    1    1    2    0    0 -0.53992728284E+01  0.27771331232E+02 -0.32229245022E+02  0.42884999944E+02  0.00000000000E+00 0.  1.
         11    1    1    2    0    0  0.58368645640E+02 -0.36809557908E+02 -0.29803444001E+01  0.69070433617E+02  0.00000000000E+00 0. -1.
</event>
<event>
 7    1  0.2840156E-009  0.1330858E+03  0.7561462E-02  0.1222948E+00
          3   -1    0    0  501    0  0.00000000000E+00  0.00000000000E+00  0.34890462412E+03  0.34890462412E+03  0.00000000000E+00 0. -1.
         -3   -1    0    0    0  501 -0.00000000000E+00 -0.00000000000E+00 -0.57963079138E+02  0.57963079138E+02  0.00000000000E+00 0.  1.
         25    2    1    2    0    0  0.44497963495E+02 -0.80139270643E+02  0.14208426803E+03  0.21032631928E+03  0.12508736910E+03 0.  0.
          5    1    3    3  502    0  0.49373583009E+02 -0.11153230265E+03  0.12167552300E+03  0.17233574943E+03  0.41800000000E+01 0. -1.
         -5    1    3    3    0  502 -0.48756195142E+01  0.31393032007E+02  0.20408745031E+02  0.37990569856E+02  0.41800000000E+01 0. -1.
        -11    1    1    2    0    0  0.16871698012E+02  0.19913245845E+02  0.17630771229E+01  0.26159128327E+02  0.00000000000E+00 0.  1.
         11    1    1    2    0    0 -0.61369661507E+02  0.60226024798E+02  0.14709419983E+03  0.17038225565E+03  0.00000000000E+00 0. -1.
</event>
<event>
 7    1  0.2840156E-009  0.2122078E+03  0.7561462E-02  0.1139830E+00
         -1   -1    0    0    0  501 -0.00000000000E+00  0.00000000000E+00  0.11183892923E+03  0.11183892923E+03  0.00000000000E+00 0.  1.
          1   -1    0    0  501    0  0.00000000000E+00 -0.00000000000E+00 -0.41612616503E+03  0.41612616503E+03  0.00000000000E+00 0. -1.
         25    2    1    2    0    0 -0.96018728237E+02 -0.15737504515E+03 -0.12334495206E+03  0.25465235313E+03  0.12508933907E+03 0.  0.
          5    1    3    3  502    0 -0.12649497535E+03 -0.13181376117E+03 -0.99055734662E+02  0.20785898439E+03  0.41800000000E+01 0. -1.
         -5    1    3    3    0  502  0.30476247108E+02 -0.25561283980E+02 -0.24289217393E+02  0.46793368740E+02  0.41800000000E+01 0. -1.
        -11    1    1    2    0    0 -0.95298235593E+01  0.50798332706E+02 -0.26744778369E+02  0.58194254981E+02  0.00000000000E+00 0. -1.
         11    1    1    2    0    0  0.10554855180E+03  0.10657671245E+03 -0.15419750538E+03  0.21511848616E+03  0.00000000000E+00 0.  1.
</event>
<event>
 7    1  0.2840156E-009  0.1549470E+03  0.7561462E-02  0.1194523E+00
          2   -1    0    0  501    0  0.00000000000E+00  0.00000000000E+00  0.11914246508E+04  0.11914246508E+04  0.00000000000E+00 0. -1.
         -2   -1    0    0    0  501 -0.00000000000E+00 -0.00000000000E+00 -0.21636918822E+02  0.21636918822E+02  0.00000000000E+00 0.  1.
         25    2    1    2    0    0 -0.24407809374E+02  0.11579290914E+03  0.57247352088E+03  0.59781044420E+03  0.12509059168E+03 0.  0.
          5    1    3    3  502    0  0.44940486450E+02  0.35735672700E+02  0.12010827763E+03  0.13319217838E+03  0.41800000000E+01 0. -1.
         -5    1    3    3    0  502 -0.69348295824E+02  0.80057236440E+02  0.45236524325E+03  0.46461826582E+03  0.41800000000E+01 0. -1.
        -11    1    1    2    0    0  0.32989275109E+02 -0.29099497655E+01  0.10551212311E+03  0.11058737813E+03  0.00000000000E+00 0.  1.
         11    1    1    2    0    0 -0.85814657353E+01 -0.11288295937E+03  0.49180208804E+03  0.50466374733E+03  0.00000000000E+00 0. -1.
</event>
<event>
 7    1  0.2840156E-009  0.7924400E+02  0.7561462E-02  0.1331211E+00
         -2   -1    0    0    0  501 -0.00000000000E+00  0.00000000000E+00  0.10243093973E+03  0.10243093973E+03  0.00000000000E+00 0.  1.
          2   -1    0    0  501    0  0.00000000000E+00 -0.00000000000E+00 -0.13264221789E+03  0.13264221789E+03  0.00000000000E+00 0. -1.
         25    2    1    2    0    0  0.47884360112E+01 -0.18851913224E+02 -0.57240846545E+02  0.13893436529E+03  0.12509164478E+03 0.  0.
          5    1    3    3  502    0 -0.48533364071E+02 -0.37715218232E+02 -0.54337221073E+02  0.82145791787E+02  0.41800000000E+01 0.  1.
         -5    1    3    3    0  502  0.53321800082E+02  0.18863305008E+02 -0.29036254715E+01  0.56788573505E+02  0.41800000000E+01 0.  1.
        -11    1    1    2    0    0 -0.20038802573E+02  0.86958164666E+01 -0.29503827448E+02  0.36710307363E+02  0.00000000000E+00 0. -1.
         11    1    1    2    0    0  0.15250366562E+02  0.10156096757E+02  0.56533395828E+02  0.59428484967E+02  0.00000000000E+00 0.  1.
</event>
<event>
 7    1  0.2840156E-009  0.1354650E+03  0.7561462E-02  0.1219565E+00
          1   -1    0    0  501    0  0.00000000000E+00  0.00000000000E+00  0.60178132871E+03  0.60178132871E+03  0.00000000000E+00 0. -1.
         -1   -1    0    0    0  501 -0.00000000000E+00 -0.00000000000E+00 -0.35031612952E+02  0.35031612952E+02  0.00000000000E+00 0.  1.
         25    2    1    2    0    0 -0.58564320997E+02  0.71840472209E+02  0.42195962249E+03  0.44976426163E+03  0.12508850820E+03 0.  0.
          5    1    3    3  502    0  0.36437127854E+02  0.67903601174E+00  0.11031638065E+03  0.11625532941E+03  0.41800000000E+01 0. -1.
         -5    1    3    3    0  502 -0.95001448852E+02  0.71161436198E+02  0.31164324184E+03  0.33350893222E+03  0.41800000000E+01 0. -1.
        -11    1    1    2    0    0 -0.14593367225E+02 -0.23921709088E+02  0.19042041277E+02  0.33879401834E+02  0.00000000000E+00 0.  1.
         11    1    1    2    0    0  0.73157688222E+02 -0.47918763122E+02  0.12574805199E+03  0.15316927820E+03  0.00000000000E+00 0. -1.
</event>
<event>
 7    1  0.2840156E-009  0.1477220E+03  0.7561462E-02  0.1203300E+00
         -2   -1    0    0    0  501 -0.00000000000E+00  0.00000000000E+00  0.34964983441E+03  0.34964983441E+03  0.00000000000E+00 0.  1.
          2   -1    0    0  501    0  0.00000000000E+00 -0.00000000000E+00 -0.70092771682E+02  0.70092771682E+02  0.00000000000E+00 0. -1.
         25    2    1    2    0    0  0.35549549847E+02  0.10543775139E+03  0.16031714285E+03  0.23179713896E+03  0.12508971751E+03 0.  0.
          5    1    3    3  502    0 -0.35364143312E+02  0.40595950209E+02  0.11160827522E+03  0.12398602060E+03  0.41800000000E+01 0. -1.
         -5    1    3    3    0  502  0.70913693158E+02  0.64841801178E+02  0.48708867625E+02  0.10781111836E+03  0.41800000000E+01 0. -1.
        -11    1    1    2    0    0 -0.31401716779E+02  0.74704413485E+01  0.25405112008E+02  0.41076696882E+02  0.00000000000E+00 0.  1.
         11    1    1    2    0    0 -0.41478330677E+01 -0.11290819274E+03  0.93834807876E+02  0.14686877025E+03  0.00000000000E+00 0. -1.
</event>
<event>
 7    1  0.2840156E-009  0.1624961E+03  0.7561462E-02  0.1185907E+00
         -1   -1    0    0    0  501 -0.00000000000E+00  0.00000000000E+00  0.20079758054E+03  0.20079758054E+03  0.00000000000E+00 0.  1.
          1   -1    0    0  501    0  0.00000000000E+00 -0.00000000000E+00 -0.15539291011E+03  0.15539291011E+03  0.00000000000E+00 0. -1.
         25    2    1    2    0    0  0.11244066427E+03 -0.71198691189E+02  0.64277894732E+02  0.19362746399E+03  0.12509112859E+03 0.  0.
          5    1    3    3  502    0  0.35429207429E+02  0.25294468498E+02  0.54265990894E+02  0.69694397503E+02  0.41800000000E+01 0.  1.
         -5    1    3    3    0  502  0.77011456843E+02 -0.96493159687E+02  0.10011903838E+02  0.12393306649E+03  0.41800000000E+01 0.  1.
        -11    1    1    2    0    0 -0.51249861579E+02 -0.13728229377E+02 -0.22952075078E+02  0.57808393371E+02  0.00000000000E+00 0. -1.
         11    1    1    2    0    0 -0.61190802693E+02  0.84926920566E+02  0.40788507853E+01  0.10475463329E+03  0.00000000000E+00 0.  1.
</event>
<event>
 7    1  0.2840156E-009  0.1204805E+03  0.7561462E-02  0.1242307E+00
          3   -1    0    0  501    0  0.00000000000E+00  0.00000000000E+00  0.28000377927E+03  0.28000377927E+03  0.00000000000E+00 0. -1.
         -3   -1    0    0    0  501 -0.00000000000E+00 -0.00000000000E+00 -0.72945657866E+02  0.72945657866E+02  0.00000000000E+00 0.  1.
         25    2    1    2    0    0 -0.10568830404E+02  0.87932862009E+02  0.78580898706E+02  0.17223792893E+03  0.12508820138E+03 0.  0.
          5    1    3    3  502    0  0.17824729238E+02 -0.50592256042E+01  0.72257829134E+02  0.74712669657E+02  0.41800000000E+01 0. -1.
         -5    1    3    3    0  502 -0.28393559642E+02  0.92992087613E+02  0.63230695720E+01  0.97525259274E+02  0.41800000000E+01 0. -1.
        -11    1    1    2    0    0 -0.36360421828E+02 -0.59634978411E+02  0.54210545428E+02  0.88414897846E+02  0.00000000000E+00 0. -1.
         11    1    1    2    0    0  0.46929252232E+02 -0.28297883598E+02  0.74266677274E+02  0.92296610363E+02  0.00000000000E+00 0.  1.
</event>
<event>
 7    1  0.2840156E-009  0.9410157E+02  0.7561462E-02  0.1293212E+00
          2   -1    0    0  501    0  0.00000000000E+00  0.00000000000E+00  0.29048211210E+03  0.29048211210E+03  0.00000000000E+00 0. -1.
         -2   -1    0    0    0  501 -0.00000000000E+00 -0.00000000000E+00 -0.84116441248E+02  0.84116441248E+02  0.00000000000E+00 0.  1.
         25    2    1    2    0    0 -0.12796113230E+02  0.76011184354E+00  0.33966812411E+02  0.13024482642E+03  0.12508258144E+03 0.  0.
          5    1    3    3  502    0  0.15029933337E+02  0.25153871292E+02  0.71492314777E+02  0.77377255116E+02  0.41800000000E+01 0.  1.
         -5    1    3    3    0  502 -0.27826046567E+02 -0.24393759449E+02 -0.37525502367E+02  0.52867571303E+02  0.41800000000E+01 0.  1.
        -11    1    1    2    0    0  0.66566579490E+02 -0.82456878830E+01  0.37475868836E+01  0.67179947017E+02  0.00000000000E+00 0.  1.
         11    1    1    2    0    0 -0.53770466260E+02  0.74855760395E+01  0.16865127156E+03  0.17717377991E+03  0.00000000000E+00 0. -1.
</event>
<event>
 7    1  0.2840156E-009  0.1442460E+03  0.7561462E-02  0.1207727E+00
          1   -1    0    0  501    0  0.00000000000E+00  0.00000000000E+00  0.14862945524E+04  0.14862945524E+04  0.00000000000E+00 0. -1.
         -1   -1    0    0    0  501 -0.00000000000E+00 -0.00000000000E+00 -0.18840038656E+02  0.18840038656E+02  0.00000000000E+00 0.  1.
         25    2    1    2    0    0 -0.10839655148E+03  0.60662502854E+02  0.92379034415E+03  0.94046042120E+03  0.12508977686E+03 0.  0.
          5    1    3    3  502    0 -0.12946268842E+02  0.60708588234E+02  0.58983421032E+03  0.59310623554E+03  0.41800000000E+01 0. -1.
         -5    1    3    3    0  502 -0.95450282635E+02 -0.46085379403E-01  0.33395613382E+03  0.34735418566E+03  0.41800000000E+01 0. -1.
        -11    1    1    2    0    0  0.66317792630E+02 -0.58775605639E+02  0.48148298912E+03  0.48956969907E+03  0.00000000000E+00 0. -1.
         11    1    1    2    0    0  0.42078758847E+02 -0.18868972151E+01  0.62181180502E+02  0.75104470811E+02  0.00000000000E+00 0.  1.
</event>
<event>
 7    1  0.2840156E-009  0.1141571E+03  0.7561462E-02  0.1253060E+00
          2   -1    0    0  501    0  0.00000000000E+00  0.00000000000E+00  0.20908837705E+03  0.20908837705E+03  0.00000000000E+00 0. -1.
         -2   -1    0    0    0  501 -0.00000000000E+00 -0.00000000000E+00 -0.84000346732E+02  0.84000346732E+02  0.00000000000E+00 0.  1.
         25    2    1    2    0    0  0.41116750784E+02 -0.21593352462E+02  0.28630915519E+01  0.13346548563E+03  0.12509188022E+03 0.  0.
          5    1    3    3  502    0  0.63373988388E+02  0.29574918061E+02  0.23393135774E+02  0.73862367847E+02  0.41800000000E+01 0.  1.
         -5    1    3    3    0  502 -0.22257237605E+02 -0.51168270523E+02 -0.20530044222E+02  0.59603117787E+02  0.41800000000E+01 0.  1.
        -11    1    1    2    0    0 -0.19800808737E+02 -0.35890146927E+02  0.55690895795E+02  0.69149479734E+02  0.00000000000E+00 0.  1.
         11    1    1    2    0    0 -0.21315942047E+02  0.57483499389E+02  0.66534042969E+02  0.90473758412E+02  0.00000000000E+00 0. -1.
</event>
<event>
 7    1  0.2840156E-009  0.1871898E+03  0.7561462E-02  0.1161021E+00
          1   -1    0    0  501    0  0.00000000000E+00  0.00000000000E+00  0.16668269032E+04  0.16668269032E+04  0.00000000000E+00 0. -1.
         -1   -1    0    0    0  501 -0.00000000000E+00 -0.00000000000E+00 -0.28034257792E+02  0.28034257792E+02  0.00000000000E+00 0.  1.
         25    2    1    2    0    0 -0.19310825849E+02  0.12951237807E+03  0.11891452341E+04  0.12028547869E+04  0.12508751530E+03 0.  0.
          5    1    3    3  502    0 -0.67915033007E+02  0.88835226787E+02  0.60454199644E+03  0.61481106617E+03  0.41800000000E+01 0. -1.
         -5    1    3    3    0  502  0.48604207158E+02  0.40677151288E+02  0.58460323765E+03  0.58804372071E+03  0.41800000000E+01 0. -1.
        -11    1    1    2    0    0 -0.53840079635E+02 -0.11120837169E+03  0.25806112461E+03  0.28611466258E+03  0.00000000000E+00 0.  1.
         11    1    1    2    0    0  0.73150905484E+02 -0.18304006384E+02  0.19158628666E+03  0.20589171149E+03  0.00000000000E+00 0. -1.
</event>
<event>
 7    1  0.2840156E-009  0.9600930E+02  0.7561462E-02  0.1288919E+00
         -1   -1    0    0    0  501 -0.00000000000E+00  0.00000000000E+00  0.17539899243E+02  0.17539899243E+02  0.00000000000E+00 0.  1.
          1   -1    0    0  501    0  0.00000000000E+00 -0.00000000000E+00 -0.82641215446E+03  0.82641215446E+03  0.00000000000E+00 0. -1.
         25    2    1    2    0    0 -0.78528965077E+01 -0.14878041196E+02 -0.62953369866E+03  0.64206157202E+03  0.12508940971E+03 0.  0.
          5    1    3    3  502    0  0.20712293550E+02 -0.51769243435E+02 -0.51910573671E+03  0.52210850592E+03  0.41800000000E+01 0. -1.
         -5    1    3    3    0  502 -0.28565190058E+02  0.36891202240E+02 -0.11042796195E+03  0.11995306610E+03  0.41800000000E+01 0. -1.
        -11    1    1    2    0    0 -0.18013579038E+02  0.45640482501E+02 -0.12513822395E+03  0.13441397905E+03  0.00000000000E+00 0. -1.
         11    1    1    2    0    0  0.25866475546E+02 -0.30762441305E+02 -0.54200332616E+02  0.67476502636E+02  0.00000000000E+00 0.  1.
</event>
<event>
 7    1  0.2840156E-009  0.3492406E+03  0.7561462E-02  0.1062927E+00
         -1   -1    0    0    0  501 -0.00000000000E+00  0.00000000000E+00  0.88584913485E+02  0.88584913485E+02  0.00000000000E+00 0.  1.
          1   -1    0    0  501    0  0.00000000000E+00 -0.00000000000E+00 -0.17357501422E+04  0.17357501422E+04  0.00000000000E+00 0. -1.
         25    2    1    2    0    0 -0.11721550517E+03 -0.31286473910E+03 -0.12348940004E+04  0.12853928565E+04  0.12509110166E+03 0.  0.
          5    1    3    3  502    0 -0.80950742060E+02 -0.74100892110E+02 -0.28950663441E+03  0.30963773772E+03  0.41800000000E+01 0. -1.
         -5    1    3    3    0  502 -0.36264763114E+02 -0.23876384699E+03 -0.94538736601E+03  0.97575511881E+03  0.41800000000E+01 0. -1.
        -11    1    1    2    0    0  0.13293754766E+03  0.26073150327E+03 -0.34743551740E+03  0.45427386797E+03  0.00000000000E+00 0.  1.
         11    1    1    2    0    0 -0.15722042482E+02  0.52133235828E+02 -0.64835710889E+02  0.84668331177E+02  0.00000000000E+00 0. -1.
</event>
<event>
 7    1  0.2840156E-009  0.1044921E+03  0.7561462E-02  0.1271124E+00
          2   -1    0    0  501    0  0.00000000000E+00  0.00000000000E+00  0.25719606197E+03  0.25719606197E+03  0.00000000000E+00 0.  1.
         -2   -1    0    0    0  501 -0.00000000000E+00 -0.00000000000E+00 -0.46996706179E+02  0.46996706179E+02  0.00000000000E+00 0. -1.
         25    2    1    2    0    0 -0.90520291552E+01  0.15684064950E+02  0.12589607315E+03  0.17839674603E+03  0.12509056173E+03 0.  0.
          5    1    3    3  502    0  0.47864583758E+02  0.30213686654E+02  0.97963865410E+02  0.11321782795E+03  0.41800000000E+01 0.  1.
         -5    1    3    3    0  502 -0.56916612913E+02 -0.14529621704E+02  0.27932207742E+02  0.65178918077E+02  0.41800000000E+01 0.  1.
        -11    1    1    2    0    0  0.45579810299E+02  0.12427886225E+02  0.44301056564E+02  0.64765384857E+02  0.00000000000E+00 0.  1.
         11    1    1    2    0    0 -0.36527781144E+02 -0.28111951175E+02  0.40002226077E+02  0.61030637268E+02  0.00000000000E+00 0. -1.
</event>
<event>
 7    1  0.2840156E-009  0.1228705E+03  0.7561462E-02  0.1238435E+00
         -1   -1    0    0    0  501 -0.00000000000E+00  0.00000000000E+00  0.58338850844E+02  0.58338850844E+02  0.00000000000E+00 0.  1.
          1   -1    0    0  501    0  0.00000000000E+00 -0.00000000000E+00 -0.40468445180E+03  0.40468445180E+03  0.00000000000E+00 0. -1.
         25    2    1    2    0    0  0.46676154930E+02  0.86078304758E+02 -0.25295219223E+03  0.29869221108E+03  0.12507632637E+03 0.  0.
          5    1    3    3  502    0 -0.20653137021E+01  0.94502592310E+02 -0.99037180759E+02  0.13697021956E+03  0.41800000000E+01 0.  1.
         -5    1    3    3    0  502  0.48741468632E+02 -0.84242875519E+01 -0.15391501147E+03  0.16172199152E+03  0.41800000000E+01 0.  1.
        -11    1    1    2    0    0 -0.22656169432E+02 -0.16934174524E+02 -0.86269008252E+02  0.90787719791E+02  0.00000000000E+00 0. -1.
         11    1    1    2    0    0 -0.24019985498E+02 -0.69144130234E+02 -0.71244004728E+01  0.73543371770E+02  0.00000000000E+00 0.  1.
</event>
<event>
 7    1  0.2840156E-009  0.1182655E+03  0.7561462E-02  0.1245986E+00
         -1   -1    0    0    0  501 -0.00000000000E+00  0.00000000000E+00  0.33852143296E+03  0.33852143296E+03  0.00000000000E+00 0.  1.
          1   -1    0    0  501    0  0.00000000000E+00 -0.00000000000E+00 -0.68384609059E+02  0.68384609059E+02  0.00000000000E+00 0. -1.
         25    2    1    2    0    0 -0.18846273811E+02  0.10381954983E+03  0.12570970903E+03  0.20635771559E+03  0.12508754884E+03 0.  0.
          5    1    3    3  502    0  0.59868047804E+01  0.71646897698E+02  0.14445072788E+03  0.16140819362E+03  0.41800000000E+01 0. -1.
         -5    1    3    3    0  502 -0.24833078592E+02  0.32172652136E+02 -0.18741018853E+02  0.44949521971E+02  0.41800000000E+01 0. -1.
        -11    1    1    2    0    0 -0.11184808486E+01 -0.10368551260E+03  0.74112825359E+02  0.12745449150E+03  0.00000000000E+00 0. -1.
         11    1    1    2    0    0  0.19964754660E+02 -0.13403723709E+00  0.70314289512E+02  0.73093834926E+02  0.00000000000E+00 0.  1.
</event>
<event>
 7    1  0.2840156E-009  0.1389793E+03  0.7561462E-02  0.1214709E+00
          1   -1    0    0  501    0  0.00000000000E+00  0.00000000000E+00  0.12083089028E+03  0.12083089028E+03  0.00000000000E+00 0. -1.
         -1   -1    0    0    0  501 -0.00000000000E+00 -0.00000000000E+00 -0.22888057515E+03  0.22888057515E+03  0.00000000000E+00 0.  1.
         25    2    1    2    0    0 -0.77976027744E+02 -0.96209827984E+02 -0.69244763231E+02  0.18915511041E+03  0.12509287212E+03 0.  0.
          5    1    3    3  502    0 -0.20563692512E+02 -0.20744283485E+02  0.36582829796E+02  0.46999644498E+02  0.41800000000E+01 0.  1.
         -5    1    3    3    0  502 -0.57412335232E+02 -0.75465544499E+02 -0.10582759303E+03  0.14215546591E+03  0.41800000000E+01 0.  1.
        -11    1    1    2    0    0 -0.72708078249E+01  0.60792850308E+02 -0.22402289824E+01  0.61267070445E+02  0.00000000000E+00 0. -1.
         11    1    1    2    0    0  0.85246835569E+02  0.35416977676E+02 -0.36564692650E+02  0.99289284572E+02  0.00000000000E+00 0.  1.
</event>
<event>
 7    1  0.3432638E-009  0.1129573E+03  0.7561462E-02  0.1255189E+00
          2   -1    0    0  501    0  0.00000000000E+00  0.00000000000E+00  0.52910665820E+03  0.52910665820E+03  0.00000000000E+00 0. -1.
         -2   -1    0    0    0  501 -0.00000000000E+00 -0.00000000000E+00 -0.53954327457E+02  0.53954327457E+02  0.00000000000E+00 0.  1.
         25    2    1    2    0    0  0.65845641986E+02 -0.22256942147E+02  0.65224501667E+02  0.15727028240E+03  0.12509470838E+03 0.  0.
          5    1    3    3  502    0 -0.31289716935E+02  0.14288743236E+02  0.54281362110E-01  0.34650972794E+02  0.41800000000E+01 0. -1.
         -5    1    3    3    0  502  0.97135358921E+02 -0.36545685383E+02  0.65170220305E+02  0.12261930960E+03  0.41800000000E+01 0. -1.
        -11    1    1    2    0    0 -0.11731824566E+02 -0.16920420915E+02  0.15569622438E+02  0.25813746230E+02  0.00000000000E+00 0.  1.
         11    1    1    2    0    0 -0.54113817421E+02  0.39177363062E+02  0.39435820664E+03  0.39997695703E+03  0.00000000000E+00 0. -1.
</event>
<event>
 7    1  0.2840156E-009  0.2911598E+03  0.7561462E-02  0.1089745E+00
          2   -1    0    0  501    0  0.00000000000E+00  0.00000000000E+00  0.88511779842E+03  0.88511779842E+03  0.00000000000E+00 0. -1.
         -2   -1    0    0    0  501 -0.00000000000E+00 -0.00000000000E+00 -0.11671167557E+03  0.11671167557E+03  0.00000000000E+00 0.  1.
         25    2    1    2    0    0 -0.12806506709E+02  0.28994777147E+03  0.51180840911E+03  0.60152243805E+03  0.12509068330E+03 0.  0.
          5    1    3    3  502    0 -0.16473440921E+02  0.10677580978E+03  0.31295356626E+03  0.33110399400E+03  0.41800000000E+01 0. -1.
         -5    1    3    3    0  502  0.36669342119E+01  0.18317196169E+03  0.19885484285E+03  0.27041844405E+03  0.41800000000E+01 0. -1.
        -11    1    1    2    0    0  0.43838181048E+01 -0.25338813694E+03  0.16789333557E+03  0.30399496366E+03  0.00000000000E+00 0. -1.
         11    1    1    2    0    0  0.84226886043E+01 -0.36559634532E+02  0.88704378173E+02  0.96312072283E+02  0.00000000000E+00 0.  1.
</event>
<event>
 7    1  0.2840156E-009  0.1081902E+03  0.7561462E-02  0.1263958E+00
         -2   -1    0    0    0  501 -0.00000000000E+00  0.00000000000E+00  0.39151848344E+02  0.39151848344E+02  0.00000000000E+00 0. -1.
          2   -1    0    0  501    0  0.00000000000E+00 -0.00000000000E+00 -0.63933430664E+03  0.63933430664E+03  0.00000000000E+00 0.  1.
         25    2    1    2    0    0 -0.58894930575E+02 -0.42459538828E+02 -0.51636167444E+03  0.53623475840E+03  0.12508761727E+03 0.  0.
          5    1    3    3  502    0  0.33714866200E+02 -0.29906793904E+02 -0.10447469723E+03  0.11385755700E+03  0.41800000000E+01 0. -1.
         -5    1    3    3    0  502 -0.92609796774E+02 -0.12552744924E+02 -0.41188697721E+03  0.42237720140E+03  0.41800000000E+01 0. -1.
        -11    1    1    2    0    0  0.28715712409E+02  0.37104701712E+02 -0.97869353011E+02  0.10853460871E+03  0.00000000000E+00 0.  1.
         11    1    1    2    0    0  0.30179218165E+02  0.53548371161E+01  0.14048569158E+02  0.33716787881E+02  0.00000000000E+00 0. -1.
</event>
<event>
 7    1  0.2840156E-009  0.1633516E+03  0.7561462E-02  0.1184964E+00
          2   -1    0    0  501    0  0.00000000000E+00  0.00000000000E+00  0.44593152283E+03  0.44593152283E+03  0.00000000000E+00 0. -1.
         -2   -1    0    0    0  501 -0.00000000000E+00 -0.00000000000E+00 -0.65854269671E+02  0.65854269671E+02  0.00000000000E+00 0.  1.
         25    2    1    2    0    0  0.99503883687E+02 -0.98828595401E+02  0.27997809425E+03  0.33720072933E+03  0.12509390257E+03 0.  0.
          5    1    3    3  502    0  0.11892439593E+03 -0.10930699831E+03  0.26441158220E+03  0.30987415031E+03  0.41800000000E+01 0.  1.
         -5    1    3    3    0  502 -0.19420512247E+02  0.10478402906E+02  0.15566512044E+02  0.27326579015E+02  0.41800000000E+01 0.  1.
        -11    1    1    2    0    0 -0.98383850563E+02  0.88678742779E+02  0.89423337137E+02  0.15981187283E+03  0.00000000000E+00 0.  1.
         11    1    1    2    0    0 -0.11200331235E+01  0.10149852622E+02  0.10675821774E+02  0.14773190346E+02  0.00000000000E+00 0. -1.
</event>
<event>
 7    1  0.2840156E-009  0.1189045E+03  0.7561462E-02  0.1244915E+00
          1   -1    0    0  501    0  0.00000000000E+00  0.00000000000E+00  0.12546043042E+03  0.12546043042E+03  0.00000000000E+00 0. -1.
         -1   -1    0    0    0  501 -0.00000000000E+00 -0.00000000000E+00 -0.15571519432E+03  0.15571519432E+03  0.00000000000E+00 0.  1.
         25    2    1    2    0    0  0.74307843810E+02 -0.31608299319E+02  0.21694843893E+02  0.15046186599E+03  0.12508943451E+03 0.  0.
          5    1    3    3  502    0  0.57191836355E+01  0.35694863576E+02 -0.24387886655E+02  0.43807234137E+02  0.41800000000E+01 0. -1.
         -5    1    3    3    0  502  0.68588660175E+02 -0.67303162895E+02  0.46082730548E+02  0.10665463185E+03  0.41800000000E+01 0. -1.
        -11    1    1    2    0    0 -0.32206060039E+01 -0.18167821517E+02 -0.38770477915E+02  0.42937070224E+02  0.00000000000E+00 0.  1.
         11    1    1    2    0    0 -0.71087237806E+02  0.49776120836E+02 -0.13179129880E+02  0.87776688527E+02  0.00000000000E+00 0. -1.
</event>
<event>
 7    1  0.2840156E-009  0.2597978E+03  0.7561462E-02  0.1107265E+00
         -1   -1    0    0    0  501 -0.00000000000E+00  0.00000000000E+00  0.28133882745E+03  0.28133882745E+03  0.00000000000E+00 0.  1.
          1   -1    0    0  501    0  0.00000000000E+00 -0.00000000000E+00 -0.26556559497E+03  0.26556559497E+03  0.00000000000E+00 0. -1.
         25    2    1    2    0    0  0.18082129095E+03 -0.17205866791E+03  0.29057923393E+02  0.28069943918E+03  0.12508911935E+03 0.  0.
          5    1    3    3  502    0  0.15357533453E+03 -0.11411681159E+03  0.70909710177E+02  0.20409235522E+03  0.41800000000E+01 0.  1.
         -5    1    3    3    0  502  0.27245956424E+02 -0.57941856322E+02 -0.41851786784E+02  0.76607083958E+02  0.41800000000E+01 0.  1.
        -11    1    1    2    0    0 -0.18516323078E+02  0.69815119001E+02 -0.17560275257E+02  0.74332821341E+02  0.00000000000E+00 0. -1.
         11    1    1    2    0    0 -0.16230496787E+03  0.10224354891E+03  0.42755843387E+01  0.19187216190E+03  0.00000000000E+00 0.  1.
</event>
<event>
 7    1  0.2840156E-009  0.9057082E+02  0.7561462E-02  0.1301475E+00
         -2   -1    0    0    0  501 -0.00000000000E+00  0.00000000000E+00  0.54658528324E+02  0.54658528324E+02  0.00000000000E+00 0.  1.
          2   -1    0    0  501    0  0.00000000000E+00 -0.00000000000E+00 -0.22476743729E+03  0.22476743729E+03  0.00000000000E+00 0. -1.
         25    2    1    2    0    0 -0.49341831486E+01  0.14060014845E+02 -0.71212909152E+02  0.14470589829E+03  0.12508592403E+03 0.  0.
          5    1    3    3  502    0 -0.30080224662E+02  0.47270257167E+02 -0.83886746969E+02  0.10096413148E+03  0.41800000000E+01 0. -1.
         -5    1    3    3    0  502  0.25146041513E+02 -0.33210242322E+02  0.12673837817E+02  0.43741766813E+02  0.41800000000E+01 0. -1.
        -11    1    1    2    0    0 -0.27216871959E+02 -0.35287725488E+02 -0.24291298178E+02  0.50754791464E+02  0.00000000000E+00 0.  1.
         11    1    1    2    0    0  0.32151055107E+02  0.21227710643E+02 -0.74604701640E+02  0.83965275861E+02  0.00000000000E+00 0. -1.
</event>
<event>
 7    1  0.2840156E-009  0.7509818E+02  0.7561462E-02  0.1343567E+00
         -2   -1    0    0    0  501 -0.00000000000E+00  0.00000000000E+00  0.12738616555E+03  0.12738616555E+03  0.00000000000E+00 0.  1.
          2   -1    0    0  501    0  0.00000000000E+00 -0.00000000000E+00 -0.29254112477E+03  0.29254112477E+03  0.00000000000E+00 0. -1.
         25    2    1    2    0    0 -0.67672606689E+01 -0.13676651964E+02 -0.27621865361E+03  0.30360357768E+03  0.12508213763E+03 0.  0.
          5    1    3    3  502    0 -0.54287876313E+02 -0.35866546359E+02 -0.97421553200E+02  0.11722633702E+03  0.41800000000E+01 0. -1.
         -5    1    3    3    0  502  0.47520615644E+02  0.22189894395E+02 -0.17879710041E+03  0.18637724067E+03  0.41800000000E+01 0. -1.
        -11    1    1    2    0    0 -0.81183323191E+01  0.15389911829E+02  0.79529230288E+02  0.81410411963E+02  0.00000000000E+00 0.  1.
         11    1    1    2    0    0  0.14885592988E+02 -0.17132598649E+01  0.31534464094E+02  0.34913300670E+02  0.00000000000E+00 0. -1.
</event>
<event>
 7    1  0.2840156E-009  0.1214319E+03  0.7561462E-02  0.1240753E+00
         -3   -1    0    0    0  501 -0.00000000000E+00  0.00000000000E+00  0.95388902911E+02  0.95388902911E+02  0.00000000000E+00 0.  1.
          3   -1    0    0  501    0  0.00000000000E+00 -0.00000000000E+00 -0.31509237264E+03  0.31509237264E+03  0.00000000000E+00 0. -1.
         25    2    1    2    0    0  0.98562663079E+02 -0.70642870612E+02 -0.18363249480E+03  0.25312725273E+03  0.12508996445E+03 0.  0.
          5    1    3    3  502    0  0.40822883852E+02 -0.29263240321E+02 -0.17420094036E+03  0.18134576119E+03  0.41800000000E+01 0.  1.
         -5    1    3    3    0  502  0.57739779227E+02 -0.41379630291E+02 -0.94315544397E+01  0.71781491537E+02  0.41800000000E+01 0.  1.
        -11    1    1    2    0    0 -0.59852110867E+02  0.41047505578E+02 -0.67709457875E+02  0.99255949822E+02  0.00000000000E+00 0. -1.
         11    1    1    2    0    0 -0.38710552212E+02  0.29595365035E+02  0.31638482940E+02  0.58098073004E+02  0.00000000000E+00 0.  1.
</event>
<event>
 7    1  0.2840156E-009  0.1143000E+03  0.7561462E-02  0.1252808E+00
         -2   -1    0    0    0  501 -0.00000000000E+00  0.00000000000E+00  0.96638350317E+02  0.96638350317E+02  0.00000000000E+00 0.  1.
          2   -1    0    0  501    0  0.00000000000E+00 -0.00000000000E+00 -0.16798753162E+03  0.16798753162E+03  0.00000000000E+00 0. -1.
         25    2    1    2    0    0 -0.41254684772E+02  0.45264838580E+02 -0.13501787125E+02  0.13992998538E+03  0.12508896005E+03 0.  0.
          5    1    3    3  502    0  0.43651384570E+02  0.18142617628E+02  0.80488197305E+01  0.48133708026E+02  0.41800000000E+01 0.  1.
         -5    1    3    3    0  502 -0.84906069342E+02  0.27122220951E+02 -0.21550606856E+02  0.91796277355E+02  0.41800000000E+01 0.  1.
        -11    1    1    2    0    0  0.78813139873E+01 -0.56233914260E+02  0.27230655205E+00  0.56784173622E+02  0.00000000000E+00 0.  1.
         11    1    1    2    0    0  0.33373370785E+02  0.10969075680E+02 -0.58119700733E+02  0.67911722936E+02  0.00000000000E+00 0. -1.
</event>
<event>
 7    1  0.2840156E-009  0.9275595E+02  0.7561462E-02  0.1296312E+00
         -3   -1    0    0    0  501 -0.00000000000E+00  0.00000000000E+00  0.25513875655E+03  0.25513875655E+03  0.00000000000E+00 0.  1.
          3   -1    0    0  501    0  0.00000000000E+00 -0.00000000000E+00 -0.48252133494E+02  0.48252133494E+02  0.00000000000E+00 0. -1.
         25    2    1    2    0    0 -0.11027128650E+02  0.44401064641E+01  0.14244376860E+03  0.18994446804E+03  0.12508941447E+03 0.  0.
          5    1    3    3  502    0 -0.45225745946E+02 -0.31949822150E+02  0.12517623647E+03  0.13694057765E+03  0.41800000000E+01 0.  1.
         -5    1    3    3    0  502  0.34198617296E+02  0.36389928614E+02  0.17267532134E+02  0.53003890381E+02  0.41800000000E+01 0.  1.
        -11    1    1    2    0    0 -0.34344344317E+02 -0.29940588992E+01 -0.17768393381E+00  0.34475062681E+02  0.00000000000E+00 0. -1.
         11    1    1    2    0    0  0.45371472968E+02 -0.14460475649E+01  0.64620538387E+02  0.78971359329E+02  0.00000000000E+00 0.  1.
</event>
<event>
 7    1  0.2840156E-009  0.1066438E+03  0.7561462E-02  0.1266914E+00
         -3   -1    0    0    0  501 -0.00000000000E+00  0.00000000000E+00  0.63949305632E+02  0.63949305632E+02  0.00000000000E+00 0.  1.
          3   -1    0    0  501    0  0.00000000000E+00 -0.00000000000E+00 -0.23117517762E+03  0.23117517762E+03  0.00000000000E+00 0. -1.
         25    2    1    2    0    0  0.49656604828E+02 -0.19302526877E+02 -0.75214587040E+02  0.15537861038E+03  0.12508761935E+03 0.  0.
          5    1    3    3  502    0 -0.34005559595E+02  0.13540941197E+02 -0.49682343440E+02  0.61850972681E+02  0.41800000000E+01 0. -1.
         -5    1    3    3    0  502  0.83662164423E+02 -0.32843468074E+02 -0.25532243600E+02  0.93527637703E+02  0.41800000000E+01 0. -1.
        -11    1    1    2    0    0 -0.31712159972E+02 -0.23887803772E+02 -0.37760719491E+01  0.39881662184E+02  0.00000000000E+00 0.  1.
         11    1    1    2    0    0 -0.17944444856E+02  0.43190330649E+02 -0.88235213001E+02  0.99864210687E+02  0.00000000000E+00 0. -1.
</event>
<event>
 7    1  0.2840156E-009  0.1267577E+03  0.7561462E-02  0.1232348E+00
         -2   -1    0    0    0  501 -0.00000000000E+00  0.00000000000E+00  0.80947803047E+02  0.80947803047E+02  0.00000000000E+00 0.  1.
          2   -1    0    0  501    0  0.00000000000E+00 -0.00000000000E+00 -0.25926824673E+03  0.25926824673E+03  0.00000000000E+00 0. -1.
         25    2    1    2    0    0 -0.43782873891E+02 -0.69045205809E+02 -0.15510511074E+03  0.21538106665E+03  0.12508888040E+03 0.  0.
          5    1    3    3  502    0 -0.35475707933E+02 -0.96883444893E+02 -0.68439690620E+02  0.12388055295E+03  0.41800000000E+01 0. -1.
         -5    1    3    3    0  502 -0.83071659582E+01  0.27838239084E+02 -0.86665420120E+02  0.91500513693E+02  0.41800000000E+01 0. -1.
        -11    1    1    2    0    0  0.51502549154E+02  0.72387085387E-01  0.45943763106E+00  0.51504649229E+02  0.00000000000E+00 0.  1.
         11    1    1    2    0    0 -0.77196752635E+01  0.68972818724E+02 -0.23674770578E+02  0.73330333906E+02  0.00000000000E+00 0. -1.
</event>
<event>
 7    1  0.2840156E-009  0.3909638E+03  0.7561462E-02  0.1046954E+00
         -4   -1    0    0    0  501 -0.00000000000E+00  0.00000000000E+00  0.34438161189E+03  0.34438161189E+03  0.00000000000E+00 0. -1.
          4   -1    0    0  501    0  0.00000000000E+00 -0.00000000000E+00 -0.52097535303E+03  0.52097535303E+03  0.00000000000E+00 0.  1.
         25    2    1    2    0    0  0.19645618117E+03  0.32575093618E+03  0.67462257735E+02  0.40608789801E+03  0.12509005214E+03 0.  0.
          5    1    3    3  502    0  0.93215968869E+02  0.51466011528E+02  0.68254601502E+01  0.10678027206E+03  0.41800000000E+01 0. -1.
         -5    1    3    3    0  502  0.10324021230E+03  0.27428492466E+03  0.60636797585E+02  0.29930762595E+03  0.41800000000E+01 0. -1.
        -11    1    1    2    0    0 -0.22660074927E+02 -0.18446207463E+02 -0.45910501161E+02  0.54419809650E+02  0.00000000000E+00 0.  1.
         11    1    1    2    0    0 -0.17379610624E+03 -0.30730472872E+03 -0.19814549771E+03  0.40484925726E+03  0.00000000000E+00 0. -1.
</event>
<event>
 7    1  0.2840156E-009  0.9622313E+02  0.7561462E-02  0.1288445E+00
          1   -1    0    0  501    0  0.00000000000E+00  0.00000000000E+00  0.48467275989E+02  0.48467275989E+02  0.00000000000E+00 0. -1.
         -1   -1    0    0    0  501 -0.00000000000E+00 -0.00000000000E+00 -0.62499137862E+03  0.62499137862E+03  0.00000000000E+00 0.  1.
         25    2    1    2    0    0 -0.30157424203E+02  0.58135230298E+02 -0.75690388130E+02  0.16020640532E+03  0.12509149537E+03 0.  0.
          5    1    3    3  502    0  0.10850300038E+02  0.35954547725E+02  0.27606905885E+02  0.46798206863E+02  0.41800000000E+01 0.  1.
         -5    1    3    3    0  502 -0.41007724241E+02  0.22180682573E+02 -0.10329729402E+03  0.11340819846E+03  0.41800000000E+01 0.  1.
        -11    1    1    2    0    0 -0.10739420661E+02 -0.65431194747E+02 -0.37270407008E+03  0.37855633696E+03  0.00000000000E+00 0.  1.
         11    1    1    2    0    0  0.40896844864E+02  0.72959644486E+01 -0.12812964442E+03  0.13469591232E+03  0.00000000000E+00 0. -1.
</event>
<event>
 7    1  0.2840156E-009  0.1057817E+03  0.7561462E-02  0.1268587E+00
          2   -1    0    0  501    0  0.00000000000E+00  0.00000000000E+00  0.57871874237E+03  0.57871874237E+03  0.00000000000E+00 0. -1.
         -2   -1    0    0    0  501 -0.00000000000E+00 -0.00000000000E+00 -0.27859300890E+02  0.27859300890E+02  0.00000000000E+00 0.  1.
         25    2    1    2    0    0  0.39178706717E+02  0.15304661435E+02  0.42803411852E+03  0.44791738980E+03  0.12509027840E+03 0.  0.
          5    1    3    3  502    0 -0.30031646974E+02  0.30530873526E+02  0.64623905543E+02  0.77638621999E+02  0.41800000000E+01 0. -1.
         -5    1    3    3    0  502  0.69210353691E+02 -0.15226212091E+02  0.36341021297E+03  0.37027876780E+03  0.41800000000E+01 0. -1.
        -11    1    1    2    0    0 -0.54126881454E+02 -0.40942913476E+02  0.10156495070E+03  0.12215351272E+03  0.00000000000E+00 0.  1.
         11    1    1    2    0    0  0.14948174737E+02  0.25638252041E+02  0.21260372261E+02  0.36507140731E+02  0.00000000000E+00 0. -1.
</event>
<event>
 7    1  0.2840156E-009  0.1368208E+03  0.7561462E-02  0.1217672E+00
         -1   -1    0    0    0  501 -0.00000000000E+00  0.00000000000E+00  0.40814280326E+02  0.40814280326E+02  0.00000000000E+00 0.  1.
          1   -1    0    0  501    0  0.00000000000E+00 -0.00000000000E+00 -0.67507371132E+03  0.67507371132E+03  0.00000000000E+00 0. -1.
         25    2    1    2    0    0  0.11704231806E+03  0.31939056572E+02 -0.40594759500E+03  0.44176946738E+03  0.12509118625E+03 0.  0.
          5    1    3    3  502    0  0.11193746229E+03  0.16045769386E+02 -0.16423108926E+03  0.19944118245E+03  0.41800000000E+01 0. -1.
         -5    1    3    3    0  502  0.51048557676E+01  0.15893287186E+02 -0.24171650574E+03  0.24232828493E+03  0.41800000000E+01 0. -1.
        -11    1    1    2    0    0 -0.42706724025E+02  0.25136012851E+02 -0.12587459503E+03  0.13527785145E+03  0.00000000000E+00 0. -1.
         11    1    1    2    0    0 -0.74335594036E+02 -0.57075069423E+02 -0.10243724097E+03  0.13884067281E+03  0.00000000000E+00 0.  1.
</event>
<event>
 7    1  0.2840156E-009  0.9167531E+02  0.7561462E-02  0.1298845E+00
          1   -1    0    0  501    0  0.00000000000E+00  0.00000000000E+00  0.13171266027E+03  0.13171266027E+03  0.00000000000E+00 0. -1.
         -1   -1    0    0    0  501 -0.00000000000E+00 -0.00000000000E+00 -0.89536897155E+02  0.89536897155E+02  0.00000000000E+00 0.  1.
         25    2    1    2    0    0 -0.26321835782E+01 -0.24619779896E+01  0.75819182704E+01  0.12536886889E+03  0.12508748169E+03 0.  0.
          5    1    3    3  502    0  0.11372575191E+02  0.43824253295E+02 -0.37641430120E+02  0.59027538529E+02  0.41800000000E+01 0. -1.
         -5    1    3    3    0  502 -0.14004758769E+02 -0.46286231285E+02  0.45223348390E+02  0.66341330363E+02  0.41800000000E+01 0. -1.
        -11    1    1    2    0    0  0.42239944283E+02  0.19131748735E+02  0.15939618367E+02  0.49033744874E+02  0.00000000000E+00 0. -1.
         11    1    1    2    0    0 -0.39607760705E+02 -0.16669770746E+02  0.18654226482E+02  0.46846943661E+02  0.00000000000E+00 0.  1.
</event>
<event>
 7    1  0.2840156E-009  0.1490493E+03  0.7561462E-02  0.1201646E+00
          1   -1    0    0  501    0  0.00000000000E+00  0.00000000000E+00  0.10776168928E+04  0.10776168928E+04  0.00000000000E+00 0. -1.
         -1   -1    0    0    0  501 -0.00000000000E+00 -0.00000000000E+00 -0.24471075318E+02  0.24471075318E+02  0.00000000000E+00 0.  1.
         25    2    1    2    0    0 -0.10579094197E+03  0.52800515755E+02  0.48872376082E+03  0.51814794444E+03  0.12508701000E+03 0.  0.
          5    1    3    3  502    0 -0.37560405642E+02 -0.33315568978E+02  0.77163527951E+02  0.92154184138E+02  0.41800000000E+01 0. -1.
         -5    1    3    3    0  502 -0.68230536330E+02  0.86116084733E+02  0.41156023287E+03  0.42599376030E+03  0.41800000000E+01 0. -1.
        -11    1    1    2    0    0  0.70319954393E+02 -0.69228156715E+02  0.49040756451E+03  0.50023695685E+03  0.00000000000E+00 0. -1.
         11    1    1    2    0    0  0.35470987579E+02  0.16427640960E+02  0.74014492121E+02  0.83703066798E+02  0.00000000000E+00 0.  1.
</event>
<event>
 7    1  0.2840156E-009  0.1205667E+03  0.7561462E-02  0.1242165E+00
          1   -1    0    0  501    0  0.00000000000E+00  0.00000000000E+00  0.94854991876E+02  0.94854991876E+02  0.00000000000E+00 0. -1.
         -1   -1    0    0    0  501 -0.00000000000E+00 -0.00000000000E+00 -0.22243264852E+03  0.22243264852E+03  0.00000000000E+00 0.  1.
         25    2    1    2    0    0  0.29302674600E+02  0.75395685787E+02 -0.11864627308E+03  0.19044092628E+03  0.12509057564E+03 0.  0.
          5    1    3    3  502    0 -0.14436463412E+02  0.72911515465E+02 -0.12548352802E+03  0.14590438228E+03  0.41800000000E+01 0.  1.
         -5    1    3    3    0  502  0.43739138012E+02  0.24841703227E+01  0.68372549460E+01  0.44536544000E+02  0.41800000000E+01 0.  1.
        -11    1    1    2    0    0 -0.46244933124E+02 -0.86995906470E+00 -0.18514397865E+02  0.49821015613E+02  0.00000000000E+00 0. -1.
         11    1    1    2    0    0  0.16942258524E+02 -0.74525726723E+02  0.95830142953E+01  0.77025698507E+02  0.00000000000E+00 0.  1.
</event>
<event>
 7    1  0.2840156E-009  0.1792959E+03  0.7561462E-02  0.1168486E+00
          1   -1    0    0  501    0  0.00000000000E+00  0.00000000000E+00  0.13953430048E+03  0.13953430048E+03  0.00000000000E+00 0. -1.
         -1   -1    0    0    0  501 -0.00000000000E+00 -0.00000000000E+00 -0.33486587666E+03  0.33486587666E+03  0.00000000000E+00 0.  1.
         25    2    1    2    0    0 -0.14912655320E+03 -0.26599589455E+01  0.22329644850E+02  0.19593845517E+03  0.12508981143E+03 0.  0.
          5    1    3    3  502    0 -0.16528885439E+03 -0.19098014753E+02  0.45083341019E+01  0.16650206314E+03  0.41800000000E+01 0. -1.
         -5    1    3    3    0  502  0.16162301195E+02  0.16438055807E+02  0.17821310748E+02  0.29436392025E+02  0.41800000000E+01 0. -1.
        -11    1    1    2    0    0  0.16679820697E+02  0.29213484766E+02 -0.73887350605E+02  0.81184879689E+02  0.00000000000E+00 0.  1.
         11    1    1    2    0    0  0.13244673250E+03 -0.26553525820E+02 -0.14377387042E+03  0.19727684228E+03  0.00000000000E+00 0. -1.
</event>
<event>
 7    1  0.2840156E-009  0.1262502E+03  0.7561462E-02  0.1233128E+00
         -1   -1    0    0    0  501 -0.00000000000E+00  0.00000000000E+00  0.87921189444E+02  0.87921189444E+02  0.00000000000E+00 0.  1.
          1   -1    0    0  501    0  0.00000000000E+00 -0.00000000000E+00 -0.39535723010E+03  0.39535723010E+03  0.00000000000E+00 0. -1.
         25    2    1    2    0    0 -0.47742017680E+02 -0.92053743633E+02 -0.19632794758E+02  0.16366560621E+03  0.12509113500E+03 0.  0.
          5    1    3    3  502    0  0.14666076732E+02 -0.71845060670E+02  0.31966254444E+02  0.80100688964E+02  0.41800000000E+01 0.  1.
         -5    1    3    3    0  502 -0.62408094413E+02 -0.20208682963E+02 -0.51599049203E+02  0.83564917244E+02  0.41800000000E+01 0.  1.
        -11    1    1    2    0    0  0.34055679476E+02  0.18997939773E+02 -0.20358675752E+03  0.20728791295E+03  0.00000000000E+00 0. -1.
         11    1    1    2    0    0  0.13686338205E+02  0.73055803860E+02 -0.84216488380E+02  0.11232490038E+03  0.00000000000E+00 0.  1.
</event>
<event>
 7    1  0.2840156E-009  0.1010754E+03  0.7561462E-02  0.1278051E+00
          2   -1    0    0  501    0  0.00000000000E+00  0.00000000000E+00  0.22664087313E+03  0.22664087313E+03  0.00000000000E+00 0. -1.
         -2   -1    0    0    0  501 -0.00000000000E+00 -0.00000000000E+00 -0.72052057984E+02  0.72052057984E+02  0.00000000000E+00 0.  1.
         25    2    1    2    0    0 -0.60848590330E+02 -0.91091863972E+00  0.52886232466E+02  0.14882376854E+03  0.12509268475E+03 0.  0.
          5    1    3    3  502    0  0.18013548909E+01  0.49543121983E+02  0.46372472768E+02  0.68012090439E+02  0.41800000000E+01 0.  1.
         -5    1    3    3    0  502 -0.62649945221E+02 -0.50454040622E+02  0.65137596982E+01  0.80811678096E+02  0.41800000000E+01 0.  1.
        -11    1    1    2    0    0  0.40864916831E+02 -0.17708397771E+02 -0.26830429929E-01  0.44536833061E+02  0.00000000000E+00 0.  1.
         11    1    1    2    0    0  0.19983673499E+02  0.18619316410E+02  0.10172941311E+03  0.10533232952E+03  0.00000000000E+00 0. -1.
</event>
<event>
 7    1  0.2840156E-009  0.3784869E+02  0.7561462E-02  0.1524667E+00
         -1   -1    0    0    0  501 -0.00000000000E+00  0.00000000000E+00  0.23791143109E+03  0.23791143109E+03  0.00000000000E+00 0.  1.
          1   -1    0    0  501    0  0.00000000000E+00 -0.00000000000E+00 -0.56689004986E+02  0.56689004986E+02  0.00000000000E+00 0. -1.
         25    2    1    2    0    0  0.30976078150E+02 -0.10699270089E+02  0.13164813399E+03  0.18453457071E+03  0.12509110603E+03 0.  0.
          5    1    3    3  502    0 -0.41697908322E+01 -0.31646877513E+01 -0.23905997453E+02  0.24826830615E+02  0.41800000000E+01 0. -1.
         -5    1    3    3    0  502  0.35145868983E+02 -0.75345823372E+01  0.15555413145E+03  0.15970774010E+03  0.41800000000E+01 0. -1.
        -11    1    1    2    0    0 -0.17364932269E+02  0.68470351890E+01 -0.26651809643E+02  0.32538311586E+02  0.00000000000E+00 0. -1.
         11    1    1    2    0    0 -0.13611145881E+02  0.38522348995E+01  0.76226101758E+02  0.77527553780E+02  0.00000000000E+00 0.  1.
</event>
<event>
 7    1  0.2840156E-009  0.8117028E+02  0.7561462E-02  0.1325763E+00
         -1   -1    0    0    0  501 -0.00000000000E+00  0.00000000000E+00  0.76910500913E+02  0.76910500913E+02  0.00000000000E+00 0.  1.
          1   -1    0    0  501    0  0.00000000000E+00 -0.00000000000E+00 -0.20148895775E+03  0.20148895775E+03  0.00000000000E+00 0. -1.
         25    2    1    2    0    0  0.59299587104E+02 -0.39235611733E+01 -0.57370580033E+02  0.14990588662E+03  0.12509418863E+03 0.  0.
          5    1    3    3  502    0  0.26693227265E+02  0.41226193995E+01 -0.95259460250E+02  0.99102782703E+02  0.41800000000E+01 0. -1.
         -5    1    3    3    0  502  0.32606359840E+02 -0.80461805728E+01  0.37888880217E+02  0.50803103920E+02  0.41800000000E+01 0. -1.
        -11    1    1    2    0    0  0.39259970280E+00  0.34222046858E+02 -0.84857080539E+00  0.34234817045E+02  0.00000000000E+00 0.  1.
         11    1    1    2    0    0 -0.59692186807E+02 -0.30298485685E+02 -0.66359305999E+02  0.94258754996E+02  0.00000000000E+00 0. -1.
</event>
<event>
 7    1  0.2840156E-009  0.9737305E+02  0.7561462E-02  0.1285919E+00
          1   -1    0    0  501    0  0.00000000000E+00  0.00000000000E+00  0.56926864098E+03  0.56926864098E+03  0.00000000000E+00 0. -1.
         -1   -1    0    0    0  501 -0.00000000000E+00 -0.00000000000E+00 -0.30180489315E+02  0.30180489315E+02  0.00000000000E+00 0.  1.
         25    2    1    2    0    0 -0.14322742377E+02 -0.72868179422E+02  0.33905222411E+03  0.36894242733E+03  0.12508873447E+03 0.  0.
          5    1    3    3  502    0  0.29225714836E+02 -0.21398239127E+02  0.17634066973E+02  0.40502589589E+02  0.41800000000E+01 0.  1.
         -5    1    3    3    0  502 -0.43548457213E+02 -0.51469940295E+02  0.32141815713E+03  0.32843983774E+03  0.41800000000E+01 0.  1.
        -11    1    1    2    0    0 -0.15587389919E+02  0.51939361814E+02  0.42784777731E+02  0.69073882442E+02  0.00000000000E+00 0.  1.
         11    1    1    2    0    0  0.29910132297E+02  0.20928817608E+02  0.15725114983E+03  0.16143282052E+03  0.00000000000E+00 0. -1.
</event>
<event>
 7    1  0.2840156E-009  0.1000422E+03  0.7561462E-02  0.1280207E+00
         -2   -1    0    0    0  501 -0.00000000000E+00  0.00000000000E+00  0.46263775787E+02  0.46263775787E+02  0.00000000000E+00 0. -1.
          2   -1    0    0  501    0  0.00000000000E+00 -0.00000000000E+00 -0.41322239468E+03  0.41322239468E+03  0.00000000000E+00 0.  1.
         25    2    1    2    0    0  0.69002397170E+02  0.46646362567E+02 -0.22398344006E+03  0.26972996045E+03  0.12509378956E+03 0.  0.
          5    1    3    3  502    0  0.72192149716E+02  0.38750446315E+02 -0.51243845799E+02  0.96730076515E+02  0.41800000000E+01 0. -1.
         -5    1    3    3    0  502 -0.31897525457E+01  0.78959162513E+01 -0.17273959426E+03  0.17299988393E+03  0.41800000000E+01 0. -1.
        -11    1    1    2    0    0 -0.49057771529E+02 -0.65011676105E+02 -0.14067009095E+03  0.16254617026E+03  0.00000000000E+00 0.  1.
         11    1    1    2    0    0 -0.19944625641E+02  0.18365313538E+02 -0.23050878730E+01  0.27210039754E+02  0.00000000000E+00 0. -1.
</event>
<event>
 7    1  0.2840156E-009  0.3096650E+03  0.7561462E-02  0.1080507E+00
         -2   -1    0    0    0  501 -0.00000000000E+00  0.00000000000E+00  0.11407939570E+03  0.11407939570E+03  0.00000000000E+00 0. -1.
          2   -1    0    0  501    0  0.00000000000E+00 -0.00000000000E+00 -0.16337598764E+04  0.16337598764E+04  0.00000000000E+00 0.  1.
         25    2    1    2    0    0  0.28765894183E+03 -0.58771576005E+02 -0.16553856979E+03  0.35951606224E+03  0.12508803284E+03 0.  0.
          5    1    3    3  502    0 -0.97469439974E+01 -0.66974352070E+01  0.40651746792E+01  0.13185469306E+02  0.41800000000E+01 0. -1.
         -5    1    3    3    0  502  0.29740588583E+03 -0.52074140798E+02 -0.16960374447E+03  0.34633059294E+03  0.41800000000E+01 0. -1.
        -11    1    1    2    0    0 -0.20242722480E+03  0.20329780580E+01 -0.83593925041E+03  0.86010193856E+03  0.00000000000E+00 0.  1.
         11    1    1    2    0    0 -0.85231717033E+02  0.56738597947E+02 -0.51820266047E+03  0.52822127125E+03  0.00000000000E+00 0. -1.
</event>
<event>
 7    1  0.2840156E-009  0.1188366E+03  0.7561462E-02  0.1245029E+00
          2   -1    0    0  501    0  0.00000000000E+00  0.00000000000E+00  0.61200368410E+02  0.61200368410E+02  0.00000000000E+00 0.  1.
         -2   -1    0    0    0  501 -0.00000000000E+00 -0.00000000000E+00 -0.26440617592E+03  0.26440617592E+03  0.00000000000E+00 0. -1.
         25    2    1    2    0    0  0.62097947235E+01 -0.36506956671E+02 -0.16654652117E+03  0.21155789229E+03  0.12509068167E+03 0.  0.
          5    1    3    3  502    0  0.44510928477E+02  0.29292873224E+02 -0.57591403322E+02  0.78571860817E+02  0.41800000000E+01 0. -1.
         -5    1    3    3    0  502 -0.38301133754E+02 -0.65799829895E+02 -0.10895511785E+03  0.13298603147E+03  0.41800000000E+01 0. -1.
        -11    1    1    2    0    0  0.20303586944E+02 -0.30086812400E+02 -0.11241863266E+02  0.37997781683E+02  0.00000000000E+00 0.  1.
         11    1    1    2    0    0 -0.26513381667E+02  0.66593769071E+02 -0.25417423070E+02  0.76050870357E+02  0.00000000000E+00 0. -1.
</event>
<event>
 7    1  0.3482746E-009  0.1427636E+03  0.7561462E-02  0.1209658E+00
         -1   -1    0    0    0  501 -0.00000000000E+00  0.00000000000E+00  0.12894953375E+02  0.12894953375E+02  0.00000000000E+00 0.  1.
          1   -1    0    0  501    0  0.00000000000E+00 -0.00000000000E+00 -0.16945621026E+04  0.16945621026E+04  0.00000000000E+00 0. -1.
         25    2    1    2    0    0 -0.29601866726E+02  0.94548965564E+02 -0.99445488033E+03  0.10071767947E+04  0.12509520089E+03 0.  0.
          5    1    3    3  502    0  0.38246023293E+02  0.68596686107E+02 -0.67354387453E+03  0.67812025996E+03  0.41800000000E+01 0.  1.
         -5    1    3    3    0  502 -0.67847890019E+02  0.25952279458E+02 -0.32091100580E+03  0.32905653470E+03  0.41800000000E+01 0.  1.
        -11    1    1    2    0    0 -0.25186826713E+01 -0.10126842300E+03 -0.54459823931E+03  0.55393941864E+03  0.00000000000E+00 0.  1.
         11    1    1    2    0    0  0.32120549398E+02  0.67194574309E+01 -0.14261402957E+03  0.14634084266E+03  0.00000000000E+00 0. -1.
</event>
<event>
 7    1  0.2840156E-009  0.1754915E+03  0.7561462E-02  0.1172239E+00
         -2   -1    0    0    0  501 -0.00000000000E+00  0.00000000000E+00  0.98055028917E+02  0.98055028917E+02  0.00000000000E+00 0.  1.
          2   -1    0    0  501    0  0.00000000000E+00 -0.00000000000E+00 -0.32177771711E+03  0.32177771711E+03  0.00000000000E+00 0. -1.
         25    2    1    2    0    0  0.12703747965E+03  0.53900264842E+02 -0.14735736911E+03  0.23749795192E+03  0.12508926072E+03 0.  0.
          5    1    3    3  502    0  0.15297111947E+02  0.71031649047E+02 -0.64873059214E+02  0.97496066649E+02  0.41800000000E+01 0. -1.
         -5    1    3    3    0  502  0.11174036770E+03 -0.17131384205E+02 -0.82484309896E+02  0.14000188527E+03  0.41800000000E+01 0. -1.
        -11    1    1    2    0    0 -0.12559550636E+03 -0.15381739366E+02 -0.52456268299E+02  0.13697623592E+03  0.00000000000E+00 0.  1.
         11    1    1    2    0    0 -0.14419732911E+01 -0.38518525476E+02 -0.23909050788E+02  0.45358558194E+02  0.00000000000E+00 0. -1.
</event>
<event>
 7    1  0.2840156E-009  0.1406674E+03  0.7561462E-02  0.1212434E+00
         -1   -1    0    0    0  501 -0.00000000000E+00  0.00000000000E+00  0.14963600702E+02  0.14963600702E+02  0.00000000000E+00 0.  1.
          1   -1    0    0  501    0  0.00000000000E+00 -0.00000000000E+00 -0.17847634753E+04  0.17847634753E+04  0.00000000000E+00 0. -1.
         25    2    1    2    0    0  0.40585047941E+02 -0.10251921055E+03 -0.12372375906E+04  0.12484236712E+04  0.12508985805E+03 0.  0.
          5    1    3    3  502    0 -0.27939655472E+02 -0.31868560009E+02 -0.12968763960E+03  0.13650122978E+03  0.41800000000E+01 0. -1.
         -5    1    3    3    0  502  0.68524703413E+02 -0.70650650541E+02 -0.11075499510E+04  0.11119224414E+04  0.41800000000E+01 0. -1.
        -11    1    1    2    0    0  0.41143685469E+01  0.94781760162E+02 -0.40342251626E+03  0.41442760129E+03  0.00000000000E+00 0. -1.
         11    1    1    2    0    0 -0.44699416488E+02  0.77374503881E+01 -0.12913976772E+03  0.13687580349E+03  0.00000000000E+00 0.  1.
</event>
<event>
 7    1  0.2840156E-009  0.8618002E+02  0.7561462E-02  0.1312375E+00
          1   -1    0    0  501    0  0.00000000000E+00  0.00000000000E+00  0.46507118108E+03  0.46507118108E+03  0.00000000000E+00 0. -1.
         -1   -1    0    0    0  501 -0.00000000000E+00 -0.00000000000E+00 -0.33432323873E+02  0.33432323873E+02  0.00000000000E+00 0.  1.
         25    2    1    2    0    0 -0.13880294080E+02  0.20754785101E+02  0.35499957118E+03  0.37722048311E+03  0.12508866324E+03 0.  0.
          5    1    3    3  502    0 -0.66317543381E+02 -0.70588937888E+01  0.16150896710E+03  0.17478690853E+03  0.41800000000E+01 0. -1.
         -5    1    3    3    0  502  0.52437249300E+02  0.27813678889E+02  0.19349060408E+03  0.20243357457E+03  0.41800000000E+01 0. -1.
        -11    1    1    2    0    0 -0.13599853442E+02 -0.73137672718E+01  0.87476512215E+02  0.88828978350E+02  0.00000000000E+00 0. -1.
         11    1    1    2    0    0  0.27480147522E+02 -0.13441017829E+02 -0.10837226182E+02  0.32454043499E+02  0.00000000000E+00 0.  1.
</event>
<event>
 7    1  0.2840156E-009  0.9687890E+02  0.7561462E-02  0.1287000E+00
         -4   -1    0    0    0  501 -0.00000000000E+00  0.00000000000E+00  0.29985013585E+03  0.29985013585E+03  0.00000000000E+00 0. -1.
          4   -1    0    0  501    0  0.00000000000E+00 -0.00000000000E+00 -0.42877740799E+02  0.42877740799E+02  0.00000000000E+00 0.  1.
         25    2    1    2    0    0  0.31773485633E+02 -0.74416019272E+01  0.14244743077E+03  0.19236333012E+03  0.12508976142E+03 0.  0.
          5    1    3    3  502    0 -0.32640782316E+02  0.25221377401E+02  0.11939489099E+02  0.43145826544E+02  0.41800000000E+01 0.  1.
         -5    1    3    3    0  502  0.64414267949E+02 -0.32662979328E+02  0.13050794167E+03  0.14921750358E+03  0.41800000000E+01 0.  1.
        -11    1    1    2    0    0 -0.33658102616E+02 -0.28414341625E+02  0.10400744912E+03  0.11295039687E+03  0.00000000000E+00 0. -1.
         11    1    1    2    0    0  0.18846169826E+01  0.35855943552E+02  0.10517515159E+02  0.37414149653E+02  0.00000000000E+00 0.  1.
</event>
<event>
 7    1  0.2840156E-009  0.9421555E+02  0.7561462E-02  0.1292953E+00
         -2   -1    0    0    0  501 -0.00000000000E+00  0.00000000000E+00  0.37936065795E+02  0.37936065795E+02  0.00000000000E+00 0.  1.
          2   -1    0    0  501    0  0.00000000000E+00 -0.00000000000E+00 -0.36833779150E+03  0.36833779150E+03  0.00000000000E+00 0. -1.
         25    2    1    2    0    0 -0.18668865945E+02 -0.34395732634E+02 -0.23486573584E+03  0.26896310070E+03  0.12509053795E+03 0.  0.
          5    1    3    3  502    0 -0.66671591164E+02 -0.35672111016E+02 -0.97956353320E+02  0.12381647761E+03  0.41800000000E+01 0.  1.
         -5    1    3    3    0  502  0.48002725220E+02  0.12763783822E+01 -0.13690938252E+03  0.14514662308E+03  0.41800000000E+01 0.  1.
        -11    1    1    2    0    0 -0.28847317459E+01  0.41656181506E+02 -0.10475446818E+03  0.11276993278E+03  0.00000000000E+00 0. -1.
         11    1    1    2    0    0  0.21553597691E+02 -0.72604488726E+01  0.92184783178E+01  0.24540823819E+02  0.00000000000E+00 0.  1.
</event>
<event>
 7    1  0.2840156E-009  0.1122770E+03  0.7561462E-02  0.1256410E+00
          3   -1    0    0  501    0  0.00000000000E+00  0.00000000000E+00  0.41099103998E+02  0.41099103998E+02  0.00000000000E+00 0. -1.
         -3   -1    0    0    0  501 -0.00000000000E+00 -0.00000000000E+00 -0.32735912507E+03  0.32735912507E+03  0.00000000000E+00 0.  1.
         25    2    1    2    0    0 -0.40601294964E+02 -0.80604446174E-01 -0.14726457880E+03  0.19744277109E+03  0.12509324536E+03 0.  0.
          5    1    3    3  502    0 -0.59792172755E+02 -0.46558911744E+02 -0.60444251818E+02  0.97024822408E+02  0.41800000000E+01 0.  1.
         -5    1    3    3    0  502  0.19190877791E+02  0.46478307298E+02 -0.86820326983E+02  0.10041794868E+03  0.41800000000E+01 0.  1.
        -11    1    1    2    0    0  0.40634079040E+02  0.40739893812E+02 -0.95343176116E+02  0.11136062392E+03  0.00000000000E+00 0.  1.
         11    1    1    2    0    0 -0.32784076169E-01 -0.40659289366E+02 -0.43652266151E+02  0.59654834060E+02  0.00000000000E+00 0. -1.
</event>
<event>
 7    1  0.2840156E-009  0.2447079E+03  0.7561462E-02  0.1116696E+00
         -1   -1    0    0    0  501 -0.00000000000E+00  0.00000000000E+00  0.26782658014E+03  0.26782658014E+03  0.00000000000E+00 0.  1.
          1   -1    0    0  501    0  0.00000000000E+00 -0.00000000000E+00 -0.59470675583E+03  0.59470675583E+03  0.00000000000E+00 0. -1.
         25    2    1    2    0    0  0.22667273914E+03 -0.52062718928E+02 -0.49543340269E+03  0.56142067671E+03  0.12509141604E+03 0.  0.
          5    1    3    3  502    0  0.47762547974E+02  0.31889242440E+02 -0.18171019250E+03  0.19061545381E+03  0.41800000000E+01 0. -1.
         -5    1    3    3    0  502  0.17891019117E+03 -0.83951961367E+02 -0.31372321018E+03  0.37080522290E+03  0.41800000000E+01 0. -1.
        -11    1    1    2    0    0 -0.11912654141E+03  0.13402169064E+02  0.34063301761E+02  0.12462367163E+03  0.00000000000E+00 0. -1.
         11    1    1    2    0    0 -0.10754619774E+03  0.38660549864E+02  0.13448992524E+03  0.17648898763E+03  0.00000000000E+00 0.  1.
</event>
<event>
 7    1  0.2840156E-009  0.9796229E+02  0.7561462E-02  0.1284640E+00
          1   -1    0    0  501    0  0.00000000000E+00  0.00000000000E+00  0.32011093366E+03  0.32011093366E+03  0.00000000000E+00 0. -1.
         -1   -1    0    0    0  501 -0.00000000000E+00 -0.00000000000E+00 -0.58032401733E+02  0.58032401733E+02  0.00000000000E+00 0.  1.
         25    2    1    2    0    0  0.16844324755E+02 -0.80071653014E+02  0.15381359725E+03  0.21447828790E+03  0.12508841828E+03 0.  0.
          5    1    3    3  502    0  0.11737806605E+02 -0.67027673933E+02  0.17552728212E+03  0.18830237477E+03  0.41800000000E+01 0. -1.
         -5    1    3    3    0  502  0.51065181502E+01 -0.13043979081E+02 -0.21713684862E+02  0.26175913129E+02  0.41800000000E+01 0. -1.
        -11    1    1    2    0    0  0.31001450215E+02  0.40734999170E+02  0.18143675144E+02  0.54310431968E+02  0.00000000000E+00 0.  1.
         11    1    1    2    0    0 -0.47845774970E+02  0.39336653844E+02  0.90121259531E+02  0.10935461553E+03  0.00000000000E+00 0. -1.
</event>
<event>
 7    1  0.2840156E-009  0.9703337E+02  0.7561462E-02  0.1286661E+00
         -1   -1    0    0    0  501 -0.00000000000E+00  0.00000000000E+00  0.49662554064E+02  0.49662554064E+02  0.00000000000E+00 0.  1.
          1   -1    0    0  501    0  0.00000000000E+00 -0.00000000000E+00 -0.48883774047E+03  0.48883774047E+03  0.00000000000E+00 0. -1.
         25    2    1    2    0    0  0.22493901321E+02  0.56983199719E+02 -0.39877702671E+03  0.42240272330E+03  0.12509149840E+03 0.  0.
          5    1    3    3  502    0 -0.96213951081E+01 -0.27804665412E+02 -0.21906484430E+03  0.22107136646E+03  0.41800000000E+01 0. -1.
         -5    1    3    3    0  502  0.32115296429E+02  0.84787865131E+02 -0.17971218241E+03  0.20133135683E+03  0.41800000000E+01 0. -1.
        -11    1    1    2    0    0 -0.34524248232E+02 -0.41742686901E+02  0.15973336694E+02  0.56475863082E+02  0.00000000000E+00 0.  1.
         11    1    1    2    0    0  0.12030346910E+02 -0.15240512818E+02 -0.56371496391E+02  0.59621708153E+02  0.00000000000E+00 0. -1.
</event>
<event>
 7    1  0.2840156E-009  0.1887198E+03  0.7561462E-02  0.1159621E+00
         -1   -1    0    0    0  501 -0.00000000000E+00  0.00000000000E+00  0.20033677659E+02  0.20033677659E+02  0.00000000000E+00 0.  1.
          1   -1    0    0  501    0  0.00000000000E+00 -0.00000000000E+00 -0.20332239692E+04  0.20332239692E+04  0.00000000000E+00 0. -1.
         25    2    1    2    0    0 -0.94867176613E+02 -0.13733145715E+03 -0.12009939291E+04  0.12189720354E+04  0.12508675028E+03 0.  0.
          5    1    3    3  502    0 -0.25545768366E+02  0.19275588620E+02 -0.30860276161E+03  0.31028579000E+03  0.41800000000E+01 0.  1.
         -5    1    3    3    0  502 -0.69321408247E+02 -0.15660704577E+03 -0.89239116748E+03  0.90868624542E+03  0.41800000000E+01 0.  1.
        -11    1    1    2    0    0  0.43430284841E+02  0.24538268953E+02 -0.10428097263E+03  0.11559774019E+03  0.00000000000E+00 0.  1.
         11    1    1    2    0    0  0.51436891772E+02  0.11279318820E+03 -0.70791538982E+03  0.71868787125E+03  0.00000000000E+00 0. -1.
</event>
<event>
 7    1  0.2840156E-009  0.1131883E+03  0.7561462E-02  0.1254777E+00
          3   -1    0    0  501    0  0.00000000000E+00  0.00000000000E+00  0.21720058287E+03  0.21720058287E+03  0.00000000000E+00 0. -1.
         -3   -1    0    0    0  501 -0.00000000000E+00 -0.00000000000E+00 -0.66520325409E+02  0.66520325409E+02  0.00000000000E+00 0.  1.
         25    2    1    2    0    0 -0.11957738253E+00  0.52447455205E+02  0.87302471804E+02  0.16130982638E+03  0.12509351960E+03 0.  0.
          5    1    3    3  502    0 -0.54709666938E+02  0.34172268505E+02  0.80425011364E+02  0.10318210331E+03  0.41800000000E+01 0.  1.
         -5    1    3    3    0  502  0.54590089555E+02  0.18275186699E+02  0.68774604399E+01  0.58127723065E+02  0.41800000000E+01 0.  1.
        -11    1    1    2    0    0 -0.25976708416E+02  0.16174204953E+02  0.25314879329E+02  0.39714448270E+02  0.00000000000E+00 0. -1.
         11    1    1    2    0    0  0.26096285798E+02 -0.68621660157E+02  0.38062906324E+02  0.82696633626E+02  0.00000000000E+00 0.  1.
</event>
<event>
 7    1  0.2840156E-009  0.1150878E+03  0.7561462E-02  0.1251428E+00
         -2   -1    0    0    0  501 -0.00000000000E+00  0.00000000000E+00  0.13201212376E+03  0.13201212376E+03  0.00000000000E+00 0.  1.
          2   -1    0    0  501    0  0.00000000000E+00 -0.00000000000E+00 -0.13828178528E+03  0.13828178528E+03  0.00000000000E+00 0. -1.
         25    2    1    2    0    0 -0.12270066509E+02 -0.76518811258E+02 -0.32476538537E+02  0.15069205668E+03  0.12509071661E+03 0.  0.
          5    1    3    3  502    0  0.38866105717E+02 -0.26985800922E+02  0.29747848869E+02  0.56046539031E+02  0.41800000000E+01 0.  1.
         -5    1    3    3    0  502 -0.51136172225E+02 -0.49533010336E+02 -0.62224387406E+02  0.94645517648E+02  0.41800000000E+01 0.  1.
        -11    1    1    2    0    0  0.37096094155E+01  0.92848367911E+02  0.73240680757E+01  0.93210635654E+02  0.00000000000E+00 0.  1.
         11    1    1    2    0    0  0.85604570932E+01 -0.16329556654E+02  0.18882808942E+02  0.26391216715E+02  0.00000000000E+00 0. -1.
</event>
<event>
 7    1  0.2840156E-009  0.1538066E+03  0.7561462E-02  0.1195872E+00
          1   -1    0    0  501    0  0.00000000000E+00  0.00000000000E+00  0.69234676808E+02  0.69234676808E+02  0.00000000000E+00 0. -1.
         -1   -1    0    0    0  501 -0.00000000000E+00 -0.00000000000E+00 -0.52118098299E+03  0.52118098299E+03  0.00000000000E+00 0.  1.
         25    2    1    2    0    0 -0.12434525440E+03 -0.74437311983E+02 -0.15152318745E+03  0.24414907225E+03  0.12508731926E+03 0.  0.
          5    1    3    3  502    0 -0.13071754530E+03 -0.68102164358E+02 -0.72148356159E+02  0.16415797006E+03  0.41800000000E+01 0. -1.
         -5    1    3    3    0  502  0.63722908982E+01 -0.63351476255E+01 -0.79374831289E+02  0.79991102186E+02  0.41800000000E+01 0. -1.
        -11    1    1    2    0    0  0.28490534914E+02 -0.63253612378E+00 -0.81374015714E+01  0.29636598759E+02  0.00000000000E+00 0. -1.
         11    1    1    2    0    0  0.95854719487E+02  0.75069848107E+02 -0.29228571716E+03  0.31662998878E+03  0.00000000000E+00 0.  1.
</event>
<event>
 7    1  0.2840156E-009  0.1144955E+03  0.7561462E-02  0.1252464E+00
          1   -1    0    0  501    0  0.00000000000E+00  0.00000000000E+00  0.47836417078E+02  0.47836417078E+02  0.00000000000E+00 0. -1.
         -1   -1    0    0    0  501 -0.00000000000E+00 -0.00000000000E+00 -0.52890614601E+03  0.52890614601E+03  0.00000000000E+00 0.  1.
         25    2    1    2    0    0  0.77310472690E+02  0.83091164908E+02 -0.20077597406E+03  0.26237332669E+03  0.12509084669E+03 0.  0.
          5    1    3    3  502    0  0.52598279516E+02  0.51949457043E+02 -0.19262814853E+02  0.76510479878E+02  0.41800000000E+01 0. -1.
         -5    1    3    3    0  502  0.24712193174E+02  0.31141707866E+02 -0.18151315920E+03  0.18586284681E+03  0.41800000000E+01 0. -1.
        -11    1    1    2    0    0 -0.49835528019E+02 -0.40173364051E+02 -0.24281859237E+03  0.25111421273E+03  0.00000000000E+00 0.  1.
         11    1    1    2    0    0 -0.27474944671E+02 -0.42917800857E+02 -0.37475162503E+02  0.63255023671E+02  0.00000000000E+00 0. -1.
</event>
<event>
 7    1  0.2840156E-009  0.1277994E+03  0.7561462E-02  0.1230758E+00
         -2   -1    0    0    0  501 -0.00000000000E+00  0.00000000000E+00  0.65000461241E+03  0.65000461241E+03  0.00000000000E+00 0.  1.
          2   -1    0    0  501    0  0.00000000000E+00 -0.00000000000E+00 -0.33721310445E+02  0.33721310445E+02  0.00000000000E+00 0. -1.
         25    2    1    2    0    0  0.67752528692E+02  0.30914320657E+02  0.49168458371E+03  0.51278207773E+03  0.12508248889E+03 0.  0.
          5    1    3    3  502    0 -0.29493548551E+02  0.30305021172E+02  0.90830624880E+02  0.10027930260E+03  0.41800000000E+01 0.  1.
         -5    1    3    3    0  502  0.97246077243E+02  0.60929948487E+00  0.40085395883E+03  0.41250277513E+03  0.41800000000E+01 0.  1.
        -11    1    1    2    0    0  0.19175881730E+02 -0.20738008195E+02  0.20271884660E+02  0.34766776263E+02  0.00000000000E+00 0. -1.
         11    1    1    2    0    0 -0.86928410422E+02 -0.10176312461E+02  0.10432683360E+03  0.13617706886E+03  0.00000000000E+00 0.  1.
</event>
<event>
 7    1  0.2992963E-009  0.1210643E+03  0.7561462E-02  0.1241352E+00
          2   -1    0    0  501    0  0.00000000000E+00  0.00000000000E+00  0.11027733974E+04  0.11027733974E+04  0.00000000000E+00 0. -1.
         -2   -1    0    0    0  501 -0.00000000000E+00 -0.00000000000E+00 -0.18578139745E+02  0.18578139745E+02  0.00000000000E+00 0.  1.
         25    2    1    2    0    0  0.48768464622E+02 -0.76578280741E+02  0.66187334276E+03  0.67968084262E+03  0.12508848767E+03 0.  0.
          5    1    3    3  502    0  0.50304265553E+02  0.13781130563E+02  0.38153137555E+03  0.38510271568E+03  0.41800000000E+01 0. -1.
         -5    1    3    3    0  502 -0.15358009314E+01 -0.90359411304E+02  0.28034196721E+03  0.29457812694E+03  0.41800000000E+01 0. -1.
        -11    1    1    2    0    0 -0.27314554048E+02  0.95170320986E+01  0.25222628464E+02  0.38377594368E+02  0.00000000000E+00 0.  1.
         11    1    1    2    0    0 -0.21453910574E+02  0.67061248642E+02  0.39709928641E+03  0.40329310013E+03  0.00000000000E+00 0. -1.
</event>
<event>
 7    1  0.2840156E-009  0.9904031E+02  0.7561462E-02  0.1282327E+00
         -2   -1    0    0    0  501 -0.00000000000E+00  0.00000000000E+00  0.28840807816E+02  0.28840807816E+02  0.00000000000E+00 0.  1.
          2   -1    0    0  501    0  0.00000000000E+00 -0.00000000000E+00 -0.41395389312E+03  0.41395389312E+03  0.00000000000E+00 0. -1.
         25    2    1    2    0    0 -0.10201035758E+02  0.44564180798E+02 -0.21554257288E+03  0.25336912722E+03  0.12508911450E+03 0.  0.
          5    1    3    3  502    0 -0.57190397388E+02  0.26585784827E+02 -0.50878082241E+02  0.81139368747E+02  0.41800000000E+01 0. -1.
         -5    1    3    3    0  502  0.46989361629E+02  0.17978395971E+02 -0.16466449064E+03  0.17222975848E+03  0.41800000000E+01 0. -1.
        -11    1    1    2    0    0 -0.21464689837E+02  0.80972168190E+01 -0.48624978603E+02  0.53765103684E+02  0.00000000000E+00 0. -1.
         11    1    1    2    0    0  0.31665725596E+02 -0.52661397617E+02 -0.12094553382E+03  0.13566047003E+03  0.00000000000E+00 0.  1.
</event>
<event>
 7    1  0.2840156E-009  0.1262052E+03  0.7561462E-02  0.1233198E+00
         -2   -1    0    0    0  501 -0.00000000000E+00  0.00000000000E+00  0.51923252568E+02  0.51923252568E+02  0.00000000000E+00 0. -1.
          2   -1    0    0  501    0  0.00000000000E+00 -0.00000000000E+00 -0.43987205523E+03  0.43987205523E+03  0.00000000000E+00 0.  1.
         25    2    1    2    0    0 -0.53768121758E+02 -0.58409195519E+02 -0.32402600839E+03  0.35628968982E+03  0.12508734517E+03 0.  0.
          5    1    3    3  502    0 -0.79244127001E+02 -0.58671896161E+01 -0.11963758628E+03  0.14368256689E+03  0.41800000000E+01 0. -1.
         -5    1    3    3    0  502  0.25476005242E+02 -0.52542005902E+02 -0.20438842211E+03  0.21260712293E+03  0.41800000000E+01 0. -1.
        -11    1    1    2    0    0  0.69290905803E+02  0.18860917423E+02 -0.20330603245E+02  0.74634424104E+02  0.00000000000E+00 0. -1.
         11    1    1    2    0    0 -0.15522784044E+02  0.39548278096E+02 -0.43592191027E+02  0.60871193872E+02  0.00000000000E+00 0.  1.
</event>
<event>
 7    1  0.2840156E-009  0.1066211E+03  0.7561462E-02  0.1266958E+00
         -3   -1    0    0    0  501 -0.00000000000E+00  0.00000000000E+00  0.19058936388E+02  0.19058936388E+02  0.00000000000E+00 0.  1.
          3   -1    0    0  501    0  0.00000000000E+00 -0.00000000000E+00 -0.68750167589E+03  0.68750167589E+03  0.00000000000E+00 0. -1.
         25    2    1    2    0    0  0.30677142849E+02  0.22363215007E+02 -0.34943225710E+03  0.37308443067E+03  0.12509152501E+03 0.  0.
          5    1    3    3  502    0 -0.39023092706E+02 -0.19191660677E+02 -0.17928072993E+03  0.18452689269E+03  0.41800000000E+01 0.  1.
         -5    1    3    3    0  502  0.69700235556E+02  0.41554875685E+02 -0.17015152717E+03  0.18855753798E+03  0.41800000000E+01 0.  1.
        -11    1    1    2    0    0 -0.23111752176E+02  0.28603817914E+02 -0.68757509361E+02  0.77973883970E+02  0.00000000000E+00 0.  1.
         11    1    1    2    0    0 -0.75653906736E+01 -0.50967032921E+02 -0.25025297304E+03  0.25550229763E+03  0.00000000000E+00 0. -1.
</event>
<event>
 7    1  0.2840156E-009  0.1546644E+03  0.7561462E-02  0.1194856E+00
          1   -1    0    0  501    0  0.00000000000E+00  0.00000000000E+00  0.28110241647E+03  0.28110241647E+03  0.00000000000E+00 0. -1.
         -1   -1    0    0    0  501 -0.00000000000E+00 -0.00000000000E+00 -0.88691971207E+02  0.88691971207E+02  0.00000000000E+00 0.  1.
         25    2    1    2    0    0 -0.10108967991E+03 -0.54136317711E+02  0.95457479470E+02  0.19470497763E+03  0.12509210065E+03 0.  0.
          5    1    3    3  502    0 -0.12357715061E+03 -0.63312679240E+02  0.59519531412E+02  0.15112860261E+03  0.41800000000E+01 0.  1.
         -5    1    3    3    0  502  0.22487470699E+02  0.91763615287E+01  0.35937948058E+02  0.43576375021E+02  0.41800000000E+01 0.  1.
        -11    1    1    2    0    0  0.11564517257E+03  0.59750225451E+02  0.87595679689E+02  0.15689773256E+03  0.00000000000E+00 0.  1.
         11    1    1    2    0    0 -0.14555492662E+02 -0.56139077395E+01  0.93572861002E+01  0.18191677490E+02  0.00000000000E+00 0. -1.
</event>
<event>
 7    1  0.2840156E-009  0.1020306E+03  0.7561462E-02  0.1276083E+00
         -1   -1    0    0    0  501 -0.00000000000E+00  0.00000000000E+00  0.88667924569E+02  0.88667924569E+02  0.00000000000E+00 0.  1.
          1   -1    0    0  501    0  0.00000000000E+00 -0.00000000000E+00 -0.17126768204E+03  0.17126768204E+03  0.00000000000E+00 0. -1.
         25    2    1    2    0    0 -0.56042782504E+02 -0.41514765092E+01 -0.65328199235E+02  0.15190770559E+03  0.12510055625E+03 0.  0.
          5    1    3    3  502    0 -0.73060153545E+02  0.27155822361E+02 -0.78111066574E+00  0.78059639110E+02  0.41800000000E+01 0. -1.
         -5    1    3    3    0  502  0.17017371041E+02 -0.31307298870E+02 -0.64547088570E+02  0.73848066478E+02  0.41800000000E+01 0. -1.
        -11    1    1    2    0    0 -0.16697359379E+02 -0.32544614106E+01  0.19755649585E+02  0.26070654380E+02  0.00000000000E+00 0.  1.
         11    1    1    2    0    0  0.72740141883E+02  0.74059379198E+01 -0.37027207816E+02  0.81957246637E+02  0.00000000000E+00 0. -1.
</event>
<event>
 7    1  0.2840156E-009  0.1063329E+03  0.7561462E-02  0.1267515E+00
          1   -1    0    0  501    0  0.00000000000E+00  0.00000000000E+00  0.22511112811E+03  0.22511112811E+03  0.00000000000E+00 0. -1.
         -1   -1    0    0    0  501 -0.00000000000E+00 -0.00000000000E+00 -0.88978703139E+02  0.88978703139E+02  0.00000000000E+00 0.  1.
         25    2    1    2    0    0 -0.80977226223E+02 -0.13380378621E+02  0.10911110865E+03  0.18517309173E+03  0.12508994432E+03 0.  0.
          5    1    3    3  502    0  0.13889636705E+02 -0.15155517227E+02  0.84493792221E+02  0.87059089325E+02  0.41800000000E+01 0.  1.
         -5    1    3    3    0  502 -0.94866862928E+02  0.17751386062E+01  0.24617316426E+02  0.98114002400E+02  0.41800000000E+01 0.  1.
        -11    1    1    2    0    0  0.85151881859E+02  0.26441846386E+01 -0.13976121281E+02  0.86331724543E+02  0.00000000000E+00 0.  1.
         11    1    1    2    0    0 -0.41746556355E+01  0.10736193982E+02  0.40997437608E+02  0.42585014985E+02  0.00000000000E+00 0. -1.
</event>
<event>
 7    1  0.2840156E-009  0.2766976E+03  0.7561462E-02  0.1097506E+00
         -3   -1    0    0    0  501 -0.00000000000E+00  0.00000000000E+00  0.26363472478E+03  0.26363472478E+03  0.00000000000E+00 0.  1.
          3   -1    0    0  501    0  0.00000000000E+00 -0.00000000000E+00 -0.33975887742E+03  0.33975887742E+03  0.00000000000E+00 0. -1.
         25    2    1    2    0    0  0.17586510198E+03  0.20032709635E+03  0.42614939321E+02  0.29752815499E+03  0.12508992898E+03 0.  0.
          5    1    3    3  502    0  0.23009373594E+02  0.10283747424E+03 -0.16594090003E+02  0.10676054329E+03  0.41800000000E+01 0. -1.
         -5    1    3    3    0  502  0.15285572838E+03  0.97489622117E+02  0.59209029324E+02  0.19076761170E+03  0.41800000000E+01 0. -1.
        -11    1    1    2    0    0 -0.16095674980E+03 -0.18454605071E+03 -0.13417648344E+03  0.27922687702E+03  0.00000000000E+00 0. -1.
         11    1    1    2    0    0 -0.14908352176E+02 -0.15781045639E+02  0.15437391474E+02  0.26638570186E+02  0.00000000000E+00 0.  1.
</event>
<event>
 7    1  0.2840156E-009  0.9407113E+02  0.7561462E-02  0.1293282E+00
          2   -1    0    0  501    0  0.00000000000E+00  0.00000000000E+00  0.17859072897E+03  0.17859072897E+03  0.00000000000E+00 0. -1.
         -2   -1    0    0    0  501 -0.00000000000E+00 -0.00000000000E+00 -0.73211887209E+02  0.73211887209E+02  0.00000000000E+00 0.  1.
         25    2    1    2    0    0 -0.11832128847E+02 -0.14082905297E+02  0.21786428479E+02  0.12829654095E+03  0.12508807481E+03 0.  0.
          5    1    3    3  502    0 -0.37975011798E+02 -0.44146064225E+02 -0.27707061165E+02  0.64622984657E+02  0.41800000000E+01 0.  1.
         -5    1    3    3    0  502  0.26142882950E+02  0.30063158928E+02  0.49493489644E+02  0.63673556291E+02  0.41800000000E+01 0.  1.
        -11    1    1    2    0    0 -0.29957188814E+02  0.32353286310E+02  0.51175066408E+02  0.67550393918E+02  0.00000000000E+00 0.  1.
         11    1    1    2    0    0  0.41789317662E+02 -0.18270381012E+02  0.32417346879E+02  0.55955681317E+02  0.00000000000E+00 0. -1.
</event>
<event>
 7    1  0.2840156E-009  0.9649294E+02  0.7561462E-02  0.1287849E+00
          1   -1    0    0  501    0  0.00000000000E+00  0.00000000000E+00  0.69556194162E+02  0.69556194162E+02  0.00000000000E+00 0. -1.
         -1   -1    0    0    0  501 -0.00000000000E+00 -0.00000000000E+00 -0.35499410585E+03  0.35499410585E+03  0.00000000000E+00 0.  1.
         25    2    1    2    0    0 -0.20154130698E+02  0.92163808264E+02 -0.23933977895E+03  0.28606277916E+03  0.12509207527E+03 0.  0.
          5    1    3    3  502    0 -0.92317954607E+01  0.99176517100E+01  0.13711302076E+02  0.19724554938E+02  0.41800000000E+01 0. -1.
         -5    1    3    3    0  502 -0.10922335237E+02  0.82246156554E+02 -0.25305108103E+03  0.26633822422E+03  0.41800000000E+01 0. -1.
        -11    1    1    2    0    0  0.42801636743E+00 -0.39399574342E+02 -0.67556859878E+02  0.78207665692E+02  0.00000000000E+00 0.  1.
         11    1    1    2    0    0  0.19726114330E+02 -0.52764233922E+02  0.21458727137E+02  0.60279855161E+02  0.00000000000E+00 0. -1.
</event>
<event>
 7    1  0.2840156E-009  0.1260127E+03  0.7561462E-02  0.1233495E+00
         -1   -1    0    0    0  501 -0.00000000000E+00  0.00000000000E+00  0.10895347329E+03  0.10895347329E+03  0.00000000000E+00 0.  1.
          1   -1    0    0  501    0  0.00000000000E+00 -0.00000000000E+00 -0.18444337275E+03  0.18444337275E+03  0.00000000000E+00 0. -1.
         25    2    1    2    0    0 -0.76043375603E+02  0.47519297389E+02 -0.40232177130E+02  0.15908136517E+03  0.12509026369E+03 0.  0.
          5    1    3    3  502    0  0.17099925985E+02 -0.27420117877E+02  0.87105696055E+00  0.32596034625E+02  0.41800000000E+01 0. -1.
         -5    1    3    3    0  502 -0.93143301588E+02  0.74939415266E+02 -0.41103234090E+02  0.12648533055E+03  0.41800000000E+01 0. -1.
        -11    1    1    2    0    0  0.89872805913E+01  0.85553577704E+01 -0.44704262041E+02  0.46394357455E+02  0.00000000000E+00 0. -1.
         11    1    1    2    0    0  0.67056095012E+02 -0.56074655160E+02  0.94465397062E+01  0.87921123412E+02  0.00000000000E+00 0.  1.
</event>
<event>
 7    1  0.2840156E-009  0.9058080E+02  0.7561462E-02  0.1301451E+00
          1   -1    0    0  501    0  0.00000000000E+00  0.00000000000E+00  0.13900358348E+03  0.13900358348E+03  0.00000000000E+00 0. -1.
         -1   -1    0    0    0  501 -0.00000000000E+00 -0.00000000000E+00 -0.98808495438E+02  0.98808495438E+02  0.00000000000E+00 0.  1.
         25    2    1    2    0    0 -0.14307781726E+02  0.38429274777E+02  0.10635364952E+02  0.13207078631E+03  0.12509220532E+03 0.  0.
          5    1    3    3  502    0 -0.26709150681E+02  0.81882886133E+02  0.83093622454E+01  0.86629692787E+02  0.41800000000E+01 0.  1.
         -5    1    3    3    0  502  0.12401368955E+02 -0.43453611356E+02  0.23260027070E+01  0.45441093521E+02  0.41800000000E+01 0.  1.
        -11    1    1    2    0    0 -0.11127685789E+01 -0.33270701088E+02 -0.29502755951E+02  0.44481349052E+02  0.00000000000E+00 0.  1.
         11    1    1    2    0    0  0.15420550305E+02 -0.51585736889E+01  0.59062479038E+02  0.61259943555E+02  0.00000000000E+00 0. -1.
</event>
<event>
 7    1  0.2840156E-009  0.9082279E+02  0.7561462E-02  0.1300871E+00
          1   -1    0    0  501    0  0.00000000000E+00  0.00000000000E+00  0.44021686187E+03  0.44021686187E+03  0.00000000000E+00 0. -1.
         -1   -1    0    0    0  501 -0.00000000000E+00 -0.00000000000E+00 -0.28525685000E+02  0.28525685000E+02  0.00000000000E+00 0.  1.
         25    2    1    2    0    0  0.29836875120E+01 -0.15950585176E+02  0.18505401564E+03  0.22395611985E+03  0.12509209151E+03 0.  0.
          5    1    3    3  502    0 -0.27752627506E+02  0.30833059192E+02  0.15454001741E+03  0.16006553425E+03  0.41800000000E+01 0. -1.
         -5    1    3    3    0  502  0.30736315018E+02 -0.46783644368E+02  0.30513998226E+02  0.63890585605E+02  0.41800000000E+01 0. -1.
        -11    1    1    2    0    0 -0.30309945092E+02 -0.21714369800E+02  0.51548430124E+02  0.63619551048E+02  0.00000000000E+00 0.  1.
         11    1    1    2    0    0  0.27326257580E+02  0.37664954976E+02  0.17508873111E+03  0.18116687597E+03  0.00000000000E+00 0. -1.
</event>
<event>
 7    1  0.2840156E-009  0.9338659E+02  0.7561462E-02  0.1294852E+00
         -1   -1    0    0    0  501 -0.00000000000E+00  0.00000000000E+00  0.72771124229E+02  0.72771124229E+02  0.00000000000E+00 0.  1.
          1   -1    0    0  501    0  0.00000000000E+00 -0.00000000000E+00 -0.20014370536E+03  0.20014370536E+03  0.00000000000E+00 0. -1.
         25    2    1    2    0    0  0.42809977490E+02  0.25127258038E+02 -0.10546091042E+03  0.17097986013E+03  0.12509210876E+03 0.  0.
          5    1    3    3  502    0  0.79658854708E+02  0.37098512217E+02 -0.97283380388E+02  0.13116158447E+03  0.41800000000E+01 0. -1.
         -5    1    3    3    0  502 -0.36848877218E+02 -0.11971254179E+02 -0.81775300296E+01  0.39818275656E+02  0.41800000000E+01 0. -1.
        -11    1    1    2    0    0 -0.57448623819E+01 -0.21881857816E+02  0.30305149444E+02  0.37818265800E+02  0.00000000000E+00 0.  1.
         11    1    1    2    0    0 -0.37065115108E+02 -0.32454002225E+01 -0.52216820153E+02  0.64116703654E+02  0.00000000000E+00 0. -1.
</event>
<event>
 7    1  0.2840156E-009  0.8613362E+02  0.7561462E-02  0.1312494E+00
          2   -1    0    0  501    0  0.00000000000E+00  0.00000000000E+00  0.86198796671E+02  0.86198796671E+02  0.00000000000E+00 0. -1.
         -2   -1    0    0    0  501 -0.00000000000E+00 -0.00000000000E+00 -0.14047382337E+03  0.14047382337E+03  0.00000000000E+00 0.  1.
         25    2    1    2    0    0 -0.11791782149E+02 -0.19162255552E+02 -0.31449451792E+02  0.13093089279E+03  0.12509033737E+03 0.  0.
          5    1    3    3  502    0  0.17027278714E+02 -0.67950803407E+02 -0.19996557327E+02  0.72969682807E+02  0.41800000000E+01 0.  1.
         -5    1    3    3    0  502 -0.28819060863E+02  0.48788547855E+02 -0.11452894465E+02  0.57961209981E+02  0.41800000000E+01 0.  1.
        -11    1    1    2    0    0  0.14400627711E+02  0.30451964169E+02 -0.53348570601E+02  0.63093345017E+02  0.00000000000E+00 0.  1.
         11    1    1    2    0    0 -0.26088455620E+01 -0.11289708618E+02  0.30522995698E+02  0.32648382230E+02  0.00000000000E+00 0. -1.
</event>
<event>
 7    1  0.2840156E-009  0.9340467E+02  0.7561462E-02  0.1294810E+00
         -3   -1    0    0    0  501 -0.00000000000E+00  0.00000000000E+00  0.22210311992E+03  0.22210311992E+03  0.00000000000E+00 0.  1.
          3   -1    0    0  501    0  0.00000000000E+00 -0.00000000000E+00 -0.98280630455E+02  0.98280630455E+02  0.00000000000E+00 0. -1.
         25    2    1    2    0    0 -0.21929704441E+02 -0.48636724249E+02  0.15194945801E+03  0.20392558982E+03  0.12510222024E+03 0.  0.
          5    1    3    3  502    0  0.49584636954E+02 -0.11229647701E+02  0.84303061036E+02  0.98535372884E+02  0.41800000000E+01 0.  1.
         -5    1    3    3    0  502 -0.71514341395E+02 -0.37407076548E+02  0.67646396979E+02  0.10539021693E+03  0.41800000000E+01 0.  1.
        -11    1    1    2    0    0  0.36710659455E+01  0.24205203018E+02  0.37101513626E+02  0.44450994271E+02  0.00000000000E+00 0.  1.
         11    1    1    2    0    0  0.18258638496E+02  0.24431521231E+02 -0.65228482177E+02  0.72007166285E+02  0.00000000000E+00 0. -1.
</event>
<event>
 7    1  0.2840156E-009  0.1295712E+03  0.7561462E-02  0.1228093E+00
          1   -1    0    0  501    0  0.00000000000E+00  0.00000000000E+00  0.73755519372E+03  0.73755519372E+03  0.00000000000E+00 0. -1.
         -1   -1    0    0    0  501 -0.00000000000E+00 -0.00000000000E+00 -0.28923569323E+02  0.28923569323E+02  0.00000000000E+00 0.  1.
         25    2    1    2    0    0 -0.49978565802E+02 -0.79952580834E+02  0.35105815352E+03  0.38442135723E+03  0.12509068918E+03 0.  0.
          5    1    3    3  502    0 -0.13541206585E+02 -0.10846620898E+03  0.22790180795E+03  0.25279436155E+03  0.41800000000E+01 0.  1.
         -5    1    3    3    0  502 -0.36437359217E+02  0.28513628145E+02  0.12315634557E+03  0.13162699568E+03  0.41800000000E+01 0.  1.
        -11    1    1    2    0    0  0.35401252513E+02  0.18117600585E+02  0.34044933219E+02  0.52350297118E+02  0.00000000000E+00 0.  1.
         11    1    1    2    0    0  0.14577313289E+02  0.61834980250E+02  0.32352853766E+03  0.32970710869E+03  0.00000000000E+00 0. -1.
</event>
<event>
 7    1  0.2840156E-009  0.1558582E+03  0.7561462E-02  0.1193454E+00
          2   -1    0    0  501    0  0.00000000000E+00  0.00000000000E+00  0.48826420493E+03  0.48826420493E+03  0.00000000000E+00 0. -1.
         -2   -1    0    0    0  501 -0.00000000000E+00 -0.00000000000E+00 -0.60077650510E+02  0.60077650510E+02  0.00000000000E+00 0.  1.
         25    2    1    2    0    0  0.10995238492E+03  0.33198008891E+02  0.33099526402E+03  0.37201762509E+03  0.12509042262E+03 0.  0.
          5    1    3    3  502    0  0.10656746774E+03  0.73167250356E+02  0.24535337709E+03  0.27735504999E+03  0.41800000000E+01 0.  1.
         -5    1    3    3    0  502  0.33849171747E+01 -0.39969241465E+02  0.85641886933E+02  0.94662575102E+02  0.41800000000E+01 0.  1.
        -11    1    1    2    0    0 -0.67360969921E+02  0.23319112638E+02  0.25820291795E+02  0.75815359600E+02  0.00000000000E+00 0.  1.
         11    1    1    2    0    0 -0.42591414996E+02 -0.56517121530E+02  0.71370998606E+02  0.10050887075E+03  0.00000000000E+00 0. -1.
</event>
<event>
 7    1  0.2840156E-009  0.1383040E+03  0.7561462E-02  0.1215629E+00
         -2   -1    0    0    0  501 -0.00000000000E+00  0.00000000000E+00  0.25009718619E+03  0.25009718619E+03  0.00000000000E+00 0.  1.
          2   -1    0    0  501    0  0.00000000000E+00 -0.00000000000E+00 -0.87363792252E+02  0.87363792252E+02  0.00000000000E+00 0. -1.
         25    2    1    2    0    0 -0.92050138537E+02 -0.42018680882E+02  0.79526090318E+02  0.17947256118E+03  0.12508878298E+03 0.  0.
          5    1    3    3  502    0 -0.48794749903E+02  0.31259306667E+02 -0.64241503286E+01  0.58453519816E+02  0.41800000000E+01 0.  1.
         -5    1    3    3    0  502 -0.43255388634E+02 -0.73277987550E+02  0.85950240647E+02  0.12101904136E+03  0.41800000000E+01 0.  1.
        -11    1    1    2    0    0  0.81818560558E+02 -0.80469260017E+01  0.41868008527E+02  0.92260284022E+02  0.00000000000E+00 0.  1.
         11    1    1    2    0    0  0.10231577979E+02  0.50065606884E+02  0.41339295092E+02  0.65728133241E+02  0.00000000000E+00 0. -1.
</event>
<event>
 7    1  0.2840156E-009  0.8400485E+02  0.7561462E-02  0.1318056E+00
          4   -1    0    0  501    0  0.00000000000E+00  0.00000000000E+00  0.15678865837E+03  0.15678865837E+03  0.00000000000E+00 0. -1.
         -4   -1    0    0    0  501 -0.00000000000E+00 -0.00000000000E+00 -0.86087080009E+02  0.86087080009E+02  0.00000000000E+00 0.  1.
         25    2    1    2    0    0  0.11770816901E+02  0.85307576697E+01  0.41076214513E+01  0.12599944865E+03  0.12509061735E+03 0.  0.
          5    1    3    3  502    0 -0.56289723381E+02 -0.39345301675E+01  0.32595221231E+01  0.56675482975E+02  0.41800000000E+01 0. -1.
         -5    1    3    3    0  502  0.68060540282E+02  0.12465287837E+02  0.84809932818E+00  0.69323965674E+02  0.41800000000E+01 0. -1.
        -11    1    1    2    0    0  0.10746979452E+02 -0.15208218904E+02 -0.19897547479E+02  0.27252520714E+02  0.00000000000E+00 0.  1.
         11    1    1    2    0    0 -0.22517796353E+02  0.66774612347E+01  0.86491504391E+02  0.89623769018E+02  0.00000000000E+00 0. -1.
</event>
<event>
 7    1  0.2840156E-009  0.8206345E+02  0.7561462E-02  0.1323296E+00
         -1   -1    0    0    0  501 -0.00000000000E+00  0.00000000000E+00  0.11974272296E+02  0.11974272296E+02  0.00000000000E+00 0.  1.
          1   -1    0    0  501    0  0.00000000000E+00 -0.00000000000E+00 -0.13656260345E+04  0.13656260345E+04  0.00000000000E+00 0. -1.
         25    2    1    2    0    0  0.25167834937E+02 -0.35664281002E+02 -0.10043273754E+04  0.10130285674E+04  0.12509212823E+03 0.  0.
          5    1    3    3  502    0  0.78703168580E+01 -0.50859213158E+02 -0.97063485433E+03  0.97200725012E+03  0.41800000000E+01 0.  1.
         -5    1    3    3    0  502  0.17297518079E+02  0.15194932156E+02 -0.33692521027E+02  0.41021317240E+02  0.41800000000E+01 0.  1.
        -11    1    1    2    0    0 -0.35669752446E+02 -0.14008557481E+02 -0.62686936953E+02  0.73472600245E+02  0.00000000000E+00 0.  1.
         11    1    1    2    0    0  0.10501917509E+02  0.49672838483E+02 -0.28663744989E+03  0.29109913918E+03  0.00000000000E+00 0. -1.
</event>
<event>
 7    1  0.2840156E-009  0.1644135E+03  0.7561462E-02  0.1183802E+00
          1   -1    0    0  501    0  0.00000000000E+00  0.00000000000E+00  0.19727558465E+04  0.19727558465E+04  0.00000000000E+00 0. -1.
         -1   -1    0    0    0  501 -0.00000000000E+00 -0.00000000000E+00 -0.16179115704E+02  0.16179115704E+02  0.00000000000E+00 0.  1.
         25    2    1    2    0    0 -0.21778940135E+02  0.13255638596E+03  0.12666528716E+04  0.12798830703E+04  0.12508260785E+03 0.  0.
          5    1    3    3  502    0  0.34091935498E+02  0.89642436459E+02  0.97916636621E+03  0.98386090053E+03  0.41800000000E+01 0.  1.
         -5    1    3    3    0  502 -0.55870875633E+02  0.42913949500E+02  0.28748650540E+03  0.29602216977E+03  0.41800000000E+01 0.  1.
        -11    1    1    2    0    0 -0.28665487333E+02 -0.11098142334E+02  0.98659252787E+02  0.10333695896E+03  0.00000000000E+00 0.  1.
         11    1    1    2    0    0  0.50444427468E+02 -0.12145824363E+03  0.59126460637E+03  0.60571493291E+03  0.00000000000E+00 0. -1.
</event>
<event>
 7    1  0.2840156E-009  0.1231883E+03  0.7561462E-02  0.1237928E+00
          2   -1    0    0  501    0  0.00000000000E+00  0.00000000000E+00  0.77832995059E+03  0.77832995059E+03  0.00000000000E+00 0. -1.
         -2   -1    0    0    0  501 -0.00000000000E+00 -0.00000000000E+00 -0.37000642991E+02  0.37000642991E+02  0.00000000000E+00 0.  1.
         25    2    1    2    0    0  0.51353375936E+02  0.74728529001E+02  0.61838065349E+03  0.63738685366E+03  0.12508335755E+03 0.  0.
          5    1    3    3  502    0  0.78870351171E+02  0.94869186889E+01  0.25395053697E+03  0.26611817215E+03  0.41800000000E+01 0. -1.
         -5    1    3    3    0  502 -0.27516975235E+02  0.65241610312E+02  0.36443011652E+03  0.37126868150E+03  0.41800000000E+01 0. -1.
        -11    1    1    2    0    0 -0.10920542883E+02 -0.43385396160E+02 -0.40666670185E-01  0.44738713779E+02  0.00000000000E+00 0.  1.
         11    1    1    2    0    0 -0.40432833052E+02 -0.31343132841E+02  0.12298932078E+03  0.13320502615E+03  0.00000000000E+00 0. -1.
</event>
<event>
 7    1  0.3926574E-009  0.1657165E+03  0.7561462E-02  0.1182390E+00
         -2   -1    0    0    0  501 -0.00000000000E+00  0.00000000000E+00  0.41367422112E+02  0.41367422112E+02  0.00000000000E+00 0.  1.
          2   -1    0    0  501    0  0.00000000000E+00 -0.00000000000E+00 -0.86932676853E+03  0.86932676853E+03  0.00000000000E+00 0. -1.
         25    2    1    2    0    0 -0.69342983003E+02 -0.12269565692E+03 -0.59059024711E+03  0.61992475242E+03  0.12508870919E+03 0.  0.
          5    1    3    3  502    0 -0.10515643125E+03 -0.89759772411E+02 -0.46638580073E+03  0.48646467426E+03  0.41800000000E+01 0.  1.
         -5    1    3    3    0  502  0.35813448249E+02 -0.32935884505E+02 -0.12420444638E+03  0.13346007817E+03  0.41800000000E+01 0.  1.
        -11    1    1    2    0    0  0.38175170320E+02  0.37297384706E+02 -0.23373068898E+02  0.58264387790E+02  0.00000000000E+00 0.  1.
         11    1    1    2    0    0  0.31167812683E+02  0.85398272210E+02 -0.21399603041E+03  0.23250505043E+03  0.00000000000E+00 0. -1.
</event>
<event>
 7    1  0.2840156E-009  0.2026559E+03  0.7561462E-02  0.1147517E+00
         -2   -1    0    0    0  501 -0.00000000000E+00  0.00000000000E+00  0.39003275993E+02  0.39003275993E+02  0.00000000000E+00 0.  1.
          2   -1    0    0  501    0  0.00000000000E+00 -0.00000000000E+00 -0.12845457324E+04  0.12845457324E+04  0.00000000000E+00 0. -1.
         25    2    1    2    0    0  0.10201941582E+03 -0.14057006896E+03 -0.38258003505E+03  0.43838364844E+03  0.12507931289E+03 0.  0.
          5    1    3    3  502    0  0.45774565305E+02 -0.14928623546E+03 -0.26313445662E+03  0.30600474765E+03  0.41800000000E+01 0.  1.
         -5    1    3    3    0  502  0.56244850511E+02  0.87161665032E+01 -0.11944557843E+03  0.13237890079E+03  0.41800000000E+01 0.  1.
        -11    1    1    2    0    0  0.12826447773E+02  0.36581686016E+01 -0.24746813274E+02  0.28112358977E+02  0.00000000000E+00 0.  1.
         11    1    1    2    0    0 -0.11484586359E+03  0.13691190036E+03 -0.83821560813E+03  0.85705300102E+03  0.00000000000E+00 0. -1.
</event>
<event>
 7    1  0.2840156E-009  0.9399472E+02  0.7561462E-02  0.1293456E+00
          1   -1    0    0  501    0  0.00000000000E+00  0.00000000000E+00  0.19928815731E+03  0.19928815731E+03  0.00000000000E+00 0. -1.
         -1   -1    0    0    0  501 -0.00000000000E+00 -0.00000000000E+00 -0.89551352849E+02  0.89551352849E+02  0.00000000000E+00 0.  1.
         25    2    1    2    0    0  0.38911507292E+02  0.59625605542E+02  0.92709420036E+02  0.17120419751E+03  0.12508606016E+03 0.  0.
          5    1    3    3  502    0  0.18432886026E+02  0.19596431998E+01 -0.29139609341E+02  0.34787939308E+02  0.41800000000E+01 0.  1.
         -5    1    3    3    0  502  0.20478621267E+02  0.57665962342E+02  0.12184902938E+03  0.13641625820E+03  0.41800000000E+01 0.  1.
        -11    1    1    2    0    0 -0.62841172422E+02 -0.30195231148E+02 -0.10854435941E+02  0.70559079608E+02  0.00000000000E+00 0.  1.
         11    1    1    2    0    0  0.23929665130E+02 -0.29430374394E+02  0.27881820362E+02  0.47076233036E+02  0.00000000000E+00 0. -1.
</event>
<event>
 7    1  0.2840156E-009  0.1467583E+03  0.7561462E-02  0.1204514E+00
         -1   -1    0    0    0  501 -0.00000000000E+00  0.00000000000E+00  0.15137725689E+03  0.15137725689E+03  0.00000000000E+00 0.  1.
          1   -1    0    0  501    0  0.00000000000E+00 -0.00000000000E+00 -0.21164942203E+03  0.21164942203E+03  0.00000000000E+00 0. -1.
         25    2    1    2    0    0  0.11105416111E+02 -0.13903166805E+03 -0.58076141875E+02  0.19614470168E+03  0.12508705272E+03 0.  0.
          5    1    3    3  502    0  0.20266674418E+02 -0.16607254571E+02 -0.67914407917E+02  0.72913498058E+02  0.41800000000E+01 0.  1.
         -5    1    3    3    0  502 -0.91612583072E+01 -0.12242441348E+03  0.98382660414E+01  0.12323120363E+03  0.41800000000E+01 0.  1.
        -11    1    1    2    0    0  0.32197172193E+00  0.12881976158E+03  0.29072255785E+02  0.13205995114E+03  0.00000000000E+00 0.  1.
         11    1    1    2    0    0 -0.11427387833E+02  0.10211906467E+02 -0.31268279050E+02  0.34822026091E+02  0.00000000000E+00 0. -1.
</event>
<event>
 7    1  0.2840156E-009  0.1279566E+03  0.7561462E-02  0.1230520E+00
         -2   -1    0    0    0  501 -0.00000000000E+00  0.00000000000E+00  0.31465939372E+02  0.31465939372E+02  0.00000000000E+00 0.  1.
          2   -1    0    0  501    0  0.00000000000E+00 -0.00000000000E+00 -0.69037954756E+03  0.69037954756E+03  0.00000000000E+00 0. -1.
         25    2    1    2    0    0 -0.74863857575E+02 -0.38675975447E+02 -0.46742660503E+03  0.49115754310E+03  0.12509065834E+03 0.  0.
          5    1    3    3  502    0  0.30220978831E+02 -0.33815791637E+02 -0.14152102606E+03  0.14866905711E+03  0.41800000000E+01 0. -1.
         -5    1    3    3    0  502 -0.10508483641E+03 -0.48601838106E+01 -0.32590557896E+03  0.34248848598E+03  0.41800000000E+01 0. -1.
        -11    1    1    2    0    0  0.22141625699E+02  0.46772199092E+02 -0.28250352546E+02  0.58957379652E+02  0.00000000000E+00 0.  1.
         11    1    1    2    0    0  0.52722231876E+02 -0.80962236448E+01 -0.16323665062E+03  0.17173056419E+03  0.00000000000E+00 0. -1.
</event>
<event>
 7    1  0.2840156E-009  0.1095204E+03  0.7561462E-02  0.1261461E+00
          1   -1    0    0  501    0  0.00000000000E+00  0.00000000000E+00  0.13357511838E+03  0.13357511838E+03  0.00000000000E+00 0. -1.
         -1   -1    0    0    0  501 -0.00000000000E+00 -0.00000000000E+00 -0.11875975679E+03  0.11875975679E+03  0.00000000000E+00 0.  1.
         25    2    1    2    0    0 -0.40643291953E+02  0.46837650832E+02  0.21182027151E+02  0.14121517163E+03  0.12508958273E+03 0.  0.
          5    1    3    3  502    0 -0.15393854774E+02  0.73573827988E+02  0.53275621121E+02  0.92227127981E+02  0.41800000000E+01 0. -1.
         -5    1    3    3    0  502 -0.25249437179E+02 -0.26736177156E+02 -0.32093593970E+02  0.48988043651E+02  0.41800000000E+01 0. -1.
        -11    1    1    2    0    0 -0.27226056824E+02 -0.19914953785E+02 -0.16245208647E+02  0.37440223803E+02  0.00000000000E+00 0.  1.
         11    1    1    2    0    0  0.67869348778E+02 -0.26922697048E+02  0.98785430885E+01  0.73679479731E+02  0.00000000000E+00 0. -1.
</event>
<event>
 7    1  0.2840156E-009  0.8178568E+02  0.7561462E-02  0.1324059E+00
         -2   -1    0    0    0  501 -0.00000000000E+00  0.00000000000E+00  0.85794650329E+01  0.85794650329E+01  0.00000000000E+00 0.  1.
          2   -1    0    0  501    0  0.00000000000E+00 -0.00000000000E+00 -0.18551742633E+04  0.18551742633E+04  0.00000000000E+00 0. -1.
         25    2    1    2    0    0  0.47045897713E+02  0.14664625988E+02 -0.13359807772E+04  0.13427288647E+04  0.12509116377E+03 0.  0.
          5    1    3    3  502    0  0.50991346416E+02  0.17730607944E+02 -0.21449034422E+03  0.22121951097E+03  0.41800000000E+01 0.  1.
         -5    1    3    3    0  502 -0.39454487030E+01 -0.30659819556E+01 -0.11214904329E+04  0.11215093537E+04  0.41800000000E+01 0.  1.
        -11    1    1    2    0    0 -0.45711705758E+02 -0.49886216681E+02 -0.36383879813E+03  0.37007683754E+03  0.00000000000E+00 0.  1.
         11    1    1    2    0    0 -0.13341919554E+01  0.35221590693E+02 -0.14677522293E+03  0.15094802611E+03  0.00000000000E+00 0. -1.
</event>
<event>
 7    1  0.2840156E-009  0.1023877E+03  0.7561462E-02  0.1275354E+00
         -2   -1    0    0    0  501 -0.00000000000E+00  0.00000000000E+00  0.35838761709E+03  0.35838761709E+03  0.00000000000E+00 0.  1.
          2   -1    0    0  501    0  0.00000000000E+00 -0.00000000000E+00 -0.84901719328E+02  0.84901719328E+02  0.00000000000E+00 0. -1.
         25    2    1    2    0    0 -0.78834057914E+01  0.72504079630E+02  0.29204629672E+03  0.32597096301E+03  0.12508812752E+03 0.  0.
          5    1    3    3  502    0 -0.37852023224E+02  0.25302607491E+02  0.25430897702E+03  0.25838638858E+03  0.41800000000E+01 0.  1.
         -5    1    3    3    0  502  0.29968617432E+02  0.47201472139E+02  0.37737319695E+02  0.67584574428E+02  0.41800000000E+01 0.  1.
        -11    1    1    2    0    0 -0.18354733825E+01 -0.86185000976E+02 -0.35724300353E+02  0.93313712773E+02  0.00000000000E+00 0. -1.
         11    1    1    2    0    0  0.97188791739E+01  0.13680921346E+02  0.17163901398E+02  0.24004660640E+02  0.00000000000E+00 0.  1.
</event>
<event>
 7    1  0.2840156E-009  0.1264586E+03  0.7561462E-02  0.1232807E+00
         -3   -1    0    0    0  501 -0.00000000000E+00  0.00000000000E+00  0.51782875452E+02  0.51782875452E+02  0.00000000000E+00 0.  1.
          3   -1    0    0  501    0  0.00000000000E+00 -0.00000000000E+00 -0.47533306296E+03  0.47533306296E+03  0.00000000000E+00 0. -1.
         25    2    1    2    0    0  0.60062764508E+02 -0.92769047292E+02 -0.18757946222E+03  0.25109198295E+03  0.12508995740E+03 0.  0.
          5    1    3    3  502    0  0.41153626110E+02 -0.16254521227E+02  0.32714041791E+01  0.44564614748E+02  0.41800000000E+01 0. -1.
         -5    1    3    3    0  502  0.18909138398E+02 -0.76514526065E+02 -0.19085086640E+03  0.20652736821E+03  0.41800000000E+01 0. -1.
        -11    1    1    2    0    0 -0.11776390261E+02 -0.10351852320E+02 -0.19867016580E+01  0.15804784008E+02  0.00000000000E+00 0. -1.
         11    1    1    2    0    0 -0.48286374246E+02  0.10312089961E+03 -0.23398402363E+03  0.26021917145E+03  0.00000000000E+00 0.  1.
</event>
<event>
 7    1  0.2840156E-009  0.1216966E+03  0.7561462E-02  0.1240324E+00
         -2   -1    0    0    0  501 -0.00000000000E+00  0.00000000000E+00  0.11449097565E+03  0.11449097565E+03  0.00000000000E+00 0.  1.
          2   -1    0    0  501    0  0.00000000000E+00 -0.00000000000E+00 -0.21262435702E+03  0.21262435702E+03  0.00000000000E+00 0. -1.
         25    2    1    2    0    0 -0.61997576325E+02  0.50050636226E+02 -0.13651754404E+03  0.20157744086E+03  0.12509060388E+03 0.  0.
          5    1    3    3  502    0  0.14676274789E+02 -0.17722299941E+02 -0.82573129110E+02  0.85821133807E+02  0.41800000000E+01 0. -1.
         -5    1    3    3    0  502 -0.76673851114E+02  0.67772936167E+02 -0.53944414926E+02  0.11575630705E+03  0.41800000000E+01 0. -1.
        -11    1    1    2    0    0  0.20125496289E+02  0.24728977179E+02  0.63919664793E+00  0.31889911971E+02  0.00000000000E+00 0.  1.
         11    1    1    2    0    0  0.41872080035E+02 -0.74779613404E+02  0.37744966020E+02  0.93647979836E+02  0.00000000000E+00 0. -1.
</event>
<event>
 7    1  0.2840156E-009  0.1228109E+03  0.7561462E-02  0.1238531E+00
          3   -1    0    0  501    0  0.00000000000E+00  0.00000000000E+00  0.16479047359E+03  0.16479047359E+03  0.00000000000E+00 0. -1.
         -3   -1    0    0    0  501 -0.00000000000E+00 -0.00000000000E+00 -0.13093749397E+03  0.13093749397E+03  0.00000000000E+00 0.  1.
         25    2    1    2    0    0  0.30436060502E+01 -0.88791926240E+02  0.60211489670E+02  0.16482055547E+03  0.12508845796E+03 0.  0.
          5    1    3    3  502    0 -0.49630261683E+02 -0.87366779917E+02  0.40015301443E+02  0.10823499368E+03  0.41800000000E+01 0. -1.
         -5    1    3    3    0  502  0.52673867733E+02 -0.14251463236E+01  0.20196188228E+02  0.56585561789E+02  0.41800000000E+01 0. -1.
        -11    1    1    2    0    0 -0.13919082901E+02  0.47610441676E+02 -0.59119207954E+02  0.77172377017E+02  0.00000000000E+00 0.  1.
         11    1    1    2    0    0  0.10875476851E+02  0.41181484564E+02  0.32760697895E+02  0.53735035072E+02  0.00000000000E+00 0. -1.
</event>
<event>
 7    1  0.2840156E-009  0.9255310E+02  0.7561462E-02  0.1296784E+00
          2   -1    0    0  501    0  0.00000000000E+00  0.00000000000E+00  0.54474997388E+02  0.54474997388E+02  0.00000000000E+00 0. -1.
         -2   -1    0    0    0  501 -0.00000000000E+00 -0.00000000000E+00 -0.24418555613E+03  0.24418555613E+03  0.00000000000E+00 0.  1.
         25    2    1    2    0    0 -0.11978064388E+02 -0.79364910011E+01 -0.15353825040E+03  0.19856348680E+03  0.12508797720E+03 0.  0.
          5    1    3    3  502    0  0.47843578847E+02  0.86722713272E+01 -0.11610994736E+03  0.12594923026E+03  0.41800000000E+01 0.  1.
         -5    1    3    3    0  502 -0.59821643235E+02 -0.16608762328E+02 -0.37428303038E+02  0.72614256546E+02  0.41800000000E+01 0.  1.
        -11    1    1    2    0    0 -0.30317641003E+02 -0.27847551109E+01 -0.46196921320E+02  0.55326935180E+02  0.00000000000E+00 0.  1.
         11    1    1    2    0    0  0.42295705391E+02  0.10721246112E+02  0.10024612971E+02  0.44770131538E+02  0.00000000000E+00 0. -1.
</event>
<event>
 7    1  0.2840156E-009  0.1789221E+03  0.7561462E-02  0.1168850E+00
          1   -1    0    0  501    0  0.00000000000E+00  0.00000000000E+00  0.55582149610E+02  0.55582149610E+02  0.00000000000E+00 0. -1.
         -1   -1    0    0    0  501 -0.00000000000E+00 -0.00000000000E+00 -0.67808688237E+03  0.67808688237E+03  0.00000000000E+00 0.  1.
         25    2    1    2    0    0 -0.65002693741E+02 -0.12438462766E+03 -0.19495959631E+03  0.27083929094E+03  0.12509113291E+03 0.  0.
          5    1    3    3  502    0 -0.92991041096E+02 -0.53591394971E+02 -0.84698330886E+02  0.13678688166E+03  0.41800000000E+01 0. -1.
         -5    1    3    3    0  502  0.27988347356E+02 -0.70793232685E+02 -0.11026126542E+03  0.13405240928E+03  0.41800000000E+01 0. -1.
        -11    1    1    2    0    0 -0.28419390019E+02  0.32207868615E+02 -0.14620469434E+03  0.15238379565E+03  0.00000000000E+00 0.  1.
         11    1    1    2    0    0  0.93422083760E+02  0.92176759041E+02 -0.28134044212E+03  0.31044594540E+03  0.00000000000E+00 0. -1.
</event>
<event>
 7    1  0.2840156E-009  0.7041200E+02  0.7561462E-02  0.1358698E+00
          2   -1    0    0  501    0  0.00000000000E+00  0.00000000000E+00  0.17228441583E+02  0.17228441583E+02  0.00000000000E+00 0.  1.
         -2   -1    0    0    0  501 -0.00000000000E+00 -0.00000000000E+00 -0.72485856831E+03  0.72485856831E+03  0.00000000000E+00 0. -1.
         25    2    1    2    0    0  0.15818238789E+02  0.81856435770E+01 -0.47222770811E+03  0.48884032699E+03  0.12509450646E+03 0.  0.
          5    1    3    3  502    0  0.28868397210E+02  0.14634575671E+02 -0.47256613871E+03  0.47369165394E+03  0.41800000000E+01 0.  1.
         -5    1    3    3    0  502 -0.13050158421E+02 -0.64489320939E+01  0.33843059355E+00  0.15148673051E+02  0.41800000000E+01 0.  1.
        -11    1    1    2    0    0 -0.24217439663E+02  0.38568721228E+02 -0.10453419265E+03  0.11402380486E+03  0.00000000000E+00 0. -1.
         11    1    1    2    0    0  0.83992008739E+01 -0.46754364805E+02 -0.13086822596E+03  0.13922287804E+03  0.00000000000E+00 0.  1.
</event>
<event>
 7    1  0.2840156E-009  0.9763623E+02  0.7561462E-02  0.1285347E+00
          2   -1    0    0  501    0  0.00000000000E+00  0.00000000000E+00  0.10333989375E+03  0.10333989375E+03  0.00000000000E+00 0. -1.
         -2   -1    0    0    0  501 -0.00000000000E+00 -0.00000000000E+00 -0.14116995972E+03  0.14116995972E+03  0.00000000000E+00 0.  1.
         25    2    1    2    0    0  0.40280800343E+02  0.34810123264E+01  0.15814703967E+02  0.13241186977E+03  0.12509251805E+03 0.  0.
          5    1    3    3  502    0  0.63667042999E+02  0.22484921011E+02 -0.32706811310E+02  0.75141679135E+02  0.41800000000E+01 0.  1.
         -5    1    3    3    0  502 -0.23386242657E+02 -0.19003908685E+02  0.48521515278E+02  0.57270190638E+02  0.41800000000E+01 0.  1.
        -11    1    1    2    0    0  0.26403845839E+02 -0.13683875941E+02 -0.24826508798E+02  0.38739735092E+02  0.00000000000E+00 0.  1.
         11    1    1    2    0    0 -0.66684646182E+02  0.10202863614E+02 -0.28818261144E+02  0.73358248600E+02  0.00000000000E+00 0. -1.
</event>
<event>
 7    1  0.2840156E-009  0.1049110E+03  0.7561462E-02  0.1270295E+00
         -1   -1    0    0    0  501 -0.00000000000E+00  0.00000000000E+00  0.31347448963E+03  0.31347448963E+03  0.00000000000E+00 0.  1.
          1   -1    0    0  501    0  0.00000000000E+00 -0.00000000000E+00 -0.79248835478E+02  0.79248835478E+02  0.00000000000E+00 0. -1.
         25    2    1    2    0    0  0.82319708217E+02  0.53576757456E+02  0.50597071760E+02  0.16688846988E+03  0.12507875282E+03 0.  0.
          5    1    3    3  502    0 -0.24514788807E+01  0.19319596774E+02  0.70468393115E+02  0.73229252327E+02  0.41800000000E+01 0. -1.
         -5    1    3    3    0  502  0.84771187097E+02  0.34257160682E+02 -0.19871321355E+02  0.93659217551E+02  0.41800000000E+01 0. -1.
        -11    1    1    2    0    0 -0.48348236695E+02 -0.34716111743E+02  0.17658388636E+03  0.18634545696E+03  0.00000000000E+00 0.  1.
         11    1    1    2    0    0 -0.33971471521E+02 -0.18860645713E+02  0.70446960356E+01  0.39489398277E+02  0.00000000000E+00 0. -1.
</event>
<event>
 7    1  0.2840156E-009  0.9805361E+02  0.7561462E-02  0.1284443E+00
         -1   -1    0    0    0  501 -0.00000000000E+00  0.00000000000E+00  0.13556929680E+03  0.13556929680E+03  0.00000000000E+00 0.  1.
          1   -1    0    0  501    0  0.00000000000E+00 -0.00000000000E+00 -0.10170890381E+03  0.10170890381E+03  0.00000000000E+00 0. -1.
         25    2    1    2    0    0  0.69425966828E+00 -0.28494669956E+02 -0.14039226980E+02  0.12906379809E+03  0.12509170984E+03 0.  0.
          5    1    3    3  502    0  0.32595801547E+02 -0.66842078483E+02 -0.23536187161E+02  0.78113854344E+02  0.41800000000E+01 0. -1.
         -5    1    3    3    0  502 -0.31901541879E+02  0.38347408528E+02  0.94969601811E+01  0.50949943746E+02  0.41800000000E+01 0. -1.
        -11    1    1    2    0    0  0.92775069642E+01  0.48411710946E+02  0.63962697929E+02  0.80752663229E+02  0.00000000000E+00 0.  1.
         11    1    1    2    0    0 -0.99717666325E+01 -0.19917040990E+02 -0.16063077956E+02  0.27461739293E+02  0.00000000000E+00 0. -1.
</event>
<event>
 7    1  0.2840156E-009  0.1246794E+03  0.7561462E-02  0.1235571E+00
          2   -1    0    0  501    0  0.00000000000E+00  0.00000000000E+00  0.11550928035E+04  0.11550928035E+04  0.00000000000E+00 0. -1.
         -2   -1    0    0    0  501 -0.00000000000E+00 -0.00000000000E+00 -0.30197872391E+02  0.30197872391E+02  0.00000000000E+00 0.  1.
         25    2    1    2    0    0 -0.31383827036E+02 -0.78332643243E+02  0.92685270198E+03  0.93905512121E+03  0.12509053477E+03 0.  0.
          5    1    3    3  502    0  0.24178524147E+02 -0.31624761292E+02  0.83756430198E+02  0.92829621114E+02  0.41800000000E+01 0.  1.
         -5    1    3    3    0  502 -0.55562351183E+02 -0.46707881951E+02  0.84309627179E+03  0.84622550009E+03  0.41800000000E+01 0.  1.
        -11    1    1    2    0    0  0.66248718072E+02  0.20953236281E+02  0.14457773011E+03  0.16040776415E+03  0.00000000000E+00 0. -1.
         11    1    1    2    0    0 -0.34864891036E+02  0.57379406962E+02  0.53464498976E+02  0.85827790493E+02  0.00000000000E+00 0.  1.
</event>
<event>
 7    1  0.2840156E-009  0.7702324E+02  0.7561462E-02  0.1337718E+00
          3   -1    0    0  501    0  0.00000000000E+00  0.00000000000E+00  0.13442588867E+03  0.13442588867E+03  0.00000000000E+00 0. -1.
         -3   -1    0    0    0  501 -0.00000000000E+00 -0.00000000000E+00 -0.89372329646E+02  0.89372329646E+02  0.00000000000E+00 0.  1.
         25    2    1    2    0    0 -0.31332731458E+01 -0.76424071140E+01  0.32398979908E+02  0.12947745664E+03  0.12508594682E+03 0.  0.
          5    1    3    3  502    0  0.28004473620E+02 -0.12900808433E+02 -0.39826129689E+02  0.50539829906E+02  0.41800000000E+01 0.  1.
         -5    1    3    3    0  502 -0.31137746765E+02  0.52584013185E+01  0.72225109597E+02  0.78937626734E+02  0.41800000000E+01 0.  1.
        -11    1    1    2    0    0  0.45193990658E+02 -0.85713672449E+01  0.16985872902E+02  0.49035548394E+02  0.00000000000E+00 0. -1.
         11    1    1    2    0    0 -0.42060717512E+02  0.16213774359E+02 -0.43312937828E+01  0.45285213286E+02  0.00000000000E+00 0.  1.
</event>
<event>
 7    1  0.2840156E-009  0.7697722E+02  0.7561462E-02  0.1337855E+00
          2   -1    0    0  501    0  0.00000000000E+00  0.00000000000E+00  0.33659502885E+03  0.33659502885E+03  0.00000000000E+00 0. -1.
         -2   -1    0    0    0  501 -0.00000000000E+00 -0.00000000000E+00 -0.45021163799E+02  0.45021163799E+02  0.00000000000E+00 0.  1.
         25    2    1    2    0    0  0.23247895217E+02 -0.10031163170E+02  0.26642427499E+03  0.29541720985E+03  0.12509334397E+03 0.  0.
          5    1    3    3  502    0 -0.46670117959E+02 -0.53340690772E+01  0.16819743549E+03  0.17468371964E+03  0.41800000000E+01 0.  1.
         -5    1    3    3    0  502  0.69918013176E+02 -0.46970940926E+01  0.98226839500E+02  0.12073349021E+03  0.41800000000E+01 0.  1.
        -11    1    1    2    0    0 -0.11958415468E+02  0.18812876332E+02 -0.25324173291E+02  0.33737838835E+02  0.00000000000E+00 0.  1.
         11    1    1    2    0    0 -0.11289479749E+02 -0.87817131623E+01  0.50473763354E+02  0.52461143966E+02  0.00000000000E+00 0. -1.
</event>
<event>
 7    1  0.2840156E-009  0.1453231E+03  0.7561462E-02  0.1206341E+00
         -2   -1    0    0    0  501 -0.00000000000E+00  0.00000000000E+00  0.83659594651E+02  0.83659594651E+02  0.00000000000E+00 0.  1.
          2   -1    0    0  501    0  0.00000000000E+00 -0.00000000000E+00 -0.32984327599E+03  0.32984327599E+03  0.00000000000E+00 0. -1.
         25    2    1    2    0    0  0.11482834752E+03  0.58976233732E+02 -0.10451094420E+03  0.20792729523E+03  0.12508987610E+03 0.  0.
          5    1    3    3  502    0  0.28801654368E+02  0.62614754957E+02 -0.10010664752E+03  0.12160985203E+03  0.41800000000E+01 0. -1.
         -5    1    3    3    0  502  0.86026693150E+02 -0.36385212243E+01 -0.44042966795E+01  0.86317443198E+02  0.41800000000E+01 0. -1.
        -11    1    1    2    0    0 -0.70968594187E+02 -0.13553356466E+02 -0.11755685315E+03  0.13798495771E+03  0.00000000000E+00 0. -1.
         11    1    1    2    0    0 -0.43859753332E+02 -0.45422877266E+02 -0.24115884000E+02  0.67590617711E+02  0.00000000000E+00 0.  1.
</event>
<event>
 7    1  0.2840156E-009  0.9570322E+02  0.7561462E-02  0.1289600E+00
         -3   -1    0    0    0  501 -0.00000000000E+00  0.00000000000E+00  0.39610203432E+03  0.39610203432E+03  0.00000000000E+00 0.  1.
          3   -1    0    0  501    0  0.00000000000E+00 -0.00000000000E+00 -0.49821599270E+02  0.49821599270E+02  0.00000000000E+00 0. -1.
         25    2    1    2    0    0  0.30111743201E+02 -0.34293312417E+02  0.67094699446E+02  0.14910414469E+03  0.12509036300E+03 0.  0.
          5    1    3    3  502    0  0.58805961805E+02 -0.11949173065E+02 -0.12550873338E+02  0.61448520750E+02  0.41800000000E+01 0.  1.
         -5    1    3    3    0  502 -0.28694218604E+02 -0.22344139351E+02  0.79645572784E+02  0.87655623943E+02  0.41800000000E+01 0.  1.
        -11    1    1    2    0    0 -0.48580106499E+02 -0.73107115745E+01  0.93323275934E+02  0.10546424552E+03  0.00000000000E+00 0. -1.
         11    1    1    2    0    0  0.18468363299E+02  0.41604023991E+02  0.18586245967E+03  0.19135524338E+03  0.00000000000E+00 0.  1.
</event>
<event>
 7    1  0.2840156E-009  0.1393146E+03  0.7561462E-02  0.1214254E+00
         -2   -1    0    0    0  501 -0.00000000000E+00  0.00000000000E+00  0.19591369568E+03  0.19591369568E+03  0.00000000000E+00 0.  1.
          2   -1    0    0  501    0  0.00000000000E+00 -0.00000000000E+00 -0.20356561452E+03  0.20356561452E+03  0.00000000000E+00 0. -1.
         25    2    1    2    0    0  0.82056462835E+02  0.52384548186E+02  0.13180905481E+03  0.20615212766E+03  0.12509064244E+03 0.  0.
          5    1    3    3  502    0  0.29426740986E+02 -0.37807780616E+02  0.17267382741E+02  0.51097908635E+02  0.41800000000E+01 0. -1.
         -5    1    3    3    0  502  0.52629721849E+02  0.90192328802E+02  0.11454167207E+03  0.15505421903E+03  0.41800000000E+01 0. -1.
        -11    1    1    2    0    0 -0.92253986054E+02 -0.23217789512E+02 -0.72589247026E+02  0.11966228510E+03  0.00000000000E+00 0.  1.
         11    1    1    2    0    0  0.10197523219E+02 -0.29166758674E+02 -0.66871726628E+02  0.73664897431E+02  0.00000000000E+00 0. -1.
</event>
<event>
 7    1  0.2840156E-009  0.1113581E+03  0.7561462E-02  0.1258075E+00
          1   -1    0    0  501    0  0.00000000000E+00  0.00000000000E+00  0.66754573718E+02  0.66754573718E+02  0.00000000000E+00 0. -1.
         -1   -1    0    0    0  501 -0.00000000000E+00 -0.00000000000E+00 -0.29402062610E+03  0.29402062610E+03  0.00000000000E+00 0.  1.
         25    2    1    2    0    0  0.31585325106E+02 -0.75982218518E+02 -0.79740257103E+02  0.16962950519E+03  0.12507889565E+03 0.  0.
          5    1    3    3  502    0 -0.43509030913E+01  0.20292771501E+02  0.17968246302E+02  0.27767916884E+02  0.41800000000E+01 0. -1.
         -5    1    3    3    0  502  0.35936228198E+02 -0.96274990019E+02 -0.97708503405E+02  0.14186158831E+03  0.41800000000E+01 0. -1.
        -11    1    1    2    0    0 -0.47034516246E+02  0.51480838238E+02 -0.14639952940E+03  0.16215839365E+03  0.00000000000E+00 0.  1.
         11    1    1    2    0    0  0.15449191140E+02  0.24501380281E+02 -0.11262658758E+01  0.28987300967E+02  0.00000000000E+00 0. -1.
</event>
<event>
 7    1  0.2840156E-009  0.1002026E+03  0.7561462E-02  0.1279870E+00
         -2   -1    0    0    0  501 -0.00000000000E+00  0.00000000000E+00  0.18234123675E+03  0.18234123675E+03  0.00000000000E+00 0.  1.
          2   -1    0    0  501    0  0.00000000000E+00 -0.00000000000E+00 -0.88701677062E+02  0.88701677062E+02  0.00000000000E+00 0. -1.
         25    2    1    2    0    0  0.44932361976E+02 -0.41437835889E+02  0.23536450875E+02  0.14119863311E+03  0.12508828114E+03 0.  0.
          5    1    3    3  502    0  0.52125441553E+02 -0.58786878382E+02  0.60684709754E+02  0.99363298682E+02  0.41800000000E+01 0. -1.
         -5    1    3    3    0  502 -0.71930795775E+01  0.17349042493E+02 -0.37148258879E+02  0.41835334431E+02  0.41800000000E+01 0. -1.
        -11    1    1    2    0    0 -0.30959421078E+02  0.66745676526E+02  0.27898318321E+02  0.78687910466E+02  0.00000000000E+00 0. -1.
         11    1    1    2    0    0 -0.13972940897E+02 -0.25307840636E+02  0.42204790497E+02  0.51156370238E+02  0.00000000000E+00 0.  1.
</event>
<event>
 7    1  0.2840156E-009  0.1422182E+03  0.7561462E-02  0.1210375E+00
         -1   -1    0    0    0  501 -0.00000000000E+00  0.00000000000E+00  0.75501533046E+02  0.75501533046E+02  0.00000000000E+00 0.  1.
          1   -1    0    0  501    0  0.00000000000E+00 -0.00000000000E+00 -0.49256027673E+03  0.49256027673E+03  0.00000000000E+00 0. -1.
         25    2    1    2    0    0  0.93253093398E+02  0.10107504867E+03 -0.28391651225E+03  0.33936388610E+03  0.12508779465E+03 0.  0.
          5    1    3    3  502    0  0.52896508151E+02  0.60955408227E+02 -0.26829938322E+03  0.28020641285E+03  0.41800000000E+01 0. -1.
         -5    1    3    3    0  502  0.40356585247E+02  0.40119640444E+02 -0.15617129029E+02  0.59157473249E+02  0.41800000000E+01 0. -1.
        -11    1    1    2    0    0 -0.62145199689E+02 -0.96984400276E+02 -0.15304032010E+03  0.19154461443E+03  0.00000000000E+00 0. -1.
         11    1    1    2    0    0 -0.31107893708E+02 -0.40906483949E+01  0.19898088666E+02  0.37153309244E+02  0.00000000000E+00 0.  1.
</event>
<event>
 7    1  0.2840156E-009  0.2075443E+03  0.7561462E-02  0.1143525E+00
         -2   -1    0    0    0  501 -0.00000000000E+00  0.00000000000E+00  0.11724628414E+03  0.11724628414E+03  0.00000000000E+00 0. -1.
          2   -1    0    0  501    0  0.00000000000E+00 -0.00000000000E+00 -0.55239316976E+03  0.55239316976E+03  0.00000000000E+00 0.  1.
         25    2    1    2    0    0 -0.19005240792E+03 -0.72320579445E+02 -0.82776207548E+02  0.25268513213E+03  0.12509073304E+03 0.  0.
          5    1    3    3  502    0 -0.44415315070E+02 -0.21440086794E+02  0.33233745662E+02  0.59618384625E+02  0.41800000000E+01 0. -1.
         -5    1    3    3    0  502 -0.14563709285E+03 -0.50880492651E+02 -0.11600995321E+03  0.19306674750E+03  0.41800000000E+01 0. -1.
        -11    1    1    2    0    0  0.33741307567E+02 -0.92026706374E+01 -0.12172663052E+03  0.12665124382E+03  0.00000000000E+00 0.  1.
         11    1    1    2    0    0  0.15631110036E+03  0.81523250082E+02 -0.23064404755E+03  0.29030307796E+03  0.00000000000E+00 0. -1.
</event>
<event>
 7    1  0.2840156E-009  0.1272404E+03  0.7561462E-02  0.1231609E+00
          2   -1    0    0  501    0  0.00000000000E+00  0.00000000000E+00  0.47274568355E+03  0.47274568355E+03  0.00000000000E+00 0. -1.
         -2   -1    0    0    0  501 -0.00000000000E+00 -0.00000000000E+00 -0.64765705594E+02  0.64765705594E+02  0.00000000000E+00 0.  1.
         25    2    1    2    0    0  0.68691613092E+02 -0.54763723940E+02  0.54249231318E+02  0.16220124931E+03  0.12509461623E+03 0.  0.
          5    1    3    3  502    0  0.55416244218E+02  0.16868504184E+02  0.66410286455E+02  0.88223041796E+02  0.41800000000E+01 0.  1.
         -5    1    3    3    0  502  0.13275368873E+02 -0.71632228123E+02 -0.12161055137E+02  0.73978207512E+02  0.41800000000E+01 0.  1.
        -11    1    1    2    0    0  0.12802919587E+02  0.38176552574E+02  0.14867523404E+03  0.15403145501E+03  0.00000000000E+00 0.  1.
         11    1    1    2    0    0 -0.81494532679E+02  0.16587171366E+02  0.20505551259E+03  0.22127868482E+03  0.00000000000E+00 0. -1.
</event>
<event>
 7    1  0.2840156E-009  0.1096168E+03  0.7561462E-02  0.1261281E+00
         -1   -1    0    0    0  501 -0.00000000000E+00  0.00000000000E+00  0.34855983479E+02  0.34855983479E+02  0.00000000000E+00 0.  1.
          1   -1    0    0  501    0  0.00000000000E+00 -0.00000000000E+00 -0.41378545666E+03  0.41378545666E+03  0.00000000000E+00 0. -1.
         25    2    1    2    0    0 -0.15247631728E+02 -0.22139315921E+02 -0.30168962283E+03  0.32769918302E+03  0.12508991344E+03 0.  0.
          5    1    3    3  502    0 -0.62927779807E+02 -0.41717497228E+02 -0.16309199580E+03  0.17976853601E+03  0.41800000000E+01 0.  1.
         -5    1    3    3    0  502  0.47680148079E+02  0.19578181307E+02 -0.13859762704E+03  0.14793064701E+03  0.41800000000E+01 0.  1.
        -11    1    1    2    0    0  0.46659186462E+01  0.56120890629E+02 -0.56388209922E+02  0.79692881615E+02  0.00000000000E+00 0.  1.
         11    1    1    2    0    0  0.10581713082E+02 -0.33981574708E+02 -0.20851640431E+02  0.41249375511E+02  0.00000000000E+00 0. -1.
</event>
<event>
 7    1  0.2840156E-009  0.1025752E+03  0.7561462E-02  0.1274972E+00
          1   -1    0    0  501    0  0.00000000000E+00  0.00000000000E+00  0.51561855255E+03  0.51561855255E+03  0.00000000000E+00 0. -1.
         -1   -1    0    0    0  501 -0.00000000000E+00 -0.00000000000E+00 -0.32234797392E+02  0.32234797392E+02  0.00000000000E+00 0.  1.
         25    2    1    2    0    0 -0.16499705031E+02  0.49483274785E+02  0.17165760478E+03  0.21870974846E+03  0.12508711381E+03 0.  0.
          5    1    3    3  502    0  0.13304820587E+00  0.85842920769E+02  0.75160819785E+02  0.11417375346E+03  0.41800000000E+01 0. -1.
         -5    1    3    3    0  502 -0.16632753236E+02 -0.36359645985E+02  0.96496784993E+02  0.10453599500E+03  0.41800000000E+01 0. -1.
        -11    1    1    2    0    0  0.21242756172E+02  0.69663525282E+01  0.14681790384E+02  0.26745835680E+02  0.00000000000E+00 0.  1.
         11    1    1    2    0    0 -0.47430511418E+01 -0.56449627313E+02  0.29704435999E+03  0.30239776580E+03  0.00000000000E+00 0. -1.
</event>
<event>
 7    1  0.2840156E-009  0.1545829E+03  0.7561462E-02  0.1194952E+00
          4   -1    0    0  501    0  0.00000000000E+00  0.00000000000E+00  0.81246464935E+03  0.81246464935E+03  0.00000000000E+00 0. -1.
         -4   -1    0    0    0  501 -0.00000000000E+00 -0.00000000000E+00 -0.39817403874E+02  0.39817403874E+02  0.00000000000E+00 0.  1.
         25    2    1    2    0    0  0.99561948688E+02  0.10333750779E+03  0.36915284757E+03  0.41534599671E+03  0.12508896823E+03 0.  0.
          5    1    3    3  502    0  0.11203761888E+03  0.81086022336E+02  0.36341824602E+03  0.38886715598E+03  0.41800000000E+01 0.  1.
         -5    1    3    3    0  502 -0.12475670195E+02  0.22251485449E+02  0.57346015572E+01  0.26478840732E+02  0.41800000000E+01 0.  1.
        -11    1    1    2    0    0 -0.44600543343E+02 -0.31983593224E+02  0.57818626150E+02  0.79719208675E+02  0.00000000000E+00 0.  1.
         11    1    1    2    0    0 -0.54961405345E+02 -0.71353914562E+02  0.34567577176E+03  0.35721684784E+03  0.00000000000E+00 0. -1.
</event>
<event>
 7    1  0.2840156E-009  0.1019444E+03  0.7561462E-02  0.1276259E+00
          2   -1    0    0  501    0  0.00000000000E+00  0.00000000000E+00  0.77925922779E+03  0.77925922779E+03  0.00000000000E+00 0. -1.
         -2   -1    0    0    0  501 -0.00000000000E+00 -0.00000000000E+00 -0.16663757932E+02  0.16663757932E+02  0.00000000000E+00 0.  1.
         25    2    1    2    0    0 -0.10506987749E+02  0.21339780765E+02  0.33951634343E+03  0.36260683464E+03  0.12508631434E+03 0.  0.
          5    1    3    3  502    0  0.33555811007E+02 -0.30085471619E+02  0.22493531025E+03  0.22944388040E+03  0.41800000000E+01 0.  1.
         -5    1    3    3    0  502 -0.44062798756E+02  0.51425252384E+02  0.11458103319E+03  0.13316295424E+03  0.41800000000E+01 0.  1.
        -11    1    1    2    0    0  0.32758756971E+02  0.23772908938E+02  0.24280885887E+03  0.24615935754E+03  0.00000000000E+00 0. -1.
         11    1    1    2    0    0 -0.22251769222E+02 -0.45112689703E+02  0.18027026756E+03  0.18715679355E+03  0.00000000000E+00 0.  1.
</event>
<event>
 7    1  0.2840156E-009  0.1029397E+03  0.7561462E-02  0.1274233E+00
         -2   -1    0    0    0  501 -0.00000000000E+00  0.00000000000E+00  0.52200040082E+02  0.52200040082E+02  0.00000000000E+00 0.  1.
          2   -1    0    0  501    0  0.00000000000E+00 -0.00000000000E+00 -0.27244175584E+03  0.27244175584E+03  0.00000000000E+00 0. -1.
         25    2    1    2    0    0 -0.29390578907E+02 -0.13614008084E+02 -0.70065531608E+02  0.14698748798E+03  0.12508795129E+03 0.  0.
          5    1    3    3  502    0 -0.67828938548E+02 -0.27480809936E+02 -0.96579314878E+01  0.73937188613E+02  0.41800000000E+01 0.  1.
         -5    1    3    3    0  502  0.38438359641E+02  0.13866801852E+02 -0.60407600121E+02  0.73050299369E+02  0.41800000000E+01 0.  1.
        -11    1    1    2    0    0  0.59854870164E+02  0.64279221787E+01 -0.74646869441E+02  0.95896187532E+02  0.00000000000E+00 0.  1.
         11    1    1    2    0    0 -0.30464291256E+02  0.71860859053E+01 -0.75529314706E+02  0.81758120406E+02  0.00000000000E+00 0. -1.
</event>
<event>
 7    1  0.2840156E-009  0.1096890E+03  0.7561462E-02  0.1261147E+00
          2   -1    0    0  501    0  0.00000000000E+00  0.00000000000E+00  0.63717739093E+03  0.63717739093E+03  0.00000000000E+00 0.  1.
         -2   -1    0    0    0  501 -0.00000000000E+00 -0.00000000000E+00 -0.30286791026E+02  0.30286791026E+02  0.00000000000E+00 0. -1.
         25    2    1    2    0    0  0.75756563700E+02  0.28966831439E+02  0.42969068355E+03  0.45481784083E+03  0.12508817107E+03 0.  0.
          5    1    3    3  502    0 -0.73161677351E+01 -0.20264013129E+02  0.24842721030E+03  0.24939468270E+03  0.41800000000E+01 0.  1.
         -5    1    3    3    0  502  0.83072731435E+02  0.49230844568E+02  0.18126347325E+03  0.20542315813E+03  0.41800000000E+01 0.  1.
        -11    1    1    2    0    0 -0.29115921912E+02  0.18286568303E+02  0.15245346017E+02  0.37610584471E+02  0.00000000000E+00 0.  1.
         11    1    1    2    0    0 -0.46640641788E+02 -0.47253399742E+02  0.16195457034E+03  0.17503575665E+03  0.00000000000E+00 0. -1.
</event>
<event>
 7    1  0.2840156E-009  0.1192385E+03  0.7561462E-02  0.1244359E+00
          2   -1    0    0  501    0  0.00000000000E+00  0.00000000000E+00  0.80639602316E+03  0.80639602316E+03  0.00000000000E+00 0. -1.
         -2   -1    0    0    0  501 -0.00000000000E+00 -0.00000000000E+00 -0.30934386409E+02  0.30934386409E+02  0.00000000000E+00 0.  1.
         25    2    1    2    0    0 -0.29241917615E+02  0.40903017558E+02  0.14507798841E+03  0.19804979680E+03  0.12509177710E+03 0.  0.
          5    1    3    3  502    0 -0.73260076544E+01  0.83611352235E+02  0.11010729041E+03  0.13851215258E+03  0.41800000000E+01 0.  1.
         -5    1    3    3    0  502 -0.21915909961E+02 -0.42708334678E+02  0.34970698006E+02  0.59537644221E+02  0.41800000000E+01 0.  1.
        -11    1    1    2    0    0 -0.28218857525E+02  0.95481162988E+01  0.17034766487E+03  0.17293292737E+03  0.00000000000E+00 0.  1.
         11    1    1    2    0    0  0.57460775140E+02 -0.50451133856E+02  0.46003598348E+03  0.46634768540E+03  0.00000000000E+00 0. -1.
</event>
<event>
 7    1  0.2840156E-009  0.6566112E+02  0.7561462E-02  0.1375502E+00
          2   -1    0    0  501    0  0.00000000000E+00  0.00000000000E+00  0.52209474055E+02  0.52209474055E+02  0.00000000000E+00 0. -1.
         -2   -1    0    0    0  501 -0.00000000000E+00 -0.00000000000E+00 -0.24188027113E+03  0.24188027113E+03  0.00000000000E+00 0.  1.
         25    2    1    2    0    0 -0.27396394108E+02 -0.39826771854E+01 -0.13740333601E+03  0.18786030216E+03  0.12508154241E+03 0.  0.
          5    1    3    3  502    0 -0.23541481234E+02 -0.42505517830E+02 -0.40486537049E+01  0.48936534221E+02  0.41800000000E+01 0.  1.
         -5    1    3    3    0  502 -0.38549128731E+01  0.38522840645E+02 -0.13335468231E+03  0.13892376794E+03  0.41800000000E+01 0.  1.
        -11    1    1    2    0    0  0.27605130643E+02 -0.10199798563E+02  0.18031402403E+02  0.34513918948E+02  0.00000000000E+00 0. -1.
         11    1    1    2    0    0 -0.20873653523E+00  0.14182475749E+02 -0.70298863469E+02  0.71715524082E+02  0.00000000000E+00 0.  1.
</event>
<event>
 7    1  0.2840156E-009  0.9497953E+02  0.7561462E-02  0.1291222E+00
          2   -1    0    0  501    0  0.00000000000E+00  0.00000000000E+00  0.11756468046E+04  0.11756468046E+04  0.00000000000E+00 0. -1.
         -2   -1    0    0    0  501 -0.00000000000E+00 -0.00000000000E+00 -0.10488962896E+02  0.10488962896E+02  0.00000000000E+00 0.  1.
         25    2    1    2    0    0  0.93832026023E+01 -0.68517528206E+01  0.77179577233E+03  0.78195429980E+03  0.12509525084E+03 0.  0.
          5    1    3    3  502    0  0.29267407967E+02  0.38622577298E+02  0.62597677800E+03  0.62786358681E+03  0.41800000000E+01 0.  1.
         -5    1    3    3    0  502 -0.19884205365E+02 -0.45474330118E+02  0.14581899432E+03  0.15409071299E+03  0.41800000000E+01 0.  1.
        -11    1    1    2    0    0  0.31567996601E+02 -0.24482244890E+02  0.20687932039E+03  0.21070114364E+03  0.00000000000E+00 0.  1.
         11    1    1    2    0    0 -0.40951199203E+02  0.31333997711E+02  0.18648274895E+03  0.19348032402E+03  0.00000000000E+00 0. -1.
</event>
<event>
 7    1  0.2840156E-009  0.1493313E+03  0.7561462E-02  0.1201297E+00
          1   -1    0    0  501    0  0.00000000000E+00  0.00000000000E+00  0.69955686099E+03  0.69955686099E+03  0.00000000000E+00 0. -1.
         -1   -1    0    0    0  501 -0.00000000000E+00 -0.00000000000E+00 -0.48105588081E+02  0.48105588081E+02  0.00000000000E+00 0.  1.
         25    2    1    2    0    0  0.13571933392E+03 -0.68501680150E+01  0.22680919865E+03  0.29249737083E+03  0.12508252056E+03 0.  0.
          5    1    3    3  502    0  0.12900858795E+03 -0.74289810352E+01  0.94974473018E+02  0.16042452571E+03  0.41800000000E+01 0. -1.
         -5    1    3    3    0  502  0.67107459633E+01  0.57881302015E+00  0.13183472563E+03  0.13207284512E+03  0.41800000000E+01 0. -1.
        -11    1    1    2    0    0 -0.10648471413E+03  0.43099515032E+02  0.26403589203E+03  0.28794359660E+03  0.00000000000E+00 0.  1.
         11    1    1    2    0    0 -0.29234619784E+02 -0.36249347017E+02  0.16060618223E+03  0.16722148165E+03  0.00000000000E+00 0. -1.
</event>
<event>
 7    1  0.2840156E-009  0.9194231E+02  0.7561462E-02  0.1298215E+00
          2   -1    0    0  501    0  0.00000000000E+00  0.00000000000E+00  0.45023500015E+03  0.45023500015E+03  0.00000000000E+00 0. -1.
         -2   -1    0    0    0  501 -0.00000000000E+00 -0.00000000000E+00 -0.27675379015E+02  0.27675379015E+02  0.00000000000E+00 0.  1.
         25    2    1    2    0    0  0.36852002094E+01 -0.11027097719E+02  0.21016331958E+03  0.24484564631E+03  0.12508234102E+03 0.  0.
          5    1    3    3  502    0 -0.39234989250E+02 -0.27980884769E+02  0.25946846025E+02  0.54891033080E+02  0.41800000000E+01 0.  1.
         -5    1    3    3    0  502  0.42920189459E+02  0.16953787050E+02  0.18421647355E+03  0.18995461323E+03  0.41800000000E+01 0.  1.
        -11    1    1    2    0    0  0.18673198330E+02  0.44878555185E+02  0.15733079702E+03  0.16466861493E+03  0.00000000000E+00 0. -1.
         11    1    1    2    0    0 -0.22358398539E+02 -0.33851457465E+02  0.55065504536E+02  0.68396117927E+02  0.00000000000E+00 0.  1.
</event>
<event>
 7    1  0.2840156E-009  0.1049347E+03  0.7561462E-02  0.1270248E+00
          1   -1    0    0  501    0  0.00000000000E+00  0.00000000000E+00  0.42577951730E+02  0.42577951730E+02  0.00000000000E+00 0. -1.
         -1   -1    0    0    0  501 -0.00000000000E+00 -0.00000000000E+00 -0.32495619607E+03  0.32495619607E+03  0.00000000000E+00 0.  1.
         25    2    1    2    0    0  0.36803693609E+02  0.11160057785E+02 -0.12036743926E+03  0.17780367191E+03  0.12508703594E+03 0.  0.
          5    1    3    3  502    0  0.78412531416E+02  0.28900630037E+02 -0.63613633326E+02  0.10510917298E+03  0.41800000000E+01 0. -1.
         -5    1    3    3    0  502 -0.41608837808E+02 -0.17740572251E+02 -0.56753805930E+02  0.72694498932E+02  0.41800000000E+01 0. -1.
        -11    1    1    2    0    0 -0.40539110439E+02 -0.36865467269E+02 -0.15253877366E+03  0.16208195341E+03  0.00000000000E+00 0.  1.
         11    1    1    2    0    0  0.37354168300E+01  0.25705409484E+02 -0.94720314204E+01  0.27648522472E+02  0.00000000000E+00 0. -1.
</event>
<event>
 7    1  0.2840156E-009  0.1135864E+03  0.7561462E-02  0.1254069E+00
         -2   -1    0    0    0  501 -0.00000000000E+00  0.00000000000E+00  0.47765575011E+03  0.47765575011E+03  0.00000000000E+00 0.  1.
          2   -1    0    0  501    0  0.00000000000E+00 -0.00000000000E+00 -0.31100274494E+02  0.31100274494E+02  0.00000000000E+00 0. -1.
         25    2    1    2    0    0 -0.51557162539E+02  0.33194774128E+01  0.26716629821E+03  0.29948947534E+03  0.12508778919E+03 0.  0.
          5    1    3    3  502    0  0.26241328923E+02 -0.25160509266E+02  0.15911077119E+03  0.16326471903E+03  0.41800000000E+01 0. -1.
         -5    1    3    3    0  502 -0.77798491462E+02  0.28479986679E+02  0.10805552702E+03  0.13622475632E+03  0.41800000000E+01 0. -1.
        -11    1    1    2    0    0  0.72133628031E+02  0.21610145279E+02  0.13019472705E+03  0.15040254527E+03  0.00000000000E+00 0.  1.
         11    1    1    2    0    0 -0.20576465493E+02 -0.24929622692E+02  0.49194450366E+02  0.58864003997E+02  0.00000000000E+00 0. -1.
</event>
<event>
 7    1  0.2840156E-009  0.1142185E+03  0.7561462E-02  0.1252951E+00
          1   -1    0    0  501    0  0.00000000000E+00  0.00000000000E+00  0.32946876658E+03  0.32946876658E+03  0.00000000000E+00 0. -1.
         -1   -1    0    0    0  501 -0.00000000000E+00 -0.00000000000E+00 -0.51458920904E+02  0.51458920904E+02  0.00000000000E+00 0.  1.
         25    2    1    2    0    0 -0.58922518491E+02 -0.24257502980E+02  0.10649657695E+03  0.17620699883E+03  0.12508835237E+03 0.  0.
          5    1    3    3  502    0 -0.72212300975E+01  0.36176510809E+02 -0.67752600365E+01  0.37739404433E+02  0.41800000000E+01 0. -1.
         -5    1    3    3    0  502 -0.51701288394E+02 -0.60434013788E+02  0.11327183699E+03  0.13846759440E+03  0.41800000000E+01 0. -1.
        -11    1    1    2    0    0 -0.47218147612E+01 -0.28569555067E+02  0.40642261043E+02  0.49902989831E+02  0.00000000000E+00 0.  1.
         11    1    1    2    0    0  0.63644333252E+02  0.52827058046E+02  0.13087100769E+03  0.15481769883E+03  0.00000000000E+00 0. -1.
</event>
<event>
 7    1  0.2840156E-009  0.1037934E+03  0.7561462E-02  0.1272515E+00
         -2   -1    0    0    0  501 -0.00000000000E+00  0.00000000000E+00  0.22713818929E+03  0.22713818929E+03  0.00000000000E+00 0.  1.
          2   -1    0    0  501    0  0.00000000000E+00 -0.00000000000E+00 -0.11553976871E+03  0.11553976871E+03  0.00000000000E+00 0. -1.
         25    2    1    2    0    0 -0.25305789083E+02  0.35536480498E+02  0.17767866152E+03  0.22163183784E+03  0.12509092845E+03 0.  0.
          5    1    3    3  502    0 -0.33529862659E+02  0.80094068615E+02  0.11943392512E+03  0.14772016242E+03  0.41800000000E+01 0.  1.
         -5    1    3    3    0  502  0.82240735755E+01 -0.44557588117E+02  0.58244736401E+02  0.73911675420E+02  0.41800000000E+01 0.  1.
        -11    1    1    2    0    0  0.26543236668E+02 -0.52138677793E+02 -0.61292491240E+01  0.58826463685E+02  0.00000000000E+00 0.  1.
         11    1    1    2    0    0 -0.12374475845E+01  0.16602197295E+02 -0.59950991817E+02  0.62219656471E+02  0.00000000000E+00 0. -1.
</event>
<event>
 7    1  0.2840156E-009  0.1013903E+03  0.7561462E-02  0.1277399E+00
         -1   -1    0    0    0  501 -0.00000000000E+00  0.00000000000E+00  0.28571374942E+03  0.28571374942E+03  0.00000000000E+00 0.  1.
          1   -1    0    0  501    0  0.00000000000E+00 -0.00000000000E+00 -0.50654578806E+02  0.50654578806E+02  0.00000000000E+00 0. -1.
         25    2    1    2    0    0 -0.30763623111E+02  0.41205217405E+02  0.12725615200E+03  0.18570764211E+03  0.12509568205E+03 0.  0.
          5    1    3    3  502    0  0.10923417089E+02 -0.22919424438E+02  0.10178295171E+03  0.10498505949E+03  0.41800000000E+01 0.  1.
         -5    1    3    3    0  502 -0.41687040200E+02  0.64124641843E+02  0.25473200291E+02  0.80722582622E+02  0.41800000000E+01 0.  1.
        -11    1    1    2    0    0  0.43225494561E+02  0.12757279603E+02  0.26486143465E+02  0.52275303525E+02  0.00000000000E+00 0.  1.
         11    1    1    2    0    0 -0.12461871451E+02 -0.53962497008E+02  0.81316875151E+02  0.98385382591E+02  0.00000000000E+00 0. -1.
</event>
<event>
 7    1  0.2840156E-009  0.2449168E+03  0.7561462E-02  0.1116560E+00
         -2   -1    0    0    0  501 -0.00000000000E+00  0.00000000000E+00  0.33701028204E+02  0.33701028204E+02  0.00000000000E+00 0.  1.
          2   -1    0    0  501    0  0.00000000000E+00 -0.00000000000E+00 -0.19651092143E+04  0.19651092143E+04  0.00000000000E+00 0. -1.
         25    2    1    2    0    0  0.49052966620E+02 -0.22671951464E+03 -0.92208770295E+03  0.95901026013E+03  0.12508803000E+03 0.  0.
          5    1    3    3  502    0  0.20147679675E+02 -0.20383163387E+03 -0.87703216273E+03  0.90064207698E+03  0.41800000000E+01 0. -1.
         -5    1    3    3    0  502  0.28905286945E+02 -0.22887880775E+02 -0.45055540213E+02  0.58368183145E+02  0.41800000000E+01 0. -1.
        -11    1    1    2    0    0 -0.35513628636E+02  0.20119031269E+02 -0.12209803512E+03  0.12873975073E+03  0.00000000000E+00 0.  1.
         11    1    1    2    0    0 -0.13539337984E+02  0.20660048337E+03 -0.88722244807E+03  0.91106023168E+03  0.00000000000E+00 0. -1.
</event>
<event>
 7    1  0.2840156E-009  0.2224620E+03  0.7561462E-02  0.1132061E+00
         -3   -1    0    0    0  501 -0.00000000000E+00  0.00000000000E+00  0.14369114500E+03  0.14369114500E+03  0.00000000000E+00 0.  1.
          3   -1    0    0  501    0  0.00000000000E+00 -0.00000000000E+00 -0.38607772194E+03  0.38607772194E+03  0.00000000000E+00 0. -1.
         25    2    1    2    0    0  0.18271135427E+03 -0.94043130913E+02 -0.16788055671E+03  0.29335827847E+03  0.12509056229E+03 0.  0.
          5    1    3    3  502    0  0.19974341950E+03 -0.76700960622E+02 -0.13811978439E+03  0.25470574834E+03  0.41800000000E+01 0. -1.
         -5    1    3    3    0  502 -0.17032065235E+02 -0.17342170291E+02 -0.29760772319E+02  0.38652530132E+02  0.41800000000E+01 0. -1.
        -11    1    1    2    0    0 -0.35784810247E+02  0.26605171093E+02 -0.59070061211E+02  0.74011214723E+02  0.00000000000E+00 0. -1.
         11    1    1    2    0    0 -0.14692654402E+03  0.67437959820E+02 -0.15435959013E+02  0.16239937375E+03  0.00000000000E+00 0.  1.
</event>
<event>
 7    1  0.2840156E-009  0.1183199E+03  0.7561462E-02  0.1245895E+00
         -1   -1    0    0    0  501 -0.00000000000E+00  0.00000000000E+00  0.11538271052E+02  0.11538271052E+02  0.00000000000E+00 0.  1.
          1   -1    0    0  501    0  0.00000000000E+00 -0.00000000000E+00 -0.18003344076E+04  0.18003344076E+04  0.00000000000E+00 0. -1.
         25    2    1    2    0    0 -0.27614583734E+02 -0.61909463461E+02 -0.13491344460E+04  0.13566160540E+04  0.12509203664E+03 0.  0.
          5    1    3    3  502    0 -0.73403238423E+02 -0.35140796350E+02 -0.10156994824E+04  0.10189631111E+04  0.41800000000E+01 0. -1.
         -5    1    3    3    0  502  0.45788654690E+02 -0.26768667111E+02 -0.33343496368E+03  0.33765294289E+03  0.41800000000E+01 0. -1.
        -11    1    1    2    0    0 -0.26219660035E+02  0.13233100729E+02 -0.43402757076E+02  0.52405961961E+02  0.00000000000E+00 0.  1.
         11    1    1    2    0    0  0.53834243769E+02  0.48676362732E+02 -0.39625893348E+03  0.40285066272E+03  0.00000000000E+00 0. -1.
</event>
<event>
 7    1  0.2840156E-009  0.1369615E+03  0.7561462E-02  0.1217477E+00
         -1   -1    0    0    0  501 -0.00000000000E+00  0.00000000000E+00  0.45511605186E+02  0.45511605186E+02  0.00000000000E+00 0.  1.
          1   -1    0    0  501    0  0.00000000000E+00 -0.00000000000E+00 -0.55725122165E+03  0.55725122165E+03  0.00000000000E+00 0. -1.
         25    2    1    2    0    0 -0.75575565659E+02 -0.87306411386E+02 -0.25752342658E+03  0.30870686094E+03  0.12509010818E+03 0.  0.
          5    1    3    3  502    0  0.14202998363E+02  0.15708860021E+02 -0.59567610714E+01  0.22393053569E+02  0.41800000000E+01 0.  1.
         -5    1    3    3    0  502 -0.89778564022E+02 -0.10301527141E+03 -0.25156666550E+03  0.28631380738E+03  0.41800000000E+01 0.  1.
        -11    1    1    2    0    0  0.32638514466E+02  0.42231993369E+02 -0.29724898056E+02  0.61093235754E+02  0.00000000000E+00 0.  1.
         11    1    1    2    0    0  0.42937051193E+02  0.45074418017E+02 -0.22449129183E+03  0.23296273013E+03  0.00000000000E+00 0. -1.
</event>
<event>
 7    1  0.2840156E-009  0.8945997E+02  0.7561462E-02  0.1304165E+00
          4   -1    0    0  501    0  0.00000000000E+00  0.00000000000E+00  0.60211639277E+02  0.60211639277E+02  0.00000000000E+00 0. -1.
         -4   -1    0    0    0  501 -0.00000000000E+00 -0.00000000000E+00 -0.22061642526E+03  0.22061642526E+03  0.00000000000E+00 0.  1.
         25    2    1    2    0    0 -0.30037418323E+02  0.21817623034E+02 -0.10651702380E+03  0.16843910581E+03  0.12509037067E+03 0.  0.
          5    1    3    3  502    0 -0.55613585297E+02  0.24007870783E+02 -0.20176123655E+01  0.60751887944E+02  0.41800000000E+01 0. -1.
         -5    1    3    3    0  502  0.25576166974E+02 -0.21902477489E+01 -0.10449941143E+03  0.10768721787E+03  0.41800000000E+01 0. -1.
        -11    1    1    2    0    0  0.49681367279E+02  0.13761297219E+02 -0.98887347735E+01  0.52491891101E+02  0.00000000000E+00 0. -1.
         11    1    1    2    0    0 -0.19643948957E+02 -0.35578920254E+02 -0.43999027415E+02  0.59897067629E+02  0.00000000000E+00 0.  1.
</event>
<event>
 7    1  0.2840156E-009  0.1293541E+03  0.7561462E-02  0.1228417E+00
         -1   -1    0    0    0  501 -0.00000000000E+00  0.00000000000E+00  0.58855274406E+02  0.58855274406E+02  0.00000000000E+00 0.  1.
          1   -1    0    0  501    0  0.00000000000E+00 -0.00000000000E+00 -0.36871590681E+03  0.36871590681E+03  0.00000000000E+00 0. -1.
         25    2    1    2    0    0 -0.97025074920E+02 -0.20009468419E+02 -0.11114604349E+03  0.19446155600E+03  0.12509040646E+03 0.  0.
          5    1    3    3  502    0  0.19356703994E+02  0.13724917669E+02 -0.56595074809E+02  0.61510407633E+02  0.41800000000E+01 0.  1.
         -5    1    3    3    0  502 -0.11638177891E+03 -0.33734386089E+02 -0.54550968683E+02  0.13295114837E+03  0.41800000000E+01 0.  1.
        -11    1    1    2    0    0  0.66176866416E+02  0.39318995459E+02 -0.89806429376E+02  0.11828167994E+03  0.00000000000E+00 0.  1.
         11    1    1    2    0    0  0.30848208505E+02 -0.19309527039E+02 -0.10890815953E+03  0.11482794527E+03  0.00000000000E+00 0. -1.
</event>
<event>
 7    1  0.2840156E-009  0.1446494E+03  0.7561462E-02  0.1207206E+00
         -4   -1    0    0    0  501 -0.00000000000E+00  0.00000000000E+00  0.13766934948E+03  0.13766934948E+03  0.00000000000E+00 0.  1.
          4   -1    0    0  501    0  0.00000000000E+00 -0.00000000000E+00 -0.19309332768E+03  0.19309332768E+03  0.00000000000E+00 0. -1.
         25    2    1    2    0    0  0.11634249483E+03  0.29031939475E+02 -0.91245864742E+01  0.17351646737E+03  0.12508507808E+03 0.  0.
          5    1    3    3  502    0  0.15516761607E+02 -0.27776386829E+02 -0.42262345179E+02  0.53064826167E+02  0.41800000000E+01 0. -1.
         -5    1    3    3    0  502  0.10082573322E+03  0.56808326305E+02  0.33137758705E+02  0.12045164121E+03  0.41800000000E+01 0. -1.
        -11    1    1    2    0    0 -0.99443291092E+02 -0.52527157472E+02 -0.13133034432E+02  0.11322785439E+03  0.00000000000E+00 0. -1.
         11    1    1    2    0    0 -0.16899203738E+02  0.23495217997E+02 -0.33166357296E+02  0.44018355398E+02  0.00000000000E+00 0.  1.
</event>
<event>
 7    1  0.3133585E-009  0.1783925E+03  0.7561462E-02  0.1169368E+00
          2   -1    0    0  501    0  0.00000000000E+00  0.00000000000E+00  0.71951955818E+03  0.71951955818E+03  0.00000000000E+00 0. -1.
         -2   -1    0    0    0  501 -0.00000000000E+00 -0.00000000000E+00 -0.54834435189E+02  0.54834435189E+02  0.00000000000E+00 0.  1.
         25    2    1    2    0    0 -0.14464640640E+03  0.81963479757E+02  0.35004390647E+03  0.40720831441E+03  0.12508908814E+03 0.  0.
          5    1    3    3  502    0 -0.80340027720E+01  0.93491574373E+01 -0.92699375862E+01  0.15979865086E+02  0.41800000000E+01 0. -1.
         -5    1    3    3    0  502 -0.13661240362E+03  0.72614322320E+02  0.35931384406E+03  0.39122844933E+03  0.41800000000E+01 0. -1.
        -11    1    1    2    0    0  0.84328673583E+02 -0.95271465312E+02  0.21961762221E+03  0.25381071151E+03  0.00000000000E+00 0.  1.
         11    1    1    2    0    0  0.60317732813E+02  0.13307985556E+02  0.95023594309E+02  0.11333496745E+03  0.00000000000E+00 0. -1.
</event>
<event>
 7    1  0.2840156E-009  0.8997024E+02  0.7561462E-02  0.1302924E+00
          2   -1    0    0  501    0  0.00000000000E+00  0.00000000000E+00  0.55679248826E+03  0.55679248826E+03  0.00000000000E+00 0. -1.
         -2   -1    0    0    0  501 -0.00000000000E+00 -0.00000000000E+00 -0.21319985329E+02  0.21319985329E+02  0.00000000000E+00 0.  1.
         25    2    1    2    0    0  0.19999820785E+02  0.80830436650E+01  0.31256236560E+03  0.33735089626E+03  0.12508023980E+03 0.  0.
          5    1    3    3  502    0  0.38901903486E+02 -0.47557900642E+02  0.21239942894E+03  0.22114724015E+03  0.41800000000E+01 0.  1.
         -5    1    3    3    0  502 -0.18902082701E+02  0.55640944307E+02  0.10016293666E+03  0.11620365611E+03  0.41800000000E+01 0.  1.
        -11    1    1    2    0    0  0.10624081642E+02  0.16873106928E+02  0.67946915565E+01  0.21065153251E+02  0.00000000000E+00 0.  1.
         11    1    1    2    0    0 -0.30623902427E+02 -0.24956150593E+02  0.21611544577E+03  0.21969642408E+03  0.00000000000E+00 0. -1.
</event>
<event>
 7    1  0.2840156E-009  0.1053316E+03  0.7561462E-02  0.1269468E+00
         -2   -1    0    0    0  501 -0.00000000000E+00  0.00000000000E+00  0.10919639274E+03  0.10919639274E+03  0.00000000000E+00 0. -1.
          2   -1    0    0  501    0  0.00000000000E+00 -0.00000000000E+00 -0.19937913032E+03  0.19937913032E+03  0.00000000000E+00 0.  1.
         25    2    1    2    0    0 -0.70367565174E+02  0.53707727088E+02 -0.61763314303E+02  0.16522485138E+03  0.12509368626E+03 0.  0.
          5    1    3    3  502    0  0.10173654083E+02  0.37468677131E+02  0.24438182176E+02  0.46066279982E+02  0.41800000000E+01 0.  1.
         -5    1    3    3    0  502 -0.80541219256E+02  0.16239049957E+02 -0.86201496479E+02  0.11915857140E+03  0.41800000000E+01 0.  1.
        -11    1    1    2    0    0  0.50597763369E+02 -0.45110137387E+02 -0.69420625436E+02  0.97027219835E+02  0.00000000000E+00 0.  1.
         11    1    1    2    0    0  0.19769801805E+02 -0.85975897006E+01  0.41001202160E+02  0.46323451843E+02  0.00000000000E+00 0. -1.
</event>
<event>
 7    1  0.2840156E-009  0.2595428E+03  0.7561462E-02  0.1107418E+00
         -1   -1    0    0    0  501 -0.00000000000E+00  0.00000000000E+00  0.28804060182E+03  0.28804060182E+03  0.00000000000E+00 0.  1.
          1   -1    0    0  501    0  0.00000000000E+00 -0.00000000000E+00 -0.26524632047E+03  0.26524632047E+03  0.00000000000E+00 0. -1.
         25    2    1    2    0    0 -0.12847804688E+02 -0.23717453638E+03 -0.78875043401E+02  0.27979468098E+03  0.12508782612E+03 0.  0.
          5    1    3    3  502    0  0.43838484790E+02 -0.18695830939E+03 -0.64378615814E+02  0.20257665407E+03  0.41800000000E+01 0. -1.
         -5    1    3    3    0  502 -0.56686289477E+02 -0.50216226984E+02 -0.14496427587E+02  0.77218026911E+02  0.41800000000E+01 0. -1.
        -11    1    1    2    0    0  0.47233515554E+02  0.15640094589E+03  0.46726004951E+02  0.16992816248E+03  0.00000000000E+00 0. -1.
         11    1    1    2    0    0 -0.34385710866E+02  0.80773590489E+02  0.54943319808E+02  0.10356407883E+03  0.00000000000E+00 0.  1.
</event>
<event>
 7    1  0.2840156E-009  0.1049524E+03  0.7561462E-02  0.1270213E+00
         -1   -1    0    0    0  501 -0.00000000000E+00  0.00000000000E+00  0.25365174452E+03  0.25365174452E+03  0.00000000000E+00 0.  1.
          1   -1    0    0  501    0  0.00000000000E+00 -0.00000000000E+00 -0.59099185005E+02  0.59099185005E+02  0.00000000000E+00 0. -1.
         25    2    1    2    0    0  0.29076386654E+02 -0.29037825243E+02  0.66347267845E+02  0.14744709882E+03  0.12510018163E+03 0.  0.
          5    1    3    3  502    0 -0.43397068826E+02 -0.26173588032E+02  0.28036268279E+01  0.50928332160E+02  0.41800000000E+01 0. -1.
         -5    1    3    3    0  502  0.72473455480E+02 -0.28642372114E+01  0.63543641017E+02  0.96518766661E+02  0.41800000000E+01 0. -1.
        -11    1    1    2    0    0 -0.34495724155E+02  0.52226151528E+02  0.12685105815E+03  0.14145217157E+03  0.00000000000E+00 0.  1.
         11    1    1    2    0    0  0.54193375016E+01 -0.23188326285E+02  0.13542335171E+01  0.23851659130E+02  0.00000000000E+00 0. -1.
</event>
<event>
 7    1  0.2840156E-009  0.1731292E+03  0.7561462E-02  0.1174623E+00
          2   -1    0    0  501    0  0.00000000000E+00  0.00000000000E+00  0.55011205966E+03  0.55011205966E+03  0.00000000000E+00 0. -1.
         -2   -1    0    0    0  501 -0.00000000000E+00 -0.00000000000E+00 -0.63101343911E+02  0.63101343911E+02  0.00000000000E+00 0.  1.
         25    2    1    2    0    0  0.14628666972E+03 -0.34943249898E+02  0.22871226543E+03  0.30096913076E+03  0.12510913980E+03 0.  0.
          5    1    3    3  502    0  0.15059413105E+03 -0.63315765042E+02  0.21138568884E+03  0.26718693878E+03  0.41800000000E+01 0.  1.
         -5    1    3    3    0  502 -0.43074613316E+01  0.28372515143E+02  0.17326576592E+02  0.33782191982E+02  0.41800000000E+01 0.  1.
        -11    1    1    2    0    0 -0.12929064099E+03  0.19264235637E+02  0.25787872199E+03  0.28911695882E+03  0.00000000000E+00 0. -1.
         11    1    1    2    0    0 -0.16996028722E+02  0.15679014262E+02  0.41972833112E+00  0.23127313990E+02  0.00000000000E+00 0.  1.
</event>
<event>
 7    1  0.2840156E-009  0.1112101E+03  0.7561462E-02  0.1258345E+00
          1   -1    0    0  501    0  0.00000000000E+00  0.00000000000E+00  0.89663880782E+03  0.89663880782E+03  0.00000000000E+00 0. -1.
         -1   -1    0    0    0  501 -0.00000000000E+00 -0.00000000000E+00 -0.15329014093E+02  0.15329014093E+02  0.00000000000E+00 0.  1.
         25    2    1    2    0    0 -0.37596310108E+02 -0.48640477027E+01  0.42838903216E+03  0.44788583867E+03  0.12508964831E+03 0.  0.
          5    1    3    3  502    0  0.39434549069E+01  0.51258181312E+02  0.10457890098E+03  0.11660690768E+03  0.41800000000E+01 0.  1.
         -5    1    3    3    0  502 -0.41539765015E+02 -0.56122229014E+02  0.32381013118E+03  0.33127893099E+03  0.41800000000E+01 0.  1.
        -11    1    1    2    0    0  0.33656387742E+02  0.47422756355E+02  0.24397554350E+03  0.25081015945E+03  0.00000000000E+00 0.  1.
         11    1    1    2    0    0  0.39399223665E+01 -0.42558708652E+02  0.20894521806E+03  0.21327182379E+03  0.00000000000E+00 0. -1.
</event>
<event>
 7    1  0.2840156E-009  0.8540711E+02  0.7561462E-02  0.1314371E+00
          1   -1    0    0  501    0  0.00000000000E+00  0.00000000000E+00  0.59067370082E+03  0.59067370082E+03  0.00000000000E+00 0. -1.
         -1   -1    0    0    0  501 -0.00000000000E+00 -0.00000000000E+00 -0.20492435889E+02  0.20492435889E+02  0.00000000000E+00 0.  1.
         25    2    1    2    0    0 -0.17318796306E+02  0.12841081939E+02  0.30385170874E+03  0.32929871729E+03  0.12508777005E+03 0.  0.
          5    1    3    3  502    0  0.16512753282E+02 -0.23365423257E+02  0.90008451322E+01  0.30283686005E+02  0.41800000000E+01 0. -1.
         -5    1    3    3    0  502 -0.33831549588E+02  0.36206505196E+02  0.29485086361E+03  0.29901503129E+03  0.41800000000E+01 0. -1.
        -11    1    1    2    0    0  0.33366901611E+02  0.30962458207E+02  0.13877075068E+03  0.14604569554E+03  0.00000000000E+00 0.  1.
         11    1    1    2    0    0 -0.16048105305E+02 -0.43803540145E+02  0.12755880551E+03  0.13582172388E+03  0.00000000000E+00 0. -1.
</event>
<event>
 7    1  0.2840156E-009  0.1344547E+03  0.7561462E-02  0.1220992E+00
         -1   -1    0    0    0  501 -0.00000000000E+00  0.00000000000E+00  0.14624620521E+03  0.14624620521E+03  0.00000000000E+00 0.  1.
          1   -1    0    0  501    0  0.00000000000E+00 -0.00000000000E+00 -0.27870355508E+03  0.27870355508E+03  0.00000000000E+00 0. -1.
         25    2    1    2    0    0 -0.78431019346E+02 -0.59433560768E+02 -0.21463488188E+03  0.26721282861E+03  0.12510311872E+03 0.  0.
          5    1    3    3  502    0 -0.20420687582E+02 -0.82552790856E+02 -0.72203287500E+02  0.11163670940E+03  0.41800000000E+01 0. -1.
         -5    1    3    3    0  502 -0.58010331764E+02  0.23119230087E+02 -0.14243159438E+03  0.15557611921E+03  0.41800000000E+01 0. -1.
        -11    1    1    2    0    0  0.82228986096E+02  0.24165387686E+02  0.22994004125E+02  0.88737231995E+02  0.00000000000E+00 0. -1.
         11    1    1    2    0    0 -0.37979667501E+01  0.35268173082E+02  0.59183527882E+02  0.68999699684E+02  0.00000000000E+00 0.  1.
</event>
<event>
 7    1  0.2840156E-009  0.6880890E+02  0.7561462E-02  0.1364191E+00
          1   -1    0    0  501    0  0.00000000000E+00  0.00000000000E+00  0.28139053229E+03  0.28139053229E+03  0.00000000000E+00 0. -1.
         -1   -1    0    0    0  501 -0.00000000000E+00 -0.00000000000E+00 -0.47529981854E+02  0.47529981854E+02  0.00000000000E+00 0.  1.
         25    2    1    2    0    0  0.19618865870E+02 -0.32305322602E+02  0.14936127400E+03  0.19845476987E+03  0.12508785611E+03 0.  0.
          5    1    3    3  502    0  0.10931106403E+02 -0.40866996681E+02  0.16938555647E+03  0.17463831094E+03  0.41800000000E+01 0. -1.
         -5    1    3    3    0  502  0.86877594670E+01  0.85616740781E+01 -0.20024282474E+02  0.23816458934E+02  0.41800000000E+01 0. -1.
        -11    1    1    2    0    0 -0.47582045611E+02  0.18813209130E+02  0.85230246910E+02  0.99409169047E+02  0.00000000000E+00 0. -1.
         11    1    1    2    0    0  0.27963179741E+02  0.13492113472E+02 -0.73097047070E+00  0.31056575230E+02  0.00000000000E+00 0.  1.
</event>
<event>
 7    1  0.2840156E-009  0.7872415E+02  0.7561462E-02  0.1332712E+00
          3   -1    0    0  501    0  0.00000000000E+00  0.00000000000E+00  0.13506738286E+03  0.13506738286E+03  0.00000000000E+00 0. -1.
         -3   -1    0    0    0  501 -0.00000000000E+00 -0.00000000000E+00 -0.16421281920E+03  0.16421281920E+03  0.00000000000E+00 0.  1.
         25    2    1    2    0    0  0.66659847039E+02  0.49878875036E+01  0.62300211466E+02  0.15491442274E+03  0.12509495512E+03 0.  0.
          5    1    3    3  502    0  0.63831991900E+02  0.11790841866E+02 -0.23151774918E+02  0.69043639994E+02  0.41800000000E+01 0. -1.
         -5    1    3    3    0  502  0.28278551387E+01 -0.68029543627E+01  0.85451986384E+02  0.85870782747E+02  0.41800000000E+01 0. -1.
        -11    1    1    2    0    0 -0.70950333467E+02 -0.15459478224E+02 -0.10439638101E+03  0.12716740799E+03  0.00000000000E+00 0.  1.
         11    1    1    2    0    0  0.42904864283E+01  0.10471590720E+02  0.12950733209E+02  0.17198371337E+02  0.00000000000E+00 0. -1.
</event>
<event>
 7    1  0.2840156E-009  0.1174126E+03  0.7561462E-02  0.1247428E+00
          2   -1    0    0  501    0  0.00000000000E+00  0.00000000000E+00  0.96774242795E+02  0.96774242795E+02  0.00000000000E+00 0. -1.
         -2   -1    0    0    0  501 -0.00000000000E+00 -0.00000000000E+00 -0.22492320236E+03  0.22492320236E+03  0.00000000000E+00 0.  1.
         25    2    1    2    0    0 -0.42887782149E+02 -0.72220935872E+02 -0.12893622180E+03  0.19831183591E+03  0.12509120487E+03 0.  0.
          5    1    3    3  502    0  0.20847670818E+02  0.16781438752E+02  0.25064340045E+01  0.27202879931E+02  0.41800000000E+01 0. -1.
         -5    1    3    3    0  502 -0.63735452967E+02 -0.89002374624E+02 -0.13144265580E+03  0.17110895598E+03  0.41800000000E+01 0. -1.
        -11    1    1    2    0    0  0.84066844977E+01  0.61510327203E+02 -0.36061681876E+02  0.71795804868E+02  0.00000000000E+00 0.  1.
         11    1    1    2    0    0  0.34481097651E+02  0.10710608669E+02  0.36848944108E+02  0.51589804372E+02  0.00000000000E+00 0. -1.
</event>
<event>
 7    1  0.2840156E-009  0.9153669E+02  0.7561462E-02  0.1299172E+00
          2   -1    0    0  501    0  0.00000000000E+00  0.00000000000E+00  0.48175201398E+02  0.48175201398E+02  0.00000000000E+00 0. -1.
         -2   -1    0    0    0  501 -0.00000000000E+00 -0.00000000000E+00 -0.29178245621E+03  0.29178245621E+03  0.00000000000E+00 0.  1.
         25    2    1    2    0    0  0.97087946110E+01  0.46910512951E+02 -0.13043556786E+03  0.18696406204E+03  0.12508903314E+03 0.  0.
          5    1    3    3  502    0 -0.44210391689E+02 -0.42703994362E+01 -0.10559149226E+02  0.45844989662E+02  0.41800000000E+01 0. -1.
         -5    1    3    3    0  502  0.53919186301E+02  0.51180912387E+02 -0.11987641864E+03  0.14111907238E+03  0.41800000000E+01 0. -1.
        -11    1    1    2    0    0 -0.96292223878E+01  0.58327494809E+01  0.12428025302E+02  0.16768980386E+02  0.00000000000E+00 0. -1.
         11    1    1    2    0    0 -0.79572223211E-01 -0.52743262432E+02 -0.12559971225E+03  0.13622461518E+03  0.00000000000E+00 0.  1.
</event>
<event>
 7    1  0.2840156E-009  0.4595346E+03  0.7561462E-02  0.1024916E+00
         -2   -1    0    0    0  501 -0.00000000000E+00  0.00000000000E+00  0.17411094069E+04  0.17411094069E+04  0.00000000000E+00 0.  1.
          2   -1    0    0  501    0  0.00000000000E+00 -0.00000000000E+00 -0.23631390694E+03  0.23631390694E+03  0.00000000000E+00 0. -1.
         25    2    1    2    0    0  0.33879705162E+03  0.29549459130E+03  0.14408914062E+04  0.15145677331E+04  0.12508748063E+03 0.  0.
          5    1    3    3  502    0  0.18509475579E+03  0.23376920908E+03  0.84521062363E+03  0.89627372071E+03  0.41800000000E+01 0. -1.
         -5    1    3    3    0  502  0.15370229583E+03  0.61725382220E+02  0.59568078259E+03  0.61829401234E+03  0.41800000000E+01 0. -1.
        -11    1    1    2    0    0 -0.33709716949E+03 -0.27617044912E+03  0.72265157104E+02  0.44173167373E+03  0.00000000000E+00 0.  1.
         11    1    1    2    0    0 -0.16998821217E+01 -0.19324142180E+02 -0.83610633406E+01  0.21123907082E+02  0.00000000000E+00 0. -1.
</event>
<event>
 7    1  0.2840156E-009  0.1711213E+03  0.7561462E-02  0.1176684E+00
          2   -1    0    0  501    0  0.00000000000E+00  0.00000000000E+00  0.29436187227E+03  0.29436187227E+03  0.00000000000E+00 0. -1.
         -2   -1    0    0    0  501 -0.00000000000E+00 -0.00000000000E+00 -0.13300364762E+03  0.13300364762E+03  0.00000000000E+00 0.  1.
         25    2    1    2    0    0  0.36097910061E+02 -0.15448156685E+03  0.37793478779E+02  0.20553172841E+03  0.12508929105E+03 0.  0.
          5    1    3    3  502    0  0.31026524338E+02 -0.81533250796E+02  0.82151734070E+02  0.11990286072E+03  0.41800000000E+01 0. -1.
         -5    1    3    3    0  502  0.50713857228E+01 -0.72948316058E+02 -0.44358255290E+02  0.85628867687E+02  0.41800000000E+01 0. -1.
        -11    1    1    2    0    0 -0.53740625460E+02  0.43092875530E+02  0.29331511610E+02  0.74869141304E+02  0.00000000000E+00 0.  1.
         11    1    1    2    0    0  0.17642715400E+02  0.11138869132E+03  0.94233234268E+02  0.14696465018E+03  0.00000000000E+00 0. -1.
</event>
<event>
 7    1  0.2840156E-009  0.7092144E+02  0.7561462E-02  0.1356987E+00
         -4   -1    0    0    0  501 -0.00000000000E+00  0.00000000000E+00  0.88311143759E+02  0.88311143759E+02  0.00000000000E+00 0.  1.
          4   -1    0    0  501    0  0.00000000000E+00 -0.00000000000E+00 -0.16532909483E+03  0.16532909483E+03  0.00000000000E+00 0. -1.
         25    2    1    2    0    0  0.40206148673E+02  0.12532704639E+02 -0.69382373646E+01  0.13216864580E+03  0.12508720446E+03 0.  0.
          5    1    3    3  502    0  0.20672131768E+02  0.36028354822E+01 -0.65895367014E+02  0.69281954716E+02  0.41800000000E+01 0.  1.
         -5    1    3    3    0  502  0.19534016905E+02  0.89298691565E+01  0.58957129649E+02  0.62886691089E+02  0.41800000000E+01 0.  1.
        -11    1    1    2    0    0  0.14803045930E+02  0.27022440284E+02 -0.15625708708E+02  0.34547144894E+02  0.00000000000E+00 0.  1.
         11    1    1    2    0    0 -0.55009194602E+02 -0.39555144923E+02 -0.54454005001E+02  0.86924447892E+02  0.00000000000E+00 0. -1.
</event>
<event>
 7    1  0.2840156E-009  0.1212668E+03  0.7561462E-02  0.1241022E+00
         -2   -1    0    0    0  501 -0.00000000000E+00  0.00000000000E+00  0.45698026162E+03  0.45698026162E+03  0.00000000000E+00 0. -1.
          2   -1    0    0  501    0  0.00000000000E+00 -0.00000000000E+00 -0.39798288123E+02  0.39798288123E+02  0.00000000000E+00 0.  1.
         25    2    1    2    0    0 -0.84129662117E+00 -0.77968463532E+02  0.25164669808E+03  0.29164075403E+03  0.12509388344E+03 0.  0.
          5    1    3    3  502    0 -0.65107050192E+01  0.20915406152E+02  0.12518423580E+01  0.22335689012E+02  0.41800000000E+01 0. -1.
         -5    1    3    3    0  502  0.56694083980E+01 -0.98883869684E+02  0.25039485572E+03  0.26930506502E+03  0.41800000000E+01 0. -1.
        -11    1    1    2    0    0  0.43684945194E+02  0.17656815256E+02  0.61258743592E+02  0.77283706097E+02  0.00000000000E+00 0. -1.
         11    1    1    2    0    0 -0.42843648573E+02  0.60311648276E+02  0.10427653183E+03  0.12785408962E+03  0.00000000000E+00 0.  1.
</event>
<event>
 7    1  0.2840156E-009  0.1263710E+03  0.7561462E-02  0.1232942E+00
         -2   -1    0    0    0  501 -0.00000000000E+00  0.00000000000E+00  0.15312136782E+02  0.15312136782E+02  0.00000000000E+00 0.  1.
          2   -1    0    0  501    0  0.00000000000E+00 -0.00000000000E+00 -0.15370716084E+04  0.15370716084E+04  0.00000000000E+00 0. -1.
         25    2    1    2    0    0  0.10153677244E+03  0.29486796072E+02 -0.92597680747E+03  0.94035072364E+03  0.12508896107E+03 0.  0.
          5    1    3    3  502    0  0.98401107904E+02  0.37964362226E+02 -0.92423259110E+03  0.93024052034E+03  0.41800000000E+01 0. -1.
         -5    1    3    3    0  502  0.31356645352E+01 -0.84775661543E+01 -0.17442163679E+01  0.10110203297E+02  0.41800000000E+01 0. -1.
        -11    1    1    2    0    0 -0.83496249428E+02 -0.59280294388E+02 -0.49259022083E+03  0.50312116099E+03  0.00000000000E+00 0. -1.
         11    1    1    2    0    0 -0.18040523011E+02  0.29793498316E+02 -0.10319244334E+03  0.10891186058E+03  0.00000000000E+00 0.  1.
</event>
<event>
 7    1  0.2840156E-009  0.8726084E+02  0.7561462E-02  0.1309624E+00
         -1   -1    0    0    0  501 -0.00000000000E+00  0.00000000000E+00  0.45381338533E+02  0.45381338533E+02  0.00000000000E+00 0.  1.
          1   -1    0    0  501    0  0.00000000000E+00 -0.00000000000E+00 -0.53433476558E+03  0.53433476558E+03  0.00000000000E+00 0. -1.
         25    2    1    2    0    0 -0.33683705123E+02  0.51745255716E+02 -0.42926995488E+03  0.45136649724E+03  0.12508739821E+03 0.  0.
          5    1    3    3  502    0 -0.41385849625E+02  0.30002096671E+02 -0.50855183915E+02  0.72226286661E+02  0.41800000000E+01 0.  1.
         -5    1    3    3    0  502  0.77021445016E+01  0.21743159045E+02 -0.37841477096E+03  0.37914021058E+03  0.41800000000E+01 0.  1.
        -11    1    1    2    0    0  0.20353535450E+02 -0.72401316104E+02 -0.14040675313E+02  0.76507238495E+02  0.00000000000E+00 0.  1.
         11    1    1    2    0    0  0.13330169673E+02  0.20656060388E+02 -0.45642796858E+02  0.51842368381E+02  0.00000000000E+00 0. -1.
</event>
<event>
 7    1  0.2840156E-009  0.1294939E+03  0.7561462E-02  0.1228209E+00
         -2   -1    0    0    0  501 -0.00000000000E+00  0.00000000000E+00  0.62099073486E+02  0.62099073486E+02  0.00000000000E+00 0.  1.
          2   -1    0    0  501    0  0.00000000000E+00 -0.00000000000E+00 -0.36646174908E+03  0.36646174908E+03  0.00000000000E+00 0. -1.
         25    2    1    2    0    0  0.98642657833E+02 -0.14207903891E+02 -0.20654681744E+03  0.26123267786E+03  0.12509470696E+03 0.  0.
          5    1    3    3  502    0 -0.67290222466E+01 -0.21027858390E+02 -0.12697894733E+03  0.12895183611E+03  0.41800000000E+01 0.  1.
         -5    1    3    3    0  502  0.10537168008E+03  0.68199544990E+01 -0.79567870105E+02  0.13228084175E+03  0.41800000000E+01 0.  1.
        -11    1    1    2    0    0 -0.88897628988E+02  0.44219609640E+02 -0.91763463100E+02  0.13519872587E+03  0.00000000000E+00 0. -1.
         11    1    1    2    0    0 -0.97450288441E+01 -0.30011705749E+02 -0.60523950588E+01  0.32129418842E+02  0.00000000000E+00 0.  1.
</event>
<event>
 7    1  0.2840156E-009  0.1305518E+03  0.7561462E-02  0.1226639E+00
         -1   -1    0    0    0  501 -0.00000000000E+00  0.00000000000E+00  0.26609621124E+03  0.26609621124E+03  0.00000000000E+00 0.  1.
          1   -1    0    0  501    0  0.00000000000E+00 -0.00000000000E+00 -0.13277110010E+03  0.13277110010E+03  0.00000000000E+00 0. -1.
         25    2    1    2    0    0 -0.20629759288E+02  0.11756299432E+03 -0.35040812989E+02  0.17642332142E+03  0.12510269846E+03 0.  0.
          5    1    3    3  502    0  0.10206464326E+01  0.59647684263E+02 -0.79985370032E+02  0.99870014400E+02  0.41800000000E+01 0. -1.
         -5    1    3    3    0  502 -0.21650405720E+02  0.57915310060E+02  0.44944557044E+02  0.76553307016E+02  0.41800000000E+01 0. -1.
        -11    1    1    2    0    0  0.43453423505E+02 -0.42146027724E+02  0.10554002218E+03  0.12166833585E+03  0.00000000000E+00 0.  1.
         11    1    1    2    0    0 -0.22823664217E+02 -0.75416966600E+02  0.62825901948E+02  0.10077565408E+03  0.00000000000E+00 0. -1.
</event>
<event>
 7    1  0.2840156E-009  0.1641324E+03  0.7561462E-02  0.1184109E+00
          3   -1    0    0  501    0  0.00000000000E+00  0.00000000000E+00  0.84604595118E+02  0.84604595118E+02  0.00000000000E+00 0. -1.
         -3   -1    0    0    0  501 -0.00000000000E+00 -0.00000000000E+00 -0.45921890866E+03  0.45921890866E+03  0.00000000000E+00 0.  1.
         25    2    1    2    0    0  0.34066477971E+02 -0.14851203255E+03 -0.11356256761E+03  0.22751018514E+03  0.12509228133E+03 0.  0.
          5    1    3    3  502    0  0.16044568534E+02 -0.29752895064E+02 -0.10108924378E+03  0.10667319510E+03  0.41800000000E+01 0. -1.
         -5    1    3    3    0  502  0.18021909437E+02 -0.11875913748E+03 -0.12473323833E+02  0.12083699005E+03  0.41800000000E+01 0. -1.
        -11    1    1    2    0    0 -0.48842091763E+02  0.36356755213E+02 -0.12748030797E+03  0.14127488276E+03  0.00000000000E+00 0.  1.
         11    1    1    2    0    0  0.14775613792E+02  0.11215527734E+03 -0.13357143796E+03  0.17503843588E+03  0.00000000000E+00 0. -1.
</event>
<event>
 7    1  0.2840156E-009  0.1180145E+03  0.7561462E-02  0.1246409E+00
         -2   -1    0    0    0  501 -0.00000000000E+00  0.00000000000E+00  0.11357167451E+02  0.11357167451E+02  0.00000000000E+00 0.  1.
          2   -1    0    0  501    0  0.00000000000E+00 -0.00000000000E+00 -0.12932244592E+04  0.12932244592E+04  0.00000000000E+00 0. -1.
         25    2    1    2    0    0 -0.44873513079E+02 -0.28673693199E+02 -0.85205331368E+03  0.86283170581E+03  0.12509152785E+03 0.  0.
          5    1    3    3  502    0 -0.46167104278E+02 -0.75384724615E+02 -0.59245301449E+03  0.59902613049E+03  0.41800000000E+01 0. -1.
         -5    1    3    3    0  502  0.12935911988E+01  0.46711031416E+02 -0.25960029918E+03  0.26380557532E+03  0.41800000000E+01 0. -1.
        -11    1    1    2    0    0  0.23286661755E+02  0.58978483088E+02 -0.23439422149E+03  0.24281964737E+03  0.00000000000E+00 0.  1.
         11    1    1    2    0    0  0.21586851325E+02 -0.30304789889E+02 -0.19541975654E+03  0.19893027343E+03  0.00000000000E+00 0. -1.
</event>
<event>
 7    1  0.2840156E-009  0.7152966E+02  0.7561462E-02  0.1354967E+00
         -1   -1    0    0    0  501 -0.00000000000E+00  0.00000000000E+00  0.53888651596E+02  0.53888651596E+02  0.00000000000E+00 0.  1.
          1   -1    0    0  501    0  0.00000000000E+00 -0.00000000000E+00 -0.88465854550E+03  0.88465854550E+03  0.00000000000E+00 0. -1.
         25    2    1    2    0    0 -0.56906037215E+02  0.29813073765E+02 -0.81889745882E+03  0.83088358651E+03  0.12508944732E+03 0.  0.
          5    1    3    3  502    0 -0.48899364232E+02  0.25011548030E+02 -0.81880335132E+03  0.82065408418E+03  0.41800000000E+01 0. -1.
         -5    1    3    3    0  502 -0.80066729823E+01  0.48015257353E+01 -0.94107501829E-01  0.10229502327E+02  0.41800000000E+01 0. -1.
        -11    1    1    2    0    0  0.15918519829E+02 -0.32996623856E+02  0.31199961961E+02  0.48120827984E+02  0.00000000000E+00 0.  1.
         11    1    1    2    0    0  0.40987517386E+02  0.31835500914E+01 -0.43072397039E+02  0.59542782596E+02  0.00000000000E+00 0. -1.
</event>
<event>
 7    1  0.2840156E-009  0.1010748E+03  0.7561462E-02  0.1278052E+00
         -3   -1    0    0    0  501 -0.00000000000E+00  0.00000000000E+00  0.76831316681E+03  0.76831316681E+03  0.00000000000E+00 0.  1.
          3   -1    0    0  501    0  0.00000000000E+00 -0.00000000000E+00 -0.31265473956E+02  0.31265473956E+02  0.00000000000E+00 0. -1.
         25    2    1    2    0    0 -0.25548982108E+02 -0.35830292461E+02  0.65726546398E+03  0.67050882916E+03  0.12509052518E+03 0.  0.
          5    1    3    3  502    0 -0.17426564114E+02 -0.72365999292E+02  0.57758636680E+03  0.58237788978E+03  0.41800000000E+01 0. -1.
         -5    1    3    3    0  502 -0.81224179937E+01  0.36535706832E+02  0.79679097177E+02  0.88130939373E+02  0.41800000000E+01 0. -1.
        -11    1    1    2    0    0 -0.64942281486E+01 -0.22481860953E+02  0.51892253330E+02  0.56924643405E+02  0.00000000000E+00 0.  1.
         11    1    1    2    0    0  0.32043210256E+02  0.58312153413E+02  0.27889975540E+02  0.72145168202E+02  0.00000000000E+00 0. -1.
</event>
<event>
 7    1  0.3169833E-009  0.1564742E+03  0.7561462E-02  0.1192736E+00
         -1   -1    0    0    0  501 -0.00000000000E+00  0.00000000000E+00  0.30875812547E+02  0.30875812547E+02  0.00000000000E+00 0.  1.
          1   -1    0    0  501    0  0.00000000000E+00 -0.00000000000E+00 -0.10118669675E+04  0.10118669675E+04  0.00000000000E+00 0. -1.
         25    2    1    2    0    0 -0.13214307703E+03  0.38542459591E+02 -0.45334010751E+03  0.49001027371E+03  0.12508197816E+03 0.  0.
          5    1    3    3  502    0 -0.52998834254E+02 -0.25509058287E+02 -0.30106167960E+03  0.30678200047E+03  0.41800000000E+01 0.  1.
         -5    1    3    3    0  502 -0.79144242773E+02  0.64051517878E+02 -0.15227842792E+03  0.18322827324E+03  0.41800000000E+01 0.  1.
        -11    1    1    2    0    0  0.10452389075E+03  0.17184951260E+00 -0.24894060677E+03  0.26999388691E+03  0.00000000000E+00 0.  1.
         11    1    1    2    0    0  0.27619186281E+02 -0.38714309103E+02 -0.27871044065E+03  0.28273861941E+03  0.00000000000E+00 0. -1.
</event>
<event>
 7    1  0.2840156E-009  0.1180160E+03  0.7561462E-02  0.1246406E+00
         -1   -1    0    0    0  501 -0.00000000000E+00  0.00000000000E+00  0.51110998312E+02  0.51110998312E+02  0.00000000000E+00 0.  1.
          1   -1    0    0  501    0  0.00000000000E+00 -0.00000000000E+00 -0.34712767262E+03  0.34712767262E+03  0.00000000000E+00 0. -1.
         25    2    1    2    0    0 -0.44711349733E+02  0.60977783747E+02 -0.16879257442E+03  0.22327332207E+03  0.12507057313E+03 0.  0.
          5    1    3    3  502    0 -0.18528571356E+01  0.74201149461E+02 -0.16130078093E+03  0.17760815856E+03  0.41800000000E+01 0.  1.
         -5    1    3    3    0  502 -0.42858492598E+02 -0.13223365714E+02 -0.74917934981E+01  0.45665163510E+02  0.41800000000E+01 0.  1.
        -11    1    1    2    0    0 -0.21596154160E+02 -0.42720014752E+02 -0.32306962288E+02  0.57750613393E+02  0.00000000000E+00 0.  1.
         11    1    1    2    0    0  0.66307503893E+02 -0.18257768995E+02 -0.94917137596E+02  0.11721473547E+03  0.00000000000E+00 0. -1.
</event>
<event>
 7    1  0.2840156E-009  0.1682636E+03  0.7561462E-02  0.1179671E+00
          2   -1    0    0  501    0  0.00000000000E+00  0.00000000000E+00  0.79401564963E+03  0.79401564963E+03  0.00000000000E+00 0.  1.
         -2   -1    0    0    0  501 -0.00000000000E+00 -0.00000000000E+00 -0.48658127971E+02  0.48658127971E+02  0.00000000000E+00 0. -1.
         25    2    1    2    0    0  0.21604465410E+02  0.13204946942E+03  0.59066722150E+03  0.61841860526E+03  0.12509991799E+03 0.  0.
          5    1    3    3  502    0 -0.44943409686E+02  0.28984486147E+02  0.26522407976E+03  0.27059433733E+03  0.41800000000E+01 0.  1.
         -5    1    3    3    0  502  0.66547875096E+02  0.10306498327E+03  0.32544314174E+03  0.34782426793E+03  0.41800000000E+01 0.  1.
        -11    1    1    2    0    0  0.32594243470E+02 -0.28684591520E+02  0.26382451308E+02  0.50805750020E+02  0.00000000000E+00 0.  1.
         11    1    1    2    0    0 -0.54198708880E+02 -0.10336487790E+03  0.12830784886E+03  0.17344942233E+03  0.00000000000E+00 0. -1.
</event>
<event>
 7    1  0.2840156E-009  0.1102183E+03  0.7561462E-02  0.1260166E+00
         -2   -1    0    0    0  501 -0.00000000000E+00  0.00000000000E+00  0.26397085846E+02  0.26397085846E+02  0.00000000000E+00 0.  1.
          2   -1    0    0  501    0  0.00000000000E+00 -0.00000000000E+00 -0.52891897912E+03  0.52891897912E+03  0.00000000000E+00 0. -1.
         25    2    1    2    0    0  0.30048317344E+02 -0.13462470485E+02 -0.37291686257E+03  0.39471334187E+03  0.12508995315E+03 0.  0.
          5    1    3    3  502    0  0.72739894332E+02 -0.31127901827E+02 -0.27793841043E+03  0.28901084909E+03  0.41800000000E+01 0. -1.
         -5    1    3    3    0  502 -0.42691576988E+02  0.17665431342E+02 -0.94978452135E+02  0.10570249278E+03  0.41800000000E+01 0. -1.
        -11    1    1    2    0    0  0.28112182081E+02  0.22434266126E+02 -0.47178746988E+02  0.59324743955E+02  0.00000000000E+00 0.  1.
         11    1    1    2    0    0 -0.58160499424E+02 -0.89717956409E+01 -0.82426283715E+02  0.10127797913E+03  0.00000000000E+00 0. -1.
</event>
<event>
 7    1  0.2840156E-009  0.1327175E+03  0.7561462E-02  0.1223478E+00
          2   -1    0    0  501    0  0.00000000000E+00  0.00000000000E+00  0.37053296401E+03  0.37053296401E+03  0.00000000000E+00 0.  1.
         -2   -1    0    0    0  501 -0.00000000000E+00 -0.00000000000E+00 -0.67591869948E+02  0.67591869948E+02  0.00000000000E+00 0. -1.
         25    2    1    2    0    0 -0.95013233062E+02 -0.41559842453E+02  0.22487891471E+03  0.27744188273E+03  0.12509491216E+03 0.  0.
          5    1    3    3  502    0 -0.63956578616E+02  0.15711707003E+02  0.31081926350E+02  0.72944226850E+02  0.41800000000E+01 0. -1.
         -5    1    3    3    0  502 -0.31056654447E+02 -0.57271549456E+02  0.19379698836E+03  0.20449765588E+03  0.41800000000E+01 0. -1.
        -11    1    1    2    0    0  0.95021350931E+02  0.24526499000E+01  0.75683732105E+02  0.12150349760E+03  0.00000000000E+00 0.  1.
         11    1    1    2    0    0 -0.81178690008E-02  0.39107192553E+02  0.23784472479E+01  0.39179453628E+02  0.00000000000E+00 0. -1.
</event>
<event>
 7    1  0.2840156E-009  0.1611341E+03  0.7561462E-02  0.1187422E+00
         -2   -1    0    0    0  501 -0.00000000000E+00  0.00000000000E+00  0.71098490509E+02  0.71098490509E+02  0.00000000000E+00 0. -1.
          2   -1    0    0  501    0  0.00000000000E+00 -0.00000000000E+00 -0.54759752383E+03  0.54759752383E+03  0.00000000000E+00 0.  1.
         25    2    1    2    0    0  0.13052027162E+03  0.67391687370E+01 -0.40112252425E+03  0.44003168862E+03  0.12509056654E+03 0.  0.
          5    1    3    3  502    0  0.55325030437E+02  0.54058052919E+02 -0.10271237782E+03  0.12864850188E+03  0.41800000000E+01 0. -1.
         -5    1    3    3    0  502  0.75195241184E+02 -0.47318884182E+02 -0.29841014643E+03  0.31138318675E+03  0.41800000000E+01 0. -1.
        -11    1    1    2    0    0 -0.56914842533E+02 -0.45323071054E+02 -0.11090178558E+02  0.73596685597E+02  0.00000000000E+00 0. -1.
         11    1    1    2    0    0 -0.73605429087E+02  0.38583902317E+02 -0.64286330521E+02  0.10506764012E+03  0.00000000000E+00 0.  1.
</event>
<event>
 7    1  0.2840156E-009  0.1052996E+03  0.7561462E-02  0.1269530E+00
          3   -1    0    0  501    0  0.00000000000E+00  0.00000000000E+00  0.59215785581E+02  0.59215785581E+02  0.00000000000E+00 0. -1.
         -3   -1    0    0    0  501 -0.00000000000E+00 -0.00000000000E+00 -0.24633178459E+03  0.24633178459E+03  0.00000000000E+00 0.  1.
         25    2    1    2    0    0  0.13680586109E+02  0.49910465735E+02 -0.98449095116E+02  0.16738408310E+03  0.12508794474E+03 0.  0.
          5    1    3    3  502    0 -0.42052609978E+02  0.30784244486E+02  0.33563507091E+00  0.52284574832E+02  0.41800000000E+01 0. -1.
         -5    1    3    3    0  502  0.55733196086E+02  0.19126221250E+02 -0.98784730187E+02  0.11509950827E+03  0.41800000000E+01 0. -1.
        -11    1    1    2    0    0 -0.49720886666E+02 -0.27890394690E+02 -0.74088339556E+02  0.93483275215E+02  0.00000000000E+00 0.  1.
         11    1    1    2    0    0  0.36040300557E+02 -0.22020071045E+02 -0.14578564333E+02  0.44680211852E+02  0.00000000000E+00 0. -1.
</event>
<event>
 7    1  0.2840156E-009  0.1475413E+03  0.7561462E-02  0.1203527E+00
          2   -1    0    0  501    0  0.00000000000E+00  0.00000000000E+00  0.36348514580E+03  0.36348514580E+03  0.00000000000E+00 0. -1.
         -2   -1    0    0    0  501 -0.00000000000E+00 -0.00000000000E+00 -0.79323986701E+02  0.79323986701E+02  0.00000000000E+00 0.  1.
         25    2    1    2    0    0  0.13087438928E+02  0.12820775311E+03  0.17385296606E+03  0.24996224948E+03  0.12509102022E+03 0.  0.
          5    1    3    3  502    0  0.33373184171E+02  0.48420635199E+02  0.15728470742E+01  0.58976890243E+02  0.41800000000E+01 0. -1.
         -5    1    3    3    0  502 -0.20285745242E+02  0.79787117914E+02  0.17228011898E+03  0.19098535923E+03  0.41800000000E+01 0. -1.
        -11    1    1    2    0    0 -0.48905806755E+02 -0.76330848336E+02  0.42052575236E+02  0.99932954655E+02  0.00000000000E+00 0.  1.
         11    1    1    2    0    0  0.35818367827E+02 -0.51876904777E+02  0.68255617809E+02  0.92913928372E+02  0.00000000000E+00 0. -1.
</event>
<event>
 7    1  0.2840156E-009  0.1375155E+03  0.7561462E-02  0.1216712E+00
         -1   -1    0    0    0  501 -0.00000000000E+00  0.00000000000E+00  0.41399433791E+03  0.41399433791E+03  0.00000000000E+00 0.  1.
          1   -1    0    0  501    0  0.00000000000E+00 -0.00000000000E+00 -0.48454713326E+02  0.48454713326E+02  0.00000000000E+00 0. -1.
         25    2    1    2    0    0 -0.43955776109E+02  0.73918349957E+02  0.23752395709E+03  0.28188765305E+03  0.12508791322E+03 0.  0.
          5    1    3    3  502    0 -0.77306115670E+02  0.82925370288E+02  0.20478920449E+03  0.23411309924E+03  0.41800000000E+01 0. -1.
         -5    1    3    3    0  502  0.33350339561E+02 -0.90070203314E+01  0.32734752600E+02  0.47774553811E+02  0.41800000000E+01 0. -1.
        -11    1    1    2    0    0 -0.29424797090E+02 -0.24821672763E+02  0.31374501092E+02  0.49661790557E+02  0.00000000000E+00 0.  1.
         11    1    1    2    0    0  0.73380573199E+02 -0.49096677194E+02  0.96641166396E+02  0.13089960763E+03  0.00000000000E+00 0. -1.
</event>
<event>
 7    1  0.2840156E-009  0.1856207E+03  0.7561462E-02  0.1162471E+00
          2   -1    0    0  501    0  0.00000000000E+00  0.00000000000E+00  0.49128467719E+03  0.49128467719E+03  0.00000000000E+00 0. -1.
         -2   -1    0    0    0  501 -0.00000000000E+00 -0.00000000000E+00 -0.76689156970E+02  0.76689156970E+02  0.00000000000E+00 0.  1.
         25    2    1    2    0    0  0.15261638113E+03  0.21359331366E+02  0.28009482662E+03  0.34329114969E+03  0.12509084990E+03 0.  0.
          5    1    3    3  502    0  0.92447234521E+02  0.69066412125E+02  0.12497429689E+03  0.17015495214E+03  0.41800000000E+01 0. -1.
         -5    1    3    3    0  502  0.60169146613E+02 -0.47707080759E+02  0.15512052973E+03  0.17313619755E+03  0.41800000000E+01 0. -1.
        -11    1    1    2    0    0 -0.73659293875E+02  0.35303115543E+02  0.73907408506E+02  0.11015582859E+03  0.00000000000E+00 0. -1.
         11    1    1    2    0    0 -0.78957087259E+02 -0.56662446909E+02  0.60593285094E+02  0.11452685588E+03  0.00000000000E+00 0.  1.
</event>
<event>
 7    1  0.2840156E-009  0.1516843E+03  0.7561462E-02  0.1198419E+00
          1   -1    0    0  501    0  0.00000000000E+00  0.00000000000E+00  0.13599095475E+04  0.13599095475E+04  0.00000000000E+00 0. -1.
         -1   -1    0    0    0  501 -0.00000000000E+00 -0.00000000000E+00 -0.24192276215E+02  0.24192276215E+02  0.00000000000E+00 0.  1.
         25    2    1    2    0    0 -0.35579372248E+02 -0.13133351366E+03  0.52525121519E+03  0.55682149296E+03  0.12508777887E+03 0.  0.
          5    1    3    3  502    0 -0.10053808047E+02 -0.71320961216E+02  0.83883187238E+02  0.11064185495E+03  0.41800000000E+01 0.  1.
         -5    1    3    3    0  502 -0.25525564201E+02 -0.60012552447E+02  0.44136802796E+03  0.44617963802E+03  0.41800000000E+01 0.  1.
        -11    1    1    2    0    0  0.67325690974E+02  0.10447062889E+03  0.61768202397E+03  0.63006185705E+03  0.00000000000E+00 0. -1.
         11    1    1    2    0    0 -0.31746318727E+02  0.26862884777E+02  0.19278403212E+03  0.19721847371E+03  0.00000000000E+00 0.  1.
</event>
<event>
 7    1  0.2840156E-009  0.7018690E+02  0.7561462E-02  0.1359459E+00
          3   -1    0    0  501    0  0.00000000000E+00  0.00000000000E+00  0.58571030580E+02  0.58571030580E+02  0.00000000000E+00 0. -1.
         -3   -1    0    0    0  501 -0.00000000000E+00 -0.00000000000E+00 -0.20947297354E+03  0.20947297354E+03  0.00000000000E+00 0.  1.
         25    2    1    2    0    0  0.22951026920E+02 -0.16579917690E+02 -0.83992075026E+02  0.15330933389E+03  0.12508972733E+03 0.  0.
          5    1    3    3  502    0 -0.15168655374E+02  0.81666841249E+01  0.27567336353E+02  0.32775192891E+02  0.41800000000E+01 0.  1.
         -5    1    3    3    0  502  0.38119682293E+02 -0.24746601815E+02 -0.11155941138E+03  0.12053414100E+03  0.41800000000E+01 0.  1.
        -11    1    1    2    0    0  0.18436714908E+02 -0.15939554065E+02  0.57235142568E+01  0.25034784916E+02  0.00000000000E+00 0. -1.
         11    1    1    2    0    0 -0.41387741827E+02  0.32519471754E+02 -0.72633382194E+02  0.89699885316E+02  0.00000000000E+00 0.  1.
</event>
<event>
 7    1  0.2840156E-009  0.1509176E+03  0.7561462E-02  0.1199350E+00
          1   -1    0    0  501    0  0.00000000000E+00  0.00000000000E+00  0.26467024759E+02  0.26467024759E+02  0.00000000000E+00 0. -1.
         -1   -1    0    0    0  501 -0.00000000000E+00 -0.00000000000E+00 -0.12520582142E+04  0.12520582142E+04  0.00000000000E+00 0.  1.
         25    2    1    2    0    0  0.11904058152E+03  0.36089057425E+02 -0.91215277762E+03  0.92905558149E+03  0.12509397927E+03 0.  0.
          5    1    3    3  502    0  0.44773697429E+02 -0.39387430666E+02 -0.19037025058E+03  0.19953535622E+03  0.41800000000E+01 0. -1.
         -5    1    3    3    0  502  0.74266884094E+02  0.75476488091E+02 -0.72178252705E+03  0.72952022527E+03  0.41800000000E+01 0. -1.
        -11    1    1    2    0    0 -0.10042853177E+03 -0.58763162763E+01 -0.13974874520E+03  0.17219213940E+03  0.00000000000E+00 0. -1.
         11    1    1    2    0    0 -0.18612049751E+02 -0.30212741149E+02 -0.17368966658E+03  0.17727751804E+03  0.00000000000E+00 0.  1.
</event>
<event>
 7    1  0.2840156E-009  0.1121335E+03  0.7561462E-02  0.1256669E+00
         -1   -1    0    0    0  501 -0.00000000000E+00  0.00000000000E+00  0.43652977433E+03  0.43652977433E+03  0.00000000000E+00 0.  1.
          1   -1    0    0  501    0  0.00000000000E+00 -0.00000000000E+00 -0.36354053953E+02  0.36354053953E+02  0.00000000000E+00 0. -1.
         25    2    1    2    0    0 -0.16152954485E+01  0.62861824001E+02  0.24446832328E+03  0.28171993119E+03  0.12508853042E+03 0.  0.
          5    1    3    3  502    0  0.58488697653E+02  0.52737679922E+02  0.13415742237E+03  0.15562094015E+03  0.41800000000E+01 0. -1.
         -5    1    3    3    0  502 -0.60103993101E+02  0.10124144079E+02  0.11031090092E+03  0.12609899104E+03  0.41800000000E+01 0. -1.
        -11    1    1    2    0    0  0.15092825344E+02 -0.68171782460E+02  0.16119982332E+03  0.17567176307E+03  0.00000000000E+00 0.  1.
         11    1    1    2    0    0 -0.13477529896E+02  0.53099584586E+01 -0.54924262259E+01  0.15492134029E+02  0.00000000000E+00 0. -1.
</event>
<event>
 7    1  0.2840156E-009  0.1927244E+03  0.7561462E-02  0.1156027E+00
          1   -1    0    0  501    0  0.00000000000E+00  0.00000000000E+00  0.55859223105E+03  0.55859223105E+03  0.00000000000E+00 0. -1.
         -1   -1    0    0    0  501 -0.00000000000E+00 -0.00000000000E+00 -0.79472726447E+02  0.79472726447E+02  0.00000000000E+00 0.  1.
         25    2    1    2    0    0 -0.59115687988E+02  0.16090885989E+03  0.33538258756E+03  0.39688238397E+03  0.12509125034E+03 0.  0.
          5    1    3    3  502    0 -0.98235887438E+02  0.12307152730E+03  0.24362441617E+03  0.29011587162E+03  0.41800000000E+01 0. -1.
         -5    1    3    3    0  502  0.39120199450E+02  0.37837332591E+02  0.91758171390E+02  0.10676651235E+03  0.41800000000E+01 0. -1.
        -11    1    1    2    0    0  0.28783987051E+02 -0.11321112856E+03  0.40774710906E+02  0.12372491499E+03  0.00000000000E+00 0.  1.
         11    1    1    2    0    0  0.30331700936E+02 -0.47697731328E+02  0.10296220614E+03  0.11745765853E+03  0.00000000000E+00 0. -1.
</event>
<event>
 7    1  0.2840156E-009  0.1920870E+03  0.7561462E-02  0.1156592E+00
          2   -1    0    0  501    0  0.00000000000E+00  0.00000000000E+00  0.54658970353E+03  0.54658970353E+03  0.00000000000E+00 0. -1.
         -2   -1    0    0    0  501 -0.00000000000E+00 -0.00000000000E+00 -0.76342083157E+02  0.76342083157E+02  0.00000000000E+00 0.  1.
         25    2    1    2    0    0  0.92443350838E+01 -0.17043982150E+03  0.28630751228E+03  0.35602161557E+03  0.12507681112E+03 0.  0.
          5    1    3    3  502    0 -0.35618498233E+02 -0.10775967830E+03  0.24123535587E+03  0.26663232176E+03  0.41800000000E+01 0.  1.
         -5    1    3    3    0  502  0.44862833317E+02 -0.62680143202E+02  0.45072156408E+02  0.89389293813E+02  0.41800000000E+01 0.  1.
        -11    1    1    2    0    0 -0.28337118659E+02  0.74436092282E+01  0.27868987597E+02  0.40436123478E+02  0.00000000000E+00 0.  1.
         11    1    1    2    0    0  0.19092783576E+02  0.16299621228E+03  0.15607112050E+03  0.22647404764E+03  0.00000000000E+00 0. -1.
</event>
<event>
 7    1  0.2858617E-009  0.1017871E+03  0.7561462E-02  0.1276582E+00
         -3   -1    0    0    0  501 -0.00000000000E+00  0.00000000000E+00  0.42618660184E+02  0.42618660184E+02  0.00000000000E+00 0.  1.
          3   -1    0    0  501    0  0.00000000000E+00 -0.00000000000E+00 -0.38656758508E+03  0.38656758508E+03  0.00000000000E+00 0. -1.
         25    2    1    2    0    0  0.64440572782E+02  0.23218169700E+02 -0.19966966410E+03  0.24537057699E+03  0.12508826669E+03 0.  0.
          5    1    3    3  502    0 -0.13117432587E+01  0.59595227315E+02 -0.12883460306E+03  0.14201809439E+03  0.41800000000E+01 0. -1.
         -5    1    3    3    0  502  0.65752316041E+02 -0.36377057615E+02 -0.70835061048E+02  0.10335248260E+03  0.41800000000E+01 0. -1.
        -11    1    1    2    0    0 -0.10246134041E+02 -0.25740448992E+01  0.12668918346E+02  0.16495771033E+02  0.00000000000E+00 0.  1.
         11    1    1    2    0    0 -0.54194438742E+02 -0.20644124801E+02 -0.15694817914E+03  0.16731989725E+03  0.00000000000E+00 0. -1.
</event>
<event>
 7    1  0.2840156E-009  0.1113330E+03  0.7561462E-02  0.1258121E+00
          3   -1    0    0  501    0  0.00000000000E+00  0.00000000000E+00  0.25648189055E+03  0.25648189055E+03  0.00000000000E+00 0. -1.
         -3   -1    0    0    0  501 -0.00000000000E+00 -0.00000000000E+00 -0.82186312708E+02  0.82186312708E+02  0.00000000000E+00 0.  1.
         25    2    1    2    0    0 -0.17345152732E+02 -0.84028221568E+02  0.14404020046E+03  0.20918079745E+03  0.12508968914E+03 0.  0.
          5    1    3    3  502    0 -0.45391614709E+02 -0.13839517462E+02  0.13543785655E+01  0.47657503824E+02  0.41800000000E+01 0. -1.
         -5    1    3    3    0  502  0.28046461977E+02 -0.70188704105E+02  0.14268582190E+03  0.16152329363E+03  0.41800000000E+01 0. -1.
        -11    1    1    2    0    0 -0.91907277451E+01  0.67374586172E+02  0.56663632659E+02  0.88513115437E+02  0.00000000000E+00 0. -1.
         11    1    1    2    0    0  0.26535880478E+02  0.16653635396E+02 -0.26408255278E+02  0.40974290371E+02  0.00000000000E+00 0.  1.
</event>
<event>
 7    1  0.2840156E-009  0.8084796E+02  0.7561462E-02  0.1326662E+00
          1   -1    0    0  501    0  0.00000000000E+00  0.00000000000E+00  0.35804814968E+03  0.35804814968E+03  0.00000000000E+00 0. -1.
         -1   -1    0    0    0  501 -0.00000000000E+00 -0.00000000000E+00 -0.44028552957E+02  0.44028552957E+02  0.00000000000E+00 0.  1.
         25    2    1    2    0    0  0.56035718501E+02 -0.15099284011E+02  0.13760895325E+03  0.19481158775E+03  0.12508933040E+03 0.  0.
          5    1    3    3  502    0  0.49988678784E+02  0.10646021842E+02 -0.32952519440E+01  0.51386154488E+02  0.41800000000E+01 0. -1.
         -5    1    3    3    0  502  0.60470397162E+01 -0.25745305853E+02  0.14090420520E+03  0.14342543326E+03  0.41800000000E+01 0. -1.
        -11    1    1    2    0    0  0.83692714804E+01 -0.11277993300E+02 -0.34046617186E+01  0.14450936282E+02  0.00000000000E+00 0.  1.
         11    1    1    2    0    0 -0.64404989981E+02  0.26377277311E+02  0.17981530519E+03  0.19281417861E+03  0.00000000000E+00 0. -1.
</event>
<event>
 7    1  0.2840156E-009  0.1305554E+03  0.7561462E-02  0.1226634E+00
          2   -1    0    0  501    0  0.00000000000E+00  0.00000000000E+00  0.11708164789E+04  0.11708164789E+04  0.00000000000E+00 0. -1.
         -2   -1    0    0    0  501 -0.00000000000E+00 -0.00000000000E+00 -0.21574659199E+02  0.21574659199E+02  0.00000000000E+00 0.  1.
         25    2    1    2    0    0  0.71654243008E+02  0.82672422487E+02  0.75358739650E+03  0.77169290166E+03  0.12508761057E+03 0.  0.
          5    1    3    3  502    0  0.22621968912E+02  0.59508841937E+02  0.66277583279E+03  0.66583956977E+03  0.41800000000E+01 0. -1.
         -5    1    3    3    0  502  0.49032274096E+02  0.23163580550E+02  0.90811563719E+02  0.10585333189E+03  0.41800000000E+01 0. -1.
        -11    1    1    2    0    0 -0.36082330417E+02  0.14921681459E+02  0.11377149468E+03  0.12028526156E+03  0.00000000000E+00 0.  1.
         11    1    1    2    0    0 -0.35571912591E+02 -0.97594103947E+02  0.28188292853E+03  0.30041297490E+03  0.00000000000E+00 0. -1.
</event>
<event>
 7    1  0.2840156E-009  0.1055895E+03  0.7561462E-02  0.1268963E+00
          1   -1    0    0  501    0  0.00000000000E+00  0.00000000000E+00  0.37040340463E+03  0.37040340463E+03  0.00000000000E+00 0. -1.
         -1   -1    0    0    0  501 -0.00000000000E+00 -0.00000000000E+00 -0.77315686752E+02  0.77315686752E+02  0.00000000000E+00 0.  1.
         25    2    1    2    0    0 -0.65295300895E+02 -0.12677102326E+02  0.73805804371E+02  0.15974962350E+03  0.12509380563E+03 0.  0.
          5    1    3    3  502    0 -0.36851499814E+02 -0.15359248828E+02 -0.31203076873E+02  0.50843327678E+02  0.41800000000E+01 0. -1.
         -5    1    3    3    0  502 -0.28443801081E+02  0.26821465026E+01  0.10500888124E+03  0.10890629582E+03  0.41800000000E+01 0. -1.
        -11    1    1    2    0    0 -0.21893104000E+02  0.44301489725E+02  0.18101452601E+03  0.18763845188E+03  0.00000000000E+00 0. -1.
         11    1    1    2    0    0  0.87188404894E+02 -0.31624387400E+02  0.38267387489E+02  0.10033101600E+03  0.00000000000E+00 0.  1.
</event>
<event>
 7    1  0.2840156E-009  0.1109644E+03  0.7561462E-02  0.1258794E+00
          1   -1    0    0  501    0  0.00000000000E+00  0.00000000000E+00  0.85249344838E+03  0.85249344838E+03  0.00000000000E+00 0. -1.
         -1   -1    0    0    0  501 -0.00000000000E+00 -0.00000000000E+00 -0.18577513409E+02  0.18577513409E+02  0.00000000000E+00 0.  1.
         25    2    1    2    0    0 -0.49105706678E+02 -0.42098542185E+02  0.43104708223E+03  0.45346709914E+03  0.12508862947E+03 0.  0.
          5    1    3    3  502    0 -0.72251096964E+02  0.62308311178E+01  0.34055961489E+03  0.34822028655E+03  0.41800000000E+01 0.  1.
         -5    1    3    3    0  502  0.23145390286E+02 -0.48329373303E+02  0.90487467333E+02  0.10524681259E+03  0.41800000000E+01 0.  1.
        -11    1    1    2    0    0 -0.18326114052E+02  0.84757884097E+01  0.24228155876E+02  0.31538690248E+02  0.00000000000E+00 0.  1.
         11    1    1    2    0    0  0.67431820730E+02  0.33622753775E+02  0.37864069686E+03  0.38606517240E+03  0.00000000000E+00 0. -1.
</event>
<event>
 7    1  0.2840156E-009  0.1139768E+03  0.7561462E-02  0.1253378E+00
          2   -1    0    0  501    0  0.00000000000E+00  0.00000000000E+00  0.27955341515E+02  0.27955341515E+02  0.00000000000E+00 0. -1.
         -2   -1    0    0    0  501 -0.00000000000E+00 -0.00000000000E+00 -0.49385068704E+03  0.49385068704E+03  0.00000000000E+00 0.  1.
         25    2    1    2    0    0 -0.51361331750E+01 -0.34083374836E+02 -0.20907272809E+03  0.24606337867E+03  0.12509086453E+03 0.  0.
          5    1    3    3  502    0  0.19335367920E+02 -0.77089927796E+02 -0.11797819022E+03  0.14231317293E+03  0.41800000000E+01 0. -1.
         -5    1    3    3    0  502 -0.24471501095E+02  0.43006552960E+02 -0.91094537863E+02  0.10375020574E+03  0.41800000000E+01 0. -1.
        -11    1    1    2    0    0  0.38059912528E+02  0.49428805762E+02 -0.13699513816E+03  0.15053050076E+03  0.00000000000E+00 0. -1.
         11    1    1    2    0    0 -0.32923779353E+02 -0.15345430926E+02 -0.11982747927E+03  0.12521214912E+03  0.00000000000E+00 0.  1.
</event>
<event>
 7    1  0.2840156E-009  0.8857316E+02  0.7561462E-02  0.1306344E+00
          1   -1    0    0  501    0  0.00000000000E+00  0.00000000000E+00  0.32030304080E+03  0.32030304080E+03  0.00000000000E+00 0. -1.
         -1   -1    0    0    0  501 -0.00000000000E+00 -0.00000000000E+00 -0.40096666494E+02  0.40096666494E+02  0.00000000000E+00 0.  1.
         25    2    1    2    0    0 -0.17665023884E+02  0.51462631230E+01  0.11558803632E+03  0.17130811067E+03  0.12508931828E+03 0.  0.
          5    1    3    3  502    0  0.42981775046E+02 -0.23272104216E+02  0.83689098529E+02  0.97007017444E+02  0.41800000000E+01 0. -1.
         -5    1    3    3    0  502 -0.60646798930E+02  0.28418367339E+02  0.31898937792E+02  0.74301093228E+02  0.41800000000E+01 0. -1.
        -11    1    1    2    0    0 -0.21551191917E+02 -0.17651146115E+01  0.19300379168E+01  0.21709319405E+02  0.00000000000E+00 0.  1.
         11    1    1    2    0    0  0.39216215802E+02 -0.33811485115E+01  0.16268830006E+03  0.16738227721E+03  0.00000000000E+00 0. -1.
</event>
<event>
 7    1  0.2840156E-009  0.1293452E+03  0.7561462E-02  0.1228431E+00
         -2   -1    0    0    0  501 -0.00000000000E+00  0.00000000000E+00  0.94402737989E+02  0.94402737989E+02  0.00000000000E+00 0.  1.
          2   -1    0    0  501    0  0.00000000000E+00 -0.00000000000E+00 -0.23850387079E+03  0.23850387079E+03  0.00000000000E+00 0. -1.
         25    2    1    2    0    0 -0.97287418799E+02 -0.31821408526E+02 -0.62914766832E+02  0.17343734929E+03  0.12507918430E+03 0.  0.
          5    1    3    3  502    0 -0.27520340156E+02  0.24701553760E+02 -0.74037094707E+02  0.82864345005E+02  0.41800000000E+01 0. -1.
         -5    1    3    3    0  502 -0.69767078643E+02 -0.56522962285E+02  0.11122327875E+02  0.90573004285E+02  0.41800000000E+01 0. -1.
        -11    1    1    2    0    0 -0.10366279944E+02  0.20964475515E+02 -0.34376922656E+02  0.41578140950E+02  0.00000000000E+00 0. -1.
         11    1    1    2    0    0  0.10765369874E+03  0.10856933010E+02 -0.46809443312E+02  0.11789111854E+03  0.00000000000E+00 0.  1.
</event>
<event>
 7    1  0.2840156E-009  0.1789949E+03  0.7561462E-02  0.1168779E+00
         -1   -1    0    0    0  501 -0.00000000000E+00  0.00000000000E+00  0.92092163391E+02  0.92092163391E+02  0.00000000000E+00 0.  1.
          1   -1    0    0  501    0  0.00000000000E+00 -0.00000000000E+00 -0.41623257422E+03  0.41623257422E+03  0.00000000000E+00 0. -1.
         25    2    1    2    0    0 -0.12624427797E+03 -0.10136134220E+03 -0.15257090876E+03  0.25521852404E+03  0.12508746302E+03 0.  0.
          5    1    3    3  502    0  0.20388402622E+02 -0.85967997726E+01 -0.46881312477E+02  0.52008862585E+02  0.41800000000E+01 0.  1.
         -5    1    3    3    0  502 -0.14663268059E+03 -0.92764542429E+02 -0.10568959628E+03  0.20320966146E+03  0.41800000000E+01 0.  1.
        -11    1    1    2    0    0  0.34214313142E+02  0.26497176229E+02 -0.11258852997E+03  0.12061880721E+03  0.00000000000E+00 0. -1.
         11    1    1    2    0    0  0.92029964826E+02  0.74864165973E+02 -0.58980972102E+02  0.13248740636E+03  0.00000000000E+00 0.  1.
</event>
<event>
 7    1  0.2840156E-009  0.1302319E+03  0.7561462E-02  0.1227112E+00
          3   -1    0    0  501    0  0.00000000000E+00  0.00000000000E+00  0.34600715258E+02  0.34600715258E+02  0.00000000000E+00 0. -1.
         -3   -1    0    0    0  501 -0.00000000000E+00 -0.00000000000E+00 -0.57535846116E+03  0.57535846116E+03  0.00000000000E+00 0.  1.
         25    2    1    2    0    0 -0.85470101785E+02 -0.44916630129E+02 -0.42515323010E+03  0.45356902511E+03  0.12508776723E+03 0.  0.
          5    1    3    3  502    0  0.26411677909E+02  0.12680422799E+02 -0.53114696100E+02  0.60803068953E+02  0.41800000000E+01 0. -1.
         -5    1    3    3    0  502 -0.11188177969E+03 -0.57597052927E+02 -0.37203853400E+03  0.39276595616E+03  0.41800000000E+01 0. -1.
        -11    1    1    2    0    0  0.32081761488E+02 -0.42771840248E+01 -0.29806522709E+02  0.43999574082E+02  0.00000000000E+00 0. -1.
         11    1    1    2    0    0  0.53388340297E+02  0.49193814153E+02 -0.85797993085E+02  0.11239057722E+03  0.00000000000E+00 0.  1.
</event>
<event>
 7    1  0.2840156E-009  0.1080777E+03  0.7561462E-02  0.1264172E+00
         -4   -1    0    0    0  501 -0.00000000000E+00  0.00000000000E+00  0.29485602028E+02  0.29485602028E+02  0.00000000000E+00 0. -1.
          4   -1    0    0  501    0  0.00000000000E+00 -0.00000000000E+00 -0.50193766882E+03  0.50193766882E+03  0.00000000000E+00 0.  1.
         25    2    1    2    0    0 -0.27796483235E+01  0.33933379431E+02 -0.35666788595E+03  0.37949733496E+03  0.12508815169E+03 0.  0.
          5    1    3    3  502    0 -0.38824534692E+02 -0.29692224107E+02 -0.20876795374E+03  0.21445396610E+03  0.41800000000E+01 0.  1.
         -5    1    3    3    0  502  0.36044886369E+02  0.63625603539E+02 -0.14789993221E+03  0.16504336887E+03  0.41800000000E+01 0.  1.
        -11    1    1    2    0    0  0.18316368806E+02  0.26076087411E+02 -0.62622047286E+02  0.70263593042E+02  0.00000000000E+00 0.  1.
         11    1    1    2    0    0 -0.15536720483E+02 -0.60009466843E+02 -0.53162133559E+02  0.81662342844E+02  0.00000000000E+00 0. -1.
</event>
<event>
 7    1  0.2840156E-009  0.2012202E+03  0.7561462E-02  0.1148714E+00
         -1   -1    0    0    0  501 -0.00000000000E+00  0.00000000000E+00  0.70969181712E+02  0.70969181712E+02  0.00000000000E+00 0.  1.
          1   -1    0    0  501    0  0.00000000000E+00 -0.00000000000E+00 -0.20254483341E+04  0.20254483341E+04  0.00000000000E+00 0. -1.
         25    2    1    2    0    0 -0.18597230333E+03 -0.18081737082E+02 -0.18502357169E+04  0.18638488826E+04  0.12509117654E+03 0.  0.
          5    1    3    3  502    0 -0.16009520823E+02  0.31224416964E+02 -0.13669268114E+03  0.14118650945E+03  0.41800000000E+01 0.  1.
         -5    1    3    3    0  502 -0.16996278250E+03 -0.49306154047E+02 -0.17135430357E+04  0.17226623732E+04  0.41800000000E+01 0.  1.
        -11    1    1    2    0    0  0.10805089468E+03  0.27768922187E+02 -0.13197717217E+02  0.11234005795E+03  0.00000000000E+00 0.  1.
         11    1    1    2    0    0  0.77921408646E+02 -0.96871851049E+01 -0.91045718260E+02  0.12022857520E+03  0.00000000000E+00 0. -1.
</event>
<event>
 7    1  0.3300689E-009  0.1183307E+03  0.7561462E-02  0.1245877E+00
          2   -1    0    0  501    0  0.00000000000E+00  0.00000000000E+00  0.12741326665E+04  0.12741326665E+04  0.00000000000E+00 0. -1.
         -2   -1    0    0    0  501 -0.00000000000E+00 -0.00000000000E+00 -0.11385040299E+02  0.11385040299E+02  0.00000000000E+00 0.  1.
         25    2    1    2    0    0  0.29613674954E+02  0.40753888565E+02  0.81136276570E+03  0.82249304852E+03  0.12508968031E+03 0.  0.
          5    1    3    3  502    0 -0.12451395431E+02  0.77280519914E+02  0.51124336233E+03  0.51721810093E+03  0.41800000000E+01 0. -1.
         -5    1    3    3    0  502  0.42065070385E+02 -0.36526631349E+02  0.30011940337E+03  0.30527494759E+03  0.41800000000E+01 0. -1.
        -11    1    1    2    0    0 -0.58338167997E+02 -0.80710628426E+01  0.28686762982E+03  0.29285068028E+03  0.00000000000E+00 0. -1.
         11    1    1    2    0    0  0.28724493042E+02 -0.32682825722E+02  0.16451723063E+03  0.17017397795E+03  0.00000000000E+00 0.  1.
</event>
<event>
 7    1  0.2840156E-009  0.1767223E+03  0.7561462E-02  0.1171013E+00
         -1   -1    0    0    0  501 -0.00000000000E+00  0.00000000000E+00  0.28510494366E+02  0.28510494366E+02  0.00000000000E+00 0.  1.
          1   -1    0    0  501    0  0.00000000000E+00 -0.00000000000E+00 -0.12510205412E+04  0.12510205412E+04  0.00000000000E+00 0. -1.
         25    2    1    2    0    0 -0.10210401068E+03  0.91388960223E+02 -0.85044196197E+03  0.87044478458E+03  0.12508165844E+03 0.  0.
          5    1    3    3  502    0  0.26721479488E+02  0.32592278768E+02 -0.15264486811E+03  0.15841155975E+03  0.41800000000E+01 0. -1.
         -5    1    3    3    0  502 -0.12882549017E+03  0.58796681455E+02 -0.69779709386E+03  0.71203322483E+03  0.41800000000E+01 0. -1.
        -11    1    1    2    0    0  0.93097626674E+02 -0.11276238277E+03 -0.33226468179E+03  0.36301837670E+03  0.00000000000E+00 0.  1.
         11    1    1    2    0    0  0.90063840074E+01  0.21373422543E+02 -0.39803403044E+02  0.46067874251E+02  0.00000000000E+00 0. -1.
</event>
<event>
 7    1  0.2840156E-009  0.7738822E+02  0.7561462E-02  0.1336631E+00
          1   -1    0    0  501    0  0.00000000000E+00  0.00000000000E+00  0.52605131133E+03  0.52605131133E+03  0.00000000000E+00 0. -1.
         -1   -1    0    0    0  501 -0.00000000000E+00 -0.00000000000E+00 -0.25004022662E+02  0.25004022662E+02  0.00000000000E+00 0.  1.
         25    2    1    2    0    0 -0.35667251519E+02 -0.11752667806E+02  0.26250672835E+03  0.29320594788E+03  0.12509863073E+03 0.  0.
          5    1    3    3  502    0 -0.27105026519E+02  0.13254411329E+02  0.11492904991E+01  0.30482046370E+02  0.41800000000E+01 0. -1.
         -5    1    3    3    0  502 -0.85622250001E+01 -0.25007079134E+02  0.26135743785E+03  0.26272390151E+03  0.41800000000E+01 0. -1.
        -11    1    1    2    0    0  0.93941869779E+01  0.50154121708E+02  0.11390852923E+03  0.12481522225E+03  0.00000000000E+00 0.  1.
         11    1    1    2    0    0  0.26273064541E+02 -0.38401453903E+02  0.12463203108E+03  0.13303416386E+03  0.00000000000E+00 0. -1.
</event>
<event>
 7    1  0.2840156E-009  0.1661521E+03  0.7561462E-02  0.1181921E+00
          2   -1    0    0  501    0  0.00000000000E+00  0.00000000000E+00  0.90141404706E+03  0.90141404706E+03  0.00000000000E+00 0. -1.
         -2   -1    0    0    0  501 -0.00000000000E+00 -0.00000000000E+00 -0.33224198309E+02  0.33224198309E+02  0.00000000000E+00 0.  1.
         25    2    1    2    0    0 -0.10293441070E+03 -0.75262924949E+02  0.34345052432E+03  0.38712500910E+03  0.12509000455E+03 0.  0.
          5    1    3    3  502    0 -0.76737335475E+02  0.18859197063E+02  0.18050306920E+03  0.19708657580E+03  0.41800000000E+01 0. -1.
         -5    1    3    3    0  502 -0.26197075221E+02 -0.94122122012E+02  0.16294745512E+03  0.19003843330E+03  0.41800000000E+01 0. -1.
        -11    1    1    2    0    0 -0.12418732874E+02  0.28173958415E+02  0.82517389630E+02  0.88074493756E+02  0.00000000000E+00 0.  1.
         11    1    1    2    0    0  0.11535314357E+03  0.47088966534E+02  0.44222193480E+03  0.45943874251E+03  0.00000000000E+00 0. -1.
</event>
<event>
 7    1  0.2840156E-009  0.1371200E+03  0.7561462E-02  0.1217258E+00
          4   -1    0    0  501    0  0.00000000000E+00  0.00000000000E+00  0.10264099591E+03  0.10264099591E+03  0.00000000000E+00 0. -1.
         -4   -1    0    0    0  501 -0.00000000000E+00 -0.00000000000E+00 -0.20260195316E+03  0.20260195316E+03  0.00000000000E+00 0.  1.
         25    2    1    2    0    0  0.68110267734E+02 -0.54138030704E+02 -0.91379511359E+02  0.17767920905E+03  0.12509896599E+03 0.  0.
          5    1    3    3  502    0  0.10231805010E+03 -0.39937389420E+02 -0.46518613048E+02  0.11935422997E+03  0.41800000000E+01 0. -1.
         -5    1    3    3    0  502 -0.34207782370E+02 -0.14200641284E+02 -0.44860898311E+02  0.58324979081E+02  0.41800000000E+01 0. -1.
        -11    1    1    2    0    0 -0.23665950418E+02  0.74496934091E+02 -0.89546994934E+01  0.78676915555E+02  0.00000000000E+00 0.  1.
         11    1    1    2    0    0 -0.44444317316E+02 -0.20358903387E+02  0.37325360518E+00  0.48886824473E+02  0.00000000000E+00 0. -1.
</event>
<event>
 7    1  0.2840156E-009  0.9256915E+02  0.7561462E-02  0.1296747E+00
          1   -1    0    0  501    0  0.00000000000E+00  0.00000000000E+00  0.13171158085E+03  0.13171158085E+03  0.00000000000E+00 0. -1.
         -1   -1    0    0    0  501 -0.00000000000E+00 -0.00000000000E+00 -0.13393034681E+03  0.13393034681E+03  0.00000000000E+00 0.  1.
         25    2    1    2    0    0  0.89839245002E+01  0.14369366856E+02 -0.61834375092E+02  0.14056011933E+03  0.12508584092E+03 0.  0.
          5    1    3    3  502    0  0.51070325408E+02 -0.33493369115E+02 -0.39696930553E+02  0.72960966327E+02  0.41800000000E+01 0. -1.
         -5    1    3    3    0  502 -0.42086400907E+02  0.47862735971E+02 -0.22137444539E+02  0.67599153003E+02  0.41800000000E+01 0. -1.
        -11    1    1    2    0    0 -0.33311806723E+02 -0.38079022039E+01 -0.21439966191E+02  0.39797597121E+02  0.00000000000E+00 0.  1.
         11    1    1    2    0    0  0.24327882223E+02 -0.10561464652E+02  0.81055575331E+02  0.85284211207E+02  0.00000000000E+00 0. -1.
</event>
<event>
 7    1  0.2840156E-009  0.9638755E+02  0.7561462E-02  0.1288081E+00
          2   -1    0    0  501    0  0.00000000000E+00  0.00000000000E+00  0.99658440833E+02  0.99658440833E+02  0.00000000000E+00 0. -1.
         -2   -1    0    0    0  501 -0.00000000000E+00 -0.00000000000E+00 -0.15859831304E+03  0.15859831304E+03  0.00000000000E+00 0.  1.
         25    2    1    2    0    0  0.20090559110E+02 -0.15755805913E+02 -0.91139065456E+02  0.15684767909E+03  0.12507193609E+03 0.  0.
          5    1    3    3  502    0  0.52419248400E+02  0.14350360510E+02 -0.97812475910E+02  0.11197527983E+03  0.41800000000E+01 0. -1.
         -5    1    3    3    0  502 -0.32328689291E+02 -0.30106166422E+02  0.66734104538E+01  0.44872399256E+02  0.41800000000E+01 0. -1.
        -11    1    1    2    0    0  0.28576922569E+02  0.31701003430E+02  0.25609366090E+02  0.49773825988E+02  0.00000000000E+00 0.  1.
         11    1    1    2    0    0 -0.48667481679E+02 -0.15945197518E+02  0.65898271553E+01  0.51635248801E+02  0.00000000000E+00 0. -1.
</event>
<event>
 7    1  0.2840156E-009  0.1047641E+03  0.7561462E-02  0.1270585E+00
          4   -1    0    0  501    0  0.00000000000E+00  0.00000000000E+00  0.60512624104E+02  0.60512624104E+02  0.00000000000E+00 0. -1.
         -4   -1    0    0    0  501 -0.00000000000E+00 -0.00000000000E+00 -0.28577411645E+03  0.28577411645E+03  0.00000000000E+00 0.  1.
         25    2    1    2    0    0 -0.12518620973E+02  0.26111500491E+02 -0.34065070206E+02  0.13284234352E+03  0.12509249736E+03 0.  0.
          5    1    3    3  502    0  0.40586036786E+02  0.52960589680E+02 -0.29319685595E+02  0.73001142489E+02  0.41800000000E+01 0.  1.
         -5    1    3    3    0  502 -0.53104657760E+02 -0.26849089189E+02 -0.47453846106E+01  0.59841201034E+02  0.41800000000E+01 0.  1.
        -11    1    1    2    0    0  0.25887717029E+02  0.21447870801E+02 -0.13262935449E+03  0.13682372136E+03  0.00000000000E+00 0.  1.
         11    1    1    2    0    0 -0.13369096055E+02 -0.47559371292E+02 -0.58567067653E+02  0.76620675673E+02  0.00000000000E+00 0. -1.
</event>
<event>
 7    1  0.2840156E-009  0.1339924E+03  0.7561462E-02  0.1221649E+00
         -2   -1    0    0    0  501 -0.00000000000E+00  0.00000000000E+00  0.78471006791E+02  0.78471006791E+02  0.00000000000E+00 0. -1.
          2   -1    0    0  501    0  0.00000000000E+00 -0.00000000000E+00 -0.38934541553E+03  0.38934541553E+03  0.00000000000E+00 0.  1.
         25    2    1    2    0    0 -0.97229041157E+02  0.66000776701E+02 -0.25835497752E+03  0.31016799572E+03  0.12508917696E+03 0.  0.
          5    1    3    3  502    0  0.13654098048E+02  0.13954991506E+02  0.42112356279E+01  0.20405467085E+02  0.41800000000E+01 0.  1.
         -5    1    3    3    0  502 -0.11088313921E+03  0.52045785195E+02 -0.26256621315E+03  0.28976252864E+03  0.41800000000E+01 0.  1.
        -11    1    1    2    0    0  0.88144582343E+02 -0.37940841572E+02  0.16416495595E+01  0.95977444584E+02  0.00000000000E+00 0.  1.
         11    1    1    2    0    0  0.90844588147E+01 -0.28059935129E+02 -0.54161080774E+02  0.61670982010E+02  0.00000000000E+00 0. -1.
</event>
<event>
 7    1  0.2840156E-009  0.1453215E+03  0.7561462E-02  0.1206343E+00
          2   -1    0    0  501    0  0.00000000000E+00  0.00000000000E+00  0.51868092664E+02  0.51868092664E+02  0.00000000000E+00 0.  1.
         -2   -1    0    0    0  501 -0.00000000000E+00 -0.00000000000E+00 -0.57403137443E+03  0.57403137443E+03  0.00000000000E+00 0. -1.
         25    2    1    2    0    0 -0.11479775510E+03 -0.68453147183E+02 -0.27079964534E+03  0.32686888675E+03  0.12508582362E+03 0.  0.
          5    1    3    3  502    0 -0.87073735905E+02 -0.66481601990E+02 -0.27715707307E+03  0.29805226796E+03  0.41800000000E+01 0. -1.
         -5    1    3    3    0  502 -0.27724019196E+02 -0.19715451931E+01  0.63574277252E+01  0.28816618784E+02  0.41800000000E+01 0. -1.
        -11    1    1    2    0    0  0.11093817962E+03  0.30910255010E+02 -0.13906486754E+03  0.18055957727E+03  0.00000000000E+00 0.  1.
         11    1    1    2    0    0  0.38595754827E+01  0.37542892174E+02 -0.11229876889E+03  0.11847100308E+03  0.00000000000E+00 0. -1.
</event>
<event>
 7    1  0.2840156E-009  0.1153670E+03  0.7561462E-02  0.1250942E+00
         -3   -1    0    0    0  501 -0.00000000000E+00  0.00000000000E+00  0.10079448904E+03  0.10079448904E+03  0.00000000000E+00 0.  1.
          3   -1    0    0  501    0  0.00000000000E+00 -0.00000000000E+00 -0.26790095405E+03  0.26790095405E+03  0.00000000000E+00 0. -1.
         25    2    1    2    0    0 -0.15071539092E+02  0.48571456391E+02 -0.21370357273E+03  0.25279038455E+03  0.12508966326E+03 0.  0.
          5    1    3    3  502    0 -0.40302690761E+02  0.81950472254E+02 -0.12762575193E+03  0.15699041926E+03  0.41800000000E+01 0.  1.
         -5    1    3    3    0  502  0.25231151669E+02 -0.33379015863E+02 -0.86077820800E+02  0.95799965283E+02  0.41800000000E+01 0.  1.
        -11    1    1    2    0    0 -0.34191671653E+02 -0.26612123482E+02  0.44232192462E+02  0.61917383477E+02  0.00000000000E+00 0.  1.
         11    1    1    2    0    0  0.49263210745E+02 -0.21959332909E+02  0.23649152498E+01  0.53987675065E+02  0.00000000000E+00 0. -1.
</event>
<event>
 7    1  0.2840156E-009  0.1157050E+03  0.7561462E-02  0.1250355E+00
         -1   -1    0    0    0  501 -0.00000000000E+00  0.00000000000E+00  0.12847146972E+03  0.12847146972E+03  0.00000000000E+00 0.  1.
          1   -1    0    0  501    0  0.00000000000E+00 -0.00000000000E+00 -0.16006778697E+03  0.16006778697E+03  0.00000000000E+00 0. -1.
         25    2    1    2    0    0 -0.10530891352E+02 -0.90148895563E+02 -0.37511542653E+02  0.15902600289E+03  0.12507769873E+03 0.  0.
          5    1    3    3  502    0  0.18066722751E+02 -0.20697997467E+02  0.41491294053E+02  0.49938096202E+02  0.41800000000E+01 0. -1.
         -5    1    3    3    0  502 -0.28597614103E+02 -0.69450898097E+02 -0.79002836706E+02  0.10908790669E+03  0.41800000000E+01 0. -1.
        -11    1    1    2    0    0 -0.35707333651E+02  0.12143444631E+02 -0.55116285125E+01  0.38116334725E+02  0.00000000000E+00 0. -1.
         11    1    1    2    0    0  0.46238225003E+02  0.78005450932E+02  0.11426853914E+02  0.91396919078E+02  0.00000000000E+00 0.  1.
</event>
<event>
 7    1  0.2840156E-009  0.2047772E+03  0.7561462E-02  0.1145770E+00
         -1   -1    0    0    0  501 -0.00000000000E+00  0.00000000000E+00  0.12273411701E+03  0.12273411701E+03  0.00000000000E+00 0.  1.
          1   -1    0    0  501    0  0.00000000000E+00 -0.00000000000E+00 -0.42380720703E+03  0.42380720703E+03  0.00000000000E+00 0. -1.
         25    2    1    2    0    0  0.18145062031E+03  0.84134966178E+02 -0.16118091144E+03  0.28570263210E+03  0.12507472818E+03 0.  0.
          5    1    3    3  502    0  0.59094060285E+02  0.28697096383E+02 -0.13298057180E+03  0.14838105060E+03  0.41800000000E+01 0. -1.
         -5    1    3    3    0  502  0.12235656002E+03  0.55437869796E+02 -0.28200339645E+02  0.13732158150E+03  0.41800000000E+01 0. -1.
        -11    1    1    2    0    0 -0.14332836812E+03 -0.35722484653E+02 -0.13312082498E+03  0.19884735618E+03  0.00000000000E+00 0.  1.
         11    1    1    2    0    0 -0.38122252191E+02 -0.48412481525E+02 -0.67713536048E+01  0.61991335759E+02  0.00000000000E+00 0. -1.
</event>
<event>
 7    1  0.2840156E-009  0.8947345E+02  0.7561462E-02  0.1304132E+00
         -3   -1    0    0    0  501 -0.00000000000E+00  0.00000000000E+00  0.26474714313E+03  0.26474714313E+03  0.00000000000E+00 0.  1.
          3   -1    0    0  501    0  0.00000000000E+00 -0.00000000000E+00 -0.46942780032E+02  0.46942780032E+02  0.00000000000E+00 0. -1.
         25    2    1    2    0    0  0.27266068806E+02 -0.15775550619E+02  0.92321794767E+02  0.15862596431E+03  0.12508627527E+03 0.  0.
          5    1    3    3  502    0  0.12302987414E+02  0.53888345855E+02  0.54973361767E+02  0.78069585770E+02  0.41800000000E+01 0.  1.
         -5    1    3    3    0  502  0.14963081392E+02 -0.69663896474E+02  0.37348433000E+02  0.80556378545E+02  0.41800000000E+01 0.  1.
        -11    1    1    2    0    0 -0.20740758369E+02 -0.11758634134E+02  0.12228436471E+03  0.12458695914E+03  0.00000000000E+00 0.  1.
         11    1    1    2    0    0 -0.65253104367E+01  0.27534184753E+02  0.31982036243E+01  0.28476999715E+02  0.00000000000E+00 0. -1.
</event>
<event>
 7    1  0.2840156E-009  0.3194914E+03  0.7561462E-02  0.1075884E+00
          4   -1    0    0  501    0  0.00000000000E+00  0.00000000000E+00  0.11273105128E+04  0.11273105128E+04  0.00000000000E+00 0. -1.
         -4   -1    0    0    0  501 -0.00000000000E+00 -0.00000000000E+00 -0.92348717344E+02  0.92348717344E+02  0.00000000000E+00 0.  1.
         25    2    1    2    0    0  0.20825881219E+03  0.22417329330E+03  0.57550987698E+03  0.66368997112E+03  0.12508941191E+03 0.  0.
          5    1    3    3  502    0  0.24116306443E+02 -0.14285818996E+02  0.36891559984E+02  0.46520323073E+02  0.41800000000E+01 0.  1.
         -5    1    3    3    0  502  0.18414250575E+03  0.23845911229E+03  0.53861831700E+03  0.61716964804E+03  0.41800000000E+01 0.  1.
        -11    1    1    2    0    0 -0.16705881488E+03 -0.15017049159E+03  0.29292966276E+03  0.36914443175E+03  0.00000000000E+00 0.  1.
         11    1    1    2    0    0 -0.41199997316E+02 -0.74002801708E+02  0.16652225576E+03  0.18682482732E+03  0.00000000000E+00 0. -1.
</event>
<event>
 7    1  0.2840156E-009  0.1926962E+03  0.7561462E-02  0.1156052E+00
          2   -1    0    0  501    0  0.00000000000E+00  0.00000000000E+00  0.19236758428E+04  0.19236758428E+04  0.00000000000E+00 0. -1.
         -2   -1    0    0    0  501 -0.00000000000E+00 -0.00000000000E+00 -0.55799552930E+02  0.55799552930E+02  0.00000000000E+00 0.  1.
         25    2    1    2    0    0  0.13640642592E+03  0.10791558146E+03  0.17201626668E+04  0.17334535908E+04  0.12509702415E+03 0.  0.
          5    1    3    3  502    0  0.15486575961E+03  0.11045257621E+03  0.14208635197E+04  0.14335458796E+04  0.41800000000E+01 0. -1.
         -5    1    3    3    0  502 -0.18459333697E+02 -0.25369947427E+01  0.29929914719E+03  0.29990771123E+03  0.41800000000E+01 0. -1.
        -11    1    1    2    0    0 -0.69086151182E+02 -0.37477100993E+02  0.12221351363E+03  0.14530510073E+03  0.00000000000E+00 0. -1.
         11    1    1    2    0    0 -0.67320274735E+02 -0.70438480469E+02  0.25500109422E+02  0.10071670418E+03  0.00000000000E+00 0.  1.
</event>
<event>
 7    1  0.2840156E-009  0.6420166E+02  0.7561462E-02  0.1381000E+00
         -2   -1    0    0    0  501 -0.00000000000E+00  0.00000000000E+00  0.25679581849E+02  0.25679581849E+02  0.00000000000E+00 0.  1.
          2   -1    0    0  501    0  0.00000000000E+00 -0.00000000000E+00 -0.52158013547E+03  0.52158013547E+03  0.00000000000E+00 0. -1.
         25    2    1    2    0    0 -0.84592564592E+01  0.94016848632E+01 -0.39845861234E+03  0.41782390055E+03  0.12509034903E+03 0.  0.
          5    1    3    3  502    0  0.16776187283E+02  0.59520841815E+01 -0.39033757574E+03  0.39076561159E+03  0.41800000000E+01 0. -1.
         -5    1    3    3    0  502 -0.25235443742E+02  0.34496006817E+01 -0.81210365976E+01  0.27058288955E+02  0.41800000000E+01 0. -1.
        -11    1    1    2    0    0 -0.37424814564E+02  0.22005909962E+00 -0.52644616762E+02  0.64591956506E+02  0.00000000000E+00 0. -1.
         11    1    1    2    0    0  0.45884071023E+02 -0.96217439628E+01 -0.44797324523E+02  0.64843860272E+02  0.00000000000E+00 0.  1.
</event>
<event>
 7    1  0.2840156E-009  0.1516474E+03  0.7561462E-02  0.1198463E+00
         -1   -1    0    0    0  501 -0.00000000000E+00  0.00000000000E+00  0.18433892759E+03  0.18433892759E+03  0.00000000000E+00 0.  1.
          1   -1    0    0  501    0  0.00000000000E+00 -0.00000000000E+00 -0.12555811518E+03  0.12555811518E+03  0.00000000000E+00 0. -1.
         25    2    1    2    0    0  0.78134283833E+02  0.68975020924E+02  0.38065655569E+02  0.16720193659E+03  0.12507986907E+03 0.  0.
          5    1    3    3  502    0  0.54201068090E+02  0.10559220140E+03  0.30412469094E+02  0.12259632725E+03  0.41800000000E+01 0. -1.
         -5    1    3    3    0  502  0.23933215743E+02 -0.36617180476E+02  0.76531864752E+01  0.44605609345E+02  0.41800000000E+01 0. -1.
        -11    1    1    2    0    0 -0.71470211823E+02 -0.18103361516E+00  0.39759543352E+01  0.71580948332E+02  0.00000000000E+00 0. -1.
         11    1    1    2    0    0 -0.66640720102E+01 -0.68793987309E+02  0.16739202505E+02  0.71114157846E+02  0.00000000000E+00 0.  1.
</event>
<event>
 7    1  0.2840156E-009  0.8345074E+02  0.7561462E-02  0.1319534E+00
          1   -1    0    0  501    0  0.00000000000E+00  0.00000000000E+00  0.21030923701E+03  0.21030923701E+03  0.00000000000E+00 0. -1.
         -1   -1    0    0    0  501 -0.00000000000E+00 -0.00000000000E+00 -0.57284345145E+02  0.57284345145E+02  0.00000000000E+00 0.  1.
         25    2    1    2    0    0  0.78403514365E+01 -0.19625410456E+02  0.10420047831E+03  0.16416013814E+03  0.12507671017E+03 0.  0.
          5    1    3    3  502    0  0.14076615809E+02 -0.72180147966E+02  0.57284559196E+02  0.93311939189E+02  0.41800000000E+01 0.  1.
         -5    1    3    3    0  502 -0.62362643727E+01  0.52554737510E+02  0.46915919111E+02  0.70848198948E+02  0.41800000000E+01 0.  1.
        -11    1    1    2    0    0  0.13262062888E+02  0.38570064308E+01 -0.23056876105E+02  0.26877097060E+02  0.00000000000E+00 0.  1.
         11    1    1    2    0    0 -0.21102414324E+02  0.15768404025E+02  0.71881289660E+02  0.76556346955E+02  0.00000000000E+00 0. -1.
</event>
<event>
 7    1  0.2840156E-009  0.3306909E+03  0.7561462E-02  0.1070832E+00
          2   -1    0    0  501    0  0.00000000000E+00  0.00000000000E+00  0.83998298536E+03  0.83998298536E+03  0.00000000000E+00 0. -1.
         -2   -1    0    0    0  501 -0.00000000000E+00 -0.00000000000E+00 -0.14505141090E+03  0.14505141090E+03  0.00000000000E+00 0.  1.
         25    2    1    2    0    0  0.12036544599E+03  0.29454124567E+03  0.22092569763E+03  0.40706182477E+03  0.12509508114E+03 0.  0.
          5    1    3    3  502    0  0.45145135736E+02  0.19066512059E+02  0.58242413258E+01  0.49527864377E+02  0.41800000000E+01 0. -1.
         -5    1    3    3    0  502  0.75220310256E+02  0.27547473361E+03  0.21510145630E+03  0.35753396040E+03  0.41800000000E+01 0. -1.
        -11    1    1    2    0    0 -0.12066005773E+03 -0.21098535600E+03  0.31011972092E+03  0.39401511555E+03  0.00000000000E+00 0.  1.
         11    1    1    2    0    0  0.29461173719E+00 -0.83555889671E+02  0.16388615591E+03  0.18395745593E+03  0.00000000000E+00 0. -1.
</event>
<event>
 7    1  0.2840156E-009  0.1230789E+03  0.7561462E-02  0.1238102E+00
          1   -1    0    0  501    0  0.00000000000E+00  0.00000000000E+00  0.16502405864E+04  0.16502405864E+04  0.00000000000E+00 0. -1.
         -1   -1    0    0    0  501 -0.00000000000E+00 -0.00000000000E+00 -0.14664508523E+02  0.14664508523E+02  0.00000000000E+00 0.  1.
         25    2    1    2    0    0 -0.10386226681E+03 -0.22845406665E+02  0.10301570806E+04  0.10431590219E+04  0.12509137168E+03 0.  0.
          5    1    3    3  502    0 -0.95311305283E+02  0.77241737945E+00  0.99597955418E+03  0.10005386481E+04  0.41800000000E+01 0. -1.
         -5    1    3    3    0  502 -0.85509615283E+01 -0.23617824044E+02  0.34177526384E+02  0.42620373829E+02  0.41800000000E+01 0. -1.
        -11    1    1    2    0    0 -0.58682382746E+01  0.14025744855E+02  0.15756666965E+02  0.21895896717E+02  0.00000000000E+00 0.  1.
         11    1    1    2    0    0  0.10973050509E+03  0.88196618102E+01  0.58966233035E+03  0.59985017630E+03  0.00000000000E+00 0. -1.
</event>
<event>
 7    1  0.2840156E-009  0.1300705E+03  0.7561462E-02  0.1227351E+00
         -2   -1    0    0    0  501 -0.00000000000E+00  0.00000000000E+00  0.95727882532E+02  0.95727882532E+02  0.00000000000E+00 0. -1.
          2   -1    0    0  501    0  0.00000000000E+00 -0.00000000000E+00 -0.29686797307E+03  0.29686797307E+03  0.00000000000E+00 0.  1.
         25    2    1    2    0    0  0.99068445589E+02  0.51277711055E+02 -0.30823677364E+02  0.17041548706E+03  0.12508948230E+03 0.  0.
          5    1    3    3  502    0  0.92997923204E+02  0.60328257905E+02 -0.68902688750E+02  0.13058776872E+03  0.41800000000E+01 0.  1.
         -5    1    3    3    0  502  0.60705223857E+01 -0.90505468501E+01  0.38079011386E+02  0.39827718344E+02  0.41800000000E+01 0.  1.
        -11    1    1    2    0    0 -0.68645022574E+02  0.97633573019E+01 -0.56268762566E+02  0.89295217737E+02  0.00000000000E+00 0.  1.
         11    1    1    2    0    0 -0.30423423015E+02 -0.61041068357E+02 -0.11404765061E+03  0.13288515080E+03  0.00000000000E+00 0. -1.
</event>
<event>
 7    1  0.2840156E-009  0.1581071E+03  0.7561462E-02  0.1190851E+00
          1   -1    0    0  501    0  0.00000000000E+00  0.00000000000E+00  0.97850121534E+03  0.97850121534E+03  0.00000000000E+00 0. -1.
         -1   -1    0    0    0  501 -0.00000000000E+00 -0.00000000000E+00 -0.34104388897E+02  0.34104388897E+02  0.00000000000E+00 0.  1.
         25    2    1    2    0    0 -0.11642776497E+03  0.85993154023E+02  0.54643644273E+03  0.57895670176E+03  0.12509128497E+03 0.  0.
          5    1    3    3  502    0  0.28281162282E+00 -0.69866787752E+01 -0.36849843443E+01  0.89412064253E+01  0.41800000000E+01 0. -1.
         -5    1    3    3    0  502 -0.11671057660E+03  0.92979832798E+02  0.55012142707E+03  0.57001549533E+03  0.41800000000E+01 0. -1.
        -11    1    1    2    0    0  0.14806419487E+02 -0.48108787914E+02  0.21627799650E+03  0.22205822954E+03  0.00000000000E+00 0. -1.
         11    1    1    2    0    0  0.10162134549E+03 -0.37884366109E+02  0.18168238721E+03  0.21159067295E+03  0.00000000000E+00 0.  1.
</event>
<event>
 7    1  0.3151284E-009  0.1030779E+03  0.7561462E-02  0.1273953E+00
         -1   -1    0    0    0  501 -0.00000000000E+00  0.00000000000E+00  0.33274298975E+02  0.33274298975E+02  0.00000000000E+00 0.  1.
          1   -1    0    0  501    0  0.00000000000E+00 -0.00000000000E+00 -0.38494196809E+03  0.38494196809E+03  0.00000000000E+00 0. -1.
         25    2    1    2    0    0  0.25341952616E+01 -0.29845897292E+02 -0.17446792714E+03  0.21675560740E+03  0.12508691381E+03 0.  0.
          5    1    3    3  502    0 -0.57697040920E+02 -0.35201703672E+02 -0.84739353934E+02  0.10847275684E+03  0.41800000000E+01 0. -1.
         -5    1    3    3    0  502  0.60231236182E+02  0.53558063798E+01 -0.89728573206E+02  0.10828285055E+03  0.41800000000E+01 0. -1.
        -11    1    1    2    0    0 -0.67601832914E+01  0.53435102466E+02 -0.55177940748E+02  0.77107816717E+02  0.00000000000E+00 0.  1.
         11    1    1    2    0    0  0.42259880298E+01 -0.23589205174E+02 -0.12202180122E+03  0.12435284295E+03  0.00000000000E+00 0. -1.
</event>
<event>
 7    1  0.2840156E-009  0.1184328E+03  0.7561462E-02  0.1245705E+00
          2   -1    0    0  501    0  0.00000000000E+00  0.00000000000E+00  0.21560996519E+03  0.21560996519E+03  0.00000000000E+00 0. -1.
         -2   -1    0    0    0  501 -0.00000000000E+00 -0.00000000000E+00 -0.11560216563E+03  0.11560216563E+03  0.00000000000E+00 0.  1.
         25    2    1    2    0    0  0.24150154218E+01  0.11076253608E+03  0.26496455689E+02  0.16918560612E+03  0.12509010934E+03 0.  0.
          5    1    3    3  502    0 -0.22805005311E+02  0.82669474985E+02  0.70472168257E+02  0.11107704200E+03  0.41800000000E+01 0.  1.
         -5    1    3    3    0  502  0.25220020733E+02  0.28093061092E+02 -0.43975712568E+02  0.58108564112E+02  0.41800000000E+01 0.  1.
        -11    1    1    2    0    0 -0.11989406371E+02 -0.77053931875E+02  0.93447284656E+02  0.12171051430E+03  0.00000000000E+00 0. -1.
         11    1    1    2    0    0  0.95743909495E+01 -0.33708604201E+02 -0.19935940788E+02  0.40316010397E+02  0.00000000000E+00 0.  1.
</event>
<event>
 7    1  0.2840156E-009  0.1066670E+03  0.7561462E-02  0.1266870E+00
         -1   -1    0    0    0  501 -0.00000000000E+00  0.00000000000E+00  0.11515852620E+03  0.11515852620E+03  0.00000000000E+00 0.  1.
          1   -1    0    0  501    0  0.00000000000E+00 -0.00000000000E+00 -0.17803792019E+03  0.17803792019E+03  0.00000000000E+00 0. -1.
         25    2    1    2    0    0  0.82514740281E+02  0.25441168906E+02 -0.68472644664E+02  0.16671080744E+03  0.12509218524E+03 0.  0.
          5    1    3    3  502    0  0.62083542050E+02 -0.25919982933E+02  0.12524823463E+02  0.68560595910E+02  0.41800000000E+01 0. -1.
         -5    1    3    3    0  502  0.20431198231E+02  0.51361151840E+02 -0.80997468126E+02  0.98150211525E+02  0.41800000000E+01 0. -1.
        -11    1    1    2    0    0 -0.57250757069E+02 -0.40567084501E+01  0.46498507940E+02  0.73866212230E+02  0.00000000000E+00 0.  1.
         11    1    1    2    0    0 -0.25263983212E+02 -0.21384460456E+02 -0.40905257262E+02  0.52619426721E+02  0.00000000000E+00 0. -1.
</event>
<event>
 7    1  0.2840156E-009  0.9362120E+02  0.7561462E-02  0.1294312E+00
         -1   -1    0    0    0  501 -0.00000000000E+00  0.00000000000E+00  0.32060525748E+02  0.32060525748E+02  0.00000000000E+00 0.  1.
          1   -1    0    0  501    0  0.00000000000E+00 -0.00000000000E+00 -0.50937826364E+03  0.50937826364E+03  0.00000000000E+00 0. -1.
         25    2    1    2    0    0  0.35848318825E+02 -0.94269451566E+01 -0.38329157094E+03  0.40489014336E+03  0.12509848352E+03 0.  0.
          5    1    3    3  502    0 -0.42390980906E+02  0.16150712651E+02 -0.10071072682E+03  0.11053489801E+03  0.41800000000E+01 0.  1.
         -5    1    3    3    0  502  0.78239299731E+02 -0.25577657808E+02 -0.28258084412E+03  0.29435524535E+03  0.41800000000E+01 0.  1.
        -11    1    1    2    0    0 -0.46699523648E+02  0.11781966386E+02 -0.10826352614E+03  0.11849325438E+03  0.00000000000E+00 0. -1.
         11    1    1    2    0    0  0.10851204823E+02 -0.23550212291E+01  0.14237359187E+02  0.18055391652E+02  0.00000000000E+00 0.  1.
</event>
<event>
 7    1  0.2840156E-009  0.1172355E+03  0.7561462E-02  0.1247729E+00
         -2   -1    0    0    0  501 -0.00000000000E+00  0.00000000000E+00  0.20535255274E+03  0.20535255274E+03  0.00000000000E+00 0.  1.
          2   -1    0    0  501    0  0.00000000000E+00 -0.00000000000E+00 -0.71085503341E+02  0.71085503341E+02  0.00000000000E+00 0. -1.
         25    2    1    2    0    0 -0.26137959858E+02 -0.45833235528E+02  0.80548131572E+02  0.15785895254E+03  0.12509024332E+03 0.  0.
          5    1    3    3  502    0 -0.10634623089E+02 -0.88049804782E+02  0.65197220561E+02  0.11015449741E+03  0.41800000000E+01 0. -1.
         -5    1    3    3    0  502 -0.15503336769E+02  0.42216569254E+02  0.15350911011E+02  0.47704455132E+02  0.41800000000E+01 0. -1.
        -11    1    1    2    0    0  0.56608390188E+02  0.18422982749E+02  0.49417007369E+02  0.77368965034E+02  0.00000000000E+00 0.  1.
         11    1    1    2    0    0 -0.30470430330E+02  0.27410252779E+02  0.43019104546E+01  0.41210138503E+02  0.00000000000E+00 0. -1.
</event>
<event>
 7    1  0.2840156E-009  0.3289759E+03  0.7561462E-02  0.1071591E+00
         -1   -1    0    0    0  501 -0.00000000000E+00  0.00000000000E+00  0.50438831847E+02  0.50438831847E+02  0.00000000000E+00 0.  1.
          1   -1    0    0  501    0  0.00000000000E+00 -0.00000000000E+00 -0.23055775305E+04  0.23055775305E+04  0.00000000000E+00 0. -1.
         25    2    1    2    0    0 -0.29090945974E+03  0.12049964108E+03 -0.13952396569E+04  0.14357886519E+04  0.12508747140E+03 0.  0.
          5    1    3    3  502    0 -0.22273477578E+03  0.14250714112E+03 -0.10183394438E+04  0.10521177504E+04  0.41800000000E+01 0.  1.
         -5    1    3    3    0  502 -0.68174683955E+02 -0.22007500046E+02 -0.37690021316E+03  0.38367090152E+03  0.41800000000E+01 0.  1.
        -11    1    1    2    0    0  0.18805360051E+03 -0.42883666867E+02 -0.42666474392E+03  0.46823708658E+03  0.00000000000E+00 0.  1.
         11    1    1    2    0    0  0.10285585923E+03 -0.77615974211E+02 -0.43323429778E+03  0.45199062380E+03  0.00000000000E+00 0. -1.
</event>
<event>
 7    1  0.2840156E-009  0.1204957E+03  0.7561462E-02  0.1242282E+00
         -3   -1    0    0    0  501 -0.00000000000E+00  0.00000000000E+00  0.23587419409E+02  0.23587419409E+02  0.00000000000E+00 0.  1.
          3   -1    0    0  501    0  0.00000000000E+00 -0.00000000000E+00 -0.88287124598E+03  0.88287124598E+03  0.00000000000E+00 0. -1.
         25    2    1    2    0    0  0.65872713953E+02 -0.96346003883E+01 -0.66441167897E+03  0.67935438875E+03  0.12508983332E+03 0.  0.
          5    1    3    3  502    0  0.74222637126E+02 -0.53212392198E+02 -0.52773104879E+03  0.53559134683E+03  0.41800000000E+01 0. -1.
         -5    1    3    3    0  502 -0.83499231729E+01  0.43577791809E+02 -0.13668063018E+03  0.14376304192E+03  0.41800000000E+01 0. -1.
        -11    1    1    2    0    0 -0.81201869839E+02 -0.80483543423E+01 -0.18403559554E+03  0.20131472897E+03  0.00000000000E+00 0. -1.
         11    1    1    2    0    0  0.15329155886E+02  0.17682954731E+02 -0.10836552054E+02  0.25789547662E+02  0.00000000000E+00 0.  1.
</event>
<event>
 7    1  0.2840156E-009  0.1093181E+03  0.7561462E-02  0.1261838E+00
         -2   -1    0    0    0  501 -0.00000000000E+00  0.00000000000E+00  0.10498662450E+03  0.10498662450E+03  0.00000000000E+00 0.  1.
          2   -1    0    0  501    0  0.00000000000E+00 -0.00000000000E+00 -0.12268717930E+03  0.12268717930E+03  0.00000000000E+00 0. -1.
         25    2    1    2    0    0 -0.18725723988E+02 -0.92688868281E+01  0.15858150121E+02  0.12781102112E+03  0.12509041207E+03 0.  0.
          5    1    3    3  502    0  0.25252806294E+02  0.47923436926E+02  0.10580217235E+02  0.55351363391E+02  0.41800000000E+01 0.  1.
         -5    1    3    3    0  502 -0.43978530282E+02 -0.57192323754E+02  0.52779328863E+01  0.72459657726E+02  0.41800000000E+01 0.  1.
        -11    1    1    2    0    0  0.11354143213E+02  0.49679650772E+02 -0.28732883287E+02  0.58502673878E+02  0.00000000000E+00 0. -1.
         11    1    1    2    0    0  0.73715807749E+01 -0.40410763944E+02 -0.48258216423E+01  0.41360108803E+02  0.00000000000E+00 0.  1.
</event>
<event>
 7    1  0.2840156E-009  0.1003206E+03  0.7561462E-02  0.1279623E+00
          4   -1    0    0  501    0  0.00000000000E+00  0.00000000000E+00  0.12349282200E+04  0.12349282200E+04  0.00000000000E+00 0. -1.
         -4   -1    0    0    0  501 -0.00000000000E+00 -0.00000000000E+00 -0.19201182286E+02  0.19201182286E+02  0.00000000000E+00 0.  1.
         25    2    1    2    0    0 -0.48117398025E+01  0.63027100149E+02  0.10059453327E+04  0.10156618025E+04  0.12508923398E+03 0.  0.
          5    1    3    3  502    0  0.37662360548E+02  0.39914210864E+02  0.86197553168E+03  0.86373079559E+03  0.41800000000E+01 0.  1.
         -5    1    3    3    0  502 -0.42474100351E+02  0.23112889285E+02  0.14396980100E+03  0.15193100688E+03  0.41800000000E+01 0.  1.
        -11    1    1    2    0    0 -0.30796985663E+02 -0.50824129021E+02  0.18262960549E+03  0.19205499009E+03  0.00000000000E+00 0. -1.
         11    1    1    2    0    0  0.35608725466E+02 -0.12202971128E+02  0.27152099581E+02  0.46412609766E+02  0.00000000000E+00 0.  1.
</event>
<event>
 7    1  0.2840156E-009  0.1055823E+03  0.7561462E-02  0.1268977E+00
          2   -1    0    0  501    0  0.00000000000E+00  0.00000000000E+00  0.10053237737E+04  0.10053237737E+04  0.00000000000E+00 0. -1.
         -2   -1    0    0    0  501 -0.00000000000E+00 -0.00000000000E+00 -0.16998731570E+02  0.16998731570E+02  0.00000000000E+00 0.  1.
         25    2    1    2    0    0  0.32688874881E+02 -0.63115327041E+02  0.54179331375E+03  0.56056982030E+03  0.12508565690E+03 0.  0.
          5    1    3    3  502    0  0.51457950862E+02 -0.26075102387E+02  0.90845786866E+02  0.10769522303E+03  0.41800000000E+01 0.  1.
         -5    1    3    3    0  502 -0.18769075981E+02 -0.37040224654E+02  0.45094752688E+03  0.45287459727E+03  0.41800000000E+01 0.  1.
        -11    1    1    2    0    0  0.23738928958E+02  0.47407126762E+02  0.14059986819E+03  0.15026408537E+03  0.00000000000E+00 0.  1.
         11    1    1    2    0    0 -0.56427803839E+02  0.15708200279E+02  0.30593186022E+03  0.31148859963E+03  0.00000000000E+00 0. -1.
</event>
<event>
 7    1  0.2861186E-009  0.9655551E+02  0.7561462E-02  0.1287711E+00
         -2   -1    0    0    0  501 -0.00000000000E+00  0.00000000000E+00  0.23496288063E+02  0.23496288063E+02  0.00000000000E+00 0. -1.
          2   -1    0    0  501    0  0.00000000000E+00 -0.00000000000E+00 -0.64364220526E+03  0.64364220526E+03  0.00000000000E+00 0.  1.
         25    2    1    2    0    0 -0.52136791197E+01 -0.46089319746E+02 -0.44304750970E+03  0.46269867232E+03  0.12509019814E+03 0.  0.
          5    1    3    3  502    0  0.43077827868E+02 -0.67521660953E+02 -0.27938156729E+03  0.29066545459E+03  0.41800000000E+01 0.  1.
         -5    1    3    3    0  502 -0.48291506988E+02  0.21432341207E+02 -0.16366594241E+03  0.17203321772E+03  0.41800000000E+01 0.  1.
        -11    1    1    2    0    0  0.18004491913E+02  0.43193387006E+02 -0.18383412794E+03  0.18969664469E+03  0.00000000000E+00 0.  1.
         11    1    1    2    0    0 -0.12790812793E+02  0.28959327395E+01  0.67357204352E+01  0.14743176324E+02  0.00000000000E+00 0. -1.
</event>
<event>
 7    1  0.2840156E-009  0.1072486E+03  0.7561462E-02  0.1265751E+00
          2   -1    0    0  501    0  0.00000000000E+00  0.00000000000E+00  0.34454123237E+03  0.34454123237E+03  0.00000000000E+00 0. -1.
         -2   -1    0    0    0  501 -0.00000000000E+00 -0.00000000000E+00 -0.38169432475E+02  0.38169432475E+02  0.00000000000E+00 0.  1.
         25    2    1    2    0    0 -0.34489555120E+02 -0.32096131636E+00  0.19607905082E+03  0.23512757824E+03  0.12509337093E+03 0.  0.
          5    1    3    3  502    0  0.81805880043E+01  0.57163705791E+02  0.93259738605E+02  0.10977004384E+03  0.41800000000E+01 0.  1.
         -5    1    3    3    0  502 -0.42670143124E+02 -0.57484667107E+02  0.10281931221E+03  0.12535753440E+03  0.41800000000E+01 0.  1.
        -11    1    1    2    0    0  0.54248119504E+02  0.19213516163E+02  0.34706935777E+02  0.67205573163E+02  0.00000000000E+00 0.  1.
         11    1    1    2    0    0 -0.19758564385E+02 -0.18892554847E+02  0.75585813298E+02  0.80377513442E+02  0.00000000000E+00 0. -1.
</event>
<event>
 7    1  0.4191186E-009  0.9577371E+02  0.7561462E-02  0.1289443E+00
          3   -1    0    0  501    0  0.00000000000E+00  0.00000000000E+00  0.73100047872E+03  0.73100047872E+03  0.00000000000E+00 0. -1.
         -3   -1    0    0    0  501 -0.00000000000E+00 -0.00000000000E+00 -0.25373648743E+02  0.25373648743E+02  0.00000000000E+00 0.  1.
         25    2    1    2    0    0 -0.65485492256E+02  0.37226042330E+00  0.52411884967E+03  0.54280478762E+03  0.12509188867E+03 0.  0.
          5    1    3    3  502    0 -0.61407195313E+02 -0.19503825774E+02  0.10560520071E+03  0.12377872868E+03  0.41800000000E+01 0. -1.
         -5    1    3    3    0  502 -0.40782969427E+01  0.19876086197E+02  0.41851364896E+03  0.41902605894E+03  0.41800000000E+01 0. -1.
        -11    1    1    2    0    0  0.21610510266E+02  0.40753996192E+02  0.45188600536E+02  0.64574855617E+02  0.00000000000E+00 0.  1.
         11    1    1    2    0    0  0.43874981990E+02 -0.41126256616E+02  0.13631937977E+03  0.14899448423E+03  0.00000000000E+00 0. -1.
</event>
<event>
 7    1  0.2840156E-009  0.1181302E+03  0.7561462E-02  0.1246214E+00
          2   -1    0    0  501    0  0.00000000000E+00  0.00000000000E+00  0.57327006828E+03  0.57327006828E+03  0.00000000000E+00 0. -1.
         -2   -1    0    0    0  501 -0.00000000000E+00 -0.00000000000E+00 -0.31652546041E+02  0.31652546041E+02  0.00000000000E+00 0.  1.
         25    2    1    2    0    0 -0.53806164708E+02 -0.36578303989E+02  0.37048688630E+03  0.39641047528E+03  0.12509059239E+03 0.  0.
          5    1    3    3  502    0  0.29726948438E+02 -0.23788069395E+02  0.40475064209E+02  0.55724921998E+02  0.41800000000E+01 0.  1.
         -5    1    3    3    0  502 -0.83533113146E+02 -0.12790234594E+02  0.33001182209E+03  0.34068555328E+03  0.41800000000E+01 0.  1.
        -11    1    1    2    0    0  0.40024353262E+02 -0.27008897109E+02  0.42337691737E+02  0.64217672947E+02  0.00000000000E+00 0.  1.
         11    1    1    2    0    0  0.13781811446E+02  0.63587201098E+02  0.12879294420E+03  0.14429446609E+03  0.00000000000E+00 0. -1.
</event>
<event>
 7    1  0.2840156E-009  0.9772404E+02  0.7561462E-02  0.1285156E+00
         -2   -1    0    0    0  501 -0.00000000000E+00  0.00000000000E+00  0.22942083752E+02  0.22942083752E+02  0.00000000000E+00 0.  1.
          2   -1    0    0  501    0  0.00000000000E+00 -0.00000000000E+00 -0.79548453999E+03  0.79548453999E+03  0.00000000000E+00 0. -1.
         25    2    1    2    0    0  0.40147208823E+01 -0.32637491893E+02 -0.65950756784E+03  0.67207095100E+03  0.12509119582E+03 0.  0.
          5    1    3    3  502    0 -0.43457273667E+02  0.12206975073E+02 -0.45723626895E+03  0.45947798959E+03  0.41800000000E+01 0.  1.
         -5    1    3    3    0  502  0.47471994549E+02 -0.44844466966E+02 -0.20227129889E+03  0.21259296140E+03  0.41800000000E+01 0.  1.
        -11    1    1    2    0    0 -0.23415606419E+02 -0.18591356244E+02 -0.13635727838E+02  0.32861257198E+02  0.00000000000E+00 0.  1.
         11    1    1    2    0    0  0.19400885537E+02  0.51228848137E+02 -0.99399160560E+02  0.11349441555E+03  0.00000000000E+00 0. -1.
</event>
<event>
 7    1  0.2840156E-009  0.1058681E+03  0.7561462E-02  0.1268419E+00
          4   -1    0    0  501    0  0.00000000000E+00  0.00000000000E+00  0.83881412395E+02  0.83881412395E+02  0.00000000000E+00 0. -1.
         -4   -1    0    0    0  501 -0.00000000000E+00 -0.00000000000E+00 -0.18872284444E+03  0.18872284444E+03  0.00000000000E+00 0.  1.
         25    2    1    2    0    0 -0.51389563254E+02  0.10224629592E+02 -0.21288332124E+02  0.13727895773E+03  0.12508752491E+03 0.  0.
          5    1    3    3  502    0 -0.38528278253E+02 -0.44901778810E+02  0.24675586199E+02  0.64241380120E+02  0.41800000000E+01 0. -1.
         -5    1    3    3    0  502 -0.12861285001E+02  0.55126408402E+02 -0.45963918323E+02  0.73037577608E+02  0.41800000000E+01 0. -1.
        -11    1    1    2    0    0 -0.19797092300E+02 -0.14201977620E+02 -0.51865402005E+02  0.57303062371E+02  0.00000000000E+00 0.  1.
         11    1    1    2    0    0  0.71186655554E+02  0.39773480276E+01 -0.31687697915E+02  0.78022236737E+02  0.00000000000E+00 0. -1.
</event>
<event>
 7    1  0.2840156E-009  0.1086451E+03  0.7561462E-02  0.1263100E+00
         -2   -1    0    0    0  501 -0.00000000000E+00  0.00000000000E+00  0.15287096067E+03  0.15287096067E+03  0.00000000000E+00 0.  1.
          2   -1    0    0  501    0  0.00000000000E+00 -0.00000000000E+00 -0.12055084136E+03  0.12055084136E+03  0.00000000000E+00 0. -1.
         25    2    1    2    0    0  0.42517865079E+02 -0.39764497574E+02  0.76434848258E+02  0.15774143392E+03  0.12510431579E+03 0.  0.
          5    1    3    3  502    0  0.72473676215E+02 -0.16613858841E+02  0.90443641938E+02  0.11715792255E+03  0.41800000000E+01 0.  1.
         -5    1    3    3    0  502 -0.29955811135E+02 -0.23150638733E+02 -0.14008793680E+02  0.40583511367E+02  0.41800000000E+01 0.  1.
        -11    1    1    2    0    0  0.17373090847E+02  0.41315117106E+02 -0.74322778867E+01  0.45431288135E+02  0.00000000000E+00 0.  1.
         11    1    1    2    0    0 -0.59890955926E+02 -0.15506195317E+01 -0.36682451060E+02  0.70249079983E+02  0.00000000000E+00 0. -1.
</event>
<event>
 7    1  0.2840156E-009  0.1879294E+03  0.7561462E-02  0.1160342E+00
         -1   -1    0    0    0  501 -0.00000000000E+00  0.00000000000E+00  0.85005874603E+02  0.85005874603E+02  0.00000000000E+00 0.  1.
          1   -1    0    0  501    0  0.00000000000E+00 -0.00000000000E+00 -0.65378342311E+03  0.65378342311E+03  0.00000000000E+00 0. -1.
         25    2    1    2    0    0 -0.16128607015E+03  0.14619780041E+02 -0.50058111388E+03  0.54079058544E+03  0.12508425693E+03 0.  0.
          5    1    3    3  502    0 -0.10611486912E+03 -0.38874711025E+02 -0.19267119650E+03  0.22340830550E+03  0.41800000000E+01 0. -1.
         -5    1    3    3    0  502 -0.55171201030E+02  0.53494491066E+02 -0.30790991739E+03  0.31738227994E+03  0.41800000000E+01 0. -1.
        -11    1    1    2    0    0  0.13562178931E+03 -0.47855824734E+02 -0.55117319478E+02  0.15401742954E+03  0.00000000000E+00 0.  1.
         11    1    1    2    0    0  0.25664280836E+02  0.33236044693E+02 -0.13079115144E+02  0.43981282730E+02  0.00000000000E+00 0. -1.
</event>
<event>
 7    1  0.2840156E-009  0.1607615E+03  0.7561462E-02  0.1187840E+00
         -1   -1    0    0    0  501 -0.00000000000E+00  0.00000000000E+00  0.18459416499E+03  0.18459416499E+03  0.00000000000E+00 0.  1.
          1   -1    0    0  501    0  0.00000000000E+00 -0.00000000000E+00 -0.16212371245E+03  0.16212371245E+03  0.00000000000E+00 0. -1.
         25    2    1    2    0    0 -0.11187346879E+03 -0.71705652470E+02  0.18472140699E+01  0.18250205834E+03  0.12508483315E+03 0.  0.
          5    1    3    3  502    0  0.38377189788E+01  0.22109702976E+02 -0.21859640763E+02  0.31605115835E+02  0.41800000000E+01 0. -1.
         -5    1    3    3    0  502 -0.11571118777E+03 -0.93815355446E+02  0.23706854833E+02  0.15089694251E+03  0.41800000000E+01 0. -1.
        -11    1    1    2    0    0  0.11050932209E+03  0.39375553632E+02 -0.12415945971E+02  0.11796991230E+03  0.00000000000E+00 0.  1.
         11    1    1    2    0    0  0.13641466953E+01  0.32330098838E+02  0.33039184443E+02  0.46245906800E+02  0.00000000000E+00 0. -1.
</event>
<event>
 7    1  0.2840156E-009  0.9110316E+02  0.7561462E-02  0.1300202E+00
         -2   -1    0    0    0  501 -0.00000000000E+00  0.00000000000E+00  0.41245123190E+02  0.41245123190E+02  0.00000000000E+00 0. -1.
          2   -1    0    0  501    0  0.00000000000E+00 -0.00000000000E+00 -0.34953807694E+03  0.34953807694E+03  0.00000000000E+00 0.  1.
         25    2    1    2    0    0  0.16127358991E+02 -0.35522696410E+02 -0.22326794754E+03  0.25887911207E+03  0.12509142496E+03 0.  0.
          5    1    3    3  502    0  0.64585499770E+02  0.86693836753E+01 -0.11347624413E+03  0.13092278402E+03  0.41800000000E+01 0.  1.
         -5    1    3    3    0  502 -0.48458140778E+02 -0.44192080085E+02 -0.10979170341E+03  0.12795632805E+03  0.41800000000E+01 0.  1.
        -11    1    1    2    0    0 -0.21049255258E+02  0.69038103665E+01 -0.97728652431E+02  0.10020790014E+03  0.00000000000E+00 0.  1.
         11    1    1    2    0    0  0.49218962669E+01  0.28618886044E+02  0.12703646223E+02  0.31696187919E+02  0.00000000000E+00 0. -1.
</event>
<event>
 7    1  0.2840156E-009  0.1086312E+03  0.7561462E-02  0.1263126E+00
         -3   -1    0    0    0  501 -0.00000000000E+00  0.00000000000E+00  0.12399208949E+03  0.12399208949E+03  0.00000000000E+00 0.  1.
          3   -1    0    0  501    0  0.00000000000E+00 -0.00000000000E+00 -0.16570721503E+03  0.16570721503E+03  0.00000000000E+00 0. -1.
         25    2    1    2    0    0 -0.79081907454E+01  0.29076562631E+02 -0.11220687324E+03  0.17072146553E+03  0.12508976942E+03 0.  0.
          5    1    3    3  502    0  0.17731265065E+02 -0.45698842591E+02 -0.37288712593E+02  0.61730887422E+02  0.41800000000E+01 0. -1.
         -5    1    3    3    0  502 -0.25639455811E+02  0.74775405223E+02 -0.74918160649E+02  0.10899057810E+03  0.41800000000E+01 0. -1.
        -11    1    1    2    0    0  0.28534083296E+02 -0.51228424747E+02  0.23694594411E+02  0.63245388891E+02  0.00000000000E+00 0. -1.
         11    1    1    2    0    0 -0.20625892550E+02  0.22151862116E+02  0.46797153287E+02  0.55732450103E+02  0.00000000000E+00 0.  1.
</event>
<event>
 7    1  0.2840156E-009  0.1419596E+03  0.7561462E-02  0.1210716E+00
          1   -1    0    0  501    0  0.00000000000E+00  0.00000000000E+00  0.58209531107E+02  0.58209531107E+02  0.00000000000E+00 0. -1.
         -1   -1    0    0    0  501 -0.00000000000E+00 -0.00000000000E+00 -0.43388756633E+03  0.43388756633E+03  0.00000000000E+00 0.  1.
         25    2    1    2    0    0  0.54083258784E+02  0.98915551060E+02 -0.16537177561E+03  0.23602828610E+03  0.12510892273E+03 0.  0.
          5    1    3    3  502    0  0.40702736785E+02  0.11777944214E+03 -0.81576898031E+02  0.14899990760E+03  0.41800000000E+01 0.  1.
         -5    1    3    3    0  502  0.13380521998E+02 -0.18863891076E+02 -0.83794877583E+02  0.87028378501E+02  0.41800000000E+01 0.  1.
        -11    1    1    2    0    0  0.19326314525E+02 -0.24457537175E+02 -0.97017765427E+02  0.10190252385E+03  0.00000000000E+00 0.  1.
         11    1    1    2    0    0 -0.73409573309E+02 -0.74458013885E+02 -0.11328849418E+03  0.15416628749E+03  0.00000000000E+00 0. -1.
</event>
<event>
 7    1  0.2840156E-009  0.9886157E+02  0.7561462E-02  0.1282708E+00
          1   -1    0    0  501    0  0.00000000000E+00  0.00000000000E+00  0.14388399088E+03  0.14388399088E+03  0.00000000000E+00 0. -1.
         -1   -1    0    0    0  501 -0.00000000000E+00 -0.00000000000E+00 -0.17254804059E+03  0.17254804059E+03  0.00000000000E+00 0.  1.
         25    2    1    2    0    0 -0.63627606436E+02 -0.20611401933E+02 -0.10489996142E+03  0.17641219901E+03  0.12507581646E+03 0.  0.
          5    1    3    3  502    0  0.47692836260E+01 -0.11668275867E+02 -0.10646378963E+03  0.10728888867E+03  0.41800000000E+01 0.  1.
         -5    1    3    3    0  502 -0.68396890062E+02 -0.89431260659E+01  0.15638282178E+01  0.69123310342E+02  0.41800000000E+01 0.  1.
        -11    1    1    2    0    0  0.25764913013E+02  0.57168596588E+02  0.54488895745E+02  0.83072973571E+02  0.00000000000E+00 0. -1.
         11    1    1    2    0    0  0.37862693423E+02 -0.36557194656E+02  0.21747015958E+02  0.56946858890E+02  0.00000000000E+00 0.  1.
</event>
<event>
 7    1  0.2840156E-009  0.1770766E+03  0.7561462E-02  0.1170663E+00
          4   -1    0    0  501    0  0.00000000000E+00  0.00000000000E+00  0.11339946246E+03  0.11339946246E+03  0.00000000000E+00 0.  1.
         -4   -1    0    0    0  501 -0.00000000000E+00 -0.00000000000E+00 -0.41187480075E+03  0.41187480075E+03  0.00000000000E+00 0. -1.
         25    2    1    2    0    0  0.13729514763E+03  0.10131108353E+03 -0.23769804799E+03  0.31821604211E+03  0.12508874542E+03 0.  0.
          5    1    3    3  502    0  0.76831639994E+02  0.17711436762E+02 -0.18740976451E+03  0.20336343852E+03  0.41800000000E+01 0. -1.
         -5    1    3    3    0  502  0.60463507634E+02  0.83599646766E+02 -0.50288283488E+02  0.11485260359E+03  0.41800000000E+01 0. -1.
        -11    1    1    2    0    0 -0.29532607893E+02 -0.33296507678E+02 -0.65903015165E+02  0.79523831399E+02  0.00000000000E+00 0. -1.
         11    1    1    2    0    0 -0.10776253974E+03 -0.68014575850E+02  0.51257248695E+01  0.12753438969E+03  0.00000000000E+00 0.  1.
</event>
<event>
 7    1  0.2840156E-009  0.7740511E+02  0.7561462E-02  0.1336581E+00
         -1   -1    0    0    0  501 -0.00000000000E+00  0.00000000000E+00  0.25355339505E+03  0.25355339505E+03  0.00000000000E+00 0.  1.
          1   -1    0    0  501    0  0.00000000000E+00 -0.00000000000E+00 -0.61342278429E+02  0.61342278429E+02  0.00000000000E+00 0. -1.
         25    2    1    2    0    0  0.28289121519E+02  0.18856050425E+02  0.18213593803E+03  0.22355419001E+03  0.12508857228E+03 0.  0.
          5    1    3    3  502    0 -0.12720816243E+02  0.59684068232E+02  0.13703669400E+03  0.15006843462E+03  0.41800000000E+01 0. -1.
         -5    1    3    3    0  502  0.41009937763E+02 -0.40828017807E+02  0.45099244023E+02  0.73485755387E+02  0.41800000000E+01 0. -1.
        -11    1    1    2    0    0 -0.11730760917E+02 -0.14208398665E+02 -0.36939605165E+02  0.41279822844E+02  0.00000000000E+00 0. -1.
         11    1    1    2    0    0 -0.16558360602E+02 -0.46476517597E+01  0.47014783761E+02  0.50061660627E+02  0.00000000000E+00 0.  1.
</event>
<event>
 7    1  0.2840156E-009  0.1099247E+03  0.7561462E-02  0.1260709E+00
          1   -1    0    0  501    0  0.00000000000E+00  0.00000000000E+00  0.15394365998E+04  0.15394365998E+04  0.00000000000E+00 0. -1.
         -1   -1    0    0    0  501 -0.00000000000E+00 -0.00000000000E+00 -0.13879281071E+02  0.13879281071E+02  0.00000000000E+00 0.  1.
         25    2    1    2    0    0 -0.75068031943E+02 -0.89811492309E+00  0.11564893256E+04  0.11656549331E+04  0.12509135376E+03 0.  0.
          5    1    3    3  502    0  0.17882408436E+01 -0.32851352043E+02  0.90027848025E+02  0.95942143798E+02  0.41800000000E+01 0.  1.
         -5    1    3    3    0  502 -0.76856272786E+02  0.31953237120E+02  0.10664614776E+04  0.10697127893E+04  0.41800000000E+01 0.  1.
        -11    1    1    2    0    0 -0.11835739396E+02  0.10617897692E+02  0.11677312332E+02  0.19727749536E+02  0.00000000000E+00 0.  1.
         11    1    1    2    0    0  0.86903771339E+02 -0.97197827685E+01  0.35739068083E+03  0.36793319827E+03  0.00000000000E+00 0. -1.
</event>
<event>
 7    1  0.2840156E-009  0.9024302E+02  0.7561462E-02  0.1302264E+00
         -2   -1    0    0    0  501 -0.00000000000E+00  0.00000000000E+00  0.11301811897E+03  0.11301811897E+03  0.00000000000E+00 0.  1.
          2   -1    0    0  501    0  0.00000000000E+00 -0.00000000000E+00 -0.13517376091E+03  0.13517376091E+03  0.00000000000E+00 0. -1.
         25    2    1    2    0    0  0.61193189504E+01  0.10809595107E+01 -0.72059501880E+02  0.14449254850E+03  0.12508761019E+03 0.  0.
          5    1    3    3  502    0 -0.54381744098E+02 -0.15157868904E+02 -0.56134377212E+02  0.79722492346E+02  0.41800000000E+01 0. -1.
         -5    1    3    3    0  502  0.60501063048E+02  0.16238828415E+02 -0.15925124668E+02  0.64770056152E+02  0.41800000000E+01 0. -1.
        -11    1    1    2    0    0 -0.31131757546E+02  0.11385035347E+02  0.64241320013E+02  0.72289366817E+02  0.00000000000E+00 0.  1.
         11    1    1    2    0    0  0.25012438596E+02 -0.12465994858E+02 -0.14337460078E+02  0.31409964562E+02  0.00000000000E+00 0. -1.
</event>
<event>
 7    1  0.2840156E-009  0.1471131E+03  0.7561462E-02  0.1204066E+00
          2   -1    0    0  501    0  0.00000000000E+00  0.00000000000E+00  0.81131752134E+02  0.81131752134E+02  0.00000000000E+00 0. -1.
         -2   -1    0    0    0  501 -0.00000000000E+00 -0.00000000000E+00 -0.41855238042E+03  0.41855238042E+03  0.00000000000E+00 0.  1.
         25    2    1    2    0    0 -0.11042926249E+03  0.51788930768E+02 -0.63382137387E+02  0.18585218774E+03  0.12508806891E+03 0.  0.
          5    1    3    3  502    0 -0.12448946156E+03  0.23298249198E+02 -0.14699621898E+02  0.12756953296E+03  0.41800000000E+01 0.  1.
         -5    1    3    3    0  502  0.14060199070E+02  0.28490681570E+02 -0.48682515488E+02  0.58282654782E+02  0.41800000000E+01 0.  1.
        -11    1    1    2    0    0  0.78830485339E+02 -0.64046365362E+02 -0.12537498602E+03  0.16135386408E+03  0.00000000000E+00 0. -1.
         11    1    1    2    0    0  0.31598777151E+02  0.12257434595E+02 -0.14866350488E+03  0.15247808073E+03  0.00000000000E+00 0.  1.
</event>
<event>
 7    1  0.2840156E-009  0.9520973E+02  0.7561462E-02  0.1290704E+00
          2   -1    0    0  501    0  0.00000000000E+00  0.00000000000E+00  0.31016551651E+03  0.31016551651E+03  0.00000000000E+00 0. -1.
         -2   -1    0    0    0  501 -0.00000000000E+00 -0.00000000000E+00 -0.41049196849E+02  0.41049196849E+02  0.00000000000E+00 0.  1.
         25    2    1    2    0    0 -0.14281178724E+02  0.76220668146E+01  0.19648750270E+03  0.23348858265E+03  0.12509009370E+03 0.  0.
          5    1    3    3  502    0 -0.32872428506E+02 -0.38389636763E+02  0.28283972000E+02  0.58067342274E+02  0.41800000000E+01 0.  1.
         -5    1    3    3    0  502  0.18591249783E+02  0.46011703578E+02  0.16820353070E+03  0.17542124037E+03  0.41800000000E+01 0.  1.
        -11    1    1    2    0    0  0.29723141686E+02  0.34206930392E+02  0.22362666271E+02  0.50533831057E+02  0.00000000000E+00 0.  1.
         11    1    1    2    0    0 -0.15441962962E+02 -0.41828997207E+02  0.50266150688E+02  0.67192299651E+02  0.00000000000E+00 0. -1.
</event>
<event>
 7    1  0.2840156E-009  0.1227436E+03  0.7561462E-02  0.1238638E+00
          2   -1    0    0  501    0  0.00000000000E+00  0.00000000000E+00  0.18736000689E+03  0.18736000689E+03  0.00000000000E+00 0. -1.
         -2   -1    0    0    0  501 -0.00000000000E+00 -0.00000000000E+00 -0.87571651384E+02  0.87571651384E+02  0.00000000000E+00 0.  1.
         25    2    1    2    0    0  0.66357716614E+02  0.92075738225E+01  0.46739508982E+02  0.14940102799E+03  0.12509180427E+03 0.  0.
          5    1    3    3  502    0 -0.31178958919E+02 -0.10608106371E+02 -0.10110461340E+02  0.34703792712E+02  0.41800000000E+01 0. -1.
         -5    1    3    3    0  502  0.97536675533E+02  0.19815680193E+02  0.56849970323E+02  0.11469723528E+03  0.41800000000E+01 0. -1.
        -11    1    1    2    0    0  0.85319867534E+00  0.33193164151E+02  0.23792636287E+02  0.40848545088E+02  0.00000000000E+00 0. -1.
         11    1    1    2    0    0 -0.67210915289E+02 -0.42400737974E+02  0.29256210234E+02  0.84682085189E+02  0.00000000000E+00 0.  1.
</event>
<event>
 7    1  0.2840156E-009  0.1331453E+03  0.7561462E-02  0.1222862E+00
         -2   -1    0    0    0  501 -0.00000000000E+00  0.00000000000E+00  0.33728951658E+03  0.33728951658E+03  0.00000000000E+00 0.  1.
          2   -1    0    0  501    0  0.00000000000E+00 -0.00000000000E+00 -0.59403362413E+02  0.59403362413E+02  0.00000000000E+00 0. -1.
         25    2    1    2    0    0  0.42351202539E+02 -0.69074231673E+02  0.93603493929E+02  0.17599658430E+03  0.12509320434E+03 0.  0.
          5    1    3    3  502    0 -0.21659653460E+02 -0.77244069391E+02  0.71833461197E+02  0.10776504717E+03  0.41800000000E+01 0.  1.
         -5    1    3    3    0  502  0.64010855999E+02  0.81698377179E+01  0.21770032732E+02  0.68231537130E+02  0.41800000000E+01 0.  1.
        -11    1    1    2    0    0 -0.58806269853E+02  0.96004288140E+01  0.85174789900E+02  0.10394753697E+03  0.00000000000E+00 0. -1.
         11    1    1    2    0    0  0.16455067315E+02  0.59473802859E+02  0.99107870336E+02  0.11674875772E+03  0.00000000000E+00 0.  1.
</event>
<event>
 7    1  0.2840156E-009  0.1255905E+03  0.7561462E-02  0.1234149E+00
         -4   -1    0    0    0  501 -0.00000000000E+00  0.00000000000E+00  0.72870408400E+02  0.72870408400E+02  0.00000000000E+00 0.  1.
          4   -1    0    0  501    0  0.00000000000E+00 -0.00000000000E+00 -0.24317721522E+03  0.24317721522E+03  0.00000000000E+00 0. -1.
         25    2    1    2    0    0  0.66505877894E+02 -0.16304962303E+02 -0.55085166012E+02  0.15287038988E+03  0.12508435953E+03 0.  0.
          5    1    3    3  502    0  0.12472821291E+02 -0.62983349878E+02 -0.49400172258E+02  0.81119190405E+02  0.41800000000E+01 0. -1.
         -5    1    3    3    0  502  0.54033056603E+02  0.46678387576E+02 -0.56849937550E+01  0.71751199478E+02  0.41800000000E+01 0. -1.
        -11    1    1    2    0    0 -0.46615015218E+02  0.54823176338E+02 -0.76861081163E+02  0.10529086430E+03  0.00000000000E+00 0.  1.
         11    1    1    2    0    0 -0.19890862676E+02 -0.38518214035E+02 -0.38360559646E+02  0.57886369439E+02  0.00000000000E+00 0. -1.
</event>
<event>
 7    1  0.2840156E-009  0.1668480E+03  0.7561462E-02  0.1181175E+00
         -2   -1    0    0    0  501 -0.00000000000E+00  0.00000000000E+00  0.96163887634E+03  0.96163887634E+03  0.00000000000E+00 0.  1.
          2   -1    0    0  501    0  0.00000000000E+00 -0.00000000000E+00 -0.31367505953E+02  0.31367505953E+02  0.00000000000E+00 0. -1.
         25    2    1    2    0    0  0.12819203409E+03 -0.33698483825E+02  0.57567891324E+03  0.60384059245E+03  0.12509382287E+03 0.  0.
          5    1    3    3  502    0  0.57085081767E+02  0.45224932036E+02  0.28959055266E+03  0.29863717389E+03  0.41800000000E+01 0. -1.
         -5    1    3    3    0  502  0.71106952321E+02 -0.78923415861E+02  0.28608836058E+03  0.30520341856E+03  0.41800000000E+01 0. -1.
        -11    1    1    2    0    0 -0.10856565976E+03 -0.74743321120E+01  0.19645233607E+03  0.22457935895E+03  0.00000000000E+00 0. -1.
         11    1    1    2    0    0 -0.19626374330E+02  0.41172815937E+02  0.15814012108E+03  0.16458643090E+03  0.00000000000E+00 0.  1.
</event>
<event>
 7    1  0.2840156E-009  0.1334271E+03  0.7561462E-02  0.1222457E+00
         -1   -1    0    0    0  501 -0.00000000000E+00  0.00000000000E+00  0.29091059797E+03  0.29091059797E+03  0.00000000000E+00 0.  1.
          1   -1    0    0  501    0  0.00000000000E+00 -0.00000000000E+00 -0.92644589428E+02  0.92644589428E+02  0.00000000000E+00 0. -1.
         25    2    1    2    0    0  0.11390005358E+03 -0.34769688834E+02  0.13753445315E+03  0.22078297484E+03  0.12508893920E+03 0.  0.
          5    1    3    3  502    0  0.95612724743E+02 -0.52846599287E+02  0.15481234099E+03  0.18952279417E+03  0.41800000000E+01 0.  1.
         -5    1    3    3    0  502  0.18287328833E+02  0.18076910453E+02 -0.17277887835E+02  0.31260180669E+02  0.41800000000E+01 0.  1.
        -11    1    1    2    0    0 -0.78008045205E+02  0.49817910329E+02  0.77185138717E+02  0.12051815193E+03  0.00000000000E+00 0.  1.
         11    1    1    2    0    0 -0.35892008371E+02 -0.15048221496E+02 -0.16453583326E+02  0.42254060626E+02  0.00000000000E+00 0. -1.
</event>
<event>
 7    1  0.2840156E-009  0.1171344E+03  0.7561462E-02  0.1247901E+00
          1   -1    0    0  501    0  0.00000000000E+00  0.00000000000E+00  0.74537742956E+02  0.74537742956E+02  0.00000000000E+00 0. -1.
         -1   -1    0    0    0  501 -0.00000000000E+00 -0.00000000000E+00 -0.26340521784E+03  0.26340521784E+03  0.00000000000E+00 0.  1.
         25    2    1    2    0    0 -0.37591670818E+02  0.45936742890E+02 -0.23534439907E+02  0.14045055467E+03  0.12509664417E+03 0.  0.
          5    1    3    3  502    0 -0.21657951599E+02  0.88411440432E+02 -0.49724912562E+01  0.91257042117E+02  0.41800000000E+01 0.  1.
         -5    1    3    3    0  502 -0.15933719220E+02 -0.42474697541E+02 -0.18561948650E+02  0.49193512551E+02  0.41800000000E+01 0.  1.
        -11    1    1    2    0    0  0.56360753755E+02 -0.53162967177E+02 -0.15819873252E+03  0.17615241870E+03  0.00000000000E+00 0.  1.
         11    1    1    2    0    0 -0.18769082937E+02  0.72262242870E+01 -0.71343024501E+01  0.21339987422E+02  0.00000000000E+00 0. -1.
</event>
<event>
 7    1  0.2840156E-009  0.9218590E+02  0.7561462E-02  0.1297643E+00
          2   -1    0    0  501    0  0.00000000000E+00  0.00000000000E+00  0.10705177497E+03  0.10705177497E+03  0.00000000000E+00 0. -1.
         -2   -1    0    0    0  501 -0.00000000000E+00 -0.00000000000E+00 -0.16003458722E+03  0.16003458722E+03  0.00000000000E+00 0.  1.
         25    2    1    2    0    0 -0.10451054091E+02  0.81546302303E+01 -0.10316442295E+03  0.16268783318E+03  0.12509480556E+03 0.  0.
          5    1    3    3  502    0  0.57057565560E+02  0.85832398373E+01 -0.41932647906E+02  0.71449682674E+02  0.41800000000E+01 0. -1.
         -5    1    3    3    0  502 -0.67508619651E+02 -0.42860960707E+00 -0.61231775043E+02  0.91238150509E+02  0.41800000000E+01 0. -1.
        -11    1    1    2    0    0 -0.23029484735E+02  0.37800968627E+01  0.62551637633E+02  0.66763415656E+02  0.00000000000E+00 0. -1.
         11    1    1    2    0    0  0.33480538826E+02 -0.11934727093E+02 -0.12370026925E+02  0.37635113352E+02  0.00000000000E+00 0.  1.
</event>
<event>
 7    1  0.2840156E-009  0.1090882E+03  0.7561462E-02  0.1262268E+00
          2   -1    0    0  501    0  0.00000000000E+00  0.00000000000E+00  0.14796831889E+04  0.14796831889E+04  0.00000000000E+00 0.  1.
         -2   -1    0    0    0  501 -0.00000000000E+00 -0.00000000000E+00 -0.96824813300E+01  0.96824813300E+01  0.00000000000E+00 0. -1.
         25    2    1    2    0    0  0.17353746509E+02 -0.25204019455E+01  0.11270795617E+04  0.11341355179E+04  0.12509008529E+03 0.  0.
          5    1    3    3  502    0  0.42635856440E+02  0.51173401567E+02  0.61593907619E+03  0.61954414795E+03  0.41800000000E+01 0.  1.
         -5    1    3    3    0  502 -0.25282109931E+02 -0.53693803512E+02  0.51114048554E+03  0.51459136990E+03  0.41800000000E+01 0.  1.
        -11    1    1    2    0    0  0.37225532823E+02  0.31635471216E+01  0.11758350268E+03  0.12337596373E+03  0.00000000000E+00 0. -1.
         11    1    1    2    0    0 -0.54579279332E+02 -0.64314517613E+00  0.22533764318E+03  0.23185418867E+03  0.00000000000E+00 0.  1.
</event>
<event>
 7    1  0.2840156E-009  0.1168927E+03  0.7561462E-02  0.1248313E+00
         -2   -1    0    0    0  501 -0.00000000000E+00  0.00000000000E+00  0.20206854963E+03  0.20206854963E+03  0.00000000000E+00 0. -1.
          2   -1    0    0  501    0  0.00000000000E+00 -0.00000000000E+00 -0.77589994053E+02  0.77589994053E+02  0.00000000000E+00 0.  1.
         25    2    1    2    0    0 -0.20780653311E+02  0.57864334475E+02  0.58743056173E+02  0.15125542386E+03  0.12508932745E+03 0.  0.
          5    1    3    3  502    0 -0.37343251639E+02  0.84137283276E+02  0.72285654616E+02  0.11711656221E+03  0.41800000000E+01 0.  1.
         -5    1    3    3    0  502  0.16562598328E+02 -0.26272948801E+02 -0.13542598443E+02  0.34138861649E+02  0.41800000000E+01 0.  1.
        -11    1    1    2    0    0 -0.28849192294E+02 -0.53114909363E+02  0.36002535526E+02  0.70353763630E+02  0.00000000000E+00 0.  1.
         11    1    1    2    0    0  0.49629845605E+02 -0.47494251119E+01  0.29732963875E+02  0.58049356194E+02  0.00000000000E+00 0. -1.
</event>
<event>
 7    1  0.2840156E-009  0.2513408E+03  0.7561462E-02  0.1112460E+00
          2   -1    0    0  501    0  0.00000000000E+00  0.00000000000E+00  0.82851391957E+03  0.82851391957E+03  0.00000000000E+00 0. -1.
         -2   -1    0    0    0  501 -0.00000000000E+00 -0.00000000000E+00 -0.99385971601E+02  0.99385971601E+02  0.00000000000E+00 0.  1.
         25    2    1    2    0    0 -0.20823843185E+03  0.13755178913E+03  0.51019156372E+03  0.58157271475E+03  0.12509057379E+03 0.  0.
          5    1    3    3  502    0 -0.10075636683E+02 -0.10150959226E+01 -0.53006816086E+01  0.12170394399E+02  0.41800000000E+01 0.  1.
         -5    1    3    3    0  502 -0.19816279517E+03  0.13856688505E+03  0.51549224533E+03  0.56940232035E+03  0.41800000000E+01 0.  1.
        -11    1    1    2    0    0  0.12455025986E+03 -0.74812196848E+02  0.18731365906E+03  0.23705703723E+03  0.00000000000E+00 0.  1.
         11    1    1    2    0    0  0.83688171992E+02 -0.62739592284E+02  0.31622725184E+02  0.10927013919E+03  0.00000000000E+00 0. -1.
</event>
<event>
 7    1  0.2840156E-009  0.1697346E+03  0.7561462E-02  0.1178125E+00
         -1   -1    0    0    0  501 -0.00000000000E+00  0.00000000000E+00  0.37096678251E+02  0.37096678251E+02  0.00000000000E+00 0.  1.
          1   -1    0    0  501    0  0.00000000000E+00 -0.00000000000E+00 -0.77997464694E+03  0.77997464694E+03  0.00000000000E+00 0. -1.
         25    2    1    2    0    0 -0.39945682431E+02  0.12464423072E+03 -0.37160605731E+03  0.41336986023E+03  0.12510690518E+03 0.  0.
          5    1    3    3  502    0 -0.85269783796E+02  0.75226979186E+02 -0.23991010412E+03  0.26552658037E+03  0.41800000000E+01 0.  1.
         -5    1    3    3    0  502  0.45324101365E+02  0.49417251531E+02 -0.13169595319E+03  0.14784327986E+03  0.41800000000E+01 0.  1.
        -11    1    1    2    0    0  0.57056676397E+01 -0.12412207754E+03 -0.28758425468E+03  0.31327870708E+03  0.00000000000E+00 0. -1.
         11    1    1    2    0    0  0.34240014791E+02 -0.52215318025E+00 -0.83687656705E+02  0.90422757875E+02  0.00000000000E+00 0.  1.
</event>
<event>
 7    1  0.4511706E-009  0.2160632E+03  0.7561462E-02  0.1136853E+00
         -1   -1    0    0    0  501 -0.00000000000E+00  0.00000000000E+00  0.59434998298E+02  0.59434998298E+02  0.00000000000E+00 0.  1.
          1   -1    0    0  501    0  0.00000000000E+00 -0.00000000000E+00 -0.82707848929E+03  0.82707848929E+03  0.00000000000E+00 0. -1.
         25    2    1    2    0    0  0.27379785968E+02 -0.19038925728E+03 -0.36551104894E+03  0.43156095125E+03  0.12509518688E+03 0.  0.
          5    1    3    3  502    0  0.75781071918E+02 -0.89308057240E+02 -0.19305439388E+03  0.22584545898E+03  0.41800000000E+01 0.  1.
         -5    1    3    3    0  502 -0.48401285950E+02 -0.10108120004E+03 -0.17245665506E+03  0.20571549227E+03  0.41800000000E+01 0.  1.
        -11    1    1    2    0    0  0.14931235754E+02  0.11789600400E+03 -0.16452834130E+03  0.20295808595E+03  0.00000000000E+00 0.  1.
         11    1    1    2    0    0 -0.42311021723E+02  0.72493253284E+02 -0.23760410075E+03  0.25199445039E+03  0.00000000000E+00 0. -1.
</event>
<event>
 7    1  0.2840156E-009  0.9878773E+02  0.7561462E-02  0.1282866E+00
         -1   -1    0    0    0  501 -0.00000000000E+00  0.00000000000E+00  0.52490016628E+02  0.52490016628E+02  0.00000000000E+00 0.  1.
          1   -1    0    0  501    0  0.00000000000E+00 -0.00000000000E+00 -0.29681893014E+03  0.29681893014E+03  0.00000000000E+00 0. -1.
         25    2    1    2    0    0  0.39602314590E+02  0.42116960247E+02 -0.12917621508E+03  0.18888080429E+03  0.12508909635E+03 0.  0.
          5    1    3    3  502    0  0.56873028853E+02 -0.19759702836E+02 -0.10301137526E+03  0.11938929223E+03  0.41800000000E+01 0. -1.
         -5    1    3    3    0  502 -0.17270714263E+02  0.61876663083E+02 -0.26164839828E+02  0.69491512062E+02  0.41800000000E+01 0. -1.
        -11    1    1    2    0    0 -0.15802490050E+02 -0.46082937438E+02 -0.65238574783E+01  0.49151973827E+02  0.00000000000E+00 0.  1.
         11    1    1    2    0    0 -0.23799824540E+02  0.39659771909E+01 -0.10862884095E+03  0.11127616865E+03  0.00000000000E+00 0. -1.
</event>
<event>
 7    1  0.2840156E-009  0.4095046E+03  0.7561462E-02  0.1040537E+00
         -2   -1    0    0    0  501 -0.00000000000E+00  0.00000000000E+00  0.11784236749E+03  0.11784236749E+03  0.00000000000E+00 0.  1.
          2   -1    0    0  501    0  0.00000000000E+00 -0.00000000000E+00 -0.15529345164E+04  0.15529345164E+04  0.00000000000E+00 0. -1.
         25    2    1    2    0    0 -0.29557791223E+03  0.27916417223E+03 -0.57770253995E+03  0.71741629058E+03  0.12508785739E+03 0.  0.
          5    1    3    3  502    0 -0.90613019732E+02  0.47009432380E+02 -0.23062822789E+03  0.25224483737E+03  0.41800000000E+01 0. -1.
         -5    1    3    3    0  502 -0.20496489250E+03  0.23215473985E+03 -0.34707431206E+03  0.46517145321E+03  0.41800000000E+01 0. -1.
        -11    1    1    2    0    0  0.15375988142E+03 -0.13058506929E+03 -0.52745856643E+03  0.56471860316E+03  0.00000000000E+00 0.  1.
         11    1    1    2    0    0  0.14181803081E+03 -0.14857910294E+03 -0.32993104255E+03  0.38864199018E+03  0.00000000000E+00 0. -1.
</event>
<event>
 7    1  0.2840156E-009  0.1863200E+03  0.7561462E-02  0.1161823E+00
          2   -1    0    0  501    0  0.00000000000E+00  0.00000000000E+00  0.15148300396E+03  0.15148300396E+03  0.00000000000E+00 0. -1.
         -2   -1    0    0    0  501 -0.00000000000E+00 -0.00000000000E+00 -0.32822075765E+03  0.32822075765E+03  0.00000000000E+00 0.  1.
         25    2    1    2    0    0 -0.13898086770E+03 -0.80461758960E+02  0.26628203102E+02  0.20529309030E+03  0.12508563260E+03 0.  0.
          5    1    3    3  502    0 -0.14437924227E+03 -0.24168014739E+02  0.24979932099E+02  0.14856287539E+03  0.41800000000E+01 0.  1.
         -5    1    3    3    0  502  0.53983745747E+01 -0.56293744221E+02  0.16482710034E+01  0.56730214910E+02  0.41800000000E+01 0.  1.
        -11    1    1    2    0    0  0.96743237127E+02  0.82579656510E+02 -0.19253321511E+03  0.23075461538E+03  0.00000000000E+00 0.  1.
         11    1    1    2    0    0  0.42237630574E+02 -0.21178975498E+01 -0.10832741682E+02  0.43656055924E+02  0.00000000000E+00 0. -1.
</event>
<event>
 7    1  0.2840156E-009  0.1259933E+03  0.7561462E-02  0.1233525E+00
          1   -1    0    0  501    0  0.00000000000E+00  0.00000000000E+00  0.70899433860E+02  0.70899433860E+02  0.00000000000E+00 0. -1.
         -1   -1    0    0    0  501 -0.00000000000E+00 -0.00000000000E+00 -0.41723395419E+03  0.41723395419E+03  0.00000000000E+00 0.  1.
         25    2    1    2    0    0  0.56554217323E+02 -0.57321306341E+02 -0.33486984117E+03  0.36642782435E+03  0.12508968094E+03 0.  0.
          5    1    3    3  502    0  0.80772847112E+02 -0.14600780140E+02 -0.11655103258E+03  0.14261504551E+03  0.41800000000E+01 0. -1.
         -5    1    3    3    0  502 -0.24218629789E+02 -0.42720526201E+02 -0.21831880859E+03  0.22381277884E+03  0.41800000000E+01 0. -1.
        -11    1    1    2    0    0 -0.31424281336E+02 -0.21306734891E+02 -0.94947171655E+01  0.39135815607E+02  0.00000000000E+00 0.  1.
         11    1    1    2    0    0 -0.25129935987E+02  0.78628041232E+02 -0.19699620031E+01  0.82569748098E+02  0.00000000000E+00 0. -1.
</event>
<event>
 7    1  0.2840156E-009  0.8916434E+02  0.7561462E-02  0.1304888E+00
          1   -1    0    0  501    0  0.00000000000E+00  0.00000000000E+00  0.30825832552E+03  0.30825832552E+03  0.00000000000E+00 0. -1.
         -1   -1    0    0    0  501 -0.00000000000E+00 -0.00000000000E+00 -0.45875860004E+02  0.45875860004E+02  0.00000000000E+00 0.  1.
         25    2    1    2    0    0 -0.40897972473E+02  0.26652231452E+02  0.13049297006E+03  0.18723838005E+03  0.12508721012E+03 0.  0.
          5    1    3    3  502    0 -0.44479821442E+02  0.48337965514E+02  0.12318234095E+02  0.66964354076E+02  0.41800000000E+01 0. -1.
         -5    1    3    3    0  502  0.35818489690E+01 -0.21685734062E+02  0.11817473597E+03  0.12027402598E+03  0.41800000000E+01 0. -1.
        -11    1    1    2    0    0 -0.16346536617E+02  0.12672263619E+02  0.35722357758E+01  0.20989435271E+02  0.00000000000E+00 0.  1.
         11    1    1    2    0    0  0.57244509090E+02 -0.39324495070E+02  0.12831725967E+03  0.14590637020E+03  0.00000000000E+00 0. -1.
</event>
<event>
 7    1  0.2840156E-009  0.7479657E+02  0.7561462E-02  0.1344502E+00
         -2   -1    0    0    0  501 -0.00000000000E+00  0.00000000000E+00  0.15555724575E+02  0.15555724575E+02  0.00000000000E+00 0.  1.
          2   -1    0    0  501    0  0.00000000000E+00 -0.00000000000E+00 -0.81947648357E+03  0.81947648357E+03  0.00000000000E+00 0. -1.
         25    2    1    2    0    0  0.24457236988E+02  0.19422477389E+02 -0.45789736883E+03  0.47570264209E+03  0.12509042425E+03 0.  0.
          5    1    3    3  502    0  0.16145009631E+02 -0.12003059843E+02 -0.43555097120E+03  0.43603538354E+03  0.41800000000E+01 0. -1.
         -5    1    3    3    0  502  0.83122273572E+01  0.31425537232E+02 -0.22346397627E+02  0.39667258550E+02  0.41800000000E+01 0. -1.
        -11    1    1    2    0    0 -0.49039000302E+02 -0.40724456964E+02 -0.20939285797E+03  0.21888050145E+03  0.00000000000E+00 0. -1.
         11    1    1    2    0    0  0.24581763314E+02  0.21301979575E+02 -0.13663053219E+03  0.14044906461E+03  0.00000000000E+00 0.  1.
</event>
<event>
 7    1  0.2840156E-009  0.1462612E+03  0.7561462E-02  0.1205144E+00
          2   -1    0    0  501    0  0.00000000000E+00  0.00000000000E+00  0.12438691614E+04  0.12438691614E+04  0.00000000000E+00 0. -1.
         -2   -1    0    0    0  501 -0.00000000000E+00 -0.00000000000E+00 -0.22734084747E+02  0.22734084747E+02  0.00000000000E+00 0.  1.
         25    2    1    2    0    0 -0.11773897401E+03  0.48340487717E+02  0.64732364831E+03  0.67147212752E+03  0.12509054173E+03 0.  0.
          5    1    3    3  502    0 -0.12843007325E+03  0.53262982041E+02  0.64356915621E+03  0.65842992049E+03  0.41800000000E+01 0.  1.
         -5    1    3    3    0  502  0.10691099240E+02 -0.49224943245E+01  0.37544920934E+01  0.13042207030E+02  0.41800000000E+01 0.  1.
        -11    1    1    2    0    0  0.11142502223E+03 -0.21654279366E+02  0.53896472225E+03  0.55078799481E+03  0.00000000000E+00 0. -1.
         11    1    1    2    0    0  0.63139517794E+01 -0.26686208350E+02  0.34846706050E+02  0.44343123771E+02  0.00000000000E+00 0.  1.
</event>
<event>
 7    1  0.2840156E-009  0.1244373E+03  0.7561462E-02  0.1235951E+00
         -1   -1    0    0    0  501 -0.00000000000E+00  0.00000000000E+00  0.31415982519E+02  0.31415982519E+02  0.00000000000E+00 0.  1.
          1   -1    0    0  501    0  0.00000000000E+00 -0.00000000000E+00 -0.72926116274E+03  0.72926116274E+03  0.00000000000E+00 0. -1.
         25    2    1    2    0    0  0.80516544871E+02  0.59378308352E+02 -0.44292558147E+03  0.47099887104E+03  0.12509263888E+03 0.  0.
          5    1    3    3  502    0  0.84105674308E+02  0.64144950232E+02 -0.18633426973E+03  0.21430415667E+03  0.41800000000E+01 0.  1.
         -5    1    3    3    0  502 -0.35891294373E+01 -0.47666418803E+01 -0.25659131174E+03  0.25669471437E+03  0.41800000000E+01 0.  1.
        -11    1    1    2    0    0  0.18386583350E+02  0.32436514118E+01 -0.54095857895E+02  0.57227175041E+02  0.00000000000E+00 0. -1.
         11    1    1    2    0    0 -0.98903128221E+02 -0.62621959764E+02 -0.20082374085E+03  0.23245109917E+03  0.00000000000E+00 0.  1.
</event>
<event>
 7    1  0.2840156E-009  0.4835655E+03  0.7561462E-02  0.1018160E+00
          1   -1    0    0  501    0  0.00000000000E+00  0.00000000000E+00  0.12425529534E+04  0.12425529534E+04  0.00000000000E+00 0. -1.
         -1   -1    0    0    0  501 -0.00000000000E+00 -0.00000000000E+00 -0.28627444089E+03  0.28627444089E+03  0.00000000000E+00 0.  1.
         25    2    1    2    0    0 -0.20804321871E+03  0.43570894389E+03  0.54327224820E+02  0.50172018166E+03  0.12508968257E+03 0.  0.
          5    1    3    3  502    0 -0.13108435201E+03  0.24861994042E+03 -0.29634597722E+02  0.28264936564E+03  0.41800000000E+01 0. -1.
         -5    1    3    3    0  502 -0.76958866700E+02  0.18708900347E+03  0.83961822542E+02  0.21907081601E+03  0.41800000000E+01 0. -1.
        -11    1    1    2    0    0  0.64899585568E+02 -0.10653541098E+03  0.31878503909E+03  0.34232389801E+03  0.00000000000E+00 0.  1.
         11    1    1    2    0    0  0.14314363314E+03 -0.32917353291E+03  0.58316624860E+03  0.68478331462E+03  0.00000000000E+00 0. -1.
</event>
<event>
 7    1  0.3970286E-009  0.2259896E+03  0.7561462E-02  0.1129495E+00
         -1   -1    0    0    0  501 -0.00000000000E+00  0.00000000000E+00  0.56088046076E+02  0.56088046076E+02  0.00000000000E+00 0.  1.
          1   -1    0    0  501    0  0.00000000000E+00 -0.00000000000E+00 -0.11627256997E+04  0.11627256997E+04  0.00000000000E+00 0. -1.
         25    2    1    2    0    0 -0.10713934012E+03  0.19663471347E+03 -0.43519393879E+03  0.50515919526E+03  0.12509196399E+03 0.  0.
          5    1    3    3  502    0 -0.99451440988E+02  0.18983178659E+03 -0.29564830223E+03  0.36517405073E+03  0.41800000000E+01 0. -1.
         -5    1    3    3    0  502 -0.76878991282E+01  0.68029268855E+01 -0.13954563656E+03  0.13998514453E+03  0.41800000000E+01 0. -1.
        -11    1    1    2    0    0  0.95569617902E+01 -0.46616531424E+02 -0.60119157250E+02  0.76673004305E+02  0.00000000000E+00 0.  1.
         11    1    1    2    0    0  0.97582378326E+02 -0.15001818205E+03 -0.61132455754E+03  0.63698154616E+03  0.00000000000E+00 0. -1.
</event>
<event>
 7    1  0.2840156E-009  0.1427281E+03  0.7561462E-02  0.1209705E+00
          1   -1    0    0  501    0  0.00000000000E+00  0.00000000000E+00  0.54021312916E+03  0.54021312916E+03  0.00000000000E+00 0. -1.
         -1   -1    0    0    0  501 -0.00000000000E+00 -0.00000000000E+00 -0.41218385320E+02  0.41218385320E+02  0.00000000000E+00 0.  1.
         25    2    1    2    0    0  0.40383675528E+02 -0.89056582778E+02  0.21414936899E+03  0.26658846584E+03  0.12509013428E+03 0.  0.
          5    1    3    3  502    0 -0.39710906105E+02 -0.46941922239E+02  0.12563017424E+03  0.13993181628E+03  0.41800000000E+01 0.  1.
         -5    1    3    3    0  502  0.80094581632E+02 -0.42114660538E+02  0.88519194748E+02  0.12665664956E+03  0.41800000000E+01 0.  1.
        -11    1    1    2    0    0 -0.69425109729E+02  0.55660470947E+02  0.17259113065E+03  0.19417938167E+03  0.00000000000E+00 0.  1.
         11    1    1    2    0    0  0.29041434201E+02  0.33396111831E+02  0.11225424420E+03  0.12066366697E+03  0.00000000000E+00 0. -1.
</event>
<event>
 7    1  0.2855689E-009  0.1697664E+03  0.7561462E-02  0.1178092E+00
          2   -1    0    0  501    0  0.00000000000E+00  0.00000000000E+00  0.33930771935E+03  0.33930771935E+03  0.00000000000E+00 0. -1.
         -2   -1    0    0    0  501 -0.00000000000E+00 -0.00000000000E+00 -0.10515670208E+03  0.10515670208E+03  0.00000000000E+00 0.  1.
         25    2    1    2    0    0 -0.41759824963E+02 -0.14050156895E+03  0.66622263761E+02  0.20388947005E+03  0.12509123115E+03 0.  0.
          5    1    3    3  502    0 -0.34604367448E+02  0.14199148470E+02  0.99894687330E+01  0.38940209929E+02  0.41800000000E+01 0. -1.
         -5    1    3    3    0  502 -0.71554575143E+01 -0.15470071742E+03  0.56632795028E+02  0.16494926012E+03  0.41800000000E+01 0. -1.
        -11    1    1    2    0    0  0.29806129128E+02  0.11514665548E+03  0.67644303938E+02  0.13683168294E+03  0.00000000000E+00 0.  1.
         11    1    1    2    0    0  0.11953695835E+02  0.25354913477E+02  0.99884449567E+02  0.10374326844E+03  0.00000000000E+00 0. -1.
</event>
<event>
 7    1  0.2840156E-009  0.1956047E+03  0.7561462E-02  0.1153501E+00
         -2   -1    0    0    0  501 -0.00000000000E+00  0.00000000000E+00  0.24166169620E+02  0.24166169620E+02  0.00000000000E+00 0.  1.
          2   -1    0    0  501    0  0.00000000000E+00 -0.00000000000E+00 -0.17378771038E+04  0.17378771038E+04  0.00000000000E+00 0. -1.
         25    2    1    2    0    0 -0.13758678275E+03  0.93792453160E+02 -0.68521976284E+03  0.71617226668E+03  0.12509774223E+03 0.  0.
          5    1    3    3  502    0 -0.44125666635E+02  0.10015146805E+03 -0.29029325047E+03  0.31026607078E+03  0.41800000000E+01 0.  1.
         -5    1    3    3    0  502 -0.93461116112E+02 -0.63590148852E+01 -0.39492651237E+03  0.40590619590E+03  0.41800000000E+01 0.  1.
        -11    1    1    2    0    0 -0.91471538416E+01 -0.23497323710E+02 -0.94080795282E+02  0.97401184212E+02  0.00000000000E+00 0.  1.
         11    1    1    2    0    0  0.14673393659E+03 -0.70295129450E+02 -0.93441037608E+03  0.94846982255E+03  0.00000000000E+00 0. -1.
</event>
<event>
 7    1  0.2840156E-009  0.1061509E+03  0.7561462E-02  0.1267868E+00
          1   -1    0    0  501    0  0.00000000000E+00  0.00000000000E+00  0.14073397345E+03  0.14073397345E+03  0.00000000000E+00 0. -1.
         -1   -1    0    0    0  501 -0.00000000000E+00 -0.00000000000E+00 -0.11014813091E+03  0.11014813091E+03  0.00000000000E+00 0.  1.
         25    2    1    2    0    0 -0.39815674405E+02 -0.47234134122E+00 -0.29609947009E+02  0.13457410474E+03  0.12509168506E+03 0.  0.
          5    1    3    3  502    0 -0.27515954679E+02 -0.60847365144E+02 -0.20366865824E+01  0.66941393017E+02  0.41800000000E+01 0. -1.
         -5    1    3    3    0  502 -0.12299719726E+02  0.60375023803E+02 -0.27573260427E+02  0.67632711723E+02  0.41800000000E+01 0. -1.
        -11    1    1    2    0    0  0.58314347816E+02  0.14885093793E+02  0.10141393551E+02  0.61032589995E+02  0.00000000000E+00 0.  1.
         11    1    1    2    0    0 -0.18498673410E+02 -0.14412752451E+02  0.50054395998E+02  0.55275409631E+02  0.00000000000E+00 0. -1.
</event>
<event>
 7    1  0.2840156E-009  0.8932712E+02  0.7561462E-02  0.1304489E+00
         -2   -1    0    0    0  501 -0.00000000000E+00  0.00000000000E+00  0.89218835845E+02  0.89218835845E+02  0.00000000000E+00 0. -1.
          2   -1    0    0  501    0  0.00000000000E+00 -0.00000000000E+00 -0.16266225070E+03  0.16266225070E+03  0.00000000000E+00 0.  1.
         25    2    1    2    0    0  0.32870263949E+02 -0.35554315543E+01  0.22971462898E+01  0.12939897683E+03  0.12508286444E+03 0.  0.
          5    1    3    3  502    0 -0.14516884292E+02  0.24119555452E+02 -0.47372453039E+02  0.55264044294E+02  0.41800000000E+01 0. -1.
         -5    1    3    3    0  502  0.47387148241E+02 -0.27674987007E+02  0.49669599329E+02  0.74134932533E+02  0.41800000000E+01 0. -1.
        -11    1    1    2    0    0 -0.36722623884E+02 -0.38338218939E+02 -0.51316054895E+02  0.73835679900E+02  0.00000000000E+00 0.  1.
         11    1    1    2    0    0  0.38523599347E+01  0.41893650493E+02 -0.24424506254E+02  0.48646429823E+02  0.00000000000E+00 0. -1.
</event>
<event>
 7    1  0.2840156E-009  0.7352747E+02  0.7561462E-02  0.1348493E+00
         -4   -1    0    0    0  501 -0.00000000000E+00  0.00000000000E+00  0.96119481819E+02  0.96119481819E+02  0.00000000000E+00 0.  1.
          4   -1    0    0  501    0  0.00000000000E+00 -0.00000000000E+00 -0.16124023555E+03  0.16124023555E+03  0.00000000000E+00 0. -1.
         25    2    1    2    0    0 -0.26778803551E+02 -0.50723254482E+02 -0.53980628595E+02  0.14782666058E+03  0.12509540539E+03 0.  0.
          5    1    3    3  502    0  0.18363945700E+02 -0.34701966949E+02  0.30991198818E+02  0.50193503723E+02  0.41800000000E+01 0. -1.
         -5    1    3    3    0  502 -0.45142749251E+02 -0.16021287533E+02 -0.84971827413E+02  0.97633156858E+02  0.41800000000E+01 0. -1.
        -11    1    1    2    0    0  0.22356694801E+02  0.25640254888E+02  0.39934770666E+02  0.52459797762E+02  0.00000000000E+00 0.  1.
         11    1    1    2    0    0  0.44221087501E+01  0.25082999595E+02 -0.51074895800E+02  0.57073259023E+02  0.00000000000E+00 0. -1.
</event>
<event>
 7    1  0.2840156E-009  0.1092739E+03  0.7561462E-02  0.1261920E+00
          1   -1    0    0  501    0  0.00000000000E+00  0.00000000000E+00  0.17761005771E+04  0.17761005771E+04  0.00000000000E+00 0. -1.
         -1   -1    0    0    0  501 -0.00000000000E+00 -0.00000000000E+00 -0.11541575517E+02  0.11541575517E+02  0.00000000000E+00 0.  1.
         25    2    1    2    0    0  0.62661607078E+02 -0.57568789886E+02  0.12129890671E+04  0.12223871888E+04  0.12508924750E+03 0.  0.
          5    1    3    3  502    0  0.36828151685E+01 -0.39920245498E+02  0.99546406667E+03  0.99627976471E+03  0.41800000000E+01 0.  1.
         -5    1    3    3    0  502  0.58978791910E+02 -0.17648544388E+02  0.21752500042E+03  0.22610742408E+03  0.41800000000E+01 0.  1.
        -11    1    1    2    0    0 -0.54632378604E+02  0.77630601470E+02  0.50592231784E+03  0.51475100657E+03  0.00000000000E+00 0. -1.
         11    1    1    2    0    0 -0.80292284738E+01 -0.20061811584E+02  0.45647616677E+02  0.50503957293E+02  0.00000000000E+00 0.  1.
</event>
<event>
 7    1  0.2840156E-009  0.1418703E+03  0.7561462E-02  0.1210834E+00
          4   -1    0    0  501    0  0.00000000000E+00  0.00000000000E+00  0.72303368504E+02  0.72303368504E+02  0.00000000000E+00 0. -1.
         -4   -1    0    0    0  501 -0.00000000000E+00 -0.00000000000E+00 -0.33711751188E+03  0.33711751188E+03  0.00000000000E+00 0.  1.
         25    2    1    2    0    0 -0.84407721573E+02  0.26376513307E+02 -0.22189195223E+03  0.26963888072E+03  0.12509477853E+03 0.  0.
          5    1    3    3  502    0 -0.91910299917E+02  0.64178363550E+02 -0.14310902086E+03  0.18183517215E+03  0.41800000000E+01 0.  1.
         -5    1    3    3    0  502  0.75025783436E+01 -0.37801850243E+02 -0.78782931362E+02  0.87803708564E+02  0.41800000000E+01 0.  1.
        -11    1    1    2    0    0  0.10478747103E+03 -0.75601862019E+01 -0.30561748775E+02  0.10941476586E+03  0.00000000000E+00 0. -1.
         11    1    1    2    0    0 -0.20379749453E+02 -0.18816327105E+02 -0.12360442372E+02  0.30367233808E+02  0.00000000000E+00 0.  1.
</event>
<event>
 7    1  0.2840156E-009  0.1239066E+03  0.7561462E-02  0.1236788E+00
          4   -1    0    0  501    0  0.00000000000E+00  0.00000000000E+00  0.16195414426E+02  0.16195414426E+02  0.00000000000E+00 0. -1.
         -4   -1    0    0    0  501 -0.00000000000E+00 -0.00000000000E+00 -0.13376115058E+04  0.13376115058E+04  0.00000000000E+00 0.  1.
         25    2    1    2    0    0  0.79065871415E+02 -0.21629944710E+01 -0.99412579435E+03  0.10050818229E+04  0.12508910859E+03 0.  0.
          5    1    3    3  502    0 -0.33898565281E+01 -0.38319449612E+02 -0.57863278538E+03  0.57992520558E+03  0.41800000000E+01 0. -1.
         -5    1    3    3    0  502  0.82455727943E+02  0.36156455141E+02 -0.41549300897E+03  0.42515661729E+03  0.41800000000E+01 0. -1.
        -11    1    1    2    0    0 -0.57155219664E+02  0.43751708404E+02 -0.22304106717E+03  0.23436776393E+03  0.00000000000E+00 0. -1.
         11    1    1    2    0    0 -0.21910651751E+02 -0.41588713933E+02 -0.10424922989E+03  0.11435733348E+03  0.00000000000E+00 0.  1.
</event>
<event>
 7    1  0.2893078E-009  0.1141884E+03  0.7561462E-02  0.1253005E+00
          1   -1    0    0  501    0  0.00000000000E+00  0.00000000000E+00  0.19663066846E+03  0.19663066846E+03  0.00000000000E+00 0. -1.
         -1   -1    0    0    0  501 -0.00000000000E+00 -0.00000000000E+00 -0.10024515484E+03  0.10024515484E+03  0.00000000000E+00 0.  1.
         25    2    1    2    0    0 -0.49986480756E+01  0.75378305325E+02  0.10242815296E+03  0.17846081387E+03  0.12509940117E+03 0.  0.
          5    1    3    3  502    0  0.52392557958E+02  0.69055096571E+02  0.48870035823E+02  0.99595879900E+02  0.41800000000E+01 0.  1.
         -5    1    3    3    0  502 -0.57391206033E+02  0.63232087542E+01  0.53558117134E+02  0.78864933968E+02  0.41800000000E+01 0.  1.
        -11    1    1    2    0    0 -0.93443585726E+01 -0.65795614530E+02 -0.41943415725E+02  0.78585177045E+02  0.00000000000E+00 0.  1.
         11    1    1    2    0    0  0.14343006648E+02 -0.95826907954E+01  0.35900776384E+02  0.39829832382E+02  0.00000000000E+00 0. -1.
</event>
<event>
 7    1  0.2840156E-009  0.8509714E+02  0.7561462E-02  0.1315179E+00
          1   -1    0    0  501    0  0.00000000000E+00  0.00000000000E+00  0.17298281784E+03  0.17298281784E+03  0.00000000000E+00 0. -1.
         -1   -1    0    0    0  501 -0.00000000000E+00 -0.00000000000E+00 -0.10012665729E+03  0.10012665729E+03  0.00000000000E+00 0.  1.
         25    2    1    2    0    0  0.57492786878E+02 -0.46627219270E+02  0.28586393627E+02  0.14813306568E+03  0.12508679038E+03 0.  0.
          5    1    3    3  502    0  0.59352423775E+02 -0.57485145183E+02  0.67939652761E+02  0.10705382264E+03  0.41800000000E+01 0.  1.
         -5    1    3    3    0  502 -0.18596368972E+01  0.10857925912E+02 -0.39353259134E+02  0.41079243043E+02  0.41800000000E+01 0.  1.
        -11    1    1    2    0    0 -0.42941211045E+02  0.25236340849E+02 -0.21538547068E+02  0.54265362021E+02  0.00000000000E+00 0.  1.
         11    1    1    2    0    0 -0.14551575833E+02  0.21390878421E+02  0.65808313986E+02  0.70711047429E+02  0.00000000000E+00 0. -1.
</event>
<event>
 7    1  0.2840156E-009  0.1687408E+03  0.7561462E-02  0.1179167E+00
          2   -1    0    0  501    0  0.00000000000E+00  0.00000000000E+00  0.72632646423E+03  0.72632646423E+03  0.00000000000E+00 0. -1.
         -2   -1    0    0    0  501 -0.00000000000E+00 -0.00000000000E+00 -0.68111681556E+02  0.68111681556E+02  0.00000000000E+00 0.  1.
         25    2    1    2    0    0 -0.10924432437E+02  0.14990338017E+03  0.12235854735E+03  0.23067211350E+03  0.12509054011E+03 0.  0.
          5    1    3    3  502    0  0.31660344226E+02  0.14246690524E+02  0.71527049951E+02  0.79617440690E+02  0.41800000000E+01 0. -1.
         -5    1    3    3    0  502 -0.42584776664E+02  0.13565668965E+03  0.50831497403E+02  0.15105467281E+03  0.41800000000E+01 0. -1.
        -11    1    1    2    0    0 -0.18089431819E+02 -0.10672261461E+03  0.45439783516E+03  0.46711276648E+03  0.00000000000E+00 0.  1.
         11    1    1    2    0    0  0.29013864257E+02 -0.43180765564E+02  0.81458400164E+02  0.96653265807E+02  0.00000000000E+00 0. -1.
</event>
<event>
 7    1  0.2840156E-009  0.1196849E+03  0.7561462E-02  0.1243618E+00
          1   -1    0    0  501    0  0.00000000000E+00  0.00000000000E+00  0.19646361339E+03  0.19646361339E+03  0.00000000000E+00 0. -1.
         -1   -1    0    0    0  501 -0.00000000000E+00 -0.00000000000E+00 -0.82035127645E+02  0.82035127645E+02  0.00000000000E+00 0.  1.
         25    2    1    2    0    0  0.44145819087E+02  0.48007714858E+02  0.58422175715E+02  0.15268385821E+03  0.12508243647E+03 0.  0.
          5    1    3    3  502    0 -0.36347283303E+02  0.12644642813E+02 -0.11378844203E+02  0.40348017185E+02  0.41800000000E+01 0.  1.
         -5    1    3    3    0  502  0.80493102390E+02  0.35363072045E+02  0.69801019918E+02  0.11233584102E+03  0.41800000000E+01 0.  1.
        -11    1    1    2    0    0 -0.68093602379E+02 -0.55178114337E+02  0.42581801495E+02  0.97440098549E+02  0.00000000000E+00 0. -1.
         11    1    1    2    0    0  0.23947783292E+02  0.71703994791E+01  0.13424508532E+02  0.28374784274E+02  0.00000000000E+00 0.  1.
</event>
<event>
 7    1  0.4329451E-009  0.1571565E+03  0.7561462E-02  0.1191945E+00
         -2   -1    0    0    0  501 -0.00000000000E+00  0.00000000000E+00  0.66100774869E+02  0.66100774869E+02  0.00000000000E+00 0.  1.
          2   -1    0    0  501    0  0.00000000000E+00 -0.00000000000E+00 -0.50405593311E+03  0.50405593311E+03  0.00000000000E+00 0. -1.
         25    2    1    2    0    0 -0.12618940211E+03  0.73988391277E+02 -0.21966693346E+03  0.29206112712E+03  0.12509233818E+03 0.  0.
          5    1    3    3  502    0 -0.88549616561E+02  0.53334009800E+02 -0.46184943005E+02  0.11329639251E+03  0.41800000000E+01 0. -1.
         -5    1    3    3    0  502 -0.37639785552E+02  0.20654381478E+02 -0.17348199045E+03  0.17876473461E+03  0.41800000000E+01 0. -1.
        -11    1    1    2    0    0  0.51282721869E+02 -0.77272890499E+02 -0.88420098479E+02  0.12813715692E+03  0.00000000000E+00 0.  1.
         11    1    1    2    0    0  0.74906680244E+02  0.32844992216E+01 -0.12986812630E+03  0.14995842394E+03  0.00000000000E+00 0. -1.
</event>
<event>
 7    1  0.2840156E-009  0.2285655E+03  0.7561462E-02  0.1127654E+00
          1   -1    0    0  501    0  0.00000000000E+00  0.00000000000E+00  0.34381840232E+03  0.34381840232E+03  0.00000000000E+00 0. -1.
         -1   -1    0    0    0  501 -0.00000000000E+00 -0.00000000000E+00 -0.17164684813E+03  0.17164684813E+03  0.00000000000E+00 0.  1.
         25    2    1    2    0    0 -0.34954708355E+02 -0.20344567642E+03  0.17615133779E+02  0.24201232874E+03  0.12509076478E+03 0.  0.
          5    1    3    3  502    0 -0.34218968067E+02  0.32423280941E+01  0.16349424088E+01  0.34664043384E+02  0.41800000000E+01 0.  1.
         -5    1    3    3    0  502 -0.73574028803E+00 -0.20668800452E+03  0.15980191371E+02  0.20734828536E+03  0.41800000000E+01 0.  1.
        -11    1    1    2    0    0 -0.16829466548E+02  0.82657076343E+02  0.10086228518E+03  0.13148621139E+03  0.00000000000E+00 0. -1.
         11    1    1    2    0    0  0.51784174904E+02  0.12078860008E+03  0.53694135225E+02  0.14196671031E+03  0.00000000000E+00 0.  1.
</event>
<event>
 7    1  0.2840156E-009  0.1056542E+03  0.7561462E-02  0.1268836E+00
          1   -1    0    0  501    0  0.00000000000E+00  0.00000000000E+00  0.90741293601E+02  0.90741293601E+02  0.00000000000E+00 0. -1.
         -1   -1    0    0    0  501 -0.00000000000E+00 -0.00000000000E+00 -0.17737522895E+03  0.17737522895E+03  0.00000000000E+00 0.  1.
         25    2    1    2    0    0  0.66095315080E+02 -0.96321708798E-01 -0.49997306901E+02  0.15005187168E+03  0.12508890257E+03 0.  0.
          5    1    3    3  502    0  0.96937672757E+02 -0.22029389214E+02 -0.19783941641E+02  0.10144497590E+03  0.41800000000E+01 0.  1.
         -5    1    3    3    0  502 -0.30842357677E+02  0.21933067505E+02 -0.30213365261E+02  0.48606895783E+02  0.41800000000E+01 0.  1.
        -11    1    1    2    0    0 -0.27764630302E+02 -0.16131805935E+02  0.27047348705E+02  0.41984150944E+02  0.00000000000E+00 0. -1.
         11    1    1    2    0    0 -0.38330684778E+02  0.16228127644E+02 -0.63683977150E+02  0.76080499920E+02  0.00000000000E+00 0.  1.
</event>
<event>
 7    1  0.2951702E-009  0.1192654E+03  0.7561462E-02  0.1244314E+00
         -1   -1    0    0    0  501 -0.00000000000E+00  0.00000000000E+00  0.13607298989E+02  0.13607298989E+02  0.00000000000E+00 0.  1.
          1   -1    0    0  501    0  0.00000000000E+00 -0.00000000000E+00 -0.13538693834E+04  0.13538693834E+04  0.00000000000E+00 0. -1.
         25    2    1    2    0    0 -0.59135677150E+02  0.29755527249E+02 -0.97514403300E+03  0.98536271162E+03  0.12510543014E+03 0.  0.
          5    1    3    3  502    0 -0.13729771797E+02 -0.48556078016E+02 -0.38027661273E+03  0.38363260280E+03  0.41800000000E+01 0.  1.
         -5    1    3    3    0  502 -0.45405905352E+02  0.78311605265E+02 -0.59486742027E+03  0.60173010882E+03  0.41800000000E+01 0.  1.
        -11    1    1    2    0    0 -0.16687496871E+02 -0.36034150970E+01 -0.14377980366E+02  0.22320024005E+02  0.00000000000E+00 0.  1.
         11    1    1    2    0    0  0.75823174021E+02 -0.26152112152E+02 -0.35074007102E+03  0.35979394674E+03  0.00000000000E+00 0. -1.
</event>
<event>
 7    1  0.3158658E-009  0.1864966E+03  0.7561462E-02  0.1161660E+00
          2   -1    0    0  501    0  0.00000000000E+00  0.00000000000E+00  0.82216091733E+03  0.82216091733E+03  0.00000000000E+00 0. -1.
         -2   -1    0    0    0  501 -0.00000000000E+00 -0.00000000000E+00 -0.46847615792E+02  0.46847615792E+02  0.00000000000E+00 0.  1.
         25    2    1    2    0    0  0.74206515594E+01  0.15427862237E+03  0.28974029991E+03  0.35136108936E+03  0.12509282288E+03 0.  0.
          5    1    3    3  502    0 -0.48634056936E+02  0.29962828493E+02  0.12473542111E+03  0.13725684051E+03  0.41800000000E+01 0.  1.
         -5    1    3    3    0  502  0.56054708496E+02  0.12431579388E+03  0.16500487880E+03  0.21410424886E+03  0.41800000000E+01 0.  1.
        -11    1    1    2    0    0  0.35712630219E+02 -0.26639286186E+02  0.11343311190E+03  0.12186925126E+03  0.00000000000E+00 0.  1.
         11    1    1    2    0    0 -0.43133281779E+02 -0.12763933618E+03  0.37213988973E+03  0.39577819251E+03  0.00000000000E+00 0. -1.
</event>
<event>
 7    1  0.2840156E-009  0.1268539E+03  0.7561462E-02  0.1232200E+00
         -2   -1    0    0    0  501 -0.00000000000E+00  0.00000000000E+00  0.25889291384E+02  0.25889291384E+02  0.00000000000E+00 0.  1.
          2   -1    0    0  501    0  0.00000000000E+00 -0.00000000000E+00 -0.95006534597E+03  0.95006534597E+03  0.00000000000E+00 0. -1.
         25    2    1    2    0    0 -0.21967739606E+01 -0.98070693512E+02 -0.32330781012E+03  0.36027366631E+03  0.12508592172E+03 0.  0.
          5    1    3    3  502    0 -0.26429552640E+02 -0.82186215282E+01 -0.21752826665E+03  0.21932187804E+03  0.41800000000E+01 0. -1.
         -5    1    3    3    0  502  0.24232778679E+02 -0.89852071984E+02 -0.10577954347E+03  0.14095178828E+03  0.41800000000E+01 0. -1.
        -11    1    1    2    0    0  0.45359203901E+02  0.58308471166E+02 -0.28575425314E+03  0.29514882411E+03  0.00000000000E+00 0.  1.
         11    1    1    2    0    0 -0.43162429940E+02  0.39762222347E+02 -0.31511399132E+03  0.32053214692E+03  0.00000000000E+00 0. -1.
</event>
<event>
 7    1  0.2840156E-009  0.2071870E+03  0.7561462E-02  0.1143813E+00
         -4   -1    0    0    0  501 -0.00000000000E+00  0.00000000000E+00  0.10228451477E+03  0.10228451477E+03  0.00000000000E+00 0.  1.
          4   -1    0    0  501    0  0.00000000000E+00 -0.00000000000E+00 -0.54938558045E+03  0.54938558045E+03  0.00000000000E+00 0. -1.
         25    2    1    2    0    0 -0.19025741751E+03  0.71604157245E+02 -0.15609076320E+03  0.28519600867E+03  0.12508955491E+03 0.  0.
          5    1    3    3  502    0 -0.16951165148E+03  0.55517388187E+02 -0.64331683612E+02  0.18966396151E+03  0.41800000000E+01 0.  1.
         -5    1    3    3    0  502 -0.20745766033E+02  0.16086769058E+02 -0.91759079589E+02  0.95532047158E+02  0.41800000000E+01 0.  1.
        -11    1    1    2    0    0  0.12529718737E+03 -0.71798106166E+02 -0.25271555066E+03  0.29106614842E+03  0.00000000000E+00 0. -1.
         11    1    1    2    0    0  0.64960230143E+02  0.19394892093E+00 -0.38294751819E+02  0.75407938131E+02  0.00000000000E+00 0.  1.
</event>
<event>
 7    1  0.2840156E-009  0.1186573E+03  0.7561462E-02  0.1245329E+00
         -2   -1    0    0    0  501 -0.00000000000E+00  0.00000000000E+00  0.59026446297E+02  0.59026446297E+02  0.00000000000E+00 0.  1.
          2   -1    0    0  501    0  0.00000000000E+00 -0.00000000000E+00 -0.26305571094E+03  0.26305571094E+03  0.00000000000E+00 0. -1.
         25    2    1    2    0    0  0.43070737071E+02  0.38620117494E+02 -0.11190312542E+03  0.17753370301E+03  0.12509717966E+03 0.  0.
          5    1    3    3  502    0  0.29541936271E+02  0.83478528333E+02 -0.57743612939E+02  0.10579786353E+03  0.41800000000E+01 0.  1.
         -5    1    3    3    0  502  0.13528800800E+02 -0.44858410839E+02 -0.54159512484E+02  0.71735839485E+02  0.41800000000E+01 0.  1.
        -11    1    1    2    0    0 -0.39685416403E+02 -0.64387552256E+02 -0.91282193944E+02  0.11854589024E+03  0.00000000000E+00 0. -1.
         11    1    1    2    0    0 -0.33853206685E+01  0.25767434762E+02 -0.84394527096E+00  0.26002563986E+02  0.00000000000E+00 0.  1.
</event>
<event>
 7    1  0.2840156E-009  0.1824153E+03  0.7561462E-02  0.1165486E+00
         -1   -1    0    0    0  501 -0.00000000000E+00  0.00000000000E+00  0.35597667677E+03  0.35597667677E+03  0.00000000000E+00 0.  1.
          1   -1    0    0  501    0  0.00000000000E+00 -0.00000000000E+00 -0.12897581673E+03  0.12897581673E+03  0.00000000000E+00 0. -1.
         25    2    1    2    0    0  0.14130942602E+03 -0.10161487758E+03  0.48989976110E+02  0.21986718727E+03  0.12509046747E+03 0.  0.
          5    1    3    3  502    0  0.12806718732E+03 -0.57906444901E+02  0.82536369348E+02  0.16304626795E+03  0.41800000000E+01 0.  1.
         -5    1    3    3    0  502  0.13242238704E+02 -0.43708432676E+02 -0.33546393238E+02  0.56820919318E+02  0.41800000000E+01 0.  1.
        -11    1    1    2    0    0 -0.55041083514E+02  0.17218159479E+02  0.11566865578E+03  0.12924868982E+03  0.00000000000E+00 0.  1.
         11    1    1    2    0    0 -0.86268342508E+02  0.84396718098E+02  0.62342228148E+02  0.13583661640E+03  0.00000000000E+00 0. -1.
</event>
<event>
 7    1  0.2840156E-009  0.2219844E+03  0.7561462E-02  0.1132412E+00
          2   -1    0    0  501    0  0.00000000000E+00  0.00000000000E+00  0.23158245733E+04  0.23158245733E+04  0.00000000000E+00 0. -1.
         -2   -1    0    0    0  501 -0.00000000000E+00 -0.00000000000E+00 -0.25501473624E+02  0.25501473624E+02  0.00000000000E+00 0.  1.
         25    2    1    2    0    0 -0.21309223233E+03  0.92068860785E+01  0.13908844357E+04  0.14126925492E+04  0.12509060299E+03 0.  0.
          5    1    3    3  502    0 -0.19175841583E+03 -0.10119546222E+02  0.13430027606E+04  0.13566678232E+04  0.41800000000E+01 0. -1.
         -5    1    3    3    0  502 -0.21333816500E+02  0.19326432301E+02  0.47881675139E+02  0.56024726024E+02  0.41800000000E+01 0. -1.
        -11    1    1    2    0    0  0.91405506691E+02 -0.35946829847E+02  0.27832802687E+03  0.29515018511E+03  0.00000000000E+00 0. -1.
         11    1    1    2    0    0  0.12168672564E+03  0.26739943768E+02  0.62111063716E+03  0.63348331263E+03  0.00000000000E+00 0.  1.
</event>
<event>
 7    1  0.2840156E-009  0.2380139E+03  0.7561462E-02  0.1121123E+00
         -1   -1    0    0    0  501 -0.00000000000E+00  0.00000000000E+00  0.46827048719E+02  0.46827048719E+02  0.00000000000E+00 0.  1.
          1   -1    0    0  501    0  0.00000000000E+00 -0.00000000000E+00 -0.12311893289E+04  0.12311893289E+04  0.00000000000E+00 0. -1.
         25    2    1    2    0    0  0.72203966756E+02 -0.19919787877E+03 -0.54029598557E+03  0.59368256027E+03  0.12508406222E+03 0.  0.
          5    1    3    3  502    0  0.27759317882E+02 -0.19899151075E+03 -0.42770432417E+03  0.47256392414E+03  0.41800000000E+01 0. -1.
         -5    1    3    3    0  502  0.44444648874E+02 -0.20636801573E+00 -0.11259166140E+03  0.12111863613E+03  0.41800000000E+01 0. -1.
        -11    1    1    2    0    0 -0.88041155464E+02  0.11543289069E+03 -0.43359349621E+03  0.45725191882E+03  0.00000000000E+00 0.  1.
         11    1    1    2    0    0  0.15837188708E+02  0.83764988083E+02 -0.21047279841E+03  0.22708189854E+03  0.00000000000E+00 0. -1.
</event>
<event>
 7    1  0.2840156E-009  0.6817458E+02  0.7561462E-02  0.1366413E+00
          2   -1    0    0  501    0  0.00000000000E+00  0.00000000000E+00  0.35753764227E+03  0.35753764227E+03  0.00000000000E+00 0. -1.
         -2   -1    0    0    0  501 -0.00000000000E+00 -0.00000000000E+00 -0.43810979369E+02  0.43810979369E+02  0.00000000000E+00 0.  1.
         25    2    1    2    0    0 -0.51943390373E+02  0.15196905723E+02  0.23605311187E+03  0.27257724706E+03  0.12509285448E+03 0.  0.
          5    1    3    3  502    0 -0.34164205101E+02  0.26399683954E+02  0.24539780041E+03  0.24920210486E+03  0.41800000000E+01 0. -1.
         -5    1    3    3    0  502 -0.17779185272E+02 -0.11202778231E+02 -0.93446885332E+01  0.23375142199E+02  0.41800000000E+01 0. -1.
        -11    1    1    2    0    0  0.17612695504E+01  0.13582818135E+02 -0.14501370252E+02  0.19947048857E+02  0.00000000000E+00 0.  1.
         11    1    1    2    0    0  0.50182120823E+02 -0.28779723858E+02  0.92174921279E+02  0.10882432572E+03  0.00000000000E+00 0. -1.
</event>
<event>
 7    1  0.2840156E-009  0.1474741E+03  0.7561462E-02  0.1203612E+00
         -2   -1    0    0    0  501 -0.00000000000E+00  0.00000000000E+00  0.41810286738E+02  0.41810286738E+02  0.00000000000E+00 0.  1.
          2   -1    0    0  501    0  0.00000000000E+00 -0.00000000000E+00 -0.60874729725E+03  0.60874729725E+03  0.00000000000E+00 0. -1.
         25    2    1    2    0    0 -0.99741834369E+02  0.39414605776E+02 -0.40387426615E+03  0.43618987844E+03  0.12508094387E+03 0.  0.
          5    1    3    3  502    0 -0.11242577279E+03 -0.45814484138E+01 -0.33467637029E+03  0.35310945794E+03  0.41800000000E+01 0. -1.
         -5    1    3    3    0  502  0.12683938421E+02  0.43996054190E+02 -0.69197895869E+02  0.83080420502E+02  0.41800000000E+01 0. -1.
        -11    1    1    2    0    0  0.71851867455E+02 -0.66203513442E+02 -0.13473582645E+03  0.16643118391E+03  0.00000000000E+00 0.  1.
         11    1    1    2    0    0  0.27889966915E+02  0.26788907666E+02 -0.28326917902E+02  0.47936521633E+02  0.00000000000E+00 0. -1.
</event>
<event>
 7    1  0.2894598E-009  0.1605421E+03  0.7561462E-02  0.1188086E+00
          2   -1    0    0  501    0  0.00000000000E+00  0.00000000000E+00  0.93244737165E+03  0.93244737165E+03  0.00000000000E+00 0. -1.
         -2   -1    0    0    0  501 -0.00000000000E+00 -0.00000000000E+00 -0.32823192190E+02  0.32823192190E+02  0.00000000000E+00 0.  1.
         25    2    1    2    0    0 -0.18060300026E+02  0.13532913182E+03  0.51645284832E+03  0.54864433080E+03  0.12508760462E+03 0.  0.
          5    1    3    3  502    0  0.32364523302E+02  0.33609107214E+02  0.30525386324E+03  0.30882750505E+03  0.41800000000E+01 0. -1.
         -5    1    3    3    0  502 -0.50424823327E+02  0.10172002461E+03  0.21119898508E+03  0.23981682575E+03  0.41800000000E+01 0. -1.
        -11    1    1    2    0    0 -0.31641352085E+02 -0.81179155152E+02  0.24648405588E+03  0.26142995275E+03  0.00000000000E+00 0.  1.
         11    1    1    2    0    0  0.49701652110E+02 -0.54149976669E+02  0.13668727526E+03  0.15519628029E+03  0.00000000000E+00 0. -1.
</event>
<event>
 7    1  0.2901576E-009  0.1344689E+03  0.7561462E-02  0.1220971E+00
         -1   -1    0    0    0  501 -0.00000000000E+00  0.00000000000E+00  0.12650944988E+02  0.12650944988E+02  0.00000000000E+00 0.  1.
          1   -1    0    0  501    0  0.00000000000E+00 -0.00000000000E+00 -0.15334491163E+04  0.15334491163E+04  0.00000000000E+00 0. -1.
         25    2    1    2    0    0  0.37421114752E+02 -0.75613443839E+02 -0.95324402863E+03  0.96511095345E+03  0.12508893487E+03 0.  0.
          5    1    3    3  502    0  0.44084524952E+02  0.24242727085E+02 -0.34513767267E+03  0.34881032188E+03  0.41800000000E+01 0.  1.
         -5    1    3    3    0  502 -0.66634101999E+01 -0.99856170923E+02 -0.60810635596E+03  0.61630063157E+03  0.41800000000E+01 0.  1.
        -11    1    1    2    0    0 -0.16278443939E+02  0.90805804797E+02 -0.50286988960E+03  0.51126197569E+03  0.00000000000E+00 0.  1.
         11    1    1    2    0    0 -0.21142670813E+02 -0.15192360959E+02 -0.64684253052E+02  0.69727132119E+02  0.00000000000E+00 0. -1.
</event>
<event>
 7    1  0.2840156E-009  0.9466623E+02  0.7561462E-02  0.1291930E+00
         -1   -1    0    0    0  501 -0.00000000000E+00  0.00000000000E+00  0.95062814263E+02  0.95062814263E+02  0.00000000000E+00 0.  1.
          1   -1    0    0  501    0  0.00000000000E+00 -0.00000000000E+00 -0.14957338664E+03  0.14957338664E+03  0.00000000000E+00 0. -1.
         25    2    1    2    0    0 -0.39246322449E+02  0.29407733786E+02 -0.16877595684E+02  0.13541657952E+03  0.12509079958E+03 0.  0.
          5    1    3    3  502    0 -0.33853022805E+02 -0.46670724859E+02 -0.10643672658E+02  0.58778770654E+02  0.41800000000E+01 0. -1.
         -5    1    3    3    0  502 -0.53932996442E+01  0.76078458645E+02 -0.62339230267E+01  0.76637808862E+02  0.41800000000E+01 0. -1.
        -11    1    1    2    0    0  0.29417389321E+02 -0.33422171770E+02  0.21286507819E+02  0.49351188187E+02  0.00000000000E+00 0.  1.
         11    1    1    2    0    0  0.98289331285E+01  0.40144379843E+01 -0.58919484507E+02  0.59868433196E+02  0.00000000000E+00 0. -1.
</event>
<event>
 7    1  0.2840156E-009  0.1277022E+03  0.7561462E-02  0.1230906E+00
          1   -1    0    0  501    0  0.00000000000E+00  0.00000000000E+00  0.46411915054E+03  0.46411915054E+03  0.00000000000E+00 0. -1.
         -1   -1    0    0    0  501 -0.00000000000E+00 -0.00000000000E+00 -0.78009442836E+02  0.78009442836E+02  0.00000000000E+00 0.  1.
         25    2    1    2    0    0 -0.28813827899E+02 -0.10804080671E+03  0.47989774834E+02  0.17451000405E+03  0.12509064886E+03 0.  0.
          5    1    3    3  502    0  0.10808846535E+02 -0.63681885686E+01  0.62919160700E+02  0.64293686877E+02  0.41800000000E+01 0. -1.
         -5    1    3    3    0  502 -0.39622674434E+02 -0.10167261814E+03 -0.14929385865E+02  0.11021631717E+03  0.41800000000E+01 0. -1.
        -11    1    1    2    0    0  0.50414827758E+02  0.49803811622E+02  0.10732043938E+03  0.12860696411E+03  0.00000000000E+00 0.  1.
         11    1    1    2    0    0 -0.21600999859E+02  0.58236995086E+02  0.23079949349E+03  0.23901162521E+03  0.00000000000E+00 0. -1.
</event>
<event>
 7    1  0.2840156E-009  0.1947851E+03  0.7561462E-02  0.1154215E+00
          2   -1    0    0  501    0  0.00000000000E+00  0.00000000000E+00  0.73846381643E+03  0.73846381643E+03  0.00000000000E+00 0. -1.
         -2   -1    0    0    0  501 -0.00000000000E+00 -0.00000000000E+00 -0.66260963038E+02  0.66260963038E+02  0.00000000000E+00 0.  1.
         25    2    1    2    0    0 -0.95623551642E+01 -0.17756209493E+03  0.21547338762E+03  0.30609729169E+03  0.12508810902E+03 0.  0.
          5    1    3    3  502    0  0.32906372373E+02 -0.11728494713E+03  0.64203095160E+02  0.13776101769E+03  0.41800000000E+01 0. -1.
         -5    1    3    3    0  502 -0.42468727537E+02 -0.60277147796E+02  0.15127029246E+03  0.16833627400E+03  0.41800000000E+01 0. -1.
        -11    1    1    2    0    0  0.41566654392E+02  0.13016010528E+03  0.25952147119E+03  0.29329308511E+03  0.00000000000E+00 0.  1.
         11    1    1    2    0    0 -0.32004299228E+02  0.47401989644E+02  0.19720799458E+03  0.20533440267E+03  0.00000000000E+00 0. -1.
</event>
<event>
 7    1  0.2840156E-009  0.1058204E+03  0.7561462E-02  0.1268512E+00
         -1   -1    0    0    0  501 -0.00000000000E+00  0.00000000000E+00  0.27890074921E+03  0.27890074921E+03  0.00000000000E+00 0.  1.
          1   -1    0    0  501    0  0.00000000000E+00 -0.00000000000E+00 -0.66843011756E+02  0.66843011756E+02  0.00000000000E+00 0. -1.
         25    2    1    2    0    0  0.59772121791E+02  0.23306262510E+02  0.18186474841E+03  0.22986645212E+03  0.12509160915E+03 0.  0.
          5    1    3    3  502    0 -0.15195619497E+02 -0.18063408605E+02  0.12433577082E+03  0.12662562887E+03  0.41800000000E+01 0. -1.
         -5    1    3    3    0  502  0.74967741288E+02  0.41369671115E+02  0.57528977596E+02  0.10324082325E+03  0.41800000000E+01 0. -1.
        -11    1    1    2    0    0 -0.19425904771E+02 -0.49948275152E+02  0.39581905764E+02  0.66625244695E+02  0.00000000000E+00 0.  1.
         11    1    1    2    0    0 -0.40346217020E+02  0.26642012642E+02 -0.93889167255E+01  0.49252064147E+02  0.00000000000E+00 0. -1.
</event>
<event>
 7    1  0.2840156E-009  0.1553523E+03  0.7561462E-02  0.1194046E+00
          1   -1    0    0  501    0  0.00000000000E+00  0.00000000000E+00  0.70513922475E+02  0.70513922475E+02  0.00000000000E+00 0. -1.
         -1   -1    0    0    0  501 -0.00000000000E+00 -0.00000000000E+00 -0.72872424173E+03  0.72872424173E+03  0.00000000000E+00 0.  1.
         25    2    1    2    0    0  0.31555083206E+02 -0.14684245490E+03 -0.57058494935E+03  0.60313681022E+03  0.12509355532E+03 0.  0.
          5    1    3    3  502    0  0.73632970238E+01 -0.81473639561E+02 -0.48872123677E+03  0.49553818395E+03  0.41800000000E+01 0.  1.
         -5    1    3    3    0  502  0.24191786182E+02 -0.65368815336E+02 -0.81863712583E+02  0.10759862627E+03  0.41800000000E+01 0.  1.
        -11    1    1    2    0    0  0.13083360815E+02  0.58980189259E+02  0.53032598634E+01  0.60646200379E+02  0.00000000000E+00 0. -1.
         11    1    1    2    0    0 -0.44638444021E+02  0.87862265638E+02 -0.92928629764E+02  0.13545515360E+03  0.00000000000E+00 0.  1.
</event>
<event>
 7    1  0.2840156E-009  0.9876129E+02  0.7561462E-02  0.1282923E+00
         -1   -1    0    0    0  501 -0.00000000000E+00  0.00000000000E+00  0.35506936358E+02  0.35506936358E+02  0.00000000000E+00 0.  1.
          1   -1    0    0  501    0  0.00000000000E+00 -0.00000000000E+00 -0.40264615568E+03  0.40264615568E+03  0.00000000000E+00 0. -1.
         25    2    1    2    0    0  0.58573215191E+01  0.48011623471E+02 -0.17850324747E+03  0.22327647231E+03  0.12509815957E+03 0.  0.
          5    1    3    3  502    0  0.44663881232E+02  0.16215780913E+02 -0.11800411171E+02  0.49137927726E+02  0.41800000000E+01 0.  1.
         -5    1    3    3    0  502 -0.38806559713E+02  0.31795842557E+02 -0.16670283630E+03  0.17413854458E+03  0.41800000000E+01 0.  1.
        -11    1    1    2    0    0 -0.22095863676E+02  0.19849814672E+02 -0.33505430879E+02  0.44775620962E+02  0.00000000000E+00 0.  1.
         11    1    1    2    0    0  0.16238542157E+02 -0.67861438142E+02 -0.15513054097E+03  0.17010099877E+03  0.00000000000E+00 0. -1.
</event>
<event>
 7    1  0.2840156E-009  0.4039214E+02  0.7561462E-02  0.1505345E+00
         -1   -1    0    0    0  501 -0.00000000000E+00  0.00000000000E+00  0.37040594733E+02  0.37040594733E+02  0.00000000000E+00 0.  1.
          1   -1    0    0  501    0  0.00000000000E+00 -0.00000000000E+00 -0.34271857672E+03  0.34271857672E+03  0.00000000000E+00 0. -1.
         25    2    1    2    0    0  0.17739213441E+02 -0.69069437828E+00 -0.21513663702E+03  0.24949676454E+03  0.12509878568E+03 0.  0.
          5    1    3    3  502    0  0.10757252066E+02 -0.84059510159E+01 -0.23024189424E+03  0.23068415799E+03  0.41800000000E+01 0.  1.
         -5    1    3    3    0  502  0.69819613744E+01  0.77152566376E+01  0.15105257221E+02  0.18812606554E+02  0.41800000000E+01 0.  1.
        -11    1    1    2    0    0  0.15181102683E+02 -0.12661346649E+02 -0.92591614958E+02  0.94678311868E+02  0.00000000000E+00 0. -1.
         11    1    1    2    0    0 -0.32920316123E+02  0.13352041027E+02  0.20502699855E+01  0.35584095046E+02  0.00000000000E+00 0.  1.
</event>
<event>
 7    1  0.2840156E-009  0.1053749E+03  0.7561462E-02  0.1269383E+00
          2   -1    0    0  501    0  0.00000000000E+00  0.00000000000E+00  0.45601808812E+02  0.45601808812E+02  0.00000000000E+00 0. -1.
         -2   -1    0    0    0  501 -0.00000000000E+00 -0.00000000000E+00 -0.39965362440E+03  0.39965362440E+03  0.00000000000E+00 0.  1.
         25    2    1    2    0    0 -0.39396917110E+02 -0.88175918310E+01 -0.82667878527E+02  0.15527705667E+03  0.12508844545E+03 0.  0.
          5    1    3    3  502    0 -0.18396498903E+02 -0.54792709623E+02  0.39946632658E+00  0.57950877241E+02  0.41800000000E+01 0. -1.
         -5    1    3    3    0  502 -0.21000418207E+02  0.45975117792E+02 -0.83067344854E+02  0.97326179427E+02  0.41800000000E+01 0. -1.
        -11    1    1    2    0    0 -0.28507004155E+02  0.17769803342E+02 -0.94910462590E+02  0.10067974526E+03  0.00000000000E+00 0. -1.
         11    1    1    2    0    0  0.67903921265E+02 -0.89522115106E+01 -0.17647347447E+03  0.18929863128E+03  0.00000000000E+00 0.  1.
</event>
<event>
 7    1  0.4224204E-009  0.8815531E+02  0.7561462E-02  0.1307381E+00
          3   -1    0    0  501    0  0.00000000000E+00  0.00000000000E+00  0.14501331463E+03  0.14501331463E+03  0.00000000000E+00 0. -1.
         -3   -1    0    0    0  501 -0.00000000000E+00 -0.00000000000E+00 -0.14146879672E+03  0.14146879672E+03  0.00000000000E+00 0.  1.
         25    2    1    2    0    0 -0.49508612434E+02 -0.56612833134E+02  0.56826282225E+02  0.15663414960E+03  0.12509562298E+03 0.  0.
          5    1    3    3  502    0 -0.40974743761E+02 -0.11036688146E+02  0.89917549784E+02  0.99515708663E+02  0.41800000000E+01 0.  1.
         -5    1    3    3    0  502 -0.85338686723E+01 -0.45576144987E+02 -0.33091267559E+02  0.57118440937E+02  0.41800000000E+01 0.  1.
        -11    1    1    2    0    0  0.17562140053E+01  0.34405453086E+02 -0.67077824872E+02  0.75407254818E+02  0.00000000000E+00 0.  1.
         11    1    1    2    0    0  0.47752398428E+02  0.22207380048E+02  0.13796060550E+02  0.54440706929E+02  0.00000000000E+00 0. -1.
</event>
<event>
 7    1  0.2840156E-009  0.1082888E+03  0.7561462E-02  0.1263772E+00
         -2   -1    0    0    0  501 -0.00000000000E+00  0.00000000000E+00  0.29194552925E+02  0.29194552925E+02  0.00000000000E+00 0. -1.
          2   -1    0    0  501    0  0.00000000000E+00 -0.00000000000E+00 -0.58819226227E+03  0.58819226227E+03  0.00000000000E+00 0.  1.
         25    2    1    2    0    0 -0.21263647042E+01  0.64510766760E+02 -0.22003623346E+03  0.26120861703E+03  0.12509131512E+03 0.  0.
          5    1    3    3  502    0 -0.22677411838E+02  0.81030595350E+02 -0.21882693535E+03  0.23448437565E+03  0.41800000000E+01 0.  1.
         -5    1    3    3    0  502  0.20551047134E+02 -0.16519828590E+02 -0.12092981071E+01  0.26724241371E+02  0.41800000000E+01 0.  1.
        -11    1    1    2    0    0  0.33623682957E+02  0.24354981148E+00 -0.15544079013E+03  0.15903600413E+03  0.00000000000E+00 0. -1.
         11    1    1    2    0    0 -0.31497318253E+02 -0.64754316571E+02 -0.18352068575E+03  0.19714219404E+03  0.00000000000E+00 0.  1.
</event>
<event>
 7    1  0.2840156E-009  0.1422699E+03  0.7561462E-02  0.1210307E+00
          2   -1    0    0  501    0  0.00000000000E+00  0.00000000000E+00  0.44642012803E+03  0.44642012803E+03  0.00000000000E+00 0.  1.
         -2   -1    0    0    0  501 -0.00000000000E+00 -0.00000000000E+00 -0.69251960392E+02  0.69251960392E+02  0.00000000000E+00 0. -1.
         25    2    1    2    0    0 -0.81989687431E+02 -0.97167176119E+02  0.27655456040E+03  0.32908039818E+03  0.12509082552E+03 0.  0.
          5    1    3    3  502    0 -0.52681312732E+02 -0.64651273650E+02  0.47960907768E+02  0.96295529334E+02  0.41800000000E+01 0.  1.
         -5    1    3    3    0  502 -0.29308374699E+02 -0.32515902468E+02  0.22859365263E+03  0.23278486885E+03  0.41800000000E+01 0.  1.
        -11    1    1    2    0    0  0.79471121058E+02  0.22832405619E+02  0.50034660430E+02  0.96645978048E+02  0.00000000000E+00 0.  1.
         11    1    1    2    0    0  0.25185663733E+01  0.74334770500E+02  0.50578946813E+02  0.89945712197E+02  0.00000000000E+00 0. -1.
</event>
<event>
 7    1  0.2840156E-009  0.9474687E+02  0.7561462E-02  0.1291747E+00
         -2   -1    0    0    0  501 -0.00000000000E+00  0.00000000000E+00  0.10183360015E+02  0.10183360015E+02  0.00000000000E+00 0.  1.
          2   -1    0    0  501    0  0.00000000000E+00 -0.00000000000E+00 -0.12975799420E+04  0.12975799420E+04  0.00000000000E+00 0. -1.
         25    2    1    2    0    0  0.43413375298E+02 -0.66379663719E+01 -0.84930061471E+03  0.85958598467E+03  0.12509095548E+03 0.  0.
          5    1    3    3  502    0 -0.21924543810E+02 -0.20784928179E+02 -0.58675668649E+02  0.66128702937E+02  0.41800000000E+01 0.  1.
         -5    1    3    3    0  502  0.65337919108E+02  0.14146961807E+02 -0.79062494606E+03  0.79345728174E+03  0.41800000000E+01 0.  1.
        -11    1    1    2    0    0  0.65448701376E+01  0.34292110843E+02 -0.11911046744E+03  0.12412126186E+03  0.00000000000E+00 0.  1.
         11    1    1    2    0    0 -0.49958245436E+02 -0.27654144471E+02 -0.31898549988E+03  0.32405605553E+03  0.00000000000E+00 0. -1.
</event>
<event>
 7    1  0.2840156E-009  0.1825420E+03  0.7561462E-02  0.1165365E+00
         -2   -1    0    0    0  501 -0.00000000000E+00  0.00000000000E+00  0.20530471973E+03  0.20530471973E+03  0.00000000000E+00 0.  1.
          2   -1    0    0  501    0  0.00000000000E+00 -0.00000000000E+00 -0.21889639443E+03  0.21889639443E+03  0.00000000000E+00 0. -1.
         25    2    1    2    0    0 -0.12806228395E+03 -0.10869035435E+03 -0.77443936437E+02  0.22329142848E+03  0.12509179447E+03 0.  0.
          5    1    3    3  502    0  0.56119505200E+01 -0.50732998334E+02  0.11568190222E+02  0.52503585912E+02  0.41800000000E+01 0. -1.
         -5    1    3    3    0  502 -0.13367423447E+03 -0.57957356015E+02 -0.89012126658E+02  0.17078784257E+03  0.41800000000E+01 0. -1.
        -11    1    1    2    0    0  0.58107240889E+02  0.53873369253E+02 -0.16680856334E+02  0.80975566231E+02  0.00000000000E+00 0. -1.
         11    1    1    2    0    0  0.69955043057E+02  0.54816985096E+02  0.80533118066E+02  0.11993411945E+03  0.00000000000E+00 0.  1.
</event>
<event>
 7    1  0.2840156E-009  0.1776744E+03  0.7561462E-02  0.1170073E+00
          2   -1    0    0  501    0  0.00000000000E+00  0.00000000000E+00  0.17243887904E+03  0.17243887904E+03  0.00000000000E+00 0. -1.
         -2   -1    0    0    0  501 -0.00000000000E+00 -0.00000000000E+00 -0.19279396891E+03  0.19279396891E+03  0.00000000000E+00 0.  1.
         25    2    1    2    0    0 -0.97134428513E+02 -0.10645948705E+03 -0.32586416821E+02  0.19359466277E+03  0.12509316251E+03 0.  0.
          5    1    3    3  502    0  0.10505489504E+02 -0.72120376319E+02  0.80678088580E+01  0.73445734593E+02  0.41800000000E+01 0.  1.
         -5    1    3    3    0  502 -0.10763991802E+03 -0.34339110728E+02 -0.40654225679E+02  0.12014892818E+03  0.41800000000E+01 0.  1.
        -11    1    1    2    0    0  0.10949254734E+03  0.11119211889E+03  0.40995979622E+01  0.15610609191E+03  0.00000000000E+00 0.  1.
         11    1    1    2    0    0 -0.12358118829E+02 -0.47326318472E+01  0.81317289881E+01  0.15532093276E+02  0.00000000000E+00 0. -1.
</event>
<event>
 7    1  0.2840156E-009  0.1007640E+03  0.7561462E-02  0.1278698E+00
          2   -1    0    0  501    0  0.00000000000E+00  0.00000000000E+00  0.18140840394E+03  0.18140840394E+03  0.00000000000E+00 0. -1.
         -2   -1    0    0    0  501 -0.00000000000E+00 -0.00000000000E+00 -0.68281188760E+02  0.68281188760E+02  0.00000000000E+00 0.  1.
         25    2    1    2    0    0 -0.11536321434E+02 -0.84321169342E+01  0.91408805933E+02  0.15558449440E+03  0.12508708082E+03 0.  0.
          5    1    3    3  502    0 -0.54688892591E+02 -0.29472159231E+02  0.13088506284E+02  0.63625973780E+02  0.41800000000E+01 0.  1.
         -5    1    3    3    0  502  0.43152571157E+02  0.21040042297E+02  0.78320299649E+02  0.91958520619E+02  0.41800000000E+01 0.  1.
        -11    1    1    2    0    0  0.45573826497E+02  0.26312579502E+02  0.17344132895E+02  0.55408884193E+02  0.00000000000E+00 0.  1.
         11    1    1    2    0    0 -0.34037505063E+02 -0.17880462568E+02  0.43742763508E+01  0.38696214106E+02  0.00000000000E+00 0. -1.
</event>
<event>
 7    1  0.2840156E-009  0.1584662E+03  0.7561462E-02  0.1190439E+00
         -1   -1    0    0    0  501 -0.00000000000E+00  0.00000000000E+00  0.64088157893E+02  0.64088157893E+02  0.00000000000E+00 0.  1.
          1   -1    0    0  501    0  0.00000000000E+00 -0.00000000000E+00 -0.48345092569E+03  0.48345092569E+03  0.00000000000E+00 0. -1.
         25    2    1    2    0    0  0.43537693002E+02  0.12170681297E+03 -0.14500608790E+03  0.23104714110E+03  0.12509171374E+03 0.  0.
          5    1    3    3  502    0 -0.21008724163E+02  0.11055954625E+03 -0.10623315122E+03  0.15481516262E+03  0.41800000000E+01 0.  1.
         -5    1    3    3    0  502  0.64546417164E+02  0.11147266714E+02 -0.38772936680E+02  0.76231978478E+02  0.41800000000E+01 0.  1.
        -11    1    1    2    0    0 -0.51632391680E+02 -0.73636359531E+02 -0.24150831618E+03  0.25771007760E+03  0.00000000000E+00 0. -1.
         11    1    1    2    0    0  0.80946986782E+01 -0.48070453434E+02 -0.32848363716E+02  0.58781864881E+02  0.00000000000E+00 0.  1.
</event>
<event>
 7    1  0.2840156E-009  0.1668331E+03  0.7561462E-02  0.1181191E+00
         -2   -1    0    0    0  501 -0.00000000000E+00  0.00000000000E+00  0.87152922218E+02  0.87152922218E+02  0.00000000000E+00 0.  1.
          2   -1    0    0  501    0  0.00000000000E+00 -0.00000000000E+00 -0.34152442385E+03  0.34152442385E+03  0.00000000000E+00 0. -1.
         25    2    1    2    0    0  0.55981485791E+02  0.12291144525E+03 -0.13060658667E+03  0.22571688850E+03  0.12509549611E+03 0.  0.
          5    1    3    3  502    0  0.54063364590E+02  0.12838941049E+01 -0.73301418540E+02  0.91186984459E+02  0.41800000000E+01 0. -1.
         -5    1    3    3    0  502  0.19181212016E+01  0.12162755115E+03 -0.57305168132E+02  0.13452990404E+03  0.41800000000E+01 0. -1.
        -11    1    1    2    0    0  0.21159004878E+02 -0.20152544086E+02 -0.87245938330E+01  0.30495033335E+02  0.00000000000E+00 0.  1.
         11    1    1    2    0    0 -0.77140490669E+02 -0.10275890117E+03 -0.11504032112E+03  0.17246542423E+03  0.00000000000E+00 0. -1.
</event>
<event>
 7    1  0.2840156E-009  0.8974037E+02  0.7561462E-02  0.1303482E+00
          2   -1    0    0  501    0  0.00000000000E+00  0.00000000000E+00  0.47120589691E+03  0.47120589691E+03  0.00000000000E+00 0. -1.
         -2   -1    0    0    0  501 -0.00000000000E+00 -0.00000000000E+00 -0.35433703860E+02  0.35433703860E+02  0.00000000000E+00 0.  1.
         25    2    1    2    0    0 -0.51079167347E+02 -0.44017596965E+02  0.27556705109E+03  0.31005045159E+03  0.12508977859E+03 0.  0.
          5    1    3    3  502    0 -0.50853557144E+01  0.17009850837E+02 -0.52592512768E+01  0.18982307347E+02  0.41800000000E+01 0.  1.
         -5    1    3    3    0  502 -0.45993811632E+02 -0.61027447802E+02  0.28082630237E+03  0.29106814425E+03  0.41800000000E+01 0.  1.
        -11    1    1    2    0    0 -0.79519852076E+01  0.18996777015E+02  0.11810609114E+03  0.11988811605E+03  0.00000000000E+00 0. -1.
         11    1    1    2    0    0  0.59031152554E+02  0.25020819949E+02  0.42099050822E+02  0.76701033128E+02  0.00000000000E+00 0.  1.
</event>
<event>
 7    1  0.2840156E-009  0.1186621E+03  0.7561462E-02  0.1245321E+00
          3   -1    0    0  501    0  0.00000000000E+00  0.00000000000E+00  0.35930607504E+03  0.35930607504E+03  0.00000000000E+00 0. -1.
         -3   -1    0    0    0  501 -0.00000000000E+00 -0.00000000000E+00 -0.43453293699E+02  0.43453293699E+02  0.00000000000E+00 0.  1.
         25    2    1    2    0    0  0.59445109113E+02  0.66754155949E+00  0.17909571742E+03  0.22641108305E+03  0.12511009520E+03 0.  0.
          5    1    3    3  502    0 -0.20211006568E+02 -0.34162412005E+02  0.10420814105E+03  0.11159016194E+03  0.41800000000E+01 0. -1.
         -5    1    3    3    0  502  0.79656115681E+02  0.34829953564E+02  0.74887576378E+02  0.11482092112E+03  0.41800000000E+01 0. -1.
        -11    1    1    2    0    0  0.58048862553E+01  0.35362770234E+02  0.55680343713E+02  0.66215729997E+02  0.00000000000E+00 0. -1.
         11    1    1    2    0    0 -0.65249995369E+02 -0.36030311793E+02  0.81076720205E+02  0.11013255569E+03  0.00000000000E+00 0.  1.
</event>
<event>
 7    1  0.2840156E-009  0.5200544E+02  0.7561462E-02  0.1434815E+00
          1   -1    0    0  501    0  0.00000000000E+00  0.00000000000E+00  0.16626112890E+03  0.16626112890E+03  0.00000000000E+00 0. -1.
         -1   -1    0    0    0  501 -0.00000000000E+00 -0.00000000000E+00 -0.77826062291E+02  0.77826062291E+02  0.00000000000E+00 0.  1.
         25    2    1    2    0    0  0.30754606059E+02  0.22342701149E+02  0.56502547740E+02  0.14242821246E+03  0.12509282839E+03 0.  0.
          5    1    3    3  502    0  0.35213998764E+00  0.16170868016E+01 -0.39383752102E+02  0.39639516923E+02  0.41800000000E+01 0.  1.
         -5    1    3    3    0  502  0.30402466072E+02  0.20725614347E+02  0.95886299841E+02  0.10278869554E+03  0.41800000000E+01 0.  1.
        -11    1    1    2    0    0 -0.21770253389E+02  0.13443727495E+02 -0.23717520183E+02  0.34888372063E+02  0.00000000000E+00 0.  1.
         11    1    1    2    0    0 -0.89843526699E+01 -0.35786428643E+02  0.55650039049E+02  0.66770606663E+02  0.00000000000E+00 0. -1.
</event>
<event>
 7    1  0.2840156E-009  0.2747723E+03  0.7561462E-02  0.1098579E+00
          2   -1    0    0  501    0  0.00000000000E+00  0.00000000000E+00  0.83700953409E+03  0.83700953409E+03  0.00000000000E+00 0. -1.
         -2   -1    0    0    0  501 -0.00000000000E+00 -0.00000000000E+00 -0.99336549853E+02  0.99336549853E+02  0.00000000000E+00 0.  1.
         25    2    1    2    0    0 -0.24427152764E+03 -0.10735734597E+03  0.36083794631E+03  0.46588077583E+03  0.12508674927E+03 0.  0.
          5    1    3    3  502    0 -0.53980943803E+02 -0.70412551411E+02  0.18012189347E+03  0.20083136856E+03  0.41800000000E+01 0.  1.
         -5    1    3    3    0  502 -0.19029058384E+03 -0.36944794561E+02  0.18071605284E+03  0.26504940728E+03  0.41800000000E+01 0.  1.
        -11    1    1    2    0    0  0.15455684678E+03  0.69224897572E+02  0.30678661729E+03  0.35042536136E+03  0.00000000000E+00 0. -1.
         11    1    1    2    0    0  0.89714680860E+02  0.38132448400E+02  0.70048420632E+02  0.12003994675E+03  0.00000000000E+00 0.  1.
</event>
<event>
 7    1  0.2840156E-009  0.9428786E+02  0.7561462E-02  0.1292788E+00
         -1   -1    0    0    0  501 -0.00000000000E+00  0.00000000000E+00  0.91005473774E+02  0.91005473774E+02  0.00000000000E+00 0.  1.
          1   -1    0    0  501    0  0.00000000000E+00 -0.00000000000E+00 -0.14217472304E+03  0.14217472304E+03  0.00000000000E+00 0. -1.
         25    2    1    2    0    0 -0.28696582416E+02 -0.11630259897E+02 -0.42420208856E+02  0.13566803520E+03  0.12509030685E+03 0.  0.
          5    1    3    3  502    0  0.45881664986E+02 -0.47020677279E+01 -0.39048558740E+02  0.60576389480E+02  0.41800000000E+01 0.  1.
         -5    1    3    3    0  502 -0.74578247402E+02 -0.69281921689E+01 -0.33716501167E+01  0.75091645719E+02  0.41800000000E+01 0.  1.
        -11    1    1    2    0    0 -0.40173324094E+01  0.29636005526E+02 -0.39215815160E+02  0.49318474651E+02  0.00000000000E+00 0.  1.
         11    1    1    2    0    0  0.32713914825E+02 -0.18005745630E+02  0.30466774754E+02  0.48193686959E+02  0.00000000000E+00 0. -1.
</event>
<event>
 7    1  0.2840156E-009  0.1110505E+03  0.7561462E-02  0.1258637E+00
         -2   -1    0    0    0  501 -0.00000000000E+00  0.00000000000E+00  0.62314639947E+02  0.62314639947E+02  0.00000000000E+00 0. -1.
          2   -1    0    0  501    0  0.00000000000E+00 -0.00000000000E+00 -0.34541420674E+03  0.34541420674E+03  0.00000000000E+00 0.  1.
         25    2    1    2    0    0  0.42966560895E+02 -0.78408311136E+02 -0.98324067457E+02  0.18251141619E+03  0.12509518850E+03 0.  0.
          5    1    3    3  502    0  0.61718791050E+01 -0.43371715568E+02  0.23902176049E+02  0.50079778583E+02  0.41800000000E+01 0.  1.
         -5    1    3    3    0  502  0.36794681790E+02 -0.35036595567E+02 -0.12222624351E+03  0.13243163760E+03  0.41800000000E+01 0.  1.
        -11    1    1    2    0    0 -0.63660126085E+02  0.22533489025E+02 -0.11596553527E+03  0.13419528737E+03  0.00000000000E+00 0. -1.
         11    1    1    2    0    0  0.20693565190E+02  0.55874822111E+02 -0.68809964071E+02  0.91022143139E+02  0.00000000000E+00 0.  1.
</event>
<event>
 7    1  0.2840156E-009  0.2069848E+03  0.7561462E-02  0.1143976E+00
         -1   -1    0    0    0  501 -0.00000000000E+00  0.00000000000E+00  0.91925599638E+02  0.91925599638E+02  0.00000000000E+00 0.  1.
          1   -1    0    0  501    0  0.00000000000E+00 -0.00000000000E+00 -0.54145267739E+03  0.54145267739E+03  0.00000000000E+00 0. -1.
         25    2    1    2    0    0  0.59803901819E+02 -0.16756434545E+03 -0.12127503939E+03  0.24901552192E+03  0.12508708343E+03 0.  0.
          5    1    3    3  502    0  0.83234791666E+02 -0.17322023845E+03 -0.10045458256E+03  0.21689139474E+03  0.41800000000E+01 0. -1.
         -5    1    3    3    0  502 -0.23430889847E+02  0.56558930059E+01 -0.20820456834E+02  0.32124127186E+02  0.41800000000E+01 0. -1.
        -11    1    1    2    0    0 -0.80937277573E+02  0.14690888506E+03 -0.25333789593E+03  0.30383079653E+03  0.00000000000E+00 0.  1.
         11    1    1    2    0    0  0.21133375754E+02  0.20655460389E+02 -0.74914142431E+02  0.80531958568E+02  0.00000000000E+00 0. -1.
</event>
<event>
 7    1  0.2840156E-009  0.1476838E+03  0.7561462E-02  0.1203348E+00
         -2   -1    0    0    0  501 -0.00000000000E+00  0.00000000000E+00  0.13425837448E+03  0.13425837448E+03  0.00000000000E+00 0.  1.
          2   -1    0    0  501    0  0.00000000000E+00 -0.00000000000E+00 -0.33126674486E+03  0.33126674486E+03  0.00000000000E+00 0. -1.
         25    2    1    2    0    0  0.13057806500E+03  0.93984147213E+01 -0.23938960398E+03  0.30015731223E+03  0.12509223930E+03 0.  0.
          5    1    3    3  502    0 -0.13240882549E+02  0.27731297444E+01  0.61925913725E+01  0.15454184131E+02  0.41800000000E+01 0. -1.
         -5    1    3    3    0  502  0.14381894755E+03  0.66252849769E+01 -0.24558219536E+03  0.28470312810E+03  0.41800000000E+01 0. -1.
        -11    1    1    2    0    0 -0.50567365449E+02  0.16316635388E+02  0.59318540695E+02  0.79636551338E+02  0.00000000000E+00 0.  1.
         11    1    1    2    0    0 -0.80010699548E+02 -0.25715050109E+02 -0.16937307092E+02  0.85731255770E+02  0.00000000000E+00 0. -1.
</event>
<event>
 7    1  0.2840156E-009  0.8434378E+02  0.7561462E-02  0.1317158E+00
         -2   -1    0    0    0  501 -0.00000000000E+00  0.00000000000E+00  0.15269731634E+03  0.15269731634E+03  0.00000000000E+00 0. -1.
          2   -1    0    0  501    0  0.00000000000E+00 -0.00000000000E+00 -0.20225793274E+03  0.20225793274E+03  0.00000000000E+00 0.  1.
         25    2    1    2    0    0  0.11732968440E+02  0.13256876870E+02  0.11245643748E+03  0.16913691774E+03  0.12508972491E+03 0.  0.
          5    1    3    3  502    0  0.89019200690E+01  0.56430298229E+02  0.11185090207E+03  0.12566510826E+03  0.41800000000E+01 0.  1.
         -5    1    3    3    0  502  0.28310483710E+01 -0.43173421360E+02  0.60553541267E+00  0.43471809485E+02  0.41800000000E+01 0.  1.
        -11    1    1    2    0    0  0.21250545814E+02  0.13748710246E+02 -0.13016770998E+03  0.13260560114E+03  0.00000000000E+00 0.  1.
         11    1    1    2    0    0 -0.32983514254E+02 -0.27005587116E+02 -0.31849343900E+02  0.53212730196E+02  0.00000000000E+00 0. -1.
</event>
<event>
 7    1  0.2840156E-009  0.1183998E+03  0.7561462E-02  0.1245761E+00
         -1   -1    0    0    0  501 -0.00000000000E+00  0.00000000000E+00  0.18598884107E+02  0.18598884107E+02  0.00000000000E+00 0.  1.
          1   -1    0    0  501    0  0.00000000000E+00 -0.00000000000E+00 -0.10096067069E+04  0.10096067069E+04  0.00000000000E+00 0. -1.
         25    2    1    2    0    0  0.74719405206E+02  0.17713223645E+01 -0.66336454378E+03  0.67917942951E+03  0.12508418137E+03 0.  0.
          5    1    3    3  502    0  0.90343625292E+02 -0.19816177371E+02 -0.28090299109E+03  0.29576783855E+03  0.41800000000E+01 0. -1.
         -5    1    3    3    0  502 -0.15624220085E+02  0.21587499736E+02 -0.38246155269E+03  0.38341159096E+03  0.41800000000E+01 0. -1.
        -11    1    1    2    0    0 -0.95943777920E+02 -0.29195984481E-01 -0.23229827001E+03  0.25133184364E+03  0.00000000000E+00 0.  1.
         11    1    1    2    0    0  0.21224372714E+02 -0.17421263800E+01 -0.95345009010E+02  0.97694317873E+02  0.00000000000E+00 0. -1.
</event>
<event>
 7    1  0.2840156E-009  0.1845881E+03  0.7561462E-02  0.1163435E+00
         -2   -1    0    0    0  501 -0.00000000000E+00  0.00000000000E+00  0.95662478914E+02  0.95662478914E+02  0.00000000000E+00 0.  1.
          2   -1    0    0  501    0  0.00000000000E+00 -0.00000000000E+00 -0.43626722644E+03  0.43626722644E+03  0.00000000000E+00 0. -1.
         25    2    1    2    0    0 -0.11565568923E+03  0.97753345200E+02 -0.28598516606E+03  0.34693967511E+03  0.12509063919E+03 0.  0.
          5    1    3    3  502    0  0.26013541077E+02  0.27346535878E+02 -0.61506086744E+02  0.72284219927E+02  0.41800000000E+01 0.  1.
         -5    1    3    3    0  502 -0.14166923031E+03  0.70406809322E+02 -0.22447907931E+03  0.27465545519E+03  0.41800000000E+01 0.  1.
        -11    1    1    2    0    0  0.72090857674E+02 -0.71879291780E+01 -0.42438872295E+01  0.72572506260E+02  0.00000000000E+00 0. -1.
         11    1    1    2    0    0  0.43564831554E+02 -0.90565416022E+02 -0.50375694235E+02  0.11241752398E+03  0.00000000000E+00 0.  1.
</event>
<event>
 7    1  0.2840156E-009  0.2854067E+03  0.7561462E-02  0.1092772E+00
         -1   -1    0    0    0  501 -0.00000000000E+00  0.00000000000E+00  0.15533005905E+03  0.15533005905E+03  0.00000000000E+00 0.  1.
          1   -1    0    0  501    0  0.00000000000E+00 -0.00000000000E+00 -0.65827836132E+03  0.65827836132E+03  0.00000000000E+00 0. -1.
         25    2    1    2    0    0  0.28142352017E+03  0.67387558177E+01 -0.38983582756E+03  0.49685406407E+03  0.12508948799E+03 0.  0.
          5    1    3    3  502    0  0.95777984619E+02 -0.90012171888E+01 -0.48166268889E+02  0.10766571463E+03  0.41800000000E+01 0. -1.
         -5    1    3    3    0  502  0.18564553555E+03  0.15739973007E+02 -0.34166955867E+03  0.38918834944E+03  0.41800000000E+01 0. -1.
        -11    1    1    2    0    0 -0.15893940598E+03  0.26772448355E+02 -0.98591321825E+02  0.18894112179E+03  0.00000000000E+00 0. -1.
         11    1    1    2    0    0 -0.12248411419E+03 -0.33511204173E+02 -0.14521152883E+02  0.12781323450E+03  0.00000000000E+00 0.  1.
</event>
<event>
 7    1  0.2840156E-009  0.1855405E+03  0.7561462E-02  0.1162546E+00
         -4   -1    0    0    0  501 -0.00000000000E+00  0.00000000000E+00  0.19485346301E+03  0.19485346301E+03  0.00000000000E+00 0. -1.
          4   -1    0    0  501    0  0.00000000000E+00 -0.00000000000E+00 -0.19508377197E+03  0.19508377197E+03  0.00000000000E+00 0.  1.
         25    2    1    2    0    0 -0.14251618706E+02  0.16113074458E+03 -0.16818144017E+02  0.20517292298E+03  0.12508738095E+03 0.  0.
          5    1    3    3  502    0  0.55515196151E+02  0.76478206631E+02 -0.44278938109E+01  0.94699164393E+02  0.41800000000E+01 0. -1.
         -5    1    3    3    0  502 -0.69766814857E+02  0.84652537948E+02 -0.12390250206E+02  0.11047375859E+03  0.41800000000E+01 0. -1.
        -11    1    1    2    0    0 -0.90233152910E+01 -0.11179258520E+03  0.47796094810E+02  0.12191582754E+03  0.00000000000E+00 0. -1.
         11    1    1    2    0    0  0.23274933997E+02 -0.49338159374E+02 -0.31208259751E+02  0.62848484466E+02  0.00000000000E+00 0.  1.
</event>
<event>
 7    1  0.2840156E-009  0.1197961E+03  0.7561462E-02  0.1243434E+00
         -1   -1    0    0    0  501 -0.00000000000E+00  0.00000000000E+00  0.10477867999E+04  0.10477867999E+04  0.00000000000E+00 0.  1.
          1   -1    0    0  501    0  0.00000000000E+00 -0.00000000000E+00 -0.16213841607E+02  0.16213841607E+02  0.00000000000E+00 0. -1.
         25    2    1    2    0    0 -0.40426316010E+02 -0.56472489327E+02  0.53244627732E+03  0.55133435725E+03  0.12508839344E+03 0.  0.
          5    1    3    3  502    0 -0.61719845839E+02 -0.72808552832E+02  0.25079891068E+03  0.26838030989E+03  0.41800000000E+01 0.  1.
         -5    1    3    3    0  502  0.21293529829E+02  0.16336063505E+02  0.28164736664E+03  0.28295404737E+03  0.41800000000E+01 0.  1.
        -11    1    1    2    0    0  0.66511123107E+02  0.61196811769E+02  0.39656901193E+03  0.40673795064E+03  0.00000000000E+00 0.  1.
         11    1    1    2    0    0 -0.26084807097E+02 -0.47243224417E+01  0.10255766904E+03  0.10592833362E+03  0.00000000000E+00 0. -1.
</event>
<event>
 7    1  0.2840156E-009  0.1706749E+03  0.7561462E-02  0.1177146E+00
         -2   -1    0    0    0  501 -0.00000000000E+00  0.00000000000E+00  0.67749328518E+02  0.67749328518E+02  0.00000000000E+00 0. -1.
          2   -1    0    0  501    0  0.00000000000E+00 -0.00000000000E+00 -0.67102538897E+03  0.67102538897E+03  0.00000000000E+00 0.  1.
         25    2    1    2    0    0  0.40236999840E+02 -0.12501710954E+03 -0.98537571619E+02  0.20641144339E+03  0.12509091538E+03 0.  0.
          5    1    3    3  502    0  0.19067178260E+02 -0.14314815092E+03 -0.10359582968E+03  0.17777659780E+03  0.41800000000E+01 0. -1.
         -5    1    3    3    0  502  0.21169821581E+02  0.18131041387E+02  0.50582580563E+01  0.28634845592E+02  0.41800000000E+01 0. -1.
        -11    1    1    2    0    0 -0.49310346187E+02  0.63945914164E+01 -0.16938822660E+03  0.17653547052E+03  0.00000000000E+00 0. -1.
         11    1    1    2    0    0  0.90733463465E+01  0.11862251812E+03 -0.33535026223E+03  0.35582780358E+03  0.00000000000E+00 0.  1.
</event>
<event>
 7    1  0.2840156E-009  0.1925198E+03  0.7561462E-02  0.1156208E+00
         -1   -1    0    0    0  501 -0.00000000000E+00  0.00000000000E+00  0.37339985356E+03  0.37339985356E+03  0.00000000000E+00 0.  1.
          1   -1    0    0  501    0  0.00000000000E+00 -0.00000000000E+00 -0.12653742339E+03  0.12653742339E+03  0.00000000000E+00 0. -1.
         25    2    1    2    0    0  0.17847926276E+03 -0.21518484692E+01  0.60039335017E+02  0.22607834286E+03  0.12508883913E+03 0.  0.
          5    1    3    3  502    0  0.89411071152E+02  0.48230979859E+02 -0.97529597920E+01  0.10214283963E+03  0.41800000000E+01 0. -1.
         -5    1    3    3    0  502  0.89068191606E+02 -0.50382828328E+02  0.69792294809E+02  0.12393550323E+03  0.41800000000E+01 0. -1.
        -11    1    1    2    0    0 -0.73863429064E+02  0.15534112360E+02  0.22789501170E+02  0.78844633068E+02  0.00000000000E+00 0. -1.
         11    1    1    2    0    0 -0.10461583369E+03 -0.13382263891E+02  0.16403359398E+03  0.19501430102E+03  0.00000000000E+00 0.  1.
</event>
<event>
 7    1  0.2840156E-009  0.3214671E+03  0.7561462E-02  0.1074976E+00
         -1   -1    0    0    0  501 -0.00000000000E+00  0.00000000000E+00  0.33242125630E+03  0.33242125630E+03  0.00000000000E+00 0.  1.
          1   -1    0    0  501    0  0.00000000000E+00 -0.00000000000E+00 -0.43633321991E+03  0.43633321991E+03  0.00000000000E+00 0. -1.
         25    2    1    2    0    0 -0.30334748327E+03 -0.29493181055E+02  0.14972918727E+03  0.36187715695E+03  0.12508678535E+03 0.  0.
          5    1    3    3  502    0 -0.20768817765E+03 -0.78270605938E+02  0.10157832479E+03  0.24412352479E+03  0.41800000000E+01 0. -1.
         -5    1    3    3    0  502 -0.95659305619E+02  0.48777424882E+02  0.48150862486E+02  0.11775363216E+03  0.41800000000E+01 0. -1.
        -11    1    1    2    0    0  0.18171605588E+03 -0.18661214297E+02 -0.11297886942E+03  0.21478638415E+03  0.00000000000E+00 0.  1.
         11    1    1    2    0    0  0.12163142739E+03  0.48154395352E+02 -0.14066228146E+03  0.19209093510E+03  0.00000000000E+00 0. -1.
</event>
<event>
 7    1  0.3983484E-009  0.7171671E+02  0.7561462E-02  0.1354351E+00
          1   -1    0    0  501    0  0.00000000000E+00  0.00000000000E+00  0.71289383035E+02  0.71289383035E+02  0.00000000000E+00 0. -1.
         -1   -1    0    0    0  501 -0.00000000000E+00 -0.00000000000E+00 -0.28248669261E+03  0.28248669261E+03  0.00000000000E+00 0.  1.
         25    2    1    2    0    0  0.27916358211E+02  0.92270170711E+01 -0.22304439927E+03  0.25741126094E+03  0.12508913748E+03 0.  0.
          5    1    3    3  502    0  0.55912864263E+02  0.17333525099E+02 -0.22013447802E+03  0.22782308990E+03  0.41800000000E+01 0. -1.
         -5    1    3    3    0  502 -0.27996506052E+02 -0.81065080282E+01 -0.29099212510E+01  0.29588171036E+02  0.41800000000E+01 0. -1.
        -11    1    1    2    0    0  0.60283558101E+01 -0.19036271105E+02 -0.33425693781E+02  0.38935815081E+02  0.00000000000E+00 0.  1.
         11    1    1    2    0    0 -0.33944714021E+02  0.98092540335E+01  0.45272783471E+02  0.57428999625E+02  0.00000000000E+00 0. -1.
</event>
<event>
 7    1  0.2840156E-009  0.1211981E+03  0.7561462E-02  0.1241133E+00
          1   -1    0    0  501    0  0.00000000000E+00  0.00000000000E+00  0.91624520788E+03  0.91624520788E+03  0.00000000000E+00 0. -1.
         -1   -1    0    0    0  501 -0.00000000000E+00 -0.00000000000E+00 -0.21338624648E+02  0.21338624648E+02  0.00000000000E+00 0.  1.
         25    2    1    2    0    0 -0.66511626111E+02  0.22875577962E+02  0.59666634489E+03  0.61368409527E+03  0.12510137164E+03 0.  0.
          5    1    3    3  502    0 -0.83403823232E+02 -0.15811376649E+02  0.51176928960E+03  0.51877883104E+03  0.41800000000E+01 0. -1.
         -5    1    3    3    0  502  0.16892197121E+02  0.38686954612E+02  0.84897055288E+02  0.94905264223E+02  0.41800000000E+01 0. -1.
        -11    1    1    2    0    0  0.34396505907E+02  0.34824876835E+02  0.19727565542E+03  0.20325741287E+03  0.00000000000E+00 0. -1.
         11    1    1    2    0    0  0.32115120204E+02 -0.57700454797E+02  0.10096458293E+03  0.12064232439E+03  0.00000000000E+00 0.  1.
</event>
<event>
 7    1  0.2840156E-009  0.7648707E+02  0.7561462E-02  0.1339327E+00
          1   -1    0    0  501    0  0.00000000000E+00  0.00000000000E+00  0.24509779530E+03  0.24509779530E+03  0.00000000000E+00 0. -1.
         -1   -1    0    0    0  501 -0.00000000000E+00 -0.00000000000E+00 -0.64965439679E+02  0.64965439679E+02  0.00000000000E+00 0.  1.
         25    2    1    2    0    0  0.31977805281E+01  0.55472338806E+02  0.13770621353E+03  0.19415537318E+03  0.12508357812E+03 0.  0.
          5    1    3    3  502    0  0.29853683469E+02  0.17683800802E+00  0.12844493581E+03  0.13193501288E+03  0.41800000000E+01 0.  1.
         -5    1    3    3    0  502 -0.26655902940E+02  0.55295500798E+02  0.92612777164E+01  0.62220360293E+02  0.41800000000E+01 0.  1.
        -11    1    1    2    0    0  0.11107944150E+02 -0.31306388731E+02 -0.25843701159E+02  0.42087685707E+02  0.00000000000E+00 0.  1.
         11    1    1    2    0    0 -0.14305724678E+02 -0.24165950075E+02  0.68269843252E+02  0.73820176098E+02  0.00000000000E+00 0. -1.
</event>
<event>
 7    1  0.2840156E-009  0.1516850E+03  0.7561462E-02  0.1198418E+00
          1   -1    0    0  501    0  0.00000000000E+00  0.00000000000E+00  0.20573180911E+03  0.20573180911E+03  0.00000000000E+00 0. -1.
         -1   -1    0    0    0  501 -0.00000000000E+00 -0.00000000000E+00 -0.20451135403E+03  0.20451135403E+03  0.00000000000E+00 0.  1.
         25    2    1    2    0    0  0.19041642998E+02 -0.12448957488E+03 -0.12004593035E+03  0.21428537087E+03  0.12508779458E+03 0.  0.
          5    1    3    3  502    0 -0.42291844318E+02 -0.64242166268E+01 -0.18174732584E+02  0.46665447170E+02  0.41800000000E+01 0.  1.
         -5    1    3    3    0  502  0.61333487315E+02 -0.11806535825E+03 -0.10187119777E+03  0.16761992370E+03  0.41800000000E+01 0.  1.
        -11    1    1    2    0    0 -0.12139173416E+02  0.27710270849E+02  0.88534042796E+02  0.93560116372E+02  0.00000000000E+00 0. -1.
         11    1    1    2    0    0 -0.69024695811E+01  0.96779304032E+02  0.32732342631E+02  0.10239767590E+03  0.00000000000E+00 0.  1.
</event>
<event>
 7    1  0.2840156E-009  0.1111460E+03  0.7561462E-02  0.1258462E+00
         -1   -1    0    0    0  501 -0.00000000000E+00  0.00000000000E+00  0.30967811699E+02  0.30967811699E+02  0.00000000000E+00 0.  1.
          1   -1    0    0  501    0  0.00000000000E+00 -0.00000000000E+00 -0.44397134509E+03  0.44397134509E+03  0.00000000000E+00 0. -1.
         25    2    1    2    0    0 -0.35178671598E+02 -0.20102868975E+02 -0.19515514733E+03  0.23531900685E+03  0.12509132337E+03 0.  0.
          5    1    3    3  502    0  0.38257930456E+02 -0.31926865067E+02 -0.11754206212E+03  0.12773645808E+03  0.41800000000E+01 0.  1.
         -5    1    3    3    0  502 -0.73436602054E+02  0.11823996092E+02 -0.77613085208E+02  0.10758254877E+03  0.41800000000E+01 0.  1.
        -11    1    1    2    0    0  0.10075406919E+02 -0.35435142208E+02 -0.10636792465E+03  0.11256686245E+03  0.00000000000E+00 0.  1.
         11    1    1    2    0    0  0.25103264679E+02  0.55538011183E+02 -0.11148046141E+03  0.12705328748E+03  0.00000000000E+00 0. -1.
</event>
<event>
 7    1  0.2840156E-009  0.1071597E+03  0.7561462E-02  0.1265922E+00
         -2   -1    0    0    0  501 -0.00000000000E+00  0.00000000000E+00  0.33610082317E+03  0.33610082317E+03  0.00000000000E+00 0.  1.
          2   -1    0    0  501    0  0.00000000000E+00 -0.00000000000E+00 -0.59364122939E+02  0.59364122939E+02  0.00000000000E+00 0. -1.
         25    2    1    2    0    0  0.46740588283E+02  0.33815734874E+02  0.53111672258E+02  0.14763521286E+03  0.12508844802E+03 0.  0.
          5    1    3    3  502    0  0.86505774845E+02  0.19548944364E+02  0.56186853306E+02  0.10507066761E+03  0.41800000000E+01 0. -1.
         -5    1    3    3    0  502 -0.39765186563E+02  0.14266790510E+02 -0.30751810481E+01  0.42564545250E+02  0.41800000000E+01 0. -1.
        -11    1    1    2    0    0  0.66948512569E+01 -0.28620527203E+02  0.16788731182E+03  0.17044091375E+03  0.00000000000E+00 0.  1.
         11    1    1    2    0    0 -0.53435439540E+02 -0.51952076709E+01  0.55737716157E+02  0.77388819502E+02  0.00000000000E+00 0. -1.
</event>
<event>
 7    1  0.2840156E-009  0.1085337E+03  0.7561462E-02  0.1263310E+00
         -2   -1    0    0    0  501 -0.00000000000E+00  0.00000000000E+00  0.27340573751E+02  0.27340573751E+02  0.00000000000E+00 0.  1.
          2   -1    0    0  501    0  0.00000000000E+00 -0.00000000000E+00 -0.49154648623E+03  0.49154648623E+03  0.00000000000E+00 0. -1.
         25    2    1    2    0    0 -0.18996860412E+02  0.38268916923E+02 -0.23130528708E+03  0.26641113711E+03  0.12508943775E+03 0.  0.
          5    1    3    3  502    0  0.47192822300E+02  0.34549635794E+02 -0.15226323975E+03  0.16316374103E+03  0.41800000000E+01 0.  1.
         -5    1    3    3    0  502 -0.66189682712E+02  0.37192811291E+01 -0.79042047335E+02  0.10324739608E+03  0.41800000000E+01 0.  1.
        -11    1    1    2    0    0  0.21275048279E+02 -0.63346443505E+02 -0.12570796606E+03  0.14236534802E+03  0.00000000000E+00 0.  1.
         11    1    1    2    0    0 -0.22781878670E+01  0.25077526582E+02 -0.10719265933E+03  0.11011057485E+03  0.00000000000E+00 0. -1.
</event>
<event>
 7    1  0.2840156E-009  0.1022449E+03  0.7561462E-02  0.1275645E+00
         -3   -1    0    0    0  501 -0.00000000000E+00  0.00000000000E+00  0.26408288880E+03  0.26408288880E+03  0.00000000000E+00 0.  1.
          3   -1    0    0  501    0  0.00000000000E+00 -0.00000000000E+00 -0.52649232779E+02  0.52649232779E+02  0.00000000000E+00 0. -1.
         25    2    1    2    0    0  0.44695811328E+02  0.37026674631E+01  0.11375043380E+03  0.17492236038E+03  0.12508895105E+03 0.  0.
          5    1    3    3  502    0  0.83550623362E+02  0.26359794364E+02  0.75726214325E+02  0.11587699236E+03  0.41800000000E+01 0.  1.
         -5    1    3    3    0  502 -0.38854812034E+02 -0.22657126901E+02  0.38024219476E+02  0.59045368018E+02  0.41800000000E+01 0.  1.
        -11    1    1    2    0    0 -0.52000549758E+02  0.12806937836E+02  0.10833424219E+03  0.12084859479E+03  0.00000000000E+00 0.  1.
         11    1    1    2    0    0  0.73047384307E+01 -0.16509605299E+02 -0.10651019971E+02  0.20961166406E+02  0.00000000000E+00 0. -1.
</event>
<event>
 7    1  0.2840156E-009  0.1435456E+03  0.7561462E-02  0.1208636E+00
          2   -1    0    0  501    0  0.00000000000E+00  0.00000000000E+00  0.86632092475E+02  0.86632092475E+02  0.00000000000E+00 0. -1.
         -2   -1    0    0    0  501 -0.00000000000E+00 -0.00000000000E+00 -0.25970408993E+03  0.25970408993E+03  0.00000000000E+00 0.  1.
         25    2    1    2    0    0  0.33714545051E+02  0.97504399553E+02 -0.10192801124E+03  0.19152247044E+03  0.12509100179E+03 0.  0.
          5    1    3    3  502    0  0.34337887304E+02  0.12232404223E+03 -0.10661733892E+03  0.16591260100E+03  0.41800000000E+01 0.  1.
         -5    1    3    3    0  502 -0.62334225305E+00 -0.24819642681E+02  0.46893276866E+01  0.25609869436E+02  0.41800000000E+01 0.  1.
        -11    1    1    2    0    0 -0.24019442667E+02  0.10600494367E+02 -0.24623167055E+01  0.26369814380E+02  0.00000000000E+00 0. -1.
         11    1    1    2    0    0 -0.96951023840E+01 -0.10810489392E+03 -0.68681669516E+02  0.12844389759E+03  0.00000000000E+00 0.  1.
</event>
<event>
 7    1  0.2840156E-009  0.9901631E+02  0.7561462E-02  0.1282378E+00
         -2   -1    0    0    0  501 -0.00000000000E+00  0.00000000000E+00  0.75360738171E+02  0.75360738171E+02  0.00000000000E+00 0.  1.
          2   -1    0    0  501    0  0.00000000000E+00 -0.00000000000E+00 -0.27224244037E+03  0.27224244037E+03  0.00000000000E+00 0. -1.
         25    2    1    2    0    0 -0.61694747226E+02  0.18503549417E+02 -0.18819177636E+03  0.23497014281E+03  0.12508477185E+03 0.  0.
          5    1    3    3  502    0 -0.49802386404E+02  0.39735586774E+02 -0.22880064114E+02  0.67824510922E+02  0.41800000000E+01 0.  1.
         -5    1    3    3    0  502 -0.11892360822E+02 -0.21232037357E+02 -0.16531171224E+03  0.16714563189E+03  0.41800000000E+01 0.  1.
        -11    1    1    2    0    0  0.37966693680E+02  0.34575111616E+02 -0.16575626941E+02  0.53959795966E+02  0.00000000000E+00 0. -1.
         11    1    1    2    0    0  0.23728053547E+02 -0.53078661033E+02  0.78857010998E+01  0.58673239761E+02  0.00000000000E+00 0.  1.
</event>
<event>
 7    1  0.2840156E-009  0.1379864E+03  0.7561462E-02  0.1216064E+00
         -1   -1    0    0    0  501 -0.00000000000E+00  0.00000000000E+00  0.82977984825E+02  0.82977984825E+02  0.00000000000E+00 0.  1.
          1   -1    0    0  501    0  0.00000000000E+00 -0.00000000000E+00 -0.23991750570E+03  0.23991750570E+03  0.00000000000E+00 0. -1.
         25    2    1    2    0    0  0.47811928222E+02 -0.77142704275E+02 -0.86267861472E+02  0.17699326020E+03  0.12508993937E+03 0.  0.
          5    1    3    3  502    0 -0.41929154812E+02 -0.19530552129E+02 -0.15600221748E+02  0.48993222065E+02  0.41800000000E+01 0. -1.
         -5    1    3    3    0  502  0.89741083034E+02 -0.57612152147E+02 -0.70667639724E+02  0.12800003814E+03  0.41800000000E+01 0. -1.
        -11    1    1    2    0    0 -0.42112121990E+02 -0.32251820396E+01 -0.44103209673E+02  0.61064930371E+02  0.00000000000E+00 0. -1.
         11    1    1    2    0    0 -0.56998062319E+01  0.80367886315E+02 -0.26568449728E+02  0.84837299950E+02  0.00000000000E+00 0.  1.
</event>
<event>
 7    1  0.2840156E-009  0.9305919E+02  0.7561462E-02  0.1295608E+00
          1   -1    0    0  501    0  0.00000000000E+00  0.00000000000E+00  0.18438188231E+03  0.18438188231E+03  0.00000000000E+00 0. -1.
         -1   -1    0    0    0  501 -0.00000000000E+00 -0.00000000000E+00 -0.76416298583E+02  0.76416298583E+02  0.00000000000E+00 0.  1.
         25    2    1    2    0    0  0.83210083191E+00  0.29815238867E+02  0.10734996261E+03  0.16751309344E+03  0.12508789367E+03 0.  0.
          5    1    3    3  502    0  0.58655365183E+02 -0.54943484316E+01  0.36682031645E+02  0.69524697590E+02  0.41800000000E+01 0. -1.
         -5    1    3    3    0  502 -0.57823264351E+02  0.35309587299E+02  0.70667930964E+02  0.97988395854E+02  0.41800000000E+01 0. -1.
        -11    1    1    2    0    0 -0.25864867022E+02 -0.12405789845E+02 -0.35744616264E+02  0.45832003661E+02  0.00000000000E+00 0.  1.
         11    1    1    2    0    0  0.25032766190E+02 -0.17409449023E+02  0.36360237380E+02  0.47453083785E+02  0.00000000000E+00 0. -1.
</event>
<event>
 7    1  0.2840156E-009  0.1050678E+03  0.7561462E-02  0.1269986E+00
          1   -1    0    0  501    0  0.00000000000E+00  0.00000000000E+00  0.27883440512E+03  0.27883440512E+03  0.00000000000E+00 0. -1.
         -1   -1    0    0    0  501 -0.00000000000E+00 -0.00000000000E+00 -0.50583858826E+02  0.50583858826E+02  0.00000000000E+00 0.  1.
         25    2    1    2    0    0  0.30762975615E+02 -0.11461543149E+02  0.17239402337E+03  0.21550986842E+03  0.12508827465E+03 0.  0.
          5    1    3    3  502    0  0.23796574245E+02 -0.68016755940E+02  0.95024254446E+02  0.11932995168E+03  0.41800000000E+01 0.  1.
         -5    1    3    3    0  502  0.69664013702E+01  0.56555212791E+02  0.77369768926E+02  0.96179916747E+02  0.41800000000E+01 0.  1.
        -11    1    1    2    0    0 -0.60951602379E+00 -0.29748973133E+02  0.55350912734E+02  0.62841836803E+02  0.00000000000E+00 0. -1.
         11    1    1    2    0    0 -0.30153459591E+02  0.41210516282E+02  0.50561018738E+00  0.51066558717E+02  0.00000000000E+00 0.  1.
</event>
<event>
 7    1  0.2840156E-009  0.6916618E+02  0.7561462E-02  0.1362952E+00
          1   -1    0    0  501    0  0.00000000000E+00  0.00000000000E+00  0.95748915191E+02  0.95748915191E+02  0.00000000000E+00 0. -1.
         -1   -1    0    0    0  501 -0.00000000000E+00 -0.00000000000E+00 -0.21757257327E+03  0.21757257327E+03  0.00000000000E+00 0.  1.
         25    2    1    2    0    0  0.36616701004E+02 -0.28667142027E+02  0.23615626210E+02  0.13553102591E+03  0.12509345849E+03 0.  0.
          5    1    3    3  502    0  0.32091371085E+02 -0.40427606193E+02  0.70119496159E+02  0.87169166465E+02  0.41800000000E+01 0.  1.
         -5    1    3    3    0  502  0.45253299191E+01  0.11760464166E+02 -0.46503869949E+02  0.48361859440E+02  0.41800000000E+01 0.  1.
        -11    1    1    2    0    0 -0.17466999339E+02 -0.16614224847E+02 -0.12007132937E+03  0.12246735349E+03  0.00000000000E+00 0.  1.
         11    1    1    2    0    0 -0.19149701665E+02  0.45281366874E+02 -0.25367954910E+02  0.55323109061E+02  0.00000000000E+00 0. -1.
</event>
<event>
 7    1  0.2840156E-009  0.9625471E+02  0.7561462E-02  0.1288375E+00
         -1   -1    0    0    0  501 -0.00000000000E+00  0.00000000000E+00  0.41621046678E+02  0.41621046678E+02  0.00000000000E+00 0.  1.
          1   -1    0    0  501    0  0.00000000000E+00 -0.00000000000E+00 -0.28265957896E+03  0.28265957896E+03  0.00000000000E+00 0. -1.
         25    2    1    2    0    0  0.44966058739E+02  0.10014451504E+02 -0.16459987513E+03  0.21181670233E+03  0.12510380017E+03 0.  0.
          5    1    3    3  502    0  0.80114492264E+02  0.13702544982E+02 -0.59389794366E+02  0.10075074037E+03  0.41800000000E+01 0.  1.
         -5    1    3    3    0  502 -0.35148433525E+02 -0.36880934783E+01 -0.10521008077E+03  0.11106596197E+03  0.41800000000E+01 0.  1.
        -11    1    1    2    0    0 -0.62638655798E+01 -0.30920540364E+02 -0.10598015420E+02  0.33281132181E+02  0.00000000000E+00 0.  1.
         11    1    1    2    0    0 -0.38702193159E+02  0.20906088860E+02 -0.65840641723E+02  0.79182791118E+02  0.00000000000E+00 0. -1.
</event>
<event>
 7    1  0.2840156E-009  0.1391094E+03  0.7561462E-02  0.1214532E+00
         -3   -1    0    0    0  501 -0.00000000000E+00  0.00000000000E+00  0.56792384120E+03  0.56792384120E+03  0.00000000000E+00 0.  1.
          3   -1    0    0  501    0  0.00000000000E+00 -0.00000000000E+00 -0.45468881211E+02  0.45468881211E+02  0.00000000000E+00 0. -1.
         25    2    1    2    0    0  0.89766952243E+02 -0.18679402587E+02  0.13430301963E+03  0.20516183162E+03  0.12508817000E+03 0.  0.
          5    1    3    3  502    0  0.66573178514E+02 -0.71177439433E+02  0.84527521947E+02  0.12907590925E+03  0.41800000000E+01 0.  1.
         -5    1    3    3    0  502  0.23193773729E+02  0.52498036846E+02  0.49775497687E+02  0.76085922367E+02  0.41800000000E+01 0.  1.
        -11    1    1    2    0    0 -0.61509121453E+02  0.51209066158E+02  0.29378132152E+03  0.30448843221E+03  0.00000000000E+00 0.  1.
         11    1    1    2    0    0 -0.28257830791E+02 -0.32529663571E+02  0.94370618838E+02  0.10374245858E+03  0.00000000000E+00 0. -1.
</event>
<event>
 7    1  0.2858813E-009  0.1152719E+03  0.7561462E-02  0.1251107E+00
         -1   -1    0    0    0  501 -0.00000000000E+00  0.00000000000E+00  0.28134427952E+02  0.28134427952E+02  0.00000000000E+00 0.  1.
          1   -1    0    0  501    0  0.00000000000E+00 -0.00000000000E+00 -0.83344872074E+03  0.83344872074E+03  0.00000000000E+00 0. -1.
         25    2    1    2    0    0 -0.48079119350E+02  0.57475795643E+02 -0.65030826576E+03  0.66645856338E+03  0.12510438596E+03 0.  0.
          5    1    3    3  502    0 -0.48322181179E+02  0.93884752977E+02 -0.41136794745E+03  0.42472395815E+03  0.41800000000E+01 0.  1.
         -5    1    3    3    0  502  0.24306182906E+00 -0.36408957335E+02 -0.23894031831E+03  0.24173460523E+03  0.41800000000E+01 0.  1.
        -11    1    1    2    0    0  0.17742259528E+01 -0.37911965764E+02 -0.67120898013E+01  0.38542407492E+02  0.00000000000E+00 0.  1.
         11    1    1    2    0    0  0.46304893397E+02 -0.19563829879E+02 -0.14829393722E+03  0.15658217781E+03  0.00000000000E+00 0. -1.
</event>
<event>
 7    1  0.2840156E-009  0.8038315E+02  0.7561462E-02  0.1327968E+00
         -1   -1    0    0    0  501 -0.00000000000E+00  0.00000000000E+00  0.93589443849E+02  0.93589443849E+02  0.00000000000E+00 0.  1.
          1   -1    0    0  501    0  0.00000000000E+00 -0.00000000000E+00 -0.18941813183E+03  0.18941813183E+03  0.00000000000E+00 0. -1.
         25    2    1    2    0    0 -0.23054195811E+02 -0.55161950950E+02 -0.10158098287E+03  0.17187378481E+03  0.12509022763E+03 0.  0.
          5    1    3    3  502    0 -0.22459222496E+02 -0.10306935840E+02 -0.12044924368E+03  0.12302903034E+03  0.41800000000E+01 0.  1.
         -5    1    3    3    0  502 -0.59497331511E+00 -0.44855015110E+02  0.18868260812E+02  0.48844754476E+02  0.41800000000E+01 0.  1.
        -11    1    1    2    0    0 -0.77733156879E+00  0.64901195251E+02  0.33701968710E+02  0.73134069245E+02  0.00000000000E+00 0.  1.
         11    1    1    2    0    0  0.23831527380E+02 -0.97392443003E+01 -0.27949673819E+02  0.37999721623E+02  0.00000000000E+00 0. -1.
</event>
<event>
 7    1  0.2840156E-009  0.1628422E+03  0.7561462E-02  0.1185525E+00
         -2   -1    0    0    0  501 -0.00000000000E+00  0.00000000000E+00  0.87905848969E+02  0.87905848969E+02  0.00000000000E+00 0.  1.
          2   -1    0    0  501    0  0.00000000000E+00 -0.00000000000E+00 -0.31794594742E+03  0.31794594742E+03  0.00000000000E+00 0. -1.
         25    2    1    2    0    0  0.41108510610E+02 -0.11894913035E+03 -0.14049136965E+03  0.22633025056E+03  0.12509497238E+03 0.  0.
          5    1    3    3  502    0 -0.25235694377E+02  0.79966668951E+01 -0.50349953822E+02  0.57038383585E+02  0.41800000000E+01 0. -1.
         -5    1    3    3    0  502  0.66344204988E+02 -0.12694579725E+03 -0.90141415827E+02  0.16929186697E+03  0.41800000000E+01 0. -1.
        -11    1    1    2    0    0 -0.19000074059E+02  0.12964250599E+03 -0.76000763408E+02  0.15147375420E+03  0.00000000000E+00 0. -1.
         11    1    1    2    0    0 -0.22108436551E+02 -0.10693375633E+02 -0.13547965393E+02  0.28047791633E+02  0.00000000000E+00 0.  1.
</event>
<event>
 7    1  0.2840156E-009  0.9239899E+02  0.7561462E-02  0.1297144E+00
         -4   -1    0    0    0  501 -0.00000000000E+00  0.00000000000E+00  0.50261935037E+02  0.50261935037E+02  0.00000000000E+00 0. -1.
          4   -1    0    0  501    0  0.00000000000E+00 -0.00000000000E+00 -0.31724152493E+03  0.31724152493E+03  0.00000000000E+00 0.  1.
         25    2    1    2    0    0 -0.59225987826E+02 -0.17314703105E+02 -0.13274464691E+03  0.19255288000E+03  0.12509178125E+03 0.  0.
          5    1    3    3  502    0 -0.36155153544E+02 -0.54804761859E+02 -0.13294675890E+03  0.14833431886E+03  0.41800000000E+01 0. -1.
         -5    1    3    3    0  502 -0.23070834282E+02  0.37490058755E+02  0.20211199006E+00  0.44218561138E+02  0.41800000000E+01 0. -1.
        -11    1    1    2    0    0  0.60049453650E+00  0.16142214223E+02  0.10174310597E+02  0.19090528276E+02  0.00000000000E+00 0. -1.
         11    1    1    2    0    0  0.58625493289E+02  0.11724888815E+01 -0.14440925358E+03  0.15586005169E+03  0.00000000000E+00 0.  1.
</event>
<event>
 7    1  0.2840156E-009  0.8995793E+02  0.7561462E-02  0.1302954E+00
          2   -1    0    0  501    0  0.00000000000E+00  0.00000000000E+00  0.16572841449E+03  0.16572841449E+03  0.00000000000E+00 0. -1.
         -2   -1    0    0    0  501 -0.00000000000E+00 -0.00000000000E+00 -0.16624640299E+03  0.16624640299E+03  0.00000000000E+00 0.  1.
         25    2    1    2    0    0  0.50726759402E+02  0.11049123546E+02 -0.11382976389E+03  0.17691947211E+03  0.12509195503E+03 0.  0.
          5    1    3    3  502    0  0.47063038270E+02 -0.36168560502E+02 -0.11486769960E+03  0.12936442769E+03  0.41800000000E+01 0. -1.
         -5    1    3    3    0  502  0.36637211315E+01  0.47217684047E+02  0.10379357103E+01  0.47555044421E+02  0.41800000000E+01 0. -1.
        -11    1    1    2    0    0 -0.12007861537E+01 -0.22094234255E+02 -0.80238104322E+01  0.23536750170E+02  0.00000000000E+00 0.  1.
         11    1    1    2    0    0 -0.49525973248E+02  0.11045110709E+02  0.12133558582E+03  0.13151859520E+03  0.00000000000E+00 0. -1.
</event>
<event>
 7    1  0.2840156E-009  0.1277258E+03  0.7561462E-02  0.1230870E+00
         -1   -1    0    0    0  501 -0.00000000000E+00  0.00000000000E+00  0.67808994921E+02  0.67808994921E+02  0.00000000000E+00 0.  1.
          1   -1    0    0  501    0  0.00000000000E+00 -0.00000000000E+00 -0.31328525337E+03  0.31328525337E+03  0.00000000000E+00 0. -1.
         25    2    1    2    0    0  0.44050386741E+02  0.72487080240E+02 -0.13040511738E+03  0.19962013681E+03  0.12509153052E+03 0.  0.
          5    1    3    3  502    0  0.64704659804E+01 -0.19158626996E+02 -0.90374921985E+02  0.92703931104E+02  0.41800000000E+01 0.  1.
         -5    1    3    3    0  502  0.37579920760E+02  0.91645707236E+02 -0.40030195399E+02  0.10691620571E+03  0.41800000000E+01 0.  1.
        -11    1    1    2    0    0 -0.19664340383E+02 -0.98244211709E+02 -0.10377417085E+03  0.14424870867E+03  0.00000000000E+00 0. -1.
         11    1    1    2    0    0 -0.24386046358E+02  0.25757131469E+02 -0.11296970216E+02  0.37225402813E+02  0.00000000000E+00 0.  1.
</event>
<event>
 7    1  0.2840156E-009  0.1150120E+03  0.7561462E-02  0.1251560E+00
         -3   -1    0    0    0  501 -0.00000000000E+00  0.00000000000E+00  0.84330623370E+03  0.84330623370E+03  0.00000000000E+00 0.  1.
          3   -1    0    0  501    0  0.00000000000E+00 -0.00000000000E+00 -0.24040868440E+02  0.24040868440E+02  0.00000000000E+00 0. -1.
         25    2    1    2    0    0  0.89471219776E+02 -0.16438306341E+02  0.42625429613E+03  0.45344950299E+03  0.12509360381E+03 0.  0.
          5    1    3    3  502    0  0.11353738129E+03 -0.12992851502E+02  0.40516976215E+03  0.42099828942E+03  0.41800000000E+01 0.  1.
         -5    1    3    3    0  502 -0.24066161512E+02 -0.34454548390E+01  0.21084533980E+02  0.32451213569E+02  0.41800000000E+01 0.  1.
        -11    1    1    2    0    0 -0.11346235998E+02  0.12695375695E+01 -0.14316192361E+01  0.11506447349E+02  0.00000000000E+00 0. -1.
         11    1    1    2    0    0 -0.78124983778E+02  0.15168768772E+02  0.39444268837E+03  0.40239115180E+03  0.00000000000E+00 0.  1.
</event>
<event>
 7    1  0.2840156E-009  0.2709089E+03  0.7561462E-02  0.1100761E+00
         -1   -1    0    0    0  501 -0.00000000000E+00  0.00000000000E+00  0.22949479092E+03  0.22949479092E+03  0.00000000000E+00 0.  1.
          1   -1    0    0  501    0  0.00000000000E+00 -0.00000000000E+00 -0.37035967837E+03  0.37035967837E+03  0.00000000000E+00 0. -1.
         25    2    1    2    0    0 -0.12463697563E+03 -0.24005882704E+03 -0.52953777210E+02  0.30267985949E+03  0.12509347978E+03 0.  0.
          5    1    3    3  502    0 -0.10631698572E+03 -0.20684351381E+03  0.57340217903E+01  0.23267550809E+03  0.41800000000E+01 0. -1.
         -5    1    3    3    0  502 -0.18319989906E+02 -0.33215313234E+02 -0.58687799000E+02  0.70004351399E+02  0.41800000000E+01 0. -1.
        -11    1    1    2    0    0  0.71584924904E+02  0.15615968881E+03 -0.11988486070E+02  0.17220329173E+03  0.00000000000E+00 0.  1.
         11    1    1    2    0    0  0.53052050723E+02  0.83899138229E+02 -0.75922624166E+02  0.12497131808E+03  0.00000000000E+00 0. -1.
</event>
<event>
 7    1  0.2840156E-009  0.1527530E+03  0.7561462E-02  0.1197130E+00
          2   -1    0    0  501    0  0.00000000000E+00  0.00000000000E+00  0.57700080169E+03  0.57700080169E+03  0.00000000000E+00 0. -1.
         -2   -1    0    0    0  501 -0.00000000000E+00 -0.00000000000E+00 -0.45639437719E+02  0.45639437719E+02  0.00000000000E+00 0.  1.
         25    2    1    2    0    0  0.49953496677E+02  0.10687612834E+03  0.32818712355E+03  0.37050311427E+03  0.12509161035E+03 0.  0.
          5    1    3    3  502    0  0.60508711547E+02  0.53755156153E+01  0.69595441678E+02  0.92472689176E+02  0.41800000000E+01 0. -1.
         -5    1    3    3    0  502 -0.10555214870E+02  0.10150061273E+03  0.25859168188E+03  0.27803042510E+03  0.41800000000E+01 0. -1.
        -11    1    1    2    0    0 -0.66582526244E+02 -0.50115390039E+02  0.80102785024E+02  0.11559083566E+03  0.00000000000E+00 0.  1.
         11    1    1    2    0    0  0.16629029567E+02 -0.56760738303E+02  0.12307145539E+03  0.13654628948E+03  0.00000000000E+00 0. -1.
</event>
<event>
 7    1  0.2840156E-009  0.1176884E+03  0.7561462E-02  0.1246960E+00
         -2   -1    0    0    0  501 -0.00000000000E+00  0.00000000000E+00  0.23548348940E+03  0.23548348940E+03  0.00000000000E+00 0. -1.
          2   -1    0    0  501    0  0.00000000000E+00 -0.00000000000E+00 -0.89142819296E+02  0.89142819296E+02  0.00000000000E+00 0.  1.
         25    2    1    2    0    0 -0.86187003649E+01  0.95063552766E+02  0.81427913559E+02  0.17717282773E+03  0.12509334402E+03 0.  0.
          5    1    3    3  502    0 -0.48612392339E+02  0.23128926739E+02 -0.90938101367E+01  0.54756567860E+02  0.41800000000E+01 0. -1.
         -5    1    3    3    0  502  0.39993691974E+02  0.71934626027E+02  0.90521723696E+02  0.12241625987E+03  0.41800000000E+01 0. -1.
        -11    1    1    2    0    0  0.16632350075E+02 -0.39909770716E+02  0.78919624177E+02  0.89987398828E+02  0.00000000000E+00 0. -1.
         11    1    1    2    0    0 -0.80136497100E+01 -0.55153782050E+02 -0.14006867628E+02  0.57466082143E+02  0.00000000000E+00 0.  1.
</event>
<event>
 7    1  0.2840156E-009  0.1713927E+03  0.7561462E-02  0.1176403E+00
          2   -1    0    0  501    0  0.00000000000E+00  0.00000000000E+00  0.74446453848E+03  0.74446453848E+03  0.00000000000E+00 0. -1.
         -2   -1    0    0    0  501 -0.00000000000E+00 -0.00000000000E+00 -0.74632004776E+02  0.74632004776E+02  0.00000000000E+00 0.  1.
         25    2    1    2    0    0  0.14646534002E+03  0.57788169926E+02  0.10733186419E+03  0.22794166934E+03  0.12508280114E+03 0.  0.
          5    1    3    3  502    0 -0.80841481949E+01  0.20374031408E+02 -0.15329026373E+02  0.27072237761E+02  0.41800000000E+01 0.  1.
         -5    1    3    3    0  502  0.15454948822E+03  0.37414138519E+02  0.12266089056E+03  0.20086943158E+03  0.41800000000E+01 0.  1.
        -11    1    1    2    0    0 -0.72241995834E+02 -0.47525609216E+02  0.43290428603E+03  0.44145635158E+03  0.00000000000E+00 0.  1.
         11    1    1    2    0    0 -0.74223344190E+02 -0.10262560710E+02  0.12959638349E+03  0.14969852234E+03  0.00000000000E+00 0. -1.
</event>
<event>
 7    1  0.2840156E-009  0.1123391E+03  0.7561462E-02  0.1256298E+00
          1   -1    0    0  501    0  0.00000000000E+00  0.00000000000E+00  0.20582995038E+02  0.20582995038E+02  0.00000000000E+00 0. -1.
         -1   -1    0    0    0  501 -0.00000000000E+00 -0.00000000000E+00 -0.69627792545E+03  0.69627792545E+03  0.00000000000E+00 0.  1.
         25    2    1    2    0    0  0.18017475616E+02 -0.27057245045E+02 -0.26657065339E+03  0.29625120117E+03  0.12509251382E+03 0.  0.
          5    1    3    3  502    0 -0.52976989799E+02 -0.94289025207E+01 -0.13939775315E+03  0.14948134209E+03  0.41800000000E+01 0.  1.
         -5    1    3    3    0  502  0.70994465414E+02 -0.17628342524E+02 -0.12717290024E+03  0.14676985908E+03  0.41800000000E+01 0.  1.
        -11    1    1    2    0    0  0.26257599029E+02  0.42996498232E+02 -0.22441370915E+03  0.22999928961E+03  0.00000000000E+00 0. -1.
         11    1    1    2    0    0 -0.44275074645E+02 -0.15939253187E+02 -0.18471056787E+03  0.19061042970E+03  0.00000000000E+00 0.  1.
</event>
<event>
 7    1  0.2840156E-009  0.1081862E+03  0.7561462E-02  0.1263966E+00
          1   -1    0    0  501    0  0.00000000000E+00  0.00000000000E+00  0.11327061555E+03  0.11327061555E+03  0.00000000000E+00 0. -1.
         -1   -1    0    0    0  501 -0.00000000000E+00 -0.00000000000E+00 -0.17952842204E+03  0.17952842204E+03  0.00000000000E+00 0.  1.
         25    2    1    2    0    0  0.72591129337E+02  0.51438670178E+02 -0.62570267299E+02  0.16576313402E+03  0.12508784674E+03 0.  0.
          5    1    3    3  502    0  0.22670860970E+02  0.12372043496E+02  0.38402904446E+02  0.46468170475E+02  0.41800000000E+01 0.  1.
         -5    1    3    3    0  502  0.49920268367E+02  0.39066626683E+02 -0.10097317175E+03  0.11929496354E+03  0.41800000000E+01 0.  1.
        -11    1    1    2    0    0 -0.86246989384E+02 -0.14704286393E+02  0.14945939190E+01  0.87504245766E+02  0.00000000000E+00 0.  1.
         11    1    1    2    0    0  0.13655860046E+02 -0.36734383785E+02 -0.51821331017E+01  0.39531657809E+02  0.00000000000E+00 0. -1.
</event>
<event>
 7    1  0.2840156E-009  0.1096103E+03  0.7561462E-02  0.1261293E+00
         -1   -1    0    0    0  501 -0.00000000000E+00  0.00000000000E+00  0.13054233640E+03  0.13054233640E+03  0.00000000000E+00 0.  1.
          1   -1    0    0  501    0  0.00000000000E+00 -0.00000000000E+00 -0.95577653917E+02  0.95577653917E+02  0.00000000000E+00 0. -1.
         25    2    1    2    0    0 -0.11093565641E+02  0.21625243511E+02  0.26392654289E+02  0.13013648376E+03  0.12509282093E+03 0.  0.
          5    1    3    3  502    0  0.15066970051E+02 -0.48505372485E+02  0.96013554251E+00  0.50972335699E+02  0.41800000000E+01 0.  1.
         -5    1    3    3    0  502 -0.26160535692E+02  0.70130615996E+02  0.25432518746E+02  0.79164148056E+02  0.41800000000E+01 0.  1.
        -11    1    1    2    0    0 -0.39748982859E+01  0.34728979583E+02  0.13431604205E+02  0.37447427559E+02  0.00000000000E+00 0.  1.
         11    1    1    2    0    0  0.15068463926E+02 -0.56354223094E+02 -0.48595760134E+01  0.58536079000E+02  0.00000000000E+00 0. -1.
</event>
<event>
 7    1  0.3030649E-009  0.1068456E+03  0.7561462E-02  0.1266525E+00
          2   -1    0    0  501    0  0.00000000000E+00  0.00000000000E+00  0.60283197168E+03  0.60283197168E+03  0.00000000000E+00 0. -1.
         -2   -1    0    0    0  501 -0.00000000000E+00 -0.00000000000E+00 -0.20530538534E+02  0.20530538534E+02  0.00000000000E+00 0.  1.
         25    2    1    2    0    0 -0.20979686043E+02  0.87938257128E+01  0.29514178631E+03  0.32135906628E+03  0.12508196055E+03 0.  0.
          5    1    3    3  502    0 -0.31843339414E+02  0.63522953773E+02  0.16503665781E+03  0.17973239759E+03  0.41800000000E+01 0. -1.
         -5    1    3    3    0  502  0.10863653371E+02 -0.54729128061E+02  0.13010512850E+03  0.14162666869E+03  0.41800000000E+01 0. -1.
        -11    1    1    2    0    0  0.46552158052E+02 -0.28224930985E+02  0.11979386150E+03  0.13158388732E+03  0.00000000000E+00 0.  1.
         11    1    1    2    0    0 -0.25572472009E+02  0.19431105273E+02  0.16736578533E+03  0.17041955661E+03  0.00000000000E+00 0. -1.
</event>
<event>
 7    1  0.2840156E-009  0.7277566E+02  0.7561462E-02  0.1350901E+00
         -2   -1    0    0    0  501 -0.00000000000E+00  0.00000000000E+00  0.90360944422E+02  0.90360944422E+02  0.00000000000E+00 0.  1.
          2   -1    0    0  501    0  0.00000000000E+00 -0.00000000000E+00 -0.13607834239E+03  0.13607834239E+03  0.00000000000E+00 0. -1.
         25    2    1    2    0    0  0.16402258905E+02  0.13114826803E+02 -0.30263812860E+02  0.13040212010E+03  0.12509109392E+03 0.  0.
          5    1    3    3  502    0  0.69768317907E+02  0.26480874203E+01 -0.45220371684E+01  0.70089598164E+02  0.41800000000E+01 0. -1.
         -5    1    3    3    0  502 -0.53366059002E+02  0.10466739383E+02 -0.25741775691E+02  0.60312521938E+02  0.41800000000E+01 0. -1.
        -11    1    1    2    0    0 -0.87656735639E+01 -0.59603316917E+01  0.39088506880E+02  0.40500295765E+02  0.00000000000E+00 0.  1.
         11    1    1    2    0    0 -0.76365853408E+01 -0.71544951117E+01 -0.54542091989E+02  0.55536870946E+02  0.00000000000E+00 0. -1.
</event>
<event>
 7    1  0.2840156E-009  0.8957900E+02  0.7561462E-02  0.1303874E+00
          1   -1    0    0  501    0  0.00000000000E+00  0.00000000000E+00  0.19204138153E+03  0.19204138153E+03  0.00000000000E+00 0. -1.
         -1   -1    0    0    0  501 -0.00000000000E+00 -0.00000000000E+00 -0.72649686715E+02  0.72649686715E+02  0.00000000000E+00 0.  1.
         25    2    1    2    0    0 -0.45647955601E+02  0.85915228597E+01  0.62360865720E+02  0.14729361921E+03  0.12509589350E+03 0.  0.
          5    1    3    3  502    0 -0.15181992312E+02  0.59226088833E+02  0.63217579996E+02  0.88046336151E+02  0.41800000000E+01 0. -1.
         -5    1    3    3    0  502 -0.30465963289E+02 -0.50634565973E+02 -0.85671427583E+00  0.59247283058E+02  0.41800000000E+01 0. -1.
        -11    1    1    2    0    0  0.17795399195E+02 -0.21521415753E+02 -0.20081146742E+02  0.34396221057E+02  0.00000000000E+00 0.  1.
         11    1    1    2    0    0  0.27852556406E+02  0.12929892894E+02  0.77111975836E+02  0.83001227978E+02  0.00000000000E+00 0. -1.
</event>
<event>
 7    1  0.2840156E-009  0.9468364E+02  0.7561462E-02  0.1291890E+00
          2   -1    0    0  501    0  0.00000000000E+00  0.00000000000E+00  0.21436649567E+02  0.21436649567E+02  0.00000000000E+00 0. -1.
         -2   -1    0    0    0  501 -0.00000000000E+00 -0.00000000000E+00 -0.67004697002E+03  0.67004697002E+03  0.00000000000E+00 0.  1.
         25    2    1    2    0    0 -0.45251989970E+02  0.34399474886E+01 -0.30974181885E+03  0.33711738776E+03  0.12509421629E+03 0.  0.
          5    1    3    3  502    0 -0.19874130154E+01 -0.36393098534E+02 -0.20698649368E+02  0.42122605772E+02  0.41800000000E+01 0. -1.
         -5    1    3    3    0  502 -0.43264576954E+02  0.39833046022E+02 -0.28904316949E+03  0.29499478199E+03  0.41800000000E+01 0. -1.
        -11    1    1    2    0    0  0.83050063270E+01  0.37597937045E+02 -0.21940537762E+03  0.22275838419E+03  0.00000000000E+00 0.  1.
         11    1    1    2    0    0  0.36946983643E+02 -0.41037884534E+02 -0.11946312399E+03  0.13160784764E+03  0.00000000000E+00 0. -1.
</event>
<event>
 7    1  0.2840156E-009  0.1388165E+03  0.7561462E-02  0.1214930E+00
          1   -1    0    0  501    0  0.00000000000E+00  0.00000000000E+00  0.72909617612E+03  0.72909617612E+03  0.00000000000E+00 0. -1.
         -1   -1    0    0    0  501 -0.00000000000E+00 -0.00000000000E+00 -0.33385656985E+02  0.33385656985E+02  0.00000000000E+00 0.  1.
         25    2    1    2    0    0 -0.39620449828E+02 -0.96585620310E+02  0.27438619672E+03  0.31911405174E+03  0.12508969171E+03 0.  0.
          5    1    3    3  502    0  0.27701687533E+02 -0.60531698133E+02  0.53954071861E+02  0.85790350515E+02  0.41800000000E+01 0. -1.
         -5    1    3    3    0  502 -0.67322137361E+02 -0.36053922177E+02  0.22043212486E+03  0.23332370122E+03  0.41800000000E+01 0. -1.
        -11    1    1    2    0    0 -0.13452530021E+02  0.76546623529E+02  0.29163637570E+03  0.30181473086E+03  0.00000000000E+00 0. -1.
         11    1    1    2    0    0  0.53072979849E+02  0.20038996781E+02  0.12968794672E+03  0.14155305050E+03  0.00000000000E+00 0.  1.
</event>
<event>
 7    1  0.2840156E-009  0.3591653E+03  0.7561462E-02  0.1058915E+00
          1   -1    0    0  501    0  0.00000000000E+00  0.00000000000E+00  0.10558101522E+04  0.10558101522E+04  0.00000000000E+00 0. -1.
         -1   -1    0    0    0  501 -0.00000000000E+00 -0.00000000000E+00 -0.13388619061E+03  0.13388619061E+03  0.00000000000E+00 0.  1.
         25    2    1    2    0    0  0.21404681945E+03 -0.27532384048E+03  0.32812852260E+03  0.49490901553E+03  0.12508936109E+03 0.  0.
          5    1    3    3  502    0  0.82004801017E+02 -0.17224592695E+03  0.11138590941E+03  0.22094736920E+03  0.41800000000E+01 0. -1.
         -5    1    3    3    0  502  0.13204201843E+03 -0.10307791353E+03  0.21674261318E+03  0.27396164633E+03  0.41800000000E+01 0. -1.
        -11    1    1    2    0    0 -0.12572519824E+03  0.89881793226E+02  0.23233309407E+03  0.27904162562E+03  0.00000000000E+00 0. -1.
         11    1    1    2    0    0 -0.88321621208E+02  0.18544204725E+03  0.36146234495E+03  0.41574570170E+03  0.00000000000E+00 0.  1.
</event>
<event>
 7    1  0.2840156E-009  0.1111372E+03  0.7561462E-02  0.1258478E+00
          2   -1    0    0  501    0  0.00000000000E+00  0.00000000000E+00  0.47460731855E+02  0.47460731855E+02  0.00000000000E+00 0.  1.
         -2   -1    0    0    0  501 -0.00000000000E+00 -0.00000000000E+00 -0.44711885298E+03  0.44711885298E+03  0.00000000000E+00 0. -1.
         25    2    1    2    0    0  0.23572851803E+02  0.74174314814E+02 -0.31213237281E+03  0.34515453191E+03  0.12509006523E+03 0.  0.
          5    1    3    3  502    0 -0.27922609799E+02  0.21421315225E+02 -0.23763836341E+03  0.24026653752E+03  0.41800000000E+01 0. -1.
         -5    1    3    3    0  502  0.51495461602E+02  0.52752999589E+02 -0.74494009396E+02  0.10488799439E+03  0.41800000000E+01 0. -1.
        -11    1    1    2    0    0  0.25503619812E+02 -0.54406253885E+02 -0.73020282932E+02  0.94564458465E+02  0.00000000000E+00 0. -1.
         11    1    1    2    0    0 -0.49076471615E+02 -0.19768060929E+02 -0.14505465384E+02  0.54860594465E+02  0.00000000000E+00 0.  1.
</event>
<event>
 7    1  0.2840156E-009  0.2007622E+03  0.7561462E-02  0.1149097E+00
         -2   -1    0    0    0  501 -0.00000000000E+00  0.00000000000E+00  0.35279639186E+02  0.35279639186E+02  0.00000000000E+00 0.  1.
          2   -1    0    0  501    0  0.00000000000E+00 -0.00000000000E+00 -0.12138819919E+04  0.12138819919E+04  0.00000000000E+00 0. -1.
         25    2    1    2    0    0 -0.10239647565E+03  0.13988858978E+03 -0.52923421294E+03  0.57078071803E+03  0.12509164703E+03 0.  0.
          5    1    3    3  502    0 -0.12968873915E+03  0.13191243690E+03 -0.45957544508E+03  0.49542620257E+03  0.41800000000E+01 0. -1.
         -5    1    3    3    0  502  0.27292263496E+02  0.79761528813E+01 -0.69658767853E+02  0.75354515460E+02  0.41800000000E+01 0. -1.
        -11    1    1    2    0    0  0.29072139846E+02 -0.10028723820E+03 -0.25977350018E+03  0.27997319667E+03  0.00000000000E+00 0.  1.
         11    1    1    2    0    0  0.73324335808E+02 -0.39601351583E+02 -0.38959463963E+03  0.39840771641E+03  0.00000000000E+00 0. -1.
</event>
<event>
 7    1  0.2840156E-009  0.7968962E+02  0.7561462E-02  0.1329935E+00
          1   -1    0    0  501    0  0.00000000000E+00  0.00000000000E+00  0.22477921989E+03  0.22477921989E+03  0.00000000000E+00 0. -1.
         -1   -1    0    0    0  501 -0.00000000000E+00 -0.00000000000E+00 -0.63791370653E+02  0.63791370653E+02  0.00000000000E+00 0.  1.
         25    2    1    2    0    0 -0.14171903840E+01 -0.75241034440E+01  0.14318502436E+03  0.19028997115E+03  0.12509876641E+03 0.  0.
          5    1    3    3  502    0 -0.26415289472E+02 -0.21190878151E+02  0.15533350370E+03  0.15903707305E+03  0.41800000000E+01 0. -1.
         -5    1    3    3    0  502  0.24998099087E+02  0.13666774707E+02 -0.12148479342E+02  0.31252898093E+02  0.41800000000E+01 0. -1.
        -11    1    1    2    0    0 -0.34774717388E+02 -0.28824916688E+02  0.52459562370E+01  0.45471714816E+02  0.00000000000E+00 0.  1.
         11    1    1    2    0    0  0.36191907772E+02  0.36349020132E+02  0.12556868645E+02  0.52808904580E+02  0.00000000000E+00 0. -1.
</event>
<event>
 7    1  0.2840156E-009  0.1210324E+03  0.7561462E-02  0.1241404E+00
         -2   -1    0    0    0  501 -0.00000000000E+00  0.00000000000E+00  0.20163783851E+03  0.20163783851E+03  0.00000000000E+00 0.  1.
          2   -1    0    0  501    0  0.00000000000E+00 -0.00000000000E+00 -0.10522123770E+03  0.10522123770E+03  0.00000000000E+00 0. -1.
         25    2    1    2    0    0 -0.51556736636E+02  0.61492332299E+02 -0.52680056382E+01  0.14871242800E+03  0.12509288683E+03 0.  0.
          5    1    3    3  502    0 -0.80488866525E+02  0.53512077083E+02  0.30871007330E+02  0.10155043831E+03  0.41800000000E+01 0. -1.
         -5    1    3    3    0  502  0.28932129889E+02  0.79802552163E+01 -0.36139012968E+02  0.47161989691E+02  0.41800000000E+01 0. -1.
        -11    1    1    2    0    0  0.38684505839E+02  0.11925144455E+02  0.61052841798E+02  0.73254007084E+02  0.00000000000E+00 0.  1.
         11    1    1    2    0    0  0.12872230796E+02 -0.73417476755E+02  0.40631764648E+02  0.84892641124E+02  0.00000000000E+00 0. -1.
</event>
<event>
 7    1  0.2840156E-009  0.1068755E+03  0.7561462E-02  0.1266468E+00
         -4   -1    0    0    0  501 -0.00000000000E+00  0.00000000000E+00  0.76233559757E+02  0.76233559757E+02  0.00000000000E+00 0.  1.
          4   -1    0    0  501    0  0.00000000000E+00 -0.00000000000E+00 -0.15853030474E+03  0.15853030474E+03  0.00000000000E+00 0. -1.
         25    2    1    2    0    0  0.54016228445E+01  0.17072907619E+02 -0.47165589950E+02  0.13488063023E+03  0.12509008687E+03 0.  0.
          5    1    3    3  502    0 -0.46307243453E+02 -0.30752829294E+02 -0.18744351110E+02  0.58812587125E+02  0.41800000000E+01 0.  1.
         -5    1    3    3    0  502  0.51708866298E+02  0.47825736913E+02 -0.28421238840E+02  0.76068043108E+02  0.41800000000E+01 0.  1.
        -11    1    1    2    0    0  0.38680689683E+02 -0.19458886771E+02 -0.35095589590E+02  0.55736383426E+02  0.00000000000E+00 0. -1.
         11    1    1    2    0    0 -0.44082312528E+02  0.23859791519E+01 -0.35565445916E-01  0.44146850841E+02  0.00000000000E+00 0.  1.
</event>
<event>
 7    1  0.2840156E-009  0.1336271E+03  0.7561462E-02  0.1222171E+00
          2   -1    0    0  501    0  0.00000000000E+00  0.00000000000E+00  0.47345890891E+03  0.47345890891E+03  0.00000000000E+00 0. -1.
         -2   -1    0    0    0  501 -0.00000000000E+00 -0.00000000000E+00 -0.52306886886E+02  0.52306886886E+02  0.00000000000E+00 0.  1.
         25    2    1    2    0    0  0.56376599874E+02  0.98240733987E+02  0.23104834958E+03  0.28611545960E+03  0.12509657689E+03 0.  0.
          5    1    3    3  502    0  0.69617359371E+02  0.10039149003E+03  0.11059260738E+03  0.16484303201E+03  0.41800000000E+01 0.  1.
         -5    1    3    3    0  502 -0.13240759497E+02 -0.21507560399E+01  0.12045574220E+03  0.12127242758E+03  0.41800000000E+01 0.  1.
        -11    1    1    2    0    0  0.89182945186E+01 -0.47342100420E+02  0.23479422567E+02  0.53591918545E+02  0.00000000000E+00 0.  1.
         11    1    1    2    0    0 -0.65294894392E+02 -0.50898633568E+02  0.16662424987E+03  0.18605841765E+03  0.00000000000E+00 0. -1.
</event>
<event>
 7    1  0.2840156E-009  0.5913590E+02  0.7561462E-02  0.1401494E+00
          2   -1    0    0  501    0  0.00000000000E+00  0.00000000000E+00  0.43551849976E+03  0.43551849976E+03  0.00000000000E+00 0. -1.
         -2   -1    0    0    0  501 -0.00000000000E+00 -0.00000000000E+00 -0.34705324738E+02  0.34705324738E+02  0.00000000000E+00 0.  1.
         25    2    1    2    0    0  0.40907106523E+02 -0.21757260169E+02  0.28659348209E+03  0.31612027924E+03  0.12509771074E+03 0.  0.
          5    1    3    3  502    0  0.24119988591E+02 -0.23018093314E+02  0.29495619149E+03  0.29686399878E+03  0.41800000000E+01 0. -1.
         -5    1    3    3    0  502  0.16787117932E+02  0.12608331450E+01 -0.83627094007E+01  0.19256280461E+02  0.41800000000E+01 0. -1.
        -11    1    1    2    0    0 -0.23320798604E+02 -0.14195116120E+02 -0.55184983083E+01  0.27853452080E+02  0.00000000000E+00 0.  1.
         11    1    1    2    0    0 -0.17586307919E+02  0.35952376289E+02  0.11973819124E+03  0.12625009318E+03  0.00000000000E+00 0. -1.
</event>
<event>
 7    1  0.2896655E-009  0.2057057E+03  0.7561462E-02  0.1145012E+00
          1   -1    0    0  501    0  0.00000000000E+00  0.00000000000E+00  0.17279581476E+04  0.17279581476E+04  0.00000000000E+00 0. -1.
         -1   -1    0    0    0  501 -0.00000000000E+00 -0.00000000000E+00 -0.25415863171E+02  0.25415863171E+02  0.00000000000E+00 0.  1.
         25    2    1    2    0    0 -0.13064772442E+03 -0.11726411118E+03  0.73967644258E+03  0.77044691818E+03  0.12509002500E+03 0.  0.
          5    1    3    3  502    0 -0.15522904157E+03 -0.10528770191E+03  0.65722794415E+03  0.68348196647E+03  0.41800000000E+01 0. -1.
         -5    1    3    3    0  502  0.24581317150E+02 -0.11976409270E+02  0.82448498429E+02  0.86964951704E+02  0.41800000000E+01 0. -1.
        -11    1    1    2    0    0  0.13764389010E+02  0.67857530369E+02  0.39854936044E+03  0.40451909169E+03  0.00000000000E+00 0.  1.
         11    1    1    2    0    0  0.11688333541E+03  0.49406580812E+02  0.56431648145E+03  0.57840800095E+03  0.00000000000E+00 0. -1.
</event>
<event>
 7    1  0.2840156E-009  0.1007156E+03  0.7561462E-02  0.1278798E+00
          3   -1    0    0  501    0  0.00000000000E+00  0.00000000000E+00  0.26720545029E+03  0.26720545029E+03  0.00000000000E+00 0. -1.
         -3   -1    0    0    0  501 -0.00000000000E+00 -0.00000000000E+00 -0.49427357135E+02  0.49427357135E+02  0.00000000000E+00 0.  1.
         25    2    1    2    0    0  0.34053791073E+02 -0.15639846897E+02  0.87992439051E+02  0.15745986552E+03  0.12508666764E+03 0.  0.
          5    1    3    3  502    0  0.17270176418E+02 -0.62782850443E+02  0.11951529894E+02  0.66334431256E+02  0.41800000000E+01 0.  1.
         -5    1    3    3    0  502  0.16783614655E+02  0.47143003547E+02  0.76040909157E+02  0.91125434263E+02  0.41800000000E+01 0.  1.
        -11    1    1    2    0    0 -0.48322488154E+02  0.36594290665E+02  0.11454114606E+03  0.12959119998E+03  0.00000000000E+00 0. -1.
         11    1    1    2    0    0  0.14268697081E+02 -0.20954443768E+02  0.15244508044E+02  0.29581741928E+02  0.00000000000E+00 0.  1.
</event>
<event>
 7    1  0.2840156E-009  0.1722639E+03  0.7561462E-02  0.1175507E+00
         -1   -1    0    0    0  501 -0.00000000000E+00  0.00000000000E+00  0.17614387146E+04  0.17614387146E+04  0.00000000000E+00 0.  1.
          1   -1    0    0  501    0  0.00000000000E+00 -0.00000000000E+00 -0.21501545541E+02  0.21501545541E+02  0.00000000000E+00 0. -1.
         25    2    1    2    0    0  0.14751598052E+03 -0.19912507562E+02  0.11998435169E+04  0.12154958858E+04  0.12509320841E+03 0.  0.
          5    1    3    3  502    0  0.28296089657E+02  0.39583607218E+02  0.54733326338E+03  0.54950769262E+03  0.41800000000E+01 0. -1.
         -5    1    3    3    0  502  0.11921989086E+03 -0.59496114780E+02  0.65251025355E+03  0.66598819317E+03  0.41800000000E+01 0. -1.
        -11    1    1    2    0    0 -0.95388558164E+02 -0.19091407807E+02  0.21628006936E+03  0.23715085343E+03  0.00000000000E+00 0. -1.
         11    1    1    2    0    0 -0.52127422355E+02  0.39003915369E+02  0.32381358281E+03  0.33029352096E+03  0.00000000000E+00 0.  1.
</event>
<event>
 7    1  0.2840156E-009  0.1113659E+03  0.7561462E-02  0.1258061E+00
          4   -1    0    0  501    0  0.00000000000E+00  0.00000000000E+00  0.13853645095E+03  0.13853645095E+03  0.00000000000E+00 0. -1.
         -4   -1    0    0    0  501 -0.00000000000E+00 -0.00000000000E+00 -0.12457520859E+03  0.12457520859E+03  0.00000000000E+00 0.  1.
         25    2    1    2    0    0  0.41778970325E+02 -0.47034037710E+02 -0.32977104215E+02  0.14384839393E+03  0.12508872040E+03 0.  0.
          5    1    3    3  502    0  0.15789543814E+02  0.34353760631E+02  0.20257875979E+02  0.43096919873E+02  0.41800000000E+01 0.  1.
         -5    1    3    3    0  502  0.25989426511E+02 -0.81387798341E+02 -0.53234980194E+02  0.10075147406E+03  0.41800000000E+01 0.  1.
        -11    1    1    2    0    0 -0.12887055494E+02 -0.21338238272E+02 -0.88041350238E+01  0.26436894776E+02  0.00000000000E+00 0.  1.
         11    1    1    2    0    0 -0.28891914831E+02  0.68372275982E+02  0.55742481606E+02  0.92826370828E+02  0.00000000000E+00 0. -1.
</event>
<event>
 7    1  0.2840156E-009  0.1168768E+03  0.7561462E-02  0.1248340E+00
         -1   -1    0    0    0  501 -0.00000000000E+00  0.00000000000E+00  0.46345666857E+02  0.46345666857E+02  0.00000000000E+00 0.  1.
          1   -1    0    0  501    0  0.00000000000E+00 -0.00000000000E+00 -0.36220087530E+03  0.36220087530E+03  0.00000000000E+00 0. -1.
         25    2    1    2    0    0 -0.14572077149E+02 -0.64848152334E+02 -0.13624831947E+03  0.19654197073E+03  0.12509002120E+03 0.  0.
          5    1    3    3  502    0  0.32692771460E+02  0.23808347970E+02 -0.32414976879E+02  0.51998633299E+02  0.41800000000E+01 0.  1.
         -5    1    3    3    0  502 -0.47264848610E+02 -0.88656500304E+02 -0.10383334260E+03  0.14454333743E+03  0.41800000000E+01 0.  1.
        -11    1    1    2    0    0 -0.10940270976E+02  0.66097256279E+02 -0.60764246817E+02  0.90447943636E+02  0.00000000000E+00 0.  1.
         11    1    1    2    0    0  0.25512348126E+02 -0.12491039456E+01 -0.11884264216E+03  0.12155662780E+03  0.00000000000E+00 0. -1.
</event>
<event>
 7    1  0.2840156E-009  0.1174455E+03  0.7561462E-02  0.1247372E+00
          1   -1    0    0  501    0  0.00000000000E+00  0.00000000000E+00  0.99253156576E+03  0.99253156576E+03  0.00000000000E+00 0. -1.
         -1   -1    0    0    0  501 -0.00000000000E+00 -0.00000000000E+00 -0.18907961931E+02  0.18907961931E+02  0.00000000000E+00 0.  1.
         25    2    1    2    0    0 -0.50837871034E+02  0.38772400480E+02  0.73714739767E+03  0.75041596946E+03  0.12510017249E+03 0.  0.
          5    1    3    3  502    0  0.10348480883E+02 -0.36172743804E+02  0.31701615457E+03  0.31926834028E+03  0.41800000000E+01 0. -1.
         -5    1    3    3    0  502 -0.61186351917E+02  0.74945144284E+02  0.42013124311E+03  0.43114762918E+03  0.41800000000E+01 0. -1.
        -11    1    1    2    0    0  0.50275649443E+02 -0.60385456524E+02  0.12630874854E+03  0.14875464445E+03  0.00000000000E+00 0.  1.
         11    1    1    2    0    0  0.56222159071E+00  0.21613056044E+02  0.11016745762E+03  0.11226891378E+03  0.00000000000E+00 0. -1.
</event>
<event>
 7    1  0.2840156E-009  0.1032494E+03  0.7561462E-02  0.1273608E+00
         -3   -1    0    0    0  501 -0.00000000000E+00  0.00000000000E+00  0.49785022969E+03  0.49785022969E+03  0.00000000000E+00 0.  1.
          3   -1    0    0  501    0  0.00000000000E+00 -0.00000000000E+00 -0.41382277649E+02  0.41382277649E+02  0.00000000000E+00 0. -1.
         25    2    1    2    0    0 -0.20973954176E+02  0.85299771762E+02  0.30975548247E+03  0.34541533394E+03  0.12508931284E+03 0.  0.
          5    1    3    3  502    0  0.87520030429E+01  0.37294193095E+02  0.92590524863E+01  0.39631513330E+02  0.41800000000E+01 0. -1.
         -5    1    3    3    0  502 -0.29725957219E+02  0.48005578667E+02  0.30049642998E+03  0.30578382061E+03  0.41800000000E+01 0. -1.
        -11    1    1    2    0    0 -0.19169382659E+01 -0.88245208581E+02  0.14614387295E+03  0.17073055699E+03  0.00000000000E+00 0.  1.
         11    1    1    2    0    0  0.22890892442E+02  0.29454368182E+01  0.56859662024E+00  0.23086616404E+02  0.00000000000E+00 0. -1.
</event>
<event>
 7    1  0.2840156E-009  0.1150064E+03  0.7561462E-02  0.1251570E+00
         -1   -1    0    0    0  501 -0.00000000000E+00  0.00000000000E+00  0.56183900714E+03  0.56183900714E+03  0.00000000000E+00 0.  1.
          1   -1    0    0  501    0  0.00000000000E+00 -0.00000000000E+00 -0.34738340301E+02  0.34738340301E+02  0.00000000000E+00 0. -1.
         25    2    1    2    0    0  0.78335008939E+02 -0.79121702882E+01  0.35867715565E+03  0.38793956374E+03  0.12509527195E+03 0.  0.
          5    1    3    3  502    0  0.10611202832E+03  0.20160255564E+02  0.26070837395E+03  0.28222779293E+03  0.41800000000E+01 0. -1.
         -5    1    3    3    0  502 -0.27777019376E+02 -0.28072425852E+02  0.97968781708E+02  0.10571177081E+03  0.41800000000E+01 0. -1.
        -11    1    1    2    0    0 -0.39087501056E+02  0.15829164575E+02  0.75307836378E+01  0.42838159299E+02  0.00000000000E+00 0. -1.
         11    1    1    2    0    0 -0.39247507883E+02 -0.79169942868E+01  0.16089272755E+03  0.16579962440E+03  0.00000000000E+00 0.  1.
</event>
<event>
 7    1  0.2840156E-009  0.9641296E+02  0.7561462E-02  0.1288025E+00
         -2   -1    0    0    0  501 -0.00000000000E+00  0.00000000000E+00  0.10577301939E+03  0.10577301939E+03  0.00000000000E+00 0.  1.
          2   -1    0    0  501    0  0.00000000000E+00 -0.00000000000E+00 -0.16313590953E+03  0.16313590953E+03  0.00000000000E+00 0. -1.
         25    2    1    2    0    0  0.13545909111E+01  0.56478883624E+02 -0.71516891618E+02  0.15477509764E+03  0.12509582667E+03 0.  0.
          5    1    3    3  502    0  0.11548590613E+02  0.67318851859E+02 -0.10070072416E+03  0.12175100003E+03  0.41800000000E+01 0. -1.
         -5    1    3    3    0  502 -0.10193999702E+02 -0.10839968235E+02  0.29183832545E+02  0.33024097614E+02  0.41800000000E+01 0. -1.
        -11    1    1    2    0    0 -0.17734528973E+02 -0.79070411846E+02 -0.35053746732E+01  0.81110610890E+02  0.00000000000E+00 0. -1.
         11    1    1    2    0    0  0.16379938062E+02  0.22591528221E+02  0.17659376158E+02  0.33023220385E+02  0.00000000000E+00 0.  1.
</event>
<event>
 7    1  0.2840156E-009  0.1073169E+03  0.7561462E-02  0.1265621E+00
          2   -1    0    0  501    0  0.00000000000E+00  0.00000000000E+00  0.32160958482E+02  0.32160958482E+02  0.00000000000E+00 0. -1.
         -2   -1    0    0    0  501 -0.00000000000E+00 -0.00000000000E+00 -0.55861552121E+03  0.55861552121E+03  0.00000000000E+00 0.  1.
         25    2    1    2    0    0  0.60722949609E+02  0.45959608382E+02 -0.35309384572E+03  0.38225859828E+03  0.12508720905E+03 0.  0.
          5    1    3    3  502    0 -0.10091170102E+02 -0.84098618851E+01  0.38359013795E+01  0.14308879423E+02  0.41800000000E+01 0.  1.
         -5    1    3    3    0  502  0.70814119711E+02  0.54369470267E+02 -0.35692974710E+03  0.36794971886E+03  0.41800000000E+01 0.  1.
        -11    1    1    2    0    0 -0.41317279188E+01  0.22371391085E+02 -0.62588017243E+02  0.66594370761E+02  0.00000000000E+00 0.  1.
         11    1    1    2    0    0 -0.56591221690E+02 -0.68330999468E+02 -0.11077269977E+03  0.14192351065E+03  0.00000000000E+00 0. -1.
</event>
<event>
 7    1  0.2840156E-009  0.1063380E+03  0.7561462E-02  0.1267506E+00
          1   -1    0    0  501    0  0.00000000000E+00  0.00000000000E+00  0.39839296365E+03  0.39839296365E+03  0.00000000000E+00 0. -1.
         -1   -1    0    0    0  501 -0.00000000000E+00 -0.00000000000E+00 -0.50417743925E+02  0.50417743925E+02  0.00000000000E+00 0.  1.
         25    2    1    2    0    0 -0.75508544810E+02 -0.37447340706E+02  0.13925240458E+03  0.20528219924E+03  0.12508279450E+03 0.  0.
          5    1    3    3  502    0  0.23377020092E+02 -0.85364845707E+01  0.85209579726E+02  0.88867887982E+02  0.41800000000E+01 0.  1.
         -5    1    3    3    0  502 -0.98885564902E+02 -0.28910856135E+02  0.54042824855E+02  0.11641431126E+03  0.41800000000E+01 0.  1.
        -11    1    1    2    0    0  0.31971725511E+02  0.17398323097E+02  0.81397604352E+01  0.37298104224E+02  0.00000000000E+00 0. -1.
         11    1    1    2    0    0  0.43536819298E+02  0.20049017608E+02  0.20058305471E+03  0.20623040411E+03  0.00000000000E+00 0.  1.
</event>
<event>
 7    1  0.2840156E-009  0.9866131E+02  0.7561462E-02  0.1283136E+00
          1   -1    0    0  501    0  0.00000000000E+00  0.00000000000E+00  0.43647381191E+03  0.43647381191E+03  0.00000000000E+00 0. -1.
         -1   -1    0    0    0  501 -0.00000000000E+00 -0.00000000000E+00 -0.51036292336E+02  0.51036292336E+02  0.00000000000E+00 0.  1.
         25    2    1    2    0    0  0.46348118855E+02 -0.33701037624E+02  0.69835536631E+02  0.15430147015E+03  0.12509209989E+03 0.  0.
          5    1    3    3  502    0  0.61507752682E+02 -0.51790636669E+02  0.52567589694E-01  0.80516761298E+02  0.41800000000E+01 0. -1.
         -5    1    3    3    0  502 -0.15159633828E+02  0.18089599045E+02  0.69782969041E+02  0.73784708847E+02  0.41800000000E+01 0. -1.
        -11    1    1    2    0    0 -0.41886783399E+02 -0.14578664264E+02  0.23499079454E+03  0.23913952746E+03  0.00000000000E+00 0.  1.
         11    1    1    2    0    0 -0.44613354561E+01  0.48279701887E+02  0.80611188404E+02  0.94069106642E+02  0.00000000000E+00 0. -1.
</event>
<event>
 7    1  0.2840156E-009  0.1358547E+03  0.7561462E-02  0.1219018E+00
         -2   -1    0    0    0  501 -0.00000000000E+00  0.00000000000E+00  0.15691439181E+02  0.15691439181E+02  0.00000000000E+00 0.  1.
          2   -1    0    0  501    0  0.00000000000E+00 -0.00000000000E+00 -0.12655506176E+04  0.12655506176E+04  0.00000000000E+00 0. -1.
         25    2    1    2    0    0  0.83769058660E+02 -0.30765899795E+02 -0.65225319847E+03  0.67010839378E+03  0.12508888326E+03 0.  0.
          5    1    3    3  502    0 -0.26668450663E+02  0.18398518625E+02 -0.14438144926E+03  0.14803103404E+03  0.41800000000E+01 0.  1.
         -5    1    3    3    0  502  0.11043750932E+03 -0.49164418420E+02 -0.50787174922E+03  0.52207735974E+03  0.41800000000E+01 0.  1.
        -11    1    1    2    0    0 -0.98885682754E+02  0.26443190250E+02 -0.57199527576E+03  0.58108193575E+03  0.00000000000E+00 0. -1.
         11    1    1    2    0    0  0.15116624095E+02  0.43227095446E+01 -0.25610704188E+02  0.30051727252E+02  0.00000000000E+00 0.  1.
</event>
<event>
 7    1  0.2840156E-009  0.6240510E+02  0.7561462E-02  0.1388007E+00
          1   -1    0    0  501    0  0.00000000000E+00  0.00000000000E+00  0.26638351893E+03  0.26638351893E+03  0.00000000000E+00 0. -1.
         -1   -1    0    0    0  501 -0.00000000000E+00 -0.00000000000E+00 -0.46768719168E+02  0.46768719168E+02  0.00000000000E+00 0.  1.
         25    2    1    2    0    0  0.22483356761E+02 -0.82516776161E+01  0.10843687444E+03  0.16726728168E+03  0.12508475634E+03 0.  0.
          5    1    3    3  502    0 -0.11926108938E+02  0.98855959136E+01  0.12409590309E+03  0.12512882420E+03  0.41800000000E+01 0. -1.
         -5    1    3    3    0  502  0.34409465700E+02 -0.18137273530E+02 -0.15659028656E+02  0.42138457486E+02  0.41800000000E+01 0. -1.
        -11    1    1    2    0    0 -0.31240686890E+02  0.31765134499E+02  0.11225217115E+03  0.12077066786E+03  0.00000000000E+00 0. -1.
         11    1    1    2    0    0  0.87573301282E+01 -0.23513456882E+02 -0.10742458258E+01  0.25114288555E+02  0.00000000000E+00 0.  1.
</event>
<event>
 7    1  0.2840156E-009  0.1542112E+03  0.7561462E-02  0.1195392E+00
         -1   -1    0    0    0  501 -0.00000000000E+00  0.00000000000E+00  0.23016775981E+02  0.23016775981E+02  0.00000000000E+00 0.  1.
          1   -1    0    0  501    0  0.00000000000E+00 -0.00000000000E+00 -0.11672793819E+04  0.11672793819E+04  0.00000000000E+00 0. -1.
         25    2    1    2    0    0  0.38173318338E+02  0.11542273875E+03 -0.55728909606E+03  0.58395162898E+03  0.12509499407E+03 0.  0.
          5    1    3    3  502    0  0.34230095979E+02  0.14071425301E+03 -0.50799798977E+03  0.52825337716E+03  0.41800000000E+01 0.  1.
         -5    1    3    3    0  502  0.39432223590E+01 -0.25291514256E+02 -0.49291106290E+02  0.55698251815E+02  0.41800000000E+01 0.  1.
        -11    1    1    2    0    0 -0.68410680954E+01 -0.10405163174E+03 -0.53145771511E+03  0.54159103134E+03  0.00000000000E+00 0. -1.
         11    1    1    2    0    0 -0.31332250243E+02 -0.11371107012E+02 -0.55515794732E+02  0.64753497548E+02  0.00000000000E+00 0.  1.
</event>
<event>
 7    1  0.2840156E-009  0.1456519E+03  0.7561462E-02  0.1205920E+00
          1   -1    0    0  501    0  0.00000000000E+00  0.00000000000E+00  0.53932952919E+03  0.53932952919E+03  0.00000000000E+00 0. -1.
         -1   -1    0    0    0  501 -0.00000000000E+00 -0.00000000000E+00 -0.43960475344E+02  0.43960475344E+02  0.00000000000E+00 0.  1.
         25    2    1    2    0    0 -0.12285670351E+02  0.10026083455E+03  0.19059984537E+03  0.24935674220E+03  0.12508921290E+03 0.  0.
          5    1    3    3  502    0 -0.14071825483E+01  0.12830435601E+03  0.13699631550E+03  0.18774837095E+03  0.41800000000E+01 0.  1.
         -5    1    3    3    0  502 -0.10878487803E+02 -0.28043521466E+02  0.53603529871E+02  0.61608371247E+02  0.41800000000E+01 0.  1.
        -11    1    1    2    0    0  0.58386916049E+01  0.15526664201E+02  0.71870836908E+02  0.73760320083E+02  0.00000000000E+00 0. -1.
         11    1    1    2    0    0  0.64469787461E+01 -0.11578749875E+03  0.23289837157E+03  0.26017294226E+03  0.00000000000E+00 0.  1.
</event>
<event>
 7    1  0.3247967E-009  0.9450732E+02  0.7561462E-02  0.1292290E+00
          1   -1    0    0  501    0  0.00000000000E+00  0.00000000000E+00  0.19146037715E+04  0.19146037715E+04  0.00000000000E+00 0. -1.
         -1   -1    0    0    0  501 -0.00000000000E+00 -0.00000000000E+00 -0.12371901110E+02  0.12371901110E+02  0.00000000000E+00 0.  1.
         25    2    1    2    0    0 -0.47071748440E+02 -0.31220857756E+02  0.16055724229E+04  0.16114277235E+04  0.12508401740E+03 0.  0.
          5    1    3    3  502    0  0.12484058441E+02  0.22672600247E+02  0.10222949435E+04  0.10226310784E+04  0.41800000000E+01 0.  1.
         -5    1    3    3    0  502 -0.59555806880E+02 -0.53893458003E+02  0.58327747940E+03  0.58879664514E+03  0.41800000000E+01 0.  1.
        -11    1    1    2    0    0  0.25039460081E+02 -0.16375799547E+02  0.25346828565E+02  0.39212282390E+02  0.00000000000E+00 0. -1.
         11    1    1    2    0    0  0.22032288359E+02  0.47596657303E+02  0.27131261886E+03  0.27633566667E+03  0.00000000000E+00 0.  1.
</event>
<event>
 7    1  0.2840156E-009  0.1218255E+03  0.7561462E-02  0.1240116E+00
         -2   -1    0    0    0  501 -0.00000000000E+00  0.00000000000E+00  0.12921377319E+03  0.12921377319E+03  0.00000000000E+00 0.  1.
          2   -1    0    0  501    0  0.00000000000E+00 -0.00000000000E+00 -0.16397618844E+03  0.16397618844E+03  0.00000000000E+00 0. -1.
         25    2    1    2    0    0  0.51267767294E+02  0.75171877174E+02  0.14289494409E+02  0.15534081693E+03  0.12508950665E+03 0.  0.
          5    1    3    3  502    0  0.33323604603E+02  0.89005537186E+02 -0.34653346159E+02  0.10124611140E+03  0.41800000000E+01 0.  1.
         -5    1    3    3    0  502  0.17944162691E+02 -0.13833660012E+02  0.48942840568E+02  0.54094705535E+02  0.41800000000E+01 0.  1.
        -11    1    1    2    0    0  0.76781557659E+01 -0.65255794801E+02 -0.41217187948E+02  0.77563711962E+02  0.00000000000E+00 0. -1.
         11    1    1    2    0    0 -0.58945923060E+02 -0.99160823732E+01 -0.78347217123E+01  0.60285432729E+02  0.00000000000E+00 0.  1.
</event>
<event>
 7    1  0.2840156E-009  0.1025488E+03  0.7561462E-02  0.1275026E+00
          2   -1    0    0  501    0  0.00000000000E+00  0.00000000000E+00  0.11076597265E+03  0.11076597265E+03  0.00000000000E+00 0.  1.
         -2   -1    0    0    0  501 -0.00000000000E+00 -0.00000000000E+00 -0.12693480161E+03  0.12693480161E+03  0.00000000000E+00 0. -1.
         25    2    1    2    0    0  0.15283187468E+02  0.47254222931E+02  0.48692930918E+01  0.13468997941E+03  0.12510452883E+03 0.  0.
          5    1    3    3  502    0 -0.39603828333E+02  0.17892098305E+02 -0.38904496743E+02  0.58477539853E+02  0.41800000000E+01 0. -1.
         -5    1    3    3    0  502  0.54887015801E+02  0.29362124627E+02  0.43773789835E+02  0.76212439553E+02  0.41800000000E+01 0. -1.
        -11    1    1    2    0    0  0.35880705406E+02 -0.18790091398E+02  0.82992764502E+00  0.40511496332E+02  0.00000000000E+00 0. -1.
         11    1    1    2    0    0 -0.51163892874E+02 -0.28464131534E+02 -0.21868049695E+02  0.62499298520E+02  0.00000000000E+00 0.  1.
</event>
<event>
 7    1  0.2840156E-009  0.6709424E+02  0.7561462E-02  0.1370263E+00
          3   -1    0    0  501    0  0.00000000000E+00  0.00000000000E+00  0.88025509974E+02  0.88025509974E+02  0.00000000000E+00 0. -1.
         -3   -1    0    0    0  501 -0.00000000000E+00 -0.00000000000E+00 -0.13953023100E+03  0.13953023100E+03  0.00000000000E+00 0.  1.
         25    2    1    2    0    0 -0.49225249076E+00 -0.22320854812E+02 -0.48410583537E+02  0.13597071840E+03  0.12508392699E+03 0.  0.
          5    1    3    3  502    0 -0.15615841139E+02 -0.39070808896E+02 -0.83758057644E+02  0.93825727935E+02  0.41800000000E+01 0. -1.
         -5    1    3    3    0  502  0.15123588648E+02  0.16749954084E+02  0.35347474108E+02  0.42144990464E+02  0.41800000000E+01 0. -1.
        -11    1    1    2    0    0  0.20693141582E+02 -0.15649681989E+02  0.28257359758E+02  0.38361400331E+02  0.00000000000E+00 0. -1.
         11    1    1    2    0    0 -0.20200889091E+02  0.37970536801E+02 -0.31351497248E+02  0.53223622244E+02  0.00000000000E+00 0.  1.
</event>
<event>
 7    1  0.2840156E-009  0.3302792E+03  0.7561462E-02  0.1071013E+00
         -1   -1    0    0    0  501 -0.00000000000E+00  0.00000000000E+00  0.12584116891E+03  0.12584116891E+03  0.00000000000E+00 0.  1.
          1   -1    0    0  501    0  0.00000000000E+00 -0.00000000000E+00 -0.90522481730E+03  0.90522481730E+03  0.00000000000E+00 0. -1.
         25    2    1    2    0    0  0.11637899040E+03  0.29563650407E+03 -0.34156884697E+03  0.48297144336E+03  0.12508847244E+03 0.  0.
          5    1    3    3  502    0  0.74843211792E+02  0.56041460829E+02 -0.61240555896E+02  0.11184824437E+03  0.41800000000E+01 0. -1.
         -5    1    3    3    0  502  0.41535778608E+02  0.23959504324E+03 -0.28032829107E+03  0.37112319899E+03  0.41800000000E+01 0. -1.
        -11    1    1    2    0    0 -0.19637333386E+01 -0.76747408166E+02 -0.15243015851E+03  0.17067212465E+03  0.00000000000E+00 0.  1.
         11    1    1    2    0    0 -0.11441525706E+03 -0.21888909591E+03 -0.28538464290E+03  0.37742241820E+03  0.00000000000E+00 0. -1.
</event>
<event>
 7    1  0.2840156E-009  0.1166596E+03  0.7561462E-02  0.1248712E+00
         -2   -1    0    0    0  501 -0.00000000000E+00  0.00000000000E+00  0.32335013383E+03  0.32335013383E+03  0.00000000000E+00 0. -1.
          2   -1    0    0  501    0  0.00000000000E+00 -0.00000000000E+00 -0.56388219842E+02  0.56388219842E+02  0.00000000000E+00 0.  1.
         25    2    1    2    0    0  0.64715796506E+02 -0.41377008119E+02  0.11359942950E+03  0.18561413516E+03  0.12509031005E+03 0.  0.
          5    1    3    3  502    0 -0.96620865493E+01 -0.49867389760E+02  0.17967926312E+01  0.50998169984E+02  0.41800000000E+01 0. -1.
         -5    1    3    3    0  502  0.74377883056E+02  0.84903816406E+01  0.11180263687E+03  0.13461596517E+03  0.41800000000E+01 0. -1.
        -11    1    1    2    0    0 -0.42691293763E+02 -0.16252662033E+02  0.10885338081E+03  0.11804979500E+03  0.00000000000E+00 0. -1.
         11    1    1    2    0    0 -0.22024502744E+02  0.57629670153E+02  0.44509103681E+02  0.76074423517E+02  0.00000000000E+00 0.  1.
</event>
<event>
 7    1  0.2840156E-009  0.6218228E+02  0.7561462E-02  0.1388895E+00
          1   -1    0    0  501    0  0.00000000000E+00  0.00000000000E+00  0.25817110578E+03  0.25817110578E+03  0.00000000000E+00 0. -1.
         -1   -1    0    0    0  501 -0.00000000000E+00 -0.00000000000E+00 -0.53480454145E+02  0.53480454145E+02  0.00000000000E+00 0.  1.
         25    2    1    2    0    0 -0.41736131236E+02  0.19518574698E+02  0.10731502938E+03  0.17113351474E+03  0.12508910796E+03 0.  0.
          5    1    3    3  502    0 -0.32261472120E+02  0.13549284359E+02  0.13577058313E+03  0.14026941696E+03  0.41800000000E+01 0.  1.
         -5    1    3    3    0  502 -0.94746591168E+01  0.59692903381E+01 -0.28455553754E+02  0.30864097784E+02  0.41800000000E+01 0.  1.
        -11    1    1    2    0    0 -0.47470531341E+01  0.17258195788E+02 -0.80083321456E+01  0.19609008620E+02  0.00000000000E+00 0.  1.
         11    1    1    2    0    0  0.46483184370E+02 -0.36776770485E+02  0.10538395440E+03  0.12090903656E+03  0.00000000000E+00 0. -1.
</event>
<event>
 7    1  0.2840156E-009  0.9473863E+02  0.7561462E-02  0.1291766E+00
         -2   -1    0    0    0  501 -0.00000000000E+00  0.00000000000E+00  0.53232205610E+02  0.53232205610E+02  0.00000000000E+00 0.  1.
          2   -1    0    0  501    0  0.00000000000E+00 -0.00000000000E+00 -0.40794969894E+03  0.40794969894E+03  0.00000000000E+00 0. -1.
         25    2    1    2    0    0  0.63114796469E+02  0.45124375102E+02 -0.28464516083E+03  0.32045348063E+03  0.12509148213E+03 0.  0.
          5    1    3    3  502    0  0.41499290840E+02  0.37963842678E+02 -0.28366787344E+02  0.63131541366E+02  0.41800000000E+01 0. -1.
         -5    1    3    3    0  502  0.21615505630E+02  0.71605324239E+01 -0.25627837349E+03  0.25732193926E+03  0.41800000000E+01 0. -1.
        -11    1    1    2    0    0 -0.17698437127E+02 -0.59668648811E+02 -0.69146179809E+02  0.93031051321E+02  0.00000000000E+00 0. -1.
         11    1    1    2    0    0 -0.45416359342E+02  0.14544273709E+02 -0.92615268298E+00  0.47697372594E+02  0.00000000000E+00 0.  1.
</event>
<event>
 7    1  0.2840156E-009  0.1085321E+03  0.7561462E-02  0.1263313E+00
          2   -1    0    0  501    0  0.00000000000E+00  0.00000000000E+00  0.28807914750E+02  0.28807914750E+02  0.00000000000E+00 0.  1.
         -2   -1    0    0    0  501 -0.00000000000E+00 -0.00000000000E+00 -0.46634085601E+03  0.46634085601E+03  0.00000000000E+00 0. -1.
         25    2    1    2    0    0 -0.31292112761E+02 -0.51312173088E+01 -0.19099815039E+03  0.23050722100E+03  0.12509100595E+03 0.  0.
          5    1    3    3  502    0 -0.35549864741E+02  0.56241230927E+02 -0.11132947111E+03  0.12976360228E+03  0.41800000000E+01 0. -1.
         -5    1    3    3    0  502  0.42577519796E+01 -0.61372448236E+02 -0.79668679288E+02  0.10074361873E+03  0.41800000000E+01 0. -1.
        -11    1    1    2    0    0 -0.27948740834E+02  0.90200379488E+01 -0.39240659007E+02  0.49013493225E+02  0.00000000000E+00 0.  1.
         11    1    1    2    0    0  0.59240853595E+02 -0.38888206400E+01 -0.20729413186E+03  0.21562805654E+03  0.00000000000E+00 0. -1.
</event>
<event>
 7    1  0.2840156E-009  0.4950707E+03  0.7561462E-02  0.1015074E+00
         -1   -1    0    0    0  501 -0.00000000000E+00  0.00000000000E+00  0.42794022169E+03  0.42794022169E+03  0.00000000000E+00 0.  1.
          1   -1    0    0  501    0  0.00000000000E+00 -0.00000000000E+00 -0.60098772537E+03  0.60098772537E+03  0.00000000000E+00 0. -1.
         25    2    1    2    0    0 -0.13098622623E+03 -0.46863046427E+03  0.40413498954E+01  0.50243064964E+03  0.12509325195E+03 0.  0.
          5    1    3    3  502    0 -0.92904888404E+02 -0.43122867544E+03  0.31488240685E+02  0.44226515860E+03  0.41800000000E+01 0.  1.
         -5    1    3    3    0  502 -0.38081337821E+02 -0.37401788834E+02 -0.27446890789E+02  0.60165491041E+02  0.41800000000E+01 0.  1.
        -11    1    1    2    0    0  0.14219892227E+03  0.37322537747E+03 -0.15064221555E+03  0.42686156186E+03  0.00000000000E+00 0.  1.
         11    1    1    2    0    0 -0.11212696041E+02  0.95405086796E+02 -0.26446638014E+02  0.99635735564E+02  0.00000000000E+00 0. -1.
</event>
<event>
 7    1  0.2840156E-009  0.1277393E+03  0.7561462E-02  0.1230849E+00
          1   -1    0    0  501    0  0.00000000000E+00  0.00000000000E+00  0.18271191326E+04  0.18271191326E+04  0.00000000000E+00 0. -1.
         -1   -1    0    0    0  501 -0.00000000000E+00 -0.00000000000E+00 -0.16115458306E+02  0.16115458306E+02  0.00000000000E+00 0.  1.
         25    2    1    2    0    0  0.96337001489E+02 -0.79529357285E+02  0.12132526053E+04  0.12260642901E+04  0.12508406179E+03 0.  0.
          5    1    3    3  502    0  0.58564299865E+02 -0.28494810614E+02  0.19116907085E+03  0.20200202350E+03  0.41800000000E+01 0.  1.
         -5    1    3    3    0  502  0.37772701624E+02 -0.51034546670E+02  0.10220835345E+04  0.10240622666E+04  0.41800000000E+01 0.  1.
        -11    1    1    2    0    0 -0.77695627130E+02  0.73607871543E+02  0.58281429078E+03  0.59255989298E+03  0.00000000000E+00 0. -1.
         11    1    1    2    0    0 -0.18641374359E+02  0.59214857412E+01  0.14936778123E+02  0.24610407800E+02  0.00000000000E+00 0.  1.
</event>
<event>
 7    1  0.2840156E-009  0.9212687E+02  0.7561462E-02  0.1297781E+00
         -1   -1    0    0    0  501 -0.00000000000E+00  0.00000000000E+00  0.11531363133E+03  0.11531363133E+03  0.00000000000E+00 0.  1.
          1   -1    0    0  501    0  0.00000000000E+00 -0.00000000000E+00 -0.26252331304E+03  0.26252331304E+03  0.00000000000E+00 0. -1.
         25    2    1    2    0    0 -0.10378437891E+02 -0.52137781790E+02  0.55191081022E+02  0.14669487550E+03  0.12508905152E+03 0.  0.
          5    1    3    3  502    0  0.42647457024E+02  0.10861892217E+02 -0.51731975272E+01  0.44508658324E+02  0.41800000000E+01 0. -1.
         -5    1    3    3    0  502 -0.53025894914E+02 -0.62999674008E+02  0.60364278550E+02  0.10218621718E+03  0.41800000000E+01 0. -1.
        -11    1    1    2    0    0 -0.70325536581E+01  0.13753284177E+02  0.74151046873E+01  0.17134567813E+02  0.00000000000E+00 0.  1.
         11    1    1    2    0    0  0.17410991549E+02  0.38384497613E+02 -0.20981586743E+03  0.21400750105E+03  0.00000000000E+00 0. -1.
</event>
<event>
 7    1  0.2840156E-009  0.1142733E+03  0.7561462E-02  0.1252855E+00
         -1   -1    0    0    0  501 -0.00000000000E+00  0.00000000000E+00  0.13285900715E+02  0.13285900715E+02  0.00000000000E+00 0.  1.
          1   -1    0    0  501    0  0.00000000000E+00 -0.00000000000E+00 -0.11245916124E+04  0.11245916124E+04  0.00000000000E+00 0. -1.
         25    2    1    2    0    0 -0.56611722814E+02  0.14355840690E+01 -0.74611764906E+03  0.75864786250E+03  0.12509230579E+03 0.  0.
          5    1    3    3  502    0  0.32447051350E+02  0.21681600523E+02 -0.34593457735E+03  0.34815385557E+03  0.41800000000E+01 0.  1.
         -5    1    3    3    0  502 -0.89058774164E+02 -0.20246016454E+02 -0.40018307172E+03  0.41049400693E+03  0.41800000000E+01 0.  1.
        -11    1    1    2    0    0  0.52652825772E+02 -0.35548985791E+02 -0.28503738116E+03  0.29203143514E+03  0.00000000000E+00 0. -1.
         11    1    1    2    0    0  0.39588970418E+01  0.34113401722E+02 -0.80150681445E+02  0.87198215458E+02  0.00000000000E+00 0.  1.
</event>
<event>
 7    1  0.2840156E-009  0.1150903E+03  0.7561462E-02  0.1251423E+00
         -2   -1    0    0    0  501 -0.00000000000E+00  0.00000000000E+00  0.35649116813E+02  0.35649116813E+02  0.00000000000E+00 0.  1.
          2   -1    0    0  501    0  0.00000000000E+00 -0.00000000000E+00 -0.40834837792E+03  0.40834837792E+03  0.00000000000E+00 0. -1.
         25    2    1    2    0    0  0.15662336343E+02 -0.42040393768E+02 -0.21476135649E+03  0.25255298878E+03  0.12509144021E+03 0.  0.
          5    1    3    3  502    0 -0.45768852301E+02 -0.39307964539E+02 -0.56696327068E+02  0.82896621283E+02  0.41800000000E+01 0.  1.
         -5    1    3    3    0  502  0.61431188643E+02 -0.27324292288E+01 -0.15806502942E+03  0.16965636750E+03  0.41800000000E+01 0.  1.
        -11    1    1    2    0    0 -0.56059258282E+02  0.37441022753E+02 -0.10295755068E+03  0.12306391781E+03  0.00000000000E+00 0. -1.
         11    1    1    2    0    0  0.40396921939E+02  0.45993710151E+01 -0.54980353943E+02  0.68380588149E+02  0.00000000000E+00 0.  1.
</event>
<event>
 7    1  0.2840156E-009  0.7693078E+02  0.7561462E-02  0.1337994E+00
         -2   -1    0    0    0  501 -0.00000000000E+00  0.00000000000E+00  0.57191078220E+02  0.57191078220E+02  0.00000000000E+00 0.  1.
          2   -1    0    0  501    0  0.00000000000E+00 -0.00000000000E+00 -0.26167855344E+03  0.26167855344E+03  0.00000000000E+00 0. -1.
         25    2    1    2    0    0 -0.21502659080E+02  0.40564558873E+02 -0.16577290368E+03  0.21269880506E+03  0.12510906561E+03 0.  0.
          5    1    3    3  502    0 -0.50450279854E+02  0.30236607199E+02 -0.17921790535E+02  0.61629101310E+02  0.41800000000E+01 0.  1.
         -5    1    3    3    0  502  0.28947620774E+02  0.10327951675E+02 -0.14785111314E+03  0.15106970375E+03  0.41800000000E+01 0.  1.
        -11    1    1    2    0    0  0.38631400045E+00 -0.42656575105E+02  0.17481915870E+02  0.46101518638E+02  0.00000000000E+00 0.  1.
         11    1    1    2    0    0  0.21116345080E+02  0.20920162320E+01 -0.56196487408E+02  0.60069307958E+02  0.00000000000E+00 0. -1.
</event>
<event>
 7    1  0.2840156E-009  0.8446793E+02  0.7561462E-02  0.1316830E+00
         -2   -1    0    0    0  501 -0.00000000000E+00  0.00000000000E+00  0.80552615727E+02  0.80552615727E+02  0.00000000000E+00 0.  1.
          2   -1    0    0  501    0  0.00000000000E+00 -0.00000000000E+00 -0.24358934981E+03  0.24358934981E+03  0.00000000000E+00 0. -1.
         25    2    1    2    0    0  0.33181663514E+02 -0.55860319216E+02 -0.15854020558E+02  0.14185682977E+03  0.12510240656E+03 0.  0.
          5    1    3    3  502    0 -0.96697080519E+01 -0.14682985942E+02  0.49933410719E+02  0.53102836422E+02  0.41800000000E+01 0. -1.
         -5    1    3    3    0  502  0.42851371566E+02 -0.41177333274E+02 -0.65787431278E+02  0.88753993345E+02  0.41800000000E+01 0. -1.
        -11    1    1    2    0    0 -0.30522952912E+02 -0.45149418623E+01 -0.10089818706E+02  0.32462898762E+02  0.00000000000E+00 0.  1.
         11    1    1    2    0    0 -0.26587106015E+01  0.60375261078E+02 -0.13709289482E+03  0.14982223701E+03  0.00000000000E+00 0. -1.
</event>
<event>
 7    1  0.2840156E-009  0.1196602E+03  0.7561462E-02  0.1243659E+00
         -1   -1    0    0    0  501 -0.00000000000E+00  0.00000000000E+00  0.49633479816E+02  0.49633479816E+02  0.00000000000E+00 0.  1.
          1   -1    0    0  501    0  0.00000000000E+00 -0.00000000000E+00 -0.49763017183E+03  0.49763017183E+03  0.00000000000E+00 0. -1.
         25    2    1    2    0    0 -0.11459287221E+02  0.68633002894E+02 -0.39770966969E+03  0.42268576377E+03  0.12509384149E+03 0.  0.
          5    1    3    3  502    0 -0.52044707384E+02  0.84029009169E+02 -0.29330724425E+03  0.30954181927E+03  0.41800000000E+01 0.  1.
         -5    1    3    3    0  502  0.40585420163E+02 -0.15396006274E+02 -0.10440242544E+03  0.11314394450E+03  0.41800000000E+01 0.  1.
        -11    1    1    2    0    0  0.12282680274E+02  0.11392743447E+02  0.14072880301E+02  0.21879323525E+02  0.00000000000E+00 0.  1.
         11    1    1    2    0    0 -0.82339305246E+00 -0.80025746341E+02 -0.64359902621E+02  0.10269856435E+03  0.00000000000E+00 0. -1.
</event>
<event>
 7    1  0.2840156E-009  0.1204161E+03  0.7561462E-02  0.1242412E+00
          4   -1    0    0  501    0  0.00000000000E+00  0.00000000000E+00  0.72689942780E+02  0.72689942780E+02  0.00000000000E+00 0. -1.
         -4   -1    0    0    0  501 -0.00000000000E+00 -0.00000000000E+00 -0.32148099951E+03  0.32148099951E+03  0.00000000000E+00 0.  1.
         25    2    1    2    0    0 -0.62799146559E+02 -0.72270160198E+02 -0.69778299954E+02  0.17228918522E+03  0.12509133998E+03 0.  0.
          5    1    3    3  502    0  0.55951174647E+01 -0.26354959609E+02 -0.84245025998E+02  0.88547083752E+02  0.41800000000E+01 0.  1.
         -5    1    3    3    0  502 -0.68394264024E+02 -0.45915200589E+02  0.14466726045E+02  0.83742101472E+02  0.41800000000E+01 0.  1.
        -11    1    1    2    0    0  0.65747684353E+02  0.90920755385E+02 -0.15421254918E+03  0.19071143669E+03  0.00000000000E+00 0.  1.
         11    1    1    2    0    0 -0.29485377936E+01 -0.18650595187E+02 -0.24800207589E+02  0.31170320377E+02  0.00000000000E+00 0. -1.
</event>
<event>
 7    1  0.2840156E-009  0.1432565E+03  0.7561462E-02  0.1209013E+00
         -3   -1    0    0    0  501 -0.00000000000E+00  0.00000000000E+00  0.33108981977E+02  0.33108981977E+02  0.00000000000E+00 0.  1.
          3   -1    0    0  501    0  0.00000000000E+00 -0.00000000000E+00 -0.82166955776E+03  0.82166955776E+03  0.00000000000E+00 0. -1.
         25    2    1    2    0    0 -0.10769303731E+03  0.57412896673E+02 -0.44822678493E+03  0.48109116017E+03  0.12508965855E+03 0.  0.
          5    1    3    3  502    0 -0.54321307861E+02 -0.22757697040E+02 -0.74116691545E+02  0.94760084571E+02  0.41800000000E+01 0. -1.
         -5    1    3    3    0  502 -0.53371729447E+02  0.80170593713E+02 -0.37411009338E+03  0.38633107560E+03  0.41800000000E+01 0. -1.
        -11    1    1    2    0    0  0.43241469703E+02 -0.50133635204E+02 -0.72796399015E+02  0.98399805846E+02  0.00000000000E+00 0.  1.
         11    1    1    2    0    0  0.64451567605E+02 -0.72792614684E+01 -0.26753739184E+03  0.27528757373E+03  0.00000000000E+00 0. -1.
</event>
<event>
 7    1  0.2840156E-009  0.1015836E+03  0.7561462E-02  0.1277001E+00
          2   -1    0    0  501    0  0.00000000000E+00  0.00000000000E+00  0.15831249067E+04  0.15831249067E+04  0.00000000000E+00 0.  1.
         -2   -1    0    0    0  501 -0.00000000000E+00 -0.00000000000E+00 -0.11389533867E+02  0.11389533867E+02  0.00000000000E+00 0. -1.
         25    2    1    2    0    0  0.31587778441E+02 -0.49088195352E+01  0.12988361732E+04  0.13052375710E+04  0.12509127752E+03 0.  0.
          5    1    3    3  502    0  0.40527678226E+02 -0.57029067664E+02  0.92572051092E+03  0.92836993919E+03  0.41800000000E+01 0. -1.
         -5    1    3    3    0  502 -0.89398997848E+01  0.52120248128E+02  0.37311566225E+03  0.37686763179E+03  0.41800000000E+01 0. -1.
        -11    1    1    2    0    0 -0.11061543658E+02  0.38835692583E+02  0.57525999681E+02  0.70283777686E+02  0.00000000000E+00 0. -1.
         11    1    1    2    0    0 -0.20526234783E+02 -0.33926873048E+02  0.21537320002E+03  0.21899309194E+03  0.00000000000E+00 0.  1.
</event>
<event>
 7    1  0.2840156E-009  0.1959142E+03  0.7561462E-02  0.1153233E+00
          1   -1    0    0  501    0  0.00000000000E+00  0.00000000000E+00  0.11815712526E+04  0.11815712526E+04  0.00000000000E+00 0. -1.
         -1   -1    0    0    0  501 -0.00000000000E+00 -0.00000000000E+00 -0.39553693402E+02  0.39553693402E+02  0.00000000000E+00 0.  1.
         25    2    1    2    0    0  0.11089918037E+03 -0.12776737816E+03  0.80764687614E+03  0.83460403964E+03  0.12508914950E+03 0.  0.
          5    1    3    3  502    0  0.86734745584E+02 -0.15051658533E+03  0.72296378811E+03  0.74355381101E+03  0.41800000000E+01 0. -1.
         -5    1    3    3    0  502  0.24164434786E+02  0.22749207174E+02  0.84683088032E+02  0.91050228633E+02  0.41800000000E+01 0. -1.
        -11    1    1    2    0    0 -0.11877905105E+03  0.98523162489E+02  0.22359885786E+03  0.27168313483E+03  0.00000000000E+00 0.  1.
         11    1    1    2    0    0  0.78798706780E+01  0.29244215670E+02  0.11077182521E+03  0.11483777155E+03  0.00000000000E+00 0. -1.
</event>
<event>
 7    1  0.2840156E-009  0.1079924E+03  0.7561462E-02  0.1264333E+00
         -1   -1    0    0    0  501 -0.00000000000E+00  0.00000000000E+00  0.52728368923E+02  0.52728368923E+02  0.00000000000E+00 0.  1.
          1   -1    0    0  501    0  0.00000000000E+00 -0.00000000000E+00 -0.24965936890E+03  0.24965936890E+03  0.00000000000E+00 0. -1.
         25    2    1    2    0    0 -0.35285637838E+02  0.50788801694E+01 -0.91399203749E+02  0.15897624215E+03  0.12509500333E+03 0.  0.
          5    1    3    3  502    0 -0.66845745397E+02  0.34795653572E+02 -0.87043361010E+02  0.11520898524E+03  0.41800000000E+01 0. -1.
         -5    1    3    3    0  502  0.31560107559E+02 -0.29716773403E+02 -0.43558427387E+01  0.43767256900E+02  0.41800000000E+01 0. -1.
        -11    1    1    2    0    0  0.22005307209E+02 -0.47585022088E+02 -0.53099068749E+02  0.74619561608E+02  0.00000000000E+00 0.  1.
         11    1    1    2    0    0  0.13280330628E+02  0.42506141919E+02 -0.52432727483E+02  0.68791934075E+02  0.00000000000E+00 0. -1.
</event>
<event>
 7    1  0.2840156E-009  0.1141754E+03  0.7561462E-02  0.1253027E+00
         -2   -1    0    0    0  501 -0.00000000000E+00  0.00000000000E+00  0.27654226455E+02  0.27654226455E+02  0.00000000000E+00 0.  1.
          2   -1    0    0  501    0  0.00000000000E+00 -0.00000000000E+00 -0.57704877490E+03  0.57704877490E+03  0.00000000000E+00 0. -1.
         25    2    1    2    0    0 -0.37134594946E+02 -0.27185123239E+01 -0.17880038257E+03  0.22137467078E+03  0.12510315586E+03 0.  0.
          5    1    3    3  502    0  0.16275452368E+02 -0.53832428296E+02 -0.73317128342E+02  0.92496996678E+02  0.41800000000E+01 0.  1.
         -5    1    3    3    0  502 -0.53410047314E+02  0.51113915973E+02 -0.10548325422E+03  0.12887767410E+03  0.41800000000E+01 0.  1.
        -11    1    1    2    0    0 -0.19020360391E+02  0.29967566854E+02 -0.14145240443E+03  0.14583762166E+03  0.00000000000E+00 0.  1.
         11    1    1    2    0    0  0.56154955336E+02 -0.27249054530E+02 -0.22914176145E+03  0.23749070892E+03  0.00000000000E+00 0. -1.
</event>
<event>
 7    1  0.2840156E-009  0.1710424E+03  0.7561462E-02  0.1176765E+00
         -1   -1    0    0    0  501 -0.00000000000E+00  0.00000000000E+00  0.95976411221E+02  0.95976411221E+02  0.00000000000E+00 0.  1.
          1   -1    0    0  501    0  0.00000000000E+00 -0.00000000000E+00 -0.31117815767E+03  0.31117815767E+03  0.00000000000E+00 0. -1.
         25    2    1    2    0    0 -0.29099358253E+02  0.13025313307E+03 -0.12055059445E+03  0.21907182613E+03  0.12508943943E+03 0.  0.
          5    1    3    3  502    0  0.44362573050E+02  0.19576795547E+02 -0.20944381902E+02  0.52985170989E+02  0.41800000000E+01 0.  1.
         -5    1    3    3    0  502 -0.73461931302E+02  0.11067633752E+03 -0.99606212550E+02  0.16608665514E+03  0.41800000000E+01 0.  1.
        -11    1    1    2    0    0 -0.24150863826E+02 -0.91549786896E+02 -0.41078245777E+02  0.10320876891E+03  0.00000000000E+00 0.  1.
         11    1    1    2    0    0  0.53250222079E+02 -0.38703346171E+02 -0.53572906222E+02  0.84873973852E+02  0.00000000000E+00 0. -1.
</event>
<event>
 7    1  0.2840156E-009  0.1148847E+03  0.7561462E-02  0.1251782E+00
         -2   -1    0    0    0  501 -0.00000000000E+00  0.00000000000E+00  0.84281419069E+02  0.84281419069E+02  0.00000000000E+00 0.  1.
          2   -1    0    0  501    0  0.00000000000E+00 -0.00000000000E+00 -0.25519416063E+03  0.25519416063E+03  0.00000000000E+00 0. -1.
         25    2    1    2    0    0 -0.37573598602E+02 -0.48010568865E+02 -0.18273129181E+03  0.22968542404E+03  0.12509148243E+03 0.  0.
          5    1    3    3  502    0 -0.19228451514E+02 -0.88189859904E+02 -0.93463805708E+02  0.13000053890E+03  0.41800000000E+01 0. -1.
         -5    1    3    3    0  502 -0.18345147088E+02  0.40179291039E+02 -0.89267486103E+02  0.99684885140E+02  0.41800000000E+01 0. -1.
        -11    1    1    2    0    0  0.17594671055E+02  0.65911188774E+02  0.32837520238E+02  0.75711029517E+02  0.00000000000E+00 0.  1.
         11    1    1    2    0    0  0.19978927547E+02 -0.17900619910E+02 -0.21018969987E+02  0.34079126139E+02  0.00000000000E+00 0. -1.
</event>
<event>
 7    1  0.2840156E-009  0.1323815E+03  0.7561462E-02  0.1223964E+00
         -2   -1    0    0    0  501 -0.00000000000E+00  0.00000000000E+00  0.28552397120E+02  0.28552397120E+02  0.00000000000E+00 0.  1.
          2   -1    0    0  501    0  0.00000000000E+00 -0.00000000000E+00 -0.10073480099E+04  0.10073480099E+04  0.00000000000E+00 0. -1.
         25    2    1    2    0    0  0.99126269314E+02 -0.72654675170E+02 -0.37339296591E+03  0.41252342133E+03  0.12509415279E+03 0.  0.
          5    1    3    3  502    0  0.86314391144E+02 -0.52818448403E+02 -0.11590084755E+03  0.15391699540E+03  0.41800000000E+01 0.  1.
         -5    1    3    3    0  502  0.12811878170E+02 -0.19836226767E+02 -0.25749211836E+03  0.25860642593E+03  0.41800000000E+01 0.  1.
        -11    1    1    2    0    0 -0.35445982764E+02  0.66714314637E+02 -0.43199504728E+03  0.43855095297E+03  0.00000000000E+00 0. -1.
         11    1    1    2    0    0 -0.63680286550E+02  0.59403605328E+01 -0.17340759963E+03  0.18482603277E+03  0.00000000000E+00 0.  1.
</event>
<event>
 7    1  0.2840156E-009  0.6586620E+02  0.7561462E-02  0.1374742E+00
         -1   -1    0    0    0  501 -0.00000000000E+00  0.00000000000E+00  0.33854828838E+02  0.33854828838E+02  0.00000000000E+00 0.  1.
          1   -1    0    0  501    0  0.00000000000E+00 -0.00000000000E+00 -0.44208881961E+03  0.44208881961E+03  0.00000000000E+00 0. -1.
         25    2    1    2    0    0 -0.22472465829E+02  0.33127376239E+02 -0.28711868157E+03  0.31573315779E+03  0.12509138597E+03 0.  0.
          5    1    3    3  502    0 -0.11523692078E+02  0.17298801199E+02  0.59362511394E+01  0.22017163296E+02  0.41800000000E+01 0. -1.
         -5    1    3    3    0  502 -0.10948773751E+02  0.15828575041E+02 -0.29305493271E+03  0.29371599449E+03  0.41800000000E+01 0. -1.
        -11    1    1    2    0    0  0.29828809170E+02 -0.57825248783E+02 -0.43091302241E+02  0.78040871228E+02  0.00000000000E+00 0. -1.
         11    1    1    2    0    0 -0.73563433413E+01  0.24697872544E+02 -0.78024006964E+02  0.82169619436E+02  0.00000000000E+00 0.  1.
</event>
<event>
 7    1  0.2840156E-009  0.1215101E+03  0.7561462E-02  0.1240626E+00
          2   -1    0    0  501    0  0.00000000000E+00  0.00000000000E+00  0.12890496485E+03  0.12890496485E+03  0.00000000000E+00 0. -1.
         -2   -1    0    0    0  501 -0.00000000000E+00 -0.00000000000E+00 -0.12427563225E+03  0.12427563225E+03  0.00000000000E+00 0.  1.
         25    2    1    2    0    0 -0.59080374071E+02  0.21543749366E+02  0.21622827990E+02  0.14166701323E+03  0.12508945683E+03 0.  0.
          5    1    3    3  502    0  0.96450428446E+01  0.55822310564E+02 -0.11447287522E+02  0.57945405338E+02  0.41800000000E+01 0.  1.
         -5    1    3    3    0  502 -0.68725416916E+02 -0.34278561197E+02  0.33070115512E+02  0.83721607892E+02  0.41800000000E+01 0.  1.
        -11    1    1    2    0    0  0.68639513042E+02 -0.46280080458E+02 -0.66578438929E+01  0.83051523063E+02  0.00000000000E+00 0.  1.
         11    1    1    2    0    0 -0.95591389706E+01  0.24736331091E+02 -0.10335651498E+02  0.28462060811E+02  0.00000000000E+00 0. -1.
</event>
<event>
 7    1  0.2840156E-009  0.9563039E+02  0.7561462E-02  0.1289763E+00
         -2   -1    0    0    0  501 -0.00000000000E+00  0.00000000000E+00  0.59105218883E+03  0.59105218883E+03  0.00000000000E+00 0.  1.
          2   -1    0    0  501    0  0.00000000000E+00 -0.00000000000E+00 -0.25222197498E+02  0.25222197498E+02  0.00000000000E+00 0. -1.
         25    2    1    2    0    0  0.16257171364E+02  0.52931847579E+02  0.28834690573E+03  0.31915058088E+03  0.12508828530E+03 0.  0.
          5    1    3    3  502    0  0.37595963019E+02  0.89327877828E+01  0.15369780622E+02  0.41796575090E+02  0.41800000000E+01 0. -1.
         -5    1    3    3    0  502 -0.21338791655E+02  0.43999059796E+02  0.27297712511E+03  0.27735400579E+03  0.41800000000E+01 0. -1.
        -11    1    1    2    0    0 -0.38486288007E+02 -0.66814231852E+02  0.23375162520E+03  0.24614052537E+03  0.00000000000E+00 0.  1.
         11    1    1    2    0    0  0.22229116643E+02  0.13882384273E+02  0.43731460393E+02  0.50983280082E+02  0.00000000000E+00 0. -1.
</event>
<event>
 7    1  0.2840156E-009  0.1181268E+03  0.7561462E-02  0.1246220E+00
         -2   -1    0    0    0  501 -0.00000000000E+00  0.00000000000E+00  0.20253251776E+03  0.20253251776E+03  0.00000000000E+00 0.  1.
          2   -1    0    0  501    0  0.00000000000E+00 -0.00000000000E+00 -0.10238748554E+03  0.10238748554E+03  0.00000000000E+00 0. -1.
         25    2    1    2    0    0  0.77219134711E+02  0.10996478838E+02  0.11352409442E+03  0.18606150600E+03  0.12508975453E+03 0.  0.
          5    1    3    3  502    0  0.10946237229E+03  0.18762340756E+02  0.10157538935E+03  0.15056250695E+03  0.41800000000E+01 0. -1.
         -5    1    3    3    0  502 -0.32243237578E+02 -0.77658619177E+01  0.11948705072E+02  0.35498999052E+02  0.41800000000E+01 0. -1.
        -11    1    1    2    0    0 -0.72789021711E+02  0.70280785913E+01  0.24132057941E+02  0.77006439931E+02  0.00000000000E+00 0.  1.
         11    1    1    2    0    0 -0.44301129996E+01 -0.18024557430E+02 -0.37511120138E+02  0.41852057366E+02  0.00000000000E+00 0. -1.
</event>
<event>
 7    1  0.2840156E-009  0.2144214E+03  0.7561462E-02  0.1138112E+00
         -1   -1    0    0    0  501 -0.00000000000E+00  0.00000000000E+00  0.92102769479E+02  0.92102769479E+02  0.00000000000E+00 0.  1.
          1   -1    0    0  501    0  0.00000000000E+00 -0.00000000000E+00 -0.57856996729E+03  0.57856996729E+03  0.00000000000E+00 0. -1.
         25    2    1    2    0    0 -0.20158630746E+03 -0.15649114050E+02 -0.21890263879E+03  0.32318528079E+03  0.12509367020E+03 0.  0.
          5    1    3    3  502    0 -0.46614760480E+02 -0.49332035879E+02 -0.24531129216E+02  0.72289932627E+02  0.41800000000E+01 0.  1.
         -5    1    3    3    0  502 -0.15497154698E+03  0.33682921829E+02 -0.19437150957E+03  0.25089534816E+03  0.41800000000E+01 0.  1.
        -11    1    1    2    0    0  0.13121847135E+03  0.95249543457E+01 -0.98779220061E+02  0.16451852873E+03  0.00000000000E+00 0.  1.
         11    1    1    2    0    0  0.70367836111E+02  0.61241597043E+01 -0.16878533896E+03  0.18296892725E+03  0.00000000000E+00 0. -1.
</event>
<event>
 7    1  0.2840156E-009  0.9145072E+02  0.7561462E-02  0.1299376E+00
          2   -1    0    0  501    0  0.00000000000E+00  0.00000000000E+00  0.12356322793E+03  0.12356322793E+03  0.00000000000E+00 0. -1.
         -2   -1    0    0    0  501 -0.00000000000E+00 -0.00000000000E+00 -0.10066359149E+03  0.10066359149E+03  0.00000000000E+00 0.  1.
         25    2    1    2    0    0 -0.11535536415E+02 -0.14157840487E+02  0.32834974516E+02  0.13060561320E+03  0.12508468171E+03 0.  0.
          5    1    3    3  502    0 -0.16446135427E+02  0.39826116566E+02 -0.25998954846E+02  0.50497653255E+02  0.41800000000E+01 0.  1.
         -5    1    3    3    0  502  0.49105990116E+01 -0.53983957054E+02  0.58833929363E+02  0.80107959942E+02  0.41800000000E+01 0.  1.
        -11    1    1    2    0    0 -0.35685407590E+02 -0.84738945303E+00 -0.22894693905E+02  0.42406761168E+02  0.00000000000E+00 0.  1.
         11    1    1    2    0    0  0.47220944005E+02  0.15005229941E+02  0.12959355826E+02  0.51214445050E+02  0.00000000000E+00 0. -1.
</event>
<event>
 7    1  0.2840156E-009  0.1362842E+03  0.7561462E-02  0.1218418E+00
         -1   -1    0    0    0  501 -0.00000000000E+00  0.00000000000E+00  0.41862840059E+02  0.41862840059E+02  0.00000000000E+00 0.  1.
          1   -1    0    0  501    0  0.00000000000E+00 -0.00000000000E+00 -0.55617575194E+03  0.55617575194E+03  0.00000000000E+00 0. -1.
         25    2    1    2    0    0 -0.96249231811E+02  0.36267549302E+02 -0.21906370811E+03  0.27242567351E+03  0.12509032585E+03 0.  0.
          5    1    3    3  502    0  0.25446654981E+02 -0.38844451606E+01 -0.75823300161E+02  0.80182706435E+02  0.41800000000E+01 0. -1.
         -5    1    3    3    0  502 -0.12169588679E+03  0.40151994462E+02 -0.14324040795E+03  0.19224296708E+03  0.41800000000E+01 0. -1.
        -11    1    1    2    0    0  0.61953540286E+02  0.77891215175E+01 -0.71151387240E+02  0.94664837581E+02  0.00000000000E+00 0. -1.
         11    1    1    2    0    0  0.34295691525E+02 -0.44056670819E+02 -0.22409781653E+03  0.23094808090E+03  0.00000000000E+00 0.  1.
</event>
<event>
 7    1  0.2840156E-009  0.1024502E+03  0.7561462E-02  0.1275226E+00
          1   -1    0    0  501    0  0.00000000000E+00  0.00000000000E+00  0.16459946975E+03  0.16459946975E+03  0.00000000000E+00 0. -1.
         -1   -1    0    0    0  501 -0.00000000000E+00 -0.00000000000E+00 -0.11195665562E+03  0.11195665562E+03  0.00000000000E+00 0.  1.
         25    2    1    2    0    0  0.25941916912E+02 -0.59106993205E+02 -0.21206037717E+02  0.14236814476E+03  0.12510944372E+03 0.  0.
          5    1    3    3  502    0  0.73359716977E+02 -0.14066624680E+02 -0.57264355740E+01  0.75031876354E+02  0.41800000000E+01 0.  1.
         -5    1    3    3    0  502 -0.47417800065E+02 -0.45040368525E+02 -0.15479602144E+02  0.67336268403E+02  0.41800000000E+01 0.  1.
        -11    1    1    2    0    0 -0.63929831359E+01  0.13708930418E+02 -0.21793385972E+02  0.26528412669E+02  0.00000000000E+00 0.  1.
         11    1    1    2    0    0 -0.19548933776E+02  0.45398062786E+02  0.95642237811E+02  0.10765956794E+03  0.00000000000E+00 0. -1.
</event>
<event>
 7    1  0.2840156E-009  0.2867275E+03  0.7561462E-02  0.1092070E+00
         -2   -1    0    0    0  501 -0.00000000000E+00  0.00000000000E+00  0.78820554031E+03  0.78820554031E+03  0.00000000000E+00 0.  1.
          2   -1    0    0  501    0  0.00000000000E+00 -0.00000000000E+00 -0.11056751525E+03  0.11056751525E+03  0.00000000000E+00 0. -1.
         25    2    1    2    0    0  0.24421767070E+03  0.12249518544E+03  0.31188488398E+03  0.43309236358E+03  0.12509785529E+03 0.  0.
          5    1    3    3  502    0  0.24382111471E+03  0.14069985687E+03  0.28773416159E+03  0.40255882284E+03  0.41800000000E+01 0.  1.
         -5    1    3    3    0  502  0.39655599330E+00 -0.18204671424E+02  0.24150722386E+02  0.30533540739E+02  0.41800000000E+01 0.  1.
        -11    1    1    2    0    0 -0.17375969422E+03 -0.85497845605E+02  0.31957677737E+03  0.37367315875E+03  0.00000000000E+00 0.  1.
         11    1    1    2    0    0 -0.70457976475E+02 -0.36997339840E+02  0.46176363710E+02  0.92007533223E+02  0.00000000000E+00 0. -1.
</event>
<event>
 7    1  0.2840156E-009  0.1979405E+03  0.7561462E-02  0.1151488E+00
          1   -1    0    0  501    0  0.00000000000E+00  0.00000000000E+00  0.19179628932E+04  0.19179628932E+04  0.00000000000E+00 0. -1.
         -1   -1    0    0    0  501 -0.00000000000E+00 -0.00000000000E+00 -0.20835692226E+02  0.20835692226E+02  0.00000000000E+00 0.  1.
         25    2    1    2    0    0  0.13901366289E+03  0.90686785899E+02  0.11274377941E+04  0.11464344528E+04  0.12508830266E+03 0.  0.
          5    1    3    3  502    0  0.31062611135E+02 -0.31655222210E+02  0.25476303299E+03  0.25862833232E+03  0.41800000000E+01 0.  1.
         -5    1    3    3    0  502  0.10795105176E+03  0.12234200811E+03  0.87267476112E+03  0.88780612052E+03  0.41800000000E+01 0.  1.
        -11    1    1    2    0    0 -0.64394773885E+02  0.74649125183E+01  0.27620048012E+03  0.28370603984E+03  0.00000000000E+00 0. -1.
         11    1    1    2    0    0 -0.74618889006E+02 -0.98151698417E+02  0.49348892671E+03  0.50865809272E+03  0.00000000000E+00 0.  1.
</event>
<event>
 7    1  0.2840156E-009  0.1356705E+03  0.7561462E-02  0.1219276E+00
          2   -1    0    0  501    0  0.00000000000E+00  0.00000000000E+00  0.36663674470E+03  0.36663674470E+03  0.00000000000E+00 0.  1.
         -2   -1    0    0    0  501 -0.00000000000E+00 -0.00000000000E+00 -0.11549398630E+03  0.11549398630E+03  0.00000000000E+00 0. -1.
         25    2    1    2    0    0  0.10544116120E+03 -0.64163896839E+02  0.26767923023E+03  0.32020968115E+03  0.12508887029E+03 0.  0.
          5    1    3    3  502    0  0.78042080157E+02 -0.15783982716E+02  0.46908921988E+02  0.92507403745E+02  0.41800000000E+01 0. -1.
         -5    1    3    3    0  502  0.27399081047E+02 -0.48379914123E+02  0.22077030824E+03  0.22770227740E+03  0.41800000000E+01 0. -1.
        -11    1    1    2    0    0 -0.70142855920E+02  0.95010983630E+01  0.34954092477E+02  0.78943522139E+02  0.00000000000E+00 0.  1.
         11    1    1    2    0    0 -0.35298305284E+02  0.54662798476E+02 -0.51490564300E+02  0.82977527712E+02  0.00000000000E+00 0. -1.
</event>
<event>
 7    1  0.2840156E-009  0.1018166E+03  0.7561462E-02  0.1276522E+00
          1   -1    0    0  501    0  0.00000000000E+00  0.00000000000E+00  0.55506021176E+03  0.55506021176E+03  0.00000000000E+00 0. -1.
         -1   -1    0    0    0  501 -0.00000000000E+00 -0.00000000000E+00 -0.24006966767E+02  0.24006966767E+02  0.00000000000E+00 0.  1.
         25    2    1    2    0    0 -0.19996052239E+02  0.12547746038E+02  0.22272862844E+03  0.25653964013E+03  0.12508899629E+03 0.  0.
          5    1    3    3  502    0  0.14505934580E+02  0.63468083432E+02  0.12475361488E+03  0.14078194692E+03  0.41800000000E+01 0.  1.
         -5    1    3    3    0  502 -0.34501986819E+02 -0.50920337394E+02  0.97975013558E+02  0.11575769321E+03  0.41800000000E+01 0.  1.
        -11    1    1    2    0    0  0.70224400444E+01 -0.43038782884E+02  0.26180990910E+03  0.26541680429E+03  0.00000000000E+00 0.  1.
         11    1    1    2    0    0  0.12973612195E+02  0.30491036846E+02  0.46514707457E+02  0.57110734115E+02  0.00000000000E+00 0. -1.
</event>
<event>
 7    1  0.2840156E-009  0.1226707E+03  0.7561462E-02  0.1238755E+00
         -2   -1    0    0    0  501 -0.00000000000E+00  0.00000000000E+00  0.27351269747E+02  0.27351269747E+02  0.00000000000E+00 0.  1.
          2   -1    0    0  501    0  0.00000000000E+00 -0.00000000000E+00 -0.17437272133E+04  0.17437272133E+04  0.00000000000E+00 0. -1.
         25    2    1    2    0    0  0.78016234877E+01 -0.10628164497E+03 -0.15271403132E+04  0.15359562285E+04  0.12508935335E+03 0.  0.
          5    1    3    3  502    0  0.38539719915E+02 -0.48077298234E+02 -0.26531006976E+03  0.27240345470E+03  0.41800000000E+01 0. -1.
         -5    1    3    3    0  502 -0.30738096427E+02 -0.58204346736E+02 -0.12618302434E+04  0.12635527738E+04  0.41800000000E+01 0. -1.
        -11    1    1    2    0    0 -0.28005314378E+02  0.77961125874E+02 -0.18146163596E+03  0.19947571308E+03  0.00000000000E+00 0. -1.
         11    1    1    2    0    0  0.20203690891E+02  0.28320519096E+02 -0.77739943611E+01  0.35646541428E+02  0.00000000000E+00 0.  1.
</event>
<event>
 7    1  0.2840156E-009  0.1167367E+03  0.7561462E-02  0.1248580E+00
         -1   -1    0    0    0  501 -0.00000000000E+00  0.00000000000E+00  0.11058843157E+03  0.11058843157E+03  0.00000000000E+00 0.  1.
          1   -1    0    0  501    0  0.00000000000E+00 -0.00000000000E+00 -0.16017715847E+03  0.16017715847E+03  0.00000000000E+00 0. -1.
         25    2    1    2    0    0 -0.84068720170E+01  0.75059218295E+02 -0.34997778916E+02  0.15025626610E+03  0.12509012441E+03 0.  0.
          5    1    3    3  502    0 -0.41325760408E+02  0.68824476057E+02  0.22589492787E+02  0.83500805758E+02  0.41800000000E+01 0.  1.
         -5    1    3    3    0  502  0.32918888391E+02  0.62347422374E+01 -0.57587271703E+02  0.66755460345E+02  0.41800000000E+01 0.  1.
        -11    1    1    2    0    0 -0.38482623701E+02 -0.11165902330E+02 -0.88040599146E+00  0.40079481240E+02  0.00000000000E+00 0.  1.
         11    1    1    2    0    0  0.46889495718E+02 -0.63893315965E+02 -0.13710541993E+02  0.80429842691E+02  0.00000000000E+00 0. -1.
</event>
<event>
 7    1  0.2840156E-009  0.1902174E+03  0.7561462E-02  0.1158265E+00
         -4   -1    0    0    0  501 -0.00000000000E+00  0.00000000000E+00  0.18774628026E+03  0.18774628026E+03  0.00000000000E+00 0. -1.
          4   -1    0    0  501    0  0.00000000000E+00 -0.00000000000E+00 -0.28018254709E+03  0.28018254709E+03  0.00000000000E+00 0.  1.
         25    2    1    2    0    0 -0.15073018283E+03  0.55534237791E+02  0.76252847228E+02  0.21741165483E+03  0.12509872646E+03 0.  0.
          5    1    3    3  502    0 -0.16617111293E+03  0.65379522755E+02  0.83634543879E+02  0.19722963798E+03  0.41800000000E+01 0.  1.
         -5    1    3    3    0  502  0.15440930103E+02 -0.98452849641E+01 -0.73816966513E+01  0.20182016844E+02  0.41800000000E+01 0.  1.
        -11    1    1    2    0    0  0.16226675777E+03 -0.55499249289E+02 -0.14667780278E+03  0.22566578203E+03  0.00000000000E+00 0.  1.
         11    1    1    2    0    0 -0.11536574939E+02 -0.34988501919E-01 -0.22011311275E+02  0.24851390496E+02  0.00000000000E+00 0. -1.
</event>
<event>
 7    1  0.2840156E-009  0.2860498E+03  0.7561462E-02  0.1092430E+00
          2   -1    0    0  501    0  0.00000000000E+00  0.00000000000E+00  0.11998040823E+04  0.11998040823E+04  0.00000000000E+00 0. -1.
         -2   -1    0    0    0  501 -0.00000000000E+00 -0.00000000000E+00 -0.77668074027E+02  0.77668074027E+02  0.00000000000E+00 0.  1.
         25    2    1    2    0    0  0.19610196352E+03  0.17948951855E+03  0.78713554351E+03  0.84017987104E+03  0.12508950590E+03 0.  0.
          5    1    3    3  502    0  0.76178780484E+01 -0.18430675864E+02  0.59895054084E+02  0.63266197788E+02  0.41800000000E+01 0.  1.
         -5    1    3    3    0  502  0.18848408547E+03  0.19792019441E+03  0.72724048942E+03  0.77691367325E+03  0.41800000000E+01 0.  1.
        -11    1    1    2    0    0 -0.56890457369E+02 -0.79225322233E+01  0.95527857266E+02  0.11146686580E+03  0.00000000000E+00 0.  1.
         11    1    1    2    0    0 -0.13921150615E+03 -0.17156698633E+03  0.23947260750E+03  0.32582541949E+03  0.00000000000E+00 0. -1.
</event>
<event>
 7    1  0.2840156E-009  0.1039600E+03  0.7561462E-02  0.1272182E+00
         -2   -1    0    0    0  501 -0.00000000000E+00  0.00000000000E+00  0.62348132348E+02  0.62348132348E+02  0.00000000000E+00 0.  1.
          2   -1    0    0  501    0  0.00000000000E+00 -0.00000000000E+00 -0.22764634691E+03  0.22764634691E+03  0.00000000000E+00 0. -1.
         25    2    1    2    0    0  0.13338902148E+02 -0.19945942018E+02 -0.14727163207E+03  0.19471053299E+03  0.12508993217E+03 0.  0.
          5    1    3    3  502    0  0.13611814745E+02  0.46716754474E+02 -0.23798014329E+02  0.54328211228E+02  0.41800000000E+01 0. -1.
         -5    1    3    3    0  502 -0.27291259686E+00 -0.66662696492E+02 -0.12347361774E+03  0.14038232176E+03  0.41800000000E+01 0. -1.
        -11    1    1    2    0    0  0.10981285416E+02 -0.32592561630E+02  0.80973770758E+00  0.34402316465E+02  0.00000000000E+00 0.  1.
         11    1    1    2    0    0 -0.24320187564E+02  0.52538503649E+02 -0.18836320196E+02  0.60881629802E+02  0.00000000000E+00 0. -1.
</event>
<event>
 7    1  0.2840156E-009  0.1415119E+03  0.7561462E-02  0.1211309E+00
         -2   -1    0    0    0  501 -0.00000000000E+00  0.00000000000E+00  0.25132635068E+02  0.25132635068E+02  0.00000000000E+00 0.  1.
          2   -1    0    0  501    0  0.00000000000E+00 -0.00000000000E+00 -0.88026201835E+03  0.88026201835E+03  0.00000000000E+00 0. -1.
         25    2    1    2    0    0  0.10018494121E+03  0.11723204192E+02 -0.47801474474E+03  0.50430167818E+03  0.12509048913E+03 0.  0.
          5    1    3    3  502    0  0.12374110501E+03 -0.38528422642E+01 -0.30919447674E+03  0.33308467738E+03  0.41800000000E+01 0.  1.
         -5    1    3    3    0  502 -0.23556163794E+02  0.15576046456E+02 -0.16882026800E+03  0.17121700080E+03  0.41800000000E+01 0.  1.
        -11    1    1    2    0    0 -0.17257321749E+02  0.32370245456E+02 -0.59654097094E+02  0.70030416570E+02  0.00000000000E+00 0.  1.
         11    1    1    2    0    0 -0.82927619463E+02 -0.44093449647E+02 -0.31746054146E+03  0.33106255867E+03  0.00000000000E+00 0. -1.
</event>
<event>
 7    1  0.2840156E-009  0.1437990E+03  0.7561462E-02  0.1208307E+00
         -2   -1    0    0    0  501 -0.00000000000E+00  0.00000000000E+00  0.45953926793E+02  0.45953926793E+02  0.00000000000E+00 0.  1.
          2   -1    0    0  501    0  0.00000000000E+00 -0.00000000000E+00 -0.53072851980E+03  0.53072851980E+03  0.00000000000E+00 0. -1.
         25    2    1    2    0    0 -0.10349596425E+03  0.39857093073E+02 -0.25929269844E+03  0.30851277372E+03  0.12508967023E+03 0.  0.
          5    1    3    3  502    0 -0.12164278708E+03  0.32374414970E+02 -0.25949299640E+03  0.28844264243E+03  0.41800000000E+01 0. -1.
         -5    1    3    3    0  502  0.18146822831E+02  0.74826781035E+01  0.20029796041E+00  0.20070131283E+02  0.41800000000E+01 0. -1.
        -11    1    1    2    0    0  0.84148038252E+02 -0.67476079755E+02 -0.19435253173E+03  0.22227645011E+03  0.00000000000E+00 0. -1.
         11    1    1    2    0    0  0.19347925998E+02  0.27618986682E+02 -0.31129362835E+02  0.45893222771E+02  0.00000000000E+00 0.  1.
</event>
<event>
 7    1  0.3184394E-009  0.1210951E+03  0.7561462E-02  0.1241301E+00
          4   -1    0    0  501    0  0.00000000000E+00  0.00000000000E+00  0.96785166589E+02  0.96785166589E+02  0.00000000000E+00 0. -1.
         -4   -1    0    0    0  501 -0.00000000000E+00 -0.00000000000E+00 -0.20557669432E+03  0.20557669432E+03  0.00000000000E+00 0.  1.
         25    2    1    2    0    0 -0.23833436096E+02 -0.83289369891E+02 -0.33542467858E+02  0.15581343045E+03  0.12509027199E+03 0.  0.
          5    1    3    3  502    0 -0.42558022604E+02 -0.10189454399E+03 -0.53194116418E+02  0.12264081623E+03  0.41800000000E+01 0.  1.
         -5    1    3    3    0  502  0.18724586508E+02  0.18605174101E+02  0.19651648560E+02  0.33172614223E+02  0.41800000000E+01 0.  1.
        -11    1    1    2    0    0  0.39507959453E+02  0.30550924049E+02  0.39678565947E+01  0.50099717627E+02  0.00000000000E+00 0. -1.
         11    1    1    2    0    0 -0.15674523358E+02  0.52738445843E+02 -0.79216916470E+02  0.96448712835E+02  0.00000000000E+00 0.  1.
</event>
<event>
 7    1  0.2840156E-009  0.1264833E+03  0.7561462E-02  0.1232769E+00
          1   -1    0    0  501    0  0.00000000000E+00  0.00000000000E+00  0.22719316677E+03  0.22719316677E+03  0.00000000000E+00 0. -1.
         -1   -1    0    0    0  501 -0.00000000000E+00 -0.00000000000E+00 -0.11450638964E+03  0.11450638964E+03  0.00000000000E+00 0.  1.
         25    2    1    2    0    0  0.93581096072E+02 -0.61644168726E+01  0.13752481395E+03  0.20822199576E+03  0.12509158040E+03 0.  0.
          5    1    3    3  502    0  0.32788379650E+02  0.58582877866E+02  0.64010728161E+02  0.92854063663E+02  0.41800000000E+01 0.  1.
         -5    1    3    3    0  502  0.60792716422E+02 -0.64747294738E+02  0.73514085789E+02  0.11536793209E+03  0.41800000000E+01 0.  1.
        -11    1    1    2    0    0 -0.28925687306E+02 -0.91628507812E+01  0.33397418295E+02  0.45122508456E+02  0.00000000000E+00 0. -1.
         11    1    1    2    0    0 -0.64655408766E+02  0.15327267654E+02 -0.58235455111E+02  0.88355052195E+02  0.00000000000E+00 0.  1.
</event>
<event>
 7    1  0.2840156E-009  0.8724723E+02  0.7561462E-02  0.1309658E+00
         -2   -1    0    0    0  501 -0.00000000000E+00  0.00000000000E+00  0.33033856301E+02  0.33033856301E+02  0.00000000000E+00 0.  1.
          2   -1    0    0  501    0  0.00000000000E+00 -0.00000000000E+00 -0.49564270733E+03  0.49564270733E+03  0.00000000000E+00 0. -1.
         25    2    1    2    0    0  0.35618706566E+02 -0.58279855128E+02 -0.24372300641E+03  0.28233604190E+03  0.12508997933E+03 0.  0.
          5    1    3    3  502    0  0.53516339169E+01 -0.28719574204E+02 -0.23755096309E+03  0.23937707993E+03  0.41800000000E+01 0.  1.
         -5    1    3    3    0  502  0.30267072649E+02 -0.29560280924E+02 -0.61720433204E+01  0.42958961973E+02  0.41800000000E+01 0.  1.
        -11    1    1    2    0    0 -0.19067897680E+02 -0.16906282973E+02 -0.11046909343E+03  0.11337031238E+03  0.00000000000E+00 0. -1.
         11    1    1    2    0    0 -0.16550808886E+02  0.75186138101E+02 -0.10841675119E+03  0.13297020935E+03  0.00000000000E+00 0.  1.
</event>
<event>
 7    1  0.2840156E-009  0.1988428E+03  0.7561462E-02  0.1150719E+00
         -1   -1    0    0    0  501 -0.00000000000E+00  0.00000000000E+00  0.12482868539E+04  0.12482868539E+04  0.00000000000E+00 0.  1.
          1   -1    0    0  501    0  0.00000000000E+00 -0.00000000000E+00 -0.37779019744E+02  0.37779019744E+02  0.00000000000E+00 0. -1.
         25    2    1    2    0    0 -0.15337851166E+03 -0.10450197984E+03  0.55112590238E+03  0.59483868548E+03  0.12509064652E+03 0.  0.
          5    1    3    3  502    0 -0.13476586844E+03 -0.38294743532E+02  0.25685765961E+03  0.29261178442E+03  0.41800000000E+01 0.  1.
         -5    1    3    3    0  502 -0.18612643216E+02 -0.66207236313E+02  0.29426824276E+03  0.30222690106E+03  0.41800000000E+01 0.  1.
        -11    1    1    2    0    0  0.86599371306E+02  0.78742263858E+02  0.53561061543E+03  0.54825042324E+03  0.00000000000E+00 0.  1.
         11    1    1    2    0    0  0.66779140352E+02  0.25759715987E+02  0.12377131633E+03  0.14297676489E+03  0.00000000000E+00 0. -1.
</event>
<event>
 7    1  0.2840156E-009  0.1353043E+03  0.7561462E-02  0.1219791E+00
          1   -1    0    0  501    0  0.00000000000E+00  0.00000000000E+00  0.73384639735E+03  0.73384639735E+03  0.00000000000E+00 0. -1.
         -1   -1    0    0    0  501 -0.00000000000E+00 -0.00000000000E+00 -0.38629031204E+02  0.38629031204E+02  0.00000000000E+00 0.  1.
         25    2    1    2    0    0  0.83499585540E+02 -0.85724309094E+02  0.48369038356E+03  0.51373600747E+03  0.12508980883E+03 0.  0.
          5    1    3    3  502    0  0.32883842430E+02 -0.69923936058E+02  0.10034074412E+03  0.12671401366E+03  0.41800000000E+01 0. -1.
         -5    1    3    3    0  502  0.50615743110E+02 -0.15800373036E+02  0.38334963944E+03  0.38702199381E+03  0.41800000000E+01 0. -1.
        -11    1    1    2    0    0  0.10128916679E+02  0.28639255042E+02  0.90305636869E+02  0.95278066378E+02  0.00000000000E+00 0. -1.
         11    1    1    2    0    0 -0.93628502219E+02  0.57085054053E+02  0.12122134572E+03  0.16346135471E+03  0.00000000000E+00 0.  1.
</event>
<event>
 7    1  0.2840156E-009  0.1072420E+03  0.7561462E-02  0.1265764E+00
          1   -1    0    0  501    0  0.00000000000E+00  0.00000000000E+00  0.14146809153E+04  0.14146809153E+04  0.00000000000E+00 0. -1.
         -1   -1    0    0    0  501 -0.00000000000E+00 -0.00000000000E+00 -0.10520895544E+02  0.10520895544E+02  0.00000000000E+00 0.  1.
         25    2    1    2    0    0 -0.19863191680E+02  0.40501529669E+02  0.96989410930E+03  0.97896699335E+03  0.12508745146E+03 0.  0.
          5    1    3    3  502    0 -0.46405962534E+02 -0.16036239314E+02  0.70731635998E+03  0.70903073264E+03  0.41800000000E+01 0. -1.
         -5    1    3    3    0  502  0.26542770853E+02  0.56537768983E+02  0.26257774932E+03  0.26993626071E+03  0.41800000000E+01 0. -1.
        -11    1    1    2    0    0  0.39081663940E+02 -0.62303434321E+02  0.30502535096E+03  0.31376672723E+03  0.00000000000E+00 0.  1.
         11    1    1    2    0    0 -0.19218472260E+02  0.21801904652E+02  0.12924055948E+03  0.13246809026E+03  0.00000000000E+00 0. -1.
</event>
<event>
 7    1  0.2840156E-009  0.1133289E+03  0.7561462E-02  0.1254527E+00
          1   -1    0    0  501    0  0.00000000000E+00  0.00000000000E+00  0.11088806047E+03  0.11088806047E+03  0.00000000000E+00 0. -1.
         -1   -1    0    0    0  501 -0.00000000000E+00 -0.00000000000E+00 -0.14778341483E+03  0.14778341483E+03  0.00000000000E+00 0.  1.
         25    2    1    2    0    0 -0.49967702485E+02 -0.42539307948E+02 -0.41064000390E+02  0.14710814019E+03  0.12509272069E+03 0.  0.
          5    1    3    3  502    0  0.29577967226E+02 -0.26375739765E+02  0.20811695252E+02  0.44957033405E+02  0.41800000000E+01 0. -1.
         -5    1    3    3    0  502 -0.79545669711E+02 -0.16163568183E+02 -0.61875695643E+02  0.10215110679E+03  0.41800000000E+01 0. -1.
        -11    1    1    2    0    0  0.59932514305E+02  0.60392476230E+02 -0.11428701451E+02  0.85847380118E+02  0.00000000000E+00 0.  1.
         11    1    1    2    0    0 -0.99648118201E+01 -0.17853168283E+02  0.15597347483E+02  0.25715954986E+02  0.00000000000E+00 0. -1.
</event>
<event>
 7    1  0.2840156E-009  0.1079785E+03  0.7561462E-02  0.1264360E+00
         -3   -1    0    0    0  501 -0.00000000000E+00  0.00000000000E+00  0.66557996851E+02  0.66557996851E+02  0.00000000000E+00 0.  1.
          3   -1    0    0  501    0  0.00000000000E+00 -0.00000000000E+00 -0.25406868309E+03  0.25406868309E+03  0.00000000000E+00 0. -1.
         25    2    1    2    0    0 -0.48338304484E+02 -0.11352670036E+02 -0.16177436255E+03  0.21043761916E+03  0.12509025693E+03 0.  0.
          5    1    3    3  502    0 -0.81011650670E+02 -0.98744452659E+01 -0.54536465964E+02  0.98245054498E+02  0.41800000000E+01 0. -1.
         -5    1    3    3    0  502  0.32673346186E+02 -0.14782247700E+01 -0.10723789659E+03  0.11219256466E+03  0.41800000000E+01 0. -1.
        -11    1    1    2    0    0  0.53258654768E+02 -0.28981031670E+02  0.25391446378E+01  0.60686339153E+02  0.00000000000E+00 0.  1.
         11    1    1    2    0    0 -0.49203502841E+01  0.40333701706E+02 -0.28275468328E+02  0.49502721636E+02  0.00000000000E+00 0. -1.
</event>
<event>
 7    1  0.2840156E-009  0.1023253E+03  0.7561462E-02  0.1275481E+00
         -2   -1    0    0    0  501 -0.00000000000E+00  0.00000000000E+00  0.82257303443E+02  0.82257303443E+02  0.00000000000E+00 0. -1.
          2   -1    0    0  501    0  0.00000000000E+00 -0.00000000000E+00 -0.20179530391E+03  0.20179530391E+03  0.00000000000E+00 0.  1.
         25    2    1    2    0    0  0.37735264393E+02  0.60929261257E+02 -0.12394639602E+02  0.14469930964E+03  0.12509171860E+03 0.  0.
          5    1    3    3  502    0  0.22411199588E+02 -0.23419784683E+02  0.33974603899E+02  0.47143337723E+02  0.41800000000E+01 0.  1.
         -5    1    3    3    0  502  0.15324064805E+02  0.84349045940E+02 -0.46369243501E+02  0.97555971913E+02  0.41800000000E+01 0.  1.
        -11    1    1    2    0    0 -0.25554674108E+02 -0.16393390401E+01 -0.49686422805E+02  0.55896953517E+02  0.00000000000E+00 0.  1.
         11    1    1    2    0    0 -0.12180590285E+02 -0.59289922217E+02 -0.57456938062E+02  0.83456344202E+02  0.00000000000E+00 0. -1.
</event>
<event>
 7    1  0.3492847E-009  0.2049456E+03  0.7561462E-02  0.1145632E+00
          2   -1    0    0  501    0  0.00000000000E+00  0.00000000000E+00  0.87620921057E+03  0.87620921057E+03  0.00000000000E+00 0. -1.
         -2   -1    0    0    0  501 -0.00000000000E+00 -0.00000000000E+00 -0.50587343481E+02  0.50587343481E+02  0.00000000000E+00 0.  1.
         25    2    1    2    0    0 -0.33177257705E+02  0.17648871028E+03  0.44863319042E+03  0.49916773349E+03  0.12509073238E+03 0.  0.
          5    1    3    3  502    0 -0.15556006987E+02  0.18838987693E+03  0.43289305941E+03  0.47238396287E+03  0.41800000000E+01 0. -1.
         -5    1    3    3    0  502 -0.17621250718E+02 -0.11901166658E+02  0.15740131004E+02  0.26783770622E+02  0.41800000000E+01 0. -1.
        -11    1    1    2    0    0  0.55264772917E+02 -0.64233116589E+02  0.12660100782E+03  0.15234140466E+03  0.00000000000E+00 0.  1.
         11    1    1    2    0    0 -0.22087515212E+02 -0.11225559369E+03  0.25038766885E+03  0.27528741590E+03  0.00000000000E+00 0. -1.
</event>
<event>
 7    1  0.2840156E-009  0.8316428E+02  0.7561462E-02  0.1320304E+00
         -1   -1    0    0    0  501 -0.00000000000E+00  0.00000000000E+00  0.33112197146E+02  0.33112197146E+02  0.00000000000E+00 0. -1.
          1   -1    0    0  501    0  0.00000000000E+00 -0.00000000000E+00 -0.63049095105E+03  0.63049095105E+03  0.00000000000E+00 0.  1.
         25    2    1    2    0    0  0.58624817214E+02 -0.26425591347E+02 -0.48462934031E+03  0.50462781317E+03  0.12509376989E+03 0.  0.
          5    1    3    3  502    0 -0.16816824408E+02 -0.39659796826E+01 -0.48637598835E+01  0.18429952204E+02  0.41800000000E+01 0. -1.
         -5    1    3    3    0  502  0.75441641623E+02 -0.22459611664E+02 -0.47976558042E+03  0.48619786096E+03  0.41800000000E+01 0. -1.
        -11    1    1    2    0    0 -0.43699730093E+02  0.55293015153E+01 -0.12351248996E+03  0.13113189834E+03  0.00000000000E+00 0.  1.
         11    1    1    2    0    0 -0.14925087121E+02  0.20896289832E+02  0.10763076359E+02  0.27843436695E+02  0.00000000000E+00 0. -1.
</event>
<event>
 7    1  0.2840156E-009  0.9101434E+02  0.7561462E-02  0.1300414E+00
         -1   -1    0    0    0  501 -0.00000000000E+00  0.00000000000E+00  0.12561454091E+03  0.12561454091E+03  0.00000000000E+00 0.  1.
          1   -1    0    0  501    0  0.00000000000E+00 -0.00000000000E+00 -0.15327198387E+03  0.15327198387E+03  0.00000000000E+00 0. -1.
         25    2    1    2    0    0 -0.14571012246E+02 -0.31879531143E+02  0.53782383179E+02  0.14060158845E+03  0.12509053933E+03 0.  0.
          5    1    3    3  502    0  0.23215032920E+02 -0.53446378720E+02  0.72453906223E+02  0.93072520535E+02  0.41800000000E+01 0. -1.
         -5    1    3    3    0  502 -0.37786045166E+02  0.21566847577E+02 -0.18671523044E+02  0.47529067911E+02  0.41800000000E+01 0. -1.
        -11    1    1    2    0    0  0.10260457708E+02 -0.22825636578E+02  0.13643354144E+02  0.28503118950E+02  0.00000000000E+00 0.  1.
         11    1    1    2    0    0  0.43105545383E+01  0.54705167721E+02 -0.95083180283E+02  0.10978181739E+03  0.00000000000E+00 0. -1.
</event>
<event>
 7    1  0.2840156E-009  0.2111845E+03  0.7561462E-02  0.1140631E+00
         -1   -1    0    0    0  501 -0.00000000000E+00  0.00000000000E+00  0.37597738547E+03  0.37597738547E+03  0.00000000000E+00 0.  1.
          1   -1    0    0  501    0  0.00000000000E+00 -0.00000000000E+00 -0.13818377794E+03  0.13818377794E+03  0.00000000000E+00 0. -1.
         25    2    1    2    0    0  0.40119499579E+01 -0.19777939872E+03  0.91126644944E+02  0.25116614593E+03  0.12509029197E+03 0.  0.
          5    1    3    3  502    0  0.52153002284E+02 -0.13721507177E+03  0.92714716206E+02  0.17367038484E+03  0.41800000000E+01 0. -1.
         -5    1    3    3    0  502 -0.48141052326E+02 -0.60564326944E+02 -0.15880712620E+01  0.77495761094E+02  0.41800000000E+01 0. -1.
        -11    1    1    2    0    0  0.23697411804E+01  0.11052074571E+03  0.13537667895E+03  0.17477784788E+03  0.00000000000E+00 0.  1.
         11    1    1    2    0    0 -0.63816911383E+01  0.87258653011E+02  0.11290283637E+02  0.88217169597E+02  0.00000000000E+00 0. -1.
</event>
<event>
 7    1  0.2840156E-009  0.1054344E+03  0.7561462E-02  0.1269266E+00
          4   -1    0    0  501    0  0.00000000000E+00  0.00000000000E+00  0.88882930854E+02  0.88882930854E+02  0.00000000000E+00 0. -1.
         -4   -1    0    0    0  501 -0.00000000000E+00 -0.00000000000E+00 -0.14522710855E+03  0.14522710855E+03  0.00000000000E+00 0.  1.
         25    2    1    2    0    0  0.23864807056E+02 -0.34038389086E+02 -0.25164211315E+02  0.13420085628E+03  0.12509393010E+03 0.  0.
          5    1    3    3  502    0  0.43081467273E+02  0.28083238927E+02  0.19548405846E+02  0.55175118506E+02  0.41800000000E+01 0. -1.
         -5    1    3    3    0  502 -0.19216660217E+02 -0.62121628014E+02 -0.44712617161E+02  0.79025737772E+02  0.41800000000E+01 0. -1.
        -11    1    1    2    0    0  0.25095285997E+01  0.58253666459E+02 -0.25568182717E+02  0.63667254984E+02  0.00000000000E+00 0.  1.
         11    1    1    2    0    0 -0.26374335656E+02 -0.24215277373E+02 -0.56117836642E+01  0.36241928142E+02  0.00000000000E+00 0. -1.
</event>
<event>
 7    1  0.2840156E-009  0.1081484E+03  0.7561462E-02  0.1264038E+00
          3   -1    0    0  501    0  0.00000000000E+00  0.00000000000E+00  0.24289376613E+02  0.24289376613E+02  0.00000000000E+00 0. -1.
         -3   -1    0    0    0  501 -0.00000000000E+00 -0.00000000000E+00 -0.65210488683E+03  0.65210488683E+03  0.00000000000E+00 0.  1.
         25    2    1    2    0    0  0.32980392708E+02  0.21098277039E+02 -0.47548361266E+03  0.49321960202E+03  0.12509223122E+03 0.  0.
          5    1    3    3  502    0 -0.39553455311E+02  0.15627364838E+02 -0.76397287272E+02  0.87536896572E+02  0.41800000000E+01 0. -1.
         -5    1    3    3    0  502  0.72533848019E+02  0.54709122008E+01 -0.39908632539E+03  0.40568270545E+03  0.41800000000E+01 0. -1.
        -11    1    1    2    0    0 -0.88810611653E+01  0.36870283128E+02 -0.70299073012E+02  0.79876471452E+02  0.00000000000E+00 0.  1.
         11    1    1    2    0    0 -0.24099331543E+02 -0.57968560167E+02 -0.82032824549E+02  0.10329818997E+03  0.00000000000E+00 0. -1.
</event>
<event>
 7    1  0.2840156E-009  0.7384379E+02  0.7561462E-02  0.1347489E+00
          2   -1    0    0  501    0  0.00000000000E+00  0.00000000000E+00  0.60466211779E+03  0.60466211779E+03  0.00000000000E+00 0. -1.
         -2   -1    0    0    0  501 -0.00000000000E+00 -0.00000000000E+00 -0.26041056627E+02  0.26041056627E+02  0.00000000000E+00 0.  1.
         25    2    1    2    0    0 -0.48959279900E+01 -0.57096764976E+02  0.37640143414E+03  0.40076088242E+03  0.12508890667E+03 0.  0.
          5    1    3    3  502    0 -0.19852896887E+02 -0.20301744977E+02  0.35361844492E+03  0.35478130638E+03  0.41800000000E+01 0.  1.
         -5    1    3    3    0  502  0.14956968897E+02 -0.36795019999E+02  0.22782989218E+02  0.45979576042E+02  0.41800000000E+01 0.  1.
        -11    1    1    2    0    0  0.29641293300E+02  0.27106213363E+02  0.22447433346E+02  0.46013479929E+02  0.00000000000E+00 0.  1.
         11    1    1    2    0    0 -0.24745365310E+02  0.29990551613E+02  0.17977219368E+03  0.18392881207E+03  0.00000000000E+00 0. -1.
</event>
<event>
 7    1  0.2840156E-009  0.3056729E+03  0.7561462E-02  0.1082439E+00
          1   -1    0    0  501    0  0.00000000000E+00  0.00000000000E+00  0.18873609690E+03  0.18873609690E+03  0.00000000000E+00 0. -1.
         -1   -1    0    0    0  501 -0.00000000000E+00 -0.00000000000E+00 -0.60770049789E+03  0.60770049789E+03  0.00000000000E+00 0.  1.
         25    2    1    2    0    0 -0.24222607898E+03  0.15362142614E+03 -0.45339551669E+02  0.31618950361E+03  0.12508841410E+03 0.  0.
          5    1    3    3  502    0 -0.60381635733E+02 -0.14678397860E+02 -0.26438515330E+02  0.67659920118E+02  0.41800000000E+01 0. -1.
         -5    1    3    3    0  502 -0.18184444325E+03  0.16829982400E+03 -0.18901036339E+02  0.24852958349E+03  0.41800000000E+01 0. -1.
        -11    1    1    2    0    0  0.10936644254E+03 -0.12361291428E+03 -0.19122366689E+03  0.25260178564E+03  0.00000000000E+00 0.  1.
         11    1    1    2    0    0  0.13285963644E+03 -0.30008511858E+02 -0.18240118244E+03  0.22764530554E+03  0.00000000000E+00 0. -1.
</event>
<event>
 7    1  0.2840156E-009  0.7416010E+02  0.7561462E-02  0.1346492E+00
          2   -1    0    0  501    0  0.00000000000E+00  0.00000000000E+00  0.14468353695E+03  0.14468353695E+03  0.00000000000E+00 0. -1.
         -2   -1    0    0    0  501 -0.00000000000E+00 -0.00000000000E+00 -0.10744999606E+03  0.10744999606E+03  0.00000000000E+00 0.  1.
         25    2    1    2    0    0  0.40659750757E+02 -0.28545915464E+02 -0.16136254608E+02  0.13555794905E+03  0.12508994450E+03 0.  0.
          5    1    3    3  502    0  0.64540704466E+02 -0.13102883403E+02  0.36626764775E+02  0.75473044090E+02  0.41800000000E+01 0.  1.
         -5    1    3    3    0  502 -0.23880953709E+02 -0.15443032061E+02 -0.52763019382E+02  0.60084904956E+02  0.41800000000E+01 0.  1.
        -11    1    1    2    0    0 -0.13194368055E+02 -0.10166871479E+01 -0.25079412805E+02  0.28356691411E+02  0.00000000000E+00 0.  1.
         11    1    1    2    0    0 -0.27465382702E+02  0.29562602612E+02  0.78449208299E+02  0.88218892551E+02  0.00000000000E+00 0. -1.
</event>
<event>
 7    1  0.2840156E-009  0.2086346E+03  0.7561462E-02  0.1142652E+00
         -1   -1    0    0    0  501 -0.00000000000E+00  0.00000000000E+00  0.31218052347E+03  0.31218052347E+03  0.00000000000E+00 0.  1.
          1   -1    0    0  501    0  0.00000000000E+00 -0.00000000000E+00 -0.17040264922E+03  0.17040264922E+03  0.00000000000E+00 0. -1.
         25    2    1    2    0    0  0.11241582162E+03 -0.16275893478E+03  0.12462372242E+03  0.26515472059E+03  0.12509262912E+03 0.  0.
          5    1    3    3  502    0  0.39674290622E+01 -0.83793244478E+02  0.96664584813E+02  0.12805687280E+03  0.41800000000E+01 0.  1.
         -5    1    3    3    0  502  0.10844839256E+03 -0.78965690298E+02  0.27959137609E+02  0.13709784779E+03  0.41800000000E+01 0.  1.
        -11    1    1    2    0    0 -0.44480828441E+02  0.46080923111E+02  0.46642991289E+02  0.79231081085E+02  0.00000000000E+00 0.  1.
         11    1    1    2    0    0 -0.67934993182E+02  0.11667801166E+03 -0.29488839462E+02  0.13819737102E+03  0.00000000000E+00 0. -1.
</event>
<event>
 7    1  0.2840156E-009  0.1089214E+03  0.7561462E-02  0.1262580E+00
          2   -1    0    0  501    0  0.00000000000E+00  0.00000000000E+00  0.17122698302E+03  0.17122698302E+03  0.00000000000E+00 0. -1.
         -2   -1    0    0    0  501 -0.00000000000E+00 -0.00000000000E+00 -0.10168418048E+03  0.10168418048E+03  0.00000000000E+00 0.  1.
         25    2    1    2    0    0  0.75014111173E+02  0.19076586454E+02  0.75504266589E+02  0.16534521977E+03  0.12508842633E+03 0.  0.
          5    1    3    3  502    0  0.48828938313E+02 -0.37452120257E+02  0.81957042745E+02  0.10257366028E+03  0.41800000000E+01 0.  1.
         -5    1    3    3    0  502  0.26185172860E+02  0.56528706712E+02 -0.64527761558E+01  0.62771559486E+02  0.41800000000E+01 0.  1.
        -11    1    1    2    0    0 -0.21747569281E+02  0.18488037910E+02 -0.26782105941E+02  0.39141352992E+02  0.00000000000E+00 0.  1.
         11    1    1    2    0    0 -0.53266541891E+02 -0.37564624365E+02  0.20820641888E+02  0.68424590736E+02  0.00000000000E+00 0. -1.
</event>
<event>
 7    1  0.2840156E-009  0.9582331E+02  0.7561462E-02  0.1289332E+00
          1   -1    0    0  501    0  0.00000000000E+00  0.00000000000E+00  0.57036840230E+02  0.57036840230E+02  0.00000000000E+00 0. -1.
         -1   -1    0    0    0  501 -0.00000000000E+00 -0.00000000000E+00 -0.24591294568E+03  0.24591294568E+03  0.00000000000E+00 0.  1.
         25    2    1    2    0    0 -0.46787267620E+01 -0.19223648691E+02 -0.15611317502E+03  0.20102220792E+03  0.12508863061E+03 0.  0.
          5    1    3    3  502    0 -0.44320596640E+02 -0.54744186175E+02 -0.10883692846E+03  0.12970809768E+03  0.41800000000E+01 0. -1.
         -5    1    3    3    0  502  0.39641869878E+02  0.35520537484E+02 -0.47276246558E+02  0.71314110239E+02  0.41800000000E+01 0. -1.
        -11    1    1    2    0    0 -0.58289765495E+01  0.42110144871E+02 -0.54180879446E+02  0.68868054759E+02  0.00000000000E+00 0.  1.
         11    1    1    2    0    0  0.10507703312E+02 -0.22886496180E+02  0.21417949017E+02  0.33059523233E+02  0.00000000000E+00 0. -1.
</event>
<event>
 7    1  0.2840156E-009  0.1206274E+03  0.7561462E-02  0.1242066E+00
          1   -1    0    0  501    0  0.00000000000E+00  0.00000000000E+00  0.27383223498E+03  0.27383223498E+03  0.00000000000E+00 0. -1.
         -1   -1    0    0    0  501 -0.00000000000E+00 -0.00000000000E+00 -0.78328870603E+02  0.78328870603E+02  0.00000000000E+00 0.  1.
         25    2    1    2    0    0 -0.70070274989E+02 -0.11070606620E+02  0.24792084160E+02  0.14593693975E+03  0.12510212300E+03 0.  0.
          5    1    3    3  502    0 -0.10547197493E+03  0.24855945973E+01  0.15883293603E+02  0.10677203328E+03  0.41800000000E+01 0.  1.
         -5    1    3    3    0  502  0.35401699937E+02 -0.13556201217E+02  0.89087905565E+01  0.39164906473E+02  0.41800000000E+01 0.  1.
        -11    1    1    2    0    0  0.38636774730E+02  0.39424461332E+02  0.38235950206E+02  0.67149656745E+02  0.00000000000E+00 0.  1.
         11    1    1    2    0    0  0.31433500259E+02 -0.28353854712E+02  0.13247533002E+03  0.13907450909E+03  0.00000000000E+00 0. -1.
</event>
<event>
 7    1  0.2840156E-009  0.8385073E+02  0.7561462E-02  0.1318466E+00
          3   -1    0    0  501    0  0.00000000000E+00  0.00000000000E+00  0.23322071906E+02  0.23322071906E+02  0.00000000000E+00 0. -1.
         -3   -1    0    0    0  501 -0.00000000000E+00 -0.00000000000E+00 -0.64127857225E+03  0.64127857225E+03  0.00000000000E+00 0.  1.
         25    2    1    2    0    0  0.42127091479E+00 -0.32344739678E+02 -0.49416102168E+03  0.51077173965E+03  0.12508515107E+03 0.  0.
          5    1    3    3  502    0 -0.46781868776E+02  0.20708713575E+02 -0.13077139230E+03  0.14048495829E+03  0.41800000000E+01 0.  1.
         -5    1    3    3    0  502  0.47203139690E+02 -0.53053453252E+02 -0.36338962939E+03  0.37028678135E+03  0.41800000000E+01 0.  1.
        -11    1    1    2    0    0 -0.16019908201E+02  0.16010005314E+02  0.48949203298E+01  0.23171490542E+02  0.00000000000E+00 0. -1.
         11    1    1    2    0    0  0.15598637286E+02  0.16334734364E+02 -0.12869039899E+03  0.13065741397E+03  0.00000000000E+00 0.  1.
</event>
<event>
 7    1  0.2840156E-009  0.6339987E+02  0.7561462E-02  0.1384094E+00
         -2   -1    0    0    0  501 -0.00000000000E+00  0.00000000000E+00  0.48846034550E+02  0.48846034550E+02  0.00000000000E+00 0.  1.
          2   -1    0    0  501    0  0.00000000000E+00 -0.00000000000E+00 -0.27195705111E+03  0.27195705111E+03  0.00000000000E+00 0. -1.
         25    2    1    2    0    0 -0.27038574010E+02  0.86073186087E+00 -0.85394246337E+02  0.15385611824E+03  0.12509077692E+03 0.  0.
          5    1    3    3  502    0 -0.29149513022E+02  0.26642332248E+02  0.20554301661E+02  0.44715318334E+02  0.41800000000E+01 0.  1.
         -5    1    3    3    0  502  0.21109390114E+01 -0.25781600387E+02 -0.10594854800E+03  0.10914079991E+03  0.41800000000E+01 0.  1.
        -11    1    1    2    0    0 -0.16222005802E+02  0.55648028141E+01  0.48501229295E+01  0.17822575432E+02  0.00000000000E+00 0.  1.
         11    1    1    2    0    0  0.43260579812E+02 -0.64255346750E+01 -0.14256689315E+03  0.14912439199E+03  0.00000000000E+00 0. -1.
</event>
<event>
 7    1  0.2840156E-009  0.8717001E+02  0.7561462E-02  0.1309853E+00
         -1   -1    0    0    0  501 -0.00000000000E+00  0.00000000000E+00  0.11759688725E+03  0.11759688725E+03  0.00000000000E+00 0.  1.
          1   -1    0    0  501    0  0.00000000000E+00 -0.00000000000E+00 -0.20878212297E+03  0.20878212297E+03  0.00000000000E+00 0. -1.
         25    2    1    2    0    0 -0.35311186530E+02 -0.42339287076E+02 -0.15125551917E+03  0.20387622060E+03  0.12509111128E+03 0.  0.
          5    1    3    3  502    0 -0.43868580075E+02  0.10120308667E+02 -0.18610631764E+01  0.45252722807E+02  0.41800000000E+01 0.  1.
         -5    1    3    3    0  502  0.85573935454E+01 -0.52459595743E+02 -0.14939445600E+03  0.15862349779E+03  0.41800000000E+01 0.  1.
        -11    1    1    2    0    0 -0.12801047496E+02  0.17443725733E+02  0.64614390455E+02  0.68140808905E+02  0.00000000000E+00 0.  1.
         11    1    1    2    0    0  0.48112234026E+02  0.24895561343E+02 -0.45441070002E+01  0.54361980703E+02  0.00000000000E+00 0. -1.
</event>
<event>
 7    1  0.2840156E-009  0.1384169E+03  0.7561462E-02  0.1215475E+00
          2   -1    0    0  501    0  0.00000000000E+00  0.00000000000E+00  0.21518625990E+03  0.21518625990E+03  0.00000000000E+00 0. -1.
         -2   -1    0    0    0  501 -0.00000000000E+00 -0.00000000000E+00 -0.97505949330E+02  0.97505949330E+02  0.00000000000E+00 0.  1.
         25    2    1    2    0    0  0.84029710466E+02 -0.23346039287E+02  0.10537107900E+03  0.18535692420E+03  0.12509234696E+03 0.  0.
          5    1    3    3  502    0  0.92708083844E+01  0.47043157120E+02  0.21518904856E+02  0.52721363660E+02  0.41800000000E+01 0.  1.
         -5    1    3    3    0  502  0.74758902082E+02 -0.70389196407E+02  0.83852174149E+02  0.13263556054E+03  0.41800000000E+01 0.  1.
        -11    1    1    2    0    0  0.19511730316E+02  0.87063942019E+01  0.75325482585E+01  0.22654981862E+02  0.00000000000E+00 0. -1.
         11    1    1    2    0    0 -0.10354144078E+03  0.14639645085E+02  0.47766833085E+01  0.10468030317E+03  0.00000000000E+00 0.  1.
</event>
<event>
 7    1  0.2840156E-009  0.1109843E+03  0.7561462E-02  0.1258758E+00
         -1   -1    0    0    0  501 -0.00000000000E+00  0.00000000000E+00  0.14176953625E+03  0.14176953625E+03  0.00000000000E+00 0.  1.
          1   -1    0    0  501    0  0.00000000000E+00 -0.00000000000E+00 -0.10017606403E+03  0.10017606403E+03  0.00000000000E+00 0. -1.
         25    2    1    2    0    0 -0.16484479616E+02  0.39554837066E+02 -0.31103623398E+01  0.13225956700E+03  0.12508635219E+03 0.  0.
          5    1    3    3  502    0 -0.24470497451E+02 -0.37092662369E+02  0.23730269664E+02  0.50549668104E+02  0.41800000000E+01 0. -1.
         -5    1    3    3    0  502  0.79860178346E+01  0.76647499436E+02 -0.26840632004E+02  0.81709898892E+02  0.41800000000E+01 0. -1.
        -11    1    1    2    0    0  0.16557219036E+00 -0.67659961286E+02  0.30618946993E+02  0.74265858174E+02  0.00000000000E+00 0.  1.
         11    1    1    2    0    0  0.16318907426E+02  0.28105124219E+02  0.14084887572E+02  0.35420175111E+02  0.00000000000E+00 0. -1.
</event>
<event>
 7    1  0.2840156E-009  0.1374163E+03  0.7561462E-02  0.1216848E+00
          2   -1    0    0  501    0  0.00000000000E+00  0.00000000000E+00  0.11192926832E+04  0.11192926832E+04  0.00000000000E+00 0. -1.
         -2   -1    0    0    0  501 -0.00000000000E+00 -0.00000000000E+00 -0.19001496251E+02  0.19001496251E+02  0.00000000000E+00 0.  1.
         25    2    1    2    0    0  0.86164526472E+02 -0.41083342159E+02  0.64565152742E+03  0.66454950383E+03  0.12509189248E+03 0.  0.
          5    1    3    3  502    0  0.95193074341E+02 -0.74282693759E+02  0.45466732272E+03  0.47044605083E+03  0.41800000000E+01 0. -1.
         -5    1    3    3    0  502 -0.90285478695E+01  0.33199351600E+02  0.19098420470E+03  0.19410345300E+03  0.41800000000E+01 0. -1.
        -11    1    1    2    0    0 -0.56633491688E+02  0.61385350485E+02  0.39838091066E+03  0.40704159936E+03  0.00000000000E+00 0. -1.
         11    1    1    2    0    0 -0.29531034784E+02 -0.20302008326E+02  0.56258748897E+02  0.66703076278E+02  0.00000000000E+00 0.  1.
</event>
<event>
 7    1  0.2840156E-009  0.9308519E+02  0.7561462E-02  0.1295548E+00
         -2   -1    0    0    0  501 -0.00000000000E+00  0.00000000000E+00  0.90178205402E+02  0.90178205402E+02  0.00000000000E+00 0.  1.
          2   -1    0    0  501    0  0.00000000000E+00 -0.00000000000E+00 -0.20338576453E+03  0.20338576453E+03  0.00000000000E+00 0. -1.
         25    2    1    2    0    0  0.72193166139E+02 -0.32645523587E+02 -0.82132819588E+02  0.16932422539E+03  0.12508920738E+03 0.  0.
          5    1    3    3  502    0  0.39148093696E+02  0.19026749466E+02  0.21577970537E+02  0.48761374548E+02  0.41800000000E+01 0.  1.
         -5    1    3    3    0  502  0.33045072443E+02 -0.51672273053E+02 -0.10371079013E+03  0.12056285084E+03  0.41800000000E+01 0.  1.
        -11    1    1    2    0    0 -0.29509536672E+02  0.45319679278E+01  0.31529376159E+02  0.43421803842E+02  0.00000000000E+00 0.  1.
         11    1    1    2    0    0 -0.42683629468E+02  0.28113555660E+02 -0.62604115700E+02  0.80817940699E+02  0.00000000000E+00 0. -1.
</event>
<event>
 7    1  0.2840156E-009  0.1315045E+03  0.7561462E-02  0.1225240E+00
          2   -1    0    0  501    0  0.00000000000E+00  0.00000000000E+00  0.42203679788E+03  0.42203679788E+03  0.00000000000E+00 0. -1.
         -2   -1    0    0    0  501 -0.00000000000E+00 -0.00000000000E+00 -0.46205117418E+02  0.46205117418E+02  0.00000000000E+00 0.  1.
         25    2    1    2    0    0 -0.29391181582E+02  0.83276643374E+02  0.20928733598E+03  0.25931597593E+03  0.12507895700E+03 0.  0.
          5    1    3    3  502    0 -0.71199796592E+02  0.84409486393E+02  0.14123944415E+03  0.17933328027E+03  0.41800000000E+01 0.  1.
         -5    1    3    3    0  502  0.41808615010E+02 -0.11328430189E+01  0.68047891833E+02  0.79982695661E+02  0.41800000000E+01 0.  1.
        -11    1    1    2    0    0  0.37131282350E+02 -0.91758591497E+02  0.97527413701E+02  0.13896030968E+03  0.00000000000E+00 0.  1.
         11    1    1    2    0    0 -0.77401007684E+01  0.84819481227E+01  0.69016930779E+02  0.69965629691E+02  0.00000000000E+00 0. -1.
</event>
<event>
 7    1  0.2840156E-009  0.1421554E+03  0.7561462E-02  0.1210458E+00
         -2   -1    0    0    0  501 -0.00000000000E+00  0.00000000000E+00  0.54453360133E+02  0.54453360133E+02  0.00000000000E+00 0.  1.
          2   -1    0    0  501    0  0.00000000000E+00 -0.00000000000E+00 -0.39011924179E+03  0.39011924179E+03  0.00000000000E+00 0. -1.
         25    2    1    2    0    0  0.91982875453E+02  0.24736881449E+02 -0.20586715343E+03  0.25903946182E+03  0.12508954887E+03 0.  0.
          5    1    3    3  502    0  0.12240034061E+03  0.23656964431E+02 -0.17931742013E+03  0.21843466966E+03  0.41800000000E+01 0. -1.
         -5    1    3    3    0  502 -0.30417465160E+02  0.10799170184E+01 -0.26549733302E+02  0.40604792154E+02  0.41800000000E+01 0. -1.
        -11    1    1    2    0    0 -0.43881746519E+02 -0.56254668567E+02 -0.49789527157E+02  0.87001105899E+02  0.00000000000E+00 0.  1.
         11    1    1    2    0    0 -0.48101128933E+02  0.31517787118E+02 -0.80009201064E+02  0.98532034204E+02  0.00000000000E+00 0. -1.
</event>
<event>
 7    1  0.2840156E-009  0.2702244E+03  0.7561462E-02  0.1101151E+00
         -2   -1    0    0    0  501 -0.00000000000E+00  0.00000000000E+00  0.13464089350E+03  0.13464089350E+03  0.00000000000E+00 0.  1.
          2   -1    0    0  501    0  0.00000000000E+00 -0.00000000000E+00 -0.80404640590E+03  0.80404640590E+03  0.00000000000E+00 0. -1.
         25    2    1    2    0    0  0.13222249001E+03 -0.23295834219E+03 -0.56377203361E+03  0.63658204453E+03  0.12508164324E+03 0.  0.
          5    1    3    3  502    0  0.12914641375E+03 -0.20962622244E+03 -0.56081527856E+03  0.61249750888E+03  0.41800000000E+01 0.  1.
         -5    1    3    3    0  502  0.30760762624E+01 -0.23332119745E+02 -0.29567550509E+01  0.24084535648E+02  0.41800000000E+01 0.  1.
        -11    1    1    2    0    0 -0.80983303902E+02  0.17565782569E+03 -0.32755538502E+02  0.19618076495E+03  0.00000000000E+00 0. -1.
         11    1    1    2    0    0 -0.51239186112E+02  0.57300516502E+02 -0.72877940282E+02  0.10592448992E+03  0.00000000000E+00 0.  1.
</event>
<event>
 7    1  0.2840156E-009  0.7383056E+02  0.7561462E-02  0.1347531E+00
         -1   -1    0    0    0  501 -0.00000000000E+00  0.00000000000E+00  0.15325779533E+03  0.15325779533E+03  0.00000000000E+00 0.  1.
          1   -1    0    0  501    0  0.00000000000E+00 -0.00000000000E+00 -0.86205467146E+02  0.86205467146E+02  0.00000000000E+00 0. -1.
         25    2    1    2    0    0 -0.10155935942E+02  0.38454584882E+02  0.33278969090E+02  0.13541451703E+03  0.12509078106E+03 0.  0.
          5    1    3    3  502    0 -0.14468884166E+02 -0.30160051954E+02 -0.27538696045E+02  0.43529639589E+02  0.41800000000E+01 0. -1.
         -5    1    3    3    0  502  0.43129482243E+01  0.68614636836E+02  0.60817665135E+02  0.91884877445E+02  0.41800000000E+01 0. -1.
        -11    1    1    2    0    0  0.15533006286E+02 -0.17319861722E+02  0.63243605228E+02  0.67386983139E+02  0.00000000000E+00 0.  1.
         11    1    1    2    0    0 -0.53770703442E+01 -0.21134723160E+02 -0.29470246130E+02  0.36661762307E+02  0.00000000000E+00 0. -1.
</event>
<event>
 7    1  0.2840156E-009  0.1226645E+03  0.7561462E-02  0.1238765E+00
          2   -1    0    0  501    0  0.00000000000E+00  0.00000000000E+00  0.53613122078E+03  0.53613122078E+03  0.00000000000E+00 0. -1.
         -2   -1    0    0    0  501 -0.00000000000E+00 -0.00000000000E+00 -0.38742848398E+02  0.38742848398E+02  0.00000000000E+00 0.  1.
         25    2    1    2    0    0 -0.10907208526E+02 -0.77148919788E+02  0.15418811856E+03  0.21328922402E+03  0.12508954454E+03 0.  0.
          5    1    3    3  502    0  0.83773147218E+01 -0.10510541574E+03  0.14210648736E+03  0.17700015245E+03  0.41800000000E+01 0.  1.
         -5    1    3    3    0  502 -0.19284523248E+02  0.27956495949E+02  0.12081631208E+02  0.36289071568E+02  0.41800000000E+01 0.  1.
        -11    1    1    2    0    0  0.12228027308E+02 -0.11585216732E+02  0.18697730906E+02  0.25166387099E+02  0.00000000000E+00 0.  1.
         11    1    1    2    0    0 -0.13208187823E+01  0.88734136520E+02  0.32450252291E+03  0.33641845806E+03  0.00000000000E+00 0. -1.
</event>
<event>
 7    1  0.3185664E-009  0.1575407E+03  0.7561462E-02  0.1191502E+00
         -4   -1    0    0    0  501 -0.00000000000E+00  0.00000000000E+00  0.44138146495E+02  0.44138146495E+02  0.00000000000E+00 0.  1.
          4   -1    0    0  501    0  0.00000000000E+00 -0.00000000000E+00 -0.59634645609E+03  0.59634645609E+03  0.00000000000E+00 0. -1.
         25    2    1    2    0    0  0.11163668259E+03  0.42041282645E+02 -0.32387467789E+03  0.36711333149E+03  0.12508865990E+03 0.  0.
          5    1    3    3  502    0  0.10974801371E+03 -0.19048828780E+02 -0.20235740753E+03  0.23102700529E+03  0.41800000000E+01 0.  1.
         -5    1    3    3    0  502  0.18886688842E+01  0.61090111425E+02 -0.12151727035E+03  0.13608632620E+03  0.41800000000E+01 0.  1.
        -11    1    1    2    0    0 -0.42995450359E+02  0.22156135243E+02 -0.39522049690E+02  0.62461952357E+02  0.00000000000E+00 0.  1.
         11    1    1    2    0    0 -0.68641232232E+02 -0.64197417888E+02 -0.18881158202E+03  0.21090931874E+03  0.00000000000E+00 0. -1.
</event>
<event>
 7    1  0.2840156E-009  0.1798871E+03  0.7561462E-02  0.1167912E+00
         -1   -1    0    0    0  501 -0.00000000000E+00  0.00000000000E+00  0.21511961619E+03  0.21511961619E+03  0.00000000000E+00 0.  1.
          1   -1    0    0  501    0  0.00000000000E+00 -0.00000000000E+00 -0.17852634347E+03  0.17852634347E+03  0.00000000000E+00 0. -1.
         25    2    1    2    0    0 -0.15201156826E+03 -0.54940953678E+02 -0.30262806694E+01  0.20440824009E+03  0.12509014735E+03 0.  0.
          5    1    3    3  502    0  0.64162975778E+01 -0.25683731922E+01  0.32727489026E+02  0.33709440123E+02  0.41800000000E+01 0. -1.
         -5    1    3    3    0  502 -0.15842786584E+03 -0.52372580486E+02 -0.35753769695E+02  0.17069879996E+03  0.41800000000E+01 0. -1.
        -11    1    1    2    0    0  0.25840440783E+02  0.52585777810E+02  0.17240865951E+02  0.61075689653E+02  0.00000000000E+00 0.  1.
         11    1    1    2    0    0  0.12617112748E+03  0.23551758677E+01  0.22378687441E+02  0.12816202993E+03  0.00000000000E+00 0. -1.
</event>
<event>
 7    1  0.2840156E-009  0.1197887E+03  0.7561462E-02  0.1243446E+00
          2   -1    0    0  501    0  0.00000000000E+00  0.00000000000E+00  0.12894104990E+03  0.12894104990E+03  0.00000000000E+00 0. -1.
         -2   -1    0    0    0  501 -0.00000000000E+00 -0.00000000000E+00 -0.17536984456E+03  0.17536984456E+03  0.00000000000E+00 0.  1.
         25    2    1    2    0    0 -0.54470619313E+02 -0.56287396424E+02 -0.86650312566E+02  0.17115354261E+03  0.12509971669E+03 0.  0.
          5    1    3    3  502    0  0.98074425304E+01 -0.48741031476E+02 -0.93458689542E+02  0.10594278234E+03  0.41800000000E+01 0.  1.
         -5    1    3    3    0  502 -0.64278061844E+02 -0.75463649476E+01  0.68083769763E+01  0.65210760273E+02  0.41800000000E+01 0.  1.
        -11    1    1    2    0    0  0.63256819949E+02  0.78574593165E+02  0.22482719016E+02  0.10334826857E+03  0.00000000000E+00 0.  1.
         11    1    1    2    0    0 -0.87862006358E+01 -0.22287196742E+02  0.17738798887E+02  0.29809083283E+02  0.00000000000E+00 0. -1.
</event>
<event>
 7    1  0.2840156E-009  0.1273713E+03  0.7561462E-02  0.1231409E+00
          1   -1    0    0  501    0  0.00000000000E+00  0.00000000000E+00  0.15450643702E+02  0.15450643702E+02  0.00000000000E+00 0. -1.
         -1   -1    0    0    0  501 -0.00000000000E+00 -0.00000000000E+00 -0.16164904509E+04  0.16164904509E+04  0.00000000000E+00 0.  1.
         25    2    1    2    0    0 -0.87441568619E+02  0.64868588279E+01 -0.12515261623E+04  0.12608143510E+04  0.12508791147E+03 0.  0.
          5    1    3    3  502    0 -0.47304274900E+02 -0.56151064303E+02 -0.46662454901E+03  0.47238393134E+03  0.41800000000E+01 0.  1.
         -5    1    3    3    0  502 -0.40137293719E+02  0.62637923131E+02 -0.78490161326E+03  0.78843041967E+03  0.41800000000E+01 0.  1.
        -11    1    1    2    0    0  0.29162791065E+02 -0.31804362047E+02 -0.24532655197E+03  0.24909255896E+03  0.00000000000E+00 0.  1.
         11    1    1    2    0    0  0.58278777554E+02  0.25317503219E+02 -0.10418709301E+03  0.12203418469E+03  0.00000000000E+00 0. -1.
</event>
<event>
 7    1  0.2840156E-009  0.1050304E+03  0.7561462E-02  0.1270060E+00
         -2   -1    0    0    0  501 -0.00000000000E+00  0.00000000000E+00  0.21372961544E+02  0.21372961544E+02  0.00000000000E+00 0.  1.
          2   -1    0    0  501    0  0.00000000000E+00 -0.00000000000E+00 -0.83065288678E+03  0.83065288678E+03  0.00000000000E+00 0. -1.
         25    2    1    2    0    0  0.23559156232E+02  0.62269494389E+02 -0.58019068726E+03  0.59724490589E+03  0.12509084798E+03 0.  0.
          5    1    3    3  502    0  0.91787386682E+01 -0.37419790336E+02 -0.21148251526E+03  0.21500422464E+03  0.41800000000E+01 0. -1.
         -5    1    3    3    0  502  0.14380417563E+02  0.99689284725E+02 -0.36870817201E+03  0.38224068125E+03  0.41800000000E+01 0. -1.
        -11    1    1    2    0    0 -0.39457028326E+01 -0.42383774775E+02 -0.22189156254E+03  0.22593764286E+03  0.00000000000E+00 0. -1.
         11    1    1    2    0    0 -0.19613453399E+02 -0.19885719614E+02 -0.71976754331E+01  0.28843299577E+02  0.00000000000E+00 0.  1.
</event>
<event>
 7    1  0.2840156E-009  0.1225952E+03  0.7561462E-02  0.1238876E+00
          3   -1    0    0  501    0  0.00000000000E+00  0.00000000000E+00  0.52680769005E+03  0.52680769005E+03  0.00000000000E+00 0. -1.
         -3   -1    0    0    0  501 -0.00000000000E+00 -0.00000000000E+00 -0.43385859137E+02  0.43385859137E+02  0.00000000000E+00 0.  1.
         25    2    1    2    0    0 -0.38131904392E+02 -0.93930388919E+02  0.20876786753E+03  0.26364517067E+03  0.12509114040E+03 0.  0.
          5    1    3    3  502    0 -0.41556780270E+02 -0.33203677593E+02  0.19360274565E+03  0.20082068050E+03  0.41800000000E+01 0. -1.
         -5    1    3    3    0  502  0.34248758778E+01 -0.60726711326E+02  0.15165121880E+02  0.62824490168E+02  0.41800000000E+01 0. -1.
        -11    1    1    2    0    0  0.63505293255E+02  0.53027501511E+02  0.21176856710E+03  0.22735602961E+03  0.00000000000E+00 0. -1.
         11    1    1    2    0    0 -0.25373388863E+02  0.40902887407E+02  0.62885396281E+02  0.79192348911E+02  0.00000000000E+00 0.  1.
</event>
<event>
 7    1  0.2840156E-009  0.1151168E+03  0.7561462E-02  0.1251377E+00
         -2   -1    0    0    0  501 -0.00000000000E+00  0.00000000000E+00  0.15627136792E+03  0.15627136792E+03  0.00000000000E+00 0.  1.
          2   -1    0    0  501    0  0.00000000000E+00 -0.00000000000E+00 -0.11767258041E+03  0.11767258041E+03  0.00000000000E+00 0. -1.
         25    2    1    2    0    0  0.70048167672E+02 -0.60409362137E+01  0.59989804514E+02  0.15552448980E+03  0.12508337850E+03 0.  0.
          5    1    3    3  502    0 -0.34694554244E+02 -0.50970273715E+01  0.30401663868E+02  0.46598555216E+02  0.41800000000E+01 0.  1.
         -5    1    3    3    0  502  0.10474272192E+03 -0.94390884219E+00  0.29588140646E+02  0.10892593459E+03  0.41800000000E+01 0.  1.
        -11    1    1    2    0    0 -0.54846051455E+02  0.29391413542E+02 -0.48994313092E+02  0.79198404438E+02  0.00000000000E+00 0. -1.
         11    1    1    2    0    0 -0.15202116217E+02 -0.23350477329E+02  0.27603296084E+02  0.39221054087E+02  0.00000000000E+00 0.  1.
</event>
<event>
 7    1  0.2840156E-009  0.2502234E+03  0.7561462E-02  0.1113164E+00
          1   -1    0    0  501    0  0.00000000000E+00  0.00000000000E+00  0.15509016769E+04  0.15509016769E+04  0.00000000000E+00 0. -1.
         -1   -1    0    0    0  501 -0.00000000000E+00 -0.00000000000E+00 -0.42904630336E+02  0.42904630336E+02  0.00000000000E+00 0.  1.
         25    2    1    2    0    0  0.64016380811E+02  0.22151931425E+03  0.65313254539E+03  0.70384585444E+03  0.12509181175E+03 0.  0.
          5    1    3    3  502    0 -0.32903147075E+02  0.30053523779E+02  0.15743236322E+03  0.16367117269E+03  0.41800000000E+01 0. -1.
         -5    1    3    3    0  502  0.96919527887E+02  0.19146579048E+03  0.49570018216E+03  0.54017468175E+03  0.41800000000E+01 0. -1.
        -11    1    1    2    0    0 -0.72893247946E+01 -0.14804569927E+03  0.42257289398E+03  0.44781526777E+03  0.00000000000E+00 0.  1.
         11    1    1    2    0    0 -0.56727056017E+02 -0.73473614985E+02  0.43229160720E+03  0.44214518503E+03  0.00000000000E+00 0. -1.
</event>
<event>
 7    1  0.2840156E-009  0.8371745E+02  0.7561462E-02  0.1318821E+00
         -1   -1    0    0    0  501 -0.00000000000E+00  0.00000000000E+00  0.31476440585E+03  0.31476440585E+03  0.00000000000E+00 0.  1.
          1   -1    0    0  501    0  0.00000000000E+00 -0.00000000000E+00 -0.65372195740E+02  0.65372195740E+02  0.00000000000E+00 0. -1.
         25    2    1    2    0    0 -0.15831439352E+02  0.46336346014E+02  0.29618986033E+02  0.13755715388E+03  0.12508794832E+03 0.  0.
          5    1    3    3  502    0  0.11247056468E+02  0.10710353081E+01  0.69979735365E+02  0.71009007580E+02  0.41800000000E+01 0. -1.
         -5    1    3    3    0  502 -0.27078495820E+02  0.45265310706E+02 -0.40360749332E+02  0.66548146299E+02  0.41800000000E+01 0. -1.
        -11    1    1    2    0    0 -0.17729720153E+02  0.20853181253E+02  0.52048098958E+02  0.58806485613E+02  0.00000000000E+00 0. -1.
         11    1    1    2    0    0  0.33561159505E+02 -0.67189527267E+02  0.16772512512E+03  0.18377296210E+03  0.00000000000E+00 0.  1.
</event>
<event>
 7    1  0.2840156E-009  0.1316727E+03  0.7561462E-02  0.1224995E+00
          3   -1    0    0  501    0  0.00000000000E+00  0.00000000000E+00  0.20030959869E+04  0.20030959869E+04  0.00000000000E+00 0. -1.
         -3   -1    0    0    0  501 -0.00000000000E+00 -0.00000000000E+00 -0.16821756144E+02  0.16821756144E+02  0.00000000000E+00 0.  1.
         25    2    1    2    0    0 -0.10231066871E+03 -0.93252496602E+01  0.16312584571E+04  0.16392695143E+04  0.12508378611E+03 0.  0.
          5    1    3    3  502    0 -0.11777406688E+02  0.41041875423E+02  0.21608691463E+03  0.22030472061E+03  0.41800000000E+01 0. -1.
         -5    1    3    3    0  502 -0.90533262020E+02 -0.50367125084E+02  0.14151715424E+04  0.14189647937E+04  0.41800000000E+01 0. -1.
        -11    1    1    2    0    0  0.33926217351E+02 -0.23131890530E+02  0.42500569204E+02  0.59096285550E+02  0.00000000000E+00 0.  1.
         11    1    1    2    0    0  0.68384451357E+02  0.32457140190E+02  0.31251520446E+03  0.32155194317E+03  0.00000000000E+00 0. -1.
</event>
<event>
 7    1  0.2840156E-009  0.8735260E+02  0.7561462E-02  0.1309392E+00
          2   -1    0    0  501    0  0.00000000000E+00  0.00000000000E+00  0.54910448930E+03  0.54910448930E+03  0.00000000000E+00 0. -1.
         -2   -1    0    0    0  501 -0.00000000000E+00 -0.00000000000E+00 -0.24915780875E+02  0.24915780875E+02  0.00000000000E+00 0.  1.
         25    2    1    2    0    0 -0.43161128622E+02  0.39163565159E+01  0.28424768975E+03  0.31356461862E+03  0.12509116695E+03 0.  0.
          5    1    3    3  502    0 -0.37087048888E+02  0.30548413274E+02  0.28171632836E+03  0.28581500453E+03  0.41800000000E+01 0. -1.
         -5    1    3    3    0  502 -0.60740797334E+01 -0.26632056758E+02  0.25313613940E+01  0.27749614092E+02  0.41800000000E+01 0. -1.
        -11    1    1    2    0    0  0.69654029785E+02  0.73734054297E+01  0.19375667279E+03  0.20602839421E+03  0.00000000000E+00 0. -1.
         11    1    1    2    0    0 -0.26492901164E+02 -0.11289761946E+02  0.46184345886E+02  0.54427257342E+02  0.00000000000E+00 0.  1.
</event>
<event>
 7    1  0.2840156E-009  0.1268295E+03  0.7561462E-02  0.1232238E+00
         -3   -1    0    0    0  501 -0.00000000000E+00  0.00000000000E+00  0.47762291677E+02  0.47762291677E+02  0.00000000000E+00 0.  1.
          3   -1    0    0  501    0  0.00000000000E+00 -0.00000000000E+00 -0.54450480602E+03  0.54450480602E+03  0.00000000000E+00 0. -1.
         25    2    1    2    0    0 -0.50036817907E+02 -0.62779760541E+02 -0.10401032763E+03  0.18141368996E+03  0.12509115545E+03 0.  0.
          5    1    3    3  502    0  0.15081339435E+02  0.28965176921E+02 -0.90861893392E+01  0.34153469955E+02  0.41800000000E+01 0. -1.
         -5    1    3    3    0  502 -0.65118157342E+02 -0.91744937463E+02 -0.94924138294E+02  0.14726022001E+03  0.41800000000E+01 0. -1.
        -11    1    1    2    0    0  0.64771253534E+02  0.66629855958E+02 -0.37939715056E+03  0.39061112484E+03  0.00000000000E+00 0. -1.
         11    1    1    2    0    0 -0.14734435627E+02 -0.38500954167E+01 -0.13335036142E+02  0.20242282896E+02  0.00000000000E+00 0.  1.
</event>
<event>
 7    1  0.2840156E-009  0.1671467E+03  0.7561462E-02  0.1180857E+00
         -1   -1    0    0    0  501 -0.00000000000E+00  0.00000000000E+00  0.39008933733E+03  0.39008933733E+03  0.00000000000E+00 0.  1.
          1   -1    0    0  501    0  0.00000000000E+00 -0.00000000000E+00 -0.84625349261E+02  0.84625349261E+02  0.00000000000E+00 0. -1.
         25    2    1    2    0    0  0.13986777737E+03  0.38239264789E+02  0.17695225936E+03  0.26073871596E+03  0.12508932565E+03 0.  0.
          5    1    3    3  502    0  0.15087709139E+03  0.61422026916E+02  0.16571442688E+03  0.23241193122E+03  0.41800000000E+01 0. -1.
         -5    1    3    3    0  502 -0.11009314019E+02 -0.23182762127E+02  0.11237832478E+02  0.28326784742E+02  0.41800000000E+01 0. -1.
        -11    1    1    2    0    0 -0.89624898448E+02 -0.19562401577E+02  0.13144857359E+03  0.16029359774E+03  0.00000000000E+00 0.  1.
         11    1    1    2    0    0 -0.50242878924E+02 -0.18676863211E+02 -0.29368448728E+01  0.53682372897E+02  0.00000000000E+00 0. -1.
</event>
<event>
 7    1  0.2840156E-009  0.1669106E+03  0.7561462E-02  0.1181108E+00
         -2   -1    0    0    0  501 -0.00000000000E+00  0.00000000000E+00  0.17456879631E+03  0.17456879631E+03  0.00000000000E+00 0.  1.
          2   -1    0    0  501    0  0.00000000000E+00 -0.00000000000E+00 -0.20276045590E+03  0.20276045590E+03  0.00000000000E+00 0. -1.
         25    2    1    2    0    0  0.28457660083E+02  0.14563547855E+03 -0.11664969404E+02  0.19443228537E+03  0.12509320946E+03 0.  0.
          5    1    3    3  502    0  0.28146463941E+02 -0.49586535711E+01  0.26306631135E+02  0.39068182953E+02  0.41800000000E+01 0.  1.
         -5    1    3    3    0  502  0.31119614164E+00  0.15059413212E+03 -0.37971600538E+02  0.15536410241E+03  0.41800000000E+01 0.  1.
        -11    1    1    2    0    0 -0.27688963969E+02 -0.40011230060E+02  0.40096610280E+02  0.63050102400E+02  0.00000000000E+00 0.  1.
         11    1    1    2    0    0 -0.76869611384E+00 -0.10562424849E+03 -0.56623300467E+02  0.11984686445E+03  0.00000000000E+00 0. -1.
</event>
<event>
 7    1  0.2840156E-009  0.8992108E+02  0.7561462E-02  0.1303043E+00
         -2   -1    0    0    0  501 -0.00000000000E+00  0.00000000000E+00  0.31569059871E+02  0.31569059871E+02  0.00000000000E+00 0.  1.
          2   -1    0    0  501    0  0.00000000000E+00 -0.00000000000E+00 -0.40221319339E+03  0.40221319339E+03  0.00000000000E+00 0. -1.
         25    2    1    2    0    0  0.69531832878E+01 -0.45581508922E+01 -0.16544543312E+03  0.20758506097E+03  0.12510093006E+03 0.  0.
          5    1    3    3  502    0  0.37228600328E+02 -0.45895437764E+02 -0.38577082083E+02  0.70696701139E+02  0.41800000000E+01 0.  1.
         -5    1    3    3    0  502 -0.30275417040E+02  0.41337286872E+02 -0.12686835104E+03  0.13688835984E+03  0.41800000000E+01 0.  1.
        -11    1    1    2    0    0  0.23713262183E+02  0.23304075678E+02 -0.17811927936E+03  0.18119568545E+03  0.00000000000E+00 0. -1.
         11    1    1    2    0    0 -0.30666445471E+02 -0.18745924786E+02 -0.27079421040E+02  0.45001506839E+02  0.00000000000E+00 0.  1.
</event>
<event>
 7    1  0.2840156E-009  0.8728537E+02  0.7561462E-02  0.1309562E+00
         -2   -1    0    0    0  501 -0.00000000000E+00  0.00000000000E+00  0.21323596931E+02  0.21323596931E+02  0.00000000000E+00 0.  1.
          2   -1    0    0  501    0  0.00000000000E+00 -0.00000000000E+00 -0.68912833492E+03  0.68912833492E+03  0.00000000000E+00 0. -1.
         25    2    1    2    0    0 -0.27199809833E+02 -0.46502649252E+02 -0.37781004467E+03  0.40160997817E+03  0.12509124139E+03 0.  0.
          5    1    3    3  502    0 -0.53349525784E+02 -0.44862925240E+02 -0.96847895973E+02  0.11939782794E+03  0.41800000000E+01 0. -1.
         -5    1    3    3    0  502  0.26149715951E+02 -0.16397240120E+01 -0.28096214870E+03  0.28221215023E+03  0.41800000000E+01 0. -1.
        -11    1    1    2    0    0  0.25418737004E+02  0.59702395095E+02 -0.28818540469E+03  0.29540026345E+03  0.00000000000E+00 0. -1.
         11    1    1    2    0    0  0.17810728286E+01 -0.13199745842E+02 -0.18092886262E+01  0.13441690223E+02  0.00000000000E+00 0.  1.
</event>
<event>
 7    1  0.2840156E-009  0.9386116E+02  0.7561462E-02  0.1293762E+00
         -2   -1    0    0    0  501 -0.00000000000E+00  0.00000000000E+00  0.19886804421E+03  0.19886804421E+03  0.00000000000E+00 0.  1.
          2   -1    0    0  501    0  0.00000000000E+00 -0.00000000000E+00 -0.68320680907E+02  0.68320680907E+02  0.00000000000E+00 0. -1.
         25    2    1    2    0    0  0.23993600456E+02 -0.12131614266E+02  0.34239428980E+02  0.13245302830E+03  0.12509435351E+03 0.  0.
          5    1    3    3  502    0  0.30341002169E+02  0.52400607310E+02  0.41229340173E+01  0.60834784819E+02  0.41800000000E+01 0.  1.
         -5    1    3    3    0  502 -0.63474017126E+01 -0.64532221576E+02  0.30116494963E+02  0.71618243478E+02  0.41800000000E+01 0.  1.
        -11    1    1    2    0    0 -0.41813090301E+02  0.14087973528E+02  0.10566992510E+03  0.11451173996E+03  0.00000000000E+00 0.  1.
         11    1    1    2    0    0  0.17819489845E+02 -0.19563592623E+01 -0.93619907726E+01  0.20223956861E+02  0.00000000000E+00 0. -1.
</event>
<event>
 7    1  0.2840156E-009  0.1071323E+03  0.7561462E-02  0.1265975E+00
          2   -1    0    0  501    0  0.00000000000E+00  0.00000000000E+00  0.42171941460E+03  0.42171941460E+03  0.00000000000E+00 0. -1.
         -2   -1    0    0    0  501 -0.00000000000E+00 -0.00000000000E+00 -0.31312542291E+02  0.31312542291E+02  0.00000000000E+00 0.  1.
         25    2    1    2    0    0  0.25251991775E+02  0.10661729926E+02  0.16850868655E+03  0.21164902382E+03  0.12509514886E+03 0.  0.
          5    1    3    3  502    0 -0.24323011709E+02  0.55155874068E+02  0.67668918788E+02  0.90721189987E+02  0.41800000000E+01 0.  1.
         -5    1    3    3    0  502  0.49575003484E+02 -0.44494144142E+02  0.10083976777E+03  0.12092783384E+03  0.41800000000E+01 0.  1.
        -11    1    1    2    0    0 -0.44273618203E+02  0.21891949394E+02  0.75595199048E+02  0.90299749923E+02  0.00000000000E+00 0.  1.
         11    1    1    2    0    0  0.19021626428E+02 -0.32553679320E+02  0.14630298670E+03  0.15108318314E+03  0.00000000000E+00 0. -1.
</event>
<event>
 7    1  0.2840156E-009  0.7931817E+02  0.7561462E-02  0.1330998E+00
         -2   -1    0    0    0  501 -0.00000000000E+00  0.00000000000E+00  0.17837395988E+03  0.17837395988E+03  0.00000000000E+00 0.  1.
          2   -1    0    0  501    0  0.00000000000E+00 -0.00000000000E+00 -0.90021430204E+02  0.90021430204E+02  0.00000000000E+00 0. -1.
         25    2    1    2    0    0  0.14124755522E+02  0.42896219931E+02  0.32258506050E+02  0.13684980889E+03  0.12509062546E+03 0.  0.
          5    1    3    3  502    0  0.65288725280E+01  0.30580457454E+02 -0.46760884697E+02  0.56407830061E+02  0.41800000000E+01 0.  1.
         -5    1    3    3    0  502  0.75958829941E+01  0.12315762477E+02  0.79019390746E+02  0.80441978828E+02  0.41800000000E+01 0.  1.
        -11    1    1    2    0    0 -0.48196333811E+02  0.98893083926E+01  0.47040899397E+02  0.68070046492E+02  0.00000000000E+00 0.  1.
         11    1    1    2    0    0  0.34071578289E+02 -0.52785528324E+02  0.90531242294E+01  0.63475534703E+02  0.00000000000E+00 0. -1.
</event>
<event>
 7    1  0.2894896E-009  0.1087981E+03  0.7561462E-02  0.1262812E+00
         -1   -1    0    0    0  501 -0.00000000000E+00  0.00000000000E+00  0.12384683029E+03  0.12384683029E+03  0.00000000000E+00 0.  1.
          1   -1    0    0  501    0  0.00000000000E+00 -0.00000000000E+00 -0.11973099649E+03  0.11973099649E+03  0.00000000000E+00 0. -1.
         25    2    1    2    0    0 -0.22301539580E+01  0.27273943857E+02  0.50926604113E+02  0.13780585783E+03  0.12509234128E+03 0.  0.
          5    1    3    3  502    0  0.52031142309E+02 -0.18742550590E+02  0.12560589251E+02  0.56866191845E+02  0.41800000000E+01 0.  1.
         -5    1    3    3    0  502 -0.54261296267E+02  0.46016494447E+02  0.38366014863E+02  0.80939665988E+02  0.41800000000E+01 0.  1.
        -11    1    1    2    0    0 -0.59655310090E+01  0.31227766247E+02 -0.24302216142E+01  0.31885214788E+02  0.00000000000E+00 0.  1.
         11    1    1    2    0    0  0.81956849670E+01 -0.58501710105E+02 -0.44380548693E+02  0.73886754155E+02  0.00000000000E+00 0. -1.
</event>
<event>
 7    1  0.2840156E-009  0.7939243E+02  0.7561462E-02  0.1330785E+00
          1   -1    0    0  501    0  0.00000000000E+00  0.00000000000E+00  0.10271591257E+03  0.10271591257E+03  0.00000000000E+00 0. -1.
         -1   -1    0    0    0  501 -0.00000000000E+00 -0.00000000000E+00 -0.13706625924E+03  0.13706625924E+03  0.00000000000E+00 0.  1.
         25    2    1    2    0    0  0.19887647962E+02  0.33505156590E+01  0.24199934769E+02  0.12899465123E+03  0.12508892320E+03 0.  0.
          5    1    3    3  502    0 -0.11317906275E+02 -0.54049605391E+02 -0.81398038736E+01  0.55974848391E+02  0.41800000000E+01 0. -1.
         -5    1    3    3    0  502  0.31205554236E+02  0.57400121050E+02  0.32339738643E+02  0.73019802843E+02  0.41800000000E+01 0. -1.
        -11    1    1    2    0    0 -0.26744752178E+02  0.49202698795E+01 -0.81246637790E+02  0.85676758674E+02  0.00000000000E+00 0.  1.
         11    1    1    2    0    0  0.68571042159E+01 -0.82707855385E+01  0.22696356349E+02  0.25110761899E+02  0.00000000000E+00 0. -1.
</event>
<event>
 7    1  0.2840156E-009  0.1149105E+03  0.7561462E-02  0.1251737E+00
         -2   -1    0    0    0  501 -0.00000000000E+00  0.00000000000E+00  0.10075966452E+03  0.10075966452E+03  0.00000000000E+00 0.  1.
          2   -1    0    0  501    0  0.00000000000E+00 -0.00000000000E+00 -0.54384729185E+03  0.54384729185E+03  0.00000000000E+00 0. -1.
         25    2    1    2    0    0  0.61550369722E+02 -0.35098652972E+02 -0.49599928112E+03  0.51641272470E+03  0.12508577819E+03 0.  0.
          5    1    3    3  502    0 -0.23818178794E+02 -0.50960431687E+02 -0.21482777766E+03  0.22210969744E+03  0.41800000000E+01 0.  1.
         -5    1    3    3    0  502  0.85368548516E+02  0.15861778715E+02 -0.28117150346E+03  0.29430302726E+03  0.41800000000E+01 0.  1.
        -11    1    1    2    0    0 -0.19685118197E+02  0.39753698682E+02  0.69888645275E+02  0.82778518806E+02  0.00000000000E+00 0.  1.
         11    1    1    2    0    0 -0.41865251525E+02 -0.46550457105E+01 -0.16976991480E+02  0.45415712870E+02  0.00000000000E+00 0. -1.
</event>
<event>
 7    1  0.2840156E-009  0.8196687E+02  0.7561462E-02  0.1323561E+00
          1   -1    0    0  501    0  0.00000000000E+00  0.00000000000E+00  0.10279798811E+04  0.10279798811E+04  0.00000000000E+00 0. -1.
         -1   -1    0    0    0  501 -0.00000000000E+00 -0.00000000000E+00 -0.21173344210E+02  0.21173344210E+02  0.00000000000E+00 0.  1.
         25    2    1    2    0    0 -0.17463812258E+02 -0.65882373518E+02  0.80327018847E+03  0.81580614232E+03  0.12510473327E+03 0.  0.
          5    1    3    3  502    0 -0.27939592090E+01  0.18711501828E+01 -0.32691287951E+01  0.62822777833E+01  0.41800000000E+01 0.  1.
         -5    1    3    3    0  502 -0.14669853049E+02 -0.67753523701E+02  0.80653931727E+03  0.80952386454E+03  0.41800000000E+01 0.  1.
        -11    1    1    2    0    0  0.26528366858E+02  0.43010249089E+01  0.14642686839E+03  0.14887270015E+03  0.00000000000E+00 0. -1.
         11    1    1    2    0    0 -0.90645546002E+01  0.61581348609E+02  0.57109480029E+02  0.84474382838E+02  0.00000000000E+00 0.  1.
</event>
<event>
 7    1  0.2840156E-009  0.7403533E+02  0.7561462E-02  0.1346885E+00
         -2   -1    0    0    0  501 -0.00000000000E+00  0.00000000000E+00  0.21294360780E+02  0.21294360780E+02  0.00000000000E+00 0.  1.
          2   -1    0    0  501    0  0.00000000000E+00 -0.00000000000E+00 -0.55681388469E+03  0.55681388469E+03  0.00000000000E+00 0. -1.
         25    2    1    2    0    0  0.70227985926E+01  0.60348774053E+01 -0.30420000411E+03  0.32904494526E+03  0.12508874473E+03 0.  0.
          5    1    3    3  502    0  0.14375566072E+02 -0.22025630330E+02 -0.29787445029E+03  0.29906261188E+03  0.41800000000E+01 0.  1.
         -5    1    3    3    0  502 -0.73527674796E+01  0.28060507736E+02 -0.63255538235E+01  0.29982333384E+02  0.41800000000E+01 0.  1.
        -11    1    1    2    0    0  0.20486121077E+02 -0.42072010781E+02 -0.10943184708E+03  0.11901707610E+03  0.00000000000E+00 0.  1.
         11    1    1    2    0    0 -0.27508919669E+02  0.36037133375E+02 -0.12188767273E+03  0.13004622411E+03  0.00000000000E+00 0. -1.
</event>
<event>
 7    1  0.2840156E-009  0.1522020E+03  0.7561462E-02  0.1197793E+00
          2   -1    0    0  501    0  0.00000000000E+00  0.00000000000E+00  0.20524639465E+04  0.20524639465E+04  0.00000000000E+00 0. -1.
         -2   -1    0    0    0  501 -0.00000000000E+00 -0.00000000000E+00 -0.14782594647E+02  0.14782594647E+02  0.00000000000E+00 0.  1.
         25    2    1    2    0    0  0.10616176998E+03  0.86368447380E+02  0.13057272274E+04  0.13188268260E+04  0.12510305508E+03 0.  0.
          5    1    3    3  502    0 -0.15192043780E+01 -0.62268642981E+01  0.27577036970E+01  0.81338275498E+01  0.41800000000E+01 0. -1.
         -5    1    3    3    0  502  0.10768097436E+03  0.92595311679E+02  0.13029695238E+04  0.13106929985E+04  0.41800000000E+01 0. -1.
        -11    1    1    2    0    0 -0.99721269574E+02 -0.39332748859E+02  0.45760938346E+03  0.46999760060E+03  0.00000000000E+00 0.  1.
         11    1    1    2    0    0 -0.64405004050E+01 -0.47035698522E+02  0.27434474095E+03  0.27842211454E+03  0.00000000000E+00 0. -1.
</event>
<event>
 7    1  0.2840156E-009  0.9480213E+02  0.7561462E-02  0.1291622E+00
         -1   -1    0    0    0  501 -0.00000000000E+00  0.00000000000E+00  0.23347261812E+02  0.23347261812E+02  0.00000000000E+00 0.  1.
          1   -1    0    0  501    0  0.00000000000E+00 -0.00000000000E+00 -0.57125632637E+03  0.57125632637E+03  0.00000000000E+00 0. -1.
         25    2    1    2    0    0 -0.15263415811E+02 -0.12009056293E+02 -0.42954171907E+03  0.44780891592E+03  0.12509815132E+03 0.  0.
          5    1    3    3  502    0  0.19525497003E+02 -0.49037923880E+02 -0.89670625044E+02  0.10413575950E+03  0.41800000000E+01 0. -1.
         -5    1    3    3    0  502 -0.34788912814E+02  0.37028867587E+02 -0.33987109403E+03  0.34367315642E+03  0.41800000000E+01 0. -1.
        -11    1    1    2    0    0  0.28741188613E+02 -0.30008132854E+02 -0.69318318704E+02  0.80818149374E+02  0.00000000000E+00 0.  1.
         11    1    1    2    0    0 -0.13477772802E+02  0.42017189147E+02 -0.49049026787E+02  0.65976522887E+02  0.00000000000E+00 0. -1.
</event>
<event>
 7    1  0.2840156E-009  0.8401776E+02  0.7561462E-02  0.1318021E+00
         -1   -1    0    0    0  501 -0.00000000000E+00  0.00000000000E+00  0.17372466711E+03  0.17372466711E+03  0.00000000000E+00 0.  1.
          1   -1    0    0  501    0  0.00000000000E+00 -0.00000000000E+00 -0.10156471673E+03  0.10156471673E+03  0.00000000000E+00 0. -1.
         25    2    1    2    0    0 -0.24613862519E+02 -0.58968642042E+01  0.11072267860E+03  0.16894914222E+03  0.12507472113E+03 0.  0.
          5    1    3    3  502    0 -0.47187745100E+02 -0.47572362718E+01  0.13031898388E+03  0.13874373696E+03  0.41800000000E+01 0. -1.
         -5    1    3    3    0  502  0.22573882581E+02 -0.11396279324E+01 -0.19596305284E+02  0.30205405268E+02  0.41800000000E+01 0. -1.
        -11    1    1    2    0    0 -0.30637991124E+02 -0.19825433445E+02 -0.52039864209E+01  0.36862118578E+02  0.00000000000E+00 0. -1.
         11    1    1    2    0    0  0.55251853644E+02  0.25722297649E+02 -0.33358741796E+02  0.69478123043E+02  0.00000000000E+00 0.  1.
</event>
<event>
 7    1  0.2840156E-009  0.1071044E+03  0.7561462E-02  0.1266028E+00
         -2   -1    0    0    0  501 -0.00000000000E+00  0.00000000000E+00  0.23245427213E+03  0.23245427213E+03  0.00000000000E+00 0.  1.
          2   -1    0    0  501    0  0.00000000000E+00 -0.00000000000E+00 -0.96283289733E+02  0.96283289733E+02  0.00000000000E+00 0. -1.
         25    2    1    2    0    0 -0.91577121330E+02  0.44419154716E+02  0.53043959858E+02  0.16976307556E+03  0.12508560944E+03 0.  0.
          5    1    3    3  502    0 -0.19480897109E+02  0.12351271700E+02  0.82246851751E+02  0.85522373024E+02  0.41800000000E+01 0. -1.
         -5    1    3    3    0  502 -0.72096224221E+02  0.32067883017E+02 -0.29202891893E+02  0.84240702532E+02  0.41800000000E+01 0. -1.
        -11    1    1    2    0    0  0.34266558761E+02  0.67441962078E+01  0.73721256178E+02  0.81575148448E+02  0.00000000000E+00 0.  1.
         11    1    1    2    0    0  0.57310562568E+02 -0.51163350924E+02  0.94057663564E+01  0.77399337855E+02  0.00000000000E+00 0. -1.
</event>
<event>
 7    1  0.2840156E-009  0.1018895E+03  0.7561462E-02  0.1276372E+00
          2   -1    0    0  501    0  0.00000000000E+00  0.00000000000E+00  0.18200604334E+03  0.18200604334E+03  0.00000000000E+00 0. -1.
         -2   -1    0    0    0  501 -0.00000000000E+00 -0.00000000000E+00 -0.11428998365E+03  0.11428998365E+03  0.00000000000E+00 0.  1.
         25    2    1    2    0    0 -0.28638260810E+02  0.81800104575E+02  0.76782312848E+02  0.17045476595E+03  0.12509155279E+03 0.  0.
          5    1    3    3  502    0  0.99559855300E+01  0.22471329826E+02  0.94202318610E+02  0.97445531162E+02  0.41800000000E+01 0. -1.
         -5    1    3    3    0  502 -0.38594246340E+02  0.59328774749E+02 -0.17420005762E+02  0.73009234789E+02  0.41800000000E+01 0. -1.
        -11    1    1    2    0    0 -0.15045011499E+02  0.19021530574E+00 -0.27296066339E+02  0.31168313886E+02  0.00000000000E+00 0.  1.
         11    1    1    2    0    0  0.43683272309E+02 -0.81990319881E+02  0.18229813190E+02  0.94672947153E+02  0.00000000000E+00 0. -1.
</event>
<event>
 7    1  0.2840156E-009  0.7467939E+02  0.7561462E-02  0.1344867E+00
         -2   -1    0    0    0  501 -0.00000000000E+00  0.00000000000E+00  0.29779259647E+02  0.29779259647E+02  0.00000000000E+00 0.  1.
          2   -1    0    0  501    0  0.00000000000E+00 -0.00000000000E+00 -0.48969929545E+03  0.48969929545E+03  0.00000000000E+00 0. -1.
         25    2    1    2    0    0  0.45486217545E+02  0.21407759357E+02 -0.29797403024E+03  0.32705260280E+03  0.12509034395E+03 0.  0.
          5    1    3    3  502    0  0.33641132211E+02  0.24060267140E+02 -0.30798183849E+03  0.31077468924E+03  0.41800000000E+01 0.  1.
         -5    1    3    3    0  502  0.11845085334E+02 -0.26525077837E+01  0.10007808243E+02  0.16277913563E+02  0.41800000000E+01 0.  1.
        -11    1    1    2    0    0  0.23507449531E+02 -0.50331233935E+01 -0.12694851633E+02  0.27186242339E+02  0.00000000000E+00 0.  1.
         11    1    1    2    0    0 -0.68993667076E+02 -0.16374635963E+02 -0.14925115393E+03  0.16523970996E+03  0.00000000000E+00 0. -1.
</event>
<event>
 7    1  0.2840156E-009  0.1897139E+03  0.7561462E-02  0.1158720E+00
         -1   -1    0    0    0  501 -0.00000000000E+00  0.00000000000E+00  0.61326294116E+02  0.61326294116E+02  0.00000000000E+00 0.  1.
          1   -1    0    0  501    0  0.00000000000E+00 -0.00000000000E+00 -0.92944310146E+03  0.92944310146E+03  0.00000000000E+00 0. -1.
         25    2    1    2    0    0  0.28053752714E+02  0.15919871429E+03 -0.16233273812E+03  0.26101965768E+03  0.12509236649E+03 0.  0.
          5    1    3    3  502    0  0.29312901425E+02 -0.88391257892E+01 -0.50227971897E+02  0.58972009424E+02  0.41800000000E+01 0.  1.
         -5    1    3    3    0  502 -0.12591487112E+01  0.16803784008E+03 -0.11210476623E+03  0.20204764825E+03  0.41800000000E+01 0.  1.
        -11    1    1    2    0    0  0.21566774048E+02 -0.10398576250E+03 -0.49534344938E+03  0.50659974081E+03  0.00000000000E+00 0. -1.
         11    1    1    2    0    0 -0.49620526763E+02 -0.55212951793E+02 -0.21044061985E+03  0.22314999710E+03  0.00000000000E+00 0.  1.
</event>
<event>
 7    1  0.2840156E-009  0.1318404E+03  0.7561462E-02  0.1224750E+00
          3   -1    0    0  501    0  0.00000000000E+00  0.00000000000E+00  0.97299472850E+02  0.97299472850E+02  0.00000000000E+00 0. -1.
         -3   -1    0    0    0  501 -0.00000000000E+00 -0.00000000000E+00 -0.20406476465E+03  0.20406476465E+03  0.00000000000E+00 0.  1.
         25    2    1    2    0    0  0.75949141885E+02  0.21118220853E+02 -0.80707208183E+02  0.16846128210E+03  0.12510515061E+03 0.  0.
          5    1    3    3  502    0 -0.34750306545E+02  0.10282871719E+02 -0.17510825391E+02  0.40465079533E+02  0.41800000000E+01 0. -1.
         -5    1    3    3    0  502  0.11069944843E+03  0.10835349133E+02 -0.63196382792E+02  0.12799620257E+03  0.41800000000E+01 0. -1.
        -11    1    1    2    0    0 -0.81417103822E+02  0.12026983800E+02  0.10830690159E+02  0.83010222162E+02  0.00000000000E+00 0.  1.
         11    1    1    2    0    0  0.54679619369E+01 -0.33145204652E+02 -0.36888773775E+02  0.49892733237E+02  0.00000000000E+00 0. -1.
</event>
<event>
 7    1  0.2840156E-009  0.1013682E+03  0.7561462E-02  0.1277445E+00
          2   -1    0    0  501    0  0.00000000000E+00  0.00000000000E+00  0.14685166524E+03  0.14685166524E+03  0.00000000000E+00 0. -1.
         -2   -1    0    0    0  501 -0.00000000000E+00 -0.00000000000E+00 -0.12075548810E+03  0.12075548810E+03  0.00000000000E+00 0.  1.
         25    2    1    2    0    0 -0.76790020112E+02  0.21999022432E+02 -0.38423058592E+01  0.14845912105E+03  0.12507870775E+03 0.  0.
          5    1    3    3  502    0 -0.92827656657E+02  0.99883737677E+01 -0.44067868861E+02  0.10332565469E+03  0.41800000000E+01 0.  1.
         -5    1    3    3    0  502  0.16037636546E+02  0.12010648664E+02  0.40225563002E+02  0.45133466365E+02  0.41800000000E+01 0.  1.
        -11    1    1    2    0    0  0.11884637560E+02 -0.20728284850E+02 -0.24649662626E+02  0.34329466503E+02  0.00000000000E+00 0.  1.
         11    1    1    2    0    0  0.64905382552E+02 -0.12707375812E+01  0.54588145624E+02  0.84818565779E+02  0.00000000000E+00 0. -1.
</event>
<event>
 7    1  0.2840156E-009  0.9113997E+02  0.7561462E-02  0.1300114E+00
          1   -1    0    0  501    0  0.00000000000E+00  0.00000000000E+00  0.35773794375E+03  0.35773794375E+03  0.00000000000E+00 0. -1.
         -1   -1    0    0    0  501 -0.00000000000E+00 -0.00000000000E+00 -0.34962744005E+02  0.34962744005E+02  0.00000000000E+00 0.  1.
         25    2    1    2    0    0 -0.14095515215E+02  0.21390088436E+02  0.16778169029E+03  0.21084423466E+03  0.12509347010E+03 0.  0.
          5    1    3    3  502    0 -0.48991829436E+02  0.31857215542E+01  0.16381562381E+03  0.17106542368E+03  0.41800000000E+01 0. -1.
         -5    1    3    3    0  502  0.34896314221E+02  0.18204366882E+02  0.39660664751E+01  0.39778810981E+02  0.41800000000E+01 0. -1.
        -11    1    1    2    0    0 -0.53247841468E+01 -0.54651657329E+02  0.10746552395E+03  0.12068138138E+03  0.00000000000E+00 0.  1.
         11    1    1    2    0    0  0.19420299361E+02  0.33261568893E+02  0.47527985509E+02  0.61175071712E+02  0.00000000000E+00 0. -1.
</event>
<event>
 7    1  0.2840156E-009  0.1182884E+03  0.7561462E-02  0.1245948E+00
         -1   -1    0    0    0  501 -0.00000000000E+00  0.00000000000E+00  0.25934403961E+03  0.25934403961E+03  0.00000000000E+00 0.  1.
          1   -1    0    0  501    0  0.00000000000E+00 -0.00000000000E+00 -0.77425591248E+02  0.77425591248E+02  0.00000000000E+00 0. -1.
         25    2    1    2    0    0 -0.80185918392E+02  0.33903044398E+02  0.75082354586E+02  0.16989326877E+03  0.12508862808E+03 0.  0.
          5    1    3    3  502    0  0.21862307643E+02  0.17465941918E+01 -0.17479451760E+02  0.28355153333E+02  0.41800000000E+01 0. -1.
         -5    1    3    3    0  502 -0.10204822604E+03  0.32156450206E+02  0.92561806345E+02  0.14153811543E+03  0.41800000000E+01 0. -1.
        -11    1    1    2    0    0 -0.75480045868E+01 -0.15915724520E+02  0.66247331748E+02  0.68549191272E+02  0.00000000000E+00 0.  1.
         11    1    1    2    0    0  0.87733922979E+02 -0.17987319878E+02  0.40588762025E+02  0.98327170815E+02  0.00000000000E+00 0. -1.
</event>
<event>
 7    1  0.2840156E-009  0.1011975E+03  0.7561462E-02  0.1277798E+00
         -2   -1    0    0    0  501 -0.00000000000E+00  0.00000000000E+00  0.53259490540E+02  0.53259490540E+02  0.00000000000E+00 0.  1.
          2   -1    0    0  501    0  0.00000000000E+00 -0.00000000000E+00 -0.24986793024E+03  0.24986793024E+03  0.00000000000E+00 0. -1.
         25    2    1    2    0    0 -0.33910922867E+02 -0.63484263613E+01 -0.13828749784E+03  0.18963571644E+03  0.12509204484E+03 0.  0.
          5    1    3    3  502    0  0.22430551169E+02  0.46616721020E+02 -0.48104420089E+02  0.70765499620E+02  0.41800000000E+01 0.  1.
         -5    1    3    3    0  502 -0.56341474036E+02 -0.52965147382E+02 -0.90183077756E+02  0.11887021682E+03  0.41800000000E+01 0.  1.
        -11    1    1    2    0    0  0.19919210154E+02  0.35506031192E+02  0.63317704822E+01  0.41201268203E+02  0.00000000000E+00 0.  1.
         11    1    1    2    0    0  0.13991712713E+02 -0.29157604830E+02 -0.64652712336E+02  0.72290436135E+02  0.00000000000E+00 0. -1.
</event>
<event>
 7    1  0.2840156E-009  0.1796955E+03  0.7561462E-02  0.1168098E+00
          2   -1    0    0  501    0  0.00000000000E+00  0.00000000000E+00  0.10206376871E+04  0.10206376871E+04  0.00000000000E+00 0. -1.
         -2   -1    0    0    0  501 -0.00000000000E+00 -0.00000000000E+00 -0.35562502332E+02  0.35562502332E+02  0.00000000000E+00 0.  1.
         25    2    1    2    0    0 -0.39685414676E+01 -0.14979533816E+03  0.39559116479E+03  0.44112798234E+03  0.12508850659E+03 0.  0.
          5    1    3    3  502    0 -0.53177104799E+00  0.17848765571E+02  0.96388667021E+02  0.98117830913E+02  0.41800000000E+01 0. -1.
         -5    1    3    3    0  502 -0.34367704196E+01 -0.16764410373E+03  0.29920249777E+03  0.34301015142E+03  0.41800000000E+01 0. -1.
        -11    1    1    2    0    0  0.40219912910E+02  0.11946576576E+03  0.38153439067E+03  0.40181861810E+03  0.00000000000E+00 0. -1.
         11    1    1    2    0    0 -0.36251371442E+02  0.30329572405E+02  0.20794962927E+03  0.21325358896E+03  0.00000000000E+00 0.  1.
</event>
<event>
 7    1  0.2840156E-009  0.1087084E+03  0.7561462E-02  0.1262981E+00
          1   -1    0    0  501    0  0.00000000000E+00  0.00000000000E+00  0.15247426709E+03  0.15247426709E+03  0.00000000000E+00 0. -1.
         -1   -1    0    0    0  501 -0.00000000000E+00 -0.00000000000E+00 -0.15342824863E+03  0.15342824863E+03  0.00000000000E+00 0.  1.
         25    2    1    2    0    0  0.45080548004E+02 -0.98115037295E+02  0.24897275790E+02  0.16711116014E+03  0.12508976436E+03 0.  0.
          5    1    3    3  502    0  0.17699823555E+02 -0.54885706774E+02  0.75451032023E+02  0.95058167431E+02  0.41800000000E+01 0.  1.
         -5    1    3    3    0  502  0.27380724449E+02 -0.43229330521E+02 -0.50553756233E+02  0.72052992706E+02  0.41800000000E+01 0.  1.
        -11    1    1    2    0    0 -0.16530431298E+02  0.45219845980E+02 -0.54061008502E+02  0.72392556728E+02  0.00000000000E+00 0.  1.
         11    1    1    2    0    0 -0.28550116706E+02  0.52895191315E+02  0.28209751166E+02  0.66398798853E+02  0.00000000000E+00 0. -1.
</event>
<event>
 7    1  0.2840156E-009  0.3436400E+03  0.7561462E-02  0.1065256E+00
          1   -1    0    0  501    0  0.00000000000E+00  0.00000000000E+00  0.74211864385E+03  0.74211864385E+03  0.00000000000E+00 0. -1.
         -1   -1    0    0    0  501 -0.00000000000E+00 -0.00000000000E+00 -0.17744260096E+03  0.17744260096E+03  0.00000000000E+00 0.  1.
         25    2    1    2    0    0  0.30736063244E+03  0.13090708012E+03  0.40001480286E+03  0.53597446194E+03  0.12509819881E+03 0.  0.
          5    1    3    3  502    0  0.71721427700E+02 -0.89230361058E+01  0.14295563895E+03  0.16024160157E+03  0.41800000000E+01 0.  1.
         -5    1    3    3    0  502  0.23563920474E+03  0.13983011623E+03  0.25705916390E+03  0.37573286037E+03  0.41800000000E+01 0.  1.
        -11    1    1    2    0    0 -0.97777817375E+02 -0.85202986360E+01  0.17326375929E+02  0.99665943844E+02  0.00000000000E+00 0.  1.
         11    1    1    2    0    0 -0.20958281507E+03 -0.12238678149E+03  0.14733486410E+03  0.28392083902E+03  0.00000000000E+00 0. -1.
</event>
<event>
 7    1  0.2840156E-009  0.1027122E+03  0.7561462E-02  0.1274694E+00
         -1   -1    0    0    0  501 -0.00000000000E+00  0.00000000000E+00  0.39525627792E+02  0.39525627792E+02  0.00000000000E+00 0.  1.
          1   -1    0    0  501    0  0.00000000000E+00 -0.00000000000E+00 -0.66913531256E+03  0.66913531256E+03  0.00000000000E+00 0. -1.
         25    2    1    2    0    0 -0.60154425437E+02 -0.74097021386E+01 -0.56037862506E+03  0.57735913694E+03  0.12508361606E+03 0.  0.
          5    1    3    3  502    0 -0.89534921919E+02  0.21252997626E+01 -0.25324002897E+03  0.26864289273E+03  0.41800000000E+01 0.  1.
         -5    1    3    3    0  502  0.29380496482E+02 -0.95350019013E+01 -0.30713859608E+03  0.30871624421E+03  0.41800000000E+01 0.  1.
        -11    1    1    2    0    0  0.54591060755E+02  0.29336774171E+02 -0.38229782122E+01  0.62092232973E+02  0.00000000000E+00 0.  1.
         11    1    1    2    0    0  0.55633646818E+01 -0.21927072032E+02 -0.65408081503E+02  0.69209570439E+02  0.00000000000E+00 0. -1.
</event>
<event>
 7    1  0.2840156E-009  0.1229159E+03  0.7561462E-02  0.1238363E+00
         -1   -1    0    0    0  501 -0.00000000000E+00  0.00000000000E+00  0.21123809805E+02  0.21123809805E+02  0.00000000000E+00 0.  1.
          1   -1    0    0  501    0  0.00000000000E+00 -0.00000000000E+00 -0.82731817636E+03  0.82731817636E+03  0.00000000000E+00 0. -1.
         25    2    1    2    0    0  0.11791564640E+02  0.67510036656E+02 -0.54540009020E+03  0.56374202054E+03  0.12508861372E+03 0.  0.
          5    1    3    3  502    0  0.61154852136E+02  0.19603358153E+02 -0.16417488860E+03  0.17633795405E+03  0.41800000000E+01 0.  1.
         -5    1    3    3    0  502 -0.49363287496E+02  0.47906678503E+02 -0.38122520161E+03  0.38740406649E+03  0.41800000000E+01 0.  1.
        -11    1    1    2    0    0 -0.24528034643E+02 -0.86379999490E+02 -0.22526579157E+03  0.24250320750E+03  0.00000000000E+00 0. -1.
         11    1    1    2    0    0  0.12736470003E+02  0.18869962834E+02 -0.35528484773E+02  0.42196758119E+02  0.00000000000E+00 0.  1.
</event>
<event>
 7    1  0.2840156E-009  0.9935360E+02  0.7561462E-02  0.1281661E+00
          2   -1    0    0  501    0  0.00000000000E+00  0.00000000000E+00  0.11316642914E+04  0.11316642914E+04  0.00000000000E+00 0. -1.
         -2   -1    0    0    0  501 -0.00000000000E+00 -0.00000000000E+00 -0.12173354390E+02  0.12173354390E+02  0.00000000000E+00 0.  1.
         25    2    1    2    0    0  0.78235100647E+01 -0.29467645347E+02  0.57058263769E+03  0.58492925958E+03  0.12509253714E+03 0.  0.
          5    1    3    3  502    0 -0.58098331827E+01 -0.60071201946E+02  0.52354639078E+03  0.52702997938E+03  0.41800000000E+01 0.  1.
         -5    1    3    3    0  502  0.13633343247E+02  0.30603556599E+02  0.47036246910E+02  0.57899280203E+02  0.41800000000E+01 0.  1.
        -11    1    1    2    0    0 -0.53471048671E+02  0.82240926394E+01  0.24968885229E+03  0.25548250763E+03  0.00000000000E+00 0.  1.
         11    1    1    2    0    0  0.45647538606E+02  0.21243552707E+02  0.29921944703E+03  0.30342587859E+03  0.00000000000E+00 0. -1.
</event>
<event>
 7    1  0.2840156E-009  0.1051613E+03  0.7561462E-02  0.1269802E+00
          2   -1    0    0  501    0  0.00000000000E+00  0.00000000000E+00  0.54974953040E+03  0.54974953040E+03  0.00000000000E+00 0.  1.
         -2   -1    0    0    0  501 -0.00000000000E+00 -0.00000000000E+00 -0.33699656483E+02  0.33699656483E+02  0.00000000000E+00 0. -1.
         25    2    1    2    0    0  0.20912847773E+02 -0.76091461077E+02  0.24414549473E+03  0.28545023125E+03  0.12509018455E+03 0.  0.
          5    1    3    3  502    0 -0.95147189039E+01 -0.85925229767E+02  0.78996177618E+02  0.11718166864E+03  0.41800000000E+01 0. -1.
         -5    1    3    3    0  502  0.30427566677E+02  0.98337686894E+01  0.16514931712E+03  0.16826856262E+03  0.41800000000E+01 0. -1.
        -11    1    1    2    0    0 -0.34463673395E+02  0.39068276630E+02  0.24449100859E+03  0.24997985580E+03  0.00000000000E+00 0.  1.
         11    1    1    2    0    0  0.13550825621E+02  0.37023184447E+02  0.27413370589E+02  0.48019099832E+02  0.00000000000E+00 0. -1.
</event>
<event>
 7    1  0.2840156E-009  0.1562523E+03  0.7561462E-02  0.1192994E+00
          3   -1    0    0  501    0  0.00000000000E+00  0.00000000000E+00  0.14079658706E+04  0.14079658706E+04  0.00000000000E+00 0. -1.
         -3   -1    0    0    0  501 -0.00000000000E+00 -0.00000000000E+00 -0.25184087307E+02  0.25184087307E+02  0.00000000000E+00 0.  1.
         25    2    1    2    0    0 -0.13057416363E+03 -0.23199416054E+02  0.10231134027E+04  0.10392284409E+04  0.12508753939E+03 0.  0.
          5    1    3    3  502    0 -0.22211015816E+02  0.45856736970E+02  0.21797098306E+03  0.22388611258E+03  0.41800000000E+01 0.  1.
         -5    1    3    3    0  502 -0.10836314782E+03 -0.69056153024E+02  0.80514241967E+03  0.81534232837E+03  0.41800000000E+01 0.  1.
        -11    1    1    2    0    0  0.10561062329E+03  0.21635428026E+02  0.35142073956E+03  0.36758431916E+03  0.00000000000E+00 0. -1.
         11    1    1    2    0    0  0.24963540349E+02  0.15639880278E+01  0.82476409798E+01  0.26337197783E+02  0.00000000000E+00 0.  1.
</event>
<event>
 7    1  0.2840156E-009  0.1102696E+03  0.7561462E-02  0.1260071E+00
         -1   -1    0    0    0  501 -0.00000000000E+00  0.00000000000E+00  0.20305025593E+03  0.20305025593E+03  0.00000000000E+00 0.  1.
          1   -1    0    0  501    0  0.00000000000E+00 -0.00000000000E+00 -0.17014090793E+03  0.17014090793E+03  0.00000000000E+00 0. -1.
         25    2    1    2    0    0 -0.53193930987E+02  0.22448107065E+01 -0.12413341741E+03  0.18409693785E+03  0.12509174128E+03 0.  0.
          5    1    3    3  502    0 -0.48265237057E+02  0.60396327092E+02 -0.69323490836E+02  0.10392530114E+03  0.41800000000E+01 0.  1.
         -5    1    3    3    0  502 -0.49286939309E+01 -0.58151516385E+02 -0.54809926574E+02  0.80171636710E+02  0.41800000000E+01 0.  1.
        -11    1    1    2    0    0 -0.15500629207E+02 -0.35302636845E+01 -0.18288315190E+01  0.16002402702E+02  0.00000000000E+00 0. -1.
         11    1    1    2    0    0  0.68694560195E+02  0.12854529780E+01  0.15887159692E+03  0.17309182331E+03  0.00000000000E+00 0.  1.
</event>
<event>
 7    1  0.2840156E-009  0.2001985E+03  0.7561462E-02  0.1149572E+00
          2   -1    0    0  501    0  0.00000000000E+00  0.00000000000E+00  0.21434219258E+03  0.21434219258E+03  0.00000000000E+00 0.  1.
         -2   -1    0    0    0  501 -0.00000000000E+00 -0.00000000000E+00 -0.25950873982E+03  0.25950873982E+03  0.00000000000E+00 0. -1.
         25    2    1    2    0    0  0.79554975327E+02  0.17349109737E+03  0.58200096349E+02  0.23550826553E+03  0.12509491177E+03 0.  0.
          5    1    3    3  502    0  0.15162278483E+01  0.47237351309E+02  0.72169135555E+02  0.86368529178E+02  0.41800000000E+01 0.  1.
         -5    1    3    3    0  502  0.78038747479E+02  0.12625374606E+03 -0.13969039207E+02  0.14913973635E+03  0.41800000000E+01 0.  1.
        -11    1    1    2    0    0  0.12803692091E+01 -0.83465028369E+02 -0.78981397647E+02  0.11491784666E+03  0.00000000000E+00 0. -1.
         11    1    1    2    0    0 -0.80835344536E+02 -0.90026069005E+02 -0.24385245940E+02  0.12342482022E+03  0.00000000000E+00 0.  1.
</event>
<event>
 7    1  0.2840156E-009  0.1097508E+03  0.7561462E-02  0.1261032E+00
          1   -1    0    0  501    0  0.00000000000E+00  0.00000000000E+00  0.29730986569E+02  0.29730986569E+02  0.00000000000E+00 0. -1.
         -1   -1    0    0    0  501 -0.00000000000E+00 -0.00000000000E+00 -0.48391573397E+03  0.48391573397E+03  0.00000000000E+00 0.  1.
         25    2    1    2    0    0 -0.19309968108E+02 -0.35221347261E+02 -0.32450150645E+03  0.35009007090E+03  0.12509361247E+03 0.  0.
          5    1    3    3  502    0 -0.61113588992E+02 -0.47105089549E+02 -0.13432286542E+03  0.15496407582E+03  0.41800000000E+01 0. -1.
         -5    1    3    3    0  502  0.41803620883E+02  0.11883742288E+02 -0.19017864103E+03  0.19512599508E+03  0.41800000000E+01 0. -1.
        -11    1    1    2    0    0  0.84229288578E+01  0.65681803553E+02 -0.75254518956E+02  0.10024114760E+03  0.00000000000E+00 0. -1.
         11    1    1    2    0    0  0.10887039251E+02 -0.30460456292E+02 -0.54428721987E+02  0.63315502038E+02  0.00000000000E+00 0.  1.
</event>
<event>
 7    1  0.2840156E-009  0.8931886E+02  0.7561462E-02  0.1304510E+00
         -1   -1    0    0    0  501 -0.00000000000E+00  0.00000000000E+00  0.20124688987E+02  0.20124688987E+02  0.00000000000E+00 0.  1.
          1   -1    0    0  501    0  0.00000000000E+00 -0.00000000000E+00 -0.62185174723E+03  0.62185174723E+03  0.00000000000E+00 0. -1.
         25    2    1    2    0    0  0.55540136813E+01 -0.11978530778E+02 -0.36098406704E+03  0.38227083606E+03  0.12508862131E+03 0.  0.
          5    1    3    3  502    0  0.14956921630E+02 -0.49363561515E+02 -0.61891589477E+02  0.80675349135E+02  0.41800000000E+01 0.  1.
         -5    1    3    3    0  502 -0.94029079490E+01  0.37385030737E+02 -0.29909247756E+03  0.30159548693E+03  0.41800000000E+01 0.  1.
        -11    1    1    2    0    0 -0.16094016837E+02  0.47976648849E+02 -0.18988010048E+03  0.19650757942E+03  0.00000000000E+00 0. -1.
         11    1    1    2    0    0  0.10540003155E+02 -0.35998118071E+02 -0.50862890722E+02  0.63198020726E+02  0.00000000000E+00 0.  1.
</event>
<event>
 7    1  0.2840156E-009  0.1180137E+03  0.7561462E-02  0.1246410E+00
          1   -1    0    0  501    0  0.00000000000E+00  0.00000000000E+00  0.26241694828E+03  0.26241694828E+03  0.00000000000E+00 0. -1.
         -1   -1    0    0    0  501 -0.00000000000E+00 -0.00000000000E+00 -0.11598846131E+03  0.11598846131E+03  0.00000000000E+00 0.  1.
         25    2    1    2    0    0  0.80407245951E+01 -0.80048636811E+02 -0.41895044128E+02  0.15451521773E+03  0.12508924926E+03 0.  0.
          5    1    3    3  502    0  0.43952419833E+02  0.14925447010E+01  0.17322358580E+02  0.47450810379E+02  0.41800000000E+01 0. -1.
         -5    1    3    3    0  502 -0.35911695237E+02 -0.81541181512E+02 -0.59217402708E+02  0.10706440735E+03  0.41800000000E+01 0. -1.
        -11    1    1    2    0    0 -0.28002342378E+02  0.77655559677E+02  0.84470965771E+02  0.11810953046E+03  0.00000000000E+00 0.  1.
         11    1    1    2    0    0  0.19961617783E+02  0.23930771342E+01  0.10385256533E+03  0.10578066141E+03  0.00000000000E+00 0. -1.
</event>
<event>
 7    1  0.2840156E-009  0.9918370E+02  0.7561462E-02  0.1282022E+00
         -2   -1    0    0    0  501 -0.00000000000E+00  0.00000000000E+00  0.21956156686E+03  0.21956156686E+03  0.00000000000E+00 0.  1.
          2   -1    0    0  501    0  0.00000000000E+00 -0.00000000000E+00 -0.69249144828E+02  0.69249144828E+02  0.00000000000E+00 0. -1.
         25    2    1    2    0    0  0.21666777641E+01 -0.57335342254E+02  0.10409574524E+03  0.17255433853E+03  0.12508812734E+03 0.  0.
          5    1    3    3  502    0 -0.32714794846E+01  0.16911544741E+02 -0.20655718389E+02  0.27218266398E+02  0.41800000000E+01 0.  1.
         -5    1    3    3    0  502  0.54381572488E+01 -0.74246886995E+02  0.12475146363E+03  0.14533607213E+03  0.41800000000E+01 0.  1.
        -11    1    1    2    0    0 -0.18731336541E+02 -0.19758451726E+02  0.66190652463E+01  0.28019125753E+02  0.00000000000E+00 0. -1.
         11    1    1    2    0    0  0.16564658777E+02  0.77093793980E+02  0.39597611540E+02  0.88237247409E+02  0.00000000000E+00 0.  1.
</event>
<event>
 7    1  0.2840156E-009  0.2046695E+03  0.7561462E-02  0.1145858E+00
         -4   -1    0    0    0  501 -0.00000000000E+00  0.00000000000E+00  0.88749498857E+03  0.88749498857E+03  0.00000000000E+00 0. -1.
          4   -1    0    0  501    0  0.00000000000E+00 -0.00000000000E+00 -0.52154418616E+02  0.52154418616E+02  0.00000000000E+00 0.  1.
         25    2    1    2    0    0 -0.16895262269E+03 -0.39248824420E+02  0.57368423520E+03  0.61224683257E+03  0.12508846210E+03 0.  0.
          5    1    3    3  502    0  0.75672028366E+01 -0.36105032635E+02  0.91823527028E+02  0.99044780056E+02  0.41800000000E+01 0. -1.
         -5    1    3    3    0  502 -0.17651982553E+03 -0.31437917846E+01  0.48186070817E+03  0.51320205252E+03  0.41800000000E+01 0. -1.
        -11    1    1    2    0    0  0.10998314010E+03 -0.20265316155E+02  0.16707774126E+03  0.20105209715E+03  0.00000000000E+00 0.  1.
         11    1    1    2    0    0  0.58969482594E+02  0.59514140575E+02  0.94578593494E+02  0.12635047745E+03  0.00000000000E+00 0. -1.
</event>
<event>
 7    1  0.2840156E-009  0.1256055E+03  0.7561462E-02  0.1234126E+00
         -2   -1    0    0    0  501 -0.00000000000E+00  0.00000000000E+00  0.85105435237E+02  0.85105435237E+02  0.00000000000E+00 0.  1.
          2   -1    0    0  501    0  0.00000000000E+00 -0.00000000000E+00 -0.25826042139E+03  0.25826042139E+03  0.00000000000E+00 0. -1.
         25    2    1    2    0    0  0.94499568997E+01 -0.48230096269E+02 -0.11112066324E+02  0.13485721812E+03  0.12509015705E+03 0.  0.
          5    1    3    3  502    0 -0.45577913195E+01 -0.83255394918E+02  0.19924427694E+02  0.85829420735E+02  0.41800000000E+01 0.  1.
         -5    1    3    3    0  502  0.14007748219E+02  0.35025298649E+02 -0.31036494018E+02  0.49027797386E+02  0.41800000000E+01 0.  1.
        -11    1    1    2    0    0 -0.64951931473E+02  0.24723345326E+02 -0.71266367349E+02  0.99543419276E+02  0.00000000000E+00 0.  1.
         11    1    1    2    0    0  0.55501974573E+02  0.23506750943E+02 -0.90776552481E+02  0.10896521923E+03  0.00000000000E+00 0. -1.
</event>
<event>
 7    1  0.2840156E-009  0.9179860E+02  0.7561462E-02  0.1298554E+00
          2   -1    0    0  501    0  0.00000000000E+00  0.00000000000E+00  0.46936259173E+02  0.46936259173E+02  0.00000000000E+00 0. -1.
         -2   -1    0    0    0  501 -0.00000000000E+00 -0.00000000000E+00 -0.32294683203E+03  0.32294683203E+03  0.00000000000E+00 0.  1.
         25    2    1    2    0    0 -0.32129265065E+02 -0.48328438519E+02 -0.17306203483E+03  0.22128272785E+03  0.12509056760E+03 0.  0.
          5    1    3    3  502    0 -0.28830785978E+02  0.10959528807E+02 -0.15640150425E+03  0.15946858130E+03  0.41800000000E+01 0. -1.
         -5    1    3    3    0  502 -0.32984790872E+01 -0.59287967326E+02 -0.16660530580E+02  0.61814146545E+02  0.41800000000E+01 0. -1.
        -11    1    1    2    0    0  0.29036505241E+02 -0.12804169576E+02 -0.74748589925E+02  0.81206016347E+02  0.00000000000E+00 0.  1.
         11    1    1    2    0    0  0.30927598247E+01  0.61132608095E+02 -0.28199948106E+02  0.67394347011E+02  0.00000000000E+00 0. -1.
</event>
<event>
 7    1  0.4244878E-009  0.1686499E+03  0.7561462E-02  0.1179263E+00
          3   -1    0    0  501    0  0.00000000000E+00  0.00000000000E+00  0.64937794303E+03  0.64937794303E+03  0.00000000000E+00 0. -1.
         -3   -1    0    0    0  501 -0.00000000000E+00 -0.00000000000E+00 -0.51414106051E+02  0.51414106051E+02  0.00000000000E+00 0.  1.
         25    2    1    2    0    0 -0.11794923893E+03 -0.84834537870E+02  0.35442725784E+03  0.40295801765E+03  0.12509021188E+03 0.  0.
          5    1    3    3  502    0  0.93656645650E+01 -0.61275249837E+02  0.11067829310E+03  0.12692331890E+03  0.41800000000E+01 0. -1.
         -5    1    3    3    0  502 -0.12731490350E+03 -0.23559288033E+02  0.24374896474E+03  0.27603469876E+03  0.41800000000E+01 0. -1.
        -11    1    1    2    0    0  0.18011719658E+02  0.17573935201E+02 -0.10548813842E+01  0.25186862016E+02  0.00000000000E+00 0.  1.
         11    1    1    2    0    0  0.99937519274E+02  0.67260602669E+02  0.24459146052E+03  0.27264716941E+03  0.00000000000E+00 0. -1.
</event>
<event>
 7    1  0.2840156E-009  0.1688329E+03  0.7561462E-02  0.1179070E+00
         -2   -1    0    0    0  501 -0.00000000000E+00  0.00000000000E+00  0.73263420821E+02  0.73263420821E+02  0.00000000000E+00 0.  1.
          2   -1    0    0  501    0  0.00000000000E+00 -0.00000000000E+00 -0.47970326716E+03  0.47970326716E+03  0.00000000000E+00 0. -1.
         25    2    1    2    0    0 -0.68048656730E+02  0.13254155878E+03 -0.17183620350E+03  0.25956292113E+03  0.12508934689E+03 0.  0.
          5    1    3    3  502    0 -0.16900314720E+02  0.11694550117E+03 -0.53774424744E+02  0.12988853698E+03  0.41800000000E+01 0. -1.
         -5    1    3    3    0  502 -0.51148342011E+02  0.15596057614E+02 -0.11806177875E+03  0.12967438415E+03  0.41800000000E+01 0. -1.
        -11    1    1    2    0    0  0.32293335303E+02 -0.41991708693E+01 -0.95009505057E+02  0.10043554447E+03  0.00000000000E+00 0. -1.
         11    1    1    2    0    0  0.35755321427E+02 -0.12834238791E+03 -0.13959413778E+03  0.19296822238E+03  0.00000000000E+00 0.  1.
</event>
<event>
 7    1  0.2840156E-009  0.8320464E+02  0.7561462E-02  0.1320195E+00
          1   -1    0    0  501    0  0.00000000000E+00  0.00000000000E+00  0.53620000927E+02  0.53620000927E+02  0.00000000000E+00 0. -1.
         -1   -1    0    0    0  501 -0.00000000000E+00 -0.00000000000E+00 -0.25743876671E+03  0.25743876671E+03  0.00000000000E+00 0.  1.
         25    2    1    2    0    0  0.36887549400E+02  0.28323769436E+02 -0.11599465052E+03  0.17681589352E+03  0.12508466746E+03 0.  0.
          5    1    3    3  502    0 -0.23111264868E+02  0.21043550821E+02  0.13150404076E+02  0.34166754635E+02  0.41800000000E+01 0. -1.
         -5    1    3    3    0  502  0.59998814268E+02  0.72802186147E+01 -0.12914505460E+03  0.14264913888E+03  0.41800000000E+01 0. -1.
        -11    1    1    2    0    0 -0.27275076408E+01 -0.38539972875E+02 -0.90585629214E+02  0.98481089693E+02  0.00000000000E+00 0.  1.
         11    1    1    2    0    0 -0.34160041759E+02  0.10216203440E+02  0.27615139582E+01  0.35761784422E+02  0.00000000000E+00 0. -1.
</event>
<event>
 7    1  0.2840156E-009  0.1298628E+03  0.7561462E-02  0.1227659E+00
          1   -1    0    0  501    0  0.00000000000E+00  0.00000000000E+00  0.21835277355E+04  0.21835277355E+04  0.00000000000E+00 0. -1.
         -1   -1    0    0    0  501 -0.00000000000E+00 -0.00000000000E+00 -0.91932666420E+01  0.91932666420E+01  0.00000000000E+00 0.  1.
         25    2    1    2    0    0 -0.67216006512E+02 -0.37811365903E+01  0.16054587392E+04  0.16117318787E+04  0.12509835044E+03 0.  0.
          5    1    3    3  502    0 -0.62398567177E+01  0.56032345319E+02  0.64929277300E+03  0.65174928999E+03  0.41800000000E+01 0.  1.
         -5    1    3    3    0  502 -0.60976149795E+02 -0.59813481909E+02  0.95616596616E+03  0.95998258875E+03  0.41800000000E+01 0.  1.
        -11    1    1    2    0    0  0.91311253863E+02 -0.63598949500E+01  0.42308425594E+03  0.43287236106E+03  0.00000000000E+00 0. -1.
         11    1    1    2    0    0 -0.24095247350E+02  0.10141031540E+02  0.14579147379E+03  0.14811676237E+03  0.00000000000E+00 0.  1.
</event>
<event>
 7    1  0.2840156E-009  0.1003857E+03  0.7561462E-02  0.1279487E+00
          1   -1    0    0  501    0  0.00000000000E+00  0.00000000000E+00  0.30864911742E+03  0.30864911742E+03  0.00000000000E+00 0. -1.
         -1   -1    0    0    0  501 -0.00000000000E+00 -0.00000000000E+00 -0.43378768024E+02  0.43378768024E+02  0.00000000000E+00 0.  1.
         25    2    1    2    0    0 -0.29995830668E+02 -0.27223886641E+02  0.14053403187E+03  0.19245371870E+03  0.12509088642E+03 0.  0.
          5    1    3    3  502    0 -0.66700613750E+02 -0.25237793493E+02  0.13797235493E+03  0.15536975645E+03  0.41800000000E+01 0. -1.
         -5    1    3    3    0  502  0.36704783082E+02 -0.19860931477E+01  0.25616769404E+01  0.37083962246E+02  0.41800000000E+01 0. -1.
        -11    1    1    2    0    0 -0.28736014878E+02  0.14732451716E+02  0.74815998809E+02  0.81487651595E+02  0.00000000000E+00 0. -1.
         11    1    1    2    0    0  0.58731845546E+02  0.12491434925E+02  0.49920318717E+02  0.78086515152E+02  0.00000000000E+00 0.  1.
</event>
<event>
 7    1  0.2840156E-009  0.1138422E+03  0.7561462E-02  0.1253616E+00
         -2   -1    0    0    0  501 -0.00000000000E+00  0.00000000000E+00  0.20349065317E+02  0.20349065317E+02  0.00000000000E+00 0.  1.
          2   -1    0    0  501    0  0.00000000000E+00 -0.00000000000E+00 -0.10953042394E+04  0.10953042394E+04  0.00000000000E+00 0. -1.
         25    2    1    2    0    0  0.74522718399E+02 -0.38875128144E+02 -0.78863240252E+03  0.80290312433E+03  0.12508976624E+03 0.  0.
          5    1    3    3  502    0  0.60850104769E+02  0.21569749337E+02 -0.61690377416E+03  0.62028681133E+03  0.41800000000E+01 0. -1.
         -5    1    3    3    0  502  0.13672613630E+02 -0.60444877481E+02 -0.17172862836E+03  0.18261631300E+03  0.41800000000E+01 0. -1.
        -11    1    1    2    0    0 -0.49372840240E+02 -0.56949341119E+01 -0.48355984089E+02  0.69342705638E+02  0.00000000000E+00 0.  1.
         11    1    1    2    0    0 -0.25149878159E+02  0.44570062256E+02 -0.23796678751E+03  0.24340747478E+03  0.00000000000E+00 0. -1.
</event>
<event>
 7    1  0.2840156E-009  0.1630275E+03  0.7561462E-02  0.1185321E+00
          1   -1    0    0  501    0  0.00000000000E+00  0.00000000000E+00  0.78415940916E+02  0.78415940916E+02  0.00000000000E+00 0. -1.
         -1   -1    0    0    0  501 -0.00000000000E+00 -0.00000000000E+00 -0.47130676669E+03  0.47130676669E+03  0.00000000000E+00 0.  1.
         25    2    1    2    0    0  0.12044884398E+03  0.64629468453E+02 -0.31977504587E+03  0.36957794650E+03  0.12508751484E+03 0.  0.
          5    1    3    3  502    0  0.77993984448E+02  0.99024498467E+02 -0.25679900309E+03  0.28609808335E+03  0.41800000000E+01 0.  1.
         -5    1    3    3    0  502  0.42454859531E+02 -0.34395030014E+02 -0.62976042778E+02  0.83479863150E+02  0.41800000000E+01 0.  1.
        -11    1    1    2    0    0 -0.60831811770E+02 -0.53562213808E+01 -0.74163336342E+02  0.96069760529E+02  0.00000000000E+00 0.  1.
         11    1    1    2    0    0 -0.59617032209E+02 -0.59273247072E+02  0.10475564388E+01  0.84075000579E+02  0.00000000000E+00 0. -1.
</event>
<event>
 7    1  0.2840156E-009  0.8706409E+02  0.7561462E-02  0.1310121E+00
          1   -1    0    0  501    0  0.00000000000E+00  0.00000000000E+00  0.14837398004E+03  0.14837398004E+03  0.00000000000E+00 0. -1.
         -1   -1    0    0    0  501 -0.00000000000E+00 -0.00000000000E+00 -0.10365472966E+03  0.10365472966E+03  0.00000000000E+00 0.  1.
         25    2    1    2    0    0  0.42461056675E+02 -0.21571058298E+02  0.59685927255E+02  0.14655232202E+03  0.12508765442E+03 0.  0.
          5    1    3    3  502    0  0.50725239962E+02 -0.46579286783E+01  0.94111434063E+02  0.10709426077E+03  0.41800000000E+01 0.  1.
         -5    1    3    3    0  502 -0.82641832872E+01 -0.16913129620E+02 -0.34425506807E+02  0.39458061253E+02  0.41800000000E+01 0.  1.
        -11    1    1    2    0    0 -0.37010805745E+02  0.56960659003E+02 -0.15461393436E+02  0.69666140290E+02  0.00000000000E+00 0.  1.
         11    1    1    2    0    0 -0.54502509304E+01 -0.35389600705E+02  0.49471655245E+00  0.35810247385E+02  0.00000000000E+00 0. -1.
</event>
<event>
 7    1  0.2840156E-009  0.1423509E+03  0.7561462E-02  0.1210200E+00
          2   -1    0    0  501    0  0.00000000000E+00  0.00000000000E+00  0.74425099789E+03  0.74425099789E+03  0.00000000000E+00 0.  1.
         -2   -1    0    0    0  501 -0.00000000000E+00 -0.00000000000E+00 -0.35339312171E+02  0.35339312171E+02  0.00000000000E+00 0. -1.
         25    2    1    2    0    0 -0.95593141332E+02 -0.58524090865E+02  0.47775459079E+03  0.50641912124E+03  0.12509100470E+03 0.  0.
          5    1    3    3  502    0 -0.11854113526E+03 -0.73891689182E+02  0.40854734410E+03  0.43178743295E+03  0.41800000000E+01 0. -1.
         -5    1    3    3    0  502  0.22947993928E+02  0.15367598317E+02  0.69207246691E+02  0.74631688296E+02  0.41800000000E+01 0. -1.
        -11    1    1    2    0    0  0.54073252078E+02  0.51948388676E+02  0.21573409395E+03  0.22839385055E+03  0.00000000000E+00 0.  1.
         11    1    1    2    0    0  0.41519889255E+02  0.65757021894E+01  0.15423000971E+02  0.44777338264E+02  0.00000000000E+00 0. -1.
</event>
<event>
 7    1  0.2840156E-009  0.1455622E+03  0.7561462E-02  0.1206035E+00
          1   -1    0    0  501    0  0.00000000000E+00  0.00000000000E+00  0.18448239781E+03  0.18448239781E+03  0.00000000000E+00 0. -1.
         -1   -1    0    0    0  501 -0.00000000000E+00 -0.00000000000E+00 -0.15846796556E+03  0.15846796556E+03  0.00000000000E+00 0.  1.
         25    2    1    2    0    0  0.12165784355E+03  0.32001526585E+02  0.96302204446E+01  0.17766428868E+03  0.12508848758E+03 0.  0.
          5    1    3    3  502    0  0.11165493052E+03 -0.11142117111E+01 -0.38552101587E+02  0.11820237694E+03  0.41800000000E+01 0.  1.
         -5    1    3    3    0  502  0.10002913035E+02  0.33115738296E+02  0.48182322032E+02  0.59461911746E+02  0.41800000000E+01 0.  1.
        -11    1    1    2    0    0  0.96421579282E+01 -0.26516757953E+01 -0.23016503956E+02  0.25095060239E+02  0.00000000000E+00 0.  1.
         11    1    1    2    0    0 -0.13130000148E+03 -0.29349850790E+02  0.39400715758E+02  0.14019101445E+03  0.00000000000E+00 0. -1.
</event>
<event>
 7    1  0.2840156E-009  0.1064302E+03  0.7561462E-02  0.1267327E+00
         -2   -1    0    0    0  501 -0.00000000000E+00  0.00000000000E+00  0.48599440919E+02  0.48599440919E+02  0.00000000000E+00 0.  1.
          2   -1    0    0  501    0  0.00000000000E+00 -0.00000000000E+00 -0.27253126908E+03  0.27253126908E+03  0.00000000000E+00 0. -1.
         25    2    1    2    0    0 -0.19983512468E+02  0.82419964607E+01 -0.80769711498E+02  0.15046570758E+03  0.12509560978E+03 0.  0.
          5    1    3    3  502    0 -0.48329745687E+01 -0.57498981592E+02 -0.48831446110E+02  0.75706492829E+02  0.41800000000E+01 0.  1.
         -5    1    3    3    0  502 -0.15150537900E+02  0.65740978053E+02 -0.31938265388E+02  0.74759214749E+02  0.41800000000E+01 0.  1.
        -11    1    1    2    0    0  0.42390720802E+02 -0.33221185407E+02 -0.58097365853E+02  0.79220731434E+02  0.00000000000E+00 0.  1.
         11    1    1    2    0    0 -0.22407208333E+02  0.24979188946E+02 -0.85064750807E+02  0.91444270982E+02  0.00000000000E+00 0. -1.
</event>
<event>
 7    1  0.2840156E-009  0.1738919E+03  0.7561462E-02  0.1173849E+00
          1   -1    0    0  501    0  0.00000000000E+00  0.00000000000E+00  0.10862408006E+03  0.10862408006E+03  0.00000000000E+00 0. -1.
         -1   -1    0    0    0  501 -0.00000000000E+00 -0.00000000000E+00 -0.30611482593E+03  0.30611482593E+03  0.00000000000E+00 0.  1.
         25    2    1    2    0    0  0.13563054158E+03 -0.21438958730E+02 -0.16545282669E+03  0.24875158739E+03  0.12508973422E+03 0.  0.
          5    1    3    3  502    0  0.11085170768E+03 -0.69344587337E+02 -0.10603990196E+03  0.16840043378E+03  0.41800000000E+01 0. -1.
         -5    1    3    3    0  502  0.24778833897E+02  0.47905628607E+02 -0.59412924725E+02  0.80351153607E+02  0.41800000000E+01 0. -1.
        -11    1    1    2    0    0 -0.26267583119E+02 -0.31789100928E+02 -0.80302455062E+01  0.42012113772E+02  0.00000000000E+00 0. -1.
         11    1    1    2    0    0 -0.10936295846E+03  0.53228059657E+02 -0.24007673680E+02  0.12397520483E+03  0.00000000000E+00 0.  1.
</event>
<event>
 7    1  0.2840156E-009  0.1610860E+03  0.7561462E-02  0.1187476E+00
         -1   -1    0    0    0  501 -0.00000000000E+00  0.00000000000E+00  0.26800458300E+03  0.26800458300E+03  0.00000000000E+00 0.  1.
          1   -1    0    0  501    0  0.00000000000E+00 -0.00000000000E+00 -0.11223317455E+03  0.11223317455E+03  0.00000000000E+00 0. -1.
         25    2    1    2    0    0  0.27930787317E+02  0.11225689424E+03  0.14281387248E+03  0.22231686592E+03  0.12508895841E+03 0.  0.
          5    1    3    3  502    0  0.22759750964E+02  0.13713428870E+03  0.96329120878E+02  0.16917621384E+03  0.41800000000E+01 0. -1.
         -5    1    3    3    0  502  0.51710363526E+01 -0.24877394456E+02  0.46484751601E+02  0.53140652078E+02  0.41800000000E+01 0. -1.
        -11    1    1    2    0    0  0.20324784581E+02 -0.10687860468E+03  0.73123119906E+01  0.10903945576E+03  0.00000000000E+00 0. -1.
         11    1    1    2    0    0 -0.48255571898E+02 -0.53782895675E+01  0.56452239788E+01  0.48881435859E+02  0.00000000000E+00 0.  1.
</event>
<event>
 7    1  0.2840156E-009  0.1001818E+03  0.7561462E-02  0.1279914E+00
          1   -1    0    0  501    0  0.00000000000E+00  0.00000000000E+00  0.10958372312E+03  0.10958372312E+03  0.00000000000E+00 0. -1.
         -1   -1    0    0    0  501 -0.00000000000E+00 -0.00000000000E+00 -0.13861342994E+03  0.13861342994E+03  0.00000000000E+00 0.  1.
         25    2    1    2    0    0 -0.42734982300E+02  0.37724683669E+02 -0.15058247168E+02  0.13829163528E+03  0.12509354544E+03 0.  0.
          5    1    3    3  502    0 -0.56506258910E+02 -0.19455934229E+02  0.27154677737E+02  0.65774916159E+02  0.41800000000E+01 0.  1.
         -5    1    3    3    0  502  0.13771276610E+02  0.57180617898E+02 -0.42212924904E+02  0.72516719118E+02  0.41800000000E+01 0.  1.
        -11    1    1    2    0    0  0.16425692564E+02  0.15205661798E+02  0.29140705271E+02  0.36745016405E+02  0.00000000000E+00 0. -1.
         11    1    1    2    0    0  0.26309289736E+02 -0.52930345467E+02 -0.43112164926E+02  0.73160501381E+02  0.00000000000E+00 0.  1.
</event>
<event>
 7    1  0.2840156E-009  0.9852939E+02  0.7561462E-02  0.1283419E+00
          1   -1    0    0  501    0  0.00000000000E+00  0.00000000000E+00  0.14495841286E+03  0.14495841286E+03  0.00000000000E+00 0. -1.
         -1   -1    0    0    0  501 -0.00000000000E+00 -0.00000000000E+00 -0.12142360364E+03  0.12142360364E+03  0.00000000000E+00 0.  1.
         25    2    1    2    0    0  0.18158588045E+02 -0.22858320842E+02 -0.64012332377E+02  0.14351780545E+03  0.12509014603E+03 0.  0.
          5    1    3    3  502    0  0.63002130418E+02 -0.28320299998E+02 -0.69187751388E+02  0.97855634337E+02  0.41800000000E+01 0.  1.
         -5    1    3    3    0  502 -0.44843542374E+02  0.54619791554E+01  0.51754190110E+01  0.45662171114E+02  0.41800000000E+01 0.  1.
        -11    1    1    2    0    0 -0.20026956300E+01 -0.28541032991E+02  0.48550182147E+02  0.56353540620E+02  0.00000000000E+00 0. -1.
         11    1    1    2    0    0 -0.16155892415E+02  0.51399353833E+02  0.38996959447E+02  0.66510670424E+02  0.00000000000E+00 0.  1.
</event>
<event>
 7    1  0.2840156E-009  0.1435034E+03  0.7561462E-02  0.1208691E+00
         -1   -1    0    0    0  501 -0.00000000000E+00  0.00000000000E+00  0.91480192010E+02  0.91480192010E+02  0.00000000000E+00 0.  1.
          1   -1    0    0  501    0  0.00000000000E+00 -0.00000000000E+00 -0.46065246905E+03  0.46065246905E+03  0.00000000000E+00 0. -1.
         25    2    1    2    0    0  0.70509523213E+02 -0.93319974109E+02 -0.36639101098E+03  0.40443745794E+03  0.12508826495E+03 0.  0.
          5    1    3    3  502    0  0.96488944091E+02 -0.49367686579E+02 -0.17145738351E+03  0.20288516843E+03  0.41800000000E+01 0. -1.
         -5    1    3    3    0  502 -0.25979420877E+02 -0.43952287530E+02 -0.19493362747E+03  0.20155228951E+03  0.41800000000E+01 0. -1.
        -11    1    1    2    0    0 -0.58979973741E+02  0.36553093366E+02  0.35817194560E+02  0.78087370063E+02  0.00000000000E+00 0.  1.
         11    1    1    2    0    0 -0.11529549472E+02  0.56766880742E+02 -0.38598460623E+02  0.69607833056E+02  0.00000000000E+00 0. -1.
</event>
<event>
 7    1  0.2840156E-009  0.1193527E+03  0.7561462E-02  0.1244169E+00
          2   -1    0    0  501    0  0.00000000000E+00  0.00000000000E+00  0.11360683760E+03  0.11360683760E+03  0.00000000000E+00 0.  1.
         -2   -1    0    0    0  501 -0.00000000000E+00 -0.00000000000E+00 -0.15183628385E+03  0.15183628385E+03  0.00000000000E+00 0. -1.
         25    2    1    2    0    0  0.17148382301E+02  0.55635400877E+02 -0.14610929084E+02  0.13874315027E+03  0.12508724016E+03 0.  0.
          5    1    3    3  502    0 -0.33871628975E+02 -0.23330252136E+02  0.76418828954E+01  0.42041154698E+02  0.41800000000E+01 0. -1.
         -5    1    3    3    0  502  0.51020011276E+02  0.78965653014E+02 -0.22252811980E+02  0.96701995571E+02  0.41800000000E+01 0. -1.
        -11    1    1    2    0    0 -0.20829950722E+02  0.19201756679E+02  0.24665003498E+02  0.37562703633E+02  0.00000000000E+00 0.  1.
         11    1    1    2    0    0  0.36815684208E+01 -0.74837157556E+02 -0.48283520671E+02  0.89137267546E+02  0.00000000000E+00 0. -1.
</event>
<event>
 7    1  0.2840156E-009  0.7964702E+02  0.7561462E-02  0.1330056E+00
          2   -1    0    0  501    0  0.00000000000E+00  0.00000000000E+00  0.14194002551E+04  0.14194002551E+04  0.00000000000E+00 0. -1.
         -2   -1    0    0    0  501 -0.00000000000E+00 -0.00000000000E+00 -0.18176038077E+02  0.18176038077E+02  0.00000000000E+00 0.  1.
         25    2    1    2    0    0 -0.17406367755E+02  0.45993470778E+02  0.12396478199E+04  0.12469132045E+04  0.12508973270E+03 0.  0.
          5    1    3    3  502    0 -0.35645841829E+02  0.58710022330E+02  0.11938544999E+04  0.11958359135E+04  0.41800000000E+01 0. -1.
         -5    1    3    3    0  502  0.18239474074E+02 -0.12716551552E+02  0.45793319998E+02  0.51077290985E+02  0.41800000000E+01 0. -1.
        -11    1    1    2    0    0 -0.13672872030E+02 -0.29859568999E+02  0.89046851295E+01  0.34026970297E+02  0.00000000000E+00 0.  1.
         11    1    1    2    0    0  0.31079239785E+02 -0.16133901779E+02  0.15267171196E+03  0.15663611833E+03  0.00000000000E+00 0. -1.
</event>
<event>
 7    1  0.2840156E-009  0.1637494E+03  0.7561462E-02  0.1184528E+00
          1   -1    0    0  501    0  0.00000000000E+00  0.00000000000E+00  0.37123223346E+02  0.37123223346E+02  0.00000000000E+00 0. -1.
         -1   -1    0    0    0  501 -0.00000000000E+00 -0.00000000000E+00 -0.73719538823E+03  0.73719538823E+03  0.00000000000E+00 0.  1.
         25    2    1    2    0    0  0.45231770131E+02 -0.11788694910E+03 -0.38622721473E+03  0.42516081186E+03  0.12508800401E+03 0.  0.
          5    1    3    3  502    0  0.85761815017E+02 -0.64357169822E+02 -0.27471107607E+03  0.29492470554E+03  0.41800000000E+01 0. -1.
         -5    1    3    3    0  502 -0.40530044886E+02 -0.53529779274E+02 -0.11151613866E+03  0.13023610632E+03  0.41800000000E+01 0. -1.
        -11    1    1    2    0    0 -0.70881194801E+02  0.77022791018E+02 -0.20917845872E+03  0.23390656618E+03  0.00000000000E+00 0.  1.
         11    1    1    2    0    0  0.25649424669E+02  0.40864158078E+02 -0.10466649143E+03  0.11525123353E+03  0.00000000000E+00 0. -1.
</event>
<event>
 7    1  0.2840156E-009  0.8963733E+02  0.7561462E-02  0.1303732E+00
         -1   -1    0    0    0  501 -0.00000000000E+00  0.00000000000E+00  0.29290866581E+03  0.29290866581E+03  0.00000000000E+00 0.  1.
          1   -1    0    0  501    0  0.00000000000E+00 -0.00000000000E+00 -0.48290629933E+02  0.48290629933E+02  0.00000000000E+00 0. -1.
         25    2    1    2    0    0  0.43935251154E+02  0.11155016911E+02  0.11866659245E+03  0.17828097320E+03  0.12509038550E+03 0.  0.
          5    1    3    3  502    0  0.59519707660E+02  0.44008116895E+02  0.12066807072E+03  0.14162473528E+03  0.41800000000E+01 0.  1.
         -5    1    3    3    0  502 -0.15584456506E+02 -0.32853099984E+02 -0.20014782679E+01  0.36656237919E+02  0.41800000000E+01 0.  1.
        -11    1    1    2    0    0 -0.19634693059E+02  0.20658059279E+02 -0.22720746345E+01  0.28590888546E+02  0.00000000000E+00 0. -1.
         11    1    1    2    0    0 -0.24300558096E+02 -0.31813076190E+02  0.12822351807E+03  0.13432743400E+03  0.00000000000E+00 0.  1.
</event>
<event>
 7    1  0.2840156E-009  0.8174313E+02  0.7561462E-02  0.1324176E+00
          1   -1    0    0  501    0  0.00000000000E+00  0.00000000000E+00  0.87910777904E+02  0.87910777904E+02  0.00000000000E+00 0. -1.
         -1   -1    0    0    0  501 -0.00000000000E+00 -0.00000000000E+00 -0.23353506152E+03  0.23353506152E+03  0.00000000000E+00 0.  1.
         25    2    1    2    0    0 -0.32012164252E+02  0.32547317964E+02  0.99566111932E+01  0.13352775535E+03  0.12508565376E+03 0.  0.
          5    1    3    3  502    0 -0.26995851237E+02 -0.26209344563E+02  0.49563913868E+02  0.62367937952E+02  0.41800000000E+01 0.  1.
         -5    1    3    3    0  502 -0.50163130149E+01  0.58756662527E+02 -0.39607302675E+02  0.71159817402E+02  0.41800000000E+01 0.  1.
        -11    1    1    2    0    0  0.17187821604E+02 -0.44348363314E+02 -0.16126758046E+03  0.16813515709E+03  0.00000000000E+00 0.  1.
         11    1    1    2    0    0  0.14824342648E+02  0.11801045351E+02  0.56866856534E+01  0.19782926984E+02  0.00000000000E+00 0. -1.
</event>
<event>
 7    1  0.2840156E-009  0.1161851E+03  0.7561462E-02  0.1249526E+00
         -2   -1    0    0    0  501 -0.00000000000E+00  0.00000000000E+00  0.23574090822E+02  0.23574090822E+02  0.00000000000E+00 0.  1.
          2   -1    0    0  501    0  0.00000000000E+00 -0.00000000000E+00 -0.68002320586E+03  0.68002320586E+03  0.00000000000E+00 0. -1.
         25    2    1    2    0    0 -0.10986017848E+02  0.62518073098E+02 -0.40227371820E+03  0.42602859833E+03  0.12508804974E+03 0.  0.
          5    1    3    3  502    0 -0.10902538159E+02  0.98279917250E+02 -0.23620810503E+03  0.25610456605E+03  0.41800000000E+01 0.  1.
         -5    1    3    3    0  502 -0.83479688967E-01 -0.35761844152E+02 -0.16606561317E+03  0.16992403228E+03  0.41800000000E+01 0.  1.
        -11    1    1    2    0    0 -0.35430402760E+01 -0.76881648221E+02 -0.24163664802E+03  0.25359733956E+03  0.00000000000E+00 0. -1.
         11    1    1    2    0    0  0.14529058124E+02  0.14363575123E+02 -0.12538748818E+02  0.23971358789E+02  0.00000000000E+00 0.  1.
</event>
<event>
 7    1  0.2840156E-009  0.1290778E+03  0.7561462E-02  0.1228831E+00
          1   -1    0    0  501    0  0.00000000000E+00  0.00000000000E+00  0.87062187921E+03  0.87062187921E+03  0.00000000000E+00 0. -1.
         -1   -1    0    0    0  501 -0.00000000000E+00 -0.00000000000E+00 -0.32319246426E+02  0.32319246426E+02  0.00000000000E+00 0.  1.
         25    2    1    2    0    0 -0.30122752782E+02 -0.10100300217E+03  0.25615809043E+03  0.30392755230E+03  0.12508398407E+03 0.  0.
          5    1    3    3  502    0 -0.34551153778E+02 -0.10477303578E+03  0.10422961612E+03  0.15183035444E+03  0.41800000000E+01 0.  1.
         -5    1    3    3    0  502  0.44284009969E+01  0.37700336094E+01  0.15192847431E+03  0.15209719785E+03  0.41800000000E+01 0.  1.
        -11    1    1    2    0    0 -0.34951332787E+01  0.10647380736E+03  0.46288005431E+03  0.47498087570E+03  0.00000000000E+00 0.  1.
         11    1    1    2    0    0  0.33617886060E+02 -0.54708051849E+01  0.11926448805E+03  0.12403269763E+03  0.00000000000E+00 0. -1.
</event>
<event>
 7    1  0.2840156E-009  0.1472190E+03  0.7561462E-02  0.1203933E+00
          1   -1    0    0  501    0  0.00000000000E+00  0.00000000000E+00  0.28522861548E+03  0.28522861548E+03  0.00000000000E+00 0. -1.
         -1   -1    0    0    0  501 -0.00000000000E+00 -0.00000000000E+00 -0.13275306354E+03  0.13275306354E+03  0.00000000000E+00 0.  1.
         25    2    1    2    0    0  0.30642181178E+02 -0.11858340249E+03  0.19255322561E+03  0.26023854732E+03  0.12508553156E+03 0.  0.
          5    1    3    3  502    0 -0.45569421945E+02 -0.32107533454E+02  0.38870054094E+02  0.68086852080E+02  0.41800000000E+01 0. -1.
         -5    1    3    3    0  502  0.76211603124E+02 -0.86475869033E+02  0.15368317151E+03  0.19215169524E+03  0.41800000000E+01 0. -1.
        -11    1    1    2    0    0 -0.27425903592E+02  0.81885864564E+02 -0.69297718327E+02  0.11072329822E+03  0.00000000000E+00 0.  1.
         11    1    1    2    0    0 -0.32162775866E+01  0.36697537923E+02  0.29220044659E+02  0.47019833485E+02  0.00000000000E+00 0. -1.
</event>
<event>
 7    1  0.2840156E-009  0.1129585E+03  0.7561462E-02  0.1255187E+00
          2   -1    0    0  501    0  0.00000000000E+00  0.00000000000E+00  0.66465051643E+03  0.66465051643E+03  0.00000000000E+00 0.  1.
         -2   -1    0    0    0  501 -0.00000000000E+00 -0.00000000000E+00 -0.21608499851E+02  0.21608499851E+02  0.00000000000E+00 0. -1.
         25    2    1    2    0    0 -0.38496211527E+02  0.18489009421E+01  0.45168998977E+03  0.47027095729E+03  0.12508217171E+03 0.  0.
          5    1    3    3  502    0  0.74799179884E+01  0.57557445062E+02  0.21836466936E+03  0.22598541961E+03  0.41800000000E+01 0.  1.
         -5    1    3    3    0  502 -0.45976129515E+02 -0.55708544120E+02  0.23332532041E+03  0.24428553768E+03  0.41800000000E+01 0.  1.
        -11    1    1    2    0    0 -0.21064312735E+02 -0.23904245273E+02  0.35551603165E+02  0.47739236491E+02  0.00000000000E+00 0.  1.
         11    1    1    2    0    0  0.59560524262E+02  0.22055344331E+02  0.15580042364E+03  0.16824882249E+03  0.00000000000E+00 0. -1.
</event>
<event>
 7    1  0.2840156E-009  0.1366898E+03  0.7561462E-02  0.1217854E+00
         -2   -1    0    0    0  501 -0.00000000000E+00  0.00000000000E+00  0.89452839882E+02  0.89452839882E+02  0.00000000000E+00 0. -1.
          2   -1    0    0  501    0  0.00000000000E+00 -0.00000000000E+00 -0.21695795373E+03  0.21695795373E+03  0.00000000000E+00 0.  1.
         25    2    1    2    0    0  0.64948249146E+02 -0.61628217200E+02 -0.53956800358E+02  0.16301869093E+03  0.12508974805E+03 0.  0.
          5    1    3    3  502    0  0.98452954612E+02 -0.27097918050E+02 -0.52039503268E+02  0.11468593521E+03  0.41800000000E+01 0. -1.
         -5    1    3    3    0  502 -0.33504705466E+02 -0.34530299149E+02 -0.19172970898E+01  0.48332755724E+02  0.41800000000E+01 0. -1.
        -11    1    1    2    0    0 -0.57667468534E+02  0.82569859799E+02 -0.63406895797E+02  0.11901156712E+03  0.00000000000E+00 0. -1.
         11    1    1    2    0    0 -0.72807806124E+01 -0.20941642599E+02 -0.10141417688E+02  0.24380535552E+02  0.00000000000E+00 0.  1.
</event>
<event>
 7    1  0.2840156E-009  0.9288858E+02  0.7561462E-02  0.1296004E+00
         -3   -1    0    0    0  501 -0.00000000000E+00  0.00000000000E+00  0.27559356793E+03  0.27559356793E+03  0.00000000000E+00 0.  1.
          3   -1    0    0  501    0  0.00000000000E+00 -0.00000000000E+00 -0.47180379711E+02  0.47180379711E+02  0.00000000000E+00 0. -1.
         25    2    1    2    0    0  0.32972335532E+02  0.17707444208E+02  0.11981290592E+03  0.17721048924E+03  0.12509075338E+03 0.  0.
          5    1    3    3  502    0 -0.37572007399E+01 -0.32939421394E+02  0.10845668613E+03  0.11348765222E+03  0.41800000000E+01 0.  1.
         -5    1    3    3    0  502  0.36729536272E+02  0.50646865602E+02  0.11356219784E+02  0.63722837020E+02  0.41800000000E+01 0.  1.
        -11    1    1    2    0    0  0.27135927740E+02 -0.51720121097E+00  0.10223902608E+02  0.29002659463E+02  0.00000000000E+00 0. -1.
         11    1    1    2    0    0 -0.60108263272E+02 -0.17190242997E+02  0.98376379700E+02  0.11656079895E+03  0.00000000000E+00 0.  1.
</event>
<event>
 7    1  0.2840156E-009  0.1081363E+03  0.7561462E-02  0.1264061E+00
          2   -1    0    0  501    0  0.00000000000E+00  0.00000000000E+00  0.13970321863E+03  0.13970321863E+03  0.00000000000E+00 0. -1.
         -2   -1    0    0    0  501 -0.00000000000E+00 -0.00000000000E+00 -0.10678706167E+03  0.10678706167E+03  0.00000000000E+00 0.  1.
         25    2    1    2    0    0  0.21219324772E+02  0.50501158401E+02  0.14513952035E+02  0.13732180462E+03  0.12508395771E+03 0.  0.
          5    1    3    3  502    0  0.48862497399E+02  0.73373268627E+02 -0.16416432930E+02  0.89767209332E+02  0.41800000000E+01 0. -1.
         -5    1    3    3    0  502 -0.27643172627E+02 -0.22872110226E+02  0.30930384965E+02  0.47554595289E+02  0.41800000000E+01 0. -1.
        -11    1    1    2    0    0  0.18641379694E+02  0.86651859292E+01  0.30528201213E+02  0.36804314331E+02  0.00000000000E+00 0. -1.
         11    1    1    2    0    0 -0.39860704466E+02 -0.59166344330E+02 -0.12125996291E+02  0.72364161350E+02  0.00000000000E+00 0.  1.
</event>
<event>
 7    1  0.2840156E-009  0.2135148E+03  0.7561462E-02  0.1138813E+00
         -2   -1    0    0    0  501 -0.00000000000E+00  0.00000000000E+00  0.50806611251E+03  0.50806611251E+03  0.00000000000E+00 0. -1.
          2   -1    0    0  501    0  0.00000000000E+00 -0.00000000000E+00 -0.10408698473E+03  0.10408698473E+03  0.00000000000E+00 0.  1.
         25    2    1    2    0    0  0.10222313388E+03 -0.17456926044E+03  0.21683056682E+03  0.32184730960E+03  0.12508477206E+03 0.  0.
          5    1    3    3  502    0  0.10058157532E+03 -0.11285582633E+03  0.21113573616E+03  0.25970918797E+03  0.41800000000E+01 0.  1.
         -5    1    3    3    0  502  0.16415585653E+01 -0.61713434110E+02  0.56948306520E+01  0.62138121635E+02  0.41800000000E+01 0.  1.
        -11    1    1    2    0    0 -0.35356601414E+02  0.10706468281E+02  0.66840670247E+01  0.37541902970E+02  0.00000000000E+00 0.  1.
         11    1    1    2    0    0 -0.66866532468E+02  0.16386279216E+03  0.18046449395E+03  0.25276388467E+03  0.00000000000E+00 0. -1.
</event>
<event>
 7    1  0.2840156E-009  0.9444708E+02  0.7561462E-02  0.1292426E+00
          3   -1    0    0  501    0  0.00000000000E+00  0.00000000000E+00  0.26032638686E+03  0.26032638686E+03  0.00000000000E+00 0. -1.
         -3   -1    0    0    0  501 -0.00000000000E+00 -0.00000000000E+00 -0.50800343688E+02  0.50800343688E+02  0.00000000000E+00 0.  1.
         25    2    1    2    0    0  0.15126662185E+01  0.29045998032E+02  0.70702988782E+02  0.14660130816E+03  0.12508825993E+03 0.  0.
          5    1    3    3  502    0 -0.24129112914E+02 -0.36050733927E+02  0.62270409768E+02  0.76006222373E+02  0.41800000000E+01 0. -1.
         -5    1    3    3    0  502  0.25641779133E+02  0.65096731960E+02  0.84325790134E+01  0.70595085790E+02  0.41800000000E+01 0. -1.
        -11    1    1    2    0    0  0.27408557110E+02 -0.36223670784E+02  0.37475759519E+02  0.58888164171E+02  0.00000000000E+00 0.  1.
         11    1    1    2    0    0 -0.28921223328E+02  0.71776727518E+01  0.10134729487E+03  0.10563725821E+03  0.00000000000E+00 0. -1.
</event>
<event>
 7    1  0.2840156E-009  0.9556633E+02  0.7561462E-02  0.1289906E+00
          1   -1    0    0  501    0  0.00000000000E+00  0.00000000000E+00  0.57315715547E+02  0.57315715547E+02  0.00000000000E+00 0.  1.
         -1   -1    0    0    0  501 -0.00000000000E+00 -0.00000000000E+00 -0.48550967124E+03  0.48550967124E+03  0.00000000000E+00 0. -1.
         25    2    1    2    0    0  0.56818928708E+02 -0.39661974268E+02 -0.39811654101E+03  0.42301962018E+03  0.12508939192E+03 0.  0.
          5    1    3    3  502    0  0.34403237180E+02  0.26739064763E+02 -0.29525673385E+03  0.29848378783E+03  0.41800000000E+01 0. -1.
         -5    1    3    3    0  502  0.22415691528E+02 -0.66401039030E+02 -0.10285980716E+03  0.12453583235E+03  0.41800000000E+01 0. -1.
        -11    1    1    2    0    0 -0.35359214054E+02  0.40706749453E+01 -0.59187128717E+02  0.69064901497E+02  0.00000000000E+00 0. -1.
         11    1    1    2    0    0 -0.21459714654E+02  0.35591299322E+02  0.29109714036E+02  0.50740865107E+02  0.00000000000E+00 0.  1.
</event>
<event>
 7    1  0.2840156E-009  0.1997716E+03  0.7561462E-02  0.1149932E+00
          1   -1    0    0  501    0  0.00000000000E+00  0.00000000000E+00  0.77685798120E+03  0.77685798120E+03  0.00000000000E+00 0.  1.
         -1   -1    0    0    0  501 -0.00000000000E+00 -0.00000000000E+00 -0.63411694773E+02  0.63411694773E+02  0.00000000000E+00 0. -1.
         25    2    1    2    0    0  0.14676565754E+03  0.99281472672E+02  0.52045690042E+03  0.56384285602E+03  0.12508561886E+03 0.  0.
          5    1    3    3  502    0 -0.16320380545E+02  0.39253491985E+02  0.11584376166E+03  0.12346838045E+03  0.41800000000E+01 0. -1.
         -5    1    3    3    0  502  0.16308603808E+03  0.60027980686E+02  0.40461313876E+03  0.44037447558E+03  0.41800000000E+01 0. -1.
        -11    1    1    2    0    0 -0.85743448063E+02 -0.84118983672E+02  0.17268463309E+03  0.21035190706E+03  0.00000000000E+00 0.  1.
         11    1    1    2    0    0 -0.61022209475E+02 -0.15162489000E+02  0.20304752914E+02  0.66074912886E+02  0.00000000000E+00 0. -1.
</event>
<event>
 7    1  0.2840156E-009  0.8335711E+02  0.7561462E-02  0.1319786E+00
          1   -1    0    0  501    0  0.00000000000E+00  0.00000000000E+00  0.53897209521E+02  0.53897209521E+02  0.00000000000E+00 0. -1.
         -1   -1    0    0    0  501 -0.00000000000E+00 -0.00000000000E+00 -0.25191918473E+03  0.25191918473E+03  0.00000000000E+00 0.  1.
         25    2    1    2    0    0  0.33194658783E+02  0.86006054126E+01 -0.15080962040E+03  0.19891495151E+03  0.12509100906E+03 0.  0.
          5    1    3    3  502    0  0.18992703308E+02 -0.27511416822E+02 -0.15595125096E+03  0.15954894519E+03  0.41800000000E+01 0. -1.
         -5    1    3    3    0  502  0.14201955475E+02  0.36112022235E+02  0.51416305639E+01  0.39366006326E+02  0.41800000000E+01 0. -1.
        -11    1    1    2    0    0 -0.18275720083E+02  0.39559294777E+02 -0.11351679565E+02  0.45031104547E+02  0.00000000000E+00 0. -1.
         11    1    1    2    0    0 -0.14918938700E+02 -0.48159900190E+02 -0.35860675245E+02  0.61870338186E+02  0.00000000000E+00 0.  1.
</event>
<event>
 7    1  0.2840156E-009  0.8676510E+02  0.7561462E-02  0.1310880E+00
         -4   -1    0    0    0  501 -0.00000000000E+00  0.00000000000E+00  0.38439697937E+02  0.38439697937E+02  0.00000000000E+00 0.  1.
          4   -1    0    0  501    0  0.00000000000E+00 -0.00000000000E+00 -0.41011790093E+03  0.41011790093E+03  0.00000000000E+00 0. -1.
         25    2    1    2    0    0  0.34953810017E+02  0.49799195634E+02 -0.17071019316E+03  0.22020393304E+03  0.12508426502E+03 0.  0.
          5    1    3    3  502    0  0.29951816086E+02  0.24266645851E+02  0.79750517812E+01  0.39586048535E+02  0.41800000000E+01 0.  1.
         -5    1    3    3    0  502  0.50019939309E+01  0.25532549783E+02 -0.17868524494E+03  0.18061788450E+03  0.41800000000E+01 0.  1.
        -11    1    1    2    0    0 -0.62259711720E+02 -0.51848136049E+02 -0.15237759434E+03  0.17257877092E+03  0.00000000000E+00 0. -1.
         11    1    1    2    0    0  0.27305901702E+02  0.20489404157E+01 -0.48590415487E+02  0.55774894906E+02  0.00000000000E+00 0.  1.
</event>
<event>
 7    1  0.2840156E-009  0.1087431E+03  0.7561462E-02  0.1262915E+00
          3   -1    0    0  501    0  0.00000000000E+00  0.00000000000E+00  0.88575574317E+02  0.88575574317E+02  0.00000000000E+00 0. -1.
         -3   -1    0    0    0  501 -0.00000000000E+00 -0.00000000000E+00 -0.21262851361E+03  0.21262851361E+03  0.00000000000E+00 0.  1.
         25    2    1    2    0    0 -0.15813957271E+02 -0.22132216378E+02 -0.15509772872E+03  0.20110346290E+03  0.12508949233E+03 0.  0.
          5    1    3    3  502    0 -0.61311266121E+02 -0.40083644237E+02 -0.12038327237E+03  0.14098005020E+03  0.41800000000E+01 0.  1.
         -5    1    3    3    0  502  0.45497308850E+02  0.17951427859E+02 -0.34714456349E+02  0.60123412698E+02  0.41800000000E+01 0.  1.
        -11    1    1    2    0    0 -0.37329398817E+02 -0.33059944931E+00  0.95704362799E+01  0.38538118306E+02  0.00000000000E+00 0. -1.
         11    1    1    2    0    0  0.53143356087E+02  0.22462815827E+02  0.21474353144E+02  0.61562506723E+02  0.00000000000E+00 0.  1.
</event>
<event>
 7    1  0.2840156E-009  0.1267198E+03  0.7561462E-02  0.1232406E+00
         -1   -1    0    0    0  501 -0.00000000000E+00  0.00000000000E+00  0.12533173987E+03  0.12533173987E+03  0.00000000000E+00 0.  1.
          1   -1    0    0  501    0  0.00000000000E+00 -0.00000000000E+00 -0.14079688470E+03  0.14079688470E+03  0.00000000000E+00 0. -1.
         25    2    1    2    0    0 -0.26129292897E+02  0.70869147387E+02 -0.23202005536E+01  0.14614276287E+03  0.12508855987E+03 0.  0.
          5    1    3    3  502    0 -0.68466535203E+02  0.14987440935E+02  0.19013375103E+02  0.72741120842E+02  0.41800000000E+01 0. -1.
         -5    1    3    3    0  502  0.42337242305E+02  0.55881706452E+02 -0.21333575657E+02  0.73401642027E+02  0.41800000000E+01 0. -1.
        -11    1    1    2    0    0  0.55873014314E+02 -0.33180264480E+02  0.11541048935E+02  0.65999390072E+02  0.00000000000E+00 0. -1.
         11    1    1    2    0    0 -0.29743721416E+02 -0.37688882908E+02 -0.24685993212E+02  0.53986471633E+02  0.00000000000E+00 0.  1.
</event>
<event>
 7    1  0.2840156E-009  0.8254645E+02  0.7561462E-02  0.1321976E+00
         -1   -1    0    0    0  501 -0.00000000000E+00  0.00000000000E+00  0.15270468952E+02  0.15270468952E+02  0.00000000000E+00 0.  1.
          1   -1    0    0  501    0  0.00000000000E+00 -0.00000000000E+00 -0.83079668553E+03  0.83079668553E+03  0.00000000000E+00 0. -1.
         25    2    1    2    0    0 -0.22914814106E+02 -0.18528195195E+02 -0.53398982193E+03  0.54923523981E+03  0.12508331625E+03 0.  0.
          5    1    3    3  502    0  0.23342963614E+02 -0.63551355323E+01 -0.46230083653E+03  0.46295228432E+03  0.41800000000E+01 0. -1.
         -5    1    3    3    0  502 -0.46257777721E+02 -0.12173059662E+02 -0.71688985402E+02  0.86282955496E+02  0.41800000000E+01 0. -1.
        -11    1    1    2    0    0  0.44935746112E+02 -0.19181378957E+02 -0.17501826568E+03  0.18171004347E+03  0.00000000000E+00 0. -1.
         11    1    1    2    0    0 -0.22020932006E+02  0.37709574152E+02 -0.10651812897E+03  0.11512187119E+03  0.00000000000E+00 0.  1.
</event>
<event>
 7    1  0.2840156E-009  0.1614236E+03  0.7561462E-02  0.1187099E+00
         -3   -1    0    0    0  501 -0.00000000000E+00  0.00000000000E+00  0.12888556031E+03  0.12888556031E+03  0.00000000000E+00 0.  1.
          3   -1    0    0  501    0  0.00000000000E+00 -0.00000000000E+00 -0.25716686092E+03  0.25716686092E+03  0.00000000000E+00 0. -1.
         25    2    1    2    0    0  0.14278031966E+02  0.13086203122E+03 -0.17422969880E+01  0.18160094234E+03  0.12508850167E+03 0.  0.
          5    1    3    3  502    0 -0.40757262536E+02  0.62620101959E+02  0.39508706378E+02  0.84621757831E+02  0.41800000000E+01 0.  1.
         -5    1    3    3    0  502  0.55035294502E+02  0.68241929259E+02 -0.41251003366E+02  0.96979184512E+02  0.41800000000E+01 0.  1.
        -11    1    1    2    0    0  0.34420315233E+02 -0.21635237855E+02 -0.26436406351E+02  0.48494589374E+02  0.00000000000E+00 0.  1.
         11    1    1    2    0    0 -0.48698347199E+02 -0.10922679336E+03 -0.10010259727E+03  0.15595688952E+03  0.00000000000E+00 0. -1.
</event>
<event>
 7    1  0.2840156E-009  0.1272565E+03  0.7561462E-02  0.1231584E+00
         -2   -1    0    0    0  501 -0.00000000000E+00  0.00000000000E+00  0.86684320213E+02  0.86684320213E+02  0.00000000000E+00 0.  1.
          2   -1    0    0  501    0  0.00000000000E+00 -0.00000000000E+00 -0.21738327359E+03  0.21738327359E+03  0.00000000000E+00 0. -1.
         25    2    1    2    0    0 -0.66736774705E+02 -0.24074445823E+02 -0.18422264572E+02  0.14498461599E+03  0.12509109881E+03 0.  0.
          5    1    3    3  502    0  0.22208989190E+02  0.30930054365E+02 -0.11927683734E+02  0.40120437474E+02  0.41800000000E+01 0.  1.
         -5    1    3    3    0  502 -0.88945763895E+02 -0.55004500188E+02 -0.64945808383E+01  0.10486417852E+03  0.41800000000E+01 0.  1.
        -11    1    1    2    0    0  0.39611698287E+02  0.56667722130E+02 -0.80360669202E+02  0.10601016238E+03  0.00000000000E+00 0. -1.
         11    1    1    2    0    0  0.27125076418E+02 -0.32593276307E+02 -0.31916019606E+02  0.53072815438E+02  0.00000000000E+00 0.  1.
</event>
<event>
 7    1  0.2840156E-009  0.2749810E+03  0.7561462E-02  0.1098462E+00
          2   -1    0    0  501    0  0.00000000000E+00  0.00000000000E+00  0.11886432609E+04  0.11886432609E+04  0.00000000000E+00 0. -1.
         -2   -1    0    0    0  501 -0.00000000000E+00 -0.00000000000E+00 -0.10291656835E+03  0.10291656835E+03  0.00000000000E+00 0.  1.
         25    2    1    2    0    0  0.17474474149E+03  0.21102927995E+03  0.20436140581E+03  0.36397891040E+03  0.12509189167E+03 0.  0.
          5    1    3    3  502    0  0.15584053576E+03  0.18238428172E+03  0.22046225830E+03  0.32583949812E+03  0.41800000000E+01 0. -1.
         -5    1    3    3    0  502  0.18904205732E+02  0.28644998235E+02 -0.16100852493E+02  0.38139412282E+02  0.41800000000E+01 0. -1.
        -11    1    1    2    0    0 -0.14850224921E+03 -0.16146090975E+03  0.56140674692E+03  0.60274379208E+03  0.00000000000E+00 0.  1.
         11    1    1    2    0    0 -0.26242492274E+02 -0.49568370199E+02  0.31995853979E+03  0.32483712674E+03  0.00000000000E+00 0. -1.
</event>
<event>
 7    1  0.2840156E-009  0.1502691E+03  0.7561462E-02  0.1200143E+00
          2   -1    0    0  501    0  0.00000000000E+00  0.00000000000E+00  0.10937917945E+04  0.10937917945E+04  0.00000000000E+00 0. -1.
         -2   -1    0    0    0  501 -0.00000000000E+00 -0.00000000000E+00 -0.24271242470E+02  0.24271242470E+02  0.00000000000E+00 0.  1.
         25    2    1    2    0    0  0.32219365990E+02 -0.11394546393E+03  0.67401010520E+03  0.69567106035E+03  0.12508775325E+03 0.  0.
          5    1    3    3  502    0 -0.16429529211E+02 -0.10385855304E+03  0.29126806285E+03  0.30969514898E+03  0.41800000000E+01 0. -1.
         -5    1    3    3    0  502  0.48648895202E+02 -0.10086910889E+02  0.38274204235E+03  0.38597591137E+03  0.41800000000E+01 0. -1.
        -11    1    1    2    0    0  0.19300327973E+02  0.83287302681E+02  0.19070210027E+03  0.20898939804E+03  0.00000000000E+00 0. -1.
         11    1    1    2    0    0 -0.51519693963E+02  0.30658161251E+02  0.20480834653E+03  0.21340257853E+03  0.00000000000E+00 0.  1.
</event>
<event>
 7    1  0.3191817E-009  0.1140330E+03  0.7561462E-02  0.1253279E+00
         -2   -1    0    0    0  501 -0.00000000000E+00  0.00000000000E+00  0.35758338672E+02  0.35758338672E+02  0.00000000000E+00 0. -1.
          2   -1    0    0  501    0  0.00000000000E+00 -0.00000000000E+00 -0.73758227471E+03  0.73758227471E+03  0.00000000000E+00 0.  1.
         25    2    1    2    0    0 -0.72058821134E+02  0.53888115022E+02 -0.56579739696E+03  0.58640472027E+03  0.12508956353E+03 0.  0.
          5    1    3    3  502    0 -0.13621175823E+02  0.54555788966E+02 -0.84694518504E+02  0.10174725748E+03  0.41800000000E+01 0.  1.
         -5    1    3    3    0  502 -0.58437645311E+02 -0.66767394395E+00 -0.48110287846E+03  0.48465746279E+03  0.41800000000E+01 0.  1.
        -11    1    1    2    0    0  0.63815270996E+02 -0.55529465387E+01 -0.11879205582E+03  0.13496213007E+03  0.00000000000E+00 0.  1.
         11    1    1    2    0    0  0.82435501382E+01 -0.48335168483E+02 -0.17234483256E+02  0.51973763038E+02  0.00000000000E+00 0. -1.
</event>
<event>
 7    1  0.2840156E-009  0.1212432E+03  0.7561462E-02  0.1241060E+00
         -2   -1    0    0    0  501 -0.00000000000E+00  0.00000000000E+00  0.69883591164E+02  0.69883591164E+02  0.00000000000E+00 0.  1.
          2   -1    0    0  501    0  0.00000000000E+00 -0.00000000000E+00 -0.36667194286E+03  0.36667194286E+03  0.00000000000E+00 0. -1.
         25    2    1    2    0    0 -0.60952196587E+02 -0.75836828850E+02 -0.22215212517E+03  0.27288567681E+03  0.12509448835E+03 0.  0.
          5    1    3    3  502    0 -0.90100959332E+02 -0.45547124173E+02 -0.94215044552E+02  0.13815451644E+03  0.41800000000E+01 0.  1.
         -5    1    3    3    0  502  0.29148762745E+02 -0.30289704677E+02 -0.12793708061E+03  0.13473116037E+03  0.41800000000E+01 0.  1.
        -11    1    1    2    0    0  0.26737119352E+02  0.18802461284E+02 -0.89704614300E+02  0.95474205565E+02  0.00000000000E+00 0. -1.
         11    1    1    2    0    0  0.34215077235E+02  0.57034367566E+02  0.15068387767E+02  0.68195651649E+02  0.00000000000E+00 0.  1.
</event>
<event>
 7    1  0.3920041E-009  0.1602321E+03  0.7561462E-02  0.1188435E+00
         -2   -1    0    0    0  501 -0.00000000000E+00  0.00000000000E+00  0.21867043709E+02  0.21867043709E+02  0.00000000000E+00 0.  1.
          2   -1    0    0  501    0  0.00000000000E+00 -0.00000000000E+00 -0.14419223882E+04  0.14419223882E+04  0.00000000000E+00 0. -1.
         25    2    1    2    0    0  0.12940228431E+02  0.12041450379E+03 -0.10373268604E+04  0.10518368852E+04  0.12508683139E+03 0.  0.
          5    1    3    3  502    0 -0.52989094862E+02  0.26938499649E+02 -0.36777020546E+03  0.37256666969E+03  0.41800000000E+01 0.  1.
         -5    1    3    3    0  502  0.65929323293E+02  0.93476004141E+02 -0.66955665496E+03  0.67927021546E+03  0.41800000000E+01 0.  1.
        -11    1    1    2    0    0 -0.47350881949E+02 -0.83157243556E+02 -0.30022913727E+03  0.31511072347E+03  0.00000000000E+00 0. -1.
         11    1    1    2    0    0  0.34410653518E+02 -0.37257260234E+02 -0.82499346809E+02  0.96841823298E+02  0.00000000000E+00 0.  1.
</event>
<event>
 7    1  0.2840156E-009  0.3228769E+03  0.7561462E-02  0.1074333E+00
          2   -1    0    0  501    0  0.00000000000E+00  0.00000000000E+00  0.19253427431E+04  0.19253427431E+04  0.00000000000E+00 0. -1.
         -2   -1    0    0    0  501 -0.00000000000E+00 -0.00000000000E+00 -0.60053442638E+02  0.60053442638E+02  0.00000000000E+00 0.  1.
         25    2    1    2    0    0 -0.19198734485E+03 -0.24337316980E+03  0.69084453836E+03  0.76746570074E+03  0.12509110786E+03 0.  0.
          5    1    3    3  502    0 -0.17451129633E+03 -0.25768738221E+03  0.63985994155E+03  0.71154423383E+03  0.41800000000E+01 0.  1.
         -5    1    3    3    0  502 -0.17476048521E+02  0.14314212415E+02  0.50984596806E+02  0.55921466902E+02  0.41800000000E+01 0.  1.
        -11    1    1    2    0    0  0.13206812618E+03  0.18933992948E+03  0.99089024523E+03  0.10174257108E+04  0.00000000000E+00 0. -1.
         11    1    1    2    0    0  0.59919218667E+02  0.54033240316E+02  0.18355451686E+03  0.20050477422E+03  0.00000000000E+00 0.  1.
</event>
<event>
 7    1  0.2840156E-009  0.1004979E+03  0.7561462E-02  0.1279252E+00
         -1   -1    0    0    0  501 -0.00000000000E+00  0.00000000000E+00  0.36391116716E+02  0.36391116716E+02  0.00000000000E+00 0.  1.
          1   -1    0    0  501    0  0.00000000000E+00 -0.00000000000E+00 -0.43817174547E+03  0.43817174547E+03  0.00000000000E+00 0. -1.
         25    2    1    2    0    0  0.61987136730E+02 -0.18662203633E+02 -0.20606953902E+03  0.24960666135E+03  0.12509255578E+03 0.  0.
          5    1    3    3  502    0 -0.59949460684E+01 -0.52823540081E+02 -0.13603292693E+03  0.14611192756E+03  0.41800000000E+01 0. -1.
         -5    1    3    3    0  502  0.67982082799E+02  0.34161336447E+02 -0.70036612088E+02  0.10349473379E+03  0.41800000000E+01 0. -1.
        -11    1    1    2    0    0 -0.19702801698E+02  0.21412571051E+02 -0.49136225880E+01  0.29510036948E+02  0.00000000000E+00 0.  1.
         11    1    1    2    0    0 -0.42284335033E+02 -0.27503674177E+01 -0.19079746715E+03  0.19544616389E+03  0.00000000000E+00 0. -1.
</event>
<event>
 7    1  0.2840156E-009  0.1980613E+03  0.7561462E-02  0.1151385E+00
          2   -1    0    0  501    0  0.00000000000E+00  0.00000000000E+00  0.10089317505E+04  0.10089317505E+04  0.00000000000E+00 0. -1.
         -2   -1    0    0    0  501 -0.00000000000E+00 -0.00000000000E+00 -0.43422388542E+02  0.43422388542E+02  0.00000000000E+00 0.  1.
         25    2    1    2    0    0  0.17261537154E+03  0.38973687327E+02  0.45239322507E+03  0.50161958985E+03  0.12509023958E+03 0.  0.
          5    1    3    3  502    0  0.65769433031E+01  0.29028087075E+02  0.17951783893E+03  0.18201651825E+03  0.41800000000E+01 0.  1.
         -5    1    3    3    0  502  0.16603842823E+03  0.99456002522E+01  0.27287538614E+03  0.31960307160E+03  0.41800000000E+01 0.  1.
        -11    1    1    2    0    0 -0.64772227347E+02  0.30293318044E+02  0.16790658922E+03  0.18249862810E+03  0.00000000000E+00 0.  1.
         11    1    1    2    0    0 -0.10784314419E+03 -0.69267005371E+02  0.34520954764E+03  0.36823592106E+03  0.00000000000E+00 0. -1.
</event>
<event>
 7    1  0.2840156E-009  0.1005612E+03  0.7561462E-02  0.1279120E+00
          4   -1    0    0  501    0  0.00000000000E+00  0.00000000000E+00  0.70469305895E+03  0.70469305895E+03  0.00000000000E+00 0. -1.
         -4   -1    0    0    0  501 -0.00000000000E+00 -0.00000000000E+00 -0.19888784895E+02  0.19888784895E+02  0.00000000000E+00 0.  1.
         25    2    1    2    0    0  0.55975581083E+01  0.45527579708E+02  0.40247214245E+03  0.42395160526E+03  0.12508814886E+03 0.  0.
          5    1    3    3  502    0 -0.65458621008E+00 -0.40848941644E+02  0.19157506403E+03  0.19592738981E+03  0.41800000000E+01 0.  1.
         -5    1    3    3    0  502  0.62521443184E+01  0.86376521352E+02  0.21089707841E+03  0.22802421545E+03  0.41800000000E+01 0.  1.
        -11    1    1    2    0    0 -0.26484446159E+02 -0.38897206297E+01  0.18076975622E+02  0.32300663500E+02  0.00000000000E+00 0.  1.
         11    1    1    2    0    0  0.20886888051E+02 -0.41637859078E+02  0.26425515599E+03  0.26832957509E+03  0.00000000000E+00 0. -1.
</event>
<event>
 7    1  0.2840156E-009  0.1100582E+03  0.7561462E-02  0.1260462E+00
         -2   -1    0    0    0  501 -0.00000000000E+00  0.00000000000E+00  0.12664413227E+03  0.12664413227E+03  0.00000000000E+00 0.  1.
          2   -1    0    0  501    0  0.00000000000E+00 -0.00000000000E+00 -0.10199694753E+03  0.10199694753E+03  0.00000000000E+00 0. -1.
         25    2    1    2    0    0  0.23484888492E+02 -0.24154204396E+02  0.20013840928E+02  0.13108296990E+03  0.12508887077E+03 0.  0.
          5    1    3    3  502    0  0.35742631624E+02  0.42426333808E+02  0.28872146828E+02  0.62678567136E+02  0.41800000000E+01 0.  1.
         -5    1    3    3    0  502 -0.12257743132E+02 -0.66580538203E+02 -0.88583059002E+01  0.68404402764E+02  0.41800000000E+01 0.  1.
        -11    1    1    2    0    0 -0.44896822833E+01 -0.34608547723E+02  0.76526108007E+01  0.35727738168E+02  0.00000000000E+00 0.  1.
         11    1    1    2    0    0 -0.18995206209E+02  0.58762752119E+02 -0.30192669958E+01  0.61830371734E+02  0.00000000000E+00 0. -1.
</event>
<event>
 7    1  0.2840156E-009  0.1561574E+03  0.7561462E-02  0.1193105E+00
          2   -1    0    0  501    0  0.00000000000E+00  0.00000000000E+00  0.36647750353E+02  0.36647750353E+02  0.00000000000E+00 0. -1.
         -2   -1    0    0    0  501 -0.00000000000E+00 -0.00000000000E+00 -0.78015150789E+03  0.78015150789E+03  0.00000000000E+00 0.  1.
         25    2    1    2    0    0 -0.91040521340E+02  0.83860844785E+02 -0.30277061995E+03  0.35019789980E+03  0.12508997925E+03 0.  0.
          5    1    3    3  502    0 -0.75312319044E+02 -0.13198812584E+02 -0.11430054222E+03  0.13757994187E+03  0.41800000000E+01 0.  1.
         -5    1    3    3    0  502 -0.15728202296E+02  0.97059657369E+02 -0.18847007773E+03  0.21261795793E+03  0.41800000000E+01 0.  1.
        -11    1    1    2    0    0  0.82591896510E+02 -0.38392004374E+02 -0.37706745590E+03  0.38791137347E+03  0.00000000000E+00 0.  1.
         11    1    1    2    0    0  0.84486248299E+01 -0.45468840411E+02 -0.63665681691E+02  0.78689984973E+02  0.00000000000E+00 0. -1.
</event>
<event>
 7    1  0.2840156E-009  0.2047636E+03  0.7561462E-02  0.1145781E+00
         -2   -1    0    0    0  501 -0.00000000000E+00  0.00000000000E+00  0.18374125936E+03  0.18374125936E+03  0.00000000000E+00 0.  1.
          2   -1    0    0  501    0  0.00000000000E+00 -0.00000000000E+00 -0.28794823099E+03  0.28794823099E+03  0.00000000000E+00 0. -1.
         25    2    1    2    0    0  0.40140689310E+01  0.18102865339E+03 -0.14677518253E+03  0.26452660841E+03  0.12507552220E+03 0.  0.
          5    1    3    3  502    0 -0.31271511960E+02  0.17828686281E+03 -0.10381341290E+03  0.20870747473E+03  0.41800000000E+01 0.  1.
         -5    1    3    3    0  502  0.35285580891E+02  0.27417905739E+01 -0.42961769633E+02  0.55819133676E+02  0.41800000000E+01 0.  1.
        -11    1    1    2    0    0  0.19132787557E+02 -0.16126506664E+03  0.10175672006E+02  0.16271456474E+03  0.00000000000E+00 0. -1.
         11    1    1    2    0    0 -0.23146856488E+02 -0.19763586749E+02  0.32392538893E+02  0.44448317205E+02  0.00000000000E+00 0.  1.
</event>
<event>
 7    1  0.2840156E-009  0.9893752E+02  0.7561462E-02  0.1282546E+00
         -1   -1    0    0    0  501 -0.00000000000E+00  0.00000000000E+00  0.26013912264E+03  0.26013912264E+03  0.00000000000E+00 0.  1.
          1   -1    0    0  501    0  0.00000000000E+00 -0.00000000000E+00 -0.86867238530E+02  0.86867238530E+02  0.00000000000E+00 0. -1.
         25    2    1    2    0    0 -0.12899287313E+02  0.95562500017E+02  0.71097452652E+02  0.17321246271E+03  0.12509646854E+03 0.  0.
          5    1    3    3  502    0  0.77497626766E+01  0.52109257153E+02  0.10269996625E+03  0.11549973580E+03  0.41800000000E+01 0.  1.
         -5    1    3    3    0  502 -0.20649049989E+02  0.43453242864E+02 -0.31602513600E+02  0.57712726904E+02  0.41800000000E+01 0.  1.
        -11    1    1    2    0    0  0.88896756359E+01 -0.84551845557E+02  0.12322132546E+03  0.14970482948E+03  0.00000000000E+00 0.  1.
         11    1    1    2    0    0  0.40096116769E+01 -0.11010654460E+02 -0.21046894003E+02  0.24089068986E+02  0.00000000000E+00 0. -1.
</event>
<event>
 7    1  0.2840156E-009  0.1179251E+03  0.7561462E-02  0.1246560E+00
          1   -1    0    0  501    0  0.00000000000E+00  0.00000000000E+00  0.23339442279E+03  0.23339442279E+03  0.00000000000E+00 0. -1.
         -1   -1    0    0    0  501 -0.00000000000E+00 -0.00000000000E+00 -0.10735990693E+03  0.10735990693E+03  0.00000000000E+00 0.  1.
         25    2    1    2    0    0  0.50638664731E+02  0.56782099288E+02 -0.25359085162E+02  0.14858748084E+03  0.12508667034E+03 0.  0.
          5    1    3    3  502    0  0.24195848812E+02 -0.35495004503E+02 -0.29725584943E+02  0.52406271043E+02  0.41800000000E+01 0.  1.
         -5    1    3    3    0  502  0.26442815919E+02  0.92277103791E+02  0.43664997816E+01  0.96181209798E+02  0.41800000000E+01 0.  1.
        -11    1    1    2    0    0 -0.65123494004E+01  0.12714920162E+02 -0.52409756427E+01  0.15216691991E+02  0.00000000000E+00 0.  1.
         11    1    1    2    0    0 -0.44126315331E+02 -0.69497019451E+02  0.15663457666E+03  0.17695015689E+03  0.00000000000E+00 0. -1.
</event>
<event>
 7    1  0.2840156E-009  0.9466244E+02  0.7561462E-02  0.1291938E+00
         -1   -1    0    0    0  501 -0.00000000000E+00  0.00000000000E+00  0.22980072771E+02  0.22980072771E+02  0.00000000000E+00 0.  1.
          1   -1    0    0  501    0  0.00000000000E+00 -0.00000000000E+00 -0.77347650654E+03  0.77347650654E+03  0.00000000000E+00 0. -1.
         25    2    1    2    0    0  0.41369768460E+01 -0.70109101596E+01 -0.62968783617E+03  0.64204340711E+03  0.12508676249E+03 0.  0.
          5    1    3    3  502    0  0.12112033975E+02  0.48557813362E+02 -0.13282571542E+03  0.14200248478E+03  0.41800000000E+01 0.  1.
         -5    1    3    3    0  502 -0.79750571288E+01 -0.55568723522E+02 -0.49686212075E+03  0.50004092233E+03  0.41800000000E+01 0.  1.
        -11    1    1    2    0    0 -0.40225510410E+02 -0.12059185543E+02 -0.21788323031E+02  0.47310111649E+02  0.00000000000E+00 0.  1.
         11    1    1    2    0    0  0.36088533564E+02  0.19070095702E+02 -0.99020274571E+02  0.10710306056E+03  0.00000000000E+00 0. -1.
</event>
<event>
 7    1  0.2840156E-009  0.1312577E+03  0.7561462E-02  0.1225601E+00
         -1   -1    0    0    0  501 -0.00000000000E+00  0.00000000000E+00  0.10220813571E+03  0.10220813571E+03  0.00000000000E+00 0.  1.
          1   -1    0    0  501    0  0.00000000000E+00 -0.00000000000E+00 -0.17901524423E+03  0.17901524423E+03  0.00000000000E+00 0. -1.
         25    2    1    2    0    0  0.65043180399E+02  0.49681068576E+02 -0.30344052820E+02  0.15253545671E+03  0.12508988816E+03 0.  0.
          5    1    3    3  502    0  0.46763149415E+02 -0.35387730644E+02 -0.28664994819E+02  0.65408240699E+02  0.41800000000E+01 0. -1.
         -5    1    3    3    0  502  0.18280030984E+02  0.85068799220E+02 -0.16790580000E+01  0.87127216008E+02  0.41800000000E+01 0. -1.
        -11    1    1    2    0    0 -0.20638126381E+02  0.23335805646E+02  0.53632979231E+00  0.31157338386E+02  0.00000000000E+00 0.  1.
         11    1    1    2    0    0 -0.44405054018E+02 -0.73016874222E+02 -0.46999385489E+02  0.97530584843E+02  0.00000000000E+00 0. -1.
</event>
<event>
 7    1  0.2840156E-009  0.1099994E+03  0.7561462E-02  0.1260571E+00
         -2   -1    0    0    0  501 -0.00000000000E+00  0.00000000000E+00  0.75978749375E+02  0.75978749375E+02  0.00000000000E+00 0.  1.
          2   -1    0    0  501    0  0.00000000000E+00 -0.00000000000E+00 -0.29531748508E+03  0.29531748508E+03  0.00000000000E+00 0. -1.
         25    2    1    2    0    0 -0.10721571428E+02  0.95212609160E+02 -0.16265376122E+03  0.22646003182E+03  0.12508999535E+03 0.  0.
          5    1    3    3  502    0 -0.39398996916E+02  0.67224585143E+02 -0.16855529769E+03  0.18574118172E+03  0.41800000000E+01 0.  1.
         -5    1    3    3    0  502  0.28677425489E+02  0.27988024017E+02  0.59015364719E+01  0.40718850104E+02  0.41800000000E+01 0.  1.
        -11    1    1    2    0    0 -0.11017633839E+02 -0.15250443471E+02  0.23108706974E+02  0.29798936550E+02  0.00000000000E+00 0.  1.
         11    1    1    2    0    0  0.21739205266E+02 -0.79962165689E+02 -0.79793681460E+02  0.11503726608E+03  0.00000000000E+00 0. -1.
</event>
<event>
 7    1  0.2840156E-009  0.1198859E+03  0.7561462E-02  0.1243285E+00
         -1   -1    0    0    0  501 -0.00000000000E+00  0.00000000000E+00  0.56190578551E+03  0.56190578551E+03  0.00000000000E+00 0.  1.
          1   -1    0    0  501    0  0.00000000000E+00 -0.00000000000E+00 -0.34805545184E+02  0.34805545184E+02  0.00000000000E+00 0. -1.
         25    2    1    2    0    0  0.22373396873E+02  0.84883533017E+02  0.29439843455E+03  0.33169958986E+03  0.12509355132E+03 0.  0.
          5    1    3    3  502    0 -0.36042867932E+01  0.95894862513E+02  0.28639723857E+03  0.30207559683E+03  0.41800000000E+01 0. -1.
         -5    1    3    3    0  502  0.25977683666E+02 -0.11011329496E+02  0.80011959807E+01  0.29623993030E+02  0.41800000000E+01 0. -1.
        -11    1    1    2    0    0  0.27459059096E+02 -0.37088822289E+02  0.42773741274E+02  0.62921964430E+02  0.00000000000E+00 0. -1.
         11    1    1    2    0    0 -0.49832455969E+02 -0.47794710728E+02  0.18992806450E+03  0.20208977640E+03  0.00000000000E+00 0.  1.
</event>
<event>
 7    1  0.2840156E-009  0.1136896E+03  0.7561462E-02  0.1253886E+00
         -4   -1    0    0    0  501 -0.00000000000E+00  0.00000000000E+00  0.15283919294E+03  0.15283919294E+03  0.00000000000E+00 0.  1.
          4   -1    0    0  501    0  0.00000000000E+00 -0.00000000000E+00 -0.11258844235E+03  0.11258844235E+03  0.00000000000E+00 0. -1.
         25    2    1    2    0    0 -0.51016247356E+02 -0.52299005396E+02  0.26067022050E+02  0.14718044822E+03  0.12507898001E+03 0.  0.
          5    1    3    3  502    0 -0.24516138759E+02  0.39783764217E+02  0.20225736299E+02  0.51091503831E+02  0.41800000000E+01 0.  1.
         -5    1    3    3    0  502 -0.26500108597E+02 -0.92082769613E+02  0.58412857519E+01  0.96088944392E+02  0.41800000000E+01 0.  1.
        -11    1    1    2    0    0  0.10580079031E+02  0.41315895117E+02 -0.33890895917E+02  0.54475077675E+02  0.00000000000E+00 0.  1.
         11    1    1    2    0    0  0.40436168325E+02  0.10983110279E+02  0.48074624459E+02  0.63772109398E+02  0.00000000000E+00 0. -1.
</event>
<event>
 7    1  0.2840156E-009  0.1192161E+03  0.7561462E-02  0.1244396E+00
         -2   -1    0    0    0  501 -0.00000000000E+00  0.00000000000E+00  0.15503767109E+02  0.15503767109E+02  0.00000000000E+00 0.  1.
          2   -1    0    0  501    0  0.00000000000E+00 -0.00000000000E+00 -0.96186219797E+03  0.96186219797E+03  0.00000000000E+00 0. -1.
         25    2    1    2    0    0 -0.47516112109E+02 -0.12817292495E+02 -0.58805335547E+03  0.60321916719E+03  0.12507817912E+03 0.  0.
          5    1    3    3  502    0  0.35035762986E+02  0.24419404141E+02 -0.22178006530E+03  0.22589307592E+03  0.41800000000E+01 0. -1.
         -5    1    3    3    0  502 -0.82551875095E+02 -0.37236696636E+02 -0.36627329017E+03  0.37732609127E+03  0.41800000000E+01 0. -1.
        -11    1    1    2    0    0  0.73325620505E+02  0.23400454738E+02 -0.22052335185E+03  0.23356963975E+03  0.00000000000E+00 0. -1.
         11    1    1    2    0    0 -0.25809508396E+02 -0.10583162243E+02 -0.13778172354E+03  0.14057715813E+03  0.00000000000E+00 0.  1.
</event>
<event>
 7    1  0.2840156E-009  0.9670075E+02  0.7561462E-02  0.1287391E+00
          2   -1    0    0  501    0  0.00000000000E+00  0.00000000000E+00  0.34858970131E+03  0.34858970131E+03  0.00000000000E+00 0. -1.
         -2   -1    0    0    0  501 -0.00000000000E+00 -0.00000000000E+00 -0.36885932496E+02  0.36885932496E+02  0.00000000000E+00 0.  1.
         25    2    1    2    0    0 -0.22585037359E+02 -0.21080551679E+01  0.14389651225E+03  0.19201322941E+03  0.12509335002E+03 0.  0.
          5    1    3    3  502    0 -0.74350444439E+02 -0.74330025912E+01  0.88285949879E+02  0.11573728639E+03  0.41800000000E+01 0.  1.
         -5    1    3    3    0  502  0.51765407080E+02  0.53249474233E+01  0.55610562369E+02  0.76275943011E+02  0.41800000000E+01 0.  1.
        -11    1    1    2    0    0 -0.10636928606E+02  0.24217773595E+02  0.14521529725E+03  0.14760463192E+03  0.00000000000E+00 0. -1.
         11    1    1    2    0    0  0.33221965965E+02 -0.22109718427E+02  0.22591959316E+02  0.45857772484E+02  0.00000000000E+00 0.  1.
</event>
<event>
 7    1  0.2840156E-009  0.1174427E+03  0.7561462E-02  0.1247376E+00
          3   -1    0    0  501    0  0.00000000000E+00  0.00000000000E+00  0.27990397734E+02  0.27990397734E+02  0.00000000000E+00 0. -1.
         -3   -1    0    0    0  501 -0.00000000000E+00 -0.00000000000E+00 -0.54355685817E+03  0.54355685817E+03  0.00000000000E+00 0.  1.
         25    2    1    2    0    0  0.31206621477E+02 -0.52260728371E+02 -0.28249684832E+03  0.31489163028E+03  0.12508889862E+03 0.  0.
          5    1    3    3  502    0 -0.23612807756E+02 -0.75644422019E+02 -0.16331109985E+03  0.18156990666E+03  0.41800000000E+01 0. -1.
         -5    1    3    3    0  502  0.54819429233E+02  0.23383693648E+02 -0.11918574847E+03  0.13332172362E+03  0.41800000000E+01 0. -1.
        -11    1    1    2    0    0 -0.60996123966E+01  0.66596206619E+02 -0.98776179916E+02  0.11928534582E+03  0.00000000000E+00 0. -1.
         11    1    1    2    0    0 -0.25107009080E+02 -0.14335478248E+02 -0.13429343220E+03  0.13737027981E+03  0.00000000000E+00 0.  1.
</event>
<event>
 7    1  0.2840156E-009  0.8868162E+02  0.7561462E-02  0.1306076E+00
          1   -1    0    0  501    0  0.00000000000E+00  0.00000000000E+00  0.44590922653E+03  0.44590922653E+03  0.00000000000E+00 0. -1.
         -1   -1    0    0    0  501 -0.00000000000E+00 -0.00000000000E+00 -0.29113993251E+02  0.29113993251E+02  0.00000000000E+00 0.  1.
         25    2    1    2    0    0  0.29478305232E+02 -0.16004669506E+02  0.19723420308E+03  0.23595552707E+03  0.12509420436E+03 0.  0.
          5    1    3    3  502    0  0.21756548965E+02  0.41391329082E+02  0.16055198178E+03  0.16727522470E+03  0.41800000000E+01 0. -1.
         -5    1    3    3    0  502  0.77217562671E+01 -0.57395998588E+02  0.36682221308E+02  0.68680302372E+02  0.41800000000E+01 0. -1.
        -11    1    1    2    0    0 -0.27742050157E+02  0.39788403307E+02  0.20600200893E+03  0.21163545560E+03  0.00000000000E+00 0.  1.
         11    1    1    2    0    0 -0.17362550756E+01 -0.23783733801E+02  0.13559021270E+02  0.27432237113E+02  0.00000000000E+00 0. -1.
</event>
<event>
 7    1  0.2840156E-009  0.1078525E+03  0.7561462E-02  0.1264599E+00
         -2   -1    0    0    0  501 -0.00000000000E+00  0.00000000000E+00  0.20424267517E+02  0.20424267517E+02  0.00000000000E+00 0.  1.
          2   -1    0    0  501    0  0.00000000000E+00 -0.00000000000E+00 -0.62702231115E+03  0.62702231115E+03  0.00000000000E+00 0. -1.
         25    2    1    2    0    0 -0.14321379892E+02  0.24085798040E+02 -0.30262676108E+03  0.32865732103E+03  0.12508976999E+03 0.  0.
          5    1    3    3  502    0 -0.58861670633E+02 -0.18605980519E+02 -0.10829690942E+03  0.12472598675E+03  0.41800000000E+01 0. -1.
         -5    1    3    3    0  502  0.44540290741E+02  0.42691778559E+02 -0.19432985166E+03  0.20393133428E+03  0.41800000000E+01 0. -1.
        -11    1    1    2    0    0  0.51031388970E+02 -0.70241632875E+01 -0.12310367381E+03  0.13344682850E+03  0.00000000000E+00 0.  1.
         11    1    1    2    0    0 -0.36710009078E+02 -0.17061634753E+02 -0.18086760875E+03  0.18534242915E+03  0.00000000000E+00 0. -1.
</event>
<event>
 7    1  0.2840156E-009  0.1108365E+03  0.7561462E-02  0.1259029E+00
          2   -1    0    0  501    0  0.00000000000E+00  0.00000000000E+00  0.80086060819E+03  0.80086060819E+03  0.00000000000E+00 0. -1.
         -2   -1    0    0    0  501 -0.00000000000E+00 -0.00000000000E+00 -0.16612991664E+02  0.16612991664E+02  0.00000000000E+00 0.  1.
         25    2    1    2    0    0 -0.27178429859E+02 -0.64545572611E+01  0.34935792579E+03  0.37212666102E+03  0.12508782184E+03 0.  0.
          5    1    3    3  502    0  0.38613632329E+02  0.32938740732E+02  0.12436323192E+03  0.13438623105E+03  0.41800000000E+01 0.  1.
         -5    1    3    3    0  502 -0.65792062188E+02 -0.39393297994E+02  0.22499469387E+03  0.23774042997E+03  0.41800000000E+01 0.  1.
        -11    1    1    2    0    0 -0.28358403439E+02  0.22434121201E+02  0.12545360641E+03  0.13056069930E+03  0.00000000000E+00 0. -1.
         11    1    1    2    0    0  0.55536833299E+02 -0.15979563940E+02  0.30943608433E+03  0.31478623953E+03  0.00000000000E+00 0.  1.
</event>
<event>
 7    1  0.2840156E-009  0.1517464E+03  0.7561462E-02  0.1198343E+00
         -4   -1    0    0    0  501 -0.00000000000E+00  0.00000000000E+00  0.98827230407E+02  0.98827230407E+02  0.00000000000E+00 0.  1.
          4   -1    0    0  501    0  0.00000000000E+00 -0.00000000000E+00 -0.31502008456E+03  0.31502008456E+03  0.00000000000E+00 0. -1.
         25    2    1    2    0    0  0.19997304863E+02  0.12899379189E+03 -0.59299236590E+02  0.19027102324E+03  0.12508945710E+03 0.  0.
          5    1    3    3  502    0  0.60458788801E+02  0.56820506200E+02  0.81040380638E+01  0.83468454526E+02  0.41800000000E+01 0. -1.
         -5    1    3    3    0  502 -0.40461483938E+02  0.72173285692E+02 -0.67403274654E+02  0.10680256871E+03  0.41800000000E+01 0. -1.
        -11    1    1    2    0    0  0.94123958034E+01 -0.79080401400E+02 -0.31863425608E+02  0.85776342728E+02  0.00000000000E+00 0.  1.
         11    1    1    2    0    0 -0.29409700666E+02 -0.49913390492E+02 -0.12503019195E+03  0.13779994899E+03  0.00000000000E+00 0. -1.
</event>
<event>
 7    1  0.2840156E-009  0.1611186E+03  0.7561462E-02  0.1187440E+00
          2   -1    0    0  501    0  0.00000000000E+00  0.00000000000E+00  0.63774463841E+03  0.63774463841E+03  0.00000000000E+00 0. -1.
         -2   -1    0    0    0  501 -0.00000000000E+00 -0.00000000000E+00 -0.60884121372E+02  0.60884121372E+02  0.00000000000E+00 0.  1.
         25    2    1    2    0    0  0.52645115692E+02 -0.13299603811E+03  0.44247488123E+03  0.48155081508E+03  0.12509081750E+03 0.  0.
          5    1    3    3  502    0  0.65869715729E+02 -0.13432983958E+03  0.44300752767E+03  0.46760717191E+03  0.41800000000E+01 0.  1.
         -5    1    3    3    0  502 -0.13224600037E+02  0.13338014718E+01 -0.53264643891E+00  0.13943643165E+02  0.41800000000E+01 0.  1.
        -11    1    1    2    0    0 -0.41301104737E+02  0.21498210805E+02  0.79865207303E+02  0.92446772025E+02  0.00000000000E+00 0. -1.
         11    1    1    2    0    0 -0.11344010955E+02  0.11149782731E+03  0.54520428503E+02  0.12463117268E+03  0.00000000000E+00 0.  1.
</event>
<event>
 7    1  0.2840156E-009  0.1061715E+03  0.7561462E-02  0.1267829E+00
         -2   -1    0    0    0  501 -0.00000000000E+00  0.00000000000E+00  0.55928862056E+03  0.55928862056E+03  0.00000000000E+00 0.  1.
          2   -1    0    0  501    0  0.00000000000E+00 -0.00000000000E+00 -0.27820103424E+02  0.27820103424E+02  0.00000000000E+00 0. -1.
         25    2    1    2    0    0 -0.23569817993E+02  0.55349107799E+02  0.32228406947E+03  0.35090410228E+03  0.12509039736E+03 0.  0.
          5    1    3    3  502    0  0.33401253027E+02  0.39382448568E+02  0.25915174722E+03  0.26427962738E+03  0.41800000000E+01 0.  1.
         -5    1    3    3    0  502 -0.56971071019E+02  0.15966659231E+02  0.63132322248E+02  0.86624474905E+02  0.41800000000E+01 0.  1.
        -11    1    1    2    0    0 -0.10198361019E+01  0.20992385064E+02  0.14187483742E+02  0.25357543085E+02  0.00000000000E+00 0. -1.
         11    1    1    2    0    0  0.24589654095E+02 -0.76341492863E+02  0.19499696392E+03  0.21084707862E+03  0.00000000000E+00 0.  1.
</event>
<event>
 7    1  0.2840156E-009  0.1367897E+03  0.7561462E-02  0.1217715E+00
         -2   -1    0    0    0  501 -0.00000000000E+00  0.00000000000E+00  0.13137150470E+03  0.13137150470E+03  0.00000000000E+00 0.  1.
          2   -1    0    0  501    0  0.00000000000E+00 -0.00000000000E+00 -0.21092170322E+03  0.21092170322E+03  0.00000000000E+00 0. -1.
         25    2    1    2    0    0  0.38017591600E+02  0.11889256124E+03 -0.47902239775E+02  0.18308176307E+03  0.12507409406E+03 0.  0.
          5    1    3    3  502    0 -0.96857203064E+01  0.86074831131E+02 -0.78927271175E+02  0.11725901359E+03  0.41800000000E+01 0. -1.
         -5    1    3    3    0  502  0.47703311906E+02  0.32817730107E+02  0.31025031400E+02  0.65822749484E+02  0.41800000000E+01 0. -1.
        -11    1    1    2    0    0 -0.12537202866E+02 -0.76547870822E+01  0.27125159591E+02  0.30847228463E+02  0.00000000000E+00 0.  1.
         11    1    1    2    0    0 -0.25480388734E+02 -0.11123777416E+03 -0.58773118341E+02  0.12836421639E+03  0.00000000000E+00 0. -1.
</event>
<event>
 7    1  0.2840156E-009  0.1090863E+03  0.7561462E-02  0.1262271E+00
          2   -1    0    0  501    0  0.00000000000E+00  0.00000000000E+00  0.24690989604E+03  0.24690989604E+03  0.00000000000E+00 0.  1.
         -2   -1    0    0    0  501 -0.00000000000E+00 -0.00000000000E+00 -0.64102121932E+02  0.64102121932E+02  0.00000000000E+00 0. -1.
         25    2    1    2    0    0  0.51431770451E+02 -0.39897892514E+02  0.10607138082E+03  0.17645495343E+03  0.12509254143E+03 0.  0.
          5    1    3    3  502    0  0.33092445399E+02 -0.80855160807E+02  0.96761276009E+02  0.13043344627E+03  0.41800000000E+01 0.  1.
         -5    1    3    3    0  502  0.18339325051E+02  0.40957268292E+02  0.93101048078E+01  0.46021507155E+02  0.41800000000E+01 0.  1.
        -11    1    1    2    0    0 -0.79872432526E+01  0.41403617406E+02  0.80549976934E+02  0.90919493912E+02  0.00000000000E+00 0.  1.
         11    1    1    2    0    0 -0.43444527198E+02 -0.15057248921E+01 -0.38135836384E+01  0.43637570637E+02  0.00000000000E+00 0. -1.
</event>
<event>
 7    1  0.2840156E-009  0.9003540E+02  0.7561462E-02  0.1302766E+00
          1   -1    0    0  501    0  0.00000000000E+00  0.00000000000E+00  0.32230211413E+03  0.32230211413E+03  0.00000000000E+00 0. -1.
         -1   -1    0    0    0  501 -0.00000000000E+00 -0.00000000000E+00 -0.49249767720E+02  0.49249767720E+02  0.00000000000E+00 0.  1.
         25    2    1    2    0    0 -0.44203856682E+02 -0.12632968308E+02  0.22357662733E+03  0.26028333444E+03  0.12508930035E+03 0.  0.
          5    1    3    3  502    0 -0.14174042853E+02  0.26974421256E+02  0.20462628873E+03  0.20692489781E+03  0.41800000000E+01 0. -1.
         -5    1    3    3    0  502 -0.30029813829E+02 -0.39607389564E+02  0.18950338605E+02  0.53358436633E+02  0.41800000000E+01 0. -1.
        -11    1    1    2    0    0  0.31378157064E+02  0.50499557263E+02  0.33263629751E+02  0.68126816223E+02  0.00000000000E+00 0. -1.
         11    1    1    2    0    0  0.12825699618E+02 -0.37866588955E+02  0.16212089328E+02  0.43141731191E+02  0.00000000000E+00 0.  1.
</event>
<event>
 7    1  0.2840156E-009  0.4205743E+03  0.7561462E-02  0.1036880E+00
          1   -1    0    0  501    0  0.00000000000E+00  0.00000000000E+00  0.36207661279E+03  0.36207661279E+03  0.00000000000E+00 0. -1.
         -1   -1    0    0    0  501 -0.00000000000E+00 -0.00000000000E+00 -0.53631501778E+03  0.53631501778E+03  0.00000000000E+00 0.  1.
         25    2    1    2    0    0  0.68127519321E+02  0.40854090272E+03  0.17313138828E+02  0.43300557064E+03  0.12508817426E+03 0.  0.
          5    1    3    3  502    0  0.75375352091E+02  0.37257099504E+03  0.50340934896E+02  0.38346091349E+03  0.41800000000E+01 0. -1.
         -5    1    3    3    0  502 -0.72478327695E+01  0.35969907682E+02 -0.33027796068E+02  0.49544657145E+02  0.41800000000E+01 0. -1.
        -11    1    1    2    0    0 -0.90552808723E+02 -0.30629735142E+03 -0.14086362954E+03  0.34908514833E+03  0.00000000000E+00 0.  1.
         11    1    1    2    0    0  0.22425289401E+02 -0.10224355130E+03 -0.50687914271E+02  0.11630091161E+03  0.00000000000E+00 0. -1.
</event>
<event>
 7    1  0.2840156E-009  0.7404359E+02  0.7561462E-02  0.1346859E+00
          4   -1    0    0  501    0  0.00000000000E+00  0.00000000000E+00  0.57181869060E+02  0.57181869060E+02  0.00000000000E+00 0. -1.
         -4   -1    0    0    0  501 -0.00000000000E+00 -0.00000000000E+00 -0.27504246004E+03  0.27504246004E+03  0.00000000000E+00 0.  1.
         25    2    1    2    0    0  0.38808273108E+01  0.35232348127E+02 -0.15514490667E+03  0.20241945287E+03  0.12508922280E+03 0.  0.
          5    1    3    3  502    0  0.47725225929E+01 -0.14243808186E+01  0.21241089081E+02  0.22214006797E+02  0.41800000000E+01 0. -1.
         -5    1    3    3    0  502 -0.89169528209E+00  0.36656728946E+02 -0.17638599575E+03  0.18020544607E+03  0.41800000000E+01 0. -1.
        -11    1    1    2    0    0 -0.49011069665E+02 -0.33783329145E+02 -0.99426952244E+01  0.60351101615E+02  0.00000000000E+00 0. -1.
         11    1    1    2    0    0  0.45130242355E+02 -0.14490189819E+01 -0.52772989085E+02  0.69453774613E+02  0.00000000000E+00 0.  1.
</event>
<event>
 7    1  0.2840156E-009  0.7257213E+02  0.7561462E-02  0.1351559E+00
         -1   -1    0    0    0  501 -0.00000000000E+00  0.00000000000E+00  0.66988234988E+02  0.66988234988E+02  0.00000000000E+00 0.  1.
          1   -1    0    0  501    0  0.00000000000E+00 -0.00000000000E+00 -0.19361216755E+03  0.19361216755E+03  0.00000000000E+00 0. -1.
         25    2    1    2    0    0 -0.10179468985E+02 -0.22583776751E+02 -0.11530382701E+03  0.17192084069E+03  0.12509258324E+03 0.  0.
          5    1    3    3  502    0 -0.13108465297E+02 -0.44916770752E+02 -0.13422517450E+03  0.14220836131E+03  0.41800000000E+01 0. -1.
         -5    1    3    3    0  502  0.29289963125E+01  0.22332994001E+02  0.18921347491E+02  0.29712479387E+02  0.41800000000E+01 0. -1.
        -11    1    1    2    0    0  0.37307207953E+02 -0.36950023285E+01 -0.28592239702E+02  0.47148668896E+02  0.00000000000E+00 0.  1.
         11    1    1    2    0    0 -0.27127738968E+02  0.26278779079E+02  0.17272134142E+02  0.41530892951E+02  0.00000000000E+00 0. -1.
</event>
<event>
 7    1  0.2840156E-009  0.1145215E+03  0.7561462E-02  0.1252419E+00
         -1   -1    0    0    0  501 -0.00000000000E+00  0.00000000000E+00  0.11578086133E+03  0.11578086133E+03  0.00000000000E+00 0.  1.
          1   -1    0    0  501    0  0.00000000000E+00 -0.00000000000E+00 -0.14263509648E+03  0.14263509648E+03  0.00000000000E+00 0. -1.
         25    2    1    2    0    0  0.44443164752E+02  0.35000722543E+02  0.24066543160E+02  0.13938028553E+03  0.12508964795E+03 0.  0.
          5    1    3    3  502    0  0.77244667312E+02  0.61461126111E+01 -0.16815514489E+02  0.79402438602E+02  0.41800000000E+01 0. -1.
         -5    1    3    3    0  502 -0.32801502560E+02  0.28854609932E+02  0.40882057650E+02  0.59977846929E+02  0.41800000000E+01 0. -1.
        -11    1    1    2    0    0  0.27271364875E+02  0.10454975656E+01 -0.11533601172E+02  0.29628438422E+02  0.00000000000E+00 0. -1.
         11    1    1    2    0    0 -0.71714529627E+02 -0.36046220109E+02 -0.39387177135E+02  0.89407233860E+02  0.00000000000E+00 0.  1.
</event>
<event>
 7    1  0.2840156E-009  0.1374621E+03  0.7561462E-02  0.1216785E+00
          2   -1    0    0  501    0  0.00000000000E+00  0.00000000000E+00  0.43629974596E+03  0.43629974596E+03  0.00000000000E+00 0. -1.
         -2   -1    0    0    0  501 -0.00000000000E+00 -0.00000000000E+00 -0.46108062942E+02  0.46108062942E+02  0.00000000000E+00 0.  1.
         25    2    1    2    0    0  0.89939715291E+02  0.68784069431E+01  0.22031196392E+03  0.26892735829E+03  0.12509235676E+03 0.  0.
          5    1    3    3  502    0 -0.11495216656E+02  0.37681149072E+02  0.25539324889E+02  0.47135321332E+02  0.41800000000E+01 0. -1.
         -5    1    3    3    0  502  0.10143493195E+03 -0.30802742129E+02  0.19477263903E+03  0.22179203696E+03  0.41800000000E+01 0. -1.
        -11    1    1    2    0    0  0.19537353560E+02 -0.25374915262E+00  0.23245435450E+02  0.30366475627E+02  0.00000000000E+00 0.  1.
         11    1    1    2    0    0 -0.10947706885E+03 -0.66246577905E+01  0.14663428365E+03  0.18311397499E+03  0.00000000000E+00 0. -1.
</event>
<event>
 7    1  0.2840156E-009  0.9807619E+02  0.7561462E-02  0.1284394E+00
         -1   -1    0    0    0  501 -0.00000000000E+00  0.00000000000E+00  0.74037606411E+03  0.74037606411E+03  0.00000000000E+00 0.  1.
          1   -1    0    0  501    0  0.00000000000E+00 -0.00000000000E+00 -0.45740187786E+02  0.45740187786E+02  0.00000000000E+00 0. -1.
         25    2    1    2    0    0  0.14635528726E+02 -0.27698756775E+02  0.67662084114E+03  0.68879911013E+03  0.12508809541E+03 0.  0.
          5    1    3    3  502    0  0.49257226431E+02 -0.62444856615E+02  0.42980230859E+03  0.43711912717E+03  0.41800000000E+01 0.  1.
         -5    1    3    3    0  502 -0.34621697705E+02  0.34746099840E+02  0.24681853256E+03  0.25167998295E+03  0.41800000000E+01 0.  1.
        -11    1    1    2    0    0  0.20948722953E+02 -0.18457232331E+01 -0.26020324535E+02  0.33456135110E+02  0.00000000000E+00 0. -1.
         11    1    1    2    0    0 -0.35584251679E+02  0.29544480008E+02  0.44035359717E+02  0.63861006662E+02  0.00000000000E+00 0.  1.
</event>
<event>
 7    1  0.2840156E-009  0.1007973E+03  0.7561462E-02  0.1278628E+00
          1   -1    0    0  501    0  0.00000000000E+00  0.00000000000E+00  0.10654875174E+03  0.10654875174E+03  0.00000000000E+00 0. -1.
         -1   -1    0    0    0  501 -0.00000000000E+00 -0.00000000000E+00 -0.11211475325E+03  0.11211475325E+03  0.00000000000E+00 0.  1.
         25    2    1    2    0    0 -0.23779992648E+02  0.16607163422E+02 -0.33091576434E+01  0.12845198033E+03  0.12509066631E+03 0.  0.
          5    1    3    3  502    0  0.41094937865E+02 -0.13800197206E+02 -0.28887469104E+02  0.52260861381E+02  0.41800000000E+01 0. -1.
         -5    1    3    3    0  502 -0.64874930513E+02  0.30407360628E+02  0.25578311461E+02  0.76191118948E+02  0.41800000000E+01 0. -1.
        -11    1    1    2    0    0 -0.22388763424E+02  0.17875320624E+02  0.11658373843E+02  0.30930591584E+02  0.00000000000E+00 0. -1.
         11    1    1    2    0    0  0.46168756071E+02 -0.34482484046E+02 -0.13915217711E+02  0.59280933082E+02  0.00000000000E+00 0.  1.
</event>
<event>
 7    1  0.2840156E-009  0.1048804E+03  0.7561462E-02  0.1270356E+00
          2   -1    0    0  501    0  0.00000000000E+00  0.00000000000E+00  0.22910286496E+03  0.22910286496E+03  0.00000000000E+00 0.  1.
         -2   -1    0    0    0  501 -0.00000000000E+00 -0.00000000000E+00 -0.96915042402E+02  0.96915042402E+02  0.00000000000E+00 0. -1.
         25    2    1    2    0    0 -0.86714640351E+02 -0.48486332919E+02  0.47062099784E+02  0.16653193062E+03  0.12509072447E+03 0.  0.
          5    1    3    3  502    0 -0.32653704610E+02 -0.24840080512E+02 -0.42485782721E+02  0.59209865378E+02  0.41800000000E+01 0.  1.
         -5    1    3    3    0  502 -0.54060935741E+02 -0.23646252406E+02  0.89547882505E+02  0.10732206524E+03  0.41800000000E+01 0.  1.
        -11    1    1    2    0    0  0.74262986113E+02  0.17968331461E+02  0.97856712944E+02  0.12415227871E+03  0.00000000000E+00 0.  1.
         11    1    1    2    0    0  0.12451654239E+02  0.30518001458E+02 -0.12730990165E+02  0.35333698035E+02  0.00000000000E+00 0. -1.
</event>
<event>
 7    1  0.2840156E-009  0.1147422E+03  0.7561462E-02  0.1252032E+00
         -1   -1    0    0    0  501 -0.00000000000E+00  0.00000000000E+00  0.64781226163E+03  0.64781226163E+03  0.00000000000E+00 0.  1.
          1   -1    0    0  501    0  0.00000000000E+00 -0.00000000000E+00 -0.26735324289E+02  0.26735324289E+02  0.00000000000E+00 0. -1.
         25    2    1    2    0    0  0.63509224333E+02  0.37535865757E+02  0.31036680147E+03  0.34266178134E+03  0.12508869709E+03 0.  0.
          5    1    3    3  502    0  0.14101097926E+02 -0.30465633258E+02  0.17792287845E+02  0.38223470268E+02  0.41800000000E+01 0.  1.
         -5    1    3    3    0  502  0.49408126407E+02  0.68001499015E+02  0.29257451363E+03  0.30443831107E+03  0.41800000000E+01 0.  1.
        -11    1    1    2    0    0 -0.32847530582E+02  0.25376640659E+02  0.16641772261E+03  0.17151615829E+03  0.00000000000E+00 0.  1.
         11    1    1    2    0    0 -0.30661693751E+02 -0.62912506416E+02  0.14429241326E+03  0.16036964629E+03  0.00000000000E+00 0. -1.
</event>
<event>
 7    1  0.2840156E-009  0.9202419E+02  0.7561462E-02  0.1298023E+00
          1   -1    0    0  501    0  0.00000000000E+00  0.00000000000E+00  0.56306883881E+03  0.56306883881E+03  0.00000000000E+00 0. -1.
         -1   -1    0    0    0  501 -0.00000000000E+00 -0.00000000000E+00 -0.22853927203E+02  0.22853927203E+02  0.00000000000E+00 0.  1.
         25    2    1    2    0    0  0.21484449756E+02 -0.14765252769E+02  0.38007709099E+03  0.40098038283E+03  0.12508828102E+03 0.  0.
          5    1    3    3  502    0 -0.32778754939E+02 -0.16838667634E+02  0.32960600407E+02  0.49617145043E+02  0.41800000000E+01 0. -1.
         -5    1    3    3    0  502  0.54263204695E+02  0.20734148650E+01  0.34711649058E+03  0.35136323779E+03  0.41800000000E+01 0. -1.
        -11    1    1    2    0    0 -0.56167923458E+02  0.46033813829E+01  0.95675420022E+02  0.11103968994E+03  0.00000000000E+00 0.  1.
         11    1    1    2    0    0  0.34683473702E+02  0.10161871386E+02  0.64462400593E+02  0.73902693242E+02  0.00000000000E+00 0. -1.
</event>
<event>
 7    1  0.2840156E-009  0.1051298E+03  0.7561462E-02  0.1269864E+00
          1   -1    0    0  501    0  0.00000000000E+00  0.00000000000E+00  0.26939169030E+03  0.26939169030E+03  0.00000000000E+00 0. -1.
         -1   -1    0    0    0  501 -0.00000000000E+00 -0.00000000000E+00 -0.11659738238E+03  0.11659738238E+03  0.00000000000E+00 0.  1.
         25    2    1    2    0    0 -0.55702598723E+01 -0.66481628947E+02 -0.52505860983E+02  0.15117864013E+03  0.12508909230E+03 0.  0.
          5    1    3    3  502    0 -0.60971819310E+02 -0.19156962435E+02 -0.43994519042E+02  0.77701622026E+02  0.41800000000E+01 0. -1.
         -5    1    3    3    0  502  0.55401559437E+02 -0.47324666512E+02 -0.85113419402E+01  0.73477018109E+02  0.41800000000E+01 0. -1.
        -11    1    1    2    0    0 -0.10242612084E+02  0.90717910825E+01 -0.62477194839E+01  0.15041359463E+02  0.00000000000E+00 0.  1.
         11    1    1    2    0    0  0.15812871956E+02  0.57409837864E+02  0.21154788839E+03  0.21976907309E+03  0.00000000000E+00 0. -1.
</event>
<event>
 7    1  0.2840156E-009  0.8012203E+02  0.7561462E-02  0.1328705E+00
          1   -1    0    0  501    0  0.00000000000E+00  0.00000000000E+00  0.62529215716E+02  0.62529215716E+02  0.00000000000E+00 0. -1.
         -1   -1    0    0    0  501 -0.00000000000E+00 -0.00000000000E+00 -0.24740478712E+03  0.24740478712E+03  0.00000000000E+00 0.  1.
         25    2    1    2    0    0  0.18291369377E+02 -0.46820635301E+01 -0.32246420637E+02  0.13055164814E+03  0.12508958899E+03 0.  0.
          5    1    3    3  502    0 -0.37861524239E+02  0.87000113953E+01 -0.55754964718E+02  0.68082844438E+02  0.41800000000E+01 0. -1.
         -5    1    3    3    0  502  0.56152893616E+02 -0.13382074925E+02  0.23508544081E+02  0.62468803699E+02  0.41800000000E+01 0. -1.
        -11    1    1    2    0    0  0.28527547289E+01 -0.25932244708E+02 -0.13625886368E+03  0.13873390882E+03  0.00000000000E+00 0.  1.
         11    1    1    2    0    0 -0.21144124106E+02  0.30614308239E+02 -0.16370287086E+02  0.40648445880E+02  0.00000000000E+00 0. -1.
</event>
<event>
 7    1  0.2840156E-009  0.1041198E+03  0.7561462E-02  0.1271864E+00
          1   -1    0    0  501    0  0.00000000000E+00  0.00000000000E+00  0.46174794740E+03  0.46174794740E+03  0.00000000000E+00 0. -1.
         -1   -1    0    0    0  501 -0.00000000000E+00 -0.00000000000E+00 -0.34605152636E+02  0.34605152636E+02  0.00000000000E+00 0.  1.
         25    2    1    2    0    0 -0.50500315539E+02  0.15042607231E+02  0.30571095120E+03  0.33449052363E+03  0.12509261696E+03 0.  0.
          5    1    3    3  502    0 -0.55686768338E+02 -0.25163651192E+02  0.27927511378E+03  0.28591307610E+03  0.41800000000E+01 0.  1.
         -5    1    3    3    0  502  0.51864527988E+01  0.40206258422E+02  0.26435837420E+02  0.48577447535E+02  0.41800000000E+01 0.  1.
        -11    1    1    2    0    0 -0.25490089852E+02  0.81869060505E+01  0.22510657154E+02  0.34978561961E+02  0.00000000000E+00 0.  1.
         11    1    1    2    0    0  0.75990405392E+02 -0.23229513281E+02  0.98921186411E+02  0.12688401444E+03  0.00000000000E+00 0. -1.
</event>
<event>
 7    1  0.2840156E-009  0.1799287E+03  0.7561462E-02  0.1167872E+00
         -1   -1    0    0    0  501 -0.00000000000E+00  0.00000000000E+00  0.59525469919E+02  0.59525469919E+02  0.00000000000E+00 0.  1.
          1   -1    0    0  501    0  0.00000000000E+00 -0.00000000000E+00 -0.74756131554E+03  0.74756131554E+03  0.00000000000E+00 0. -1.
         25    2    1    2    0    0  0.14550607123E+03 -0.45980328952E+02 -0.17041310499E+03  0.26071959178E+03  0.12509145362E+03 0.  0.
          5    1    3    3  502    0 -0.85251086979E+01 -0.37892266020E+02 -0.15365176715E+02  0.41976926494E+02  0.41800000000E+01 0. -1.
         -5    1    3    3    0  502  0.15403117993E+03 -0.80880629318E+01 -0.15504792827E+03  0.21874266528E+03  0.41800000000E+01 0. -1.
        -11    1    1    2    0    0 -0.15032748726E+03  0.34778088982E+02 -0.50774798444E+03  0.53067493309E+03  0.00000000000E+00 0. -1.
         11    1    1    2    0    0  0.48214160293E+01  0.11202239970E+02 -0.98747561848E+01  0.15692260595E+02  0.00000000000E+00 0.  1.
</event>
<event>
 7    1  0.2840156E-009  0.3313304E+03  0.7561462E-02  0.1070550E+00
          1   -1    0    0  501    0  0.00000000000E+00  0.00000000000E+00  0.10534954580E+04  0.10534954580E+04  0.00000000000E+00 0. -1.
         -1   -1    0    0    0  501 -0.00000000000E+00 -0.00000000000E+00 -0.12756176177E+03  0.12756176177E+03  0.00000000000E+00 0.  1.
         25    2    1    2    0    0 -0.31402920417E+02 -0.31829191273E+03  0.69757926017E+03  0.77753459000E+03  0.12508928532E+03 0.  0.
          5    1    3    3  502    0  0.23463468201E+02 -0.26498610524E+03  0.56234718465E+03  0.62210931418E+03  0.41800000000E+01 0.  1.
         -5    1    3    3    0  502 -0.54866388618E+02 -0.53305807490E+02  0.13523207552E+03  0.15542527582E+03  0.41800000000E+01 0.  1.
        -11    1    1    2    0    0  0.30031690336E+02  0.26702424529E+03  0.14415508831E+03  0.30493366407E+03  0.00000000000E+00 0.  1.
         11    1    1    2    0    0  0.13712300808E+01  0.51267667445E+02  0.84199347757E+02  0.98588965711E+02  0.00000000000E+00 0. -1.
</event>
<event>
 7    1  0.2840156E-009  0.3346676E+03  0.7561462E-02  0.1069090E+00
          1   -1    0    0  501    0  0.00000000000E+00  0.00000000000E+00  0.35774642893E+03  0.35774642893E+03  0.00000000000E+00 0. -1.
         -1   -1    0    0    0  501 -0.00000000000E+00 -0.00000000000E+00 -0.33196615647E+03  0.33196615647E+03  0.00000000000E+00 0.  1.
         25    2    1    2    0    0  0.28514413172E+03  0.15570040312E+03  0.47838499666E+02  0.35140747881E+03  0.12509557438E+03 0.  0.
          5    1    3    3  502    0  0.23865985777E+03  0.74012041898E+02  0.58678390559E+02  0.25670398512E+03  0.41800000000E+01 0. -1.
         -5    1    3    3    0  502  0.46484273950E+02  0.81688361223E+02 -0.10839890893E+02  0.94703493698E+02  0.41800000000E+01 0. -1.
        -11    1    1    2    0    0 -0.16826303165E+03 -0.82114448744E+02 -0.57228452597E+02  0.19578132266E+03  0.00000000000E+00 0. -1.
         11    1    1    2    0    0 -0.11688110006E+03 -0.73585954377E+02  0.35170225387E+02  0.14252378394E+03  0.00000000000E+00 0.  1.
</event>
<event>
 7    1  0.2840156E-009  0.1944891E+03  0.7561462E-02  0.1154474E+00
          2   -1    0    0  501    0  0.00000000000E+00  0.00000000000E+00  0.10579764756E+03  0.10579764756E+03  0.00000000000E+00 0. -1.
         -2   -1    0    0    0  501 -0.00000000000E+00 -0.00000000000E+00 -0.43295818828E+03  0.43295818828E+03  0.00000000000E+00 0.  1.
         25    2    1    2    0    0  0.14046867765E+03  0.11832076036E+03 -0.15838880501E+03  0.27288674863E+03  0.12509561261E+03 0.  0.
          5    1    3    3  502    0  0.10590272802E+03  0.44630520006E+02 -0.26764454694E+02  0.11807234881E+03  0.41800000000E+01 0. -1.
         -5    1    3    3    0  502  0.34565949633E+02  0.73690240354E+02 -0.13162435031E+03  0.15481439982E+03  0.41800000000E+01 0. -1.
        -11    1    1    2    0    0 -0.59408645197E+02 -0.15220668690E+02 -0.13819402166E+02  0.62865187152E+02  0.00000000000E+00 0. -1.
         11    1    1    2    0    0 -0.81060032456E+02 -0.10310009167E+03 -0.15495233355E+03  0.20300390005E+03  0.00000000000E+00 0.  1.
</event>
<event>
 7    1  0.2840156E-009  0.9473380E+02  0.7561462E-02  0.1291777E+00
          3   -1    0    0  501    0  0.00000000000E+00  0.00000000000E+00  0.42381339199E+03  0.42381339199E+03  0.00000000000E+00 0. -1.
         -3   -1    0    0    0  501 -0.00000000000E+00 -0.00000000000E+00 -0.30008030800E+02  0.30008030800E+02  0.00000000000E+00 0.  1.
         25    2    1    2    0    0  0.19829634462E+02 -0.15004765316E+02  0.25933481611E+03  0.28899890538E+03  0.12508982006E+03 0.  0.
          5    1    3    3  502    0  0.14312923594E+02 -0.69468490037E+02  0.16840988125E+03  0.18278427556E+03  0.41800000000E+01 0.  1.
         -5    1    3    3    0  502  0.55167108679E+01  0.54463724721E+02  0.90924934858E+02  0.10621462982E+03  0.41800000000E+01 0.  1.
        -11    1    1    2    0    0 -0.40043332946E+02  0.16359145475E+02  0.18416326851E+02  0.47013309273E+02  0.00000000000E+00 0.  1.
         11    1    1    2    0    0  0.20213698484E+02 -0.13543801588E+01  0.11605421824E+03  0.11780920814E+03  0.00000000000E+00 0. -1.
</event>
<event>
 7    1  0.2840156E-009  0.8968041E+02  0.7561462E-02  0.1303627E+00
         -1   -1    0    0    0  501 -0.00000000000E+00  0.00000000000E+00  0.16828588354E+03  0.16828588354E+03  0.00000000000E+00 0.  1.
          1   -1    0    0  501    0  0.00000000000E+00 -0.00000000000E+00 -0.12082439683E+03  0.12082439683E+03  0.00000000000E+00 0. -1.
         25    2    1    2    0    0 -0.45783367660E+02  0.57469301948E+02 -0.28981852917E+02  0.14793623617E+03  0.12508534987E+03 0.  0.
          5    1    3    3  502    0  0.36816541427E+01  0.21985292212E+02  0.45985699369E+02  0.51274404895E+02  0.41800000000E+01 0. -1.
         -5    1    3    3    0  502 -0.49465021803E+02  0.35484009736E+02 -0.74967552286E+02  0.96661831271E+02  0.41800000000E+01 0. -1.
        -11    1    1    2    0    0  0.59043339262E+02 -0.32518554856E+02  0.87826715543E+02  0.11071180734E+03  0.00000000000E+00 0.  1.
         11    1    1    2    0    0 -0.13259971601E+02 -0.24950747092E+02 -0.11383375918E+02  0.30462236862E+02  0.00000000000E+00 0. -1.
</event>
<event>
 7    1  0.2840156E-009  0.1159346E+03  0.7561462E-02  0.1249958E+00
         -2   -1    0    0    0  501 -0.00000000000E+00  0.00000000000E+00  0.14283238313E+02  0.14283238313E+02  0.00000000000E+00 0.  1.
          2   -1    0    0  501    0  0.00000000000E+00 -0.00000000000E+00 -0.12210604630E+04  0.12210604630E+04  0.00000000000E+00 0. -1.
         25    2    1    2    0    0 -0.17098125997E+02  0.43562438325E+02 -0.95803372466E+03  0.96729772982E+03  0.12508496551E+03 0.  0.
          5    1    3    3  502    0 -0.17730686765E+01 -0.43633376853E+02 -0.37683186843E+03  0.37937678475E+03  0.41800000000E+01 0. -1.
         -5    1    3    3    0  502 -0.15325057320E+02  0.87195815178E+02 -0.58120185623E+03  0.58792094507E+03  0.41800000000E+01 0. -1.
        -11    1    1    2    0    0  0.42113561338E+02  0.72498774387E+01 -0.12050513758E+03  0.12785773717E+03  0.00000000000E+00 0. -1.
         11    1    1    2    0    0 -0.25015435341E+02 -0.50812315764E+02 -0.12823836250E+03  0.14018823437E+03  0.00000000000E+00 0.  1.
</event>
<event>
 7    1  0.2840156E-009  0.1555290E+03  0.7561462E-02  0.1193839E+00
         -1   -1    0    0    0  501 -0.00000000000E+00  0.00000000000E+00  0.14380427967E+04  0.14380427967E+04  0.00000000000E+00 0.  1.
          1   -1    0    0  501    0  0.00000000000E+00 -0.00000000000E+00 -0.31974653525E+02  0.31974653525E+02  0.00000000000E+00 0. -1.
         25    2    1    2    0    0  0.13458698025E+03 -0.32135402988E+02  0.11504986472E+04  0.11655218267E+04  0.12509057520E+03 0.  0.
          5    1    3    3  502    0  0.98488457248E+02  0.26706802984E+02  0.89571066189E+03  0.90151444346E+03  0.41800000000E+01 0.  1.
         -5    1    3    3    0  502  0.36098523000E+02 -0.58842205972E+02  0.25478798531E+03  0.26400738328E+03  0.41800000000E+01 0.  1.
        -11    1    1    2    0    0 -0.93196809108E+02  0.12755909676E+02  0.23732325587E+03  0.25528549946E+03  0.00000000000E+00 0.  1.
         11    1    1    2    0    0 -0.41390171140E+02  0.19379493312E+02  0.18246240092E+02  0.49210124015E+02  0.00000000000E+00 0. -1.
</event>
<event>
 7    1  0.2840156E-009  0.1145216E+03  0.7561462E-02  0.1252418E+00
         -3   -1    0    0    0  501 -0.00000000000E+00  0.00000000000E+00  0.81865631919E+02  0.81865631919E+02  0.00000000000E+00 0.  1.
          3   -1    0    0  501    0  0.00000000000E+00 -0.00000000000E+00 -0.20863466285E+03  0.20863466285E+03  0.00000000000E+00 0. -1.
         25    2    1    2    0    0 -0.53134461470E+02 -0.44260383301E+02 -0.96916824871E+02  0.17269225369E+03  0.12508993171E+03 0.  0.
          5    1    3    3  502    0  0.17389583320E+02 -0.49963624886E+02 -0.85889978314E+02  0.10096198391E+03  0.41800000000E+01 0.  1.
         -5    1    3    3    0  502 -0.70524044790E+02  0.57032415853E+01 -0.11026846557E+02  0.71730269783E+02  0.41800000000E+01 0.  1.
        -11    1    1    2    0    0  0.69085046939E+00  0.52070813428E+02  0.79655750628E+01  0.52681090265E+02  0.00000000000E+00 0.  1.
         11    1    1    2    0    0  0.52443611000E+02 -0.78104301274E+01 -0.37817781127E+02  0.65126950818E+02  0.00000000000E+00 0. -1.
</event>
<event>
 7    1  0.2840156E-009  0.1122891E+03  0.7561462E-02  0.1256389E+00
         -1   -1    0    0    0  501 -0.00000000000E+00  0.00000000000E+00  0.36918946087E+02  0.36918946087E+02  0.00000000000E+00 0.  1.
          1   -1    0    0  501    0  0.00000000000E+00 -0.00000000000E+00 -0.38668880292E+03  0.38668880292E+03  0.00000000000E+00 0. -1.
         25    2    1    2    0    0  0.43938778361E+02 -0.24211520937E+02 -0.19239202120E+03  0.23490072122E+03  0.12508734956E+03 0.  0.
          5    1    3    3  502    0 -0.73079774149E+01 -0.66633405520E+02 -0.82624138272E+02  0.10647834470E+03  0.41800000000E+01 0.  1.
         -5    1    3    3    0  502  0.51246755776E+02  0.42421884583E+02 -0.10976788293E+03  0.12842237652E+03  0.41800000000E+01 0.  1.
        -11    1    1    2    0    0 -0.60400447734E+02  0.36176948719E+02 -0.71097801598E+02  0.10005939785E+03  0.00000000000E+00 0.  1.
         11    1    1    2    0    0  0.16461669372E+02 -0.11965427782E+02 -0.86280034036E+02  0.88647629939E+02  0.00000000000E+00 0. -1.
</event>
<event>
 7    1  0.2840156E-009  0.1963445E+03  0.7561462E-02  0.1152860E+00
          2   -1    0    0  501    0  0.00000000000E+00  0.00000000000E+00  0.22207474982E+04  0.22207474982E+04  0.00000000000E+00 0. -1.
         -2   -1    0    0    0  501 -0.00000000000E+00 -0.00000000000E+00 -0.20144271637E+02  0.20144271637E+02  0.00000000000E+00 0.  1.
         25    2    1    2    0    0 -0.48797444078E+02 -0.17053823193E+03  0.13413228254E+04  0.13587710361E+04  0.12508927846E+03 0.  0.
          5    1    3    3  502    0 -0.21640342393E+02 -0.17700861562E+03  0.12626460861E+04  0.12751835027E+04  0.41800000000E+01 0.  1.
         -5    1    3    3    0  502 -0.27157101685E+02  0.64703836890E+01  0.78676739254E+02  0.83587533380E+02  0.41800000000E+01 0.  1.
        -11    1    1    2    0    0 -0.12300231079E+02  0.42015964049E+02  0.93651474698E+02  0.10337908702E+03  0.00000000000E+00 0.  1.
         11    1    1    2    0    0  0.61097675157E+02  0.12852226788E+03  0.76562892649E+03  0.77874164671E+03  0.00000000000E+00 0. -1.
</event>
<event>
 7    1  0.2840156E-009  0.1178891E+03  0.7561462E-02  0.1246621E+00
         -2   -1    0    0    0  501 -0.00000000000E+00  0.00000000000E+00  0.18172822758E+02  0.18172822758E+02  0.00000000000E+00 0. -1.
          2   -1    0    0  501    0  0.00000000000E+00 -0.00000000000E+00 -0.99167337368E+03  0.99167337368E+03  0.00000000000E+00 0.  1.
         25    2    1    2    0    0 -0.75976039017E+02  0.16218500891E+02 -0.59257648289E+03  0.61059827308E+03  0.12509182520E+03 0.  0.
          5    1    3    3  502    0  0.14197936557E+02 -0.18291671625E+02 -0.23078200992E+02  0.32958191915E+02  0.41800000000E+01 0. -1.
         -5    1    3    3    0  502 -0.90173975574E+02  0.34510172517E+02 -0.56949828190E+03  0.57764008116E+03  0.41800000000E+01 0. -1.
        -11    1    1    2    0    0  0.86132594215E+02 -0.36012906001E+02 -0.34094033298E+03  0.35349125001E+03  0.00000000000E+00 0.  1.
         11    1    1    2    0    0 -0.10156555197E+02  0.19794405110E+02 -0.39983735058E+02  0.45756673353E+02  0.00000000000E+00 0. -1.
</event>
<event>
 7    1  0.2840156E-009  0.1340829E+03  0.7561462E-02  0.1221520E+00
         -2   -1    0    0    0  501 -0.00000000000E+00  0.00000000000E+00  0.78342625542E+02  0.78342625542E+02  0.00000000000E+00 0.  1.
          2   -1    0    0  501    0  0.00000000000E+00 -0.00000000000E+00 -0.37713365110E+03  0.37713365110E+03  0.00000000000E+00 0. -1.
         25    2    1    2    0    0  0.55155522839E+02 -0.81015911437E+02 -0.39396892255E+02  0.16372498597E+03  0.12509215126E+03 0.  0.
          5    1    3    3  502    0 -0.23531595339E+02  0.87985321204E+01  0.17985704382E+02  0.31178648284E+02  0.41800000000E+01 0.  1.
         -5    1    3    3    0  502  0.78687118177E+02 -0.89814443557E+02 -0.57382596637E+02  0.13254633769E+03  0.41800000000E+01 0.  1.
        -11    1    1    2    0    0 -0.82225031860E+01 -0.14570010101E+02 -0.90911283310E+02  0.92437850397E+02  0.00000000000E+00 0. -1.
         11    1    1    2    0    0 -0.46933019653E+02  0.95585921538E+02 -0.16848284999E+03  0.19931344027E+03  0.00000000000E+00 0.  1.
</event>
<event>
 7    1  0.2840156E-009  0.2520122E+02  0.7561462E-02  0.1658128E+00
         -1   -1    0    0    0  501 -0.00000000000E+00  0.00000000000E+00  0.92916690522E+02  0.92916690522E+02  0.00000000000E+00 0.  1.
          1   -1    0    0  501    0  0.00000000000E+00 -0.00000000000E+00 -0.13464810978E+03  0.13464810978E+03  0.00000000000E+00 0. -1.
         25    2    1    2    0    0 -0.65696841939E+01 -0.88162969619E+01 -0.44931615215E+02  0.13336728540E+03  0.12508834849E+03 0.  0.
          5    1    3    3  502    0 -0.38050597618E+01 -0.71641568189E+01 -0.88757236887E+02  0.89225126072E+02  0.41800000000E+01 0. -1.
         -5    1    3    3    0  502 -0.27646244321E+01 -0.16521401429E+01  0.43825621672E+02  0.44142159329E+02  0.41800000000E+01 0. -1.
        -11    1    1    2    0    0  0.17547532598E+02 -0.51012837840E+01  0.45122090748E+02  0.48682050799E+02  0.00000000000E+00 0.  1.
         11    1    1    2    0    0 -0.10977848404E+02  0.13917580746E+02 -0.41921894791E+02  0.45515464100E+02  0.00000000000E+00 0. -1.
</event>
<event>
 7    1  0.2840156E-009  0.6645741E+02  0.7561462E-02  0.1372572E+00
          1   -1    0    0  501    0  0.00000000000E+00  0.00000000000E+00  0.47403467334E+02  0.47403467334E+02  0.00000000000E+00 0. -1.
         -1   -1    0    0    0  501 -0.00000000000E+00 -0.00000000000E+00 -0.27900279176E+03  0.27900279176E+03  0.00000000000E+00 0.  1.
         25    2    1    2    0    0  0.27336502566E+02 -0.16338098391E+02 -0.16410103247E+03  0.20878407147E+03  0.12508965509E+03 0.  0.
          5    1    3    3  502    0 -0.79512574780E+01 -0.19175353943E+02 -0.17114267238E+03  0.17244768309E+03  0.41800000000E+01 0.  1.
         -5    1    3    3    0  502  0.35287760044E+02  0.28372555518E+01  0.70416399079E+01  0.36336388381E+02  0.41800000000E+01 0.  1.
        -11    1    1    2    0    0  0.22101367414E+02  0.14859251688E+02 -0.62466651952E+02  0.67906924598E+02  0.00000000000E+00 0.  1.
         11    1    1    2    0    0 -0.49437869980E+02  0.14788467033E+01 -0.50316399956E+01  0.49715263017E+02  0.00000000000E+00 0. -1.
</event>
<event>
 7    1  0.2840156E-009  0.1282337E+03  0.7561462E-02  0.1230100E+00
         -2   -1    0    0    0  501 -0.00000000000E+00  0.00000000000E+00  0.21382725208E+03  0.21382725208E+03  0.00000000000E+00 0.  1.
          2   -1    0    0  501    0  0.00000000000E+00 -0.00000000000E+00 -0.16021459121E+03  0.16021459121E+03  0.00000000000E+00 0. -1.
         25    2    1    2    0    0 -0.10901637365E+03  0.36997541873E+02  0.12539681670E+03  0.21124610436E+03  0.12508863714E+03 0.  0.
          5    1    3    3  502    0 -0.17743417102E+02  0.19747444432E+02  0.11451787630E+03  0.11762910696E+03  0.41800000000E+01 0.  1.
         -5    1    3    3    0  502 -0.91272956545E+02  0.17250097441E+02  0.10878940401E+02  0.93616997402E+02  0.41800000000E+01 0.  1.
        -11    1    1    2    0    0  0.49567217358E+02 -0.55438368568E+02 -0.98972402598E+01  0.75021844225E+02  0.00000000000E+00 0.  1.
         11    1    1    2    0    0  0.59449156289E+02  0.18440826695E+02 -0.61886915569E+02  0.87773894703E+02  0.00000000000E+00 0. -1.
</event>
<event>
 7    1  0.2840156E-009  0.1296390E+03  0.7561462E-02  0.1227992E+00
          2   -1    0    0  501    0  0.00000000000E+00  0.00000000000E+00  0.51365218823E+03  0.51365218823E+03  0.00000000000E+00 0. -1.
         -2   -1    0    0    0  501 -0.00000000000E+00 -0.00000000000E+00 -0.41666209182E+02  0.41666209182E+02  0.00000000000E+00 0.  1.
         25    2    1    2    0    0  0.21911487349E+02 -0.96174486161E+02  0.25899630346E+03  0.30406704408E+03  0.12509211416E+03 0.  0.
          5    1    3    3  502    0 -0.51063417261E+02 -0.32239275058E+02  0.78772809304E+02  0.99345212891E+02  0.41800000000E+01 0. -1.
         -5    1    3    3    0  502  0.72974904610E+02 -0.63935211103E+02  0.18022349415E+03  0.20472183119E+03  0.41800000000E+01 0. -1.
        -11    1    1    2    0    0 -0.10117391390E+02  0.86294534362E+01 -0.63909829199E+01  0.14753770292E+02  0.00000000000E+00 0.  1.
         11    1    1    2    0    0 -0.11794095959E+02  0.87545032725E+02  0.21938065851E+03  0.23649758303E+03  0.00000000000E+00 0. -1.
</event>
<event>
 7    1  0.2840156E-009  0.1775266E+03  0.7561462E-02  0.1170219E+00
          1   -1    0    0  501    0  0.00000000000E+00  0.00000000000E+00  0.63061731382E+03  0.63061731382E+03  0.00000000000E+00 0. -1.
         -1   -1    0    0    0  501 -0.00000000000E+00 -0.00000000000E+00 -0.72661940281E+02  0.72661940281E+02  0.00000000000E+00 0.  1.
         25    2    1    2    0    0  0.12665954775E+02  0.16064329619E+03  0.14428563249E+03  0.24986656884E+03  0.12509301923E+03 0.  0.
          5    1    3    3  502    0  0.36047078361E+02  0.96734759065E+02  0.15945512032E+02  0.10454060084E+03  0.41800000000E+01 0.  1.
         -5    1    3    3    0  502 -0.23381123586E+02  0.63908537129E+02  0.12834012046E+03  0.14532596801E+03  0.41800000000E+01 0.  1.
        -11    1    1    2    0    0 -0.41055146044E+02 -0.32658121437E+02  0.15084830046E+03  0.15971001115E+03  0.00000000000E+00 0. -1.
         11    1    1    2    0    0  0.28389191269E+02 -0.12798517476E+03  0.26282144060E+03  0.29370267410E+03  0.00000000000E+00 0.  1.
</event>
<event>
 7    1  0.2840156E-009  0.7435453E+02  0.7561462E-02  0.1345882E+00
          1   -1    0    0  501    0  0.00000000000E+00  0.00000000000E+00  0.15190596079E+03  0.15190596079E+03  0.00000000000E+00 0. -1.
         -1   -1    0    0    0  501 -0.00000000000E+00 -0.00000000000E+00 -0.12160397713E+03  0.12160397713E+03  0.00000000000E+00 0.  1.
         25    2    1    2    0    0  0.41619790536E+02 -0.53620797559E+01 -0.54992453155E+02  0.14293944528E+03  0.12508619528E+03 0.  0.
          5    1    3    3  502    0  0.62216389435E+02 -0.14213867001E+02 -0.84293412243E+02  0.10581004148E+03  0.41800000000E+01 0. -1.
         -5    1    3    3    0  502 -0.20596598899E+02  0.88517872449E+01  0.29300959088E+02  0.37129403808E+02  0.41800000000E+01 0. -1.
        -11    1    1    2    0    0 -0.18968237529E+02  0.25403320568E+02 -0.78312482113E+01  0.32656564109E+02  0.00000000000E+00 0.  1.
         11    1    1    2    0    0 -0.22651553007E+02 -0.20041240812E+02  0.93125685029E+02  0.97913928524E+02  0.00000000000E+00 0. -1.
</event>
<event>
 7    1  0.2840156E-009  0.1902858E+03  0.7561462E-02  0.1158204E+00
         -2   -1    0    0    0  501 -0.00000000000E+00  0.00000000000E+00  0.22738156709E+03  0.22738156709E+03  0.00000000000E+00 0.  1.
          2   -1    0    0  501    0  0.00000000000E+00 -0.00000000000E+00 -0.17617076995E+03  0.17617076995E+03  0.00000000000E+00 0. -1.
         25    2    1    2    0    0  0.15793721573E+03  0.80909387540E+01  0.83165526824E+02  0.21811404620E+03  0.12509038690E+03 0.  0.
          5    1    3    3  502    0  0.32616050303E+02  0.56317431523E+02  0.12807965652E+02  0.66460335651E+02  0.41800000000E+01 0.  1.
         -5    1    3    3    0  502  0.12532116543E+03 -0.48226492769E+02  0.70357561172E+02  0.15165371055E+03  0.41800000000E+01 0.  1.
        -11    1    1    2    0    0 -0.53236777946E+02  0.39214472481E+02 -0.23742145522E+02  0.70253959689E+02  0.00000000000E+00 0. -1.
         11    1    1    2    0    0 -0.10470043778E+03 -0.47305411235E+02 -0.82125841533E+01  0.11518433115E+03  0.00000000000E+00 0.  1.
</event>
<event>
 7    1  0.2840156E-009  0.1054388E+03  0.7561462E-02  0.1269257E+00
         -3   -1    0    0    0  501 -0.00000000000E+00  0.00000000000E+00  0.10117340114E+03  0.10117340114E+03  0.00000000000E+00 0.  1.
          3   -1    0    0  501    0  0.00000000000E+00 -0.00000000000E+00 -0.13549026931E+03  0.13549026931E+03  0.00000000000E+00 0. -1.
         25    2    1    2    0    0 -0.15963194228E+02  0.40600631005E+02 -0.15422758117E+02  0.13337101021E+03  0.12508689015E+03 0.  0.
          5    1    3    3  502    0  0.31772058497E+02  0.54290424743E+02 -0.43098599025E+02  0.76366717605E+02  0.41800000000E+01 0. -1.
         -5    1    3    3    0  502 -0.47735252725E+02 -0.13689793738E+02  0.27675840908E+02  0.57004292604E+02  0.41800000000E+01 0. -1.
        -11    1    1    2    0    0 -0.35086576919E+02 -0.29305862183E+02 -0.22365551862E+02  0.50893215150E+02  0.00000000000E+00 0. -1.
         11    1    1    2    0    0  0.51049771147E+02 -0.11294768822E+02  0.34714418074E+01  0.52399445084E+02  0.00000000000E+00 0.  1.
</event>
<event>
 7    1  0.2840156E-009  0.1452961E+03  0.7561462E-02  0.1206375E+00
         -1   -1    0    0    0  501 -0.00000000000E+00  0.00000000000E+00  0.12263830800E+04  0.12263830800E+04  0.00000000000E+00 0.  1.
          1   -1    0    0  501    0  0.00000000000E+00 -0.00000000000E+00 -0.26528511804E+02  0.26528511804E+02  0.00000000000E+00 0. -1.
         25    2    1    2    0    0  0.12452053814E+03  0.71264818613E+02  0.60741943408E+03  0.63654780446E+03  0.12510275643E+03 0.  0.
          5    1    3    3  502    0  0.40758169286E+02  0.26809452980E+02  0.45050071700E+03  0.45315377472E+03  0.41800000000E+01 0.  1.
         -5    1    3    3    0  502  0.83762368853E+02  0.44455365633E+02  0.15691871709E+03  0.18339402973E+03  0.41800000000E+01 0.  1.
        -11    1    1    2    0    0 -0.50175395281E+02 -0.46327621291E+02  0.12538759242E+03  0.14277908502E+03  0.00000000000E+00 0. -1.
         11    1    1    2    0    0 -0.74345142858E+02 -0.24937197322E+02  0.46704754166E+03  0.47358470229E+03  0.00000000000E+00 0.  1.
</event>
<event>
 7    1  0.2878252E-009  0.1525008E+03  0.7561462E-02  0.1197433E+00
          1   -1    0    0  501    0  0.00000000000E+00  0.00000000000E+00  0.87236647599E+03  0.87236647599E+03  0.00000000000E+00 0. -1.
         -1   -1    0    0    0  501 -0.00000000000E+00 -0.00000000000E+00 -0.31639733671E+02  0.31639733671E+02  0.00000000000E+00 0.  1.
         25    2    1    2    0    0  0.12511058330E+03 -0.84186904671E+01  0.45229274134E+03  0.48573506508E+03  0.12508515966E+03 0.  0.
          5    1    3    3  502    0  0.11894327089E+03  0.21182327066E+02  0.21640510079E+03  0.24788068243E+03  0.41800000000E+01 0. -1.
         -5    1    3    3    0  502  0.61673124108E+01 -0.29601017533E+02  0.23588764055E+03  0.23785438265E+03  0.41800000000E+01 0. -1.
        -11    1    1    2    0    0 -0.16157670255E+02  0.37491686979E+02  0.78900787076E+02  0.88837104308E+02  0.00000000000E+00 0. -1.
         11    1    1    2    0    0 -0.10895291305E+03 -0.29072996512E+02  0.30953321390E+03  0.32943404027E+03  0.00000000000E+00 0.  1.
</event>
<event>
 7    1  0.2840156E-009  0.1099830E+03  0.7561462E-02  0.1260601E+00
          1   -1    0    0  501    0  0.00000000000E+00  0.00000000000E+00  0.27044651753E+02  0.27044651753E+02  0.00000000000E+00 0. -1.
         -1   -1    0    0    0  501 -0.00000000000E+00 -0.00000000000E+00 -0.64400473245E+03  0.64400473245E+03  0.00000000000E+00 0.  1.
         25    2    1    2    0    0 -0.38159093558E+02  0.37947201544E+01 -0.51591431771E+03  0.53224640077E+03  0.12509249214E+03 0.  0.
          5    1    3    3  502    0 -0.69801237208E+02  0.36990949695E+02 -0.39534373597E+03  0.40318071016E+03  0.41800000000E+01 0.  1.
         -5    1    3    3    0  502  0.31642143650E+02 -0.33196229540E+02 -0.12057058174E+03  0.12906569061E+03  0.41800000000E+01 0.  1.
        -11    1    1    2    0    0 -0.14961318200E+02 -0.31517307188E+02 -0.43067350512E+02  0.55425430759E+02  0.00000000000E+00 0. -1.
         11    1    1    2    0    0  0.53120411758E+02  0.27722587033E+02 -0.57978412470E+02  0.83377552673E+02  0.00000000000E+00 0.  1.
</event>
<event>
 7    1  0.2840156E-009  0.1071900E+03  0.7561462E-02  0.1265864E+00
          2   -1    0    0  501    0  0.00000000000E+00  0.00000000000E+00  0.11457526758E+04  0.11457526758E+04  0.00000000000E+00 0. -1.
         -2   -1    0    0    0  501 -0.00000000000E+00 -0.00000000000E+00 -0.11572464758E+02  0.11572464758E+02  0.00000000000E+00 0.  1.
         25    2    1    2    0    0 -0.28221702092E+01 -0.17513101314E+02  0.81953684886E+03  0.82921663997E+03  0.12507963863E+03 0.  0.
          5    1    3    3  502    0 -0.61248705873E+02 -0.55624820245E+01  0.52997666642E+03  0.53354951460E+03  0.41800000000E+01 0.  1.
         -5    1    3    3    0  502  0.58426535663E+02 -0.11950619289E+02  0.28956018244E+03  0.29566712537E+03  0.41800000000E+01 0.  1.
        -11    1    1    2    0    0 -0.15802596742E+02  0.51679588681E+02  0.18942940202E+03  0.19698731000E+03  0.00000000000E+00 0. -1.
         11    1    1    2    0    0  0.18624766951E+02 -0.34166487368E+02  0.12521396018E+03  0.13112119061E+03  0.00000000000E+00 0.  1.
</event>
<event>
 7    1  0.2840156E-009  0.7273698E+02  0.7561462E-02  0.1351026E+00
         -1   -1    0    0    0  501 -0.00000000000E+00  0.00000000000E+00  0.36220450609E+02  0.36220450609E+02  0.00000000000E+00 0.  1.
          1   -1    0    0  501    0  0.00000000000E+00 -0.00000000000E+00 -0.44827571120E+03  0.44827571120E+03  0.00000000000E+00 0. -1.
         25    2    1    2    0    0  0.17203076541E+02  0.56809995871E+01 -0.10823853491E+03  0.16640736207E+03  0.12509040776E+03 0.  0.
          5    1    3    3  502    0 -0.94003275728E+00  0.35076243999E+02  0.14971981551E+02  0.38377847598E+02  0.41800000000E+01 0. -1.
         -5    1    3    3    0  502  0.18143109298E+02 -0.29395244412E+02 -0.12321051646E+03  0.12802951447E+03  0.41800000000E+01 0. -1.
        -11    1    1    2    0    0 -0.32289542114E+02 -0.31710077710E+02 -0.26571434615E+03  0.26954082679E+03  0.00000000000E+00 0. -1.
         11    1    1    2    0    0  0.15086465574E+02  0.26029078123E+02 -0.38102379526E+02  0.48547972944E+02  0.00000000000E+00 0.  1.
</event>
<event>
 7    1  0.2840156E-009  0.3042435E+03  0.7561462E-02  0.1083138E+00
          2   -1    0    0  501    0  0.00000000000E+00  0.00000000000E+00  0.19943911196E+04  0.19943911196E+04  0.00000000000E+00 0.  1.
         -2   -1    0    0    0  501 -0.00000000000E+00 -0.00000000000E+00 -0.53874116308E+02  0.53874116308E+02  0.00000000000E+00 0. -1.
         25    2    1    2    0    0  0.28425387048E+03 -0.69288469774E+02  0.67639018530E+03  0.74749627554E+03  0.12508334919E+03 0.  0.
          5    1    3    3  502    0  0.58825329699E+02 -0.50510908636E+02  0.28530387710E+03  0.29568149417E+03  0.41800000000E+01 0. -1.
         -5    1    3    3    0  502  0.22542854078E+03 -0.18777561138E+02  0.39108630820E+03  0.45181478137E+03  0.41800000000E+01 0. -1.
        -11    1    1    2    0    0 -0.19833700309E+03  0.69820699057E+01  0.89149764398E+03  0.91332051621E+03  0.00000000000E+00 0.  1.
         11    1    1    2    0    0 -0.85916867385E+02  0.62306399869E+02  0.37262917404E+03  0.38744844420E+03  0.00000000000E+00 0. -1.
</event>
<event>
 7    1  0.2840156E-009  0.1691986E+03  0.7561462E-02  0.1178686E+00
         -3   -1    0    0    0  501 -0.00000000000E+00  0.00000000000E+00  0.24553951668E+03  0.24553951668E+03  0.00000000000E+00 0.  1.
          3   -1    0    0  501    0  0.00000000000E+00 -0.00000000000E+00 -0.14284339560E+03  0.14284339560E+03  0.00000000000E+00 0. -1.
         25    2    1    2    0    0  0.80407763115E+02  0.11208370404E+03  0.12150678411E+03  0.22234931569E+03  0.12508858671E+03 0.  0.
          5    1    3    3  502    0  0.48472318306E+02  0.13036643784E+03  0.62176078060E+02  0.15240836867E+03  0.41800000000E+01 0.  1.
         -5    1    3    3    0  502  0.31935444809E+02 -0.18282733806E+02  0.59330706049E+02  0.69940947026E+02  0.41800000000E+01 0.  1.
        -11    1    1    2    0    0  0.14013978082E+02 -0.42975321120E+02  0.82143766177E+01  0.45942853528E+02  0.00000000000E+00 0.  1.
         11    1    1    2    0    0 -0.94421741197E+02 -0.69108382916E+02 -0.27025039654E+02  0.12009074306E+03  0.00000000000E+00 0. -1.
</event>
<event>
 7    1  0.2840156E-009  0.2236813E+03  0.7561462E-02  0.1131168E+00
         -2   -1    0    0    0  501 -0.00000000000E+00  0.00000000000E+00  0.42147592549E+03  0.42147592549E+03  0.00000000000E+00 0.  1.
          2   -1    0    0  501    0  0.00000000000E+00 -0.00000000000E+00 -0.16333590155E+03  0.16333590155E+03  0.00000000000E+00 0. -1.
         25    2    1    2    0    0 -0.20469102759E+03 -0.49020663619E+02  0.71757034315E+01  0.24494587379E+03  0.12508216550E+03 0.  0.
          5    1    3    3  502    0 -0.18861975342E+03 -0.75857007515E+02 -0.18606658642E+02  0.20419445907E+03  0.41800000000E+01 0.  1.
         -5    1    3    3    0  502 -0.16071274173E+02  0.26836343896E+02  0.25782362074E+02  0.40751414716E+02  0.41800000000E+01 0.  1.
        -11    1    1    2    0    0  0.83580788900E+02  0.54816492269E+01  0.16516349775E+03  0.18518849246E+03  0.00000000000E+00 0.  1.
         11    1    1    2    0    0  0.12111023869E+03  0.43539014392E+02  0.85800822764E+02  0.15467746079E+03  0.00000000000E+00 0. -1.
</event>
<event>
 7    1  0.2840156E-009  0.1239470E+03  0.7561462E-02  0.1236724E+00
          2   -1    0    0  501    0  0.00000000000E+00  0.00000000000E+00  0.16666052857E+03  0.16666052857E+03  0.00000000000E+00 0. -1.
         -2   -1    0    0    0  501 -0.00000000000E+00 -0.00000000000E+00 -0.14110593011E+03  0.14110593011E+03  0.00000000000E+00 0.  1.
         25    2    1    2    0    0 -0.16985974288E+02  0.99331634597E+02  0.53428828996E+02  0.16928348834E+03  0.12508781996E+03 0.  0.
          5    1    3    3  502    0  0.44305507446E+02  0.30217940925E+02 -0.13103848412E+02  0.55365017719E+02  0.41800000000E+01 0. -1.
         -5    1    3    3    0  502 -0.61291481735E+02  0.69113693671E+02  0.66532677408E+02  0.11391847062E+03  0.41800000000E+01 0. -1.
        -11    1    1    2    0    0  0.69986990137E+01 -0.75057346163E+02  0.25026059696E+02  0.79428525511E+02  0.00000000000E+00 0. -1.
         11    1    1    2    0    0  0.99872752746E+01 -0.24274288433E+02 -0.52900290232E+02  0.59054444820E+02  0.00000000000E+00 0.  1.
</event>
<event>
 7    1  0.2840156E-009  0.1606223E+03  0.7561462E-02  0.1187996E+00
         -1   -1    0    0    0  501 -0.00000000000E+00  0.00000000000E+00  0.38763484104E+02  0.38763484104E+02  0.00000000000E+00 0.  1.
          1   -1    0    0  501    0  0.00000000000E+00 -0.00000000000E+00 -0.80185727597E+03  0.80185727597E+03  0.00000000000E+00 0. -1.
         25    2    1    2    0    0  0.80265977830E+02 -0.93985728787E+02 -0.52893933381E+03  0.55740778001E+03  0.12510263769E+03 0.  0.
          5    1    3    3  502    0 -0.23156359053E+02 -0.37501859316E+02 -0.26016734026E+03  0.26390741512E+03  0.41800000000E+01 0. -1.
         -5    1    3    3    0  502  0.10342233688E+03 -0.56483869471E+02 -0.26877199355E+03  0.29350036490E+03  0.41800000000E+01 0. -1.
        -11    1    1    2    0    0 -0.36134401642E+01  0.81277099966E+02 -0.11169620913E+03  0.13818490171E+03  0.00000000000E+00 0.  1.
         11    1    1    2    0    0 -0.76652537666E+02  0.12708628821E+02 -0.12245824893E+03  0.14502807834E+03  0.00000000000E+00 0. -1.
</event>
<event>
 7    1  0.2840156E-009  0.1046295E+03  0.7561462E-02  0.1270851E+00
         -1   -1    0    0    0  501 -0.00000000000E+00  0.00000000000E+00  0.26905098556E+02  0.26905098556E+02  0.00000000000E+00 0.  1.
          1   -1    0    0  501    0  0.00000000000E+00 -0.00000000000E+00 -0.45293327907E+03  0.45293327907E+03  0.00000000000E+00 0. -1.
         25    2    1    2    0    0  0.24441680109E+02  0.11030820364E+02 -0.25787879771E+03  0.28786811896E+03  0.12508998714E+03 0.  0.
          5    1    3    3  502    0  0.64354224115E+02 -0.28566173755E+02 -0.16113118656E+03  0.17589264944E+03  0.41800000000E+01 0.  1.
         -5    1    3    3    0  502 -0.39912544006E+02  0.39596994119E+02 -0.96747611147E+02  0.11197546952E+03  0.41800000000E+01 0.  1.
        -11    1    1    2    0    0 -0.31996063835E+02  0.28046023685E+02 -0.42378576556E+02  0.60052238063E+02  0.00000000000E+00 0.  1.
         11    1    1    2    0    0  0.75543837261E+01 -0.39076844049E+02 -0.12577080625E+03  0.13191802060E+03  0.00000000000E+00 0. -1.
</event>
<event>
 7    1  0.2840156E-009  0.1022922E+03  0.7561462E-02  0.1275548E+00
          2   -1    0    0  501    0  0.00000000000E+00  0.00000000000E+00  0.73896818390E+03  0.73896818390E+03  0.00000000000E+00 0. -1.
         -2   -1    0    0    0  501 -0.00000000000E+00 -0.00000000000E+00 -0.17178346183E+02  0.17178346183E+02  0.00000000000E+00 0.  1.
         25    2    1    2    0    0  0.30530759930E+02  0.40646987208E+01  0.37480250954E+03  0.39632452943E+03  0.12509021700E+03 0.  0.
          5    1    3    3  502    0 -0.28319115401E+02 -0.29970730074E+02  0.25640787104E+03  0.25973579979E+03  0.41800000000E+01 0.  1.
         -5    1    3    3    0  502  0.58849875331E+02  0.34035428794E+02  0.11839463850E+03  0.13658872964E+03  0.41800000000E+01 0.  1.
        -11    1    1    2    0    0 -0.61983632758E+02 -0.10652935134E+02  0.24088931827E+03  0.24896409262E+03  0.00000000000E+00 0. -1.
         11    1    1    2    0    0  0.31452872828E+02  0.65882364137E+01  0.10609800991E+03  0.11085790804E+03  0.00000000000E+00 0.  1.
</event>
<event>
 7    1  0.2840156E-009  0.1933099E+03  0.7561462E-02  0.1155509E+00
          1   -1    0    0  501    0  0.00000000000E+00  0.00000000000E+00  0.66004325659E+03  0.66004325659E+03  0.00000000000E+00 0. -1.
         -1   -1    0    0    0  501 -0.00000000000E+00 -0.00000000000E+00 -0.76296109713E+02  0.76296109713E+02  0.00000000000E+00 0.  1.
         25    2    1    2    0    0  0.53142082039E+02  0.15161235711E+03  0.48545912878E+03  0.52643093437E+03  0.12509426538E+03 0.  0.
          5    1    3    3  502    0 -0.40237955853E+02  0.43423937083E+02  0.11668761628E+03  0.13091296191E+03  0.41800000000E+01 0. -1.
         -5    1    3    3    0  502  0.93380037892E+02  0.10818842003E+03  0.36877151250E+03  0.39551797245E+03  0.41800000000E+01 0. -1.
        -11    1    1    2    0    0 -0.52107595704E+02 -0.25203236882E+02  0.20121996429E+02  0.61280497874E+02  0.00000000000E+00 0.  1.
         11    1    1    2    0    0 -0.10344863349E+01 -0.12640912023E+03  0.78166021665E+02  0.14862793406E+03  0.00000000000E+00 0. -1.
</event>
<event>
 7    1  0.2840156E-009  0.1622721E+03  0.7561462E-02  0.1186155E+00
         -2   -1    0    0    0  501 -0.00000000000E+00  0.00000000000E+00  0.83623121018E+03  0.83623121018E+03  0.00000000000E+00 0.  1.
          2   -1    0    0  501    0  0.00000000000E+00 -0.00000000000E+00 -0.33048291099E+02  0.33048291099E+02  0.00000000000E+00 0. -1.
         25    2    1    2    0    0  0.59783238638E+02  0.10607186609E+03  0.50928795689E+03  0.53837441841E+03  0.12509002745E+03 0.  0.
          5    1    3    3  502    0  0.57458111651E+02  0.13328107351E+03  0.45245967960E+03  0.47518681928E+03  0.41800000000E+01 0.  1.
         -5    1    3    3    0  502  0.23251269872E+01 -0.27209207427E+02  0.56828277281E+02  0.63187599124E+02  0.41800000000E+01 0.  1.
        -11    1    1    2    0    0 -0.56966746898E+02 -0.12247519676E+03  0.26813629446E+03  0.30023733359E+03  0.00000000000E+00 0. -1.
         11    1    1    2    0    0 -0.28164917396E+01  0.16403330669E+02  0.25758667728E+02  0.30667749279E+02  0.00000000000E+00 0.  1.
</event>
<event>
 7    1  0.2840156E-009  0.1213595E+03  0.7561462E-02  0.1240871E+00
          1   -1    0    0  501    0  0.00000000000E+00  0.00000000000E+00  0.10172574091E+03  0.10172574091E+03  0.00000000000E+00 0. -1.
         -1   -1    0    0    0  501 -0.00000000000E+00 -0.00000000000E+00 -0.23309826889E+03  0.23309826889E+03  0.00000000000E+00 0.  1.
         25    2    1    2    0    0 -0.26643181135E+02  0.94195756001E+02 -0.12233808123E+03  0.20049220812E+03  0.12509124608E+03 0.  0.
          5    1    3    3  502    0 -0.49973290761E+02  0.10066221086E+03 -0.13259844070E+03  0.17386785028E+03  0.41800000000E+01 0.  1.
         -5    1    3    3    0  502  0.23330109626E+02 -0.64664548644E+01  0.10260359466E+02  0.26624357834E+02  0.41800000000E+01 0.  1.
        -11    1    1    2    0    0 -0.10643368069E+02 -0.20641635071E+02 -0.39992903141E+02  0.46247061354E+02  0.00000000000E+00 0.  1.
         11    1    1    2    0    0  0.37286549203E+02 -0.73554120930E+02  0.30958456398E+02  0.88084740335E+02  0.00000000000E+00 0. -1.
</event>
<event>
 7    1  0.2840156E-009  0.8812176E+02  0.7561462E-02  0.1307465E+00
         -1   -1    0    0    0  501 -0.00000000000E+00  0.00000000000E+00  0.37912458220E+03  0.37912458220E+03  0.00000000000E+00 0.  1.
          1   -1    0    0  501    0  0.00000000000E+00 -0.00000000000E+00 -0.38551494440E+02  0.38551494440E+02  0.00000000000E+00 0. -1.
         25    2    1    2    0    0  0.32480799165E+02  0.25475613333E+02  0.24861499563E+03  0.28135531034E+03  0.12508950961E+03 0.  0.
          5    1    3    3  502    0  0.54405418287E+02  0.24134606876E+02  0.40660863535E+02  0.72202541586E+02  0.41800000000E+01 0. -1.
         -5    1    3    3    0  502 -0.21924619122E+02  0.13410064563E+01  0.20795413210E+03  0.20915276876E+03  0.41800000000E+01 0. -1.
        -11    1    1    2    0    0  0.89736634625E+01 -0.46764332214E+02  0.22469540792E+02  0.52652727059E+02  0.00000000000E+00 0.  1.
         11    1    1    2    0    0 -0.41454462628E+02  0.21288718881E+02  0.69488551341E+02  0.83668039244E+02  0.00000000000E+00 0. -1.
</event>
<event>
 7    1  0.2840156E-009  0.1270823E+03  0.7561462E-02  0.1231850E+00
         -2   -1    0    0    0  501 -0.00000000000E+00  0.00000000000E+00  0.10672539304E+03  0.10672539304E+03  0.00000000000E+00 0.  1.
          2   -1    0    0  501    0  0.00000000000E+00 -0.00000000000E+00 -0.38284968022E+03  0.38284968022E+03  0.00000000000E+00 0. -1.
         25    2    1    2    0    0  0.50098999589E+02  0.74797779229E+02 -0.31694519926E+03  0.35242463032E+03  0.12507694905E+03 0.  0.
          5    1    3    3  502    0  0.19815324726E+02  0.98253568230E+02 -0.14569142602E+03  0.17688944225E+03  0.41800000000E+01 0. -1.
         -5    1    3    3    0  502  0.30283674863E+02 -0.23455789001E+02 -0.17125377324E+03  0.17553518806E+03  0.41800000000E+01 0. -1.
        -11    1    1    2    0    0  0.99095408090E+01 -0.49004174814E+02  0.50567187033E+02  0.71110115684E+02  0.00000000000E+00 0.  1.
         11    1    1    2    0    0 -0.60008540398E+02 -0.25793604415E+02 -0.97462749487E+01  0.66040327262E+02  0.00000000000E+00 0. -1.
</event>
<event>
 7    1  0.2840156E-009  0.6425202E+02  0.7561462E-02  0.1380807E+00
          1   -1    0    0  501    0  0.00000000000E+00  0.00000000000E+00  0.91639484156E+02  0.91639484156E+02  0.00000000000E+00 0. -1.
         -1   -1    0    0    0  501 -0.00000000000E+00 -0.00000000000E+00 -0.17375267268E+03  0.17375267268E+03  0.00000000000E+00 0.  1.
         25    2    1    2    0    0 -0.35092342556E+00  0.62853698539E+02 -0.44240553462E+02  0.14681794248E+03  0.12509025181E+03 0.  0.
          5    1    3    3  502    0  0.46448975546E+01  0.72766162918E+01 -0.79893734620E+02  0.80467418558E+02  0.41800000000E+01 0.  1.
         -5    1    3    3    0  502 -0.49958209802E+01  0.55577082247E+02  0.35653181158E+02  0.66350523925E+02  0.41800000000E+01 0.  1.
        -11    1    1    2    0    0 -0.15942965694E+01 -0.32497952347E+02 -0.68235323323E+02  0.75595754096E+02  0.00000000000E+00 0.  1.
         11    1    1    2    0    0  0.19452199950E+01 -0.30355746192E+02  0.30362688260E+02  0.42978460257E+02  0.00000000000E+00 0. -1.
</event>
<event>
 7    1  0.2840156E-009  0.1062270E+03  0.7561462E-02  0.1267721E+00
          2   -1    0    0  501    0  0.00000000000E+00  0.00000000000E+00  0.27482783286E+03  0.27482783286E+03  0.00000000000E+00 0.  1.
         -2   -1    0    0    0  501 -0.00000000000E+00 -0.00000000000E+00 -0.88953232377E+02  0.88953232377E+02  0.00000000000E+00 0. -1.
         25    2    1    2    0    0 -0.68251041598E+02  0.56424093664E+02  0.17575144930E+03  0.23319151213E+03  0.12509127218E+03 0.  0.
          5    1    3    3  502    0 -0.86044765805E+02  0.28995617764E+02  0.17830042422E+03  0.20013235932E+03  0.41800000000E+01 0. -1.
         -5    1    3    3    0  502  0.17793724207E+02  0.27428475899E+02 -0.25489749189E+01  0.33059152809E+02  0.41800000000E+01 0. -1.
        -11    1    1    2    0    0  0.76068371879E+01 -0.74639376663E+01  0.44242215455E+02  0.45507669308E+02  0.00000000000E+00 0.  1.
         11    1    1    2    0    0  0.60644204410E+02 -0.48960155997E+02 -0.34119064270E+02  0.85081883797E+02  0.00000000000E+00 0. -1.
</event>
<event>
 7    1  0.2840156E-009  0.1052441E+03  0.7561462E-02  0.1269639E+00
         -1   -1    0    0    0  501 -0.00000000000E+00  0.00000000000E+00  0.41243890419E+02  0.41243890419E+02  0.00000000000E+00 0.  1.
          1   -1    0    0  501    0  0.00000000000E+00 -0.00000000000E+00 -0.43487210550E+03  0.43487210550E+03  0.00000000000E+00 0. -1.
         25    2    1    2    0    0  0.74233147783E+02 -0.23530284253E+02 -0.24327123204E+03  0.28441643909E+03  0.12509030331E+03 0.  0.
          5    1    3    3  502    0  0.26066888576E+02  0.42674221037E+02 -0.36687181508E+02  0.62161028854E+02  0.41800000000E+01 0. -1.
         -5    1    3    3    0  502  0.48166259207E+02 -0.66204505290E+02 -0.20658405053E+03  0.22225541024E+03  0.41800000000E+01 0. -1.
        -11    1    1    2    0    0 -0.36968994044E+02  0.16144596401E+02 -0.40525792009E+01  0.40543531071E+02  0.00000000000E+00 0.  1.
         11    1    1    2    0    0 -0.37264153739E+02  0.73856878520E+01 -0.14630440384E+03  0.15115602576E+03  0.00000000000E+00 0. -1.
</event>
<event>
 7    1  0.2840156E-009  0.1113849E+03  0.7561462E-02  0.1258027E+00
         -2   -1    0    0    0  501 -0.00000000000E+00  0.00000000000E+00  0.95865423964E+02  0.95865423964E+02  0.00000000000E+00 0.  1.
          2   -1    0    0  501    0  0.00000000000E+00 -0.00000000000E+00 -0.28213988114E+03  0.28213988114E+03  0.00000000000E+00 0. -1.
         25    2    1    2    0    0 -0.24693338607E+02  0.95303502711E+02 -0.18666260781E+03  0.24532723339E+03  0.12509997477E+03 0.  0.
          5    1    3    3  502    0  0.37733375777E+01 -0.57261750026E+01 -0.12138478734E+03  0.12165017942E+03  0.41800000000E+01 0. -1.
         -5    1    3    3    0  502 -0.28466676185E+02  0.10102967771E+03 -0.65277820477E+02  0.12367705397E+03  0.41800000000E+01 0. -1.
        -11    1    1    2    0    0  0.37821632537E+00 -0.81950873213E+02  0.34321915020E+02  0.88848649503E+02  0.00000000000E+00 0.  1.
         11    1    1    2    0    0  0.24315122282E+02 -0.13352629498E+02 -0.33933764378E+02  0.43829422206E+02  0.00000000000E+00 0. -1.
</event>
<event>
 7    1  0.2840156E-009  0.2222859E+03  0.7561462E-02  0.1132190E+00
         -2   -1    0    0    0  501 -0.00000000000E+00  0.00000000000E+00  0.21745225217E+03  0.21745225217E+03  0.00000000000E+00 0.  1.
          2   -1    0    0  501    0  0.00000000000E+00 -0.00000000000E+00 -0.33086744282E+03  0.33086744282E+03  0.00000000000E+00 0. -1.
         25    2    1    2    0    0  0.20016405182E+03  0.76495193395E+02  0.62735127252E+02  0.25592904406E+03  0.12508723815E+03 0.  0.
          5    1    3    3  502    0  0.14703650206E+03  0.49462767397E+02 -0.17186386244E+02  0.15613821623E+03  0.41800000000E+01 0.  1.
         -5    1    3    3    0  502  0.53127549766E+02  0.27032425998E+02  0.79921513496E+02  0.99790827830E+02  0.41800000000E+01 0.  1.
        -11    1    1    2    0    0 -0.15083191547E+03 -0.16166671882E+02 -0.90711255490E+02  0.17674886104E+03  0.00000000000E+00 0.  1.
         11    1    1    2    0    0 -0.49332136347E+02 -0.60328521514E+02 -0.85439062405E+02  0.11564178989E+03  0.00000000000E+00 0. -1.
</event>
<event>
 7    1  0.2840156E-009  0.1833973E+03  0.7561462E-02  0.1164555E+00
          2   -1    0    0  501    0  0.00000000000E+00  0.00000000000E+00  0.24568585502E+03  0.24568585502E+03  0.00000000000E+00 0. -1.
         -2   -1    0    0    0  501 -0.00000000000E+00 -0.00000000000E+00 -0.18176576017E+03  0.18176576017E+03  0.00000000000E+00 0.  1.
         25    2    1    2    0    0  0.17338652058E+03 -0.11025548123E+02 -0.26025544503E+02  0.21567014227E+03  0.12510728625E+03 0.  0.
          5    1    3    3  502    0  0.44104531513E+02 -0.11659059147E+02  0.48231467308E+02  0.66519848157E+02  0.41800000000E+01 0.  1.
         -5    1    3    3    0  502  0.12928198906E+03  0.63351102421E+00 -0.74257011811E+02  0.14915029412E+03  0.41800000000E+01 0.  1.
        -11    1    1    2    0    0 -0.11262471794E+03 -0.32114652787E+02  0.51639096254E+02  0.12799325872E+03  0.00000000000E+00 0.  1.
         11    1    1    2    0    0 -0.60761802633E+02  0.43140200910E+02  0.38306543100E+02  0.83788214196E+02  0.00000000000E+00 0. -1.
</event>
<event>
 7    1  0.2840156E-009  0.1192970E+03  0.7561462E-02  0.1244261E+00
         -3   -1    0    0    0  501 -0.00000000000E+00  0.00000000000E+00  0.16058133691E+03  0.16058133691E+03  0.00000000000E+00 0.  1.
          3   -1    0    0  501    0  0.00000000000E+00 -0.00000000000E+00 -0.13194245750E+03  0.13194245750E+03  0.00000000000E+00 0. -1.
         25    2    1    2    0    0  0.73953577070E+02  0.60282730982E+02  0.31471552815E+02  0.16043857822E+03  0.12508772733E+03 0.  0.
          5    1    3    3  502    0  0.78724711368E+01 -0.27688083066E+02 -0.23481068995E+02  0.37382332014E+02  0.41800000000E+01 0.  1.
         -5    1    3    3    0  502  0.66081105933E+02  0.87970814048E+02  0.54952621809E+02  0.12305624620E+03  0.41800000000E+01 0.  1.
        -11    1    1    2    0    0 -0.33564728829E+02 -0.10236558728E+02  0.41219561674E+02  0.54133450108E+02  0.00000000000E+00 0.  1.
         11    1    1    2    0    0 -0.40388848241E+02 -0.50046172254E+02 -0.44052235078E+02  0.77951766079E+02  0.00000000000E+00 0. -1.
</event>
<event>
 7    1  0.2840156E-009  0.9668293E+02  0.7561462E-02  0.1287430E+00
         -1   -1    0    0    0  501 -0.00000000000E+00  0.00000000000E+00  0.17048040242E+02  0.17048040242E+02  0.00000000000E+00 0.  1.
          1   -1    0    0  501    0  0.00000000000E+00 -0.00000000000E+00 -0.10200494824E+04  0.10200494824E+04  0.00000000000E+00 0. -1.
         25    2    1    2    0    0 -0.55205171566E+02 -0.17444366005E+02 -0.74299757075E+03  0.75567520303E+03  0.12509078888E+03 0.  0.
          5    1    3    3  502    0 -0.73520060946E+02 -0.85410282160E+01 -0.21788005203E+03  0.23014634040E+03  0.41800000000E+01 0.  1.
         -5    1    3    3    0  502  0.18314889379E+02 -0.89033377890E+01 -0.52511751872E+03  0.52552886263E+03  0.41800000000E+01 0.  1.
        -11    1    1    2    0    0 -0.15843858394E+01 -0.26556382475E+02 -0.13183523507E+03  0.13449267985E+03  0.00000000000E+00 0.  1.
         11    1    1    2    0    0  0.56789557406E+02  0.44000748480E+02 -0.12816863632E+03  0.14692963973E+03  0.00000000000E+00 0. -1.
</event>
<event>
 7    1  0.2840156E-009  0.1025932E+03  0.7561462E-02  0.1274935E+00
         -1   -1    0    0    0  501 -0.00000000000E+00  0.00000000000E+00  0.14057967346E+03  0.14057967346E+03  0.00000000000E+00 0.  1.
          1   -1    0    0  501    0  0.00000000000E+00 -0.00000000000E+00 -0.14249073394E+03  0.14249073394E+03  0.00000000000E+00 0. -1.
         25    2    1    2    0    0  0.22707194138E+02 -0.66425898114E+02  0.56276252221E+02  0.15408658703E+03  0.12509053974E+03 0.  0.
          5    1    3    3  502    0 -0.16161680802E+02 -0.69121478705E+02 -0.15069446209E+02  0.72687958795E+02  0.41800000000E+01 0. -1.
         -5    1    3    3    0  502  0.38868874940E+02  0.26955805918E+01  0.71345698430E+02  0.81398628233E+02  0.41800000000E+01 0. -1.
        -11    1    1    2    0    0 -0.40255199320E+02  0.66037348297E+02 -0.10351275886E+02  0.78029233976E+02  0.00000000000E+00 0.  1.
         11    1    1    2    0    0  0.17548005183E+02  0.38854981691E+00 -0.47836036815E+02  0.50954586398E+02  0.00000000000E+00 0. -1.
</event>
<event>
 7    1  0.2840156E-009  0.1099786E+03  0.7561462E-02  0.1260610E+00
         -2   -1    0    0    0  501 -0.00000000000E+00  0.00000000000E+00  0.75751842331E+03  0.75751842331E+03  0.00000000000E+00 0.  1.
          2   -1    0    0  501    0  0.00000000000E+00 -0.00000000000E+00 -0.18597875480E+02  0.18597875480E+02  0.00000000000E+00 0. -1.
         25    2    1    2    0    0 -0.47637255177E+01 -0.29522850111E+02  0.32844387058E+03  0.35272802229E+03  0.12508952726E+03 0.  0.
          5    1    3    3  502    0 -0.57333644152E+01  0.42982147723E+02  0.20434284510E+03  0.20893493541E+03  0.41800000000E+01 0.  1.
         -5    1    3    3    0  502  0.96963889752E+00 -0.72504997833E+02  0.12410102548E+03  0.14379308688E+03  0.41800000000E+01 0.  1.
        -11    1    1    2    0    0  0.51971291323E+02  0.11485165130E+02  0.21116104567E+03  0.21776572583E+03  0.00000000000E+00 0. -1.
         11    1    1    2    0    0 -0.47207565805E+02  0.18037684981E+02  0.19931563159E+03  0.20562255067E+03  0.00000000000E+00 0.  1.
</event>
<event>
 7    1  0.2840156E-009  0.1474046E+03  0.7561462E-02  0.1203699E+00
         -2   -1    0    0    0  501 -0.00000000000E+00  0.00000000000E+00  0.21694569015E+03  0.21694569015E+03  0.00000000000E+00 0. -1.
          2   -1    0    0  501    0  0.00000000000E+00 -0.00000000000E+00 -0.15125852723E+03  0.15125852723E+03  0.00000000000E+00 0.  1.
         25    2    1    2    0    0 -0.12434165569E+03 -0.71067132355E+02  0.48748379119E+02  0.19630394508E+03  0.12508976675E+03 0.  0.
          5    1    3    3  502    0 -0.41625745747E+02 -0.23791303312E+02  0.82191640653E+02  0.95245299178E+02  0.41800000000E+01 0.  1.
         -5    1    3    3    0  502 -0.82715909938E+02 -0.47275829043E+02 -0.33443261534E+02  0.10105864590E+03  0.41800000000E+01 0.  1.
        -11    1    1    2    0    0  0.52554803674E+02  0.58146254214E+02  0.48775170224E+02  0.92314741503E+02  0.00000000000E+00 0. -1.
         11    1    1    2    0    0  0.71786852011E+02  0.12920878141E+02 -0.31836386421E+02  0.79585530807E+02  0.00000000000E+00 0.  1.
</event>
<event>
 7    1  0.2840156E-009  0.7784056E+02  0.7561462E-02  0.1335294E+00
         -3   -1    0    0    0  501 -0.00000000000E+00  0.00000000000E+00  0.42181716153E+03  0.42181716153E+03  0.00000000000E+00 0.  1.
          3   -1    0    0  501    0  0.00000000000E+00 -0.00000000000E+00 -0.33389918720E+02  0.33389918720E+02  0.00000000000E+00 0. -1.
         25    2    1    2    0    0 -0.21268508397E+02 -0.43818265708E+02  0.20337866046E+03  0.24368184004E+03  0.12508225204E+03 0.  0.
          5    1    3    3  502    0 -0.42534236404E+02 -0.12530659233E+02  0.20063873370E+03  0.20552263269E+03  0.41800000000E+01 0.  1.
         -5    1    3    3    0  502  0.21265728007E+02 -0.31287606475E+02  0.27399267542E+01  0.38159207345E+02  0.41800000000E+01 0.  1.
        -11    1    1    2    0    0  0.30029208704E+02  0.17160828293E+01  0.15774226001E+03  0.16058430468E+03  0.00000000000E+00 0.  1.
         11    1    1    2    0    0 -0.87607003076E+01  0.42102182879E+02  0.27306322340E+02  0.50940935531E+02  0.00000000000E+00 0. -1.
</event>
<event>
 7    1  0.2840156E-009  0.1135913E+03  0.7561462E-02  0.1254060E+00
         -1   -1    0    0    0  501 -0.00000000000E+00  0.00000000000E+00  0.49652686320E+02  0.49652686320E+02  0.00000000000E+00 0.  1.
          1   -1    0    0  501    0  0.00000000000E+00 -0.00000000000E+00 -0.39429609240E+03  0.39429609240E+03  0.00000000000E+00 0. -1.
         25    2    1    2    0    0 -0.49615750208E+02 -0.67741267417E+02 -0.22195474967E+03  0.26825747690E+03  0.12509021157E+03 0.  0.
          5    1    3    3  502    0  0.32264084059E+02 -0.38099198431E+02 -0.13964589761E+03  0.14836094217E+03  0.41800000000E+01 0. -1.
         -5    1    3    3    0  502 -0.81879834267E+02 -0.29642068986E+02 -0.82308852063E+02  0.11989653473E+03  0.41800000000E+01 0. -1.
        -11    1    1    2    0    0  0.41558544476E+02  0.29859625731E+02 -0.45602192398E+01  0.51376117674E+02  0.00000000000E+00 0.  1.
         11    1    1    2    0    0  0.80572057320E+01  0.37881641686E+02 -0.11812843717E+03  0.12431518415E+03  0.00000000000E+00 0. -1.
</event>
<event>
 7    1  0.2840156E-009  0.1050930E+03  0.7561462E-02  0.1269937E+00
         -2   -1    0    0    0  501 -0.00000000000E+00  0.00000000000E+00  0.13183041608E+02  0.13183041608E+02  0.00000000000E+00 0.  1.
          2   -1    0    0  501    0  0.00000000000E+00 -0.00000000000E+00 -0.16679403524E+04  0.16679403524E+04  0.00000000000E+00 0. -1.
         25    2    1    2    0    0 -0.37910954306E+02 -0.17609839458E+02 -0.14133542674E+04  0.14194947448E+04  0.12509076069E+03 0.  0.
          5    1    3    3  502    0  0.17104429353E+02  0.44480418637E+02 -0.43575096031E+03  0.43836906934E+03  0.41800000000E+01 0. -1.
         -5    1    3    3    0  502 -0.55015383660E+02 -0.62090258095E+02 -0.97760330714E+03  0.98112567549E+03  0.41800000000E+01 0. -1.
        -11    1    1    2    0    0 -0.12834888463E+02  0.24904607591E+02 -0.20142966115E+02  0.34506708406E+02  0.00000000000E+00 0.  1.
         11    1    1    2    0    0  0.50745842769E+02 -0.72947681335E+01 -0.22126007723E+03  0.22712194076E+03  0.00000000000E+00 0. -1.
</event>
<event>
 7    1  0.2840156E-009  0.1677240E+03  0.7561462E-02  0.1180242E+00
         -4   -1    0    0    0  501 -0.00000000000E+00  0.00000000000E+00  0.60912804663E+02  0.60912804663E+02  0.00000000000E+00 0.  1.
          4   -1    0    0  501    0  0.00000000000E+00 -0.00000000000E+00 -0.53435823705E+03  0.53435823705E+03  0.00000000000E+00 0. -1.
         25    2    1    2    0    0  0.29821592631E+01 -0.14112497186E+03 -0.29506398031E+03  0.35019258054E+03  0.12508772936E+03 0.  0.
          5    1    3    3  502    0  0.16667170417E+02  0.17074024059E+02 -0.74816634604E+02  0.78640435405E+02  0.41800000000E+01 0.  1.
         -5    1    3    3    0  502 -0.13685011154E+02 -0.15819899591E+03 -0.22024734570E+03  0.27155214514E+03  0.41800000000E+01 0.  1.
        -11    1    1    2    0    0  0.22919351720E+02  0.10760171901E+03 -0.16905469574E+03  0.20170006636E+03  0.00000000000E+00 0.  1.
         11    1    1    2    0    0 -0.25901510983E+02  0.33523252845E+02 -0.93267563359E+01  0.43378394810E+02  0.00000000000E+00 0. -1.
</event>
<event>
 7    1  0.2840156E-009  0.8893312E+02  0.7561462E-02  0.1305456E+00
         -1   -1    0    0    0  501 -0.00000000000E+00  0.00000000000E+00  0.28429051765E+02  0.28429051765E+02  0.00000000000E+00 0.  1.
          1   -1    0    0  501    0  0.00000000000E+00 -0.00000000000E+00 -0.49928227393E+03  0.49928227393E+03  0.00000000000E+00 0. -1.
         25    2    1    2    0    0  0.35855949469E+02 -0.34327905744E+02 -0.26514520086E+03  0.29734513102E+03  0.12509234659E+03 0.  0.
          5    1    3    3  502    0  0.66905541414E+02 -0.25237238991E+02 -0.72351576125E+02  0.10181106360E+03  0.41800000000E+01 0. -1.
         -5    1    3    3    0  502 -0.31049591945E+02 -0.90906667533E+01 -0.19279362474E+03  0.19553406742E+03  0.41800000000E+01 0. -1.
        -11    1    1    2    0    0 -0.18092599207E+02  0.47937099419E+02 -0.20109290865E+03  0.20751786804E+03  0.00000000000E+00 0. -1.
         11    1    1    2    0    0 -0.17763350263E+02 -0.13609193675E+02 -0.46151126490E+01  0.22848326630E+02  0.00000000000E+00 0.  1.
</event>
<event>
 7    1  0.2840156E-009  0.9645297E+02  0.7561462E-02  0.1287937E+00
          2   -1    0    0  501    0  0.00000000000E+00  0.00000000000E+00  0.88616059828E+02  0.88616059828E+02  0.00000000000E+00 0. -1.
         -2   -1    0    0    0  501 -0.00000000000E+00 -0.00000000000E+00 -0.17447184350E+03  0.17447184350E+03  0.00000000000E+00 0.  1.
         25    2    1    2    0    0 -0.52283495595E+02  0.19904734870E+02 -0.28983157107E+02  0.14005946500E+03  0.12508744125E+03 0.  0.
          5    1    3    3  502    0 -0.31515291100E+02  0.73022951060E+02 -0.20573683913E+02  0.82257606483E+02  0.41800000000E+01 0. -1.
         -5    1    3    3    0  502 -0.20768204495E+02 -0.53118216190E+02 -0.84094731934E+01  0.57801858522E+02  0.41800000000E+01 0. -1.
        -11    1    1    2    0    0  0.17531530114E+02 -0.86316649242E+01 -0.78281171553E+02  0.80683344051E+02  0.00000000000E+00 0.  1.
         11    1    1    2    0    0  0.34751965481E+02 -0.11273069945E+02  0.21408544986E+02  0.42345094275E+02  0.00000000000E+00 0. -1.
</event>
<event>
 7    1  0.2840156E-009  0.9704047E+02  0.7561462E-02  0.1286645E+00
          1   -1    0    0  501    0  0.00000000000E+00  0.00000000000E+00  0.16139223657E+03  0.16139223657E+03  0.00000000000E+00 0. -1.
         -1   -1    0    0    0  501 -0.00000000000E+00 -0.00000000000E+00 -0.74875267447E+02  0.74875267447E+02  0.00000000000E+00 0.  1.
         25    2    1    2    0    0  0.31118703872E+01  0.16617860734E+02  0.55559007581E+02  0.13791231005E+03  0.12508862821E+03 0.  0.
          5    1    3    3  502    0  0.56945245158E+02  0.36255754199E+02  0.20808781059E+02  0.70765234598E+02  0.41800000000E+01 0.  1.
         -5    1    3    3    0  502 -0.53833374770E+02 -0.19637893465E+02  0.34750226523E+02  0.67147075456E+02  0.41800000000E+01 0.  1.
        -11    1    1    2    0    0  0.20312539835E+02  0.18033510010E+02 -0.19038494020E+02  0.33170333318E+02  0.00000000000E+00 0.  1.
         11    1    1    2    0    0 -0.23424410222E+02 -0.34651370744E+02  0.49996455563E+02  0.65184860647E+02  0.00000000000E+00 0. -1.
</event>
<event>
 7    1  0.2840156E-009  0.1169889E+03  0.7561462E-02  0.1248149E+00
         -1   -1    0    0    0  501 -0.00000000000E+00  0.00000000000E+00  0.16616789369E+03  0.16616789369E+03  0.00000000000E+00 0.  1.
          1   -1    0    0  501    0  0.00000000000E+00 -0.00000000000E+00 -0.12535109324E+03  0.12535109324E+03  0.00000000000E+00 0. -1.
         25    2    1    2    0    0  0.25572530629E+01  0.87526884397E+02 -0.16711724713E+02  0.15360513155E+03  0.12509100552E+03 0.  0.
          5    1    3    3  502    0  0.49379013406E+02  0.74921720971E+02  0.20744195731E+02  0.92191893867E+02  0.41800000000E+01 0. -1.
         -5    1    3    3    0  502 -0.46821760343E+02  0.12605163425E+02 -0.37455920444E+02  0.61413237685E+02  0.41800000000E+01 0. -1.
        -11    1    1    2    0    0  0.10836865199E+02 -0.78694642130E+02  0.13071842431E+01  0.79448052701E+02  0.00000000000E+00 0. -1.
         11    1    1    2    0    0 -0.13394118262E+02 -0.88322422667E+01  0.56221340923E+02  0.58465802677E+02  0.00000000000E+00 0.  1.
</event>
<event>
 7    1  0.2840156E-009  0.1158806E+03  0.7561462E-02  0.1250052E+00
         -2   -1    0    0    0  501 -0.00000000000E+00  0.00000000000E+00  0.36030568590E+02  0.36030568590E+02  0.00000000000E+00 0.  1.
          2   -1    0    0  501    0  0.00000000000E+00 -0.00000000000E+00 -0.48058355835E+03  0.48058355835E+03  0.00000000000E+00 0. -1.
         25    2    1    2    0    0  0.38821844536E+02  0.57750842570E+02 -0.33513647559E+03  0.36442579461E+03  0.12508959621E+03 0.  0.
          5    1    3    3  502    0  0.57996254078E+02 -0.20610086214E+02 -0.16277748104E+03  0.17407562114E+03  0.41800000000E+01 0. -1.
         -5    1    3    3    0  502 -0.19174409543E+02  0.78360928783E+02 -0.17235899454E+03  0.19035017347E+03  0.41800000000E+01 0. -1.
        -11    1    1    2    0    0 -0.19707561448E+02  0.76589677238E+01 -0.70740136241E+02  0.73832341425E+02  0.00000000000E+00 0. -1.
         11    1    1    2    0    0 -0.19114283088E+02 -0.65409810293E+02 -0.38676377936E+02  0.78355990906E+02  0.00000000000E+00 0.  1.
</event>
<event>
 7    1  0.2840156E-009  0.1154260E+03  0.7561462E-02  0.1250839E+00
          2   -1    0    0  501    0  0.00000000000E+00  0.00000000000E+00  0.26353495676E+03  0.26353495676E+03  0.00000000000E+00 0. -1.
         -2   -1    0    0    0  501 -0.00000000000E+00 -0.00000000000E+00 -0.58551325180E+02  0.58551325180E+02  0.00000000000E+00 0.  1.
         25    2    1    2    0    0  0.13188535542E+02 -0.49908747774E+02  0.15518709820E+03  0.20589954547E+03  0.12508703691E+03 0.  0.
          5    1    3    3  502    0  0.65623421694E+02 -0.84902363506E+01  0.59300515865E+02  0.88952465789E+02  0.41800000000E+01 0. -1.
         -5    1    3    3    0  502 -0.52434886151E+02 -0.41418511423E+02  0.95886582338E+02  0.11694707968E+03  0.41800000000E+01 0. -1.
        -11    1    1    2    0    0  0.30761575864E+01 -0.22844186812E+02 -0.50979630086E+01  0.23607389594E+02  0.00000000000E+00 0.  1.
         11    1    1    2    0    0 -0.16264693129E+02  0.72752934586E+02  0.54894496383E+02  0.92579346869E+02  0.00000000000E+00 0. -1.
</event>
<event>
 7    1  0.2840156E-009  0.8479592E+02  0.7561462E-02  0.1315967E+00
         -2   -1    0    0    0  501 -0.00000000000E+00  0.00000000000E+00  0.24970727134E+02  0.24970727134E+02  0.00000000000E+00 0. -1.
          2   -1    0    0  501    0  0.00000000000E+00 -0.00000000000E+00 -0.93574112032E+03  0.93574112032E+03  0.00000000000E+00 0.  1.
         25    2    1    2    0    0 -0.49960365463E+02 -0.12535138347E+02 -0.78553971589E+03  0.79710317304E+03  0.12509058885E+03 0.  0.
          5    1    3    3  502    0 -0.39475579590E+02 -0.53143707127E+02 -0.68336095247E+03  0.68657282115E+03  0.41800000000E+01 0.  1.
         -5    1    3    3    0  502 -0.10484785873E+02  0.40608568780E+02 -0.10217876342E+03  0.11053035189E+03  0.41800000000E+01 0.  1.
        -11    1    1    2    0    0  0.48711628645E+02  0.19928212740E+00 -0.13767696852E+03  0.14604044008E+03  0.00000000000E+00 0.  1.
         11    1    1    2    0    0  0.12487368182E+01  0.12335856220E+02  0.12446291224E+02  0.17568234332E+02  0.00000000000E+00 0. -1.
</event>
<event>
 7    1  0.2840156E-009  0.1082353E+03  0.7561462E-02  0.1263873E+00
         -1   -1    0    0    0  501 -0.00000000000E+00  0.00000000000E+00  0.14344381815E+02  0.14344381815E+02  0.00000000000E+00 0.  1.
          1   -1    0    0  501    0  0.00000000000E+00 -0.00000000000E+00 -0.12855102197E+04  0.12855102197E+04  0.00000000000E+00 0. -1.
         25    2    1    2    0    0  0.49241345919E+02 -0.29947120474E+02 -0.95777812909E+03  0.96763042295E+03  0.12509256848E+03 0.  0.
          5    1    3    3  502    0  0.41836279886E+02 -0.72486726865E+02 -0.43110929084E+03  0.43917797410E+03  0.41800000000E+01 0.  1.
         -5    1    3    3    0  502  0.74050660333E+01  0.42539606390E+02 -0.52666883825E+03  0.52845244886E+03  0.41800000000E+01 0.  1.
        -11    1    1    2    0    0  0.24098839420E+01  0.37072887863E+02 -0.42871629244E+02  0.56729032682E+02  0.00000000000E+00 0.  1.
         11    1    1    2    0    0 -0.51651229861E+02 -0.71257673881E+01 -0.27051607955E+03  0.27549514588E+03  0.00000000000E+00 0. -1.
</event>
<event>
 7    1  0.2840156E-009  0.2433849E+03  0.7561462E-02  0.1117558E+00
          2   -1    0    0  501    0  0.00000000000E+00  0.00000000000E+00  0.20977522739E+04  0.20977522739E+04  0.00000000000E+00 0. -1.
         -2   -1    0    0    0  501 -0.00000000000E+00 -0.00000000000E+00 -0.36095500740E+02  0.36095500740E+02  0.00000000000E+00 0.  1.
         25    2    1    2    0    0  0.13233126044E+03  0.19415069800E+03  0.13956956400E+04  0.14208515118E+04  0.12508654282E+03 0.  0.
          5    1    3    3  502    0  0.88893642023E+02  0.13311234879E+03  0.57950442071E+03  0.60121861499E+03  0.41800000000E+01 0. -1.
         -5    1    3    3    0  502  0.43437618421E+02  0.61038349217E+02  0.81619121929E+03  0.81963289686E+03  0.41800000000E+01 0. -1.
        -11    1    1    2    0    0 -0.93694978283E+02 -0.58239868692E+02  0.34764483917E+03  0.36472944145E+03  0.00000000000E+00 0. -1.
         11    1    1    2    0    0 -0.38636282161E+02 -0.13591082931E+03  0.31831629398E+03  0.34826682133E+03  0.00000000000E+00 0.  1.
</event>
<event>
 7    1  0.2840156E-009  0.1239542E+03  0.7561462E-02  0.1236713E+00
         -2   -1    0    0    0  501 -0.00000000000E+00  0.00000000000E+00  0.45588582114E+02  0.45588582114E+02  0.00000000000E+00 0.  1.
          2   -1    0    0  501    0  0.00000000000E+00 -0.00000000000E+00 -0.42159907347E+03  0.42159907347E+03  0.00000000000E+00 0. -1.
         25    2    1    2    0    0 -0.85336745774E+02  0.54953482592E+01 -0.17956566247E+03  0.23495351118E+03  0.12508703468E+03 0.  0.
          5    1    3    3  502    0 -0.54008565317E+02  0.64713169861E+02 -0.98982690674E+02  0.13007599676E+03  0.41800000000E+01 0.  1.
         -5    1    3    3    0  502 -0.31328180457E+02 -0.59217821602E+02 -0.80582971800E+02  0.10487751442E+03  0.41800000000E+01 0.  1.
        -11    1    1    2    0    0  0.54099321034E+02  0.18313084841E+02 -0.37068260137E+02  0.68089364238E+02  0.00000000000E+00 0. -1.
         11    1    1    2    0    0  0.31237424740E+02 -0.23808433100E+02 -0.15937656874E+03  0.16414478016E+03  0.00000000000E+00 0.  1.
</event>
<event>
 7    1  0.2840156E-009  0.9441642E+02  0.7561462E-02  0.1292496E+00
         -2   -1    0    0    0  501 -0.00000000000E+00  0.00000000000E+00  0.36128037987E+02  0.36128037987E+02  0.00000000000E+00 0.  1.
          2   -1    0    0  501    0  0.00000000000E+00 -0.00000000000E+00 -0.40616518358E+03  0.40616518358E+03  0.00000000000E+00 0. -1.
         25    2    1    2    0    0 -0.58071671287E+01 -0.15979290049E+02 -0.30052807307E+03  0.32596688696E+03  0.12509287665E+03 0.  0.
          5    1    3    3  502    0  0.53223339888E+02 -0.30389808771E+02 -0.11064614052E+03  0.12655554195E+03  0.41800000000E+01 0.  1.
         -5    1    3    3    0  502 -0.59030507016E+02  0.14410518722E+02 -0.18988193255E+03  0.19941134501E+03  0.41800000000E+01 0.  1.
        -11    1    1    2    0    0 -0.39367750678E+01 -0.24522801402E+02  0.98335508018E+01  0.26712631991E+02  0.00000000000E+00 0.  1.
         11    1    1    2    0    0  0.97439421965E+01  0.40502091451E+02 -0.79342623326E+02  0.89613702622E+02  0.00000000000E+00 0. -1.
</event>
<event>
 7    1  0.2840156E-009  0.3179995E+03  0.7561462E-02  0.1076574E+00
         -4   -1    0    0    0  501 -0.00000000000E+00  0.00000000000E+00  0.16074672401E+03  0.16074672401E+03  0.00000000000E+00 0.  1.
          4   -1    0    0  501    0  0.00000000000E+00 -0.00000000000E+00 -0.67924026296E+03  0.67924026296E+03  0.00000000000E+00 0. -1.
         25    2    1    2    0    0 -0.29027480206E+03 -0.98923237373E+02 -0.19175701384E+03  0.38270731129E+03  0.12509542819E+03 0.  0.
          5    1    3    3  502    0 -0.13594889148E+03  0.59617307481E+01 -0.39268769603E+02  0.14169386718E+03  0.41800000000E+01 0. -1.
         -5    1    3    3    0  502 -0.15432591058E+03 -0.10488496812E+03 -0.15248824423E+03  0.24101344411E+03  0.41800000000E+01 0. -1.
        -11    1    1    2    0    0  0.20841668163E+03  0.10040910423E+03 -0.19692933229E+03  0.30381024228E+03  0.00000000000E+00 0.  1.
         11    1    1    2    0    0  0.81858120427E+02 -0.14858668550E+01 -0.12980719282E+03  0.15346943340E+03  0.00000000000E+00 0. -1.
</event>
<event>
 7    1  0.2840156E-009  0.9886612E+02  0.7561462E-02  0.1282699E+00
         -2   -1    0    0    0  501 -0.00000000000E+00  0.00000000000E+00  0.39228791477E+02  0.39228791477E+02  0.00000000000E+00 0.  1.
          2   -1    0    0  501    0  0.00000000000E+00 -0.00000000000E+00 -0.51710642220E+03  0.51710642220E+03  0.00000000000E+00 0. -1.
         25    2    1    2    0    0  0.93890943454E+00  0.56433792042E+02 -0.39956355994E+03  0.42247425601E+03  0.12509118324E+03 0.  0.
          5    1    3    3  502    0 -0.90953380377E+01  0.93982690968E+02 -0.23417818316E+03  0.25253190935E+03  0.41800000000E+01 0. -1.
         -5    1    3    3    0  502  0.10034247472E+02 -0.37548898926E+02 -0.16538537678E+03  0.16994234665E+03  0.41800000000E+01 0. -1.
        -11    1    1    2    0    0 -0.15685836384E+02 -0.30327157779E+02  0.13922698508E+02  0.36873072774E+02  0.00000000000E+00 0.  1.
         11    1    1    2    0    0  0.14746926949E+02 -0.26106634263E+02 -0.92236769295E+02  0.96987884898E+02  0.00000000000E+00 0. -1.
</event>
<event>
 7    1  0.2840156E-009  0.1114798E+03  0.7561462E-02  0.1257854E+00
         -2   -1    0    0    0  501 -0.00000000000E+00  0.00000000000E+00  0.32192439239E+03  0.32192439239E+03  0.00000000000E+00 0. -1.
          2   -1    0    0  501    0  0.00000000000E+00 -0.00000000000E+00 -0.76184159903E+02  0.76184159903E+02  0.00000000000E+00 0.  1.
         25    2    1    2    0    0 -0.32963834772E+01  0.94780234313E+02  0.55126549866E+02  0.16636723140E+03  0.12507981541E+03 0.  0.
          5    1    3    3  502    0  0.15594454084E+01  0.98296889024E+02  0.88415359139E+02  0.13228551846E+03  0.41800000000E+01 0. -1.
         -5    1    3    3    0  502 -0.48558288856E+01 -0.35166547105E+01 -0.33288809273E+02  0.34081712946E+02  0.41800000000E+01 0. -1.
        -11    1    1    2    0    0  0.36118376914E+02 -0.46697585423E+02  0.14874499540E+03  0.16003210707E+03  0.00000000000E+00 0. -1.
         11    1    1    2    0    0 -0.32821993436E+02 -0.48082648890E+02  0.41868687217E+02  0.71709213821E+02  0.00000000000E+00 0.  1.
</event>
<event>
 7    1  0.2840156E-009  0.9791432E+02  0.7561462E-02  0.1284744E+00
         -2   -1    0    0    0  501 -0.00000000000E+00  0.00000000000E+00  0.81849118340E+02  0.81849118340E+02  0.00000000000E+00 0.  1.
          2   -1    0    0  501    0  0.00000000000E+00 -0.00000000000E+00 -0.20857774672E+03  0.20857774672E+03  0.00000000000E+00 0. -1.
         25    2    1    2    0    0  0.34152895870E+02  0.60180462824E+02 -0.36992334396E+02  0.14765686273E+03  0.12508400340E+03 0.  0.
          5    1    3    3  502    0  0.36641631038E+02  0.12234450621E+02 -0.76196945547E+02  0.85532086481E+02  0.41800000000E+01 0. -1.
         -5    1    3    3    0  502 -0.24887351677E+01  0.47946012203E+02  0.39204611151E+02  0.62124776252E+02  0.41800000000E+01 0. -1.
        -11    1    1    2    0    0  0.11774402149E+02 -0.61714705088E+02 -0.65718593713E+02  0.90919057022E+02  0.00000000000E+00 0.  1.
         11    1    1    2    0    0 -0.45927298019E+02  0.15342422639E+01 -0.24017700272E+02  0.51850945305E+02  0.00000000000E+00 0. -1.
</event>
<event>
 7    1  0.2840156E-009  0.1233881E+03  0.7561462E-02  0.1237610E+00
          2   -1    0    0  501    0  0.00000000000E+00  0.00000000000E+00  0.95334198194E+03  0.95334198194E+03  0.00000000000E+00 0. -1.
         -2   -1    0    0    0  501 -0.00000000000E+00 -0.00000000000E+00 -0.18416216944E+02  0.18416216944E+02  0.00000000000E+00 0.  1.
         25    2    1    2    0    0 -0.72565399796E+02 -0.19108435832E+02  0.57029348922E+03  0.58865220226E+03  0.12508349940E+03 0.  0.
          5    1    3    3  502    0  0.26219745717E+02  0.60542275720E+01  0.27268443093E+03  0.27404087288E+03  0.41800000000E+01 0. -1.
         -5    1    3    3    0  502 -0.98785145513E+02 -0.25162663404E+02  0.29760905828E+03  0.31461132938E+03  0.41800000000E+01 0. -1.
        -11    1    1    2    0    0  0.82791189931E+01 -0.33464080965E+02  0.10948263587E+03  0.11478168880E+03  0.00000000000E+00 0.  1.
         11    1    1    2    0    0  0.64286280803E+02  0.52572516797E+02  0.25514963991E+03  0.26832430782E+03  0.00000000000E+00 0. -1.
</event>
<event>
 7    1  0.2840156E-009  0.7765839E+02  0.7561462E-02  0.1335831E+00
          1   -1    0    0  501    0  0.00000000000E+00  0.00000000000E+00  0.76969648533E+02  0.76969648533E+02  0.00000000000E+00 0. -1.
         -1   -1    0    0    0  501 -0.00000000000E+00 -0.00000000000E+00 -0.16419131456E+03  0.16419131456E+03  0.00000000000E+00 0.  1.
         25    2    1    2    0    0 -0.13648161410E+02  0.23192398594E+02 -0.30864852633E+02  0.13162116217E+03  0.12508929427E+03 0.  0.
          5    1    3    3  502    0 -0.56915668161E+02 -0.17645387966E+02  0.82421011238E+01  0.60300560773E+02  0.41800000000E+01 0.  1.
         -5    1    3    3    0  502  0.43267506750E+02  0.40837786560E+02 -0.39106953757E+02  0.71320601397E+02  0.41800000000E+01 0.  1.
        -11    1    1    2    0    0  0.11214139992E+02  0.13332691576E+01  0.23442660003E+02  0.26021007867E+02  0.00000000000E+00 0. -1.
         11    1    1    2    0    0  0.24340214182E+01 -0.24525667752E+02 -0.79799473397E+02  0.83518793055E+02  0.00000000000E+00 0.  1.
</event>
<event>
 7    1  0.2840156E-009  0.1453657E+03  0.7561462E-02  0.1206286E+00
          2   -1    0    0  501    0  0.00000000000E+00  0.00000000000E+00  0.77612486717E+02  0.77612486717E+02  0.00000000000E+00 0. -1.
         -2   -1    0    0    0  501 -0.00000000000E+00 -0.00000000000E+00 -0.34062666270E+03  0.34062666270E+03  0.00000000000E+00 0.  1.
         25    2    1    2    0    0 -0.24367042975E+02  0.10334135089E+03 -0.65527462379E+02  0.17667657228E+03  0.12509026852E+03 0.  0.
          5    1    3    3  502    0  0.35174224847E+02  0.87114442131E+02 -0.65881032275E+02  0.11482131742E+03  0.41800000000E+01 0.  1.
         -5    1    3    3    0  502 -0.59541267822E+02  0.16226908762E+02  0.35356989600E+00  0.61855254857E+02  0.41800000000E+01 0.  1.
        -11    1    1    2    0    0 -0.27989019015E+02 -0.62345383896E+02 -0.12971440713E+03  0.14661568639E+03  0.00000000000E+00 0. -1.
         11    1    1    2    0    0  0.52356061990E+02 -0.40995966997E+02 -0.67772306472E+02  0.94946890743E+02  0.00000000000E+00 0.  1.
</event>
<event>
 7    1  0.2840156E-009  0.1937995E+03  0.7561462E-02  0.1155078E+00
          1   -1    0    0  501    0  0.00000000000E+00  0.00000000000E+00  0.96639182995E+02  0.96639182995E+02  0.00000000000E+00 0. -1.
         -1   -1    0    0    0  501 -0.00000000000E+00 -0.00000000000E+00 -0.43853304369E+03  0.43853304369E+03  0.00000000000E+00 0.  1.
         25    2    1    2    0    0  0.10257335339E+01 -0.16849833385E+03 -0.23920694867E+03  0.31821622668E+03  0.12509541155E+03 0.  0.
          5    1    3    3  502    0 -0.26749196424E+01  0.19801380666E+02 -0.33956620601E+02  0.39620378015E+02  0.41800000000E+01 0. -1.
         -5    1    3    3    0  502  0.37006531763E+01 -0.18829971452E+03 -0.20525032807E+03  0.27859584866E+03  0.41800000000E+01 0. -1.
        -11    1    1    2    0    0  0.29326918827E+02  0.88980433729E+02 -0.91767633951E+02  0.13114451722E+03  0.00000000000E+00 0.  1.
         11    1    1    2    0    0 -0.30352652361E+02  0.79517900122E+02 -0.10919278076E+02  0.85811482791E+02  0.00000000000E+00 0. -1.
</event>
<event>
 7    1  0.2840156E-009  0.1182485E+03  0.7561462E-02  0.1246015E+00
         -2   -1    0    0    0  501 -0.00000000000E+00  0.00000000000E+00  0.84762870241E+02  0.84762870241E+02  0.00000000000E+00 0.  1.
          2   -1    0    0  501    0  0.00000000000E+00 -0.00000000000E+00 -0.27668415369E+03  0.27668415369E+03  0.00000000000E+00 0. -1.
         25    2    1    2    0    0  0.32672885988E+02  0.34609316888E+02 -0.21774167390E+03  0.25558275381E+03  0.12508311317E+03 0.  0.
          5    1    3    3  502    0 -0.33964976960E+01  0.77469552130E+02 -0.12707643496E+03  0.14892602333E+03  0.41800000000E+01 0.  1.
         -5    1    3    3    0  502  0.36069383684E+02 -0.42860235243E+02 -0.90665238941E+02  0.10665673048E+03  0.41800000000E+01 0.  1.
        -11    1    1    2    0    0  0.29524818796E+02 -0.26993737870E+02  0.10180485484E+02  0.41279766155E+02  0.00000000000E+00 0.  1.
         11    1    1    2    0    0 -0.62197704784E+02 -0.76155790182E+01  0.15639904971E+02  0.64584503959E+02  0.00000000000E+00 0. -1.
</event>
<event>
 7    1  0.2840156E-009  0.2469714E+03  0.7561462E-02  0.1115234E+00
          1   -1    0    0  501    0  0.00000000000E+00  0.00000000000E+00  0.18895977234E+03  0.18895977234E+03  0.00000000000E+00 0. -1.
         -1   -1    0    0    0  501 -0.00000000000E+00 -0.00000000000E+00 -0.32690974023E+03  0.32690974023E+03  0.00000000000E+00 0.  1.
         25    2    1    2    0    0  0.44236840898E+02 -0.21674217351E+03 -0.42594851717E+02  0.25767307999E+03  0.12508807653E+03 0.  0.
          5    1    3    3  502    0  0.61046057127E+02 -0.33119125538E+02 -0.82512616887E+01  0.70064636491E+02  0.41800000000E+01 0.  1.
         -5    1    3    3    0  502 -0.16809216229E+02 -0.18362304797E+03 -0.34343590028E+02  0.18760844350E+03  0.41800000000E+01 0.  1.
        -11    1    1    2    0    0 -0.57542660595E+02  0.21899818937E+03 -0.90668663612E+02  0.24391017055E+03  0.00000000000E+00 0. -1.
         11    1    1    2    0    0  0.13305819696E+02 -0.22560158602E+01 -0.46864525645E+01  0.14286262037E+02  0.00000000000E+00 0.  1.
</event>
<event>
 7    1  0.2840156E-009  0.8673368E+02  0.7561462E-02  0.1310960E+00
         -1   -1    0    0    0  501 -0.00000000000E+00  0.00000000000E+00  0.27390913617E+02  0.27390913617E+02  0.00000000000E+00 0.  1.
          1   -1    0    0  501    0  0.00000000000E+00 -0.00000000000E+00 -0.49947218857E+03  0.49947218857E+03  0.00000000000E+00 0. -1.
         25    2    1    2    0    0 -0.22239397858E+01  0.31820474738E+02 -0.36176906533E+03  0.38411243853E+03  0.12509204725E+03 0.  0.
          5    1    3    3  502    0 -0.20458653464E+02  0.56903247566E+02 -0.78785061001E+02  0.99403693704E+02  0.41800000000E+01 0.  1.
         -5    1    3    3    0  502  0.18234713678E+02 -0.25082772828E+02 -0.28298400433E+03  0.28470874483E+03  0.41800000000E+01 0.  1.
        -11    1    1    2    0    0  0.18972931806E+02  0.19722434524E+02 -0.70138909681E+02  0.75288865153E+02  0.00000000000E+00 0. -1.
         11    1    1    2    0    0 -0.16748992020E+02 -0.51542909262E+02 -0.40173299943E+02  0.67461798502E+02  0.00000000000E+00 0.  1.
</event>
<event>
 7    1  0.2840156E-009  0.1095386E+03  0.7561462E-02  0.1261427E+00
         -3   -1    0    0    0  501 -0.00000000000E+00  0.00000000000E+00  0.95804117568E+02  0.95804117568E+02  0.00000000000E+00 0.  1.
          3   -1    0    0  501    0  0.00000000000E+00 -0.00000000000E+00 -0.16005713673E+03  0.16005713673E+03  0.00000000000E+00 0. -1.
         25    2    1    2    0    0  0.19920994837E+02  0.53810662828E+02 -0.86195660713E+01  0.13790188300E+03  0.12510075518E+03 0.  0.
          5    1    3    3  502    0  0.46026725133E+02 -0.91663213762E+01 -0.40867171620E+02  0.62370497756E+02  0.41800000000E+01 0. -1.
         -5    1    3    3    0  502 -0.26105730297E+02  0.62976984204E+02  0.32247605549E+02  0.75531385248E+02  0.41800000000E+01 0. -1.
        -11    1    1    2    0    0 -0.31512515985E+02  0.14274335779E+02 -0.23234047990E+02  0.41672728632E+02  0.00000000000E+00 0.  1.
         11    1    1    2    0    0  0.11591521148E+02 -0.68084998607E+02 -0.32399405100E+02  0.76286642662E+02  0.00000000000E+00 0. -1.
</event>
<event>
 7    1  0.2840156E-009  0.9484298E+02  0.7561462E-02  0.1291530E+00
         -1   -1    0    0    0  501 -0.00000000000E+00  0.00000000000E+00  0.33281767324E+03  0.33281767324E+03  0.00000000000E+00 0.  1.
          1   -1    0    0  501    0  0.00000000000E+00 -0.00000000000E+00 -0.52572697092E+02  0.52572697092E+02  0.00000000000E+00 0. -1.
         25    2    1    2    0    0  0.23809283760E+01 -0.52865008715E+02  0.77168220356E+02  0.15622554171E+03  0.12510438715E+03 0.  0.
          5    1    3    3  502    0 -0.21448406449E+02  0.12424629184E+02 -0.23109026762E+02  0.34145352062E+02  0.41800000000E+01 0. -1.
         -5    1    3    3    0  502  0.23829334825E+02 -0.65289637899E+02  0.10027724712E+03  0.12208018965E+03  0.41800000000E+01 0. -1.
        -11    1    1    2    0    0 -0.28345455235E+02  0.61369182061E+02  0.18349459387E+03  0.19555026801E+03  0.00000000000E+00 0. -1.
         11    1    1    2    0    0  0.25964526859E+02 -0.85041733459E+01  0.19582161914E+02  0.33614560603E+02  0.00000000000E+00 0.  1.
</event>
<event>
 7    1  0.2840156E-009  0.1315314E+03  0.7561462E-02  0.1225201E+00
          1   -1    0    0  501    0  0.00000000000E+00  0.00000000000E+00  0.10836904660E+04  0.10836904660E+04  0.00000000000E+00 0. -1.
         -1   -1    0    0    0  501 -0.00000000000E+00 -0.00000000000E+00 -0.18964494593E+02  0.18964494593E+02  0.00000000000E+00 0.  1.
         25    2    1    2    0    0  0.44590300651E+02  0.78329044256E+02  0.70639200358E+03  0.72302240541E+03  0.12509197378E+03 0.  0.
          5    1    3    3  502    0  0.60305952901E+02 -0.68441938045E+01  0.19307046115E+03  0.20242857089E+03  0.41800000000E+01 0.  1.
         -5    1    3    3    0  502 -0.15715652250E+02  0.85173238060E+02  0.51332154243E+03  0.52059383451E+03  0.41800000000E+01 0.  1.
        -11    1    1    2    0    0 -0.64492974604E+02 -0.54259874626E+02  0.18217929915E+03  0.20073060257E+03  0.00000000000E+00 0.  1.
         11    1    1    2    0    0  0.19902673953E+02 -0.24069169629E+02  0.17615466868E+03  0.17890195263E+03  0.00000000000E+00 0. -1.
</event>
<event>
 7    1  0.2840156E-009  0.1507058E+03  0.7561462E-02  0.1199608E+00
         -1   -1    0    0    0  501 -0.00000000000E+00  0.00000000000E+00  0.20846986818E+03  0.20846986818E+03  0.00000000000E+00 0.  1.
          1   -1    0    0  501    0  0.00000000000E+00 -0.00000000000E+00 -0.11721442567E+03  0.11721442567E+03  0.00000000000E+00 0. -1.
         25    2    1    2    0    0 -0.45442559482E+02  0.94819616399E+02  0.89522908823E+02  0.18632856256E+03  0.12509275021E+03 0.  0.
          5    1    3    3  502    0  0.11185043915E+02  0.10468448354E+03  0.51433076103E+02  0.11724666314E+03  0.41800000000E+01 0.  1.
         -5    1    3    3    0  502 -0.56627603397E+02 -0.98648671394E+01  0.38089832719E+02  0.69081899415E+02  0.41800000000E+01 0.  1.
        -11    1    1    2    0    0 -0.25538550531E+02 -0.44845648490E+02 -0.71222277401E+01  0.52096793373E+02  0.00000000000E+00 0. -1.
         11    1    1    2    0    0  0.70981110013E+02 -0.49973967909E+02  0.88547614244E+01  0.87258937921E+02  0.00000000000E+00 0.  1.
</event>
<event>
 7    1  0.2840156E-009  0.9343812E+02  0.7561462E-02  0.1294733E+00
          1   -1    0    0  501    0  0.00000000000E+00  0.00000000000E+00  0.13619939339E+03  0.13619939339E+03  0.00000000000E+00 0. -1.
         -1   -1    0    0    0  501 -0.00000000000E+00 -0.00000000000E+00 -0.11512708164E+03  0.11512708164E+03  0.00000000000E+00 0.  1.
         25    2    1    2    0    0  0.59689892800E+02  0.15404758769E+02 -0.60029620015E+00  0.13945449847E+03  0.12508799660E+03 0.  0.
          5    1    3    3  502    0  0.13925868266E+02 -0.46001597970E+02  0.30073508043E+02  0.56850374747E+02  0.41800000000E+01 0. -1.
         -5    1    3    3    0  502  0.45764024534E+02  0.61406356739E+02 -0.30673804244E+02  0.82604123724E+02  0.41800000000E+01 0. -1.
        -11    1    1    2    0    0 -0.31922180160E+02 -0.11305635085E+02  0.57273764068E+02  0.66536659229E+02  0.00000000000E+00 0. -1.
         11    1    1    2    0    0 -0.27767712641E+02 -0.40991236838E+01 -0.35601156116E+02  0.45335317326E+02  0.00000000000E+00 0.  1.
</event>
<event>
 7    1  0.2840156E-009  0.8470237E+02  0.7561462E-02  0.1316213E+00
          1   -1    0    0  501    0  0.00000000000E+00  0.00000000000E+00  0.16594342590E+03  0.16594342590E+03  0.00000000000E+00 0. -1.
         -1   -1    0    0    0  501 -0.00000000000E+00 -0.00000000000E+00 -0.80327131632E+02  0.80327131632E+02  0.00000000000E+00 0.  1.
         25    2    1    2    0    0  0.11208102105E+02 -0.33654411674E+02  0.69074244901E+02  0.14722882169E+03  0.12508730411E+03 0.  0.
          5    1    3    3  502    0  0.24576744387E+02  0.95373748727E+01 -0.28841455306E+02  0.39297325969E+02  0.41800000000E+01 0.  1.
         -5    1    3    3    0  502 -0.13368642283E+02 -0.43191786547E+02  0.97915700208E+02  0.10793149572E+03  0.41800000000E+01 0.  1.
        -11    1    1    2    0    0  0.30440038813E+02  0.44827628505E+02  0.13329801196E+02  0.55801396401E+02  0.00000000000E+00 0.  1.
         11    1    1    2    0    0 -0.41648140918E+02 -0.11173216831E+02  0.32122481678E+01  0.43240339437E+02  0.00000000000E+00 0. -1.
</event>
<event>
 7    1  0.2840156E-009  0.3259087E+03  0.7561462E-02  0.1072962E+00
          1   -1    0    0  501    0  0.00000000000E+00  0.00000000000E+00  0.10986332914E+04  0.10986332914E+04  0.00000000000E+00 0. -1.
         -1   -1    0    0    0  501 -0.00000000000E+00 -0.00000000000E+00 -0.10222740941E+03  0.10222740941E+03  0.00000000000E+00 0.  1.
         25    2    1    2    0    0  0.76407167545E-01 -0.31376782706E+03  0.42415456666E+03  0.54222291202E+03  0.12509330423E+03 0.  0.
          5    1    3    3  502    0  0.26409114501E+02 -0.15878197568E+02  0.82443082122E+02  0.88112954079E+02  0.41800000000E+01 0.  1.
         -5    1    3    3    0  502 -0.26332707333E+02 -0.29788962949E+03  0.34171148454E+03  0.45410995794E+03  0.41800000000E+01 0.  1.
        -11    1    1    2    0    0 -0.33116477640E+02  0.10018509224E+03  0.13941204338E+03  0.17484127555E+03  0.00000000000E+00 0.  1.
         11    1    1    2    0    0  0.33040070472E+02  0.21358273482E+03  0.43283927191E+03  0.48379651320E+03  0.00000000000E+00 0. -1.
</event>
<event>
 7    1  0.2840156E-009  0.1288379E+03  0.7561462E-02  0.1229190E+00
         -2   -1    0    0    0  501 -0.00000000000E+00  0.00000000000E+00  0.25689457910E+02  0.25689457910E+02  0.00000000000E+00 0.  1.
          2   -1    0    0  501    0  0.00000000000E+00 -0.00000000000E+00 -0.73683548551E+03  0.73683548551E+03  0.00000000000E+00 0. -1.
         25    2    1    2    0    0 -0.52205913289E+02 -0.70705301144E+02 -0.28753918392E+03  0.32565630662E+03  0.12509416757E+03 0.  0.
          5    1    3    3  502    0  0.26956809011E+02  0.17396654877E+02 -0.85562747478E+02  0.91475512073E+02  0.41800000000E+01 0.  1.
         -5    1    3    3    0  502 -0.79162722300E+02 -0.88101956021E+02 -0.20197643644E+03  0.23418079455E+03  0.41800000000E+01 0.  1.
        -11    1    1    2    0    0  0.60991288999E+02  0.35607580336E+02 -0.27616435602E+03  0.28505190518E+03  0.00000000000E+00 0.  1.
         11    1    1    2    0    0 -0.87853757094E+01  0.35097720807E+02 -0.14744248767E+03  0.15181673163E+03  0.00000000000E+00 0. -1.
</event>
<event>
 7    1  0.2840156E-009  0.1009981E+03  0.7561462E-02  0.1278211E+00
         -1   -1    0    0    0  501 -0.00000000000E+00  0.00000000000E+00  0.17800422976E+03  0.17800422976E+03  0.00000000000E+00 0.  1.
          1   -1    0    0  501    0  0.00000000000E+00 -0.00000000000E+00 -0.70791795744E+02  0.70791795744E+02  0.00000000000E+00 0. -1.
         25    2    1    2    0    0  0.27254178604E+01  0.24014242638E+02  0.84398079991E+02  0.15282378697E+03  0.12509181510E+03 0.  0.
          5    1    3    3  502    0  0.56013638585E+02 -0.18438539540E+02  0.37591347411E+02  0.70057756516E+02  0.41800000000E+01 0.  1.
         -5    1    3    3    0  502 -0.53288220724E+02  0.42452782178E+02  0.46806732580E+02  0.82766030456E+02  0.41800000000E+01 0.  1.
        -11    1    1    2    0    0 -0.89053764495E+01 -0.48527640358E+02 -0.14025275971E+02  0.51292747776E+02  0.00000000000E+00 0. -1.
         11    1    1    2    0    0  0.61799585891E+01  0.24513397720E+02  0.36839629991E+02  0.44679490751E+02  0.00000000000E+00 0.  1.
</event>
<event>
 7    1  0.2840156E-009  0.1070016E+03  0.7561462E-02  0.1266225E+00
          1   -1    0    0  501    0  0.00000000000E+00  0.00000000000E+00  0.19881417250E+03  0.19881417250E+03  0.00000000000E+00 0. -1.
         -1   -1    0    0    0  501 -0.00000000000E+00 -0.00000000000E+00 -0.10168762858E+03  0.10168762858E+03  0.00000000000E+00 0.  1.
         25    2    1    2    0    0  0.38036920782E+02  0.48141509630E+02  0.12374855849E+03  0.18634758317E+03  0.12508918312E+03 0.  0.
          5    1    3    3  502    0 -0.45828873129E+02  0.24235062877E+02  0.45194087419E+02  0.68902843357E+02  0.41800000000E+01 0.  1.
         -5    1    3    3    0  502  0.83865793911E+02  0.23906446753E+02  0.78554471070E+02  0.11744473981E+03  0.41800000000E+01 0.  1.
        -11    1    1    2    0    0  0.94462627009E+01 -0.10233435588E+02 -0.47817430241E+02  0.49804233935E+02  0.00000000000E+00 0.  1.
         11    1    1    2    0    0 -0.47483183483E+02 -0.37908074042E+02  0.21195415671E+02  0.64349983968E+02  0.00000000000E+00 0. -1.
</event>
<event>
 7    1  0.2840156E-009  0.1498105E+03  0.7561462E-02  0.1200706E+00
         -2   -1    0    0    0  501 -0.00000000000E+00  0.00000000000E+00  0.11015099812E+03  0.11015099812E+03  0.00000000000E+00 0.  1.
          2   -1    0    0  501    0  0.00000000000E+00 -0.00000000000E+00 -0.26028479044E+03  0.26028479044E+03  0.00000000000E+00 0. -1.
         25    2    1    2    0    0  0.76768410172E+02  0.10364622928E+03 -0.62854952031E+02  0.19035028222E+03  0.12508619149E+03 0.  0.
          5    1    3    3  502    0  0.88739422851E+02  0.11460299008E+03 -0.22609860310E+02  0.14675560870E+03  0.41800000000E+01 0.  1.
         -5    1    3    3    0  502 -0.11971012678E+02 -0.10956760794E+02 -0.40245091721E+02  0.43594673520E+02  0.41800000000E+01 0.  1.
        -11    1    1    2    0    0 -0.45073052851E+02 -0.94773640804E+02 -0.99845549337E+02  0.14485426058E+03  0.00000000000E+00 0. -1.
         11    1    1    2    0    0 -0.31695357321E+02 -0.88725884787E+01  0.12566709043E+02  0.35231245765E+02  0.00000000000E+00 0.  1.
</event>
<event>
 7    1  0.2840156E-009  0.1791490E+03  0.7561462E-02  0.1168629E+00
          2   -1    0    0  501    0  0.00000000000E+00  0.00000000000E+00  0.18359753862E+03  0.18359753862E+03  0.00000000000E+00 0. -1.
         -2   -1    0    0    0  501 -0.00000000000E+00 -0.00000000000E+00 -0.23537490077E+03  0.23537490077E+03  0.00000000000E+00 0.  1.
         25    2    1    2    0    0 -0.17410164523E+03  0.20140550082E+02  0.16139075507E+01  0.21532458787E+03  0.12508016954E+03 0.  0.
          5    1    3    3  502    0 -0.46855763362E+02  0.21456992829E+02 -0.55436435995E+02  0.75805909646E+02  0.41800000000E+01 0. -1.
         -5    1    3    3    0  502 -0.12724588187E+03 -0.13164427471E+01  0.57050343546E+02  0.13951867822E+03  0.41800000000E+01 0. -1.
        -11    1    1    2    0    0  0.10874532510E+03  0.59329069472E+01 -0.72379959127E+02  0.13076545262E+03  0.00000000000E+00 0. -1.
         11    1    1    2    0    0  0.65356320135E+02 -0.26073457030E+02  0.18988689430E+02  0.72882398899E+02  0.00000000000E+00 0.  1.
</event>
<event>
 7    1  0.2840156E-009  0.9978291E+02  0.7561462E-02  0.1280753E+00
         -3   -1    0    0    0  501 -0.00000000000E+00  0.00000000000E+00  0.34537068027E+02  0.34537068027E+02  0.00000000000E+00 0.  1.
          3   -1    0    0  501    0  0.00000000000E+00 -0.00000000000E+00 -0.44035226659E+03  0.44035226659E+03  0.00000000000E+00 0. -1.
         25    2    1    2    0    0  0.39824729211E+02 -0.41328129432E+02 -0.17629770211E+03  0.22365734618E+03  0.12509078859E+03 0.  0.
          5    1    3    3  502    0 -0.29201738205E+02 -0.24472080779E+02 -0.56276356755E+01  0.38739733287E+02  0.41800000000E+01 0.  1.
         -5    1    3    3    0  502  0.69026467416E+02 -0.16856048654E+02 -0.17067006644E+03  0.18491761289E+03  0.41800000000E+01 0.  1.
        -11    1    1    2    0    0 -0.27375405686E+01 -0.19025498701E+02 -0.11485665016E+03  0.11645391284E+03  0.00000000000E+00 0. -1.
         11    1    1    2    0    0 -0.37087188642E+02  0.60353628134E+02 -0.11466084629E+03  0.13477807560E+03  0.00000000000E+00 0.  1.
</event>
<event>
 7    1  0.2840156E-009  0.1120721E+03  0.7561462E-02  0.1256780E+00
          1   -1    0    0  501    0  0.00000000000E+00  0.00000000000E+00  0.11238858927E+03  0.11238858927E+03  0.00000000000E+00 0. -1.
         -1   -1    0    0    0  501 -0.00000000000E+00 -0.00000000000E+00 -0.32806408944E+03  0.32806408944E+03  0.00000000000E+00 0.  1.
         25    2    1    2    0    0 -0.30190235790E+02 -0.85975502463E+02  0.34890648597E+02  0.15864592874E+03  0.12509171030E+03 0.  0.
          5    1    3    3  502    0  0.14356298543E+01 -0.41285182978E+02 -0.45305387549E+02  0.61453868125E+02  0.41800000000E+01 0.  1.
         -5    1    3    3    0  502 -0.31625865645E+02 -0.44690319485E+02  0.80196036146E+02  0.97192060617E+02  0.41800000000E+01 0.  1.
        -11    1    1    2    0    0 -0.28363775448E+02  0.54007936458E+02 -0.13933219996E+03  0.15210135734E+03  0.00000000000E+00 0.  1.
         11    1    1    2    0    0  0.58554011239E+02  0.31967566005E+02 -0.11123394881E+03  0.12970539262E+03  0.00000000000E+00 0. -1.
</event>
<event>
 7    1  0.2840156E-009  0.9758661E+02  0.7561462E-02  0.1285454E+00
          3   -1    0    0  501    0  0.00000000000E+00  0.00000000000E+00  0.23591523527E+03  0.23591523527E+03  0.00000000000E+00 0. -1.
         -3   -1    0    0    0  501 -0.00000000000E+00 -0.00000000000E+00 -0.62759825086E+02  0.62759825086E+02  0.00000000000E+00 0.  1.
         25    2    1    2    0    0  0.14946576961E+02 -0.58444265168E+02  0.91572059125E+02  0.16634813302E+03  0.12508847691E+03 0.  0.
          5    1    3    3  502    0  0.26707703925E+02 -0.72026813040E+02  0.41970156766E+01  0.77047067344E+02  0.41800000000E+01 0. -1.
         -5    1    3    3    0  502 -0.11761126964E+02  0.13582547872E+02  0.87375043448E+02  0.89301065681E+02  0.41800000000E+01 0. -1.
        -11    1    1    2    0    0  0.83932824113E+01  0.72210468472E+02  0.74982355238E+02  0.10443731394E+03  0.00000000000E+00 0. -1.
         11    1    1    2    0    0 -0.23339859372E+02 -0.13766203305E+02  0.66009958171E+01  0.27889613384E+02  0.00000000000E+00 0.  1.
</event>
<event>
 7    1  0.2840156E-009  0.1137997E+03  0.7561462E-02  0.1253691E+00
         -2   -1    0    0    0  501 -0.00000000000E+00  0.00000000000E+00  0.23467849330E+02  0.23467849330E+02  0.00000000000E+00 0.  1.
          2   -1    0    0  501    0  0.00000000000E+00 -0.00000000000E+00 -0.66366841856E+03  0.66366841856E+03  0.00000000000E+00 0. -1.
         25    2    1    2    0    0 -0.49980887262E+02  0.30338456988E+02 -0.30175841667E+03  0.33184954556E+03  0.12508983890E+03 0.  0.
          5    1    3    3  502    0 -0.30183248159E+02  0.71095302456E+02 -0.25554192851E+03  0.26699198514E+03  0.41800000000E+01 0.  1.
         -5    1    3    3    0  502 -0.19797639103E+02 -0.40756845468E+02 -0.46216488160E+02  0.64857560426E+02  0.41800000000E+01 0.  1.
        -11    1    1    2    0    0  0.59886457487E+02 -0.53027248043E+02 -0.29074226513E+03  0.30154492461E+03  0.00000000000E+00 0. -1.
         11    1    1    2    0    0 -0.99055702252E+01  0.22688791056E+02 -0.47699887435E+02  0.53741797722E+02  0.00000000000E+00 0.  1.
</event>
<event>
 7    1  0.2840156E-009  0.8504715E+02  0.7561462E-02  0.1315309E+00
         -1   -1    0    0    0  501 -0.00000000000E+00  0.00000000000E+00  0.32760051574E+03  0.32760051574E+03  0.00000000000E+00 0.  1.
          1   -1    0    0  501    0  0.00000000000E+00 -0.00000000000E+00 -0.48496602596E+02  0.48496602596E+02  0.00000000000E+00 0. -1.
         25    2    1    2    0    0 -0.38338351676E+01  0.25359405370E+02  0.24485075439E+03  0.27614771746E+03  0.12509145534E+03 0.  0.
          5    1    3    3  502    0  0.27526705233E+02 -0.96100467370E+01  0.28461125317E+01  0.29591303720E+02  0.41800000000E+01 0.  1.
         -5    1    3    3    0  502 -0.31360540401E+02  0.34969452107E+02  0.24200464186E+03  0.24655641374E+03  0.41800000000E+01 0.  1.
        -11    1    1    2    0    0 -0.22180828484E+02  0.27044452952E+02  0.83159104465E+01  0.35951995136E+02  0.00000000000E+00 0. -1.
         11    1    1    2    0    0  0.26014663651E+02 -0.52403858322E+02  0.25937248310E+02  0.63997405743E+02  0.00000000000E+00 0.  1.
</event>
<event>
 7    1  0.2840156E-009  0.1159098E+03  0.7561462E-02  0.1250001E+00
          2   -1    0    0  501    0  0.00000000000E+00  0.00000000000E+00  0.12927084376E+03  0.12927084376E+03  0.00000000000E+00 0.  1.
         -2   -1    0    0    0  501 -0.00000000000E+00 -0.00000000000E+00 -0.15109420665E+03  0.15109420665E+03  0.00000000000E+00 0. -1.
         25    2    1    2    0    0 -0.37925823465E+02 -0.68341802958E+02 -0.52058262388E+02  0.15641919299E+03  0.12509169092E+03 0.  0.
          5    1    3    3  502    0 -0.42870826767E+02 -0.95722305437E+02 -0.94933127856E+01  0.10539574438E+03  0.41800000000E+01 0.  1.
         -5    1    3    3    0  502  0.49450033023E+01  0.27380502480E+02 -0.42564949602E+02  0.51023448613E+02  0.41800000000E+01 0.  1.
        -11    1    1    2    0    0  0.52859122529E+02  0.38653941559E+02  0.52511174860E+02  0.83938295895E+02  0.00000000000E+00 0.  1.
         11    1    1    2    0    0 -0.14933299064E+02  0.29687861399E+02 -0.22276275357E+02  0.40007561525E+02  0.00000000000E+00 0. -1.
</event>
<event>
 7    1  0.2840156E-009  0.2003567E+03  0.7561462E-02  0.1149438E+00
         -2   -1    0    0    0  501 -0.00000000000E+00  0.00000000000E+00  0.27357736250E+03  0.27357736250E+03  0.00000000000E+00 0.  1.
          2   -1    0    0  501    0  0.00000000000E+00 -0.00000000000E+00 -0.17592674788E+03  0.17592674788E+03  0.00000000000E+00 0. -1.
         25    2    1    2    0    0  0.15652448824E+03 -0.93601335292E+02  0.10662139101E+03  0.24551969530E+03  0.12510265533E+03 0.  0.
          5    1    3    3  502    0 -0.18787574832E+02 -0.74964959896E+01 -0.39628325884E+01  0.21032043703E+02  0.41800000000E+01 0.  1.
         -5    1    3    3    0  502  0.17531206307E+03 -0.86104839302E+02  0.11058422360E+03  0.22448765160E+03  0.41800000000E+01 0.  1.
        -11    1    1    2    0    0 -0.21855200110E+02  0.22563924930E+01  0.29490112759E+02  0.36775097953E+02  0.00000000000E+00 0. -1.
         11    1    1    2    0    0 -0.13466928813E+03  0.91344942799E+02 -0.38460889159E+02  0.16720931713E+03  0.00000000000E+00 0.  1.
</event>
<event>
 7    1  0.2840156E-009  0.1204666E+03  0.7561462E-02  0.1242329E+00
          1   -1    0    0  501    0  0.00000000000E+00  0.00000000000E+00  0.91418968944E+02  0.91418968944E+02  0.00000000000E+00 0. -1.
         -1   -1    0    0    0  501 -0.00000000000E+00 -0.00000000000E+00 -0.23420187174E+03  0.23420187174E+03  0.00000000000E+00 0.  1.
         25    2    1    2    0    0 -0.48847708642E+02 -0.61957840217E+02 -0.75162628592E+01  0.14808566773E+03  0.12509195888E+03 0.  0.
          5    1    3    3  502    0  0.37052584661E+02 -0.68958618229E+01 -0.23664862580E+02  0.44698378732E+02  0.41800000000E+01 0.  1.
         -5    1    3    3    0  502 -0.85900293303E+02 -0.55061978394E+02  0.16148599721E+02  0.10338728900E+03  0.41800000000E+01 0.  1.
        -11    1    1    2    0    0  0.52194257702E+02  0.72783551121E+02 -0.76806360172E+02  0.11798687560E+03  0.00000000000E+00 0.  1.
         11    1    1    2    0    0 -0.33465490594E+01 -0.10825710903E+02 -0.58460279768E+02  0.59548297354E+02  0.00000000000E+00 0. -1.
</event>
<event>
 7    1  0.2840156E-009  0.1704960E+03  0.7561462E-02  0.1177332E+00
          3   -1    0    0  501    0  0.00000000000E+00  0.00000000000E+00  0.48235095786E+03  0.48235095786E+03  0.00000000000E+00 0. -1.
         -3   -1    0    0    0  501 -0.00000000000E+00 -0.00000000000E+00 -0.62363044894E+02  0.62363044894E+02  0.00000000000E+00 0.  1.
         25    2    1    2    0    0  0.12756717137E+03 -0.34414361697E+02  0.18605449811E+03  0.26023252407E+03  0.12508780441E+03 0.  0.
          5    1    3    3  502    0  0.15010541718E+03 -0.15461887576E+02  0.16591722790E+03  0.22431385412E+03  0.41800000000E+01 0.  1.
         -5    1    3    3    0  502 -0.22538245809E+02 -0.18952474120E+02  0.20137270214E+02  0.35918669951E+02  0.41800000000E+01 0.  1.
        -11    1    1    2    0    0 -0.78939767672E+02  0.65501441246E+02  0.12996937578E+03  0.16557162911E+03  0.00000000000E+00 0.  1.
         11    1    1    2    0    0 -0.48627403703E+02 -0.31087079550E+02  0.10396403907E+03  0.11890984958E+03  0.00000000000E+00 0. -1.
</event>
<event>
 7    1  0.2840156E-009  0.7623852E+02  0.7561462E-02  0.1340078E+00
          2   -1    0    0  501    0  0.00000000000E+00  0.00000000000E+00  0.10162514650E+02  0.10162514650E+02  0.00000000000E+00 0.  1.
         -2   -1    0    0    0  501 -0.00000000000E+00 -0.00000000000E+00 -0.12125013621E+04  0.12125013621E+04  0.00000000000E+00 0. -1.
         25    2    1    2    0    0  0.11843777855E+02 -0.10630785946E+02 -0.73172310613E+03  0.74250838858E+03  0.12508682738E+03 0.  0.
          5    1    3    3  502    0  0.29379040487E+02 -0.21120249789E+02 -0.71458842074E+03  0.71551609096E+03  0.41800000000E+01 0. -1.
         -5    1    3    3    0  502 -0.17535262632E+02  0.10489463843E+02 -0.17134685391E+02  0.26992297618E+02  0.41800000000E+01 0. -1.
        -11    1    1    2    0    0  0.82684541546E+01  0.50164692851E+02 -0.24439642556E+03  0.24962867738E+03  0.00000000000E+00 0. -1.
         11    1    1    2    0    0 -0.20112232010E+02 -0.39533906905E+02 -0.22621931580E+03  0.23052681083E+03  0.00000000000E+00 0.  1.
</event>
<event>
 7    1  0.2840156E-009  0.1758432E+03  0.7561462E-02  0.1171888E+00
         -2   -1    0    0    0  501 -0.00000000000E+00  0.00000000000E+00  0.53981228991E+03  0.53981228991E+03  0.00000000000E+00 0. -1.
          2   -1    0    0  501    0  0.00000000000E+00 -0.00000000000E+00 -0.72626271541E+02  0.72626271541E+02  0.00000000000E+00 0.  1.
         25    2    1    2    0    0 -0.12646283098E+03 -0.85676517828E+02  0.14707109437E+03  0.24619175746E+03  0.12508861385E+03 0.  0.
          5    1    3    3  502    0  0.23094792389E+02 -0.28957005537E+02  0.24047417205E+02  0.44357956213E+02  0.41800000000E+01 0. -1.
         -5    1    3    3    0  502 -0.14955762337E+03 -0.56719512291E+02  0.12302367717E+03  0.20183380125E+03  0.41800000000E+01 0. -1.
        -11    1    1    2    0    0  0.14327950391E+02  0.19459108969E+01 -0.24187348925E+01  0.14660389153E+02  0.00000000000E+00 0.  1.
         11    1    1    2    0    0  0.11213488059E+03  0.83730606931E+02  0.32253365889E+03  0.35158641484E+03  0.00000000000E+00 0. -1.
</event>
<event>
 7    1  0.2840156E-009  0.1837256E+03  0.7561462E-02  0.1164245E+00
         -4   -1    0    0    0  501 -0.00000000000E+00  0.00000000000E+00  0.24224004786E+03  0.24224004786E+03  0.00000000000E+00 0.  1.
          4   -1    0    0  501    0  0.00000000000E+00 -0.00000000000E+00 -0.18484490782E+03  0.18484490782E+03  0.00000000000E+00 0. -1.
         25    2    1    2    0    0  0.73584379204E+02  0.13774798001E+03 -0.62095463009E+02  0.20950519450E+03  0.12508962042E+03 0.  0.
          5    1    3    3  502    0  0.76663271304E+02  0.26857811037E+02 -0.55156912224E+02  0.98276938022E+02  0.41800000000E+01 0. -1.
         -5    1    3    3    0  502 -0.30788920997E+01  0.11089016898E+03 -0.69385507843E+01  0.11122825648E+03  0.41800000000E+01 0. -1.
        -11    1    1    2    0    0  0.43098094031E+01 -0.74871750893E+02  0.80847549625E+02  0.11027547243E+03  0.00000000000E+00 0.  1.
         11    1    1    2    0    0 -0.77894188608E+02 -0.62876229121E+02  0.38643053420E+02  0.10730428875E+03  0.00000000000E+00 0. -1.
</event>
<event>
 7    1  0.2840156E-009  0.9962172E+02  0.7561462E-02  0.1281093E+00
          2   -1    0    0  501    0  0.00000000000E+00  0.00000000000E+00  0.77349588256E+02  0.77349588256E+02  0.00000000000E+00 0. -1.
         -2   -1    0    0    0  501 -0.00000000000E+00 -0.00000000000E+00 -0.20449810421E+03  0.20449810421E+03  0.00000000000E+00 0.  1.
         25    2    1    2    0    0  0.34769396434E+02  0.33550174766E+02 -0.12821670853E+03  0.18553234151E+03  0.12509276655E+03 0.  0.
          5    1    3    3  502    0  0.51594125451E+02  0.58891261728E+02 -0.32261403411E+02  0.84784462250E+02  0.41800000000E+01 0.  1.
         -5    1    3    3    0  502 -0.16824729016E+02 -0.25341086962E+02 -0.95955305116E+02  0.10074787926E+03  0.41800000000E+01 0.  1.
        -11    1    1    2    0    0  0.22661280923E+02  0.17371668210E+01 -0.14729680351E+02  0.27083479926E+02  0.00000000000E+00 0.  1.
         11    1    1    2    0    0 -0.57430677358E+02 -0.35287341587E+02  0.15797872923E+02  0.69231871035E+02  0.00000000000E+00 0. -1.
</event>
<event>
 7    1  0.2840156E-009  0.1027162E+03  0.7561462E-02  0.1274686E+00
          1   -1    0    0  501    0  0.00000000000E+00  0.00000000000E+00  0.31866305069E+03  0.31866305069E+03  0.00000000000E+00 0. -1.
         -1   -1    0    0    0  501 -0.00000000000E+00 -0.00000000000E+00 -0.44184131080E+02  0.44184131080E+02  0.00000000000E+00 0.  1.
         25    2    1    2    0    0  0.52200192689E+02  0.36501693452E+01  0.16085781803E+03  0.21038365109E+03  0.12509140327E+03 0.  0.
          5    1    3    3  502    0 -0.12611365452E+02  0.35313508429E+02  0.12331629742E+03  0.12895918744E+03  0.41800000000E+01 0.  1.
         -5    1    3    3    0  502  0.64811558141E+02 -0.31663339083E+02  0.37541520607E+02  0.81424463646E+02  0.41800000000E+01 0.  1.
        -11    1    1    2    0    0 -0.57728334027E+02  0.27406615703E+02  0.48908695777E+02  0.80472005421E+02  0.00000000000E+00 0.  1.
         11    1    1    2    0    0  0.55281413385E+01 -0.31056785049E+02  0.64712405807E+02  0.71991525262E+02  0.00000000000E+00 0. -1.
</event>
<event>
 7    1  0.2840156E-009  0.1099835E+03  0.7561462E-02  0.1260600E+00
          1   -1    0    0  501    0  0.00000000000E+00  0.00000000000E+00  0.15324528656E+04  0.15324528656E+04  0.00000000000E+00 0. -1.
         -1   -1    0    0    0  501 -0.00000000000E+00 -0.00000000000E+00 -0.10249946528E+02  0.10249946528E+02  0.00000000000E+00 0.  1.
         25    2    1    2    0    0 -0.14437879555E+02  0.55083666757E+02  0.10244016415E+04  0.10335808912E+04  0.12509225811E+03 0.  0.
          5    1    3    3  502    0 -0.42443844269E+02  0.69484035262E+02  0.39233957645E+03  0.40072100858E+03  0.41800000000E+01 0. -1.
         -5    1    3    3    0  502  0.28005964714E+02 -0.14400368505E+02  0.63206206500E+03  0.63285988267E+03  0.41800000000E+01 0. -1.
        -11    1    1    2    0    0  0.49800125140E+02 -0.12550743936E+02  0.22891395856E+03  0.23460429250E+03  0.00000000000E+00 0. -1.
         11    1    1    2    0    0 -0.35362245586E+02 -0.42532922821E+02  0.26888731905E+03  0.27451762836E+03  0.00000000000E+00 0.  1.
</event>
<event>
 7    1  0.2840156E-009  0.6298737E+02  0.7561462E-02  0.1385706E+00
          1   -1    0    0  501    0  0.00000000000E+00  0.00000000000E+00  0.61030178623E+02  0.61030178623E+02  0.00000000000E+00 0. -1.
         -1   -1    0    0    0  501 -0.00000000000E+00 -0.00000000000E+00 -0.23283415255E+03  0.23283415255E+03  0.00000000000E+00 0.  1.
         25    2    1    2    0    0 -0.65344267058E+01 -0.39782394091E+02 -0.14305125803E+03  0.19425769407E+03  0.12508817557E+03 0.  0.
          5    1    3    3  502    0 -0.33214556927E+01 -0.21637424642E+01 -0.15448156157E+03  0.15458893593E+03  0.41800000000E+01 0.  1.
         -5    1    3    3    0  502 -0.32129710131E+01 -0.37618651627E+02  0.11430303535E+02  0.39668758133E+02  0.41800000000E+01 0.  1.
        -11    1    1    2    0    0  0.56920617046E+00 -0.21072978693E+02  0.13723444165E+02  0.25154072164E+02  0.00000000000E+00 0. -1.
         11    1    1    2    0    0  0.59652205353E+01  0.60855372784E+02 -0.42476160058E+02  0.74452564939E+02  0.00000000000E+00 0.  1.
</event>
<event>
 7    1  0.2840156E-009  0.1391526E+03  0.7561462E-02  0.1214474E+00
         -2   -1    0    0    0  501 -0.00000000000E+00  0.00000000000E+00  0.31460705954E+02  0.31460705954E+02  0.00000000000E+00 0.  1.
          2   -1    0    0  501    0  0.00000000000E+00 -0.00000000000E+00 -0.94792884002E+03  0.94792884002E+03  0.00000000000E+00 0. -1.
         25    2    1    2    0    0 -0.24107753425E+02 -0.10091128715E+03 -0.73099821135E+03  0.74884495603E+03  0.12508441764E+03 0.  0.
          5    1    3    3  502    0  0.50017917713E+02 -0.43660188197E+02 -0.36610444537E+03  0.37209937039E+03  0.41800000000E+01 0. -1.
         -5    1    3    3    0  502 -0.74125671139E+02 -0.57251098949E+02 -0.36489376598E+03  0.37674558564E+03  0.41800000000E+01 0. -1.
        -11    1    1    2    0    0  0.40164367777E+02  0.47244516485E+02 -0.37838432449E+02  0.72642740498E+02  0.00000000000E+00 0.  1.
         11    1    1    2    0    0 -0.16056614351E+02  0.53666770661E+02 -0.14763149027E+03  0.15790184944E+03  0.00000000000E+00 0. -1.
</event>
<event>
 7    1  0.2840156E-009  0.9385530E+02  0.7561462E-02  0.1293775E+00
         -1   -1    0    0    0  501 -0.00000000000E+00  0.00000000000E+00  0.36024851770E+03  0.36024851770E+03  0.00000000000E+00 0.  1.
          1   -1    0    0  501    0  0.00000000000E+00 -0.00000000000E+00 -0.49479020171E+02  0.49479020171E+02  0.00000000000E+00 0. -1.
         25    2    1    2    0    0 -0.58327406676E+02  0.42402035032E+02  0.12705623531E+03  0.19233042658E+03  0.12509071554E+03 0.  0.
          5    1    3    3  502    0  0.60189244338E+01 -0.25992618275E+01  0.11200008738E+03  0.11226965568E+03  0.41800000000E+01 0.  1.
         -5    1    3    3    0  502 -0.64346331110E+02  0.45001296860E+02  0.15056147928E+02  0.80060770898E+02  0.41800000000E+01 0.  1.
        -11    1    1    2    0    0  0.30127605394E+02  0.17680021236E+02  0.18889951615E+02  0.39712542474E+02  0.00000000000E+00 0. -1.
         11    1    1    2    0    0  0.28199801282E+02 -0.60082056268E+02  0.16482331060E+03  0.17768456882E+03  0.00000000000E+00 0.  1.
</event>
<event>
 7    1  0.2840156E-009  0.9899030E+02  0.7561462E-02  0.1282434E+00
          3   -1    0    0  501    0  0.00000000000E+00  0.00000000000E+00  0.35207869869E+02  0.35207869869E+02  0.00000000000E+00 0. -1.
         -3   -1    0    0    0  501 -0.00000000000E+00 -0.00000000000E+00 -0.51733875091E+03  0.51733875091E+03  0.00000000000E+00 0.  1.
         25    2    1    2    0    0  0.15092734978E+01 -0.17121482273E+02 -0.43795361855E+03  0.45579049818E+03  0.12508470397E+03 0.  0.
          5    1    3    3  502    0 -0.28270374100E+02 -0.56403518041E+02 -0.13814717723E+03  0.15192987157E+03  0.41800000000E+01 0. -1.
         -5    1    3    3    0  502  0.29779647598E+02  0.39282035768E+02 -0.29980644132E+03  0.30386062661E+03  0.41800000000E+01 0. -1.
        -11    1    1    2    0    0 -0.42282140520E+02  0.13316297391E+02 -0.16362313511E+02  0.47252814589E+02  0.00000000000E+00 0. -1.
         11    1    1    2    0    0  0.40772867023E+02  0.38051848824E+01 -0.27814948980E+02  0.49503308010E+02  0.00000000000E+00 0.  1.
</event>
<event>
 7    1  0.2840156E-009  0.1244177E+03  0.7561462E-02  0.1235982E+00
         -2   -1    0    0    0  501 -0.00000000000E+00  0.00000000000E+00  0.15231904157E+02  0.15231904157E+02  0.00000000000E+00 0.  1.
          2   -1    0    0  501    0  0.00000000000E+00 -0.00000000000E+00 -0.12186607090E+04  0.12186607090E+04  0.00000000000E+00 0. -1.
         25    2    1    2    0    0 -0.66601531811E+02 -0.35659268711E+02 -0.77892096221E+03  0.79250911315E+03  0.12508189943E+03 0.  0.
          5    1    3    3  502    0 -0.90121912111E+02 -0.48545058891E+02 -0.41056293633E+03  0.42315242983E+03  0.41800000000E+01 0. -1.
         -5    1    3    3    0  502  0.23520380300E+02  0.12885790180E+02 -0.36835802589E+03  0.36935668332E+03  0.41800000000E+01 0. -1.
        -11    1    1    2    0    0  0.12187467645E+02  0.58845606492E+02 -0.17766888865E+03  0.18755685475E+03  0.00000000000E+00 0.  1.
         11    1    1    2    0    0  0.54414064165E+02 -0.23186337780E+02 -0.24683895397E+03  0.25382664524E+03  0.00000000000E+00 0. -1.
</event>
<event>
 7    1  0.2840156E-009  0.6634321E+02  0.7561462E-02  0.1372989E+00
          2   -1    0    0  501    0  0.00000000000E+00  0.00000000000E+00  0.30030683455E+03  0.30030683455E+03  0.00000000000E+00 0. -1.
         -2   -1    0    0    0  501 -0.00000000000E+00 -0.00000000000E+00 -0.54115863744E+02  0.54115863744E+02  0.00000000000E+00 0.  1.
         25    2    1    2    0    0 -0.17886856237E+01 -0.41456590498E+02  0.20509880249E+03  0.24378949295E+03  0.12508377112E+03 0.  0.
          5    1    3    3  502    0  0.93971129635E+01 -0.60589236147E+02  0.21157901060E+03  0.22032365146E+03  0.41800000000E+01 0.  1.
         -5    1    3    3    0  502 -0.11185798587E+02  0.19132645649E+02 -0.64802081068E+01  0.23465841486E+02  0.41800000000E+01 0.  1.
        -11    1    1    2    0    0 -0.88907238644E+01  0.35188173992E+02  0.70185425218E+02  0.79014216903E+02  0.00000000000E+00 0. -1.
         11    1    1    2    0    0  0.10679409488E+02  0.62684165057E+01 -0.29093256905E+02  0.31618988438E+02  0.00000000000E+00 0.  1.
</event>
<event>
 7    1  0.2840156E-009  0.2556168E+03  0.7561462E-02  0.1109806E+00
          2   -1    0    0  501    0  0.00000000000E+00  0.00000000000E+00  0.78069927429E+03  0.78069927429E+03  0.00000000000E+00 0. -1.
         -2   -1    0    0    0  501 -0.00000000000E+00 -0.00000000000E+00 -0.10834925555E+03  0.10834925555E+03  0.00000000000E+00 0.  1.
         25    2    1    2    0    0  0.22660611746E+03 -0.76913735465E+02  0.53399387460E+03  0.59838536402E+03  0.12509808387E+03 0.  0.
          5    1    3    3  502    0  0.16458744129E+03 -0.10543798292E+03  0.44575278117E+03  0.48674347288E+03  0.41800000000E+01 0.  1.
         -5    1    3    3    0  502  0.62018676163E+02  0.28524247459E+02  0.88241093430E+02  0.11164189113E+03  0.41800000000E+01 0.  1.
        -11    1    1    2    0    0 -0.22191475770E+02 -0.11056331566E+02  0.40659820584E+02  0.47622736948E+02  0.00000000000E+00 0.  1.
         11    1    1    2    0    0 -0.20441464169E+03  0.87970067031E+02  0.97696323564E+02  0.24304042887E+03  0.00000000000E+00 0. -1.
</event>
<event>
 7    1  0.2840156E-009  0.1372691E+03  0.7561462E-02  0.1217052E+00
          2   -1    0    0  501    0  0.00000000000E+00  0.00000000000E+00  0.28154754127E+03  0.28154754127E+03  0.00000000000E+00 0.  1.
         -2   -1    0    0    0  501 -0.00000000000E+00 -0.00000000000E+00 -0.84542386598E+02  0.84542386598E+02  0.00000000000E+00 0. -1.
         25    2    1    2    0    0 -0.97901380911E+02  0.38621000210E+02  0.14187682497E+03  0.21645595291E+03  0.12509150268E+03 0.  0.
          5    1    3    3  502    0 -0.81805773726E+02 -0.11762612269E+02  0.22404129484E+02  0.85731914013E+02  0.41800000000E+01 0. -1.
         -5    1    3    3    0  502 -0.16095607185E+02  0.50383612479E+02  0.11947269549E+03  0.13072403889E+03  0.41800000000E+01 0. -1.
        -11    1    1    2    0    0  0.84406491968E+02 -0.66696944984E+02  0.38047888630E+02  0.11410775690E+03  0.00000000000E+00 0.  1.
         11    1    1    2    0    0  0.13494888943E+02  0.28075944774E+02  0.17080441073E+02  0.35526218061E+02  0.00000000000E+00 0. -1.
</event>
<event>
 7    1  0.2840156E-009  0.2483496E+03  0.7561462E-02  0.1114352E+00
          1   -1    0    0  501    0  0.00000000000E+00  0.00000000000E+00  0.43007144320E+03  0.43007144320E+03  0.00000000000E+00 0. -1.
         -1   -1    0    0    0  501 -0.00000000000E+00 -0.00000000000E+00 -0.14873473806E+03  0.14873473806E+03  0.00000000000E+00 0.  1.
         25    2    1    2    0    0 -0.13908266366E+03 -0.18003856645E+03  0.12491358825E+03  0.28811235043E+03  0.12508976458E+03 0.  0.
          5    1    3    3  502    0 -0.93813962533E+02 -0.33244253687E+02  0.80705492546E+02  0.12820721078E+03  0.41800000000E+01 0. -1.
         -5    1    3    3    0  502 -0.45268701123E+02 -0.14679431276E+03  0.44208095701E+02  0.15990513965E+03  0.41800000000E+01 0. -1.
        -11    1    1    2    0    0  0.10909508234E+03  0.70624888754E+02  0.66844845154E+02  0.14614323531E+03  0.00000000000E+00 0.  1.
         11    1    1    2    0    0  0.29987581315E+02  0.10941367769E+03  0.89578271740E+02  0.14455059553E+03  0.00000000000E+00 0. -1.
</event>
<event>
 7    1  0.3061320E-009  0.1529956E+03  0.7561462E-02  0.1196840E+00
          1   -1    0    0  501    0  0.00000000000E+00  0.00000000000E+00  0.14959290515E+04  0.14959290515E+04  0.00000000000E+00 0. -1.
         -1   -1    0    0    0  501 -0.00000000000E+00 -0.00000000000E+00 -0.21791341230E+02  0.21791341230E+02  0.00000000000E+00 0.  1.
         25    2    1    2    0    0  0.11266283884E+03 -0.82740784689E+02  0.63634270067E+03  0.66341433357E+03  0.12509033769E+03 0.  0.
          5    1    3    3  502    0  0.69387123898E+02 -0.68828994222E+02  0.18060626903E+03  0.20539742019E+03  0.41800000000E+01 0. -1.
         -5    1    3    3    0  502  0.43275714942E+02 -0.13911790468E+02  0.45573643164E+03  0.45801691338E+03  0.41800000000E+01 0. -1.
        -11    1    1    2    0    0 -0.87319051199E+01  0.53980331555E+02  0.19472624919E+03  0.20225833601E+03  0.00000000000E+00 0.  1.
         11    1    1    2    0    0 -0.10393093372E+03  0.28760453134E+02  0.64306876038E+03  0.65204772312E+03  0.00000000000E+00 0. -1.
</event>
<event>
 7    1  0.2840156E-009  0.1280963E+03  0.7561462E-02  0.1230308E+00
          1   -1    0    0  501    0  0.00000000000E+00  0.00000000000E+00  0.85957436391E+02  0.85957436391E+02  0.00000000000E+00 0. -1.
         -1   -1    0    0    0  501 -0.00000000000E+00 -0.00000000000E+00 -0.25507949108E+03  0.25507949108E+03  0.00000000000E+00 0.  1.
         25    2    1    2    0    0 -0.78881057956E+02 -0.11470395729E+02 -0.14618359968E+02  0.14904393203E+03  0.12508639393E+03 0.  0.
          5    1    3    3  502    0  0.13148097400E+01 -0.55952779365E+02 -0.10861951981E+02  0.57165519714E+02  0.41800000000E+01 0. -1.
         -5    1    3    3    0  502 -0.80195867696E+02  0.44482383635E+02 -0.37564079862E+01  0.91878412319E+02  0.41800000000E+01 0. -1.
        -11    1    1    2    0    0  0.81089917749E+02  0.32325283477E+02 -0.14434867258E+03  0.16869213967E+03  0.00000000000E+00 0.  1.
         11    1    1    2    0    0 -0.22088597936E+01 -0.20854887748E+02 -0.10155022140E+02  0.23300855761E+02  0.00000000000E+00 0. -1.
</event>
<event>
 7    1  0.3027254E-009  0.1820407E+03  0.7561462E-02  0.1165842E+00
          1   -1    0    0  501    0  0.00000000000E+00  0.00000000000E+00  0.10790298111E+04  0.10790298111E+04  0.00000000000E+00 0. -1.
         -1   -1    0    0    0  501 -0.00000000000E+00 -0.00000000000E+00 -0.37065439530E+02  0.37065439530E+02  0.00000000000E+00 0.  1.
         25    2    1    2    0    0  0.13244359276E+03 -0.94356071660E+02  0.43414815959E+03  0.48018322075E+03  0.12508767923E+03 0.  0.
          5    1    3    3  502    0  0.21220690558E+02 -0.76195309694E+02  0.10030514215E+03  0.12780702981E+03  0.41800000000E+01 0. -1.
         -5    1    3    3    0  502  0.11122290220E+03 -0.18160761966E+02  0.33384301744E+03  0.35237619094E+03  0.41800000000E+01 0. -1.
        -11    1    1    2    0    0 -0.10845360242E+03  0.45376785925E+02  0.28139867625E+03  0.30496959123E+03  0.00000000000E+00 0. -1.
         11    1    1    2    0    0 -0.23989990335E+02  0.48979285735E+02  0.32641753569E+03  0.33094243861E+03  0.00000000000E+00 0.  1.
</event>
<event>
 7    1  0.2840156E-009  0.1225841E+03  0.7561462E-02  0.1238894E+00
         -2   -1    0    0    0  501 -0.00000000000E+00  0.00000000000E+00  0.86162842190E+02  0.86162842190E+02  0.00000000000E+00 0. -1.
          2   -1    0    0  501    0  0.00000000000E+00 -0.00000000000E+00 -0.18658823171E+03  0.18658823171E+03  0.00000000000E+00 0.  1.
         25    2    1    2    0    0  0.55234465900E+02 -0.35231888223E+02 -0.72630561140E+02  0.15878973893E+03  0.12508737190E+03 0.  0.
          5    1    3    3  502    0 -0.10638415710E+02 -0.66671164644E+02 -0.28577058623E+02  0.73432559287E+02  0.41800000000E+01 0. -1.
         -5    1    3    3    0  502  0.65872881610E+02  0.31439276421E+02 -0.44053502516E+02  0.85357179648E+02  0.41800000000E+01 0. -1.
        -11    1    1    2    0    0 -0.74245659511E+02  0.13366295607E+02 -0.24707489026E+01  0.75479668883E+02  0.00000000000E+00 0.  1.
         11    1    1    2    0    0  0.19011193611E+02  0.21865592616E+02 -0.25324079474E+02  0.38481666078E+02  0.00000000000E+00 0. -1.
</event>
<event>
 7    1  0.2968129E-009  0.1663358E+03  0.7561462E-02  0.1181724E+00
          2   -1    0    0  501    0  0.00000000000E+00  0.00000000000E+00  0.80454583617E+03  0.80454583617E+03  0.00000000000E+00 0.  1.
         -2   -1    0    0    0  501 -0.00000000000E+00 -0.00000000000E+00 -0.49347463512E+02  0.49347463512E+02  0.00000000000E+00 0. -1.
         25    2    1    2    0    0  0.14279408001E+03  0.43987147531E+01  0.21067410942E+03  0.28361411435E+03  0.12507552718E+03 0.  0.
          5    1    3    3  502    0 -0.14935781348E+02 -0.13868901755E+02  0.13537574618E+01  0.20850157305E+02  0.41800000000E+01 0.  1.
         -5    1    3    3    0  502  0.15772986136E+03  0.18267616508E+02  0.20932035196E+03  0.26276395705E+03  0.41800000000E+01 0.  1.
        -11    1    1    2    0    0 -0.71715181315E+02  0.25223608487E+02  0.39328073014E+03  0.40056089470E+03  0.00000000000E+00 0.  1.
         11    1    1    2    0    0 -0.71078898698E+02 -0.29622323240E+02  0.15124353309E+03  0.16971829063E+03  0.00000000000E+00 0. -1.
</event>
<event>
 7    1  0.2840156E-009  0.1024501E+03  0.7561462E-02  0.1275226E+00
          1   -1    0    0  501    0  0.00000000000E+00  0.00000000000E+00  0.47997410300E+03  0.47997410300E+03  0.00000000000E+00 0. -1.
         -1   -1    0    0    0  501 -0.00000000000E+00 -0.00000000000E+00 -0.32002162705E+02  0.32002162705E+02  0.00000000000E+00 0.  1.
         25    2    1    2    0    0 -0.40653434335E+02 -0.41737452396E+02  0.21244026113E+03  0.25332384137E+03  0.12508951754E+03 0.  0.
          5    1    3    3  502    0  0.20945881499E+02 -0.42970090757E+02  0.21382757179E+02  0.52534306467E+02  0.41800000000E+01 0.  1.
         -5    1    3    3    0  502 -0.61599315834E+02  0.12326383615E+01  0.19105750396E+03  0.20078953490E+03  0.41800000000E+01 0.  1.
        -11    1    1    2    0    0  0.46208207506E+02 -0.64486299437E+01  0.17484642899E+03  0.18096424232E+03  0.00000000000E+00 0. -1.
         11    1    1    2    0    0 -0.55547731705E+01  0.48186082339E+02  0.60685250171E+02  0.77688182013E+02  0.00000000000E+00 0.  1.
</event>
<event>
 7    1  0.2840156E-009  0.1185077E+03  0.7561462E-02  0.1245579E+00
         -2   -1    0    0    0  501 -0.00000000000E+00  0.00000000000E+00  0.70842885724E+03  0.70842885724E+03  0.00000000000E+00 0. -1.
          2   -1    0    0  501    0  0.00000000000E+00 -0.00000000000E+00 -0.26049783757E+02  0.26049783757E+02  0.00000000000E+00 0.  1.
         25    2    1    2    0    0 -0.18298463200E+02 -0.59447536191E+02  0.23256014531E+03  0.27129417839E+03  0.12508983463E+03 0.  0.
          5    1    3    3  502    0 -0.40420479999E+02 -0.85000728477E+02  0.11375646142E+03  0.14770559894E+03  0.41800000000E+01 0. -1.
         -5    1    3    3    0  502  0.22122016799E+02  0.25553192285E+02  0.11880368389E+03  0.12358857944E+03  0.41800000000E+01 0. -1.
        -11    1    1    2    0    0  0.45193752257E+02  0.19131853292E+01  0.14811200484E+03  0.15486543029E+03  0.00000000000E+00 0.  1.
         11    1    1    2    0    0 -0.26895289057E+02  0.57534350862E+02  0.30170692334E+03  0.30831903232E+03  0.00000000000E+00 0. -1.
</event>
<event>
 7    1  0.2840156E-009  0.8970310E+02  0.7561462E-02  0.1303572E+00
          2   -1    0    0  501    0  0.00000000000E+00  0.00000000000E+00  0.69763827640E+03  0.69763827640E+03  0.00000000000E+00 0. -1.
         -2   -1    0    0    0  501 -0.00000000000E+00 -0.00000000000E+00 -0.26328328662E+02  0.26328328662E+02  0.00000000000E+00 0.  1.
         25    2    1    2    0    0  0.62699549042E+02  0.15142965036E+02  0.50856355374E+03  0.52767810581E+03  0.12508697904E+03 0.  0.
          5    1    3    3  502    0  0.46683912301E+02 -0.17094173845E+02  0.47705687398E+03  0.47965855758E+03  0.41800000000E+01 0. -1.
         -5    1    3    3    0  502  0.16015636741E+02  0.32237138881E+02  0.31506679758E+02  0.48019548237E+02  0.41800000000E+01 0. -1.
        -11    1    1    2    0    0 -0.23109562886E+02  0.26943460771E+02  0.16702571322E+02  0.39229808359E+02  0.00000000000E+00 0.  1.
         11    1    1    2    0    0 -0.39589986156E+02 -0.42086425807E+02  0.14604382268E+03  0.15705869089E+03  0.00000000000E+00 0. -1.
</event>
<event>
 7    1  0.2873148E-009  0.8856624E+02  0.7561462E-02  0.1306361E+00
         -4   -1    0    0    0  501 -0.00000000000E+00  0.00000000000E+00  0.63500429055E+02  0.63500429055E+02  0.00000000000E+00 0.  1.
          4   -1    0    0  501    0  0.00000000000E+00 -0.00000000000E+00 -0.25187552679E+03  0.25187552679E+03  0.00000000000E+00 0. -1.
         25    2    1    2    0    0  0.20335271126E+02 -0.47075571556E+02 -0.15499205812E+03  0.20566341942E+03  0.12508105899E+03 0.  0.
          5    1    3    3  502    0 -0.39144684472E+02 -0.44633712271E+02 -0.28894838236E+02  0.66157831511E+02  0.41800000000E+01 0. -1.
         -5    1    3    3    0  502  0.59479955597E+02 -0.24418592849E+01 -0.12609721988E+03  0.13950558791E+03  0.41800000000E+01 0. -1.
        -11    1    1    2    0    0  0.18045742721E+01  0.29812144468E+02  0.28796891672E+02  0.41488328673E+02  0.00000000000E+00 0.  1.
         11    1    1    2    0    0 -0.22139845398E+02  0.17263427088E+02 -0.62179931288E+02  0.68224207757E+02  0.00000000000E+00 0. -1.
</event>
<event>
 7    1  0.2840156E-009  0.9829419E+02  0.7561462E-02  0.1283924E+00
          1   -1    0    0  501    0  0.00000000000E+00  0.00000000000E+00  0.82649117487E+03  0.82649117487E+03  0.00000000000E+00 0. -1.
         -1   -1    0    0    0  501 -0.00000000000E+00 -0.00000000000E+00 -0.15023425307E+02  0.15023425307E+02  0.00000000000E+00 0.  1.
         25    2    1    2    0    0  0.73706639569E+01  0.29425468669E+00  0.56271951505E+03  0.57650286459E+03  0.12509151449E+03 0.  0.
          5    1    3    3  502    0 -0.52404233184E+02 -0.27221243201E+02  0.28133647949E+03  0.28749762926E+03  0.41800000000E+01 0.  1.
         -5    1    3    3    0  502  0.59774897141E+02  0.27515497887E+02  0.28138303556E+03  0.28900523534E+03  0.41800000000E+01 0.  1.
        -11    1    1    2    0    0  0.22556232856E+02  0.23977302727E+02  0.35918256708E+02  0.48721821103E+02  0.00000000000E+00 0.  1.
         11    1    1    2    0    0 -0.29926896812E+02 -0.24271557413E+02  0.21282997781E+03  0.21628991448E+03  0.00000000000E+00 0. -1.
</event>
<event>
 7    1  0.2840156E-009  0.9813173E+02  0.7561462E-02  0.1284274E+00
          1   -1    0    0  501    0  0.00000000000E+00  0.00000000000E+00  0.30935406509E+03  0.30935406509E+03  0.00000000000E+00 0. -1.
         -1   -1    0    0    0  501 -0.00000000000E+00 -0.00000000000E+00 -0.47213762206E+02  0.47213762206E+02  0.00000000000E+00 0.  1.
         25    2    1    2    0    0 -0.21498826406E+02 -0.31987735880E+02  0.92153007394E+02  0.16007855085E+03  0.12509017102E+03 0.  0.
          5    1    3    3  502    0 -0.53874169885E+02  0.20977779788E+02  0.76395342827E+02  0.95896893752E+02  0.41800000000E+01 0. -1.
         -5    1    3    3    0  502  0.32375343479E+02 -0.52965515668E+02  0.15757664567E+02  0.64181657099E+02  0.41800000000E+01 0. -1.
        -11    1    1    2    0    0 -0.22310029420E+02  0.83615156572E+00  0.48816945589E+01  0.22853172732E+02  0.00000000000E+00 0.  1.
         11    1    1    2    0    0  0.43808855825E+02  0.31151584314E+02  0.16510560093E+03  0.17363610371E+03  0.00000000000E+00 0. -1.
</event>
<event>
 7    1  0.2840156E-009  0.1285865E+03  0.7561462E-02  0.1229568E+00
          2   -1    0    0  501    0  0.00000000000E+00  0.00000000000E+00  0.13614949711E+04  0.13614949711E+04  0.00000000000E+00 0. -1.
         -2   -1    0    0    0  501 -0.00000000000E+00 -0.00000000000E+00 -0.16271598629E+02  0.16271598629E+02  0.00000000000E+00 0.  1.
         25    2    1    2    0    0  0.85906798423E+02 -0.54836860859E+02  0.74782827349E+03  0.76503706750E+03  0.12509008233E+03 0.  0.
          5    1    3    3  502    0 -0.36077245926E+01 -0.37976306598E+02  0.49108426869E+03  0.49258141143E+03  0.41800000000E+01 0. -1.
         -5    1    3    3    0  502  0.89514523016E+02 -0.16860554262E+02  0.25674400480E+03  0.27245565607E+03  0.41800000000E+01 0. -1.
        -11    1    1    2    0    0 -0.97018191152E+02  0.61297193856E+02  0.57915737104E+03  0.59041776380E+03  0.00000000000E+00 0.  1.
         11    1    1    2    0    0  0.11111392729E+02 -0.64603329963E+01  0.18237727940E+02  0.22311738418E+02  0.00000000000E+00 0. -1.
</event>
<event>
 7    1  0.2840156E-009  0.9928994E+02  0.7561462E-02  0.1281796E+00
         -2   -1    0    0    0  501 -0.00000000000E+00  0.00000000000E+00  0.21495195579E+02  0.21495195579E+02  0.00000000000E+00 0. -1.
          2   -1    0    0  501    0  0.00000000000E+00 -0.00000000000E+00 -0.63416638433E+03  0.63416638433E+03  0.00000000000E+00 0.  1.
         25    2    1    2    0    0 -0.31161418230E+02  0.33346572245E+02 -0.41804270763E+03  0.43873806461E+03  0.12509338938E+03 0.  0.
          5    1    3    3  502    0 -0.31852026617E+02 -0.40335199105E+02 -0.24905191871E+03  0.25433405297E+03  0.41800000000E+01 0.  1.
         -5    1    3    3    0  502  0.69060838705E+00  0.73681771350E+02 -0.16899078892E+03  0.18440401164E+03  0.41800000000E+01 0.  1.
        -11    1    1    2    0    0  0.73621001404E+01 -0.45774333037E+02 -0.18094247089E+03  0.18678776152E+03  0.00000000000E+00 0.  1.
         11    1    1    2    0    0  0.23799318089E+02  0.12427760792E+02 -0.13686010237E+02  0.30135753782E+02  0.00000000000E+00 0. -1.
</event>
<event>
 7    1  0.2840156E-009  0.9884360E+02  0.7561462E-02  0.1282747E+00
          4   -1    0    0  501    0  0.00000000000E+00  0.00000000000E+00  0.18702192271E+03  0.18702192271E+03  0.00000000000E+00 0. -1.
         -4   -1    0    0    0  501 -0.00000000000E+00 -0.00000000000E+00 -0.94135298273E+02  0.94135298273E+02  0.00000000000E+00 0.  1.
         25    2    1    2    0    0  0.37050913813E+02  0.49886485277E+02  0.99934103889E+02  0.17174754436E+03  0.12509581227E+03 0.  0.
          5    1    3    3  502    0  0.54563551044E+02  0.53129730881E+02  0.12150692603E+03  0.14346203288E+03  0.41800000000E+01 0. -1.
         -5    1    3    3    0  502 -0.17512637231E+02 -0.32432456042E+01 -0.21572822138E+02  0.28285511483E+02  0.41800000000E+01 0. -1.
        -11    1    1    2    0    0 -0.62081330358E+02 -0.47119248225E+02 -0.20868490109E+02  0.80683387459E+02  0.00000000000E+00 0. -1.
         11    1    1    2    0    0  0.25030416545E+02 -0.27672370516E+01  0.13821010659E+02  0.28726289161E+02  0.00000000000E+00 0.  1.
</event>
<event>
 7    1  0.2840156E-009  0.1226589E+03  0.7561462E-02  0.1238774E+00
          2   -1    0    0  501    0  0.00000000000E+00  0.00000000000E+00  0.81041767419E+02  0.81041767419E+02  0.00000000000E+00 0.  1.
         -2   -1    0    0    0  501 -0.00000000000E+00 -0.00000000000E+00 -0.27141210155E+03  0.27141210155E+03  0.00000000000E+00 0. -1.
         25    2    1    2    0    0  0.80428484764E+02 -0.29930816773E+02 -0.39847607819E+02  0.15683361730E+03  0.12507740288E+03 0.  0.
          5    1    3    3  502    0  0.84297687618E+02  0.28803657319E+02 -0.73908347552E+01  0.89486578050E+02  0.41800000000E+01 0.  1.
         -5    1    3    3    0  502 -0.38692028545E+01 -0.58734474091E+02 -0.32456773064E+02  0.67347039247E+02  0.41800000000E+01 0.  1.
        -11    1    1    2    0    0 -0.22901352704E+02  0.32248758674E+02 -0.12770446612E+03  0.13368950991E+03  0.00000000000E+00 0. -1.
         11    1    1    2    0    0 -0.57527132060E+02 -0.23179419017E+01 -0.22818260194E+02  0.61930741769E+02  0.00000000000E+00 0.  1.
</event>
<event>
 7    1  0.2840156E-009  0.1930233E+03  0.7561462E-02  0.1155762E+00
          1   -1    0    0  501    0  0.00000000000E+00  0.00000000000E+00  0.27165045047E+03  0.27165045047E+03  0.00000000000E+00 0. -1.
         -1   -1    0    0    0  501 -0.00000000000E+00 -0.00000000000E+00 -0.23525690407E+03  0.23525690407E+03  0.00000000000E+00 0.  1.
         25    2    1    2    0    0 -0.74956184182E+02 -0.15787143320E+03  0.16496290723E+03  0.27092815231E+03  0.12508990360E+03 0.  0.
          5    1    3    3  502    0  0.15975748101E+02 -0.75858912232E+02  0.11468022295E+03  0.13848763493E+03  0.41800000000E+01 0. -1.
         -5    1    3    3    0  502 -0.90931932283E+02 -0.82012520970E+02  0.50282684277E+02  0.13244051738E+03  0.41800000000E+01 0. -1.
        -11    1    1    2    0    0  0.44469438550E+01  0.82711635470E+02 -0.98350792288E+02  0.12858409037E+03  0.00000000000E+00 0. -1.
         11    1    1    2    0    0  0.70509240327E+02  0.75159797732E+02 -0.30218568540E+02  0.10739511186E+03  0.00000000000E+00 0.  1.
</event>
<event>
 7    1  0.2840156E-009  0.2153165E+03  0.7561462E-02  0.1137424E+00
          1   -1    0    0  501    0  0.00000000000E+00  0.00000000000E+00  0.94706948296E+02  0.94706948296E+02  0.00000000000E+00 0. -1.
         -1   -1    0    0    0  501 -0.00000000000E+00 -0.00000000000E+00 -0.58205309770E+03  0.58205309770E+03  0.00000000000E+00 0.  1.
         25    2    1    2    0    0 -0.41197724499E+02  0.20073124000E+03 -0.31461394120E+03  0.39574996296E+03  0.12508324418E+03 0.  0.
          5    1    3    3  502    0  0.26036031142E+02  0.10561000241E+03 -0.22062788604E+03  0.24601927572E+03  0.41800000000E+01 0. -1.
         -5    1    3    3    0  502 -0.67233755641E+02  0.95121237591E+02 -0.93986055152E+02  0.14973068724E+03  0.41800000000E+01 0. -1.
        -11    1    1    2    0    0  0.22535832907E+02 -0.13599750739E+03 -0.16212672445E+03  0.21281038640E+03  0.00000000000E+00 0.  1.
         11    1    1    2    0    0  0.18661891592E+02 -0.64733732608E+02 -0.10605483765E+02  0.68199696635E+02  0.00000000000E+00 0. -1.
</event>
<event>
 7    1  0.3768466E-009  0.1074966E+03  0.7561462E-02  0.1265277E+00
          1   -1    0    0  501    0  0.00000000000E+00  0.00000000000E+00  0.17167640673E+03  0.17167640673E+03  0.00000000000E+00 0. -1.
         -1   -1    0    0    0  501 -0.00000000000E+00 -0.00000000000E+00 -0.91623498959E+02  0.91623498959E+02  0.00000000000E+00 0.  1.
         25    2    1    2    0    0 -0.26405817679E+02 -0.11793728169E+02 -0.13238178893E+02  0.12907625131E+03  0.12509624312E+03 0.  0.
          5    1    3    3  502    0 -0.42978769295E+02 -0.56293179243E+02 -0.32022542078E+02  0.77839657248E+02  0.41800000000E+01 0. -1.
         -5    1    3    3    0  502  0.16572951616E+02  0.44499451074E+02  0.18784363185E+02  0.51236594066E+02  0.41800000000E+01 0. -1.
        -11    1    1    2    0    0  0.60473494119E+02  0.46732678286E+00  0.55190362763E+02  0.81873304729E+02  0.00000000000E+00 0. -1.
         11    1    1    2    0    0 -0.34067676440E+02  0.11326401386E+02  0.38100723903E+02  0.52350349649E+02  0.00000000000E+00 0.  1.
</event>
<event>
 7    1  0.2840156E-009  0.1996473E+03  0.7561462E-02  0.1150037E+00
         -2   -1    0    0    0  501 -0.00000000000E+00  0.00000000000E+00  0.13914309664E+03  0.13914309664E+03  0.00000000000E+00 0.  1.
          2   -1    0    0  501    0  0.00000000000E+00 -0.00000000000E+00 -0.42155487633E+03  0.42155487633E+03  0.00000000000E+00 0. -1.
         25    2    1    2    0    0 -0.10308906786E+03 -0.16149941586E+03 -0.26302175516E+03  0.34862327422E+03  0.12509327082E+03 0.  0.
          5    1    3    3  502    0  0.85298716330E+01  0.10434086425E+01  0.86652024533E+01  0.12899827333E+02  0.41800000000E+01 0.  1.
         -5    1    3    3    0  502 -0.11161893950E+03 -0.16254282451E+03 -0.27168695761E+03  0.33572344689E+03  0.41800000000E+01 0.  1.
        -11    1    1    2    0    0  0.35332910361E+02  0.39752232056E+02  0.33709262542E+02  0.62967998929E+02  0.00000000000E+00 0. -1.
         11    1    1    2    0    0  0.67756157503E+02  0.12174718381E+03 -0.53099287069E+02  0.14910669982E+03  0.00000000000E+00 0.  1.
</event>
<event>
 7    1  0.2840156E-009  0.1845885E+03  0.7561462E-02  0.1163435E+00
         -2   -1    0    0    0  501 -0.00000000000E+00  0.00000000000E+00  0.16461245019E+03  0.16461245019E+03  0.00000000000E+00 0. -1.
          2   -1    0    0  501    0  0.00000000000E+00 -0.00000000000E+00 -0.24792824093E+03  0.24792824093E+03  0.00000000000E+00 0.  1.
         25    2    1    2    0    0  0.14157203053E+03 -0.58801568779E+02 -0.12006276239E+03  0.23144086522E+03  0.12509813293E+03 0.  0.
          5    1    3    3  502    0  0.83625205014E+02  0.27563798798E+02 -0.28025098867E+02  0.92497656643E+02  0.41800000000E+01 0.  1.
         -5    1    3    3    0  502  0.57946825513E+02 -0.86365367577E+02 -0.92037663523E+02  0.13894320858E+03  0.41800000000E+01 0.  1.
        -11    1    1    2    0    0 -0.70744007340E+02 -0.17453307422E+02  0.21079844915E+02  0.75853097341E+02  0.00000000000E+00 0. -1.
         11    1    1    2    0    0 -0.70828023187E+02  0.76254876200E+02  0.15667126732E+02  0.10524672856E+03  0.00000000000E+00 0.  1.
</event>
<event>
 7    1  0.2840156E-009  0.1018917E+03  0.7561462E-02  0.1276368E+00
         -2   -1    0    0    0  501 -0.00000000000E+00  0.00000000000E+00  0.48735269390E+02  0.48735269390E+02  0.00000000000E+00 0.  1.
          2   -1    0    0  501    0  0.00000000000E+00 -0.00000000000E+00 -0.33557089348E+03  0.33557089348E+03  0.00000000000E+00 0. -1.
         25    2    1    2    0    0 -0.39904760635E+02  0.45031394541E+02 -0.21688702216E+03  0.25749756029E+03  0.12507916197E+03 0.  0.
          5    1    3    3  502    0 -0.32855646001E+02 -0.19738347658E+02 -0.89895591647E+01  0.39590155549E+02  0.41800000000E+01 0. -1.
         -5    1    3    3    0  502 -0.70491146340E+01  0.64769742199E+02 -0.20789746300E+03  0.21790740474E+03  0.41800000000E+01 0. -1.
        -11    1    1    2    0    0  0.25487621199E+02  0.20583363095E+02 -0.45905709691E+01  0.33081218425E+02  0.00000000000E+00 0.  1.
         11    1    1    2    0    0  0.14417139436E+02 -0.65614757636E+02 -0.65358030961E+02  0.93727384153E+02  0.00000000000E+00 0. -1.
</event>
<event>
 7    1  0.2840156E-009  0.1127949E+03  0.7561462E-02  0.1255480E+00
         -4   -1    0    0    0  501 -0.00000000000E+00  0.00000000000E+00  0.72658927331E+02  0.72658927331E+02  0.00000000000E+00 0.  1.
          4   -1    0    0  501    0  0.00000000000E+00 -0.00000000000E+00 -0.35523499690E+03  0.35523499690E+03  0.00000000000E+00 0. -1.
         25    2    1    2    0    0 -0.42778033818E+02  0.72715088963E+02 -0.41314976122E+02  0.15643405084E+03  0.12508893105E+03 0.  0.
          5    1    3    3  502    0 -0.16860612225E+02 -0.30127909335E+02  0.13093980382E+02  0.37160407529E+02  0.41800000000E+01 0.  1.
         -5    1    3    3    0  502 -0.25917421594E+02  0.10284299830E+03 -0.54408956504E+02  0.11927364331E+03  0.41800000000E+01 0.  1.
        -11    1    1    2    0    0  0.31473974105E+02 -0.46803005533E+02 -0.23607327476E+03  0.24271737357E+03  0.00000000000E+00 0. -1.
         11    1    1    2    0    0  0.11304059714E+02 -0.25912083429E+02 -0.51878186869E+01  0.28742499828E+02  0.00000000000E+00 0.  1.
</event>
<event>
 7    1  0.2840156E-009  0.1378477E+03  0.7561462E-02  0.1216255E+00
          2   -1    0    0  501    0  0.00000000000E+00  0.00000000000E+00  0.87601427823E+02  0.87601427823E+02  0.00000000000E+00 0. -1.
         -2   -1    0    0    0  501 -0.00000000000E+00 -0.00000000000E+00 -0.33470059486E+03  0.33470059486E+03  0.00000000000E+00 0.  1.
         25    2    1    2    0    0  0.10819417628E+03  0.64187909858E+02 -0.14271151251E+03  0.22768419417E+03  0.12508976345E+03 0.  0.
          5    1    3    3  502    0  0.16416125067E+01  0.41331812592E+01  0.21803189180E+02  0.22641323666E+02  0.41800000000E+01 0.  1.
         -5    1    3    3    0  502  0.10655256377E+03  0.60054728599E+02 -0.16451470169E+03  0.20504287050E+03  0.41800000000E+01 0.  1.
        -11    1    1    2    0    0 -0.80316125371E+02 -0.34625283117E+01 -0.13041777396E+02  0.81441740247E+02  0.00000000000E+00 0. -1.
         11    1    1    2    0    0 -0.27878050905E+02 -0.60725381547E+02 -0.91345877137E+02  0.11317608827E+03  0.00000000000E+00 0.  1.
</event>
<event>
 7    1  0.2840156E-009  0.7606147E+02  0.7561462E-02  0.1340615E+00
          1   -1    0    0  501    0  0.00000000000E+00  0.00000000000E+00  0.21220726346E+03  0.21220726346E+03  0.00000000000E+00 0. -1.
         -1   -1    0    0    0  501 -0.00000000000E+00 -0.00000000000E+00 -0.59145065878E+02  0.59145065878E+02  0.00000000000E+00 0.  1.
         25    2    1    2    0    0 -0.86832502763E+01 -0.22719171536E+02  0.10927546284E+03  0.16787094417E+03  0.12509183638E+03 0.  0.
          5    1    3    3  502    0 -0.20555555881E+02  0.32396971041E+02 -0.63973578186E+01  0.39121518341E+02  0.41800000000E+01 0.  1.
         -5    1    3    3    0  502  0.11872305604E+02 -0.55116142577E+02  0.11567282066E+03  0.12874942583E+03  0.41800000000E+01 0.  1.
        -11    1    1    2    0    0  0.10956025675E+02  0.39022822949E+02 -0.14397926498E+02  0.43012968939E+02  0.00000000000E+00 0.  1.
         11    1    1    2    0    0 -0.22727753990E+01 -0.16303651413E+02  0.58184661240E+02  0.60468416227E+02  0.00000000000E+00 0. -1.
</event>
<event>
 7    1  0.2840156E-009  0.1289066E+03  0.7561462E-02  0.1229087E+00
          1   -1    0    0  501    0  0.00000000000E+00  0.00000000000E+00  0.31890694595E+02  0.31890694595E+02  0.00000000000E+00 0. -1.
         -1   -1    0    0    0  501 -0.00000000000E+00 -0.00000000000E+00 -0.93884807851E+03  0.93884807851E+03  0.00000000000E+00 0.  1.
         25    2    1    2    0    0 -0.83014244879E+02  0.40933269927E+02 -0.20936811374E+03  0.26086293554E+03  0.12509023402E+03 0.  0.
          5    1    3    3  502    0 -0.95660274721E+02  0.53985339668E+02 -0.95907857621E+02  0.14588041202E+03  0.41800000000E+01 0.  1.
         -5    1    3    3    0  502  0.12646029842E+02 -0.13052069740E+02 -0.11346025612E+03  0.11498252352E+03  0.41800000000E+01 0.  1.
        -11    1    1    2    0    0  0.10090928065E+03 -0.45623790235E+02 -0.63594618474E+03  0.64551666365E+03  0.00000000000E+00 0.  1.
         11    1    1    2    0    0 -0.17895035770E+02  0.46905203075E+01 -0.61643085431E+02  0.64359173918E+02  0.00000000000E+00 0. -1.
</event>
<event>
 7    1  0.2840156E-009  0.1331590E+03  0.7561462E-02  0.1222842E+00
         -3   -1    0    0    0  501 -0.00000000000E+00  0.00000000000E+00  0.22223902870E+03  0.22223902870E+03  0.00000000000E+00 0.  1.
          3   -1    0    0  501    0  0.00000000000E+00 -0.00000000000E+00 -0.11414498303E+03  0.11414498303E+03  0.00000000000E+00 0. -1.
         25    2    1    2    0    0 -0.98249835866E+02 -0.55563640595E+02  0.44603132157E+02  0.17428622471E+03  0.12508357335E+03 0.  0.
          5    1    3    3  502    0 -0.22102759943E+02 -0.29639529574E+02  0.78519169634E+02  0.86889390091E+02  0.41800000000E+01 0.  1.
         -5    1    3    3    0  502 -0.76147075923E+02 -0.25924111021E+02 -0.33916037477E+02  0.87396834622E+02  0.41800000000E+01 0.  1.
        -11    1    1    2    0    0  0.99492315016E+02  0.67381919394E+01  0.49272269589E+02  0.11122895544E+03  0.00000000000E+00 0.  1.
         11    1    1    2    0    0 -0.12424791494E+01  0.48825448656E+02  0.14218643928E+02  0.50868831577E+02  0.00000000000E+00 0. -1.
</event>
<event>
 7    1  0.2840156E-009  0.1400991E+03  0.7561462E-02  0.1213196E+00
          2   -1    0    0  501    0  0.00000000000E+00  0.00000000000E+00  0.97139119614E+03  0.97139119614E+03  0.00000000000E+00 0. -1.
         -2   -1    0    0    0  501 -0.00000000000E+00 -0.00000000000E+00 -0.24665604101E+02  0.24665604101E+02  0.00000000000E+00 0.  1.
         25    2    1    2    0    0  0.39131655734E+02 -0.78702861440E+02  0.71869020239E+03  0.73477120888E+03  0.12509074913E+03 0.  0.
          5    1    3    3  502    0  0.65088362395E+02  0.47139738935E+01  0.31446237843E+03  0.32118962673E+03  0.41800000000E+01 0.  1.
         -5    1    3    3    0  502 -0.25956706661E+02 -0.83416835334E+02  0.40422782395E+03  0.41358158215E+03  0.41800000000E+01 0.  1.
        -11    1    1    2    0    0  0.29768616335E+02  0.14278649227E+02  0.52726687722E+02  0.62210561325E+02  0.00000000000E+00 0. -1.
         11    1    1    2    0    0 -0.68900272069E+02  0.64424212214E+02  0.17530870193E+03  0.19907503003E+03  0.00000000000E+00 0.  1.
</event>
<event>
 7    1  0.2840156E-009  0.2015401E+03  0.7561462E-02  0.1148446E+00
          1   -1    0    0  501    0  0.00000000000E+00  0.00000000000E+00  0.16277824741E+03  0.16277824741E+03  0.00000000000E+00 0. -1.
         -1   -1    0    0    0  501 -0.00000000000E+00 -0.00000000000E+00 -0.26774342528E+03  0.26774342528E+03  0.00000000000E+00 0.  1.
         25    2    1    2    0    0 -0.16645786629E+03 -0.58681572556E+02 -0.31977819024E+02  0.21868248809E+03  0.12509077296E+03 0.  0.
          5    1    3    3  502    0 -0.17882230663E+03 -0.67905623534E+02 -0.10106387191E+02  0.19159384781E+03  0.41800000000E+01 0. -1.
         -5    1    3    3    0  502  0.12364440345E+02  0.92240509776E+01 -0.21871431833E+02  0.27088640274E+02  0.41800000000E+01 0. -1.
        -11    1    1    2    0    0  0.16524343396E+03  0.73535771443E+02 -0.76734491256E+02  0.19647158649E+03  0.00000000000E+00 0.  1.
         11    1    1    2    0    0  0.12144323249E+01 -0.14854198887E+02  0.37471324092E+01  0.15367598112E+02  0.00000000000E+00 0. -1.
</event>
<event>
 7    1  0.2840156E-009  0.7987597E+02  0.7561462E-02  0.1329404E+00
          2   -1    0    0  501    0  0.00000000000E+00  0.00000000000E+00  0.84434543337E+02  0.84434543337E+02  0.00000000000E+00 0. -1.
         -2   -1    0    0    0  501 -0.00000000000E+00 -0.00000000000E+00 -0.19877272840E+03  0.19877272840E+03  0.00000000000E+00 0.  1.
         25    2    1    2    0    0 -0.76575245467E+00 -0.43489493226E+02 -0.89267873264E+00  0.13243930383E+03  0.12508976747E+03 0.  0.
          5    1    3    3  502    0  0.19434493024E+02 -0.10686259468E+02  0.57833166060E+02  0.62080940369E+02  0.41800000000E+01 0.  1.
         -5    1    3    3    0  502 -0.20200245479E+02 -0.32803233758E+02 -0.58725844793E+02  0.70358363462E+02  0.41800000000E+01 0.  1.
        -11    1    1    2    0    0  0.31692590282E+02  0.56578354747E+02 -0.64973719900E+02  0.91799317984E+02  0.00000000000E+00 0.  1.
         11    1    1    2    0    0 -0.30926837827E+02 -0.13088861521E+02 -0.48471786430E+02  0.58968649922E+02  0.00000000000E+00 0. -1.
</event>
<event>
 7    1  0.2840156E-009  0.8357094E+02  0.7561462E-02  0.1319213E+00
         -2   -1    0    0    0  501 -0.00000000000E+00  0.00000000000E+00  0.16349826846E+03  0.16349826846E+03  0.00000000000E+00 0.  1.
          2   -1    0    0  501    0  0.00000000000E+00 -0.00000000000E+00 -0.77979333001E+02  0.77979333001E+02  0.00000000000E+00 0. -1.
         25    2    1    2    0    0 -0.30340084282E+02  0.70789493866E+01  0.40955907727E+02  0.13525443375E+03  0.12508294541E+03 0.  0.
          5    1    3    3  502    0 -0.29697832210E+02 -0.24793728318E+02 -0.35274490315E+02  0.52520969801E+02  0.41800000000E+01 0. -1.
         -5    1    3    3    0  502 -0.64225207243E+00  0.31872677704E+02  0.76230398042E+02  0.82733463952E+02  0.41800000000E+01 0. -1.
        -11    1    1    2    0    0 -0.67372679191E+00 -0.46171761968E+02  0.25915385027E+02  0.52951795929E+02  0.00000000000E+00 0. -1.
         11    1    1    2    0    0  0.31013811074E+02  0.39092812581E+02  0.18647642706E+02  0.53271371780E+02  0.00000000000E+00 0.  1.
</event>
<event>
 7    1  0.2840156E-009  0.9302371E+02  0.7561462E-02  0.1295690E+00
          1   -1    0    0  501    0  0.00000000000E+00  0.00000000000E+00  0.13291981416E+03  0.13291981416E+03  0.00000000000E+00 0. -1.
         -1   -1    0    0    0  501 -0.00000000000E+00 -0.00000000000E+00 -0.11381583326E+03  0.11381583326E+03  0.00000000000E+00 0.  1.
         25    2    1    2    0    0  0.43228704539E+02  0.33064174059E+02  0.32202778632E+02  0.14017215831E+03  0.12509698042E+03 0.  0.
          5    1    3    3  502    0  0.36382606738E+02  0.69570568010E+02 -0.14921622096E+02  0.80024278893E+02  0.41800000000E+01 0. -1.
         -5    1    3    3    0  502  0.68460978007E+01 -0.36506393951E+02  0.47124400729E+02  0.60147879418E+02  0.41800000000E+01 0. -1.
        -11    1    1    2    0    0 -0.31403218000E+02  0.35214643357E+01 -0.46101998064E+02  0.55892370117E+02  0.00000000000E+00 0.  1.
         11    1    1    2    0    0 -0.11825486539E+02 -0.36585638395E+02  0.33003200330E+02  0.50671119000E+02  0.00000000000E+00 0. -1.
</event>
<event>
 7    1  0.2840156E-009  0.1182182E+03  0.7561462E-02  0.1246066E+00
         -2   -1    0    0    0  501 -0.00000000000E+00  0.00000000000E+00  0.50588989317E+02  0.50588989317E+02  0.00000000000E+00 0. -1.
          2   -1    0    0  501    0  0.00000000000E+00 -0.00000000000E+00 -0.29779778380E+03  0.29779778380E+03  0.00000000000E+00 0.  1.
         25    2    1    2    0    0 -0.49845733585E+02  0.89113920019E+01 -0.13204131655E+03  0.18880561122E+03  0.12509452221E+03 0.  0.
          5    1    3    3  502    0 -0.33776724722E+01 -0.55231391044E+02 -0.50059104304E+02  0.74734875070E+02  0.41800000000E+01 0.  1.
         -5    1    3    3    0  502 -0.46468061113E+02  0.64142783046E+02 -0.81982212245E+02  0.11407073615E+03  0.41800000000E+01 0.  1.
        -11    1    1    2    0    0  0.72718591269E+02  0.80355142921E+01 -0.10761577036E+03  0.13012961629E+03  0.00000000000E+00 0.  1.
         11    1    1    2    0    0 -0.22872857684E+02 -0.16946906294E+02 -0.75517075765E+01  0.29451545611E+02  0.00000000000E+00 0. -1.
</event>
<event>
 7    1  0.2840156E-009  0.9125863E+02  0.7561462E-02  0.1299832E+00
          1   -1    0    0  501    0  0.00000000000E+00  0.00000000000E+00  0.21990025681E+02  0.21990025681E+02  0.00000000000E+00 0. -1.
         -1   -1    0    0    0  501 -0.00000000000E+00 -0.00000000000E+00 -0.55516919518E+03  0.55516919518E+03  0.00000000000E+00 0.  1.
         25    2    1    2    0    0  0.95689898744E+01 -0.88465041396E+01 -0.26332018195E+03  0.29181203169E+03  0.12508763893E+03 0.  0.
          5    1    3    3  502    0  0.23195367020E+02 -0.51943550740E+02 -0.22588037352E+03  0.23297118503E+03  0.41800000000E+01 0.  1.
         -5    1    3    3    0  502 -0.13626377146E+02  0.43097046600E+02 -0.37439808437E+02  0.58840846659E+02  0.41800000000E+01 0.  1.
        -11    1    1    2    0    0  0.26784312986E+01  0.43369838599E+02 -0.21523646976E+03  0.21957881229E+03  0.00000000000E+00 0.  1.
         11    1    1    2    0    0 -0.12247421173E+02 -0.34523334460E+02 -0.54622517788E+02  0.65768376877E+02  0.00000000000E+00 0. -1.
</event>
<event>
 7    1  0.2840156E-009  0.9734672E+02  0.7561462E-02  0.1285976E+00
         -4   -1    0    0    0  501 -0.00000000000E+00  0.00000000000E+00  0.10078138647E+03  0.10078138647E+03  0.00000000000E+00 0.  1.
          4   -1    0    0  501    0  0.00000000000E+00 -0.00000000000E+00 -0.12156198406E+03  0.12156198406E+03  0.00000000000E+00 0. -1.
         25    2    1    2    0    0  0.13284388697E+02 -0.15154214281E+02 -0.11235803276E+02  0.12720215154E+03  0.12509204166E+03 0.  0.
          5    1    3    3  502    0  0.63461187928E+02 -0.34858982682E+02 -0.38089434464E+01  0.72625419083E+02  0.41800000000E+01 0. -1.
         -5    1    3    3    0  502 -0.50176799231E+02  0.19704768401E+02 -0.74268598296E+01  0.54576732458E+02  0.41800000000E+01 0. -1.
        -11    1    1    2    0    0  0.15779288856E+02 -0.18047945215E+02  0.28243579859E+02  0.37046107576E+02  0.00000000000E+00 0.  1.
         11    1    1    2    0    0 -0.29063677553E+02  0.33202159496E+02 -0.37788374171E+02  0.58095111417E+02  0.00000000000E+00 0. -1.
</event>
<event>
 7    1  0.2840156E-009  0.1000853E+03  0.7561462E-02  0.1280117E+00
          1   -1    0    0  501    0  0.00000000000E+00  0.00000000000E+00  0.37730641749E+02  0.37730641749E+02  0.00000000000E+00 0. -1.
         -1   -1    0    0    0  501 -0.00000000000E+00 -0.00000000000E+00 -0.71418950655E+03  0.71418950655E+03  0.00000000000E+00 0.  1.
         25    2    1    2    0    0 -0.33925038348E+02 -0.55765601795E+02 -0.59595656740E+03  0.61243261954E+03  0.12509505457E+03 0.  0.
          5    1    3    3  502    0  0.26968198627E+02  0.13850588168E+02 -0.49560661880E+02  0.58248211438E+02  0.41800000000E+01 0.  1.
         -5    1    3    3    0  502 -0.60893236975E+02 -0.69616189962E+02 -0.54639590552E+03  0.55418440811E+03  0.41800000000E+01 0.  1.
        -11    1    1    2    0    0  0.24780169293E+00  0.39644818201E+02 -0.92198980556E+02  0.10036147185E+03  0.00000000000E+00 0.  1.
         11    1    1    2    0    0  0.33677236655E+02  0.16120783594E+02  0.11696683157E+02  0.39126056910E+02  0.00000000000E+00 0. -1.
</event>
<event>
 7    1  0.2840156E-009  0.1146780E+03  0.7561462E-02  0.1252144E+00
          2   -1    0    0  501    0  0.00000000000E+00  0.00000000000E+00  0.98411280084E+03  0.98411280084E+03  0.00000000000E+00 0. -1.
         -2   -1    0    0    0  501 -0.00000000000E+00 -0.00000000000E+00 -0.19467319493E+02  0.19467319493E+02  0.00000000000E+00 0.  1.
         25    2    1    2    0    0 -0.25591957630E+02 -0.48391415240E+02  0.76707587109E+03  0.77913405607E+03  0.12509119854E+03 0.  0.
          5    1    3    3  502    0  0.37192382678E+02 -0.61733323330E+02  0.39747191364E+03  0.40397483965E+03  0.41800000000E+01 0.  1.
         -5    1    3    3    0  502 -0.62784340308E+02  0.13341908090E+02  0.36960395745E+03  0.37515921642E+03  0.41800000000E+01 0.  1.
        -11    1    1    2    0    0 -0.23937443307E+01 -0.19375632405E+02  0.78320381376E+01  0.21035350352E+02  0.00000000000E+00 0.  1.
         11    1    1    2    0    0  0.27985701961E+02  0.67767047646E+02  0.18973757212E+03  0.20341071392E+03  0.00000000000E+00 0. -1.
</event>
<event>
 7    1  0.2840156E-009  0.1469002E+03  0.7561462E-02  0.1204335E+00
         -1   -1    0    0    0  501 -0.00000000000E+00  0.00000000000E+00  0.17827397864E+03  0.17827397864E+03  0.00000000000E+00 0.  1.
          1   -1    0    0  501    0  0.00000000000E+00 -0.00000000000E+00 -0.17528531509E+03  0.17528531509E+03  0.00000000000E+00 0. -1.
         25    2    1    2    0    0 -0.92380455846E+02  0.69566457098E+02  0.79072701999E+02  0.18781327191E+03  0.12509073638E+03 0.  0.
          5    1    3    3  502    0 -0.21181748797E+01  0.55758936493E+02 -0.13664342271E+02  0.57599759664E+02  0.41800000000E+01 0.  1.
         -5    1    3    3    0  502 -0.90262280966E+02  0.13807520605E+02  0.92737044271E+02  0.13021351224E+03  0.41800000000E+01 0.  1.
        -11    1    1    2    0    0  0.91942159983E+02 -0.16551255276E+02 -0.40052934014E+02  0.10164419490E+03  0.00000000000E+00 0. -1.
         11    1    1    2    0    0  0.43829586336E+00 -0.53015201822E+02 -0.36031104443E+02  0.64101826923E+02  0.00000000000E+00 0.  1.
</event>
<event>
 7    1  0.2840156E-009  0.1714689E+03  0.7561462E-02  0.1176325E+00
         -3   -1    0    0    0  501 -0.00000000000E+00  0.00000000000E+00  0.23993159848E+03  0.23993159848E+03  0.00000000000E+00 0.  1.
          3   -1    0    0  501    0  0.00000000000E+00 -0.00000000000E+00 -0.14090216222E+03  0.14090216222E+03  0.00000000000E+00 0. -1.
         25    2    1    2    0    0  0.10433477348E+03 -0.10533841137E+03  0.46256129536E+02  0.19942204227E+03  0.12509034958E+03 0.  0.
          5    1    3    3  502    0  0.10305797165E+03 -0.13165722757E+03  0.41527924223E+02  0.17232704948E+03  0.41800000000E+01 0. -1.
         -5    1    3    3    0  502  0.12768018248E+01  0.26318816197E+02  0.47282053128E+01  0.27094992792E+02  0.41800000000E+01 0. -1.
        -11    1    1    2    0    0 -0.65597343671E+02  0.76143703239E+02  0.77549019371E+02  0.12694378853E+03  0.00000000000E+00 0.  1.
         11    1    1    2    0    0 -0.38737429805E+02  0.29194708136E+02 -0.24775712638E+02  0.54467929901E+02  0.00000000000E+00 0. -1.
</event>
<event>
 7    1  0.2840156E-009  0.1968813E+03  0.7561462E-02  0.1152397E+00
         -2   -1    0    0    0  501 -0.00000000000E+00  0.00000000000E+00  0.13170063341E+03  0.13170063341E+03  0.00000000000E+00 0.  1.
          2   -1    0    0  501    0  0.00000000000E+00 -0.00000000000E+00 -0.34892513453E+03  0.34892513453E+03  0.00000000000E+00 0. -1.
         25    2    1    2    0    0  0.83974072814E+02 -0.16277567998E+03 -0.88839237021E+02  0.23892929715E+03  0.12508889681E+03 0.  0.
          5    1    3    3  502    0  0.45936996131E+02 -0.33848197997E+02  0.25279978093E+02  0.62549642794E+02  0.41800000000E+01 0.  1.
         -5    1    3    3    0  502  0.38037076683E+02 -0.12892748198E+03 -0.11411921511E+03  0.17637965436E+03  0.41800000000E+01 0.  1.
        -11    1    1    2    0    0 -0.34574079552E+01  0.99756292658E+02 -0.83056803811E+02  0.12985262513E+03  0.00000000000E+00 0. -1.
         11    1    1    2    0    0 -0.80516664859E+02  0.63019387323E+02 -0.45328460294E+02  0.11184384566E+03  0.00000000000E+00 0.  1.
</event>
<event>
 7    1  0.2840156E-009  0.1217224E+03  0.7561462E-02  0.1240282E+00
         -1   -1    0    0    0  501 -0.00000000000E+00  0.00000000000E+00  0.15603835759E+02  0.15603835759E+02  0.00000000000E+00 0.  1.
          1   -1    0    0  501    0  0.00000000000E+00 -0.00000000000E+00 -0.23161268878E+04  0.23161268878E+04  0.00000000000E+00 0. -1.
         25    2    1    2    0    0  0.78526373857E+02 -0.74370644414E+02 -0.18977231806E+04  0.19049143767E+04  0.12509247986E+03 0.  0.
          5    1    3    3  502    0 -0.87424979905E+01 -0.21575294545E+02 -0.62047010305E+02  0.66402021758E+02  0.41800000000E+01 0.  1.
         -5    1    3    3    0  502  0.87268871847E+02 -0.52795349869E+02 -0.18356761703E+04  0.18385123550E+04  0.41800000000E+01 0.  1.
        -11    1    1    2    0    0 -0.57793659384E+02  0.22798311880E+02 -0.32683569740E+03  0.33268820716E+03  0.00000000000E+00 0. -1.
         11    1    1    2    0    0 -0.20732714473E+02  0.51572332535E+02 -0.75964174084E+02  0.94128139665E+02  0.00000000000E+00 0.  1.
</event>
<event>
 7    1  0.2840156E-009  0.9608971E+02  0.7561462E-02  0.1288740E+00
          1   -1    0    0  501    0  0.00000000000E+00  0.00000000000E+00  0.97295629891E+02  0.97295629891E+02  0.00000000000E+00 0. -1.
         -1   -1    0    0    0  501 -0.00000000000E+00 -0.00000000000E+00 -0.29854855710E+03  0.29854855710E+03  0.00000000000E+00 0.  1.
         25    2    1    2    0    0  0.60406234123E+02 -0.47793846866E+02 -0.23664349257E+03  0.27853368378E+03  0.12509078904E+03 0.  0.
          5    1    3    3  502    0  0.67596236260E+02 -0.56754096355E+02 -0.24711445208E+03  0.26243723713E+03  0.41800000000E+01 0.  1.
         -5    1    3    3    0  502 -0.71900021370E+01  0.89602494895E+01  0.10470959503E+02  0.16096446644E+02  0.41800000000E+01 0.  1.
        -11    1    1    2    0    0 -0.11633249421E+02  0.40671464145E+02 -0.16806412020E+02  0.45518743093E+02  0.00000000000E+00 0.  1.
         11    1    1    2    0    0 -0.48772984702E+02  0.71223827204E+01  0.52196977388E+02  0.71791760118E+02  0.00000000000E+00 0. -1.
</event>
<event>
 7    1  0.2840156E-009  0.2081940E+03  0.7561462E-02  0.1143004E+00
         -2   -1    0    0    0  501 -0.00000000000E+00  0.00000000000E+00  0.80447688512E+02  0.80447688512E+02  0.00000000000E+00 0.  1.
          2   -1    0    0  501    0  0.00000000000E+00 -0.00000000000E+00 -0.85069499126E+03  0.85069499126E+03  0.00000000000E+00 0. -1.
         25    2    1    2    0    0 -0.18092721685E+03 -0.64684389644E+02 -0.14639247306E+03  0.27202456201E+03  0.12509147896E+03 0.  0.
          5    1    3    3  502    0 -0.11325452018E+03  0.17295923967E+02 -0.11186124785E+03  0.16017536171E+03  0.41800000000E+01 0. -1.
         -5    1    3    3    0  502 -0.67672696666E+02 -0.81980313611E+02 -0.34531225209E+02  0.11184920030E+03  0.41800000000E+01 0. -1.
        -11    1    1    2    0    0  0.83467731311E+02  0.11279622186E+02 -0.40498048348E+03  0.41364632725E+03  0.00000000000E+00 0. -1.
         11    1    1    2    0    0  0.97459485539E+02  0.53404767458E+02 -0.21887434621E+03  0.24547179051E+03  0.00000000000E+00 0.  1.
</event>
<event>
 7    1  0.2840156E-009  0.1284391E+03  0.7561462E-02  0.1229790E+00
          1   -1    0    0  501    0  0.00000000000E+00  0.00000000000E+00  0.24637582198E+02  0.24637582198E+02  0.00000000000E+00 0. -1.
         -1   -1    0    0    0  501 -0.00000000000E+00 -0.00000000000E+00 -0.79566852784E+03  0.79566852784E+03  0.00000000000E+00 0.  1.
         25    2    1    2    0    0 -0.48239978320E+02 -0.70671029375E+02 -0.49502041493E+03  0.51770092222E+03  0.12509014259E+03 0.  0.
          5    1    3    3  502    0 -0.74902085620E+02 -0.54799834227E+01 -0.18406001371E+03  0.19883639932E+03  0.41800000000E+01 0.  1.
         -5    1    3    3    0  502  0.26662107300E+02 -0.65191045952E+02 -0.31096040122E+03  0.31886452290E+03  0.41800000000E+01 0.  1.
        -11    1    1    2    0    0  0.51291733335E+02  0.12422177953E+02 -0.65242866545E+02  0.83915338578E+02  0.00000000000E+00 0. -1.
         11    1    1    2    0    0 -0.30517550147E+01  0.58248851422E+02 -0.21076766417E+03  0.21868984924E+03  0.00000000000E+00 0.  1.
</event>
<event>
 7    1  0.2840156E-009  0.1189893E+03  0.7561462E-02  0.1244774E+00
          4   -1    0    0  501    0  0.00000000000E+00  0.00000000000E+00  0.76802776665E+02  0.76802776665E+02  0.00000000000E+00 0. -1.
         -4   -1    0    0    0  501 -0.00000000000E+00 -0.00000000000E+00 -0.27220002750E+03  0.27220002750E+03  0.00000000000E+00 0.  1.
         25    2    1    2    0    0 -0.78872484448E+02  0.46301462730E+02 -0.14248782638E+03  0.21051149708E+03  0.12509042923E+03 0.  0.
          5    1    3    3  502    0 -0.35753440156E+02  0.66549934259E+02 -0.14400055219E+03  0.16266786303E+03  0.41800000000E+01 0.  1.
         -5    1    3    3    0  502 -0.43119044292E+02 -0.20248471529E+02  0.15127258073E+01  0.47843634052E+02  0.41800000000E+01 0.  1.
        -11    1    1    2    0    0  0.57764313085E+02  0.60212090986E+01 -0.57701202666E+02  0.81868184384E+02  0.00000000000E+00 0.  1.
         11    1    1    2    0    0  0.21108171363E+02 -0.52322671828E+02  0.47917782124E+01  0.56623122697E+02  0.00000000000E+00 0. -1.
</event>
<event>
 7    1  0.2840156E-009  0.1019609E+03  0.7561462E-02  0.1276226E+00
          3   -1    0    0  501    0  0.00000000000E+00  0.00000000000E+00  0.49648379159E+02  0.49648379159E+02  0.00000000000E+00 0. -1.
         -3   -1    0    0    0  501 -0.00000000000E+00 -0.00000000000E+00 -0.31709251727E+03  0.31709251727E+03  0.00000000000E+00 0.  1.
         25    2    1    2    0    0 -0.56259446165E+02  0.57968499723E+01 -0.18807261820E+03  0.23284663121E+03  0.12509002837E+03 0.  0.
          5    1    3    3  502    0  0.18963646231E+02 -0.61411623241E+01 -0.14258934955E+03  0.14403655354E+03  0.41800000000E+01 0.  1.
         -5    1    3    3    0  502 -0.75223092396E+02  0.11938012296E+02 -0.45483268651E+02  0.88810077662E+02  0.41800000000E+01 0.  1.
        -11    1    1    2    0    0 -0.22478698493E+02  0.13482164513E+02 -0.13753963896E+02  0.29601219042E+02  0.00000000000E+00 0. -1.
         11    1    1    2    0    0  0.78738144658E+02 -0.19279014486E+02 -0.65617556017E+02  0.10429304618E+03  0.00000000000E+00 0.  1.
</event>
<event>
 7    1  0.2840156E-009  0.1029564E+03  0.7561462E-02  0.1274199E+00
         -2   -1    0    0    0  501 -0.00000000000E+00  0.00000000000E+00  0.10562547181E+03  0.10562547181E+03  0.00000000000E+00 0.  1.
          2   -1    0    0  501    0  0.00000000000E+00 -0.00000000000E+00 -0.14224986082E+03  0.14224986082E+03  0.00000000000E+00 0. -1.
         25    2    1    2    0    0  0.28509518993E+02  0.23198920642E+02 -0.64556726511E+02  0.14548656914E+03  0.12509111987E+03 0.  0.
          5    1    3    3  502    0 -0.21180152960E+02  0.57602534724E+02 -0.69818185087E+01  0.61910169405E+02  0.41800000000E+01 0. -1.
         -5    1    3    3    0  502  0.49689671953E+02 -0.34403614082E+02 -0.57574908003E+02  0.83576399732E+02  0.41800000000E+01 0. -1.
        -11    1    1    2    0    0 -0.52766747394E+02 -0.40696319562E+01  0.42838215580E+02  0.68088209323E+02  0.00000000000E+00 0.  1.
         11    1    1    2    0    0  0.24257228401E+02 -0.19129288686E+02 -0.14905878077E+02  0.34300554173E+02  0.00000000000E+00 0. -1.
</event>
<event>
 7    1  0.2840156E-009  0.1534800E+03  0.7561462E-02  0.1196261E+00
         -3   -1    0    0    0  501 -0.00000000000E+00  0.00000000000E+00  0.23561436212E+03  0.23561436212E+03  0.00000000000E+00 0.  1.
          3   -1    0    0  501    0  0.00000000000E+00 -0.00000000000E+00 -0.11957428670E+03  0.11957428670E+03  0.00000000000E+00 0. -1.
         25    2    1    2    0    0  0.98682409461E+02  0.64106178107E+02  0.10886196509E+03  0.20333883066E+03  0.12509169678E+03 0.  0.
          5    1    3    3  502    0  0.12033845630E+03  0.50926579381E+02  0.11795431016E+03  0.17608393521E+03  0.41800000000E+01 0. -1.
         -5    1    3    3    0  502 -0.21656046843E+02  0.13179598726E+02 -0.90923450669E+01  0.27254895455E+02  0.41800000000E+01 0. -1.
        -11    1    1    2    0    0 -0.45107345981E+02  0.21163381803E+02  0.11190312022E+02  0.51066471133E+02  0.00000000000E+00 0.  1.
         11    1    1    2    0    0 -0.53575063479E+02 -0.85269559910E+02 -0.40122016906E+01  0.10078334702E+03  0.00000000000E+00 0. -1.
</event>
<event>
 7    1  0.2840156E-009  0.3715114E+03  0.7561462E-02  0.1054117E+00
         -2   -1    0    0    0  501 -0.00000000000E+00  0.00000000000E+00  0.13690979770E+03  0.13690979770E+03  0.00000000000E+00 0.  1.
          2   -1    0    0  501    0  0.00000000000E+00 -0.00000000000E+00 -0.10810491774E+04  0.10810491774E+04  0.00000000000E+00 0. -1.
         25    2    1    2    0    0  0.20758671997E+03  0.30024854972E+03 -0.39223198506E+03  0.55021272391E+03  0.12508666405E+03 0.  0.
          5    1    3    3  502    0  0.13316899282E+03  0.23947780923E+03 -0.35166929425E+03  0.44583894702E+03  0.41800000000E+01 0.  1.
         -5    1    3    3    0  502  0.74417727156E+02  0.60770740494E+02 -0.40562690807E+02  0.10437377688E+03  0.41800000000E+01 0.  1.
        -11    1    1    2    0    0 -0.14739940180E+03 -0.14703735553E+03 -0.34998526399E+03  0.40722997505E+03  0.00000000000E+00 0.  1.
         11    1    1    2    0    0 -0.60187318174E+02 -0.15321119419E+03 -0.20192213068E+03  0.26051627618E+03  0.00000000000E+00 0. -1.
</event>
<event>
 7    1  0.2840156E-009  0.1134023E+03  0.7561462E-02  0.1254396E+00
         -2   -1    0    0    0  501 -0.00000000000E+00  0.00000000000E+00  0.47503063961E+02  0.47503063961E+02  0.00000000000E+00 0. -1.
          2   -1    0    0  501    0  0.00000000000E+00 -0.00000000000E+00 -0.35563822242E+03  0.35563822242E+03  0.00000000000E+00 0.  1.
         25    2    1    2    0    0  0.45499210565E+02  0.14380224504E+02 -0.26248048536E+03  0.29465340256E+03  0.12509058088E+03 0.  0.
          5    1    3    3  502    0  0.80786009043E+02  0.39833802987E+02 -0.17780660957E+03  0.19936342173E+03  0.41800000000E+01 0. -1.
         -5    1    3    3    0  502 -0.35286798479E+02 -0.25453578483E+02 -0.84673875791E+02  0.95289980827E+02  0.41800000000E+01 0. -1.
        -11    1    1    2    0    0 -0.56802999207E+02 -0.36894278649E+02 -0.48250953219E+02  0.83162028609E+02  0.00000000000E+00 0.  1.
         11    1    1    2    0    0  0.11303788642E+02  0.22514054145E+02  0.25962801245E+01  0.25325855211E+02  0.00000000000E+00 0. -1.
</event>
<event>
 7    1  0.2840156E-009  0.1194122E+03  0.7561462E-02  0.1244070E+00
          2   -1    0    0  501    0  0.00000000000E+00  0.00000000000E+00  0.37787186324E+03  0.37787186324E+03  0.00000000000E+00 0. -1.
         -2   -1    0    0    0  501 -0.00000000000E+00 -0.00000000000E+00 -0.61384675314E+02  0.61384675314E+02  0.00000000000E+00 0.  1.
         25    2    1    2    0    0 -0.21840714719E+02 -0.10026762560E+03  0.13126351293E+03  0.20834450209E+03  0.12508680251E+03 0.  0.
          5    1    3    3  502    0 -0.33021178359E+02 -0.70016219386E+02  0.15139972499E+03  0.17009414548E+03  0.41800000000E+01 0.  1.
         -5    1    3    3    0  502  0.11180463640E+02 -0.30251406210E+02 -0.20136212061E+02  0.38250356613E+02  0.41800000000E+01 0.  1.
        -11    1    1    2    0    0 -0.24669472488E+02  0.67548051937E+02  0.61030670321E+02  0.94318953096E+02  0.00000000000E+00 0.  1.
         11    1    1    2    0    0  0.46510187206E+02  0.32719573659E+02  0.12419300468E+03  0.13659308337E+03  0.00000000000E+00 0. -1.
</event>
<event>
 7    1  0.2840156E-009  0.1159814E+03  0.7561462E-02  0.1249878E+00
          1   -1    0    0  501    0  0.00000000000E+00  0.00000000000E+00  0.22846489440E+03  0.22846489440E+03  0.00000000000E+00 0. -1.
         -1   -1    0    0    0  501 -0.00000000000E+00 -0.00000000000E+00 -0.87926092847E+02  0.87926092847E+02  0.00000000000E+00 0.  1.
         25    2    1    2    0    0 -0.45532710289E+02  0.78766752244E+02  0.90523674459E+02  0.17921824494E+03  0.12508882730E+03 0.  0.
          5    1    3    3  502    0  0.21400764138E+01  0.91245174004E+02  0.20746081526E+02  0.93691696562E+02  0.41800000000E+01 0.  1.
         -5    1    3    3    0  502 -0.47672786702E+02 -0.12478421760E+02  0.69777592933E+02  0.85526548376E+02  0.41800000000E+01 0.  1.
        -11    1    1    2    0    0  0.17296135810E+02 -0.35274631151E+02  0.71070779762E+02  0.81206598579E+02  0.00000000000E+00 0.  1.
         11    1    1    2    0    0  0.28236574479E+02 -0.43492121092E+02 -0.21055652663E+02  0.55966143735E+02  0.00000000000E+00 0. -1.
</event>
<event>
 7    1  0.2840156E-009  0.1077176E+03  0.7561462E-02  0.1264856E+00
         -2   -1    0    0    0  501 -0.00000000000E+00  0.00000000000E+00  0.46762810399E+02  0.46762810399E+02  0.00000000000E+00 0.  1.
          2   -1    0    0  501    0  0.00000000000E+00 -0.00000000000E+00 -0.37626389294E+03  0.37626389294E+03  0.00000000000E+00 0. -1.
         25    2    1    2    0    0 -0.26159669504E+02  0.56352071331E+02 -0.10939155993E+03  0.17740906477E+03  0.12509028190E+03 0.  0.
          5    1    3    3  502    0  0.46312528574E+02 -0.12028266422E+00 -0.26087326628E+02  0.53318718865E+02  0.41800000000E+01 0.  1.
         -5    1    3    3    0  502 -0.72472198078E+02  0.56472353996E+02 -0.83304233303E+02  0.12409034590E+03  0.41800000000E+01 0.  1.
        -11    1    1    2    0    0 -0.13123345047E+02 -0.13408759482E+02 -0.86753320436E+00  0.18782162546E+02  0.00000000000E+00 0.  1.
         11    1    1    2    0    0  0.39283014551E+02 -0.42943311850E+02 -0.21924198941E+03  0.22683547603E+03  0.00000000000E+00 0. -1.
</event>
<event>
 7    1  0.2840156E-009  0.8215419E+02  0.7561462E-02  0.1323047E+00
          2   -1    0    0  501    0  0.00000000000E+00  0.00000000000E+00  0.15129513606E+03  0.15129513606E+03  0.00000000000E+00 0. -1.
         -2   -1    0    0    0  501 -0.00000000000E+00 -0.00000000000E+00 -0.88376393851E+02  0.88376393851E+02  0.00000000000E+00 0.  1.
         25    2    1    2    0    0 -0.22328219616E+01  0.68243009439E+01  0.77996462689E+02  0.14760452716E+03  0.12510831974E+03 0.  0.
          5    1    3    3  502    0 -0.49926802644E+02 -0.23471991412E+02  0.71749282416E+02  0.90603818520E+02  0.41800000000E+01 0.  1.
         -5    1    3    3    0  502  0.47693980682E+02  0.30296292356E+02  0.62471802724E+01  0.57000708637E+02  0.41800000000E+01 0.  1.
        -11    1    1    2    0    0  0.25749536508E+02  0.46356941323E+01 -0.45165758899E+02  0.52196494780E+02  0.00000000000E+00 0.  1.
         11    1    1    2    0    0 -0.23516714546E+02 -0.11459995076E+02  0.30088038422E+02  0.39870507976E+02  0.00000000000E+00 0. -1.
</event>
<event>
 7    1  0.2842179E-009  0.9150925E+02  0.7561462E-02  0.1299237E+00
         -1   -1    0    0    0  501 -0.00000000000E+00  0.00000000000E+00  0.18062665484E+03  0.18062665484E+03  0.00000000000E+00 0.  1.
          1   -1    0    0  501    0  0.00000000000E+00 -0.00000000000E+00 -0.85576424755E+02  0.85576424755E+02  0.00000000000E+00 0. -1.
         25    2    1    2    0    0 -0.48671878692E+01 -0.55973089251E+01  0.11753525093E+03  0.17180224574E+03  0.12508579874E+03 0.  0.
          5    1    3    3  502    0  0.57535435675E+02  0.13509725288E+02  0.47094166252E+02  0.75684687557E+02  0.41800000000E+01 0. -1.
         -5    1    3    3    0  502 -0.62402623544E+02 -0.19107034214E+02  0.70441084675E+02  0.96117558187E+02  0.41800000000E+01 0. -1.
        -11    1    1    2    0    0 -0.11193858773E+02  0.28375378389E+02  0.24933983345E+02  0.39397564626E+02  0.00000000000E+00 0.  1.
         11    1    1    2    0    0  0.16061046642E+02 -0.22778069464E+02 -0.47419004185E+02  0.55003269227E+02  0.00000000000E+00 0. -1.
</event>
<event>
 7    1  0.2840156E-009  0.1494858E+03  0.7561462E-02  0.1201106E+00
         -2   -1    0    0    0  501 -0.00000000000E+00  0.00000000000E+00  0.25372661502E+02  0.25372661502E+02  0.00000000000E+00 0.  1.
          2   -1    0    0  501    0  0.00000000000E+00 -0.00000000000E+00 -0.11972261252E+04  0.11972261252E+04  0.00000000000E+00 0. -1.
         25    2    1    2    0    0  0.58257658301E+02  0.11772431561E+03 -0.49218227492E+03  0.52454147673E+03  0.12508956725E+03 0.  0.
          5    1    3    3  502    0 -0.55399896565E+01  0.68569298852E+02 -0.38104046149E+03  0.38722312162E+03  0.41800000000E+01 0.  1.
         -5    1    3    3    0  502  0.63797647958E+02  0.49155016757E+02 -0.11114181343E+03  0.13731835511E+03  0.41800000000E+01 0.  1.
        -11    1    1    2    0    0 -0.39274601218E+02 -0.10693274733E+02 -0.94779407871E+02  0.10315026215E+03  0.00000000000E+00 0.  1.
         11    1    1    2    0    0 -0.18983057083E+02 -0.10703104088E+03 -0.58489178089E+03  0.59490704780E+03  0.00000000000E+00 0. -1.
</event>
<event>
 7    1  0.2840156E-009  0.8940643E+02  0.7561462E-02  0.1304295E+00
         -2   -1    0    0    0  501 -0.00000000000E+00  0.00000000000E+00  0.39773376573E+02  0.39773376573E+02  0.00000000000E+00 0.  1.
          2   -1    0    0  501    0  0.00000000000E+00 -0.00000000000E+00 -0.34348398665E+03  0.34348398665E+03  0.00000000000E+00 0. -1.
         25    2    1    2    0    0 -0.11068058482E+02 -0.37172502211E+02 -0.13568000781E+03  0.18857404089E+03  0.12508719975E+03 0.  0.
          5    1    3    3  502    0 -0.40732143866E+02  0.72408519989E+01  0.11845654061E+01  0.41598234059E+02  0.41800000000E+01 0.  1.
         -5    1    3    3    0  502  0.29664085384E+02 -0.44413354210E+02 -0.13686457321E+03  0.14697580683E+03  0.41800000000E+01 0.  1.
        -11    1    1    2    0    0  0.42829201686E+02  0.25350649083E+02 -0.45090452866E+02  0.67157612120E+02  0.00000000000E+00 0. -1.
         11    1    1    2    0    0 -0.31761143204E+02  0.11821853129E+02 -0.12294014940E+03  0.12752571021E+03  0.00000000000E+00 0.  1.
</event>
<event>
 7    1  0.2840156E-009  0.8668561E+02  0.7561462E-02  0.1311082E+00
          2   -1    0    0  501    0  0.00000000000E+00  0.00000000000E+00  0.42315650178E+02  0.42315650178E+02  0.00000000000E+00 0. -1.
         -2   -1    0    0    0  501 -0.00000000000E+00 -0.00000000000E+00 -0.30131621470E+03  0.30131621470E+03  0.00000000000E+00 0.  1.
         25    2    1    2    0    0 -0.60182324661E+01 -0.96125386145E+00 -0.98518977345E+02  0.15933789498E+03  0.12508170430E+03 0.  0.
          5    1    3    3  502    0 -0.24923250776E+02 -0.49670225334E+02 -0.10228245318E+02  0.56660295766E+02  0.41800000000E+01 0.  1.
         -5    1    3    3    0  502  0.18905018310E+02  0.48708971473E+02 -0.88290732027E+02  0.10267759922E+03  0.41800000000E+01 0.  1.
        -11    1    1    2    0    0  0.34692907500E+02 -0.71582531340E+01 -0.14766207930E+03  0.15185166473E+03  0.00000000000E+00 0.  1.
         11    1    1    2    0    0 -0.28674675034E+02  0.81195069954E+01 -0.12819507879E+02  0.32442305165E+02  0.00000000000E+00 0. -1.
</event>
<event>
 7    1  0.2840156E-009  0.1751492E+03  0.7561462E-02  0.1172582E+00
          2   -1    0    0  501    0  0.00000000000E+00  0.00000000000E+00  0.36479453290E+03  0.36479453290E+03  0.00000000000E+00 0.  1.
         -2   -1    0    0    0  501 -0.00000000000E+00 -0.00000000000E+00 -0.11112297640E+03  0.11112297640E+03  0.00000000000E+00 0. -1.
         25    2    1    2    0    0  0.16754833887E+03 -0.25699818050E+02  0.10286946295E+03  0.23444222592E+03  0.12509238340E+03 0.  0.
          5    1    3    3  502    0  0.85720193736E+02 -0.27252888237E+02  0.12068786234E+03  0.15057790026E+03  0.41800000000E+01 0.  1.
         -5    1    3    3    0  502  0.81828145131E+02  0.15530701863E+01 -0.17818399387E+02  0.83864325665E+02  0.41800000000E+01 0.  1.
        -11    1    1    2    0    0 -0.10161311031E+03 -0.12052419362E+02  0.46402000258E+02  0.11235493148E+03  0.00000000000E+00 0. -1.
         11    1    1    2    0    0 -0.65935228552E+02  0.37752237412E+02  0.10440009330E+03  0.12912035190E+03  0.00000000000E+00 0.  1.
</event>
<event>
 7    1  0.2840156E-009  0.1608737E+03  0.7561462E-02  0.1187714E+00
          2   -1    0    0  501    0  0.00000000000E+00  0.00000000000E+00  0.69164419962E+03  0.69164419962E+03  0.00000000000E+00 0. -1.
         -2   -1    0    0    0  501 -0.00000000000E+00 -0.00000000000E+00 -0.47282559055E+02  0.47282559055E+02  0.00000000000E+00 0.  1.
         25    2    1    2    0    0 -0.52212296498E+02  0.11319735502E+03  0.18645873810E+03  0.25681518644E+03  0.12508962341E+03 0.  0.
          5    1    3    3  502    0 -0.23967823863E+01  0.12506984583E+03  0.12925018796E+03  0.17992024452E+03  0.41800000000E+01 0. -1.
         -5    1    3    3    0  502 -0.49815514112E+02 -0.11872490803E+02  0.57208550138E+02  0.76894941921E+02  0.41800000000E+01 0. -1.
        -11    1    1    2    0    0  0.25985273162E+02 -0.11595599888E+03  0.41565989276E+03  0.43231258893E+03  0.00000000000E+00 0. -1.
         11    1    1    2    0    0  0.26227023336E+02  0.27586438617E+01  0.42243009712E+02  0.49798983308E+02  0.00000000000E+00 0.  1.
</event>
<event>
 7    1  0.2840156E-009  0.1097258E+03  0.7561462E-02  0.1261079E+00
         -1   -1    0    0    0  501 -0.00000000000E+00  0.00000000000E+00  0.11555493940E+02  0.11555493940E+02  0.00000000000E+00 0.  1.
          1   -1    0    0  501    0  0.00000000000E+00 -0.00000000000E+00 -0.15566331599E+04  0.15566331599E+04  0.00000000000E+00 0. -1.
         25    2    1    2    0    0  0.10656674279E+02  0.41386939512E+02 -0.12437827904E+04  0.12507878382E+04  0.12509253812E+03 0.  0.
          5    1    3    3  502    0 -0.15110784644E+02  0.77531512458E+02 -0.98686765933E+03  0.99003268667E+03  0.41800000000E+01 0. -1.
         -5    1    3    3    0  502  0.25767458923E+02 -0.36144572946E+02 -0.25691513107E+03  0.26075515156E+03  0.41800000000E+01 0. -1.
        -11    1    1    2    0    0  0.37823655185E+02 -0.16425995208E+02 -0.17579319250E+03  0.18056491558E+03  0.00000000000E+00 0. -1.
         11    1    1    2    0    0 -0.48480329464E+02 -0.24960944304E+02 -0.12550168305E+03  0.13683590002E+03  0.00000000000E+00 0.  1.
</event>
<event>
 7    1  0.2840156E-009  0.1140924E+03  0.7561462E-02  0.1253174E+00
          1   -1    0    0  501    0  0.00000000000E+00  0.00000000000E+00  0.23615619911E+02  0.23615619911E+02  0.00000000000E+00 0. -1.
         -1   -1    0    0    0  501 -0.00000000000E+00 -0.00000000000E+00 -0.72241566410E+03  0.72241566410E+03  0.00000000000E+00 0.  1.
         25    2    1    2    0    0  0.26970980494E+02  0.63446843216E+02 -0.40939058533E+03  0.43359142865E+03  0.12509172610E+03 0.  0.
          5    1    3    3  502    0 -0.38554094925E+02  0.63654073045E+02 -0.17580367531E+03  0.19095199372E+03  0.41800000000E+01 0. -1.
         -5    1    3    3    0  502  0.65525075419E+02 -0.20722982883E+00 -0.23358691002E+03  0.24263943493E+03  0.41800000000E+01 0. -1.
        -11    1    1    2    0    0  0.16641461054E+02 -0.23857363111E+02 -0.16907618789E+02  0.33644904128E+02  0.00000000000E+00 0. -1.
         11    1    1    2    0    0 -0.43612441548E+02 -0.39589480105E+02 -0.27250184007E+03  0.27879495124E+03  0.00000000000E+00 0.  1.
</event>
<event>
 7    1  0.2840156E-009  0.1006961E+03  0.7561462E-02  0.1278839E+00
          1   -1    0    0  501    0  0.00000000000E+00  0.00000000000E+00  0.73527262184E+02  0.73527262184E+02  0.00000000000E+00 0. -1.
         -1   -1    0    0    0  501 -0.00000000000E+00 -0.00000000000E+00 -0.22770793748E+03  0.22770793748E+03  0.00000000000E+00 0.  1.
         25    2    1    2    0    0  0.71273717023E+02 -0.17884508838E+01 -0.91405194026E+02  0.17054448894E+03  0.12508945567E+03 0.  0.
          5    1    3    3  502    0 -0.21281807176E+02 -0.11818582366E+02  0.15158643225E+02  0.28980184096E+02  0.41800000000E+01 0.  1.
         -5    1    3    3    0  502  0.92555524199E+02  0.10030131482E+02 -0.10656383725E+03  0.14156430485E+03  0.41800000000E+01 0.  1.
        -11    1    1    2    0    0 -0.19657513405E+02 -0.19480448168E+02  0.17623675656E+02  0.32810053912E+02  0.00000000000E+00 0. -1.
         11    1    1    2    0    0 -0.51616203618E+02  0.21268899051E+02 -0.80399156923E+02  0.97880656805E+02  0.00000000000E+00 0.  1.
</event>
<event>
 7    1  0.2840156E-009  0.8473843E+02  0.7561462E-02  0.1316118E+00
         -1   -1    0    0    0  501 -0.00000000000E+00  0.00000000000E+00  0.12579658646E+03  0.12579658646E+03  0.00000000000E+00 0.  1.
          1   -1    0    0  501    0  0.00000000000E+00 -0.00000000000E+00 -0.13517201732E+03  0.13517201732E+03  0.00000000000E+00 0. -1.
         25    2    1    2    0    0  0.63714154027E+02 -0.28478413734E+02  0.14716525212E+02  0.14399977471E+03  0.12509534576E+03 0.  0.
          5    1    3    3  502    0  0.12789557774E+02 -0.43812983072E+02 -0.44788088431E+02  0.64082724185E+02  0.41800000000E+01 0.  1.
         -5    1    3    3    0  502  0.50924596253E+02  0.15334569338E+02  0.59504613643E+02  0.79917050528E+02  0.41800000000E+01 0.  1.
        -11    1    1    2    0    0 -0.54859330460E+02  0.21122066847E+02 -0.57136028606E+02  0.81976909012E+02  0.00000000000E+00 0. -1.
         11    1    1    2    0    0 -0.88548235668E+01  0.73563468877E+01  0.33044072530E+02  0.34991920057E+02  0.00000000000E+00 0.  1.
</event>
<event>
 7    1  0.2840156E-009  0.9678326E+02  0.7561462E-02  0.1287210E+00
          2   -1    0    0  501    0  0.00000000000E+00  0.00000000000E+00  0.42781914403E+02  0.42781914403E+02  0.00000000000E+00 0. -1.
         -2   -1    0    0    0  501 -0.00000000000E+00 -0.00000000000E+00 -0.30807781696E+03  0.30807781696E+03  0.00000000000E+00 0.  1.
         25    2    1    2    0    0  0.32555153482E+02 -0.11600909835E+02 -0.17622145630E+03  0.21885204207E+03  0.12509114890E+03 0.  0.
          5    1    3    3  502    0  0.66989412829E+02 -0.14171297229E+02 -0.17026331734E+03  0.18356327717E+03  0.41800000000E+01 0. -1.
         -5    1    3    3    0  502 -0.34434259347E+02  0.25703873945E+01 -0.59581389589E+01  0.35288764898E+02  0.41800000000E+01 0. -1.
        -11    1    1    2    0    0 -0.98606828575E+01  0.47061790275E+02 -0.22146026320E+02  0.52938564885E+02  0.00000000000E+00 0.  1.
         11    1    1    2    0    0 -0.22694470625E+02 -0.35460880441E+02 -0.66928419940E+02  0.79069124405E+02  0.00000000000E+00 0. -1.
</event>
<event>
 7    1  0.2840156E-009  0.1630869E+03  0.7561462E-02  0.1185255E+00
         -2   -1    0    0    0  501 -0.00000000000E+00  0.00000000000E+00  0.32488068175E+02  0.32488068175E+02  0.00000000000E+00 0.  1.
          2   -1    0    0  501    0  0.00000000000E+00 -0.00000000000E+00 -0.95826514090E+03  0.95826514090E+03  0.00000000000E+00 0. -1.
         25    2    1    2    0    0  0.69819285790E+02  0.10740730784E+03 -0.33295739627E+03  0.37805245184E+03  0.12510781817E+03 0.  0.
          5    1    3    3  502    0  0.88519178888E+02  0.25544238353E+02 -0.14091378027E+03  0.16841116060E+03  0.41800000000E+01 0. -1.
         -5    1    3    3    0  502 -0.18699893099E+02  0.81863069482E+02 -0.19204361600E+03  0.20964129124E+03  0.41800000000E+01 0. -1.
        -11    1    1    2    0    0 -0.61688191500E+02 -0.24194680578E+02 -0.34055317058E+03  0.34693987596E+03  0.00000000000E+00 0. -1.
         11    1    1    2    0    0 -0.81310942898E+01 -0.83212627257E+02 -0.25226650588E+03  0.26576088128E+03  0.00000000000E+00 0.  1.
</event>
<event>
 7    1  0.2840156E-009  0.7923516E+02  0.7561462E-02  0.1331236E+00
         -2   -1    0    0    0  501 -0.00000000000E+00  0.00000000000E+00  0.48051390935E+02  0.48051390935E+02  0.00000000000E+00 0.  1.
          2   -1    0    0  501    0  0.00000000000E+00 -0.00000000000E+00 -0.27152685317E+03  0.27152685317E+03  0.00000000000E+00 0. -1.
         25    2    1    2    0    0  0.34488749679E+02  0.77322673533E+01 -0.11155335404E+03  0.17129648622E+03  0.12509625726E+03 0.  0.
          5    1    3    3  502    0  0.43552029607E+01  0.26978275112E+02  0.20504781949E+02  0.34419668848E+02  0.41800000000E+01 0. -1.
         -5    1    3    3    0  502  0.30133546718E+02 -0.19246007758E+02 -0.13205813599E+03  0.13687681737E+03  0.41800000000E+01 0. -1.
        -11    1    1    2    0    0  0.19137705338E+02 -0.30950334721E+02 -0.59670989639E+02  0.69891358474E+02  0.00000000000E+00 0. -1.
         11    1    1    2    0    0 -0.53626455016E+02  0.23218067367E+02 -0.52251118556E+02  0.78390399414E+02  0.00000000000E+00 0.  1.
</event>
<event>
 7    1  0.5233170E-009  0.1662175E+03  0.7561462E-02  0.1181851E+00
          1   -1    0    0  501    0  0.00000000000E+00  0.00000000000E+00  0.38976597926E+03  0.38976597926E+03  0.00000000000E+00 0. -1.
         -1   -1    0    0    0  501 -0.00000000000E+00 -0.00000000000E+00 -0.87978460922E+02  0.87978460922E+02  0.00000000000E+00 0.  1.
         25    2    1    2    0    0 -0.49998237728E+02 -0.14060174863E+03  0.17469367678E+03  0.26160073820E+03  0.12509352512E+03 0.  0.
          5    1    3    3  502    0 -0.82406125014E+02 -0.11091304414E+03  0.16698940503E+03  0.21678423972E+03  0.41800000000E+01 0. -1.
         -5    1    3    3    0  502  0.32407887286E+02 -0.29688704492E+02  0.77042717459E+01  0.44816498479E+02  0.41800000000E+01 0. -1.
        -11    1    1    2    0    0  0.19186236366E+02  0.77286560770E+02  0.11033444594E+02  0.80393165388E+02  0.00000000000E+00 0.  1.
         11    1    1    2    0    0  0.30812001362E+02  0.63315187858E+02  0.11606039697E+03  0.13575053660E+03  0.00000000000E+00 0. -1.
</event>
<event>
 7    1  0.2840156E-009  0.1009536E+03  0.7561462E-02  0.1278303E+00
         -1   -1    0    0    0  501 -0.00000000000E+00  0.00000000000E+00  0.73722822638E+03  0.73722822638E+03  0.00000000000E+00 0.  1.
          1   -1    0    0  501    0  0.00000000000E+00 -0.00000000000E+00 -0.18140067354E+02  0.18140067354E+02  0.00000000000E+00 0. -1.
         25    2    1    2    0    0 -0.20715101072E+02  0.79862491700E+01  0.29419150573E+03  0.32045092236E+03  0.12508899234E+03 0.  0.
          5    1    3    3  502    0  0.25992005495E+02  0.43112657828E+02  0.22098359315E+03  0.22668371458E+03  0.41800000000E+01 0. -1.
         -5    1    3    3    0  502 -0.46707106567E+02 -0.35126408658E+02  0.73207912585E+02  0.93767207776E+02  0.41800000000E+01 0. -1.
        -11    1    1    2    0    0  0.51612039215E+02  0.15614113195E+02  0.25140137037E+03  0.25711913998E+03  0.00000000000E+00 0.  1.
         11    1    1    2    0    0 -0.30896938143E+02 -0.23600362365E+02  0.17349528292E+03  0.17779823140E+03  0.00000000000E+00 0. -1.
</event>
<event>
 7    1  0.2840156E-009  0.1141306E+03  0.7561462E-02  0.1253106E+00
         -2   -1    0    0    0  501 -0.00000000000E+00  0.00000000000E+00  0.50034514826E+02  0.50034514826E+02  0.00000000000E+00 0. -1.
          2   -1    0    0  501    0  0.00000000000E+00 -0.00000000000E+00 -0.44486493289E+03  0.44486493289E+03  0.00000000000E+00 0.  1.
         25    2    1    2    0    0  0.70563582327E+01 -0.94582732951E+02 -0.27889495363E+03  0.32003543432E+03  0.12507836940E+03 0.  0.
          5    1    3    3  502    0  0.19631371544E+02 -0.36784571904E+02 -0.25105377692E+03  0.25452694707E+03  0.41800000000E+01 0. -1.
         -5    1    3    3    0  502 -0.12575013311E+02 -0.57798161048E+02 -0.27841176711E+02  0.65508487243E+02  0.41800000000E+01 0. -1.
        -11    1    1    2    0    0  0.13785183892E+02 -0.12110560210E+02 -0.34353760122E+02  0.38947115401E+02  0.00000000000E+00 0.  1.
         11    1    1    2    0    0 -0.20841542125E+02  0.10669329316E+03 -0.81581704308E+02  0.13591689800E+03  0.00000000000E+00 0. -1.
</event>
<event>
 7    1  0.2840156E-009  0.6210117E+02  0.7561462E-02  0.1389220E+00
         -2   -1    0    0    0  501 -0.00000000000E+00  0.00000000000E+00  0.47913795154E+02  0.47913795154E+02  0.00000000000E+00 0.  1.
          2   -1    0    0  501    0  0.00000000000E+00 -0.00000000000E+00 -0.30695310602E+03  0.30695310602E+03  0.00000000000E+00 0. -1.
         25    2    1    2    0    0  0.98619973251E+01 -0.48998536432E+02 -0.17487740682E+03  0.22074393448E+03  0.12509061368E+03 0.  0.
          5    1    3    3  502    0  0.14160930913E+02 -0.53980216147E+02 -0.19303506776E+03  0.20098359507E+03  0.41800000000E+01 0.  1.
         -5    1    3    3    0  502 -0.42989335879E+01  0.49816797152E+01  0.18157660946E+02  0.19760339415E+02  0.41800000000E+01 0.  1.
        -11    1    1    2    0    0  0.87550535106E+01  0.37618819085E+02 -0.99974502228E+02  0.10717615223E+03  0.00000000000E+00 0. -1.
         11    1    1    2    0    0 -0.18617050836E+02  0.11379717347E+02  0.15812598175E+02  0.26946814464E+02  0.00000000000E+00 0.  1.
</event>
<event>
 7    1  0.2840156E-009  0.1058910E+03  0.7561462E-02  0.1268374E+00
         -1   -1    0    0    0  501 -0.00000000000E+00  0.00000000000E+00  0.12375432367E+02  0.12375432367E+02  0.00000000000E+00 0.  1.
          1   -1    0    0  501    0  0.00000000000E+00 -0.00000000000E+00 -0.13335149574E+04  0.13335149574E+04  0.00000000000E+00 0. -1.
         25    2    1    2    0    0 -0.17920028842E+01 -0.23479865272E+02 -0.10744566708E+04  0.10819701758E+04  0.12509120109E+03 0.  0.
          5    1    3    3  502    0  0.12896237891E+02  0.47952649447E+02 -0.58143499880E+03  0.58356653415E+03  0.41800000000E+01 0.  1.
         -5    1    3    3    0  502 -0.14688240775E+02 -0.71432514718E+02 -0.49302167196E+03  0.49840364163E+03  0.41800000000E+01 0.  1.
        -11    1    1    2    0    0  0.41789792186E+02  0.25322017741E+02 -0.17628965328E+03  0.18293614505E+03  0.00000000000E+00 0. -1.
         11    1    1    2    0    0 -0.39997789302E+02 -0.18421524690E+01 -0.70393200977E+02  0.80984068918E+02  0.00000000000E+00 0.  1.
</event>
<event>
 7    1  0.2840156E-009  0.9363089E+02  0.7561462E-02  0.1294290E+00
          3   -1    0    0  501    0  0.00000000000E+00  0.00000000000E+00  0.11715759753E+03  0.11715759753E+03  0.00000000000E+00 0. -1.
         -3   -1    0    0    0  501 -0.00000000000E+00 -0.00000000000E+00 -0.16584337764E+03  0.16584337764E+03  0.00000000000E+00 0.  1.
         25    2    1    2    0    0 -0.20990030227E+02  0.37982767438E+02 -0.10458862069E+03  0.16872788368E+03  0.12508815757E+03 0.  0.
          5    1    3    3  502    0  0.47703681791E+02  0.41675645733E+02 -0.50315026848E+02  0.81003549493E+02  0.41800000000E+01 0. -1.
         -5    1    3    3    0  502 -0.68693712018E+02 -0.36928782955E+01 -0.54273593840E+02  0.87724334191E+02  0.41800000000E+01 0. -1.
        -11    1    1    2    0    0 -0.81575996576E+01 -0.17278153799E+02  0.72413604122E+02  0.74891996187E+02  0.00000000000E+00 0. -1.
         11    1    1    2    0    0  0.29147629885E+02 -0.20704613638E+02 -0.16510763542E+02  0.39381095294E+02  0.00000000000E+00 0.  1.
</event>
<event>
 7    1  0.2840156E-009  0.8519552E+02  0.7561462E-02  0.1314922E+00
          1   -1    0    0  501    0  0.00000000000E+00  0.00000000000E+00  0.30131883697E+02  0.30131883697E+02  0.00000000000E+00 0. -1.
         -1   -1    0    0    0  501 -0.00000000000E+00 -0.00000000000E+00 -0.41293806362E+03  0.41293806362E+03  0.00000000000E+00 0.  1.
         25    2    1    2    0    0 -0.13162449566E+02 -0.14591067867E+02 -0.25296105958E+03  0.28288182800E+03  0.12508669637E+03 0.  0.
          5    1    3    3  502    0 -0.60446707739E+02  0.24247192587E+02 -0.13325225802E+03  0.14837576450E+03  0.41800000000E+01 0.  1.
         -5    1    3    3    0  502  0.47284258174E+02 -0.38838260454E+02 -0.11970880157E+03  0.13450606350E+03  0.41800000000E+01 0.  1.
        -11    1    1    2    0    0  0.18706009466E+02 -0.81387322228E+01  0.68393157446E+01  0.21515807961E+02  0.00000000000E+00 0. -1.
         11    1    1    2    0    0 -0.55435599005E+01  0.22729800090E+02 -0.13668443608E+03  0.13867231135E+03  0.00000000000E+00 0.  1.
</event>
<event>
 7    1  0.2840156E-009  0.1795125E+03  0.7561462E-02  0.1168276E+00
          2   -1    0    0  501    0  0.00000000000E+00  0.00000000000E+00  0.23279326506E+03  0.23279326506E+03  0.00000000000E+00 0. -1.
         -2   -1    0    0    0  501 -0.00000000000E+00 -0.00000000000E+00 -0.23433132573E+03  0.23433132573E+03  0.00000000000E+00 0.  1.
         25    2    1    2    0    0  0.13033939465E+03  0.63591065221E+02 -0.14882870949E+03  0.24254834001E+03  0.12509009194E+03 0.  0.
          5    1    3    3  502    0  0.15431791843E+03  0.49605114801E+02 -0.11608817021E+03  0.19942071865E+03  0.41800000000E+01 0.  1.
         -5    1    3    3    0  502 -0.23978523784E+02  0.13985950420E+02 -0.32740539284E+02  0.43127621365E+02  0.41800000000E+01 0.  1.
        -11    1    1    2    0    0 -0.60742762319E+02  0.16258781670E+02  0.44996934339E+02  0.77322411081E+02  0.00000000000E+00 0. -1.
         11    1    1    2    0    0 -0.69596632331E+02 -0.79849846892E+02  0.10229371449E+03  0.14725383969E+03  0.00000000000E+00 0.  1.
</event>
<event>
 7    1  0.2840156E-009  0.1441777E+03  0.7561462E-02  0.1207816E+00
         -1   -1    0    0    0  501 -0.00000000000E+00  0.00000000000E+00  0.66920736682E+02  0.66920736682E+02  0.00000000000E+00 0.  1.
          1   -1    0    0  501    0  0.00000000000E+00 -0.00000000000E+00 -0.37045763402E+03  0.37045763402E+03  0.00000000000E+00 0. -1.
         25    2    1    2    0    0 -0.12263586594E+02 -0.11147990734E+03 -0.19375925399E+03  0.25645471353E+03  0.12509279073E+03 0.  0.
          5    1    3    3  502    0  0.50257767384E+02 -0.86935956598E+02 -0.12222969186E+03  0.15824434809E+03  0.41800000000E+01 0. -1.
         -5    1    3    3    0  502 -0.62521353979E+02 -0.24543950738E+02 -0.71529562132E+02  0.98210365441E+02  0.41800000000E+01 0. -1.
        -11    1    1    2    0    0 -0.42025614321E+01  0.10088878375E+03 -0.12159491756E+03  0.15805547186E+03  0.00000000000E+00 0. -1.
         11    1    1    2    0    0  0.16466148027E+02  0.10591123585E+02  0.11817274208E+02  0.22868185309E+02  0.00000000000E+00 0.  1.
</event>
<event>
 7    1  0.2840156E-009  0.1101797E+03  0.7561462E-02  0.1260237E+00
         -1   -1    0    0    0  501 -0.00000000000E+00  0.00000000000E+00  0.13323623869E+03  0.13323623869E+03  0.00000000000E+00 0.  1.
          1   -1    0    0  501    0  0.00000000000E+00 -0.00000000000E+00 -0.13622369385E+03  0.13622369385E+03  0.00000000000E+00 0. -1.
         25    2    1    2    0    0 -0.46454698336E+02  0.29373368031E+02 -0.60036206127E+02  0.14924469983E+03  0.12509516632E+03 0.  0.
          5    1    3    3  502    0 -0.79846967534E+02 -0.13655603059E+02 -0.27425621633E+02  0.85625059657E+02  0.41800000000E+01 0. -1.
         -5    1    3    3    0  502  0.33392269198E+02  0.43028971090E+02 -0.32610584494E+02  0.63619640177E+02  0.41800000000E+01 0. -1.
        -11    1    1    2    0    0  0.79282611947E+01  0.20278688597E+02 -0.13590047308E+02  0.25666552605E+02  0.00000000000E+00 0. -1.
         11    1    1    2    0    0  0.38526437141E+02 -0.49652056628E+02  0.70638798280E+02  0.94548680100E+02  0.00000000000E+00 0.  1.
</event>
<event>
 7    1  0.2840156E-009  0.9363148E+02  0.7561462E-02  0.1294288E+00
          2   -1    0    0  501    0  0.00000000000E+00  0.00000000000E+00  0.22509317201E+03  0.22509317201E+03  0.00000000000E+00 0. -1.
         -2   -1    0    0    0  501 -0.00000000000E+00 -0.00000000000E+00 -0.52127007202E+02  0.52127007202E+02  0.00000000000E+00 0.  1.
         25    2    1    2    0    0  0.82696538772E+01 -0.60666348059E+01  0.11007030465E+03  0.16694374201E+03  0.12509816064E+03 0.  0.
          5    1    3    3  502    0  0.46878948890E+02  0.34547186735E+02  0.21831722588E+02  0.62331697166E+02  0.41800000000E+01 0.  1.
         -5    1    3    3    0  502 -0.38609295013E+02 -0.40613821541E+02  0.88238582063E+02  0.10461204484E+03  0.41800000000E+01 0.  1.
        -11    1    1    2    0    0  0.81119382428E+01 -0.31062594566E+02 -0.36718681855E+01  0.32313633952E+02  0.00000000000E+00 0.  1.
         11    1    1    2    0    0 -0.16381592120E+02  0.37129229372E+02  0.66567728342E+02  0.77962803251E+02  0.00000000000E+00 0. -1.
</event>
<event>
 7    1  0.2840156E-009  0.1046671E+03  0.7561462E-02  0.1270777E+00
         -1   -1    0    0    0  501 -0.00000000000E+00  0.00000000000E+00  0.76667823572E+02  0.76667823572E+02  0.00000000000E+00 0.  1.
          1   -1    0    0  501    0  0.00000000000E+00 -0.00000000000E+00 -0.18698847423E+03  0.18698847423E+03  0.00000000000E+00 0. -1.
         25    2    1    2    0    0  0.11392341230E+02 -0.43113979029E+02 -0.32538626166E+02  0.13674360577E+03  0.12510575886E+03 0.  0.
          5    1    3    3  502    0  0.54443384694E+02  0.34816183456E+01 -0.46322207558E+02  0.71689769956E+02  0.41800000000E+01 0.  1.
         -5    1    3    3    0  502 -0.43051043463E+02 -0.46595597374E+02  0.13783581392E+02  0.65053835813E+02  0.41800000000E+01 0.  1.
        -11    1    1    2    0    0 -0.45776284286E+02  0.23448752966E+02 -0.69474074721E+02  0.86440495585E+02  0.00000000000E+00 0. -1.
         11    1    1    2    0    0  0.34383943055E+02  0.19665226063E+02 -0.83079497737E+01  0.40472196451E+02  0.00000000000E+00 0.  1.
</event>
<event>
 7    1  0.2840156E-009  0.1245144E+03  0.7561462E-02  0.1235830E+00
          1   -1    0    0  501    0  0.00000000000E+00  0.00000000000E+00  0.28577173830E+03  0.28577173830E+03  0.00000000000E+00 0. -1.
         -1   -1    0    0    0  501 -0.00000000000E+00 -0.00000000000E+00 -0.93928478699E+02  0.93928478699E+02  0.00000000000E+00 0.  1.
         25    2    1    2    0    0 -0.43444689166E+02 -0.24501057886E+02 -0.14645360370E+02  0.13546182055E+03  0.12509066868E+03 0.  0.
          5    1    3    3  502    0 -0.63044997660E+02 -0.56108706718E+02 -0.36583916138E+02  0.92079932773E+02  0.41800000000E+01 0.  1.
         -5    1    3    3    0  502  0.19600308493E+02  0.31607648833E+02  0.21938555768E+02  0.43381887775E+02  0.41800000000E+01 0.  1.
        -11    1    1    2    0    0 -0.11025070857E+02  0.60705342645E+02  0.72945895281E+02  0.95539491581E+02  0.00000000000E+00 0.  1.
         11    1    1    2    0    0  0.54469760023E+02 -0.36204284760E+02  0.13354272469E+03  0.14869890487E+03  0.00000000000E+00 0. -1.
</event>
<event>
 7    1  0.2840156E-009  0.7553350E+02  0.7561462E-02  0.1342227E+00
          1   -1    0    0  501    0  0.00000000000E+00  0.00000000000E+00  0.41751736139E+03  0.41751736139E+03  0.00000000000E+00 0. -1.
         -1   -1    0    0    0  501 -0.00000000000E+00 -0.00000000000E+00 -0.30985923694E+02  0.30985923694E+02  0.00000000000E+00 0.  1.
         25    2    1    2    0    0  0.22050110742E+02 -0.87162904091E+01  0.22140621894E+03  0.25540307426E+03  0.12509130847E+03 0.  0.
          5    1    3    3  502    0  0.59380434113E+02  0.50146394051E+01  0.20257002286E+03  0.21119486055E+03  0.41800000000E+01 0. -1.
         -5    1    3    3    0  502 -0.37330323370E+02 -0.13730929814E+02  0.18836196084E+02  0.44208213710E+02  0.41800000000E+01 0. -1.
        -11    1    1    2    0    0  0.82163424574E+01  0.17907936931E+02 -0.47810359025E+01  0.20274634221E+02  0.00000000000E+00 0.  1.
         11    1    1    2    0    0 -0.30266453200E+02 -0.91916465220E+01  0.16990625465E+03  0.17282557659E+03  0.00000000000E+00 0. -1.
</event>
<event>
 7    1  0.2840156E-009  0.1039162E+03  0.7561462E-02  0.1272270E+00
         -2   -1    0    0    0  501 -0.00000000000E+00  0.00000000000E+00  0.11701017697E+03  0.11701017697E+03  0.00000000000E+00 0.  1.
          2   -1    0    0  501    0  0.00000000000E+00 -0.00000000000E+00 -0.12728946936E+03  0.12728946936E+03  0.00000000000E+00 0. -1.
         25    2    1    2    0    0  0.20854398505E+02  0.45445433812E+02 -0.33343569484E+02  0.13878979226E+03  0.12510243570E+03 0.  0.
          5    1    3    3  502    0  0.48287973725E+02  0.60703078665E+02  0.16807786488E+02  0.79476828400E+02  0.41800000000E+01 0. -1.
         -5    1    3    3    0  502 -0.27433575220E+02 -0.15257644853E+02 -0.50151355972E+02  0.59312963858E+02  0.41800000000E+01 0. -1.
        -11    1    1    2    0    0  0.29904292283E+02  0.66182584532E+00  0.21644982837E+02  0.36921673749E+02  0.00000000000E+00 0. -1.
         11    1    1    2    0    0 -0.50758690788E+02 -0.46107259658E+02  0.14192942641E+01  0.68588180322E+02  0.00000000000E+00 0.  1.
</event>
<event>
 7    1  0.2840156E-009  0.1066267E+03  0.7561462E-02  0.1266947E+00
          1   -1    0    0  501    0  0.00000000000E+00  0.00000000000E+00  0.62552553010E+02  0.62552553010E+02  0.00000000000E+00 0.  1.
         -1   -1    0    0    0  501 -0.00000000000E+00 -0.00000000000E+00 -0.21490657240E+03  0.21490657240E+03  0.00000000000E+00 0. -1.
         25    2    1    2    0    0 -0.14005495184E+02 -0.36149014088E+02 -0.69184657859E+02  0.14811358319E+03  0.12509281165E+03 0.  0.
          5    1    3    3  502    0 -0.54456398536E+02  0.12691299281E+02 -0.26966947607E+01  0.56136556552E+02  0.41800000000E+01 0.  1.
         -5    1    3    3    0  502  0.40450903352E+02 -0.48840313370E+02 -0.66487963099E+02  0.91977026637E+02  0.41800000000E+01 0.  1.
        -11    1    1    2    0    0  0.39412997068E+02 -0.10253180112E+02 -0.15788484218E+02  0.43678235704E+02  0.00000000000E+00 0.  1.
         11    1    1    2    0    0 -0.25407501884E+02  0.46402194200E+02 -0.67380877317E+02  0.85667306521E+02  0.00000000000E+00 0. -1.
</event>
<event>
 7    1  0.2840156E-009  0.2066098E+03  0.7561462E-02  0.1144279E+00
          2   -1    0    0  501    0  0.00000000000E+00  0.00000000000E+00  0.61764207793E+02  0.61764207793E+02  0.00000000000E+00 0. -1.
         -2   -1    0    0    0  501 -0.00000000000E+00 -0.00000000000E+00 -0.74968360599E+03  0.74968360599E+03  0.00000000000E+00 0.  1.
         25    2    1    2    0    0 -0.24584136931E+02  0.18196370075E+03 -0.31243404324E+03  0.38337659859E+03  0.12508963503E+03 0.  0.
          5    1    3    3  502    0  0.38384346065E+02  0.30269608249E+02 -0.12412142921E+03  0.13346613352E+03  0.41800000000E+01 0. -1.
         -5    1    3    3    0  502 -0.62968482996E+02  0.15169409250E+03 -0.18831261403E+03  0.24991046507E+03  0.41800000000E+01 0. -1.
        -11    1    1    2    0    0 -0.26844859746E+01 -0.17010247769E+03 -0.27583577824E+03  0.32407936672E+03  0.00000000000E+00 0. -1.
         11    1    1    2    0    0  0.27268622906E+02 -0.11861223066E+02 -0.99649576717E+02  0.10399184847E+03  0.00000000000E+00 0.  1.
</event>
<event>
 7    1  0.2840156E-009  0.1170843E+03  0.7561462E-02  0.1247986E+00
         -1   -1    0    0    0  501 -0.00000000000E+00  0.00000000000E+00  0.12616394946E+03  0.12616394946E+03  0.00000000000E+00 0.  1.
          1   -1    0    0  501    0  0.00000000000E+00 -0.00000000000E+00 -0.46661943050E+03  0.46661943050E+03  0.00000000000E+00 0. -1.
         25    2    1    2    0    0 -0.29765251356E+02  0.73354536693E+02 -0.42190335159E+03  0.44712048466E+03  0.12508969375E+03 0.  0.
          5    1    3    3  502    0 -0.56534297183E+02  0.10037598689E+02 -0.81271853948E+02  0.99596519967E+02  0.41800000000E+01 0.  1.
         -5    1    3    3    0  502  0.26769045827E+02  0.63316938004E+02 -0.34063149764E+03  0.34752396469E+03  0.41800000000E+01 0.  1.
        -11    1    1    2    0    0  0.45330944059E+02 -0.15642869309E+02  0.69924755959E+02  0.84788356190E+02  0.00000000000E+00 0. -1.
         11    1    1    2    0    0 -0.15565692702E+02 -0.57711667384E+02  0.11523114583E+02  0.60874539105E+02  0.00000000000E+00 0.  1.
</event>
<event>
 7    1  0.2840156E-009  0.1231970E+03  0.7561462E-02  0.1237914E+00
         -1   -1    0    0    0  501 -0.00000000000E+00  0.00000000000E+00  0.13321866032E+03  0.13321866032E+03  0.00000000000E+00 0.  1.
          1   -1    0    0  501    0  0.00000000000E+00 -0.00000000000E+00 -0.12434727848E+03  0.12434727848E+03  0.00000000000E+00 0. -1.
         25    2    1    2    0    0  0.68716887481E+02 -0.29700256880E+02  0.31767118956E+02  0.14920199611E+03  0.12509184591E+03 0.  0.
          5    1    3    3  502    0  0.99843664316E+02 -0.67148162868E+00  0.79471925379E+01  0.10024888259E+03  0.41800000000E+01 0.  1.
         -5    1    3    3    0  502 -0.31126776835E+02 -0.29028775251E+02  0.23819926418E+02  0.48953113520E+02  0.41800000000E+01 0.  1.
        -11    1    1    2    0    0  0.14775970323E+02 -0.81646944605E+00  0.42848535893E+01  0.15406358805E+02  0.00000000000E+00 0. -1.
         11    1    1    2    0    0 -0.83492857803E+02  0.30516726326E+02 -0.27180590704E+02  0.92957583880E+02  0.00000000000E+00 0.  1.
</event>
<event>
 7    1  0.2840156E-009  0.1018389E+03  0.7561462E-02  0.1276476E+00
         -2   -1    0    0    0  501 -0.00000000000E+00  0.00000000000E+00  0.24276407408E+02  0.24276407408E+02  0.00000000000E+00 0.  1.
          2   -1    0    0  501    0  0.00000000000E+00 -0.00000000000E+00 -0.63825351966E+03  0.63825351966E+03  0.00000000000E+00 0. -1.
         25    2    1    2    0    0  0.30041849357E+02 -0.41917082851E+02 -0.25633041705E+03  0.28984784919E+03  0.12508772293E+03 0.  0.
          5    1    3    3  502    0  0.68615599680E+02 -0.30566489226E+02 -0.22902337375E+03  0.24106345411E+03  0.41800000000E+01 0.  1.
         -5    1    3    3    0  502 -0.38573750323E+02 -0.11350593625E+02 -0.27307043299E+02  0.48784395080E+02  0.41800000000E+01 0.  1.
        -11    1    1    2    0    0 -0.87036732057E+01 -0.20384794858E+02 -0.24291084982E+02  0.32883895728E+02  0.00000000000E+00 0.  1.
         11    1    1    2    0    0 -0.21338176151E+02  0.62301877709E+02 -0.33335561022E+03  0.33979818215E+03  0.00000000000E+00 0. -1.
</event>
<event>
 7    1  0.2840156E-009  0.1365371E+03  0.7561462E-02  0.1218066E+00
         -1   -1    0    0    0  501 -0.00000000000E+00  0.00000000000E+00  0.29574564135E+03  0.29574564135E+03  0.00000000000E+00 0.  1.
          1   -1    0    0  501    0  0.00000000000E+00 -0.00000000000E+00 -0.95593092973E+02  0.95593092973E+02  0.00000000000E+00 0. -1.
         25    2    1    2    0    0 -0.54693424859E+02 -0.11005768299E+03  0.63237687671E+02  0.18641189446E+03  0.12508527070E+03 0.  0.
          5    1    3    3  502    0 -0.67967866611E+02 -0.11479164657E+03  0.13039285062E+02  0.13410536294E+03  0.41800000000E+01 0. -1.
         -5    1    3    3    0  502  0.13274441752E+02  0.47339635858E+01  0.50198402609E+02  0.52306531519E+02  0.41800000000E+01 0. -1.
        -11    1    1    2    0    0  0.51958066665E+02  0.84469658679E+02  0.14696940935E+03  0.17729853697E+03  0.00000000000E+00 0.  1.
         11    1    1    2    0    0  0.27353581939E+01  0.25588024309E+02 -0.10054548637E+02  0.27628302893E+02  0.00000000000E+00 0. -1.
</event>
<event>
 7    1  0.2840156E-009  0.1034095E+03  0.7561462E-02  0.1273285E+00
          2   -1    0    0  501    0  0.00000000000E+00  0.00000000000E+00  0.10717599763E+04  0.10717599763E+04  0.00000000000E+00 0.  1.
         -2   -1    0    0    0  501 -0.00000000000E+00 -0.00000000000E+00 -0.16242625151E+02  0.16242625151E+02  0.00000000000E+00 0. -1.
         25    2    1    2    0    0  0.20276914279E+02  0.71356232464E+02  0.59757243360E+03  0.61501469239E+03  0.12508954110E+03 0.  0.
          5    1    3    3  502    0  0.35853226139E+02  0.46550835011E+02  0.96422027492E+02  0.11299165390E+03  0.41800000000E+01 0.  1.
         -5    1    3    3    0  502 -0.15576311860E+02  0.24805397453E+02  0.50115040611E+03  0.50202303849E+03  0.41800000000E+01 0.  1.
        -11    1    1    2    0    0  0.28105318225E+02 -0.63324687605E+02  0.27154401762E+03  0.28024289193E+03  0.00000000000E+00 0. -1.
         11    1    1    2    0    0 -0.48382232504E+02 -0.80315448598E+01  0.18640089997E+03  0.19274501718E+03  0.00000000000E+00 0.  1.
</event>
<event>
 7    1  0.2840156E-009  0.2741514E+03  0.7561462E-02  0.1098927E+00
          2   -1    0    0  501    0  0.00000000000E+00  0.00000000000E+00  0.73682456411E+03  0.73682456411E+03  0.00000000000E+00 0. -1.
         -2   -1    0    0    0  501 -0.00000000000E+00 -0.00000000000E+00 -0.16115798381E+03  0.16115798381E+03  0.00000000000E+00 0.  1.
         25    2    1    2    0    0  0.24811946655E+03  0.63108736151E+02  0.55661487993E+03  0.62531099493E+03  0.12509090119E+03 0.  0.
          5    1    3    3  502    0  0.16040481097E+03  0.90686402138E+02  0.29362795996E+03  0.34668224383E+03  0.41800000000E+01 0.  1.
         -5    1    3    3    0  502  0.87714655576E+02 -0.27577665987E+02  0.26298691997E+03  0.27862875110E+03  0.41800000000E+01 0.  1.
        -11    1    1    2    0    0 -0.13044515609E+03 -0.80066538405E+02  0.13509967255E+02  0.15365255786E+03  0.00000000000E+00 0. -1.
         11    1    1    2    0    0 -0.11767431045E+03  0.16957802254E+02  0.55417331173E+01  0.11901899514E+03  0.00000000000E+00 0.  1.
</event>
<event>
 7    1  0.2840156E-009  0.1640808E+03  0.7561462E-02  0.1184165E+00
          2   -1    0    0  501    0  0.00000000000E+00  0.00000000000E+00  0.27370060033E+03  0.27370060033E+03  0.00000000000E+00 0. -1.
         -2   -1    0    0    0  501 -0.00000000000E+00 -0.00000000000E+00 -0.11921663453E+03  0.11921663453E+03  0.00000000000E+00 0.  1.
         25    2    1    2    0    0  0.12961840875E+03 -0.59456361710E+02  0.10740736610E+03  0.21799181043E+03  0.12509235102E+03 0.  0.
          5    1    3    3  502    0 -0.22118938086E+02 -0.10723749180E+02 -0.14018403872E+01  0.24973661626E+02  0.41800000000E+01 0. -1.
         -5    1    3    3    0  502  0.15173734684E+03 -0.48732612530E+02  0.10880920649E+03  0.19301814880E+03  0.41800000000E+01 0. -1.
        -11    1    1    2    0    0 -0.27828986287E+02  0.47133522654E+01 -0.25842340909E+02  0.38268717656E+02  0.00000000000E+00 0.  1.
         11    1    1    2    0    0 -0.10178942247E+03  0.54743009445E+02  0.72918940605E+02  0.13665670678E+03  0.00000000000E+00 0. -1.
</event>
<event>
 7    1  0.2840156E-009  0.1251039E+03  0.7561462E-02  0.1234907E+00
         -1   -1    0    0    0  501 -0.00000000000E+00  0.00000000000E+00  0.20176435309E+03  0.20176435309E+03  0.00000000000E+00 0.  1.
          1   -1    0    0  501    0  0.00000000000E+00 -0.00000000000E+00 -0.12011383118E+03  0.12011383118E+03  0.00000000000E+00 0. -1.
         25    2    1    2    0    0 -0.23390816756E+02 -0.10223904712E+03  0.98026385358E+01  0.16353678285E+03  0.12509290371E+03 0.  0.
          5    1    3    3  502    0  0.14412469346E+02 -0.30168644228E+02 -0.51513415746E+02  0.61554616147E+02  0.41800000000E+01 0. -1.
         -5    1    3    3    0  502 -0.37803286102E+02 -0.72070402888E+02  0.61316054282E+02  0.10198216670E+03  0.41800000000E+01 0. -1.
        -11    1    1    2    0    0 -0.59475282382E+01 -0.13961518946E+02  0.25840234425E+02  0.29966895378E+02  0.00000000000E+00 0.  1.
         11    1    1    2    0    0  0.29338344994E+02  0.11620056606E+03  0.46007648942E+02  0.12837450604E+03  0.00000000000E+00 0. -1.
</event>
<event>
 7    1  0.2840156E-009  0.1194635E+03  0.7561462E-02  0.1243985E+00
         -1   -1    0    0    0  501 -0.00000000000E+00  0.00000000000E+00  0.13395138117E+03  0.13395138117E+03  0.00000000000E+00 0.  1.
          1   -1    0    0  501    0  0.00000000000E+00 -0.00000000000E+00 -0.13609007661E+03  0.13609007661E+03  0.00000000000E+00 0. -1.
         25    2    1    2    0    0  0.65901403474E+02 -0.29665025502E+02 -0.36298531041E+02  0.14895626915E+03  0.12508948016E+03 0.  0.
          5    1    3    3  502    0  0.47239834603E+02  0.40468698771E+02 -0.43329725032E+02  0.75922691107E+02  0.41800000000E+01 0.  1.
         -5    1    3    3    0  502  0.18661568871E+02 -0.70133724273E+02  0.70311939911E+01  0.73033578045E+02  0.41800000000E+01 0.  1.
        -11    1    1    2    0    0 -0.57538048650E+00 -0.21130210976E+02  0.31944631234E+02  0.38305043314E+02  0.00000000000E+00 0.  1.
         11    1    1    2    0    0 -0.65326022988E+02  0.50795236478E+02  0.22152043585E+01  0.82780145316E+02  0.00000000000E+00 0. -1.
</event>
<event>
 7    1  0.2840156E-009  0.1086209E+03  0.7561462E-02  0.1263145E+00
          2   -1    0    0  501    0  0.00000000000E+00  0.00000000000E+00  0.10954768335E+04  0.10954768335E+04  0.00000000000E+00 0.  1.
         -2   -1    0    0    0  501 -0.00000000000E+00 -0.00000000000E+00 -0.19598934152E+02  0.19598934152E+02  0.00000000000E+00 0. -1.
         25    2    1    2    0    0  0.45533316938E+02  0.79367552526E+02  0.70722905360E+03  0.72401096733E+03  0.12508579142E+03 0.  0.
          5    1    3    3  502    0 -0.25415867373E+02  0.16086713977E+02  0.42673142331E+03  0.42781062250E+03  0.41800000000E+01 0. -1.
         -5    1    3    3    0  502  0.70949184311E+02  0.63280838549E+02  0.28049763028E+03  0.29620034483E+03  0.41800000000E+01 0. -1.
        -11    1    1    2    0    0 -0.12164915421E+02 -0.27043449670E+02  0.17412001536E+02  0.34387659629E+02  0.00000000000E+00 0. -1.
         11    1    1    2    0    0 -0.33368401517E+02 -0.52324102856E+02  0.35123684417E+03  0.35667714065E+03  0.00000000000E+00 0.  1.
</event>
<event>
 7    1  0.2840156E-009  0.1068726E+03  0.7561462E-02  0.1266473E+00
         -2   -1    0    0    0  501 -0.00000000000E+00  0.00000000000E+00  0.68666247576E+02  0.68666247576E+02  0.00000000000E+00 0.  1.
          2   -1    0    0  501    0  0.00000000000E+00 -0.00000000000E+00 -0.19867020655E+03  0.19867020655E+03  0.00000000000E+00 0. -1.
         25    2    1    2    0    0  0.38133775460E+02 -0.16829772817E+02 -0.34358481775E+02  0.13625878509E+03  0.12509406525E+03 0.  0.
          5    1    3    3  502    0  0.53161375647E+02  0.43508287454E+02 -0.25080713336E+02  0.73250375557E+02  0.41800000000E+01 0. -1.
         -5    1    3    3    0  502 -0.15027600187E+02 -0.60338060271E+02 -0.92777684392E+01  0.63008409533E+02  0.41800000000E+01 0. -1.
        -11    1    1    2    0    0 -0.50358494012E+02 -0.11579813295E+02 -0.33274273777E+02  0.61459314107E+02  0.00000000000E+00 0.  1.
         11    1    1    2    0    0  0.12224718552E+02  0.28409586112E+02 -0.62371203426E+02  0.69618354933E+02  0.00000000000E+00 0. -1.
</event>
<event>
 7    1  0.3082955E-009  0.1239863E+03  0.7561462E-02  0.1236662E+00
         -1   -1    0    0    0  501 -0.00000000000E+00  0.00000000000E+00  0.23466565613E+02  0.23466565613E+02  0.00000000000E+00 0.  1.
          1   -1    0    0  501    0  0.00000000000E+00 -0.00000000000E+00 -0.70949728611E+03  0.70949728611E+03  0.00000000000E+00 0. -1.
         25    2    1    2    0    0  0.69147446002E+02  0.52907841107E+01 -0.35173591481E+03  0.37970413975E+03  0.12509084016E+03 0.  0.
          5    1    3    3  502    0  0.62330068052E+02  0.60383826667E+02 -0.19904072216E+03  0.21717717510E+03  0.41800000000E+01 0.  1.
         -5    1    3    3    0  502  0.68173779501E+01 -0.55093042557E+02 -0.15269519265E+03  0.16252696465E+03  0.41800000000E+01 0.  1.
        -11    1    1    2    0    0 -0.40125926767E+02 -0.42355169406E+02 -0.11481955644E+03  0.12879278285E+03  0.00000000000E+00 0.  1.
         11    1    1    2    0    0 -0.29021519234E+02  0.37064385295E+02 -0.21947524924E+03  0.22446692911E+03  0.00000000000E+00 0. -1.
</event>
<event>
 7    1  0.2840156E-009  0.1630524E+03  0.7561462E-02  0.1185293E+00
         -2   -1    0    0    0  501 -0.00000000000E+00  0.00000000000E+00  0.53019340345E+02  0.53019340345E+02  0.00000000000E+00 0. -1.
          2   -1    0    0  501    0  0.00000000000E+00 -0.00000000000E+00 -0.59145812335E+03  0.59145812335E+03  0.00000000000E+00 0.  1.
         25    2    1    2    0    0 -0.77129552858E+02 -0.11518144364E+03 -0.26090700372E+03  0.32083447909E+03  0.12508623228E+03 0.  0.
          5    1    3    3  502    0 -0.10274613518E+03 -0.46759276021E+02 -0.17041892990E+03  0.20445850986E+03  0.41800000000E+01 0.  1.
         -5    1    3    3    0  502  0.25616582321E+02 -0.68422167614E+02 -0.90488073816E+02  0.11637596923E+03  0.41800000000E+01 0.  1.
        -11    1    1    2    0    0  0.65434536519E+02  0.82806933813E+02 -0.10934714116E+03  0.15197191891E+03  0.00000000000E+00 0. -1.
         11    1    1    2    0    0  0.11695016339E+02  0.32374509822E+02 -0.16818463813E+03  0.17167106569E+03  0.00000000000E+00 0.  1.
</event>
<event>
 7    1  0.2840156E-009  0.1045264E+03  0.7561462E-02  0.1271056E+00
         -2   -1    0    0    0  501 -0.00000000000E+00  0.00000000000E+00  0.14989799019E+02  0.14989799019E+02  0.00000000000E+00 0.  1.
          2   -1    0    0  501    0  0.00000000000E+00 -0.00000000000E+00 -0.86449444948E+03  0.86449444948E+03  0.00000000000E+00 0. -1.
         25    2    1    2    0    0 -0.20816805569E+02 -0.37333588611E+01 -0.57662659196E+03  0.59041806504E+03  0.12509191663E+03 0.  0.
          5    1    3    3  502    0  0.35006387204E+02  0.41273926290E+02 -0.21677852235E+03  0.22347121579E+03  0.41800000000E+01 0.  1.
         -5    1    3    3    0  502 -0.55823192773E+02 -0.45007285151E+02 -0.35984806961E+03  0.36694684924E+03  0.41800000000E+01 0.  1.
        -11    1    1    2    0    0 -0.29736809613E+02 -0.85044732419E+01 -0.17980065865E+03  0.18244144475E+03  0.00000000000E+00 0. -1.
         11    1    1    2    0    0  0.50553615182E+02  0.12237832103E+02 -0.93077399851E+02  0.10662473871E+03  0.00000000000E+00 0.  1.
</event>
<event>
 7    1  0.3939981E-009  0.1138342E+03  0.7561462E-02  0.1253630E+00
          2   -1    0    0  501    0  0.00000000000E+00  0.00000000000E+00  0.11567450687E+04  0.11567450687E+04  0.00000000000E+00 0. -1.
         -2   -1    0    0    0  501 -0.00000000000E+00 -0.00000000000E+00 -0.21581471042E+02  0.21581471042E+02  0.00000000000E+00 0.  1.
         25    2    1    2    0    0  0.43509352998E+02 -0.72252680503E+02  0.89983854869E+03  0.91239724869E+03  0.12508322052E+03 0.  0.
          5    1    3    3  502    0  0.44462306848E+02 -0.10255230614E+03  0.80525659505E+03  0.81298802482E+03  0.41800000000E+01 0.  1.
         -5    1    3    3    0  502 -0.95295385020E+00  0.30299625639E+02  0.94581953641E+02  0.99409223865E+02  0.41800000000E+01 0.  1.
        -11    1    1    2    0    0 -0.74222175421E+01  0.22908367170E+02  0.13705106702E+01  0.24119720129E+02  0.00000000000E+00 0.  1.
         11    1    1    2    0    0 -0.36087135456E+02  0.49344313333E+02  0.23395453830E+03  0.24180957094E+03  0.00000000000E+00 0. -1.
</event>
<event>
 7    1  0.2840156E-009  0.1426606E+03  0.7561462E-02  0.1209793E+00
         -2   -1    0    0    0  501 -0.00000000000E+00  0.00000000000E+00  0.65665772430E+02  0.65665772430E+02  0.00000000000E+00 0.  1.
          2   -1    0    0  501    0  0.00000000000E+00 -0.00000000000E+00 -0.52074431072E+03  0.52074431072E+03  0.00000000000E+00 0. -1.
         25    2    1    2    0    0 -0.10153036419E+03 -0.24514147591E+02 -0.41012659846E+03  0.44131775211E+03  0.12509265876E+03 0.  0.
          5    1    3    3  502    0 -0.70178092161E+02  0.36589378692E+02 -0.12500468663E+03  0.14801145676E+03  0.41800000000E+01 0. -1.
         -5    1    3    3    0  502 -0.31352272026E+02 -0.61103526284E+02 -0.28512191183E+03  0.29330629535E+03  0.41800000000E+01 0. -1.
        -11    1    1    2    0    0 -0.97707975805E+01  0.24051386160E+02 -0.29441742640E+01  0.26126726234E+02  0.00000000000E+00 0.  1.
         11    1    1    2    0    0  0.11130116177E+03  0.46276143108E+00 -0.42007765562E+02  0.11896560480E+03  0.00000000000E+00 0. -1.
</event>
<event>
 7    1  0.2840156E-009  0.7927994E+02  0.7561462E-02  0.1331107E+00
         -2   -1    0    0    0  501 -0.00000000000E+00  0.00000000000E+00  0.71676984310E+02  0.71676984310E+02  0.00000000000E+00 0.  1.
          2   -1    0    0  501    0  0.00000000000E+00 -0.00000000000E+00 -0.25457978601E+03  0.25457978601E+03  0.00000000000E+00 0. -1.
         25    2    1    2    0    0  0.47026446393E+02 -0.38971490186E+01 -0.17866949024E+03  0.22314928579E+03  0.12508454171E+03 0.  0.
          5    1    3    3  502    0  0.67393097797E+02  0.97424768257E+01 -0.33753001708E+02  0.76114932895E+02  0.41800000000E+01 0. -1.
         -5    1    3    3    0  502 -0.20366651404E+02 -0.13639625844E+02 -0.14491648853E+03  0.14703435289E+03  0.41800000000E+01 0. -1.
        -11    1    1    2    0    0 -0.16154733137E+02  0.23782511487E+02 -0.41696850996E+02  0.50647908529E+02  0.00000000000E+00 0. -1.
         11    1    1    2    0    0 -0.30871713256E+02 -0.19885362469E+02  0.37463539535E+02  0.52459576002E+02  0.00000000000E+00 0.  1.
</event>
<event>
 7    1  0.2840156E-009  0.1409152E+03  0.7561462E-02  0.1212103E+00
         -1   -1    0    0    0  501 -0.00000000000E+00  0.00000000000E+00  0.10288909604E+03  0.10288909604E+03  0.00000000000E+00 0.  1.
          1   -1    0    0  501    0  0.00000000000E+00 -0.00000000000E+00 -0.26936222567E+03  0.26936222567E+03  0.00000000000E+00 0. -1.
         25    2    1    2    0    0  0.27234850891E+02 -0.10123743586E+03 -0.70938709748E+01  0.16336749963E+03  0.12509141220E+03 0.  0.
          5    1    3    3  502    0  0.43050972004E+02  0.10559010443E+02 -0.21540689012E+02  0.49460616405E+02  0.41800000000E+01 0.  1.
         -5    1    3    3    0  502 -0.15816121113E+02 -0.11179644631E+03  0.14446818037E+02  0.11390688322E+03  0.41800000000E+01 0.  1.
        -11    1    1    2    0    0  0.22037739372E+02  0.40519239587E+02 -0.22677717519E+02  0.51397953317E+02  0.00000000000E+00 0.  1.
         11    1    1    2    0    0 -0.49272590263E+02  0.60718196278E+02 -0.13670154114E+03  0.15748586877E+03  0.00000000000E+00 0. -1.
</event>
<event>
 7    1  0.2840156E-009  0.7927168E+02  0.7561462E-02  0.1331131E+00
          2   -1    0    0  501    0  0.00000000000E+00  0.00000000000E+00  0.32820821620E+03  0.32820821620E+03  0.00000000000E+00 0.  1.
         -2   -1    0    0    0  501 -0.00000000000E+00 -0.00000000000E+00 -0.70787497895E+02  0.70787497895E+02  0.00000000000E+00 0. -1.
         25    2    1    2    0    0  0.41378061576E+02 -0.37670087053E+02  0.17896843782E+02  0.13819893106E+03  0.12508984008E+03 0.  0.
          5    1    3    3  502    0  0.28775094727E+02 -0.98153370609E+01 -0.52794502425E+02  0.61066183805E+02  0.41800000000E+01 0. -1.
         -5    1    3    3    0  502  0.12602966849E+02 -0.27854749992E+02  0.70691346207E+02  0.77132747255E+02  0.41800000000E+01 0. -1.
        -11    1    1    2    0    0 -0.54290847342E+02 -0.29525521476E+01  0.17671027992E+03  0.18488573958E+03  0.00000000000E+00 0.  1.
         11    1    1    2    0    0  0.12912785765E+02  0.40622639201E+02  0.62813594598E+02  0.75911043453E+02  0.00000000000E+00 0. -1.
</event>
<event>
 7    1  0.2840156E-009  0.1711161E+03  0.7561462E-02  0.1176689E+00
          3   -1    0    0  501    0  0.00000000000E+00  0.00000000000E+00  0.51424149158E+03  0.51424149158E+03  0.00000000000E+00 0. -1.
         -3   -1    0    0    0  501 -0.00000000000E+00 -0.00000000000E+00 -0.88887452286E+02  0.88887452286E+02  0.00000000000E+00 0.  1.
         25    2    1    2    0    0  0.74499414723E+01 -0.15728913964E+03  0.89167875875E+02  0.21999115923E+03  0.12509926049E+03 0.  0.
          5    1    3    3  502    0  0.18232870108E+02 -0.12788141089E+03  0.11962182231E+03  0.17610492775E+03  0.41800000000E+01 0. -1.
         -5    1    3    3    0  502 -0.10782928636E+02 -0.29407728746E+02 -0.30453946438E+02  0.43886231481E+02  0.41800000000E+01 0. -1.
        -11    1    1    2    0    0  0.41213898595E+02  0.81386146891E+02  0.19981860024E+03  0.21965828768E+03  0.00000000000E+00 0. -1.
         11    1    1    2    0    0 -0.48663840067E+02  0.75902992748E+02  0.13636756318E+03  0.16347949696E+03  0.00000000000E+00 0.  1.
</event>
<event>
 7    1  0.2840156E-009  0.1068015E+03  0.7561462E-02  0.1266610E+00
         -1   -1    0    0    0  501 -0.00000000000E+00  0.00000000000E+00  0.15987397925E+02  0.15987397925E+02  0.00000000000E+00 0.  1.
          1   -1    0    0  501    0  0.00000000000E+00 -0.00000000000E+00 -0.80708621184E+03  0.80708621184E+03  0.00000000000E+00 0. -1.
         25    2    1    2    0    0 -0.10351259150E+02 -0.22075601428E+01 -0.57692030136E+03  0.59042062282E+03  0.12508979109E+03 0.  0.
          5    1    3    3  502    0  0.54415757500E+02 -0.19733346106E+02 -0.24786221296E+03  0.25456556842E+03  0.41800000000E+01 0. -1.
         -5    1    3    3    0  502 -0.64767016651E+02  0.17525785963E+02 -0.32905808841E+03  0.33585505440E+03  0.41800000000E+01 0. -1.
        -11    1    1    2    0    0  0.21647043425E+02  0.41852767873E+02 -0.14096672473E+03  0.14863332785E+03  0.00000000000E+00 0. -1.
         11    1    1    2    0    0 -0.11295784275E+02 -0.39645207730E+02 -0.73211787824E+02  0.84019659096E+02  0.00000000000E+00 0.  1.
</event>
<event>
 7    1  0.2840156E-009  0.9440832E+02  0.7561462E-02  0.1292514E+00
          1   -1    0    0  501    0  0.00000000000E+00  0.00000000000E+00  0.11486779291E+03  0.11486779291E+03  0.00000000000E+00 0. -1.
         -1   -1    0    0    0  501 -0.00000000000E+00 -0.00000000000E+00 -0.24130648231E+03  0.24130648231E+03  0.00000000000E+00 0.  1.
         25    2    1    2    0    0 -0.69639009589E+02  0.38832263927E+02  0.37069747405E+02  0.15290114156E+03  0.12508819504E+03 0.  0.
          5    1    3    3  502    0 -0.64375660697E+02  0.13025508866E+02  0.79239881740E+02  0.10300641159E+03  0.41800000000E+01 0.  1.
         -5    1    3    3    0  502 -0.52633488914E+01  0.25806755061E+02 -0.42170134335E+02  0.49894729964E+02  0.41800000000E+01 0.  1.
        -11    1    1    2    0    0 -0.30490643836E+00 -0.25044033634E+02 -0.11340419657E+03  0.11613702419E+03  0.00000000000E+00 0.  1.
         11    1    1    2    0    0  0.69943916027E+02 -0.13788230293E+02 -0.50104240237E+02  0.87136109470E+02  0.00000000000E+00 0. -1.
</event>
<event>
 7    1  0.2840156E-009  0.1123655E+03  0.7561462E-02  0.1256251E+00
          1   -1    0    0  501    0  0.00000000000E+00  0.00000000000E+00  0.75520843380E+02  0.75520843380E+02  0.00000000000E+00 0. -1.
         -1   -1    0    0    0  501 -0.00000000000E+00 -0.00000000000E+00 -0.23264367251E+03  0.23264367251E+03  0.00000000000E+00 0.  1.
         25    2    1    2    0    0 -0.60889510478E+02 -0.34432277362E+02 -0.50467276490E+02  0.15194684740E+03  0.12509110372E+03 0.  0.
          5    1    3    3  502    0  0.58057850584E+00 -0.61336909417E+02 -0.57715069252E+02  0.84327072444E+02  0.41800000000E+01 0.  1.
         -5    1    3    3    0  502 -0.61470088983E+02  0.26904632055E+02  0.72477927619E+01  0.67619774959E+02  0.41800000000E+01 0.  1.
        -11    1    1    2    0    0  0.72773875465E+02  0.16688690826E+02 -0.11162305123E+03  0.13429167851E+03  0.00000000000E+00 0.  1.
         11    1    1    2    0    0 -0.11884364988E+02  0.17743586535E+02  0.49674985868E+01  0.21925989978E+02  0.00000000000E+00 0. -1.
</event>
<event>
 7    1  0.2840156E-009  0.1387514E+03  0.7561462E-02  0.1215019E+00
          1   -1    0    0  501    0  0.00000000000E+00  0.00000000000E+00  0.39949057339E+03  0.39949057339E+03  0.00000000000E+00 0. -1.
         -1   -1    0    0    0  501 -0.00000000000E+00 -0.00000000000E+00 -0.54434680741E+02  0.54434680741E+02  0.00000000000E+00 0.  1.
         25    2    1    2    0    0 -0.89252233745E+02  0.52416472244E+02  0.22921875359E+03  0.28089733048E+03  0.12509446623E+03 0.  0.
          5    1    3    3  502    0 -0.61453776251E+02  0.93871670862E+02  0.15823411849E+03  0.19402052948E+03  0.41800000000E+01 0. -1.
         -5    1    3    3    0  502 -0.27798457493E+02 -0.41455198618E+02  0.70984635096E+02  0.86876800996E+02  0.41800000000E+01 0. -1.
        -11    1    1    2    0    0  0.46899138410E+02  0.10740295281E+01  0.11395161319E+02  0.48275588287E+02  0.00000000000E+00 0. -1.
         11    1    1    2    0    0  0.42353095335E+02 -0.53490501772E+02  0.10444197774E+03  0.12475233536E+03  0.00000000000E+00 0.  1.
</event>
<event>
 7    1  0.2840156E-009  0.9903863E+02  0.7561462E-02  0.1282331E+00
          1   -1    0    0  501    0  0.00000000000E+00  0.00000000000E+00  0.48023590421E+03  0.48023590421E+03  0.00000000000E+00 0. -1.
         -1   -1    0    0    0  501 -0.00000000000E+00 -0.00000000000E+00 -0.25862140463E+02  0.25862140463E+02  0.00000000000E+00 0.  1.
         25    2    1    2    0    0 -0.18596217914E+02 -0.57691023074E+01  0.24353871865E+03  0.27447684738E+03  0.12508928973E+03 0.  0.
          5    1    3    3  502    0 -0.36616854633E+02  0.45479073466E+02  0.18704249405E+03  0.19598853830E+03  0.41800000000E+01 0.  1.
         -5    1    3    3    0  502  0.18020636719E+02 -0.51248175773E+02  0.56496224605E+02  0.78488309081E+02  0.41800000000E+01 0.  1.
        -11    1    1    2    0    0 -0.28149338212E+02  0.21835733649E+02  0.39018639993E+02  0.52835960979E+02  0.00000000000E+00 0.  1.
         11    1    1    2    0    0  0.46745556126E+02 -0.16066631341E+02  0.17181640510E+03  0.17878523630E+03  0.00000000000E+00 0. -1.
</event>
<event>
 7    1  0.2840156E-009  0.1696296E+03  0.7561462E-02  0.1178235E+00
         -2   -1    0    0    0  501 -0.00000000000E+00  0.00000000000E+00  0.22491956809E+02  0.22491956809E+02  0.00000000000E+00 0.  1.
          2   -1    0    0  501    0  0.00000000000E+00 -0.00000000000E+00 -0.16436009982E+04  0.16436009982E+04  0.00000000000E+00 0. -1.
         25    2    1    2    0    0  0.10602599307E+03  0.93567284620E+02 -0.11805195601E+04  0.11955211520E+04  0.12509214667E+03 0.  0.
          5    1    3    3  502    0  0.12631736031E+03  0.84893196776E+02 -0.11302989710E+04  0.11405069779E+04  0.41800000000E+01 0. -1.
         -5    1    3    3    0  502 -0.20291367234E+02  0.86740878437E+01 -0.50220589106E+02  0.55014174121E+02  0.41800000000E+01 0. -1.
        -11    1    1    2    0    0 -0.35525561057E+02  0.12092420798E+02 -0.12019022219E+03  0.12591259524E+03  0.00000000000E+00 0.  1.
         11    1    1    2    0    0 -0.70500432016E+02 -0.10565970542E+03 -0.32039925904E+03  0.34465920771E+03  0.00000000000E+00 0. -1.
</event>
<event>
 7    1  0.2840156E-009  0.6956324E+02  0.7561462E-02  0.1361585E+00
          1   -1    0    0  501    0  0.00000000000E+00  0.00000000000E+00  0.40681053958E+03  0.40681053958E+03  0.00000000000E+00 0. -1.
         -1   -1    0    0    0  501 -0.00000000000E+00 -0.00000000000E+00 -0.36123509606E+02  0.36123509606E+02  0.00000000000E+00 0.  1.
         25    2    1    2    0    0  0.39799057880E+02  0.35877743800E+02  0.22110280372E+03  0.25962512564E+03  0.12509028156E+03 0.  0.
          5    1    3    3  502    0  0.44755320813E+02  0.50203377402E+02  0.23127839194E+03  0.24089538148E+03  0.41800000000E+01 0.  1.
         -5    1    3    3    0  502 -0.49562629325E+01 -0.14325633602E+02 -0.10175588219E+02  0.18729744151E+02  0.41800000000E+01 0.  1.
        -11    1    1    2    0    0 -0.14470874776E+02 -0.24036492125E+02 -0.29705465706E+01  0.28213176308E+02  0.00000000000E+00 0.  1.
         11    1    1    2    0    0 -0.25328183105E+02 -0.11841251675E+02  0.15255477283E+03  0.15509574725E+03  0.00000000000E+00 0. -1.
</event>
<event>
 7    1  0.3725647E-009  0.1135099E+03  0.7561462E-02  0.1254205E+00
          1   -1    0    0  501    0  0.00000000000E+00  0.00000000000E+00  0.55343459048E+03  0.55343459048E+03  0.00000000000E+00 0. -1.
         -1   -1    0    0    0  501 -0.00000000000E+00 -0.00000000000E+00 -0.32996557979E+02  0.32996557979E+02  0.00000000000E+00 0.  1.
         25    2    1    2    0    0  0.38832906571E+02 -0.70096759096E+02  0.27202600665E+03  0.30994794410E+03  0.12509208404E+03 0.  0.
          5    1    3    3  502    0  0.46218166540E+02 -0.28150132444E+01  0.21895163289E+03  0.22383327091E+03  0.41800000000E+01 0. -1.
         -5    1    3    3    0  502 -0.73852599687E+01 -0.67281745852E+02  0.53074373752E+02  0.86114673191E+02  0.41800000000E+01 0. -1.
        -11    1    1    2    0    0 -0.52151607388E+02  0.12543884089E+02  0.17030593909E+03  0.17855321915E+03  0.00000000000E+00 0.  1.
         11    1    1    2    0    0  0.13318700816E+02  0.57552875008E+02  0.78106086774E+02  0.97929985216E+02  0.00000000000E+00 0. -1.
</event>
<event>
 7    1  0.2840156E-009  0.1601794E+03  0.7561462E-02  0.1188494E+00
         -1   -1    0    0    0  501 -0.00000000000E+00  0.00000000000E+00  0.46559240978E+03  0.46559240978E+03  0.00000000000E+00 0.  1.
          1   -1    0    0  501    0  0.00000000000E+00 -0.00000000000E+00 -0.83402202279E+02  0.83402202279E+02  0.00000000000E+00 0. -1.
         25    2    1    2    0    0 -0.16023458810E+02 -0.13022222894E+03  0.33610526418E+03  0.38187562162E+03  0.12509061369E+03 0.  0.
          5    1    3    3  502    0 -0.62821400283E+02 -0.38497766713E+02  0.10021322225E+03  0.12445388178E+03  0.41800000000E+01 0. -1.
         -5    1    3    3    0  502  0.46797941474E+02 -0.91724462230E+02  0.23589204193E+03  0.25742173984E+03  0.41800000000E+01 0. -1.
        -11    1    1    2    0    0  0.34118917889E+02  0.11468618796E+03  0.65461589577E+02  0.13639003621E+03  0.00000000000E+00 0.  1.
         11    1    1    2    0    0 -0.18095459079E+02  0.15536040983E+02 -0.19376646251E+02  0.30728954239E+02  0.00000000000E+00 0. -1.
</event>
<event>
 7    1  0.2840156E-009  0.1387007E+03  0.7561462E-02  0.1215088E+00
         -3   -1    0    0    0  501 -0.00000000000E+00  0.00000000000E+00  0.15081267200E+03  0.15081267200E+03  0.00000000000E+00 0.  1.
          3   -1    0    0  501    0  0.00000000000E+00 -0.00000000000E+00 -0.26968828765E+03  0.26968828765E+03  0.00000000000E+00 0. -1.
         25    2    1    2    0    0 -0.69343459156E+02 -0.11265095349E+03 -0.17310089464E+03  0.25121702885E+03  0.12508926097E+03 0.  0.
          5    1    3    3  502    0 -0.64534232941E+02 -0.66363401206E+02 -0.25078977844E+02  0.95995811214E+02  0.41800000000E+01 0.  1.
         -5    1    3    3    0  502 -0.48092262153E+01 -0.46287552283E+02 -0.14802191680E+03  0.15522121764E+03  0.41800000000E+01 0.  1.
        -11    1    1    2    0    0  0.18487890885E+02  0.53077622293E+01 -0.21163785591E+02  0.28598606082E+02  0.00000000000E+00 0. -1.
         11    1    1    2    0    0  0.50855568272E+02  0.10734319126E+03  0.75389064583E+02  0.14068532472E+03  0.00000000000E+00 0.  1.
</event>
<event>
 7    1  0.2840156E-009  0.1299032E+03  0.7561462E-02  0.1227599E+00
         -2   -1    0    0    0  501 -0.00000000000E+00  0.00000000000E+00  0.54362632603E+03  0.54362632603E+03  0.00000000000E+00 0. -1.
          2   -1    0    0  501    0  0.00000000000E+00 -0.00000000000E+00 -0.35455193099E+02  0.35455193099E+02  0.00000000000E+00 0.  1.
         25    2    1    2    0    0  0.70613004733E+02 -0.24237394365E+02  0.37407796551E+03  0.40143958609E+03  0.12508304952E+03 0.  0.
          5    1    3    3  502    0 -0.31003038515E+02 -0.29394530201E+02  0.13235824072E+03  0.13914525896E+03  0.41800000000E+01 0. -1.
         -5    1    3    3    0  502  0.10161604325E+03  0.51571358358E+01  0.24171972479E+03  0.26229432713E+03  0.41800000000E+01 0. -1.
        -11    1    1    2    0    0 -0.47760658568E+02 -0.29856024281E+02  0.79734440343E+02  0.97621942562E+02  0.00000000000E+00 0. -1.
         11    1    1    2    0    0 -0.22852346165E+02  0.54093418647E+02  0.54358727072E+02  0.80019990471E+02  0.00000000000E+00 0.  1.
</event>
<event>
 7    1  0.2840156E-009  0.1102889E+03  0.7561462E-02  0.1260036E+00
          2   -1    0    0  501    0  0.00000000000E+00  0.00000000000E+00  0.28355867916E+03  0.28355867916E+03  0.00000000000E+00 0. -1.
         -2   -1    0    0    0  501 -0.00000000000E+00 -0.00000000000E+00 -0.71424074844E+02  0.71424074844E+02  0.00000000000E+00 0.  1.
         25    2    1    2    0    0 -0.80580349316E+02 -0.12743445698E+01  0.49550743883E+02  0.15683955883E+03  0.12509418190E+03 0.  0.
          5    1    3    3  502    0 -0.27781343104E+02  0.34092367649E+02 -0.31136239736E+02  0.54046557536E+02  0.41800000000E+01 0.  1.
         -5    1    3    3    0  502 -0.52799006212E+02 -0.35366712218E+02  0.80686983619E+02  0.10279300130E+03  0.41800000000E+01 0.  1.
        -11    1    1    2    0    0  0.79035489380E+02  0.29563114328E+02  0.11291338228E+03  0.14096105210E+03  0.00000000000E+00 0.  1.
         11    1    1    2    0    0  0.15448599359E+01 -0.28288769759E+02  0.49670478148E+02  0.57182143070E+02  0.00000000000E+00 0. -1.
</event>
<event>
 7    1  0.2840156E-009  0.1077996E+03  0.7561462E-02  0.1264700E+00
          1   -1    0    0  501    0  0.00000000000E+00  0.00000000000E+00  0.14608276253E+03  0.14608276253E+03  0.00000000000E+00 0. -1.
         -1   -1    0    0    0  501 -0.00000000000E+00 -0.00000000000E+00 -0.87560525484E+02  0.87560525484E+02  0.00000000000E+00 0.  1.
         25    2    1    2    0    0  0.20092752742E+01  0.24775372040E+02  0.52235077634E+02  0.13781883708E+03  0.12509065621E+03 0.  0.
          5    1    3    3  502    0  0.34422978069E+00  0.73879805391E+02  0.48267943940E+02  0.88349368707E+02  0.41800000000E+01 0. -1.
         -5    1    3    3    0  502  0.16650454936E+01 -0.49104433351E+02  0.39671336933E+01  0.49469468371E+02  0.41800000000E+01 0. -1.
        -11    1    1    2    0    0 -0.33238834390E+02  0.19175981162E+02  0.15013627064E+02  0.41206156855E+02  0.00000000000E+00 0. -1.
         11    1    1    2    0    0  0.31229559116E+02 -0.43951353202E+02 -0.87264676500E+01  0.54618294083E+02  0.00000000000E+00 0.  1.
</event>
<event>
 7    1  0.2840156E-009  0.1195692E+03  0.7561462E-02  0.1243809E+00
          3   -1    0    0  501    0  0.00000000000E+00  0.00000000000E+00  0.13582514861E+02  0.13582514861E+02  0.00000000000E+00 0. -1.
         -3   -1    0    0    0  501 -0.00000000000E+00 -0.00000000000E+00 -0.17120505991E+04  0.17120505991E+04  0.00000000000E+00 0.  1.
         25    2    1    2    0    0 -0.84475309251E+02  0.22305995027E+02 -0.12641992262E+04  0.12733735991E+04  0.12508798541E+03 0.  0.
          5    1    3    3  502    0  0.25885152410E+02  0.28717407441E+02 -0.45298685870E+03  0.45465294144E+03  0.41800000000E+01 0. -1.
         -5    1    3    3    0  502 -0.11036046166E+03 -0.64114124137E+01 -0.81121236752E+03  0.81872065769E+03  0.41800000000E+01 0. -1.
        -11    1    1    2    0    0  0.76406640220E+02 -0.13337476461E+02 -0.43326632098E+03  0.44015402741E+03  0.00000000000E+00 0.  1.
         11    1    1    2    0    0  0.80686690303E+01 -0.89685185666E+01 -0.10025370347E+01  0.12105487421E+02  0.00000000000E+00 0. -1.
</event>
<event>
 7    1  0.2840156E-009  0.2514518E+03  0.7561462E-02  0.1112391E+00
          1   -1    0    0  501    0  0.00000000000E+00  0.00000000000E+00  0.13815493841E+03  0.13815493841E+03  0.00000000000E+00 0. -1.
         -1   -1    0    0    0  501 -0.00000000000E+00 -0.00000000000E+00 -0.46288317257E+03  0.46288317257E+03  0.00000000000E+00 0.  1.
         25    2    1    2    0    0 -0.18091094602E+03 -0.13836743919E+03 -0.17834163609E+03  0.31516287486E+03  0.12509028703E+03 0.  0.
          5    1    3    3  502    0 -0.33788346768E+02  0.23242542616E+02 -0.30326037969E+02  0.51176255661E+02  0.41800000000E+01 0.  1.
         -5    1    3    3    0  502 -0.14712259925E+03 -0.16160998181E+03 -0.14801559812E+03  0.26398661920E+03  0.41800000000E+01 0.  1.
        -11    1    1    2    0    0  0.75712146343E+02  0.88381166480E+01 -0.65196163494E+02  0.10030444229E+03  0.00000000000E+00 0.  1.
         11    1    1    2    0    0  0.10519879968E+03  0.12952932254E+03 -0.81190434573E+02  0.18557079382E+03  0.00000000000E+00 0. -1.
</event>
<event>
 7    1  0.2840156E-009  0.3222167E+03  0.7561462E-02  0.1074634E+00
          2   -1    0    0  501    0  0.00000000000E+00  0.00000000000E+00  0.77256438236E+03  0.77256438236E+03  0.00000000000E+00 0. -1.
         -2   -1    0    0    0  501 -0.00000000000E+00 -0.00000000000E+00 -0.17451422042E+03  0.17451422042E+03  0.00000000000E+00 0.  1.
         25    2    1    2    0    0  0.30373452607E+03 -0.74184272491E+02  0.99162427604E+02  0.35105366187E+03  0.12509003899E+03 0.  0.
          5    1    3    3  502    0  0.20644695124E+03 -0.10150145588E+03  0.38982078741E+02  0.23336658734E+03  0.41800000000E+01 0.  1.
         -5    1    3    3    0  502  0.97287574827E+02  0.27317183386E+02  0.60180348862E+02  0.11768707454E+03  0.41800000000E+01 0.  1.
        -11    1    1    2    0    0 -0.23152594530E+03  0.64586090911E+02  0.44374474023E+03  0.50466327484E+03  0.00000000000E+00 0. -1.
         11    1    1    2    0    0 -0.72208580772E+02  0.95981815799E+01  0.55142994108E+02  0.91361666064E+02  0.00000000000E+00 0.  1.
</event>
<event>
 7    1  0.2840156E-009  0.1031066E+03  0.7561462E-02  0.1273896E+00
          4   -1    0    0  501    0  0.00000000000E+00  0.00000000000E+00  0.14583707580E+03  0.14583707580E+03  0.00000000000E+00 0. -1.
         -4   -1    0    0    0  501 -0.00000000000E+00 -0.00000000000E+00 -0.11709312151E+03  0.11709312151E+03  0.00000000000E+00 0.  1.
         25    2    1    2    0    0  0.29630221872E+02  0.51655285499E+02 -0.28256581284E+02  0.14139264565E+03  0.12508887757E+03 0.  0.
          5    1    3    3  502    0 -0.18122015328E+02  0.73524135279E+02  0.96984823762E+01  0.76457431741E+02  0.41800000000E+01 0. -1.
         -5    1    3    3    0  502  0.47752237200E+02 -0.21868849780E+02 -0.37955063660E+02  0.64935213911E+02  0.41800000000E+01 0. -1.
        -11    1    1    2    0    0 -0.90502360793E+01 -0.55937473836E+02 -0.42071426962E+01  0.56820839503E+02  0.00000000000E+00 0.  1.
         11    1    1    2    0    0 -0.20579985792E+02  0.42821883369E+01  0.61207678270E+02  0.64716712148E+02  0.00000000000E+00 0. -1.
</event>
<event>
 7    1  0.2840156E-009  0.1325797E+03  0.7561462E-02  0.1223677E+00
          1   -1    0    0  501    0  0.00000000000E+00  0.00000000000E+00  0.28853231945E+03  0.28853231945E+03  0.00000000000E+00 0. -1.
         -1   -1    0    0    0  501 -0.00000000000E+00 -0.00000000000E+00 -0.78942664112E+02  0.78942664112E+02  0.00000000000E+00 0.  1.
         25    2    1    2    0    0 -0.32086485019E+02  0.81632584050E+02  0.18147595147E+03  0.23721812952E+03  0.12508196798E+03 0.  0.
          5    1    3    3  502    0 -0.76802053807E+02  0.68577097016E+02  0.10194096698E+03  0.14495104985E+03  0.41800000000E+01 0.  1.
         -5    1    3    3    0  502  0.44715568788E+02  0.13055487034E+02  0.79534984484E+02  0.92267079669E+02  0.41800000000E+01 0.  1.
        -11    1    1    2    0    0  0.53531707523E+02 -0.34844305924E+02  0.42615007099E+02  0.76784166309E+02  0.00000000000E+00 0. -1.
         11    1    1    2    0    0 -0.21445222505E+02 -0.46788278126E+02 -0.14501303226E+02  0.53472687734E+02  0.00000000000E+00 0.  1.
</event>
<event>
 7    1  0.2840156E-009  0.1113335E+03  0.7561462E-02  0.1258120E+00
         -2   -1    0    0    0  501 -0.00000000000E+00  0.00000000000E+00  0.34090651474E+02  0.34090651474E+02  0.00000000000E+00 0.  1.
          2   -1    0    0  501    0  0.00000000000E+00 -0.00000000000E+00 -0.49119669998E+03  0.49119669998E+03  0.00000000000E+00 0. -1.
         25    2    1    2    0    0  0.64275633685E+02  0.27095143505E+02 -0.33886657170E+03  0.36789043064E+03  0.12508921475E+03 0.  0.
          5    1    3    3  502    0  0.88017410153E+02  0.46245785583E+02 -0.17641763168E+03  0.20254972313E+03  0.41800000000E+01 0. -1.
         -5    1    3    3    0  502 -0.23741776468E+02 -0.19150642078E+02 -0.16244894003E+03  0.16534070750E+03  0.41800000000E+01 0. -1.
        -11    1    1    2    0    0 -0.69140732476E+02 -0.45390786288E+01 -0.11476804764E+03  0.13406248126E+03  0.00000000000E+00 0. -1.
         11    1    1    2    0    0  0.48650987916E+01 -0.22556064876E+02 -0.34714291570E+01  0.23334439555E+02  0.00000000000E+00 0.  1.
</event>
<event>
 7    1  0.2840156E-009  0.1004849E+03  0.7561462E-02  0.1279280E+00
          1   -1    0    0  501    0  0.00000000000E+00  0.00000000000E+00  0.10275512709E+04  0.10275512709E+04  0.00000000000E+00 0. -1.
         -1   -1    0    0    0  501 -0.00000000000E+00 -0.00000000000E+00 -0.17128248746E+02  0.17128248746E+02  0.00000000000E+00 0.  1.
         25    2    1    2    0    0 -0.44067943486E+02  0.12774643906E+02  0.78872132555E+03  0.79989606181E+03  0.12508878908E+03 0.  0.
          5    1    3    3  502    0 -0.66847626428E+02 -0.29808675932E+02  0.30217913404E+03  0.31094511376E+03  0.41800000000E+01 0.  1.
         -5    1    3    3    0  502  0.22779682942E+02  0.42583319838E+02  0.48654219151E+03  0.48895094806E+03  0.41800000000E+01 0.  1.
        -11    1    1    2    0    0  0.21606932209E+02 -0.39042370330E+02  0.40326549240E+02  0.60144798395E+02  0.00000000000E+00 0.  1.
         11    1    1    2    0    0  0.22461011278E+02  0.26267726424E+02  0.18137514739E+03  0.18463865947E+03  0.00000000000E+00 0. -1.
</event>
<event>
 7    1  0.2840156E-009  0.6278503E+02  0.7561462E-02  0.1386502E+00
         -1   -1    0    0    0  501 -0.00000000000E+00  0.00000000000E+00  0.10887781936E+02  0.10887781936E+02  0.00000000000E+00 0.  1.
          1   -1    0    0  501    0  0.00000000000E+00 -0.00000000000E+00 -0.11790622115E+04  0.11790622115E+04  0.00000000000E+00 0. -1.
         25    2    1    2    0    0 -0.25107152513E+02 -0.10050157703E+02 -0.77374989450E+03  0.78426262020E+03  0.12509030108E+03 0.  0.
          5    1    3    3  502    0 -0.40617920637E+01  0.72819435285E+01 -0.74259040361E+03  0.74264897818E+03  0.41800000000E+01 0.  1.
         -5    1    3    3    0  502 -0.21045360449E+02 -0.17332101231E+02 -0.31159490889E+02  0.41613642018E+02  0.41800000000E+01 0.  1.
        -11    1    1    2    0    0  0.54284012685E+02  0.19974057975E+02 -0.31913537725E+03  0.32433486713E+03  0.00000000000E+00 0.  1.
         11    1    1    2    0    0 -0.29176860171E+02 -0.99239002717E+01 -0.75289157862E+02  0.81352506154E+02  0.00000000000E+00 0. -1.
</event>
<event>
 7    1  0.2840156E-009  0.8641069E+02  0.7561462E-02  0.1311784E+00
         -1   -1    0    0    0  501 -0.00000000000E+00  0.00000000000E+00  0.30674258792E+03  0.30674258792E+03  0.00000000000E+00 0.  1.
          1   -1    0    0  501    0  0.00000000000E+00 -0.00000000000E+00 -0.50470848356E+02  0.50470848356E+02  0.00000000000E+00 0. -1.
         25    2    1    2    0    0  0.19794389814E+01 -0.12976089939E+02  0.22590096581E+03  0.25855447091E+03  0.12508745336E+03 0.  0.
          5    1    3    3  502    0  0.52983187161E+02 -0.41167235493E+02  0.12651502882E+03  0.14326717809E+03  0.41800000000E+01 0.  1.
         -5    1    3    3    0  502 -0.51003748180E+02  0.28191145554E+02  0.99385936987E+02  0.11528729282E+03  0.41800000000E+01 0.  1.
        -11    1    1    2    0    0 -0.17612761313E+02 -0.93287187646E+01 -0.27928352827E+02  0.34310745350E+02  0.00000000000E+00 0. -1.
         11    1    1    2    0    0  0.15633322331E+02  0.22304808704E+02  0.58299126585E+02  0.64348220015E+02  0.00000000000E+00 0.  1.
</event>
<event>
 7    1  0.2840156E-009  0.2436914E+03  0.7561462E-02  0.1117358E+00
         -1   -1    0    0    0  501 -0.00000000000E+00  0.00000000000E+00  0.72303092505E+02  0.72303092505E+02  0.00000000000E+00 0.  1.
          1   -1    0    0  501    0  0.00000000000E+00 -0.00000000000E+00 -0.83369240081E+03  0.83369240081E+03  0.00000000000E+00 0. -1.
         25    2    1    2    0    0 -0.18956752942E+03 -0.10933214245E+03 -0.40632595258E+03  0.47816053437E+03  0.12508937329E+03 0.  0.
          5    1    3    3  502    0 -0.20395715847E+03 -0.80290730812E+02 -0.35904663892E+03  0.42068644531E+03  0.41800000000E+01 0. -1.
         -5    1    3    3    0  502  0.14389629050E+02 -0.29041411633E+02 -0.47279313658E+02  0.57474089064E+02  0.41800000000E+01 0. -1.
        -11    1    1    2    0    0  0.94597269286E+02  0.54992866390E+01 -0.17816367826E+03  0.20179490023E+03  0.00000000000E+00 0. -1.
         11    1    1    2    0    0  0.94970260129E+02  0.10383285581E+03 -0.17689967747E+03  0.22604005871E+03  0.00000000000E+00 0.  1.
</event>
<event>
 7    1  0.2840156E-009  0.1021700E+03  0.7561462E-02  0.1275798E+00
          1   -1    0    0  501    0  0.00000000000E+00  0.00000000000E+00  0.50402475292E+03  0.50402475292E+03  0.00000000000E+00 0. -1.
         -1   -1    0    0    0  501 -0.00000000000E+00 -0.00000000000E+00 -0.26315035065E+02  0.26315035065E+02  0.00000000000E+00 0.  1.
         25    2    1    2    0    0  0.33130393891E+02  0.18839255087E+02  0.28651724702E+03  0.31494732902E+03  0.12508855536E+03 0.  0.
          5    1    3    3  502    0  0.28553589672E+02  0.62291586214E+02  0.87868953890E+02  0.11150773361E+03  0.41800000000E+01 0.  1.
         -5    1    3    3    0  502  0.45768042187E+01 -0.43452331127E+02  0.19864829313E+03  0.20343959541E+03  0.41800000000E+01 0.  1.
        -11    1    1    2    0    0  0.28272818814E+02 -0.85469404514E+01  0.27886920952E+02  0.40621211638E+02  0.00000000000E+00 0. -1.
         11    1    1    2    0    0 -0.61403212705E+02 -0.10292314635E+02  0.16330554988E+03  0.17477124733E+03  0.00000000000E+00 0.  1.
</event>
<event>
 7    1  0.2840156E-009  0.1773976E+03  0.7561462E-02  0.1170346E+00
          2   -1    0    0  501    0  0.00000000000E+00  0.00000000000E+00  0.10193554303E+04  0.10193554303E+04  0.00000000000E+00 0. -1.
         -2   -1    0    0    0  501 -0.00000000000E+00 -0.00000000000E+00 -0.39307839653E+02  0.39307839653E+02  0.00000000000E+00 0.  1.
         25    2    1    2    0    0 -0.16426700050E+03  0.36620212443E+02  0.48565715365E+03  0.52899462684E+03  0.12509099456E+03 0.  0.
          5    1    3    3  502    0 -0.17066308587E+03  0.32788018238E+02  0.32897301791E+03  0.37207749452E+03  0.41800000000E+01 0.  1.
         -5    1    3    3    0  502  0.63960853722E+01  0.38321942051E+01  0.15668413575E+03  0.15691713232E+03  0.41800000000E+01 0.  1.
        -11    1    1    2    0    0  0.99882573684E+02 -0.33461834760E+01  0.16929096822E+03  0.19658880281E+03  0.00000000000E+00 0.  1.
         11    1    1    2    0    0  0.64384426812E+02 -0.33274028967E+02  0.32509946872E+03  0.33307984025E+03  0.00000000000E+00 0. -1.
</event>
<event>
 7    1  0.2840156E-009  0.7237814E+02  0.7561462E-02  0.1352188E+00
          2   -1    0    0  501    0  0.00000000000E+00  0.00000000000E+00  0.22731697091E+03  0.22731697091E+03  0.00000000000E+00 0. -1.
         -2   -1    0    0    0  501 -0.00000000000E+00 -0.00000000000E+00 -0.61035083241E+02  0.61035083241E+02  0.00000000000E+00 0.  1.
         25    2    1    2    0    0 -0.21520717824E+02  0.86147999001E+01  0.46020786324E+02  0.13528988905E+03  0.12509230684E+03 0.  0.
          5    1    3    3  502    0 -0.26114127178E+02 -0.27974282577E+02 -0.31240265544E+02  0.49577562619E+02  0.41800000000E+01 0.  1.
         -5    1    3    3    0  502  0.45934093541E+01  0.36589082477E+02  0.77261051868E+02  0.85712326429E+02  0.41800000000E+01 0.  1.
        -11    1    1    2    0    0  0.33630350280E+02 -0.29676897973E+02  0.18629895036E+02  0.48567393613E+02  0.00000000000E+00 0.  1.
         11    1    1    2    0    0 -0.12109632456E+02  0.21062098073E+02  0.10163120631E+03  0.10449477149E+03  0.00000000000E+00 0. -1.
</event>
<event>
 7    1  0.3172310E-009  0.1325213E+03  0.7561462E-02  0.1223762E+00
          2   -1    0    0  501    0  0.00000000000E+00  0.00000000000E+00  0.90565017339E+03  0.90565017339E+03  0.00000000000E+00 0. -1.
         -2   -1    0    0    0  501 -0.00000000000E+00 -0.00000000000E+00 -0.26002949493E+02  0.26002949493E+02  0.00000000000E+00 0.  1.
         25    2    1    2    0    0  0.46048960464E+02  0.97332509684E+02  0.49664688311E+03  0.52335486768E+03  0.12509223324E+03 0.  0.
          5    1    3    3  502    0  0.22974988690E+02 -0.22976097196E+02  0.46929872605E+02  0.57233176484E+02  0.41800000000E+01 0. -1.
         -5    1    3    3    0  502  0.23073971773E+02  0.12030860688E+03  0.44971701051E+03  0.46612169120E+03  0.41800000000E+01 0. -1.
        -11    1    1    2    0    0 -0.12308226425E+02 -0.92814250504E+01  0.16969494987E+01  0.15508608135E+02  0.00000000000E+00 0.  1.
         11    1    1    2    0    0 -0.33740734039E+02 -0.88051084633E+02  0.38130339129E+03  0.39278964707E+03  0.00000000000E+00 0. -1.
</event>
<event>
 7    1  0.2840156E-009  0.7464490E+02  0.7561462E-02  0.1344974E+00
          1   -1    0    0  501    0  0.00000000000E+00  0.00000000000E+00  0.61606395927E+02  0.61606395927E+02  0.00000000000E+00 0.  1.
         -1   -1    0    0    0  501 -0.00000000000E+00 -0.00000000000E+00 -0.22865173632E+03  0.22865173632E+03  0.00000000000E+00 0. -1.
         25    2    1    2    0    0  0.35454703524E+02  0.18350482259E+02 -0.64606451290E+02  0.14633929978E+03  0.12508965149E+03 0.  0.
          5    1    3    3  502    0 -0.11881597366E+02  0.88194678922E+01  0.33529727715E+02  0.36887266238E+02  0.41800000000E+01 0.  1.
         -5    1    3    3    0  502  0.47336300889E+02  0.95310143664E+01 -0.98136179005E+02  0.10945203354E+03  0.41800000000E+01 0.  1.
        -11    1    1    2    0    0 -0.59058209894E+02 -0.18349701312E+02 -0.32002690045E+02  0.69633008439E+02  0.00000000000E+00 0.  1.
         11    1    1    2    0    0  0.23603506371E+02 -0.78094630649E-03 -0.70436199060E+02  0.74285824029E+02  0.00000000000E+00 0. -1.
</event>
<event>
 7    1  0.2840156E-009  0.5202453E+02  0.7561462E-02  0.1434718E+00
         -1   -1    0    0    0  501 -0.00000000000E+00  0.00000000000E+00  0.80078843739E+03  0.80078843739E+03  0.00000000000E+00 0.  1.
          1   -1    0    0  501    0  0.00000000000E+00 -0.00000000000E+00 -0.34574984307E+02  0.34574984307E+02  0.00000000000E+00 0. -1.
         25    2    1    2    0    0  0.27933563143E+02 -0.43072296184E+02  0.69929523981E+03  0.71224859310E+03  0.12509484123E+03 0.  0.
          5    1    3    3  502    0  0.13485196255E+02 -0.27866595850E+02  0.68673542069E+03  0.68744556738E+03  0.41800000000E+01 0. -1.
         -5    1    3    3    0  502  0.14448366889E+02 -0.15205700335E+02  0.12559819119E+02  0.24803025717E+02  0.41800000000E+01 0. -1.
        -11    1    1    2    0    0 -0.18358589037E+02  0.30803944976E+02  0.89084419877E+02  0.96031008963E+02  0.00000000000E+00 0.  1.
         11    1    1    2    0    0 -0.95749741061E+01  0.12268351208E+02 -0.22166206607E+02  0.27083819632E+02  0.00000000000E+00 0. -1.
</event>
<event>
 7    1  0.2840156E-009  0.8748163E+02  0.7561462E-02  0.1309067E+00
          2   -1    0    0  501    0  0.00000000000E+00  0.00000000000E+00  0.60474912456E+03  0.60474912456E+03  0.00000000000E+00 0. -1.
         -2   -1    0    0    0  501 -0.00000000000E+00 -0.00000000000E+00 -0.25554301787E+02  0.25554301787E+02  0.00000000000E+00 0.  1.
         25    2    1    2    0    0 -0.25614984307E+02 -0.45711625782E+02  0.40331294326E+03  0.42550546488E+03  0.12509152764E+03 0.  0.
          5    1    3    3  502    0  0.10573397434E+02 -0.49872471798E+02  0.37680481311E+03  0.38026096271E+03  0.41800000000E+01 0.  1.
         -5    1    3    3    0  502 -0.36188381741E+02  0.41608460156E+01  0.26508130150E+02  0.45244502171E+02  0.41800000000E+01 0.  1.
        -11    1    1    2    0    0  0.24739100224E+02 -0.13326904025E+02  0.11911695666E+02  0.30520778896E+02  0.00000000000E+00 0.  1.
         11    1    1    2    0    0  0.87588408342E+00  0.59038529807E+02  0.16397018385E+03  0.17427718257E+03  0.00000000000E+00 0. -1.
</event>
<event>
 7    1  0.2840156E-009  0.1232961E+03  0.7561462E-02  0.1237756E+00
          2   -1    0    0  501    0  0.00000000000E+00  0.00000000000E+00  0.90885557615E+03  0.90885557615E+03  0.00000000000E+00 0. -1.
         -2   -1    0    0    0  501 -0.00000000000E+00 -0.00000000000E+00 -0.17279153374E+02  0.17279153374E+02  0.00000000000E+00 0.  1.
         25    2    1    2    0    0 -0.45574088634E+02 -0.41717195934E+02  0.50539620363E+03  0.52429806261E+03  0.12508322759E+03 0.  0.
          5    1    3    3  502    0 -0.49497781117E+02 -0.82533208846E+02  0.39139430309E+03  0.40307410459E+03  0.41800000000E+01 0. -1.
         -5    1    3    3    0  502  0.39236924829E+01  0.40816012912E+02  0.11400190054E+03  0.12122395803E+03  0.41800000000E+01 0. -1.
        -11    1    1    2    0    0  0.58789412860E+01  0.63497407840E+02  0.18696601333E+03  0.19754182568E+03  0.00000000000E+00 0. -1.
         11    1    1    2    0    0  0.39695147349E+02 -0.21780211906E+02  0.19921420582E+03  0.20429484123E+03  0.00000000000E+00 0.  1.
</event>
<event>
 7    1  0.2840156E-009  0.8815736E+02  0.7561462E-02  0.1307376E+00
          3   -1    0    0  501    0  0.00000000000E+00  0.00000000000E+00  0.17147612343E+03  0.17147612343E+03  0.00000000000E+00 0. -1.
         -3   -1    0    0    0  501 -0.00000000000E+00 -0.00000000000E+00 -0.77787622182E+02  0.77787622182E+02  0.00000000000E+00 0.  1.
         25    2    1    2    0    0 -0.26948301568E+01  0.10587978532E+02  0.85450631577E+02  0.15188293149E+03  0.12508895652E+03 0.  0.
          5    1    3    3  502    0  0.28743933564E+02 -0.20584255681E+02  0.99152490919E+02  0.10534996039E+03  0.41800000000E+01 0.  1.
         -5    1    3    3    0  502 -0.31438763721E+02  0.31172234213E+02 -0.13701859342E+02  0.46532971101E+02  0.41800000000E+01 0.  1.
        -11    1    1    2    0    0 -0.45759837557E+02 -0.13478059350E+02 -0.21068529241E+01  0.47749970119E+02  0.00000000000E+00 0.  1.
         11    1    1    2    0    0  0.48454667714E+02  0.28900808179E+01  0.10344722591E+02  0.49630843997E+02  0.00000000000E+00 0. -1.
</event>
<event>
 7    1  0.2840156E-009  0.1470289E+03  0.7561462E-02  0.1204172E+00
          2   -1    0    0  501    0  0.00000000000E+00  0.00000000000E+00  0.42808379771E+03  0.42808379771E+03  0.00000000000E+00 0. -1.
         -2   -1    0    0    0  501 -0.00000000000E+00 -0.00000000000E+00 -0.65147270426E+02  0.65147270426E+02  0.00000000000E+00 0.  1.
         25    2    1    2    0    0 -0.10927488577E+03  0.26870354849E+01  0.98884468339E+02  0.19332202766E+03  0.12508815884E+03 0.  0.
          5    1    3    3  502    0 -0.11238449773E+03  0.45876487320E+02  0.62429982477E+02  0.13656464598E+03  0.41800000000E+01 0. -1.
         -5    1    3    3    0  502  0.31096119588E+01 -0.43189451835E+02  0.36454485863E+02  0.56757381686E+02  0.41800000000E+01 0. -1.
        -11    1    1    2    0    0  0.10866990296E+03  0.16485992584E+02  0.16007686923E+03  0.19417914364E+03  0.00000000000E+00 0.  1.
         11    1    1    2    0    0  0.60498281377E+00 -0.19173028069E+02  0.10397518972E+03  0.10572989684E+03  0.00000000000E+00 0. -1.
</event>
<event>
 7    1  0.2840156E-009  0.1264914E+03  0.7561462E-02  0.1232757E+00
         -1   -1    0    0    0  501 -0.00000000000E+00  0.00000000000E+00  0.21035406048E+03  0.21035406048E+03  0.00000000000E+00 0.  1.
          1   -1    0    0  501    0  0.00000000000E+00 -0.00000000000E+00 -0.84484735826E+02  0.84484735826E+02  0.00000000000E+00 0. -1.
         25    2    1    2    0    0 -0.43048535895E+01  0.55430630207E+02  0.74542597769E+02  0.15586937265E+03  0.12509027108E+03 0.  0.
          5    1    3    3  502    0  0.55733113166E+02  0.14299716589E+02  0.56554547148E+02  0.80787071991E+02  0.41800000000E+01 0.  1.
         -5    1    3    3    0  502 -0.60037966755E+02  0.41130913618E+02  0.17988050621E+02  0.75082300659E+02  0.41800000000E+01 0.  1.
        -11    1    1    2    0    0  0.48680231129E+02  0.32942906032E+01  0.42741330230E+02  0.64864771357E+02  0.00000000000E+00 0. -1.
         11    1    1    2    0    0 -0.44375377540E+02 -0.58724920810E+02  0.85853966512E+01  0.74104652294E+02  0.00000000000E+00 0.  1.
</event>
<event>
 7    1  0.2840156E-009  0.1451998E+03  0.7561462E-02  0.1206499E+00
          2   -1    0    0  501    0  0.00000000000E+00  0.00000000000E+00  0.61153568625E+03  0.61153568625E+03  0.00000000000E+00 0. -1.
         -2   -1    0    0    0  501 -0.00000000000E+00 -0.00000000000E+00 -0.42319431578E+02  0.42319431578E+02  0.00000000000E+00 0.  1.
         25    2    1    2    0    0  0.11490692201E+03 -0.21360084287E+02  0.37430415668E+03  0.41159626658E+03  0.12509209018E+03 0.  0.
          5    1    3    3  502    0 -0.95862456240E+01 -0.21967292410E+02  0.17418511630E+03  0.17587605062E+03  0.41800000000E+01 0. -1.
         -5    1    3    3    0  502  0.12449316763E+03  0.60720812264E+00  0.20011904039E+03  0.23572021597E+03  0.41800000000E+01 0. -1.
        -11    1    1    2    0    0 -0.47099522408E+02  0.49286058791E+02  0.72159697897E+02  0.99269847400E+02  0.00000000000E+00 0. -1.
         11    1    1    2    0    0 -0.67807399603E+02 -0.27925974504E+02  0.12275240009E+03  0.14298900385E+03  0.00000000000E+00 0.  1.
</event>
<event>
 7    1  0.2840156E-009  0.8808346E+02  0.7561462E-02  0.1307560E+00
          1   -1    0    0  501    0  0.00000000000E+00  0.00000000000E+00  0.24421569952E+03  0.24421569952E+03  0.00000000000E+00 0. -1.
         -1   -1    0    0    0  501 -0.00000000000E+00 -0.00000000000E+00 -0.58065579434E+02  0.58065579434E+02  0.00000000000E+00 0.  1.
         25    2    1    2    0    0 -0.47624029085E+02  0.38755420885E+01  0.12993006633E+03  0.18658029766E+03  0.12508923761E+03 0.  0.
          5    1    3    3  502    0 -0.59758234288E+02 -0.38802934557E+02  0.12195585731E+03  0.14130611391E+03  0.41800000000E+01 0.  1.
         -5    1    3    3    0  502  0.12134205203E+02  0.42678476646E+02  0.79742090187E+01  0.45274183750E+02  0.41800000000E+01 0.  1.
        -11    1    1    2    0    0  0.78048910816E+01 -0.16666783589E+02 -0.20975019230E+02  0.27904290561E+02  0.00000000000E+00 0.  1.
         11    1    1    2    0    0  0.39819138003E+02  0.12791241501E+02  0.77195072987E+02  0.87796690734E+02  0.00000000000E+00 0. -1.
</event>
<event>
 7    1  0.2840156E-009  0.2800566E+03  0.7561462E-02  0.1095658E+00
         -2   -1    0    0    0  501 -0.00000000000E+00  0.00000000000E+00  0.14097000375E+03  0.14097000375E+03  0.00000000000E+00 0.  1.
          2   -1    0    0  501    0  0.00000000000E+00 -0.00000000000E+00 -0.66613049175E+03  0.66613049175E+03  0.00000000000E+00 0. -1.
         25    2    1    2    0    0  0.15215213051E+03 -0.22849909959E+03 -0.37396458146E+03  0.48048139108E+03  0.12510295624E+03 0.  0.
          5    1    3    3  502    0  0.12531644487E+03 -0.17512586454E+03 -0.35916116399E+03  0.41879290097E+03  0.41800000000E+01 0.  1.
         -5    1    3    3    0  502  0.26835685646E+02 -0.53373235049E+02 -0.14803417470E+02  0.61688490113E+02  0.41800000000E+01 0.  1.
        -11    1    1    2    0    0 -0.10881986330E+03  0.94887089929E+02 -0.47378908419E+02  0.15195421497E+03  0.00000000000E+00 0. -1.
         11    1    1    2    0    0 -0.43332267217E+02  0.13361200966E+03 -0.10381699812E+03  0.17466488945E+03  0.00000000000E+00 0.  1.
</event>
<event>
 7    1  0.2840156E-009  0.2392472E+03  0.7561462E-02  0.1120295E+00
          1   -1    0    0  501    0  0.00000000000E+00  0.00000000000E+00  0.29991922250E+04  0.29991922250E+04  0.00000000000E+00 0. -1.
         -1   -1    0    0    0  501 -0.00000000000E+00 -0.00000000000E+00 -0.24544574129E+02  0.24544574129E+02  0.00000000000E+00 0.  1.
         25    2    1    2    0    0  0.17729729181E+03 -0.12243888927E+03  0.22117269538E+04  0.22257154057E+04  0.12508931921E+03 0.  0.
          5    1    3    3  502    0  0.18327134123E+03 -0.13912241389E+03  0.20904810606E+04  0.21031100703E+04  0.41800000000E+01 0. -1.
         -5    1    3    3    0  502 -0.59740494198E+01  0.16683524624E+02  0.12124589320E+03  0.12260533544E+03  0.41800000000E+01 0. -1.
        -11    1    1    2    0    0 -0.69494321192E+02  0.97113059356E+02  0.46801831816E+03  0.48301299476E+03  0.00000000000E+00 0.  1.
         11    1    1    2    0    0 -0.10780297062E+03  0.25325829913E+02  0.29490237893E+03  0.31500839867E+03  0.00000000000E+00 0. -1.
</event>
<event>
 7    1  0.2840156E-009  0.1728880E+03  0.7561462E-02  0.1174869E+00
         -2   -1    0    0    0  501 -0.00000000000E+00  0.00000000000E+00  0.50413411113E+02  0.50413411113E+02  0.00000000000E+00 0.  1.
          2   -1    0    0  501    0  0.00000000000E+00 -0.00000000000E+00 -0.72305556976E+03  0.72305556976E+03  0.00000000000E+00 0. -1.
         25    2    1    2    0    0  0.77237517126E+02  0.11828167027E+03 -0.48826375979E+03  0.52345620132E+03  0.12509479608E+03 0.  0.
          5    1    3    3  502    0  0.28351470412E+02  0.13410940329E+03 -0.35569253352E+03  0.38121357364E+03  0.41800000000E+01 0. -1.
         -5    1    3    3    0  502  0.48886046714E+02 -0.15827733017E+02 -0.13257122627E+03  0.14224262768E+03  0.41800000000E+01 0. -1.
        -11    1    1    2    0    0 -0.23593543928E+02  0.36499597780E+01 -0.71593634357E+02  0.75469371283E+02  0.00000000000E+00 0. -1.
         11    1    1    2    0    0 -0.53643973199E+02 -0.12193163005E+03 -0.11278476451E+03  0.17454340827E+03  0.00000000000E+00 0.  1.
</event>
<event>
 7    1  0.2840156E-009  0.2748441E+03  0.7561462E-02  0.1098539E+00
          2   -1    0    0  501    0  0.00000000000E+00  0.00000000000E+00  0.25857957289E+03  0.25857957289E+03  0.00000000000E+00 0. -1.
         -2   -1    0    0    0  501 -0.00000000000E+00 -0.00000000000E+00 -0.34160607237E+03  0.34160607237E+03  0.00000000000E+00 0.  1.
         25    2    1    2    0    0 -0.17283804922E+03  0.20306332001E+03 -0.11742713621E+03  0.31708856186E+03  0.12509324744E+03 0.  0.
          5    1    3    3  502    0 -0.24144229307E+02  0.98233309783E+01  0.23577325983E+02  0.35394976209E+02  0.41800000000E+01 0.  1.
         -5    1    3    3    0  502 -0.14869381991E+03  0.19323998903E+03 -0.14100446219E+03  0.28169358565E+03  0.41800000000E+01 0.  1.
        -11    1    1    2    0    0  0.24033360074E+02 -0.88287156640E+02 -0.27160771234E+01  0.91540163311E+02  0.00000000000E+00 0.  1.
         11    1    1    2    0    0  0.14880468914E+03 -0.11477616337E+03  0.37116713855E+02  0.19155692009E+03  0.00000000000E+00 0. -1.
</event>
<event>
 7    1  0.2840156E-009  0.9994240E+02  0.7561462E-02  0.1280417E+00
         -2   -1    0    0    0  501 -0.00000000000E+00  0.00000000000E+00  0.39627629222E+02  0.39627629222E+02  0.00000000000E+00 0.  1.
          2   -1    0    0  501    0  0.00000000000E+00 -0.00000000000E+00 -0.31087212460E+03  0.31087212460E+03  0.00000000000E+00 0. -1.
         25    2    1    2    0    0 -0.24696123018E+02  0.11755285224E+02 -0.16415632785E+03  0.20818826179E+03  0.12508783774E+03 0.  0.
          5    1    3    3  502    0 -0.32357395315E+02  0.65173218067E+02 -0.10706077721E+03  0.12951460072E+03  0.41800000000E+01 0. -1.
         -5    1    3    3    0  502  0.76612722969E+01 -0.53417932843E+02 -0.57095550643E+02  0.78673661067E+02  0.41800000000E+01 0. -1.
        -11    1    1    2    0    0 -0.12867852847E+02  0.19936149900E+02  0.81573569939E+00  0.23742306848E+02  0.00000000000E+00 0.  1.
         11    1    1    2    0    0  0.37563975865E+02 -0.31691435125E+02 -0.10790390323E+03  0.11856918518E+03  0.00000000000E+00 0. -1.
</event>
<event>
 7    1  0.2840156E-009  0.8534598E+02  0.7561462E-02  0.1314530E+00
          1   -1    0    0  501    0  0.00000000000E+00  0.00000000000E+00  0.18634246826E+03  0.18634246826E+03  0.00000000000E+00 0. -1.
         -1   -1    0    0    0  501 -0.00000000000E+00 -0.00000000000E+00 -0.79913182174E+02  0.79913182174E+02  0.00000000000E+00 0.  1.
         25    2    1    2    0    0 -0.22350350090E+02 -0.16027228597E+02  0.65190254373E+01  0.12824625662E+03  0.12509274335E+03 0.  0.
          5    1    3    3  502    0 -0.35549022656E+02  0.31321325316E+02 -0.38705959534E+02  0.61321954754E+02  0.41800000000E+01 0. -1.
         -5    1    3    3    0  502  0.13198672566E+02 -0.47348553912E+02  0.45224984972E+02  0.66924301870E+02  0.41800000000E+01 0. -1.
        -11    1    1    2    0    0  0.89733061964E+01  0.42874011944E+02  0.98707757532E+02  0.10799038161E+03  0.00000000000E+00 0. -1.
         11    1    1    2    0    0  0.13377043894E+02 -0.26846783348E+02  0.12025031159E+01  0.30019012195E+02  0.00000000000E+00 0.  1.
</event>
<event>
 7    1  0.2840156E-009  0.1181018E+03  0.7561462E-02  0.1246262E+00
         -1   -1    0    0    0  501 -0.00000000000E+00  0.00000000000E+00  0.34074612002E+02  0.34074612002E+02  0.00000000000E+00 0.  1.
          1   -1    0    0  501    0  0.00000000000E+00 -0.00000000000E+00 -0.54152982864E+03  0.54152982864E+03  0.00000000000E+00 0. -1.
         25    2    1    2    0    0  0.11807429901E+02  0.72339404633E+02 -0.20360679809E+03  0.24995102411E+03  0.12508949340E+03 0.  0.
          5    1    3    3  502    0  0.11847714396E+02  0.10735062476E+03 -0.13615785381E+03  0.17384176289E+03  0.41800000000E+01 0.  1.
         -5    1    3    3    0  502 -0.40284495104E-01 -0.35011220123E+02 -0.67448944286E+02  0.76109261215E+02  0.41800000000E+01 0.  1.
        -11    1    1    2    0    0  0.11140541199E+02 -0.68733925594E+02 -0.29077883540E+03  0.29899965770E+03  0.00000000000E+00 0. -1.
         11    1    1    2    0    0 -0.22947971100E+02 -0.36054790382E+01 -0.13069583144E+02  0.26653758839E+02  0.00000000000E+00 0.  1.
</event>
<event>
 7    1  0.2840156E-009  0.9737082E+02  0.7561462E-02  0.1285924E+00
         -2   -1    0    0    0  501 -0.00000000000E+00  0.00000000000E+00  0.14537837683E+02  0.14537837683E+02  0.00000000000E+00 0.  1.
          2   -1    0    0  501    0  0.00000000000E+00 -0.00000000000E+00 -0.88478892959E+03  0.88478892959E+03  0.00000000000E+00 0. -1.
         25    2    1    2    0    0  0.35924485143E+02  0.10965720289E+02 -0.48958063172E+03  0.50670232183E+03  0.12508889775E+03 0.  0.
          5    1    3    3  502    0  0.49139302636E+02 -0.28376390028E+02 -0.10128229980E+03  0.11616999280E+03  0.41800000000E+01 0. -1.
         -5    1    3    3    0  502 -0.13214817494E+02  0.39342110316E+02 -0.38829833193E+03  0.39053232903E+03  0.41800000000E+01 0. -1.
        -11    1    1    2    0    0  0.18783430057E+02 -0.32337878966E+02 -0.15135178232E+03  0.15590355246E+03  0.00000000000E+00 0.  1.
         11    1    1    2    0    0 -0.54707915200E+02  0.21372158677E+02 -0.22931867787E+03  0.23672089298E+03  0.00000000000E+00 0. -1.
</event>
<event>
 7    1  0.2840156E-009  0.1102839E+03  0.7561462E-02  0.1260045E+00
          4   -1    0    0  501    0  0.00000000000E+00  0.00000000000E+00  0.27145921144E+02  0.27145921144E+02  0.00000000000E+00 0. -1.
         -4   -1    0    0    0  501 -0.00000000000E+00 -0.00000000000E+00 -0.83970459082E+03  0.83970459082E+03  0.00000000000E+00 0.  1.
         25    2    1    2    0    0 -0.65873041620E+02 -0.56364726373E+02 -0.27283476844E+03  0.31241323449E+03  0.12508788201E+03 0.  0.
          5    1    3    3  502    0  0.25409868396E+01 -0.10107941319E+02  0.11634289672E+02  0.16169606922E+02  0.41800000000E+01 0.  1.
         -5    1    3    3    0  502 -0.68414028460E+02 -0.46256785054E+02 -0.28446905811E+03  0.29624362757E+03  0.41800000000E+01 0.  1.
        -11    1    1    2    0    0  0.35068582872E+01  0.63750030345E+02 -0.25529760778E+03  0.26316008999E+03  0.00000000000E+00 0. -1.
         11    1    1    2    0    0  0.62366183333E+02 -0.73853039718E+01 -0.28442629346E+03  0.29127718748E+03  0.00000000000E+00 0.  1.
</event>
<event>
 7    1  0.2840156E-009  0.1177000E+03  0.7561462E-02  0.1246940E+00
         -3   -1    0    0    0  501 -0.00000000000E+00  0.00000000000E+00  0.62968669728E+03  0.62968669728E+03  0.00000000000E+00 0.  1.
          3   -1    0    0  501    0  0.00000000000E+00 -0.00000000000E+00 -0.39649713225E+02  0.39649713225E+02  0.00000000000E+00 0. -1.
         25    2    1    2    0    0 -0.11057629097E+03  0.45694253804E+01  0.37272217614E+03  0.40843192771E+03  0.12508726239E+03 0.  0.
          5    1    3    3  502    0 -0.11515403097E+03  0.11023649495E+02  0.17090807080E+03  0.20641950674E+03  0.41800000000E+01 0.  1.
         -5    1    3    3    0  502  0.45777400026E+01 -0.64542241142E+01  0.20181410534E+03  0.20201242097E+03  0.41800000000E+01 0.  1.
        -11    1    1    2    0    0  0.49845395826E+02 -0.90328642710E+00  0.18808476172E+02  0.53283563951E+02  0.00000000000E+00 0. -1.
         11    1    1    2    0    0  0.60730895143E+02 -0.36661389533E+01  0.19850633174E+03  0.20762091884E+03  0.00000000000E+00 0.  1.
</event>
<event>
 7    1  0.2840156E-009  0.1427514E+03  0.7561462E-02  0.1209674E+00
         -2   -1    0    0    0  501 -0.00000000000E+00  0.00000000000E+00  0.18686947725E+03  0.18686947725E+03  0.00000000000E+00 0.  1.
          2   -1    0    0  501    0  0.00000000000E+00 -0.00000000000E+00 -0.15296129729E+03  0.15296129729E+03  0.00000000000E+00 0. -1.
         25    2    1    2    0    0 -0.11940509011E+03 -0.48171721377E+02  0.55679590355E+01  0.17958900827E+03  0.12507245675E+03 0.  0.
          5    1    3    3  502    0 -0.91455201835E+02 -0.52530905310E+02  0.57579770856E+02  0.12023498812E+03  0.41800000000E+01 0.  1.
         -5    1    3    3    0  502 -0.27949888272E+02  0.43591839334E+01 -0.52011811821E+02  0.59354020149E+02  0.41800000000E+01 0.  1.
        -11    1    1    2    0    0  0.51347754448E+02  0.63431554035E+02  0.37650263976E+02  0.89876005205E+02  0.00000000000E+00 0.  1.
         11    1    1    2    0    0  0.68057335659E+02 -0.15259832658E+02 -0.93100430550E+01  0.70365761073E+02  0.00000000000E+00 0. -1.
</event>
<event>
 7    1  0.2840156E-009  0.1589303E+03  0.7561462E-02  0.1189910E+00
         -2   -1    0    0    0  501 -0.00000000000E+00  0.00000000000E+00  0.12613419110E+03  0.12613419110E+03  0.00000000000E+00 0. -1.
          2   -1    0    0  501    0  0.00000000000E+00 -0.00000000000E+00 -0.53787281040E+03  0.53787281040E+03  0.00000000000E+00 0.  1.
         25    2    1    2    0    0 -0.13012910290E+03 -0.64541243003E+02 -0.44913779787E+03  0.48833861468E+03  0.12510270040E+03 0.  0.
          5    1    3    3  502    0 -0.18532861611E+02 -0.57629642936E+02 -0.27304048847E+03  0.27970202618E+03  0.41800000000E+01 0.  1.
         -5    1    3    3    0  502 -0.11159624129E+03 -0.69116000666E+01 -0.17609730940E+03  0.20863658850E+03  0.41800000000E+01 0.  1.
        -11    1    1    2    0    0  0.58684114679E+02  0.30914504928E+02 -0.29102510053E+02  0.72432644726E+02  0.00000000000E+00 0.  1.
         11    1    1    2    0    0  0.71444988222E+02  0.33626738075E+02  0.66501688616E+02  0.10323574209E+03  0.00000000000E+00 0. -1.
</event>
<event>
 7    1  0.2840156E-009  0.1033262E+03  0.7561462E-02  0.1273453E+00
          2   -1    0    0  501    0  0.00000000000E+00  0.00000000000E+00  0.88180335078E+03  0.88180335078E+03  0.00000000000E+00 0. -1.
         -2   -1    0    0    0  501 -0.00000000000E+00 -0.00000000000E+00 -0.14958711402E+02  0.14958711402E+02  0.00000000000E+00 0.  1.
         25    2    1    2    0    0 -0.15245305959E+02  0.88996257082E+01  0.59292901754E+03  0.60623817061E+03  0.12509307324E+03 0.  0.
          5    1    3    3  502    0 -0.66467495239E+02 -0.14258252476E+02  0.37514355798E+03  0.38127599870E+03  0.41800000000E+01 0.  1.
         -5    1    3    3    0  502  0.51222189280E+02  0.23157878184E+02  0.21778545955E+03  0.22496217191E+03  0.41800000000E+01 0.  1.
        -11    1    1    2    0    0 -0.26107856466E+02 -0.26529165268E+02  0.51101506054E+02  0.63220097280E+02  0.00000000000E+00 0.  1.
         11    1    1    2    0    0  0.41353162425E+02  0.17629539560E+02  0.22281411578E+03  0.22730379429E+03  0.00000000000E+00 0. -1.
</event>
<event>
 7    1  0.2840156E-009  0.1104976E+03  0.7561462E-02  0.1259651E+00
          2   -1    0    0  501    0  0.00000000000E+00  0.00000000000E+00  0.29278365354E+03  0.29278365354E+03  0.00000000000E+00 0. -1.
         -2   -1    0    0    0  501 -0.00000000000E+00 -0.00000000000E+00 -0.56973736690E+02  0.56973736690E+02  0.00000000000E+00 0.  1.
         25    2    1    2    0    0 -0.32733068724E+02  0.60091281663E+02  0.12149097749E+03  0.18732269596E+03  0.12508924370E+03 0.  0.
          5    1    3    3  502    0 -0.28162879599E+02  0.91981387357E+02  0.12125573778E+03  0.15483588005E+03  0.41800000000E+01 0.  1.
         -5    1    3    3    0  502 -0.45701891253E+01 -0.31890105694E+02  0.23523970897E+00  0.32486815903E+02  0.41800000000E+01 0.  1.
        -11    1    1    2    0    0 -0.14510517476E+02 -0.36783030156E+02  0.34568141858E+01  0.39692518051E+02  0.00000000000E+00 0.  1.
         11    1    1    2    0    0  0.47243586201E+02 -0.23308251507E+02  0.11086212517E+03  0.12274217622E+03  0.00000000000E+00 0. -1.
</event>
<event>
 7    1  0.2840156E-009  0.1927335E+03  0.7561462E-02  0.1156019E+00
          2   -1    0    0  501    0  0.00000000000E+00  0.00000000000E+00  0.35491683547E+03  0.35491683547E+03  0.00000000000E+00 0. -1.
         -2   -1    0    0    0  501 -0.00000000000E+00 -0.00000000000E+00 -0.12412305542E+03  0.12412305542E+03  0.00000000000E+00 0.  1.
         25    2    1    2    0    0 -0.77637469129E+02 -0.14599912703E+03  0.20108080975E+03  0.28883203283E+03  0.12508848640E+03 0.  0.
          5    1    3    3  502    0 -0.66417240008E+02 -0.61842093696E+01  0.70550444812E+02  0.97181952434E+02  0.41800000000E+01 0.  1.
         -5    1    3    3    0  502 -0.11220229122E+02 -0.13981491766E+03  0.13053036494E+03  0.19165008039E+03  0.41800000000E+01 0.  1.
        -11    1    1    2    0    0  0.76362923842E+02  0.74136063701E+02 -0.12002070046E+02  0.10710509682E+03  0.00000000000E+00 0.  1.
         11    1    1    2    0    0  0.12745452872E+01  0.71863063332E+02  0.41715040343E+02  0.83102761254E+02  0.00000000000E+00 0. -1.
</event>
<event>
 7    1  0.2840156E-009  0.1201924E+03  0.7561462E-02  0.1242780E+00
          1   -1    0    0  501    0  0.00000000000E+00  0.00000000000E+00  0.13905223568E+03  0.13905223568E+03  0.00000000000E+00 0. -1.
         -1   -1    0    0    0  501 -0.00000000000E+00 -0.00000000000E+00 -0.12165403961E+03  0.12165403961E+03  0.00000000000E+00 0.  1.
         25    2    1    2    0    0 -0.49641593463E+02  0.40192129435E+02 -0.32070928795E+02  0.14407729359E+03  0.12510006788E+03 0.  0.
          5    1    3    3  502    0 -0.64649910197E+02 -0.26101704778E+02 -0.26551178238E+01  0.69895864910E+02  0.41800000000E+01 0.  1.
         -5    1    3    3    0  502  0.15008316734E+02  0.66293834213E+02 -0.29415810971E+02  0.74181428680E+02  0.41800000000E+01 0.  1.
        -11    1    1    2    0    0 -0.50494977147E+01  0.20282944445E+02  0.22586986274E+02  0.30774457127E+02  0.00000000000E+00 0.  1.
         11    1    1    2    0    0  0.54691091177E+02 -0.60475073880E+02  0.26882138595E+02  0.85854524578E+02  0.00000000000E+00 0. -1.
</event>
<event>
 7    1  0.2840156E-009  0.1929406E+03  0.7561462E-02  0.1155836E+00
         -2   -1    0    0    0  501 -0.00000000000E+00  0.00000000000E+00  0.78677566694E+03  0.78677566694E+03  0.00000000000E+00 0.  1.
          2   -1    0    0  501    0  0.00000000000E+00 -0.00000000000E+00 -0.52191905454E+02  0.52191905454E+02  0.00000000000E+00 0. -1.
         25    2    1    2    0    0 -0.55721346299E+02 -0.15013936365E+03  0.50864877754E+03  0.54773922263E+03  0.12509188687E+03 0.  0.
          5    1    3    3  502    0 -0.95318908028E+02 -0.11443003079E+03  0.35282513575E+03  0.38299213438E+03  0.41800000000E+01 0. -1.
         -5    1    3    3    0  502  0.39597561729E+02 -0.35709332866E+02  0.15582364179E+03  0.16474708826E+03  0.41800000000E+01 0. -1.
        -11    1    1    2    0    0  0.26691094987E+02  0.15199358935E+03  0.18323182660E+03  0.23955869434E+03  0.00000000000E+00 0. -1.
         11    1    1    2    0    0  0.29030251312E+02 -0.18542256961E+01  0.42703157337E+02  0.51669655416E+02  0.00000000000E+00 0.  1.
</event>
<event>
 7    1  0.2840156E-009  0.1091451E+03  0.7561462E-02  0.1262161E+00
          1   -1    0    0  501    0  0.00000000000E+00  0.00000000000E+00  0.34163961247E+02  0.34163961247E+02  0.00000000000E+00 0. -1.
         -1   -1    0    0    0  501 -0.00000000000E+00 -0.00000000000E+00 -0.39232450267E+03  0.39232450267E+03  0.00000000000E+00 0.  1.
         25    2    1    2    0    0 -0.42283372262E+02  0.16366855881E+02 -0.21663484695E+03  0.25423122677E+03  0.12508837760E+03 0.  0.
          5    1    3    3  502    0  0.25171085083E+02  0.50740486107E+02 -0.82720516382E+02  0.10034110167E+03  0.41800000000E+01 0. -1.
         -5    1    3    3    0  502 -0.67454457345E+02 -0.34373630225E+02 -0.13391433057E+03  0.15389012509E+03  0.41800000000E+01 0. -1.
        -11    1    1    2    0    0 -0.11097356332E+02  0.18741793684E+02 -0.62619914414E+01  0.22663156993E+02  0.00000000000E+00 0. -1.
         11    1    1    2    0    0  0.53380728594E+02 -0.35108649565E+02 -0.13526370303E+03  0.14959408015E+03  0.00000000000E+00 0.  1.
</event>
<event>
 7    1  0.2840156E-009  0.9187886E+02  0.7561462E-02  0.1298365E+00
         -4   -1    0    0    0  501 -0.00000000000E+00  0.00000000000E+00  0.46396478617E+02  0.46396478617E+02  0.00000000000E+00 0. -1.
          4   -1    0    0  501    0  0.00000000000E+00 -0.00000000000E+00 -0.36690972550E+03  0.36690972550E+03  0.00000000000E+00 0.  1.
         25    2    1    2    0    0  0.46019954510E+02  0.60125122066E+02 -0.17932228595E+03  0.23138006936E+03  0.12508951890E+03 0.  0.
          5    1    3    3  502    0  0.52725652114E+02  0.74315959744E+02 -0.56088664663E+02  0.10708065636E+03  0.41800000000E+01 0. -1.
         -5    1    3    3    0  502 -0.67056976035E+01 -0.14190837679E+02 -0.12323362129E+03  0.12429941299E+03  0.41800000000E+01 0. -1.
        -11    1    1    2    0    0 -0.17964312854E+02 -0.16263930991E+02  0.66962936280E+01  0.25141048824E+02  0.00000000000E+00 0. -1.
         11    1    1    2    0    0 -0.28055641656E+02 -0.43861191075E+02 -0.14788725456E+03  0.15678508594E+03  0.00000000000E+00 0.  1.
</event>
<event>
 7    1  0.2840156E-009  0.9691483E+02  0.7561462E-02  0.1286921E+00
         -2   -1    0    0    0  501 -0.00000000000E+00  0.00000000000E+00  0.11785767987E+02  0.11785767987E+02  0.00000000000E+00 0.  1.
          2   -1    0    0  501    0  0.00000000000E+00 -0.00000000000E+00 -0.12524211449E+04  0.12524211449E+04  0.00000000000E+00 0. -1.
         25    2    1    2    0    0 -0.34203610335E+02 -0.89164001579E+01 -0.89053686396E+03  0.89997330517E+03  0.12508658918E+03 0.  0.
          5    1    3    3  502    0  0.23655803819E+01  0.47987177400E+02 -0.18477127414E+03  0.19096141315E+03  0.41800000000E+01 0.  1.
         -5    1    3    3    0  502 -0.36569190716E+02 -0.56903577558E+02 -0.70576558983E+03  0.70901189202E+03  0.41800000000E+01 0.  1.
        -11    1    1    2    0    0  0.53312098538E+02  0.18531827175E+02 -0.33029540909E+03  0.33508307288E+03  0.00000000000E+00 0. -1.
         11    1    1    2    0    0 -0.19108488203E+02 -0.96154270169E+01 -0.19803103849E+02  0.29150534818E+02  0.00000000000E+00 0.  1.
</event>
<event>
 7    1  0.2840156E-009  0.2800584E+03  0.7561462E-02  0.1095657E+00
         -2   -1    0    0    0  501 -0.00000000000E+00  0.00000000000E+00  0.38676350485E+02  0.38676350485E+02  0.00000000000E+00 0.  1.
          2   -1    0    0  501    0  0.00000000000E+00 -0.00000000000E+00 -0.20339443121E+04  0.20339443121E+04  0.00000000000E+00 0. -1.
         25    2    1    2    0    0  0.15442900692E+03 -0.20714740523E+03 -0.10479966561E+04  0.10866014473E+04  0.12508936146E+03 0.  0.
          5    1    3    3  502    0  0.16553750140E+03 -0.13532854339E+03 -0.80658007417E+03  0.83444914013E+03  0.41800000000E+01 0.  1.
         -5    1    3    3    0  502 -0.11108494472E+02 -0.71818861841E+02 -0.24141658195E+03  0.25215230716E+03  0.41800000000E+01 0.  1.
        -11    1    1    2    0    0 -0.39813126618E+02  0.12834100104E+03 -0.44527833468E+03  0.46511212942E+03  0.00000000000E+00 0.  1.
         11    1    1    2    0    0 -0.11461588031E+03  0.78806404195E+02 -0.50199297080E+03  0.52090708585E+03  0.00000000000E+00 0. -1.
</event>
<event>
 7    1  0.2840156E-009  0.1478619E+03  0.7561462E-02  0.1203125E+00
          2   -1    0    0  501    0  0.00000000000E+00  0.00000000000E+00  0.44445031819E+03  0.44445031819E+03  0.00000000000E+00 0. -1.
         -2   -1    0    0    0  501 -0.00000000000E+00 -0.00000000000E+00 -0.55520033719E+02  0.55520033719E+02  0.00000000000E+00 0.  1.
         25    2    1    2    0    0  0.10201363057E+03 -0.48497240280E+02  0.20202214317E+03  0.26309780744E+03  0.12509495119E+03 0.  0.
          5    1    3    3  502    0  0.63474134143E+02 -0.90654276906E+02  0.14282870639E+03  0.18073371405E+03  0.41800000000E+01 0.  1.
         -5    1    3    3    0  502  0.38539496423E+02  0.42157036627E+02  0.59193436780E+02  0.82364093387E+02  0.41800000000E+01 0.  1.
        -11    1    1    2    0    0 -0.38359383877E+02  0.51223270702E+02  0.36842651245E+02  0.73842039135E+02  0.00000000000E+00 0.  1.
         11    1    1    2    0    0 -0.63654246689E+02 -0.27260304222E+01  0.15006549006E+03  0.16303050533E+03  0.00000000000E+00 0. -1.
</event>
<event>
 7    1  0.2840156E-009  0.2846543E+03  0.7561462E-02  0.1093174E+00
         -2   -1    0    0    0  501 -0.00000000000E+00  0.00000000000E+00  0.44807727303E+02  0.44807727303E+02  0.00000000000E+00 0.  1.
          2   -1    0    0  501    0  0.00000000000E+00 -0.00000000000E+00 -0.31258180788E+04  0.31258180788E+04  0.00000000000E+00 0. -1.
         25    2    1    2    0    0 -0.26894215849E+03 -0.89226465442E+02 -0.24931646672E+04  0.25123315125E+04  0.12509326169E+03 0.  0.
          5    1    3    3  502    0 -0.33047547669E+02 -0.60935755846E+01 -0.80722893623E+03  0.80793892093E+03  0.41800000000E+01 0. -1.
         -5    1    3    3    0  502 -0.23589461082E+03 -0.83132889857E+02 -0.16859357310E+04  0.17043925915E+04  0.41800000000E+01 0. -1.
        -11    1    1    2    0    0  0.17447075887E+03  0.40986938023E+02 -0.27770145451E+03  0.33051183432E+03  0.00000000000E+00 0.  1.
         11    1    1    2    0    0  0.94471399617E+02  0.48239527419E+02 -0.31014422980E+03  0.32778245931E+03  0.00000000000E+00 0. -1.
</event>
<event>
 7    1  0.2840156E-009  0.1339770E+03  0.7561462E-02  0.1221671E+00
         -1   -1    0    0    0  501 -0.00000000000E+00  0.00000000000E+00  0.54332194764E+02  0.54332194764E+02  0.00000000000E+00 0.  1.
          1   -1    0    0  501    0  0.00000000000E+00 -0.00000000000E+00 -0.38524048058E+03  0.38524048058E+03  0.00000000000E+00 0. -1.
         25    2    1    2    0    0 -0.25938680939E+02  0.88491696807E+02 -0.14464852411E+03  0.21230746885E+03  0.12509064806E+03 0.  0.
          5    1    3    3  502    0  0.15030370249E+02 -0.23463123132E+02 -0.49496257152E+01  0.28607715247E+02  0.41800000000E+01 0. -1.
         -5    1    3    3    0  502 -0.40969051188E+02  0.11195481994E+03 -0.13969889840E+03  0.18369975361E+03  0.41800000000E+01 0. -1.
        -11    1    1    2    0    0  0.11353379148E+02 -0.10077983222E+03 -0.11423566704E+03  0.15275883419E+03  0.00000000000E+00 0. -1.
         11    1    1    2    0    0  0.14585301791E+02  0.12288135414E+02 -0.72024094670E+02  0.74506372300E+02  0.00000000000E+00 0.  1.
</event>
<event>
 7    1  0.2840156E-009  0.3800281E+03  0.7561462E-02  0.1050923E+00
          3   -1    0    0  501    0  0.00000000000E+00  0.00000000000E+00  0.78271276307E+02  0.78271276307E+02  0.00000000000E+00 0. -1.
         -3   -1    0    0    0  501 -0.00000000000E+00 -0.00000000000E+00 -0.21330186233E+04  0.21330186233E+04  0.00000000000E+00 0.  1.
         25    2    1    2    0    0  0.27591059521E+02  0.37007439657E+03 -0.13922478374E+04  0.14462776388E+04  0.12509453320E+03 0.  0.
          5    1    3    3  502    0 -0.29657135173E+02  0.45326057367E+02 -0.31604968969E+03  0.32068501041E+03  0.41800000000E+01 0.  1.
         -5    1    3    3    0  502  0.57248194695E+02  0.32474833920E+03 -0.10761981477E+04  0.11255926284E+04  0.41800000000E+01 0.  1.
        -11    1    1    2    0    0  0.19197709306E+02 -0.94824912819E+02 -0.23814608043E+03  0.25704838408E+03  0.00000000000E+00 0. -1.
         11    1    1    2    0    0 -0.46788768827E+02 -0.27524948375E+03 -0.42435342912E+03  0.50796387666E+03  0.00000000000E+00 0.  1.
</event>
<event>
 7    1  0.2840156E-009  0.9830858E+02  0.7561462E-02  0.1283894E+00
          2   -1    0    0  501    0  0.00000000000E+00  0.00000000000E+00  0.14481651685E+03  0.14481651685E+03  0.00000000000E+00 0. -1.
         -2   -1    0    0    0  501 -0.00000000000E+00 -0.00000000000E+00 -0.16703985989E+03  0.16703985989E+03  0.00000000000E+00 0.  1.
         25    2    1    2    0    0  0.38678406243E+02  0.29592401025E+02  0.87991897593E+02  0.16050372881E+03  0.12508854309E+03 0.  0.
          5    1    3    3  502    0  0.64196202019E+02 -0.27748201351E+02  0.35315362172E+02  0.78458665788E+02  0.41800000000E+01 0.  1.
         -5    1    3    3    0  502 -0.25517795776E+02  0.57340602376E+02  0.52676535421E+02  0.82045063020E+02  0.41800000000E+01 0. -1.
        -11    1    1    2    0    0 -0.18085342973E+02  0.87812218417E+01 -0.10567058844E+03  0.10756608549E+03  0.00000000000E+00 0.  1.
         11    1    1    2    0    0 -0.20593063271E+02 -0.38373622867E+02 -0.45446522002E+01  0.43786562441E+02  0.00000000000E+00 0. -1.
</event>
<event>
 7    1  0.2840156E-009  0.1407461E+03  0.7561462E-02  0.1212329E+00
          1   -1    0    0  501    0  0.00000000000E+00  0.00000000000E+00  0.80912081627E+02  0.80912081627E+02  0.00000000000E+00 0. -1.
         -1   -1    0    0    0  501 -0.00000000000E+00 -0.00000000000E+00 -0.33877434654E+03  0.33877434654E+03  0.00000000000E+00 0.  1.
         25    2    1    2    0    0  0.39529641865E+02 -0.98886668366E+02 -0.88011228051E+02  0.18637263224E+03  0.12509043137E+03 0.  0.
          5    1    3    3  502    0 -0.28004973941E+01 -0.95362795969E+02 -0.10363234448E+03  0.14092210920E+03  0.41800000000E+01 0. -1.
         -5    1    3    3    0  502  0.42330139259E+02 -0.35238723977E+01  0.15621116425E+02  0.45450523041E+02  0.41800000000E+01 0. -1.
        -11    1    1    2    0    0 -0.39450369450E+02 -0.46990036578E+01 -0.10205214503E+03  0.10951279647E+03  0.00000000000E+00 0.  1.
         11    1    1    2    0    0 -0.79272414627E-01  0.10358567202E+03 -0.67798891836E+02  0.12380099946E+03  0.00000000000E+00 0. -1.
</event>
<event>
 7    1  0.2840156E-009  0.6790446E+02  0.7561462E-02  0.1367368E+00
          2   -1    0    0  501    0  0.00000000000E+00  0.00000000000E+00  0.68024034312E+03  0.68024034312E+03  0.00000000000E+00 0. -1.
         -2   -1    0    0    0  501 -0.00000000000E+00 -0.00000000000E+00 -0.16678598874E+02  0.16678598874E+02  0.00000000000E+00 0.  1.
         25    2    1    2    0    0  0.53410114838E+01  0.59880391104E+01  0.41214660699E+03  0.43078617777E+03  0.12509005673E+03 0.  0.
          5    1    3    3  502    0 -0.17195756330E+02  0.17294232086E+02  0.40282064879E+03  0.40357989542E+03  0.41800000000E+01 0. -1.
         -5    1    3    3    0  502  0.22536767814E+02 -0.11306192976E+02  0.93259582030E+01  0.27206282353E+02  0.41800000000E+01 0. -1.
        -11    1    1    2    0    0  0.38469361829E+02  0.84358541932E+01  0.89622180023E+02  0.97893771955E+02  0.00000000000E+00 0. -1.
         11    1    1    2    0    0 -0.43810373313E+02 -0.14423893304E+02  0.16179295723E+03  0.16823899226E+03  0.00000000000E+00 0.  1.
</event>
<event>
 7    1  0.2840156E-009  0.1085731E+03  0.7561462E-02  0.1263235E+00
          2   -1    0    0  501    0  0.00000000000E+00  0.00000000000E+00  0.16848325744E+03  0.16848325744E+03  0.00000000000E+00 0. -1.
         -2   -1    0    0    0  501 -0.00000000000E+00 -0.00000000000E+00 -0.85905910957E+02  0.85905910957E+02  0.00000000000E+00 0.  1.
         25    2    1    2    0    0 -0.46670104347E+02  0.27396597981E+02  0.56667897618E+02  0.14759534280E+03  0.12507782527E+03 0.  0.
          5    1    3    3  502    0 -0.40400422077E+02  0.76267897964E+02  0.30383448598E+02  0.91594829071E+02  0.41800000000E+01 0.  1.
         -5    1    3    3    0  502 -0.62696822700E+01 -0.48871299983E+02  0.26284449020E+02  0.56000513730E+02  0.41800000000E+01 0.  1.
        -11    1    1    2    0    0 -0.14450217765E+02 -0.10542410180E+02  0.38228751370E+02  0.42206499940E+02  0.00000000000E+00 0. -1.
         11    1    1    2    0    0  0.61120322112E+02 -0.16854187801E+02 -0.12319302502E+02  0.64587325658E+02  0.00000000000E+00 0.  1.
</event>
<event>
 7    1  0.2840156E-009  0.7361798E+02  0.7561462E-02  0.1348205E+00
          2   -1    0    0  501    0  0.00000000000E+00  0.00000000000E+00  0.57652265576E+03  0.57652265576E+03  0.00000000000E+00 0. -1.
         -2   -1    0    0    0  501 -0.00000000000E+00 -0.00000000000E+00 -0.35572590436E+02  0.35572590436E+02  0.00000000000E+00 0.  1.
         25    2    1    2    0    0  0.30691893725E+02  0.21732112094E+02  0.47310695136E+03  0.49080627745E+03  0.12508532099E+03 0.  0.
          5    1    3    3  502    0  0.39278034000E+02  0.10047789510E+02  0.38915119735E+02  0.56352293414E+02  0.41800000000E+01 0.  1.
         -5    1    3    3    0  502 -0.85861402754E+01  0.11684322583E+02  0.43419183162E+03  0.43445398404E+03  0.41800000000E+01 0.  1.
        -11    1    1    2    0    0 -0.56453641446E+02 -0.30511341163E+02  0.68765667855E+02  0.94056752270E+02  0.00000000000E+00 0. -1.
         11    1    1    2    0    0  0.25761747721E+02  0.87792290695E+01 -0.92255388326E+00  0.27232216479E+02  0.00000000000E+00 0.  1.
</event>
<event>
 7    1  0.2840156E-009  0.1712005E+03  0.7561462E-02  0.1176602E+00
         -1   -1    0    0    0  501 -0.00000000000E+00  0.00000000000E+00  0.10595186881E+04  0.10595186881E+04  0.00000000000E+00 0.  1.
          1   -1    0    0  501    0  0.00000000000E+00 -0.00000000000E+00 -0.30729117635E+02  0.30729117635E+02  0.00000000000E+00 0. -1.
         25    2    1    2    0    0 -0.13421109134E+03  0.22908262695E+02  0.41122014903E+03  0.45087590293E+03  0.12509861443E+03 0.  0.
          5    1    3    3  502    0 -0.43986183272E+02 -0.50702721132E+02  0.12722173927E+03  0.14390411249E+03  0.41800000000E+01 0. -1.
         -5    1    3    3    0  502 -0.90224908070E+02  0.73610983827E+02  0.28399840977E+03  0.30697179044E+03  0.41800000000E+01 0. -1.
        -11    1    1    2    0    0  0.10709674530E+03  0.18945892754E+02  0.49948746358E+03  0.51119114427E+03  0.00000000000E+00 0.  1.
         11    1    1    2    0    0  0.27114346043E+02 -0.41854155449E+02  0.11808195789E+03  0.12818075858E+03  0.00000000000E+00 0. -1.
</event>
<event>
 7    1  0.6016812E-009  0.1145323E+03  0.7561462E-02  0.1252400E+00
          1   -1    0    0  501    0  0.00000000000E+00  0.00000000000E+00  0.68688448747E+03  0.68688448747E+03  0.00000000000E+00 0. -1.
         -1   -1    0    0    0  501 -0.00000000000E+00 -0.00000000000E+00 -0.24846892065E+02  0.24846892065E+02  0.00000000000E+00 0.  1.
         25    2    1    2    0    0  0.45847757169E+02 -0.42694667930E+02  0.46536085283E+03  0.48593651313E+03  0.12509484378E+03 0.  0.
          5    1    3    3  502    0  0.66086217303E+02  0.12724479548E+02  0.14182352670E+03  0.15703721095E+03  0.41800000000E+01 0. -1.
         -5    1    3    3    0  502 -0.20238460135E+02 -0.55419147478E+02  0.32353732613E+03  0.32889930218E+03  0.41800000000E+01 0. -1.
        -11    1    1    2    0    0 -0.44063627659E+02 -0.13638923327E+02  0.13292742177E+03  0.14070296006E+03  0.00000000000E+00 0.  1.
         11    1    1    2    0    0 -0.17841295094E+01  0.56333591256E+02  0.63749320807E+02  0.85091906344E+02  0.00000000000E+00 0. -1.
</event>
<event>
 7    1  0.2840156E-009  0.1008761E+03  0.7561462E-02  0.1278464E+00
         -2   -1    0    0    0  501 -0.00000000000E+00  0.00000000000E+00  0.61381689755E+02  0.61381689755E+02  0.00000000000E+00 0.  1.
          2   -1    0    0  501    0  0.00000000000E+00 -0.00000000000E+00 -0.34065421943E+03  0.34065421943E+03  0.00000000000E+00 0. -1.
         25    2    1    2    0    0 -0.73924637429E+02  0.20352534347E+02 -0.72057624247E+02  0.16345834621E+03  0.12508897658E+03 0.  0.
          5    1    3    3  502    0 -0.90152363545E+02  0.76773766504E+01 -0.95742357717E+02  0.13179704938E+03  0.41800000000E+01 0. -1.
         -5    1    3    3    0  502  0.16227726116E+02  0.12675157697E+02  0.23684733470E+02  0.31661296832E+02  0.41800000000E+01 0. -1.
        -11    1    1    2    0    0  0.25649985892E+02 -0.31498499792E+02 -0.20693880227E+02  0.45588528648E+02  0.00000000000E+00 0.  1.
         11    1    1    2    0    0  0.48274651537E+02  0.11145965445E+02 -0.18652102520E+03  0.19298903432E+03  0.00000000000E+00 0. -1.
</event>
<event>
 7    1  0.2840156E-009  0.1273522E+03  0.7561462E-02  0.1231438E+00
         -2   -1    0    0    0  501 -0.00000000000E+00  0.00000000000E+00  0.14976785140E+02  0.14976785140E+02  0.00000000000E+00 0.  1.
          2   -1    0    0  501    0  0.00000000000E+00 -0.00000000000E+00 -0.12459015886E+04  0.12459015886E+04  0.00000000000E+00 0. -1.
         25    2    1    2    0    0  0.43053554544E+02  0.62850206642E+02 -0.79049137363E+03  0.80394592462E+03  0.12509468772E+03 0.  0.
          5    1    3    3  502    0  0.68264973134E+02  0.32991393703E+01 -0.23759128935E+03  0.24726116568E+03  0.41800000000E+01 0.  1.
         -5    1    3    3    0  502 -0.25211418590E+02  0.59551067272E+02 -0.55290008428E+03  0.55668475894E+03  0.41800000000E+01 0.  1.
        -11    1    1    2    0    0  0.25432433292E+02 -0.43284507731E+02 -0.16784915495E+03  0.17519616460E+03  0.00000000000E+00 0.  1.
         11    1    1    2    0    0 -0.68485987836E+02 -0.19565698911E+02 -0.27258427485E+03  0.28173628450E+03  0.00000000000E+00 0. -1.
</event>
<event>
 7    1  0.2840156E-009  0.1048545E+03  0.7561462E-02  0.1270407E+00
         -1   -1    0    0    0  501 -0.00000000000E+00  0.00000000000E+00  0.30523628796E+02  0.30523628796E+02  0.00000000000E+00 0.  1.
          1   -1    0    0  501    0  0.00000000000E+00 -0.00000000000E+00 -0.49394811784E+03  0.49394811784E+03  0.00000000000E+00 0. -1.
         25    2    1    2    0    0 -0.57255951192E+02  0.11997321880E+02 -0.25973295209E+03  0.29416084681E+03  0.12508883931E+03 0.  0.
          5    1    3    3  502    0 -0.38457118014E+02 -0.40042594320E+02 -0.21726576646E+03  0.22428607839E+03  0.41800000000E+01 0. -1.
         -5    1    3    3    0  502 -0.18798833178E+02  0.52039916200E+02 -0.42467185630E+02  0.69874768424E+02  0.41800000000E+01 0. -1.
        -11    1    1    2    0    0 -0.20145301007E+02  0.43787150087E+00 -0.12602688275E+02  0.23766628618E+02  0.00000000000E+00 0.  1.
         11    1    1    2    0    0  0.77401252199E+02 -0.12435193381E+02 -0.19108884869E+03  0.20654427121E+03  0.00000000000E+00 0. -1.
</event>
<event>
 7    1  0.2840156E-009  0.1202697E+03  0.7561462E-02  0.1242653E+00
         -2   -1    0    0    0  501 -0.00000000000E+00  0.00000000000E+00  0.88812672259E+02  0.88812672259E+02  0.00000000000E+00 0.  1.
          2   -1    0    0  501    0  0.00000000000E+00 -0.00000000000E+00 -0.24775585699E+03  0.24775585699E+03  0.00000000000E+00 0. -1.
         25    2    1    2    0    0  0.56117040184E+02 -0.53717459437E+02 -0.13974602872E+02  0.14791098325E+03  0.12509069428E+03 0.  0.
          5    1    3    3  502    0  0.28156085865E+02  0.26668816532E+02  0.32569036636E+02  0.50815406068E+02  0.41800000000E+01 0. -1.
         -5    1    3    3    0  502  0.27960954319E+02 -0.80386275969E+02 -0.46543639508E+02  0.97095577186E+02  0.41800000000E+01 0. -1.
        -11    1    1    2    0    0 -0.32391505560E+02 -0.20546746737E+02 -0.73438761774E+02  0.82853063702E+02  0.00000000000E+00 0.  1.
         11    1    1    2    0    0 -0.23725534623E+02  0.74264206174E+02 -0.71529820084E+02  0.10580448229E+03  0.00000000000E+00 0. -1.
</event>
<event>
 7    1  0.2840156E-009  0.1906276E+03  0.7561462E-02  0.1157896E+00
         -1   -1    0    0    0  501 -0.00000000000E+00  0.00000000000E+00  0.11828984849E+03  0.11828984849E+03  0.00000000000E+00 0.  1.
          1   -1    0    0  501    0  0.00000000000E+00 -0.00000000000E+00 -0.39595667817E+03  0.39595667817E+03  0.00000000000E+00 0. -1.
         25    2    1    2    0    0  0.16534778670E+03 -0.23797977654E+02 -0.43426392675E+02  0.21317047417E+03  0.12509822208E+03 0.  0.
          5    1    3    3  502    0  0.17305174161E+03  0.42240444295E+01 -0.17561823761E+02  0.17404205779E+03  0.41800000000E+01 0.  1.
         -5    1    3    3    0  502 -0.77039549102E+01 -0.28022022083E+02 -0.25864568915E+02  0.39128416375E+02  0.41800000000E+01 0.  1.
        -11    1    1    2    0    0 -0.93173768901E+02 -0.18632253847E+02 -0.17289500417E+03  0.19728455227E+03  0.00000000000E+00 0.  1.
         11    1    1    2    0    0 -0.72174017802E+02  0.42430231501E+02 -0.61345432831E+02  0.10379150023E+03  0.00000000000E+00 0. -1.
</event>
<event>
 7    1  0.2840156E-009  0.2210962E+03  0.7561462E-02  0.1133068E+00
         -3   -1    0    0    0  501 -0.00000000000E+00  0.00000000000E+00  0.69714282562E+03  0.69714282562E+03  0.00000000000E+00 0.  1.
          3   -1    0    0  501    0  0.00000000000E+00 -0.00000000000E+00 -0.83005277391E+02  0.83005277391E+02  0.00000000000E+00 0. -1.
         25    2    1    2    0    0 -0.92982670277E+02 -0.19293950415E+03  0.30486125701E+03  0.39300922883E+03  0.12507773058E+03 0.  0.
          5    1    3    3  502    0 -0.33044589075E+02 -0.14249691800E+03  0.27011508598E+03  0.30720831464E+03  0.41800000000E+01 0. -1.
         -5    1    3    3    0  502 -0.59938081202E+02 -0.50442586148E+02  0.34746171028E+02  0.85800914195E+02  0.41800000000E+01 0. -1.
        -11    1    1    2    0    0  0.20867931496E+01  0.35861993288E+02  0.10260690893E+02  0.37359323412E+02  0.00000000000E+00 0. -1.
         11    1    1    2    0    0  0.90895877127E+02  0.15707751086E+03  0.29901560033E+03  0.34977955077E+03  0.00000000000E+00 0.  1.
</event>
<event>
 7    1  0.2840156E-009  0.1264041E+03  0.7561462E-02  0.1232891E+00
          2   -1    0    0  501    0  0.00000000000E+00  0.00000000000E+00  0.11725791893E+04  0.11725791893E+04  0.00000000000E+00 0. -1.
         -2   -1    0    0    0  501 -0.00000000000E+00 -0.00000000000E+00 -0.20130379327E+02  0.20130379327E+02  0.00000000000E+00 0.  1.
         25    2    1    2    0    0  0.65479791622E+02 -0.76125060585E+02  0.74648263691E+03  0.76352352769E+03  0.12509685114E+03 0.  0.
          5    1    3    3  502    0 -0.17799616175E+02 -0.60075060512E+02  0.17839288307E+03  0.18912253266E+03  0.41800000000E+01 0.  1.
         -5    1    3    3    0  502  0.83279407797E+02 -0.16050000073E+02  0.56808975385E+03  0.57440099503E+03  0.41800000000E+01 0.  1.
        -11    1    1    2    0    0 -0.29929543044E+02  0.57830118452E+02  0.36910660437E+03  0.37480633070E+03  0.00000000000E+00 0. -1.
         11    1    1    2    0    0 -0.35550248578E+02  0.18294942133E+02  0.36859568710E+02  0.54379710252E+02  0.00000000000E+00 0.  1.
</event>
<event>
 7    1  0.2840156E-009  0.2029714E+03  0.7561462E-02  0.1147256E+00
         -2   -1    0    0    0  501 -0.00000000000E+00  0.00000000000E+00  0.46601513651E+02  0.46601513651E+02  0.00000000000E+00 0.  1.
          2   -1    0    0  501    0  0.00000000000E+00 -0.00000000000E+00 -0.11637022970E+04  0.11637022970E+04  0.00000000000E+00 0. -1.
         25    2    1    2    0    0  0.19496863937E+03  0.38650451359E+02 -0.44202099546E+03  0.50053701489E+03  0.12509242633E+03 0.  0.
          5    1    3    3  502    0  0.62551690602E+02 -0.95605308163E+01 -0.27381166832E+03  0.28105945964E+03  0.41800000000E+01 0. -1.
         -5    1    3    3    0  502  0.13241694876E+03  0.48210982176E+02 -0.16820932714E+03  0.21947755525E+03  0.41800000000E+01 0. -1.
        -11    1    1    2    0    0 -0.18664830690E+03 -0.29141899219E+02 -0.67004445478E+03  0.69616550628E+03  0.00000000000E+00 0. -1.
         11    1    1    2    0    0 -0.83203324699E+01 -0.95085521406E+01 -0.50353331326E+01  0.13601289497E+02  0.00000000000E+00 0.  1.
</event>
<event>
 7    1  0.2840156E-009  0.9042414E+02  0.7561462E-02  0.1301828E+00
          2   -1    0    0  501    0  0.00000000000E+00  0.00000000000E+00  0.43915390831E+03  0.43915390831E+03  0.00000000000E+00 0.  1.
         -2   -1    0    0    0  501 -0.00000000000E+00 -0.00000000000E+00 -0.34528667537E+02  0.34528667537E+02  0.00000000000E+00 0. -1.
         25    2    1    2    0    0  0.53385638873E+02 -0.12007185567E+02  0.27800938111E+03  0.30972677934E+03  0.12508901995E+03 0.  0.
          5    1    3    3  502    0  0.54630476557E+02 -0.31805310629E+02  0.49704983745E+02  0.80524062007E+02  0.41800000000E+01 0. -1.
         -5    1    3    3    0  502 -0.12448376841E+01  0.19798125062E+02  0.22830439736E+03  0.22920271733E+03  0.41800000000E+01 0. -1.
        -11    1    1    2    0    0  0.14097181441E+02 -0.18421859332E+02  0.87918093992E+01  0.24807082423E+02  0.00000000000E+00 0. -1.
         11    1    1    2    0    0 -0.67482820313E+02  0.30429044899E+02  0.11782405027E+03  0.13914871409E+03  0.00000000000E+00 0.  1.
</event>
<event>
 7    1  0.2840156E-009  0.1002191E+03  0.7561462E-02  0.1279836E+00
          2   -1    0    0  501    0  0.00000000000E+00  0.00000000000E+00  0.39279589239E+03  0.39279589239E+03  0.00000000000E+00 0. -1.
         -2   -1    0    0    0  501 -0.00000000000E+00 -0.00000000000E+00 -0.37734712283E+02  0.37734712283E+02  0.00000000000E+00 0.  1.
         25    2    1    2    0    0 -0.30516789961E+02  0.11049430769E+02  0.26264353094E+03  0.29271539123E+03  0.12508921428E+03 0.  0.
          5    1    3    3  502    0  0.23096963012E+00 -0.46598809059E+02  0.43081104617E+02  0.63599971129E+02  0.41800000000E+01 0. -1.
         -5    1    3    3    0  502 -0.30747759591E+02  0.57648239828E+02  0.21956242632E+03  0.22911542010E+03  0.41800000000E+01 0. -1.
        -11    1    1    2    0    0  0.59000223773E+02 -0.70638573927E+01  0.24901320498E+02  0.64428256605E+02  0.00000000000E+00 0.  1.
         11    1    1    2    0    0 -0.28483433812E+02 -0.39855733765E+01  0.67516328667E+02  0.73386956835E+02  0.00000000000E+00 0. -1.
</event>
<event>
 7    1  0.2840156E-009  0.1423443E+03  0.7561462E-02  0.1210209E+00
         -2   -1    0    0    0  501 -0.00000000000E+00  0.00000000000E+00  0.14590511242E+02  0.14590511242E+02  0.00000000000E+00 0.  1.
          2   -1    0    0  501    0  0.00000000000E+00 -0.00000000000E+00 -0.23990583461E+04  0.23990583461E+04  0.00000000000E+00 0. -1.
         25    2    1    2    0    0  0.20267146332E+02 -0.12892170738E+03 -0.17577852589E+04  0.17670565381E+04  0.12509288031E+03 0.  0.
          5    1    3    3  502    0 -0.19986139450E+02 -0.95209713542E+02 -0.58180759056E+03  0.58989988994E+03  0.41800000000E+01 0.  1.
         -5    1    3    3    0  502  0.40253285783E+02 -0.33711993836E+02 -0.11759776683E+04  0.11771566482E+04  0.41800000000E+01 0.  1.
        -11    1    1    2    0    0  0.87970842909E+01  0.18907776363E+02 -0.18564765508E+02  0.27920301169E+02  0.00000000000E+00 0.  1.
         11    1    1    2    0    0 -0.29064230623E+02  0.11001393101E+03 -0.60811781050E+03  0.61867201809E+03  0.00000000000E+00 0. -1.
</event>
<event>
 7    1  0.2840156E-009  0.8927723E+02  0.7561462E-02  0.1304611E+00
          2   -1    0    0  501    0  0.00000000000E+00  0.00000000000E+00  0.15044489283E+03  0.15044489283E+03  0.00000000000E+00 0. -1.
         -2   -1    0    0    0  501 -0.00000000000E+00 -0.00000000000E+00 -0.11622294405E+03  0.11622294405E+03  0.00000000000E+00 0.  1.
         25    2    1    2    0    0 -0.60174689031E+02 -0.26301479004E+02  0.57370486600E+02  0.15248367018E+03  0.12508851243E+03 0.  0.
          5    1    3    3  502    0  0.22716599170E+02  0.40809754561E+00  0.60991501229E+02  0.65219981935E+02  0.41800000000E+01 0. -1.
         -5    1    3    3    0  502 -0.82891288200E+02 -0.26709576549E+02 -0.36210146292E+01  0.87263688244E+02  0.41800000000E+01 0. -1.
        -11    1    1    2    0    0  0.27244384411E+02  0.22072642315E+02 -0.56902616333E+02  0.66838355502E+02  0.00000000000E+00 0.  1.
         11    1    1    2    0    0  0.32930304619E+02  0.42288366884E+01  0.33754078507E+02  0.47345811197E+02  0.00000000000E+00 0. -1.
</event>
<event>
 7    1  0.2840156E-009  0.9242776E+02  0.7561462E-02  0.1297077E+00
          2   -1    0    0  501    0  0.00000000000E+00  0.00000000000E+00  0.31950709469E+02  0.31950709469E+02  0.00000000000E+00 0.  1.
         -2   -1    0    0    0  501 -0.00000000000E+00 -0.00000000000E+00 -0.45002940252E+03  0.45002940252E+03  0.00000000000E+00 0. -1.
         25    2    1    2    0    0 -0.56713848234E+00  0.39226957346E+02 -0.30714973035E+03  0.33396021793E+03  0.12509753986E+03 0.  0.
          5    1    3    3  502    0  0.13827766087E+01  0.68361721181E+02 -0.29362449535E+03  0.30150962450E+03  0.41800000000E+01 0. -1.
         -5    1    3    3    0  502 -0.19499150910E+01 -0.29134763835E+02 -0.13525234999E+02  0.32450593437E+02  0.41800000000E+01 0. -1.
        -11    1    1    2    0    0 -0.25636206939E+02 -0.51795644754E+02 -0.10265182055E+03  0.11780237766E+03  0.00000000000E+00 0. -1.
         11    1    1    2    0    0  0.26203345421E+02  0.12568687408E+02 -0.82771421491E+01  0.30217516386E+02  0.00000000000E+00 0.  1.
</event>
<event>
 7    1  0.2840156E-009  0.1095579E+03  0.7561462E-02  0.1261391E+00
         -2   -1    0    0    0  501 -0.00000000000E+00  0.00000000000E+00  0.37129784724E+03  0.37129784724E+03  0.00000000000E+00 0. -1.
          2   -1    0    0  501    0  0.00000000000E+00 -0.00000000000E+00 -0.32548541459E+02  0.32548541459E+02  0.00000000000E+00 0.  1.
         25    2    1    2    0    0  0.28073653226E+02  0.18205645333E+02  0.19635023879E+03  0.23520196883E+03  0.12508786648E+03 0.  0.
          5    1    3    3  502    0  0.21909458243E+02 -0.53143507885E+02  0.92406224657E+02  0.10890656338E+03  0.41800000000E+01 0.  1.
         -5    1    3    3    0  502  0.61641949832E+01  0.71349153219E+02  0.10394401414E+03  0.12629540546E+03  0.41800000000E+01 0.  1.
        -11    1    1    2    0    0  0.29719595603E+02 -0.23322160205E+01  0.38419797255E+02  0.48628946271E+02  0.00000000000E+00 0.  1.
         11    1    1    2    0    0 -0.57793248829E+02 -0.15873429313E+02  0.10397926974E+03  0.12001547360E+03  0.00000000000E+00 0. -1.
</event>
<event>
 7    1  0.2840156E-009  0.1083335E+03  0.7561462E-02  0.1263687E+00
         -2   -1    0    0    0  501 -0.00000000000E+00  0.00000000000E+00  0.14298696210E+02  0.14298696210E+02  0.00000000000E+00 0.  1.
          2   -1    0    0  501    0  0.00000000000E+00 -0.00000000000E+00 -0.87318622029E+03  0.87318622029E+03  0.00000000000E+00 0. -1.
         25    2    1    2    0    0  0.36697810033E+02 -0.90683748391E+01 -0.52756393817E+03  0.54350512923E+03  0.12508058188E+03 0.  0.
          5    1    3    3  502    0  0.12532254756E+02 -0.63657863152E+02 -0.35381220524E+03  0.35973591693E+03  0.41800000000E+01 0.  1.
         -5    1    3    3    0  502  0.24165555277E+02  0.54589488313E+02 -0.17375173293E+03  0.18376921230E+03  0.41800000000E+01 0.  1.
        -11    1    1    2    0    0  0.10871565091E+02 -0.28942363704E+02 -0.93192252082E+02  0.98186797445E+02  0.00000000000E+00 0.  1.
         11    1    1    2    0    0 -0.47569375124E+02  0.38010738543E+02 -0.23813133383E+03  0.24579298982E+03  0.00000000000E+00 0. -1.
</event>
<event>
 7    1  0.2840156E-009  0.8777238E+02  0.7561462E-02  0.1308338E+00
          2   -1    0    0  501    0  0.00000000000E+00  0.00000000000E+00  0.27946250131E+03  0.27946250131E+03  0.00000000000E+00 0. -1.
         -2   -1    0    0    0  501 -0.00000000000E+00 -0.00000000000E+00 -0.69897102831E+02  0.69897102831E+02  0.00000000000E+00 0.  1.
         25    2    1    2    0    0 -0.67793734049E+02 -0.48319652474E+02  0.15520662637E+03  0.21602582604E+03  0.12508909408E+03 0.  0.
          5    1    3    3  502    0 -0.15055414573E+02 -0.33052743236E+02 -0.13181583262E+02  0.38863554658E+02  0.41800000000E+01 0. -1.
         -5    1    3    3    0  502 -0.52738319476E+02 -0.15266909238E+02  0.16838820963E+03  0.17716227138E+03  0.41800000000E+01 0. -1.
        -11    1    1    2    0    0  0.38786658188E+02  0.33973183146E+02 -0.17560100836E+02  0.54469616924E+02  0.00000000000E+00 0.  1.
         11    1    1    2    0    0  0.29007075861E+02  0.14346469328E+02  0.71918872944E+02  0.78864161174E+02  0.00000000000E+00 0. -1.
</event>
<event>
 7    1  0.2840156E-009  0.1185202E+03  0.7561462E-02  0.1245558E+00
          1   -1    0    0  501    0  0.00000000000E+00  0.00000000000E+00  0.42437678515E+03  0.42437678515E+03  0.00000000000E+00 0. -1.
         -1   -1    0    0    0  501 -0.00000000000E+00 -0.00000000000E+00 -0.38294816867E+02  0.38294816867E+02  0.00000000000E+00 0.  1.
         25    2    1    2    0    0 -0.36408149107E+02 -0.55292653480E+02  0.20726226268E+03  0.25097391235E+03  0.12508968104E+03 0.  0.
          5    1    3    3  502    0  0.26305530226E+02 -0.54815125342E+02  0.16321493756E+03  0.17422189050E+03  0.41800000000E+01 0. -1.
         -5    1    3    3    0  502 -0.62713679334E+02 -0.47752813787E+00  0.44047325118E+02  0.76752021854E+02  0.41800000000E+01 0. -1.
        -11    1    1    2    0    0 -0.30544817000E+02  0.26197418425E+02  0.60034605825E+02  0.72273400877E+02  0.00000000000E+00 0. -1.
         11    1    1    2    0    0  0.66952966107E+02  0.29095235056E+02  0.11878509978E+03  0.13942428878E+03  0.00000000000E+00 0.  1.
</event>
<event>
 7    1  0.2840156E-009  0.1683565E+03  0.7561462E-02  0.1179573E+00
         -1   -1    0    0    0  501 -0.00000000000E+00  0.00000000000E+00  0.19700353506E+03  0.19700353506E+03  0.00000000000E+00 0.  1.
          1   -1    0    0  501    0  0.00000000000E+00 -0.00000000000E+00 -0.29800255754E+03  0.29800255754E+03  0.00000000000E+00 0. -1.
         25    2    1    2    0    0  0.44850633232E+02 -0.15378031342E+03  0.95485794604E+02  0.22454784338E+03  0.12507690794E+03 0.  0.
          5    1    3    3  502    0  0.54956106725E+02 -0.92921098862E+02  0.11683682659E+03  0.15913145738E+03  0.41800000000E+01 0. -1.
         -5    1    3    3    0  502 -0.10105473493E+02 -0.60859214558E+02 -0.21351031985E+02  0.65416386005E+02  0.41800000000E+01 0. -1.
        -11    1    1    2    0    0 -0.51832430770E+02  0.10023510113E+03 -0.18268133440E+03  0.21472341818E+03  0.00000000000E+00 0. -1.
         11    1    1    2    0    0  0.69817975383E+01  0.53545212294E+02 -0.13803482680E+02  0.55734831036E+02  0.00000000000E+00 0.  1.
</event>
<event>
 7    1  0.2840156E-009  0.1136492E+03  0.7561462E-02  0.1253958E+00
         -4   -1    0    0    0  501 -0.00000000000E+00  0.00000000000E+00  0.21274116208E+03  0.21274116208E+03  0.00000000000E+00 0.  1.
          4   -1    0    0  501    0  0.00000000000E+00 -0.00000000000E+00 -0.78377653035E+02  0.78377653035E+02  0.00000000000E+00 0. -1.
         25    2    1    2    0    0 -0.57105777925E+01  0.61977263281E+02  0.41193197874E+02  0.14566530262E+03  0.12509080292E+03 0.  0.
          5    1    3    3  502    0  0.52786512067E+02  0.82942065462E+01 -0.48038584988E+01  0.53812258593E+02  0.41800000000E+01 0.  1.
         -5    1    3    3    0  502 -0.58497089859E+02  0.53683056735E+02  0.45997056373E+02  0.91853044029E+02  0.41800000000E+01 0.  1.
        -11    1    1    2    0    0 -0.32293615588E+02 -0.34782816820E+02  0.77579511494E+01  0.48092699651E+02  0.00000000000E+00 0. -1.
         11    1    1    2    0    0  0.38004193380E+02 -0.27194446461E+02  0.85412360019E+02  0.97360812840E+02  0.00000000000E+00 0.  1.
</event>
<event>
 7    1  0.2840156E-009  0.1142761E+03  0.7561462E-02  0.1252850E+00
          2   -1    0    0  501    0  0.00000000000E+00  0.00000000000E+00  0.12691041149E+03  0.12691041149E+03  0.00000000000E+00 0.  1.
         -2   -1    0    0    0  501 -0.00000000000E+00 -0.00000000000E+00 -0.14456026328E+03  0.14456026328E+03  0.00000000000E+00 0. -1.
         25    2    1    2    0    0  0.73820687694E+02 -0.31297412554E+02 -0.80874083719E+01  0.14879883544E+03  0.12508663114E+03 0.  0.
          5    1    3    3  502    0  0.76472265141E+01 -0.68900663881E+02 -0.18483412061E+02  0.71867172464E+02  0.41800000000E+01 0.  1.
         -5    1    3    3    0  502  0.66173461180E+02  0.37603251327E+02  0.10396003689E+02  0.76931662972E+02  0.41800000000E+01 0.  1.
        -11    1    1    2    0    0 -0.40791673254E+02  0.59090633326E+01  0.40335231685E+02  0.57669823577E+02  0.00000000000E+00 0.  1.
         11    1    1    2    0    0 -0.33029014441E+02  0.25388349221E+02 -0.49897675100E+02  0.65002015750E+02  0.00000000000E+00 0. -1.
</event>
<event>
 7    1  0.2840156E-009  0.1043905E+03  0.7561462E-02  0.1271325E+00
         -1   -1    0    0    0  501 -0.00000000000E+00  0.00000000000E+00  0.38312905690E+03  0.38312905690E+03  0.00000000000E+00 0.  1.
          1   -1    0    0  501    0  0.00000000000E+00 -0.00000000000E+00 -0.55719521963E+02  0.55719521963E+02  0.00000000000E+00 0. -1.
         25    2    1    2    0    0 -0.66673854975E+02 -0.44881418138E+01  0.70490477834E+02  0.15837561778E+03  0.12509349499E+03 0.  0.
          5    1    3    3  502    0 -0.29516401414E+02  0.60069865557E+02  0.37109374990E+02  0.76643230703E+02  0.41800000000E+01 0.  1.
         -5    1    3    3    0  502 -0.37157453561E+02 -0.64558007371E+02  0.33381102844E+02  0.81732387081E+02  0.41800000000E+01 0.  1.
        -11    1    1    2    0    0  0.47784213439E+02  0.60310674309E+01  0.25704667960E+03  0.26151998073E+03  0.00000000000E+00 0.  1.
         11    1    1    2    0    0  0.18889641536E+02 -0.15429256171E+01 -0.12762249059E+00  0.18952980355E+02  0.00000000000E+00 0. -1.
</event>
<event>
 7    1  0.2840156E-009  0.1039047E+03  0.7561462E-02  0.1272293E+00
          1   -1    0    0  501    0  0.00000000000E+00  0.00000000000E+00  0.25866847498E+03  0.25866847498E+03  0.00000000000E+00 0. -1.
         -1   -1    0    0    0  501 -0.00000000000E+00 -0.00000000000E+00 -0.75854658075E+02  0.75854658075E+02  0.00000000000E+00 0.  1.
         25    2    1    2    0    0 -0.30091042685E+02  0.11417501569E+02  0.19607562468E+03  0.23479587942E+03  0.12509046409E+03 0.  0.
          5    1    3    3  502    0 -0.63059012848E+02 -0.27553361786E+02  0.67893894872E+02  0.96760943608E+02  0.41800000000E+01 0.  1.
         -5    1    3    3    0  502  0.32967970163E+02  0.38970863356E+02  0.12818172981E+03  0.13803493581E+03  0.41800000000E+01 0.  1.
        -11    1    1    2    0    0 -0.27503522854E+02 -0.12110694264E+02 -0.27125668853E+02  0.40483510170E+02  0.00000000000E+00 0. -1.
         11    1    1    2    0    0  0.57594565540E+02  0.69319269491E+00  0.13863861075E+02  0.59243743465E+02  0.00000000000E+00 0.  1.
</event>
<event>
 7    1  0.2840156E-009  0.7948896E+02  0.7561462E-02  0.1330508E+00
          2   -1    0    0  501    0  0.00000000000E+00  0.00000000000E+00  0.54547213518E+03  0.54547213518E+03  0.00000000000E+00 0.  1.
         -2   -1    0    0    0  501 -0.00000000000E+00 -0.00000000000E+00 -0.30227237580E+02  0.30227237580E+02  0.00000000000E+00 0. -1.
         25    2    1    2    0    0 -0.54980630109E+02  0.37851403618E+02  0.24472535151E+03  0.28283822835E+03  0.12510542476E+03 0.  0.
          5    1    3    3  502    0 -0.59214287999E+02  0.44593731486E+02  0.53769923446E+02  0.91671205176E+02  0.41800000000E+01 0. -1.
         -5    1    3    3    0  502  0.42336578904E+01 -0.67423278686E+01  0.19095542806E+03  0.19116702318E+03  0.41800000000E+01 0. -1.
        -11    1    1    2    0    0  0.16973054197E+02  0.57296509334E+01  0.18161193037E+01  0.18005881203E+02  0.00000000000E+00 0. -1.
         11    1    1    2    0    0  0.38007575912E+02 -0.43581054551E+02  0.26870342679E+03  0.27485526320E+03  0.00000000000E+00 0.  1.
</event>
<event>
 7    1  0.2840156E-009  0.6724132E+02  0.7561462E-02  0.1369734E+00
         -2   -1    0    0    0  501 -0.00000000000E+00  0.00000000000E+00  0.77842338393E+03  0.77842338393E+03  0.00000000000E+00 0.  1.
          2   -1    0    0  501    0  0.00000000000E+00 -0.00000000000E+00 -0.16387562117E+02  0.16387562117E+02  0.00000000000E+00 0. -1.
         25    2    1    2    0    0  0.12952510453E+02  0.23629437877E+02  0.42345193185E+03  0.44236251759E+03  0.12508773131E+03 0.  0.
          5    1    3    3  502    0 -0.15208991181E+02  0.17367077968E+01  0.39806579671E+03  0.39838195300E+03  0.41800000000E+01 0.  1.
         -5    1    3    3    0  502  0.28161501634E+02  0.21892730080E+02  0.25386135140E+02  0.43980564594E+02  0.41800000000E+01 0.  1.
        -11    1    1    2    0    0  0.33146524863E+02 -0.93447857902E+01  0.55770063898E+02  0.65546297829E+02  0.00000000000E+00 0. -1.
         11    1    1    2    0    0 -0.46099035316E+02 -0.14284652086E+02  0.28281382607E+03  0.28690213063E+03  0.00000000000E+00 0.  1.
</event>
<event>
 7    1  0.2840156E-009  0.1138329E+03  0.7561462E-02  0.1253632E+00
         -1   -1    0    0    0  501 -0.00000000000E+00  0.00000000000E+00  0.10346821180E+04  0.10346821180E+04  0.00000000000E+00 0.  1.
          1   -1    0    0  501    0  0.00000000000E+00 -0.00000000000E+00 -0.16257942780E+02  0.16257942780E+02  0.00000000000E+00 0. -1.
         25    2    1    2    0    0 -0.34199374002E+02  0.55022477638E+02  0.67472934470E+03  0.68927738623E+03  0.12508619568E+03 0.  0.
          5    1    3    3  502    0  0.22839678729E+02 -0.21895048212E+02  0.32782625476E+03  0.32937603096E+03  0.41800000000E+01 0. -1.
         -5    1    3    3    0  502 -0.57039052731E+02  0.76917525850E+02  0.34690308993E+03  0.35990135527E+03  0.41800000000E+01 0. -1.
        -11    1    1    2    0    0  0.58431231359E+02 -0.32720620236E+02  0.29741476674E+03  0.30486126560E+03  0.00000000000E+00 0.  1.
         11    1    1    2    0    0 -0.24231857357E+02 -0.22301857402E+02  0.46280063760E+02  0.56801408927E+02  0.00000000000E+00 0. -1.
</event>
<event>
 7    1  0.2840156E-009  0.1441483E+03  0.7561462E-02  0.1207854E+00
          3   -1    0    0  501    0  0.00000000000E+00  0.00000000000E+00  0.65334130624E+03  0.65334130624E+03  0.00000000000E+00 0. -1.
         -3   -1    0    0    0  501 -0.00000000000E+00 -0.00000000000E+00 -0.39056988838E+02  0.39056988838E+02  0.00000000000E+00 0.  1.
         25    2    1    2    0    0 -0.82328635255E+02 -0.81750884062E+02  0.29164463469E+03  0.33788349819E+03  0.12508978446E+03 0.  0.
          5    1    3    3  502    0 -0.99354540272E+02 -0.74090335186E+02  0.29353821632E+03  0.31865790321E+03  0.41800000000E+01 0. -1.
         -5    1    3    3    0  502  0.17025905017E+02 -0.76605488757E+01 -0.18935816305E+01  0.19225594974E+02  0.41800000000E+01 0. -1.
        -11    1    1    2    0    0  0.35182979338E+02  0.90595731497E+02  0.18893952859E+03  0.21247017218E+03  0.00000000000E+00 0.  1.
         11    1    1    2    0    0  0.47145655917E+02 -0.88448474349E+01  0.13370015412E+03  0.14204462471E+03  0.00000000000E+00 0. -1.
</event>
<event>
 7    1  0.2840156E-009  0.1086555E+03  0.7561462E-02  0.1263080E+00
         -2   -1    0    0    0  501 -0.00000000000E+00  0.00000000000E+00  0.55910422584E+02  0.55910422584E+02  0.00000000000E+00 0.  1.
          2   -1    0    0  501    0  0.00000000000E+00 -0.00000000000E+00 -0.29331902007E+03  0.29331902007E+03  0.00000000000E+00 0. -1.
         25    2    1    2    0    0 -0.44399130743E+02 -0.35395671221E+02 -0.15968511647E+03  0.21064593544E+03  0.12509291483E+03 0.  0.
          5    1    3    3  502    0 -0.55408651267E+02  0.17509364547E+02 -0.14223835118E+03  0.15370724586E+03  0.41800000000E+01 0.  1.
         -5    1    3    3    0  502  0.11009520523E+02 -0.52905035769E+02 -0.17446765291E+02  0.56938689579E+02  0.41800000000E+01 0.  1.
        -11    1    1    2    0    0  0.42697646868E+02 -0.21586393964E+02 -0.64072038819E+02  0.79964289598E+02  0.00000000000E+00 0. -1.
         11    1    1    2    0    0  0.17014838750E+01  0.56982065185E+02 -0.13651442190E+02  0.58619217617E+02  0.00000000000E+00 0.  1.
</event>
<event>
 7    1  0.3517896E-009  0.2161929E+03  0.7561462E-02  0.1136754E+00
          2   -1    0    0  501    0  0.00000000000E+00  0.00000000000E+00  0.16647976045E+04  0.16647976045E+04  0.00000000000E+00 0. -1.
         -2   -1    0    0    0  501 -0.00000000000E+00 -0.00000000000E+00 -0.31333508203E+02  0.31333508203E+02  0.00000000000E+00 0.  1.
         25    2    1    2    0    0 -0.18425464658E+03  0.64755207661E+02  0.10176290671E+04  0.10437239664E+04  0.12509111910E+03 0.  0.
          5    1    3    3  502    0 -0.26781787381E+02  0.55819314900E+02  0.46124366708E+03  0.46539902543E+03  0.41800000000E+01 0.  1.
         -5    1    3    3    0  502 -0.15747285920E+03  0.89358927608E+01  0.55638540000E+03  0.57832494093E+03  0.41800000000E+01 0.  1.
        -11    1    1    2    0    0  0.10805954371E+03 -0.80497941315E+02  0.33757797315E+03  0.36347719530E+03  0.00000000000E+00 0.  1.
         11    1    1    2    0    0  0.76195102865E+02  0.15742733654E+02  0.27825705610E+03  0.28892995109E+03  0.00000000000E+00 0. -1.
</event>
<event>
 7    1  0.2840156E-009  0.1835437E+03  0.7561462E-02  0.1164417E+00
          2   -1    0    0  501    0  0.00000000000E+00  0.00000000000E+00  0.26754931172E+03  0.26754931172E+03  0.00000000000E+00 0. -1.
         -2   -1    0    0    0  501 -0.00000000000E+00 -0.00000000000E+00 -0.26215825325E+03  0.26215825325E+03  0.00000000000E+00 0.  1.
         25    2    1    2    0    0 -0.16941503968E+03 -0.15760918438E+01 -0.16952248681E+03  0.27035004587E+03  0.12508930424E+03 0.  0.
          5    1    3    3  502    0 -0.93460227808E+02  0.35548211804E+02 -0.15494943975E+03  0.18445945577E+03  0.41800000000E+01 0.  1.
         -5    1    3    3    0  502 -0.75954811868E+02 -0.37124303648E+02 -0.14573047062E+02  0.85890590101E+02  0.41800000000E+01 0.  1.
        -11    1    1    2    0    0  0.12351557012E+03  0.31627256683E+02  0.15566634198E+03  0.20121726927E+03  0.00000000000E+00 0. -1.
         11    1    1    2    0    0  0.45899469560E+02 -0.30051164839E+02  0.19247203299E+02  0.58140249818E+02  0.00000000000E+00 0.  1.
</event>
<event>
 7    1  0.2840156E-009  0.1131676E+03  0.7561462E-02  0.1254814E+00
         -1   -1    0    0    0  501 -0.00000000000E+00  0.00000000000E+00  0.19653706772E+03  0.19653706772E+03  0.00000000000E+00 0.  1.
          1   -1    0    0  501    0  0.00000000000E+00 -0.00000000000E+00 -0.90215864729E+02  0.90215864729E+02  0.00000000000E+00 0. -1.
         25    2    1    2    0    0  0.41541181350E+02  0.31150714244E+01  0.13059451720E+03  0.18557593159E+03  0.12509246598E+03 0.  0.
          5    1    3    3  502    0 -0.53296452133E+01  0.56904989880E+02  0.38650441156E+02  0.69122442035E+02  0.41800000000E+01 0. -1.
         -5    1    3    3    0  502  0.46870826563E+02 -0.53789918455E+02  0.91944076045E+02  0.11645348956E+03  0.41800000000E+01 0. -1.
        -11    1    1    2    0    0 -0.69417113144E+02  0.72643252519E+00 -0.11883226346E+02  0.70430635165E+02  0.00000000000E+00 0.  1.
         11    1    1    2    0    0  0.27875931794E+02 -0.38415039496E+01 -0.12390087865E+02  0.30746365692E+02  0.00000000000E+00 0. -1.
</event>
<event>
 7    1  0.2840156E-009  0.9787027E+02  0.7561462E-02  0.1284839E+00
         -2   -1    0    0    0  501 -0.00000000000E+00  0.00000000000E+00  0.15260729691E+03  0.15260729691E+03  0.00000000000E+00 0.  1.
          2   -1    0    0  501    0  0.00000000000E+00 -0.00000000000E+00 -0.81991421493E+02  0.81991421493E+02  0.00000000000E+00 0. -1.
         25    2    1    2    0    0  0.12770456305E+01  0.22041137506E+02  0.24715435188E+02  0.12939637926E+03  0.12508048465E+03 0.  0.
          5    1    3    3  502    0  0.50761505700E+02  0.65993106046E+01 -0.25291254187E+02  0.57248592120E+02  0.41800000000E+01 0. -1.
         -5    1    3    3    0  502 -0.49484460069E+02  0.15441826901E+02  0.50006689374E+02  0.72147787136E+02  0.41800000000E+01 0. -1.
        -11    1    1    2    0    0 -0.42583610554E+02  0.51926072499E+01  0.99329541340E+01  0.44033971382E+02  0.00000000000E+00 0.  1.
         11    1    1    2    0    0  0.41306564923E+02 -0.27233744756E+02  0.35967486095E+02  0.61168367766E+02  0.00000000000E+00 0. -1.
</event>
<event>
 7    1  0.2840156E-009  0.7223584E+02  0.7561462E-02  0.1352651E+00
         -1   -1    0    0    0  501 -0.00000000000E+00  0.00000000000E+00  0.11332827627E+03  0.11332827627E+03  0.00000000000E+00 0.  1.
          1   -1    0    0  501    0  0.00000000000E+00 -0.00000000000E+00 -0.12514667411E+03  0.12514667411E+03  0.00000000000E+00 0. -1.
         25    2    1    2    0    0 -0.29887398410E+01  0.27308636684E+02 -0.51971913690E+02  0.13820713598E+03  0.12508172697E+03 0.  0.
          5    1    3    3  502    0  0.20518110373E+02  0.28696134611E+02  0.33878019950E+02  0.49088222932E+02  0.41800000000E+01 0.  1.
         -5    1    3    3    0  502 -0.23506850214E+02 -0.13874979266E+01 -0.85849933640E+02  0.89118913052E+02  0.41800000000E+01 0.  1.
        -11    1    1    2    0    0 -0.85128766697E+00 -0.56039392340E+02  0.43694898094E+02  0.71066041848E+02  0.00000000000E+00 0.  1.
         11    1    1    2    0    0  0.38400275080E+01  0.28730755656E+02 -0.35413822451E+01  0.29201772549E+02  0.00000000000E+00 0. -1.
</event>
<event>
 7    1  0.2840156E-009  0.1303170E+03  0.7561462E-02  0.1226986E+00
         -1   -1    0    0    0  501 -0.00000000000E+00  0.00000000000E+00  0.23373130614E+02  0.23373130614E+02  0.00000000000E+00 0.  1.
          1   -1    0    0  501    0  0.00000000000E+00 -0.00000000000E+00 -0.84654944569E+03  0.84654944569E+03  0.00000000000E+00 0. -1.
         25    2    1    2    0    0 -0.85950302322E+02  0.23395838116E+02 -0.46224853621E+03  0.48708945708E+03  0.12509040835E+03 0.  0.
          5    1    3    3  502    0 -0.10627160868E+03  0.31390191903E+02 -0.44592801169E+03  0.45950871914E+03  0.41800000000E+01 0.  1.
         -5    1    3    3    0  502  0.20321306356E+02 -0.79943537873E+01 -0.16320524517E+02  0.27580737935E+02  0.41800000000E+01 0.  1.
        -11    1    1    2    0    0 -0.16604042567E+02  0.10327887494E+02 -0.61848250691E+02  0.64865750617E+02  0.00000000000E+00 0. -1.
         11    1    1    2    0    0  0.10255434489E+03 -0.33723725611E+02 -0.29907952817E+03  0.31796736861E+03  0.00000000000E+00 0.  1.
</event>
<event>
 7    1  0.2840156E-009  0.9310318E+02  0.7561462E-02  0.1295506E+00
          3   -1    0    0  501    0  0.00000000000E+00  0.00000000000E+00  0.14647821284E+02  0.14647821284E+02  0.00000000000E+00 0.  1.
         -3   -1    0    0    0  501 -0.00000000000E+00 -0.00000000000E+00 -0.97542969389E+03  0.97542969389E+03  0.00000000000E+00 0. -1.
         25    2    1    2    0    0 -0.49046746208E+02 -0.37451999612E+01 -0.46550521200E+03  0.48452262535E+03  0.12508981670E+03 0.  0.
          5    1    3    3  502    0 -0.12496126901E+02  0.33258368386E+02 -0.32336061178E+02  0.48222043795E+02  0.41800000000E+01 0. -1.
         -5    1    3    3    0  502 -0.36550619307E+02 -0.37003568347E+02 -0.43316915082E+03  0.43630058156E+03  0.41800000000E+01 0. -1.
        -11    1    1    2    0    0 -0.14508531553E+02  0.26939649690E+02 -0.10161581848E+03  0.10612264969E+03  0.00000000000E+00 0.  1.
         11    1    1    2    0    0  0.63555277762E+02 -0.23194449729E+02 -0.39366084213E+03  0.39943224013E+03  0.00000000000E+00 0. -1.
</event>
<event>
 7    1  0.2840156E-009  0.8388173E+02  0.7561462E-02  0.1318383E+00
         -1   -1    0    0    0  501 -0.00000000000E+00  0.00000000000E+00  0.10912776092E+03  0.10912776092E+03  0.00000000000E+00 0.  1.
          1   -1    0    0  501    0  0.00000000000E+00 -0.00000000000E+00 -0.13707743022E+03  0.13707743022E+03  0.00000000000E+00 0. -1.
         25    2    1    2    0    0 -0.16999295463E+02 -0.29760020581E+02  0.27240593340E+02  0.13252930914E+03  0.12508930004E+03 0.  0.
          5    1    3    3  502    0 -0.48343337458E+02 -0.16392165882E+02 -0.34592171857E+02  0.61805114130E+02  0.41800000000E+01 0. -1.
         -5    1    3    3    0  502  0.31344041995E+02 -0.13367854698E+02  0.61832765196E+02  0.70724195009E+02  0.41800000000E+01 0. -1.
        -11    1    1    2    0    0  0.41278891915E+02  0.38464235648E+02 -0.65007559341E+02  0.86078029213E+02  0.00000000000E+00 0. -1.
         11    1    1    2    0    0 -0.24279596453E+02 -0.87042150672E+01  0.98172967008E+01  0.27597852785E+02  0.00000000000E+00 0.  1.
</event>
<event>
 7    1  0.2840156E-009  0.2386385E+03  0.7561462E-02  0.1120703E+00
          1   -1    0    0  501    0  0.00000000000E+00  0.00000000000E+00  0.49171046508E+03  0.49171046508E+03  0.00000000000E+00 0. -1.
         -1   -1    0    0    0  501 -0.00000000000E+00 -0.00000000000E+00 -0.13863643558E+03  0.13863643558E+03  0.00000000000E+00 0.  1.
         25    2    1    2    0    0 -0.20340556788E+03 -0.89305211537E+02  0.26151015056E+03  0.36521772030E+03  0.12508868263E+03 0.  0.
          5    1    3    3  502    0  0.15803335405E+02 -0.11730509923E+02  0.36158515153E+02  0.41379474273E+02  0.41800000000E+01 0.  1.
         -5    1    3    3    0  502 -0.21920890328E+03 -0.77574701614E+02  0.22535163541E+03  0.32383824603E+03  0.41800000000E+01 0.  1.
        -11    1    1    2    0    0  0.18210946454E+03  0.67793620260E+02  0.30127559767E+02  0.19664053977E+03  0.00000000000E+00 0.  1.
         11    1    1    2    0    0  0.21296103341E+02  0.21511591276E+02  0.61436319172E+02  0.68488640592E+02  0.00000000000E+00 0. -1.
</event>
<event>
 7    1  0.2840156E-009  0.1242084E+03  0.7561462E-02  0.1236312E+00
          4   -1    0    0  501    0  0.00000000000E+00  0.00000000000E+00  0.12608962821E+03  0.12608962821E+03  0.00000000000E+00 0. -1.
         -4   -1    0    0    0  501 -0.00000000000E+00 -0.00000000000E+00 -0.22236220975E+03  0.22236220975E+03  0.00000000000E+00 0.  1.
         25    2    1    2    0    0 -0.51212571719E+02  0.11293241137E+03 -0.22948228765E+02  0.17762227699E+03  0.12508635033E+03 0.  0.
          5    1    3    3  502    0 -0.38789527870E+02  0.84401871020E+02  0.44605823632E+02  0.10312834337E+03  0.41800000000E+01 0. -1.
         -5    1    3    3    0  502 -0.12423043849E+02  0.28530540355E+02 -0.67554052397E+02  0.74493933623E+02  0.41800000000E+01 0. -1.
        -11    1    1    2    0    0  0.16878645130E+02 -0.33940929198E+02 -0.75706459724E+02  0.84666069829E+02  0.00000000000E+00 0.  1.
         11    1    1    2    0    0  0.34333926589E+02 -0.78991482177E+02  0.23821069494E+01  0.86163491138E+02  0.00000000000E+00 0. -1.
</event>
<event>
 7    1  0.2840156E-009  0.1276982E+03  0.7561462E-02  0.1230912E+00
         -2   -1    0    0    0  501 -0.00000000000E+00  0.00000000000E+00  0.52388481833E+02  0.52388481833E+02  0.00000000000E+00 0.  1.
          2   -1    0    0  501    0  0.00000000000E+00 -0.00000000000E+00 -0.52964313529E+03  0.52964313529E+03  0.00000000000E+00 0. -1.
         25    2    1    2    0    0  0.24601782652E+02  0.96715189363E+02 -0.11972075195E+03  0.19984876554E+03  0.12508954823E+03 0.  0.
          5    1    3    3  502    0 -0.18780993750E+02  0.10584834771E+03 -0.11079405593E+03  0.15443248903E+03  0.41800000000E+01 0. -1.
         -5    1    3    3    0  502  0.43382776402E+02 -0.91331583514E+01 -0.89266960235E+01  0.45416276506E+02  0.41800000000E+01 0. -1.
        -11    1    1    2    0    0 -0.30242416881E+02 -0.75523135786E+02 -0.34947502069E+03  0.35881908799E+03  0.00000000000E+00 0. -1.
         11    1    1    2    0    0  0.56406342291E+01 -0.21192053576E+02 -0.80588808146E+01  0.23363763594E+02  0.00000000000E+00 0.  1.
</event>
<event>
 7    1  0.2840156E-009  0.8133634E+02  0.7561462E-02  0.1325301E+00
         -1   -1    0    0    0  501 -0.00000000000E+00  0.00000000000E+00  0.99623758411E+02  0.99623758411E+02  0.00000000000E+00 0.  1.
          1   -1    0    0  501    0  0.00000000000E+00 -0.00000000000E+00 -0.15808280998E+03  0.15808280998E+03  0.00000000000E+00 0. -1.
         25    2    1    2    0    0  0.41777491640E+02  0.55955422126E+01  0.16301140163E+02  0.13300165561E+03  0.12508814622E+03 0.  0.
          5    1    3    3  502    0 -0.33018258946E+02  0.17611901532E+02 -0.26356102734E+02  0.45961952207E+02  0.41800000000E+01 0.  1.
         -5    1    3    3    0  502  0.74795750585E+02 -0.12016359320E+02  0.42657242896E+02  0.87039703403E+02  0.41800000000E+01 0.  1.
        -11    1    1    2    0    0 -0.26886587417E+02  0.89449859034E+01  0.15347433859E+02  0.32224913992E+02  0.00000000000E+00 0.  1.
         11    1    1    2    0    0 -0.14890904222E+02 -0.14540528116E+02 -0.90107625593E+02  0.92479998792E+02  0.00000000000E+00 0. -1.
</event>
<event>
 7    1  0.2840156E-009  0.1992098E+03  0.7561462E-02  0.1150407E+00
         -2   -1    0    0    0  501 -0.00000000000E+00  0.00000000000E+00  0.11868468763E+03  0.11868468763E+03  0.00000000000E+00 0.  1.
          2   -1    0    0  501    0  0.00000000000E+00 -0.00000000000E+00 -0.64147852794E+03  0.64147852794E+03  0.00000000000E+00 0. -1.
         25    2    1    2    0    0  0.93357425324E+02  0.15350109648E+03 -0.21353636229E+02  0.21995900315E+03  0.12509112599E+03 0.  0.
          5    1    3    3  502    0  0.12161032767E+03  0.11700320957E+03 -0.33385887081E+02  0.17207821681E+03  0.41800000000E+01 0. -1.
         -5    1    3    3    0  502 -0.28252902343E+02  0.36497886913E+02  0.12032250852E+02  0.47880786340E+02  0.41800000000E+01 0. -1.
        -11    1    1    2    0    0 -0.91045558618E+00 -0.24732736573E+02 -0.15836212158E+02  0.29382355305E+02  0.00000000000E+00 0.  1.
         11    1    1    2    0    0 -0.92446969738E+02 -0.12876835991E+03 -0.48560399192E+03  0.51082185711E+03  0.00000000000E+00 0. -1.
</event>
<event>
 7    1  0.2840156E-009  0.1249222E+03  0.7561462E-02  0.1235191E+00
         -2   -1    0    0    0  501 -0.00000000000E+00  0.00000000000E+00  0.10117896896E+03  0.10117896896E+03  0.00000000000E+00 0.  1.
          2   -1    0    0  501    0  0.00000000000E+00 -0.00000000000E+00 -0.20531819445E+03  0.20531819445E+03  0.00000000000E+00 0. -1.
         25    2    1    2    0    0 -0.76323720727E+02  0.51037357623E+02 -0.37634198199E+02  0.15966863248E+03  0.12509043570E+03 0.  0.
          5    1    3    3  502    0 -0.77030627068E+02  0.17145857145E+00  0.22915148997E+02  0.80475607224E+02  0.41800000000E+01 0.  1.
         -5    1    3    3    0  502  0.70690634053E+00  0.50865899052E+02 -0.60549347196E+02  0.79193025253E+02  0.41800000000E+01 0.  1.
        -11    1    1    2    0    0  0.62535780363E+02 -0.72752297927E+02 -0.26956307456E+02  0.99650705923E+02  0.00000000000E+00 0.  1.
         11    1    1    2    0    0  0.13787940365E+02  0.21714940304E+02 -0.39548719837E+02  0.47177825009E+02  0.00000000000E+00 0. -1.
</event>
<event>
 7    1  0.2840156E-009  0.1015259E+03  0.7561462E-02  0.1277120E+00
         -1   -1    0    0    0  501 -0.00000000000E+00  0.00000000000E+00  0.94350824010E+02  0.94350824010E+02  0.00000000000E+00 0.  1.
          1   -1    0    0  501    0  0.00000000000E+00 -0.00000000000E+00 -0.19605444656E+03  0.19605444656E+03  0.00000000000E+00 0. -1.
         25    2    1    2    0    0  0.32858370831E+02 -0.15690305643E+01  0.22786938231E+02  0.13133434640E+03  0.12508929450E+03 0.  0.
          5    1    3    3  502    0 -0.30684545031E+02  0.26556906933E+02  0.42571251629E+02  0.58962653221E+02  0.41800000000E+01 0.  1.
         -5    1    3    3    0  502  0.63542915862E+02 -0.28125937498E+02 -0.19784313398E+02  0.72371693175E+02  0.41800000000E+01 0.  1.
        -11    1    1    2    0    0 -0.57828677143E+01 -0.41427893267E+02 -0.28986836207E+02  0.50891537340E+02  0.00000000000E+00 0. -1.
         11    1    1    2    0    0 -0.27075503117E+02  0.42996923832E+02 -0.95503724573E+02  0.10817938683E+03  0.00000000000E+00 0.  1.
</event>
<event>
 7    1  0.2840156E-009  0.1380818E+03  0.7561462E-02  0.1215934E+00
          2   -1    0    0  501    0  0.00000000000E+00  0.00000000000E+00  0.21208084481E+04  0.21208084481E+04  0.00000000000E+00 0. -1.
         -2   -1    0    0    0  501 -0.00000000000E+00 -0.00000000000E+00 -0.15731109938E+02  0.15731109938E+02  0.00000000000E+00 0.  1.
         25    2    1    2    0    0  0.10833891338E+03 -0.18018436550E+02  0.16748595286E+04  0.16831117598E+04  0.12509504928E+03 0.  0.
          5    1    3    3  502    0 -0.18338154399E+02 -0.33716724484E+02  0.36009379734E+03  0.36215759097E+03  0.41800000000E+01 0.  1.
         -5    1    3    3    0  502  0.12667706778E+03  0.15698287934E+02  0.13147657313E+04  0.13209541689E+04  0.41800000000E+01 0.  1.
        -11    1    1    2    0    0 -0.80509091981E+02  0.12609106325E+02  0.41141659461E+03  0.41940948698E+03  0.00000000000E+00 0. -1.
         11    1    1    2    0    0 -0.27829821398E+02  0.54093302248E+01  0.18801214900E+02  0.34018311161E+02  0.00000000000E+00 0.  1.
</event>
<event>
 7    1  0.2840156E-009  0.9669453E+02  0.7561462E-02  0.1287405E+00
          2   -1    0    0  501    0  0.00000000000E+00  0.00000000000E+00  0.46124106201E+03  0.46124106201E+03  0.00000000000E+00 0. -1.
         -2   -1    0    0    0  501 -0.00000000000E+00 -0.00000000000E+00 -0.33346786407E+02  0.33346786407E+02  0.00000000000E+00 0.  1.
         25    2    1    2    0    0 -0.35165046291E+02  0.43481447679E+02  0.28653673131E+03  0.31761384974E+03  0.12509213558E+03 0.  0.
          5    1    3    3  502    0  0.26100643936E+02 -0.88059150811E+01  0.18903525130E+03  0.19107743558E+03  0.41800000000E+01 0.  1.
         -5    1    3    3    0  502 -0.61265690227E+02  0.52287362761E+02  0.97501480010E+02  0.12653641416E+03  0.41800000000E+01 0.  1.
        -11    1    1    2    0    0  0.29011952580E+02  0.10266940199E+02  0.62027774984E+01  0.31393915051E+02  0.00000000000E+00 0.  1.
         11    1    1    2    0    0  0.61530937112E+01 -0.53748387878E+02  0.13515476679E+03  0.14558008363E+03  0.00000000000E+00 0. -1.
</event>
<event>
 7    1  0.2840156E-009  0.1139365E+03  0.7561462E-02  0.1253449E+00
          2   -1    0    0  501    0  0.00000000000E+00  0.00000000000E+00  0.81959156289E+02  0.81959156289E+02  0.00000000000E+00 0. -1.
         -2   -1    0    0    0  501 -0.00000000000E+00 -0.00000000000E+00 -0.17922069031E+03  0.17922069031E+03  0.00000000000E+00 0.  1.
         25    2    1    2    0    0  0.24681133569E+02 -0.39237434322E+02 -0.27566207355E+02  0.13622419584E+03  0.12509356954E+03 0.  0.
          5    1    3    3  502    0  0.64179025266E+02 -0.59963813720E+02 -0.24680757556E+02  0.91330271178E+02  0.41800000000E+01 0.  1.
         -5    1    3    3    0  502 -0.39497891697E+02  0.20726379397E+02 -0.28854497997E+01  0.44893924667E+02  0.41800000000E+01 0.  1.
        -11    1    1    2    0    0 -0.55664407604E+02  0.26276462206E+02 -0.19516302529E+02  0.64574490353E+02  0.00000000000E+00 0.  1.
         11    1    1    2    0    0  0.30983274035E+02  0.12960972116E+02 -0.50179024137E+02  0.60381160402E+02  0.00000000000E+00 0. -1.
</event>
<event>
 7    1  0.2840156E-009  0.1117500E+03  0.7561462E-02  0.1257363E+00
         -2   -1    0    0    0  501 -0.00000000000E+00  0.00000000000E+00  0.36331889464E+02  0.36331889464E+02  0.00000000000E+00 0.  1.
          2   -1    0    0  501    0  0.00000000000E+00 -0.00000000000E+00 -0.43357336267E+03  0.43357336267E+03  0.00000000000E+00 0. -1.
         25    2    1    2    0    0  0.43201001690E+02  0.51947001639E+02 -0.23559431348E+03  0.27516988315E+03  0.12509582935E+03 0.  0.
          5    1    3    3  502    0 -0.19146366837E+02 -0.18145289078E+02 -0.13476867812E+03  0.13738960616E+03  0.41800000000E+01 0. -1.
         -5    1    3    3    0  502  0.62347368527E+02  0.70092290717E+02 -0.10082563536E+03  0.13778027698E+03  0.41800000000E+01 0. -1.
        -11    1    1    2    0    0  0.13934008240E+02  0.11093430765E+02 -0.89435971097E+01  0.19930095861E+02  0.00000000000E+00 0.  1.
         11    1    1    2    0    0 -0.57135009931E+02 -0.63040432404E+02 -0.15270356261E+03  0.17480527313E+03  0.00000000000E+00 0. -1.
</event>
<event>
 7    1  0.2840156E-009  0.2872566E+03  0.7561462E-02  0.1091790E+00
          1   -1    0    0  501    0  0.00000000000E+00  0.00000000000E+00  0.14578721199E+04  0.14578721199E+04  0.00000000000E+00 0. -1.
         -1   -1    0    0    0  501 -0.00000000000E+00 -0.00000000000E+00 -0.59440947974E+02  0.59440947974E+02  0.00000000000E+00 0.  1.
         25    2    1    2    0    0  0.23948909455E+03 -0.12797964724E+03  0.60385402398E+03  0.67380948844E+03  0.12508288420E+03 0.  0.
          5    1    3    3  502    0  0.22692916250E+03 -0.15063652896E+03  0.54147522545E+03  0.60613620649E+03  0.41800000000E+01 0. -1.
         -5    1    3    3    0  502  0.12559932045E+02  0.22656881727E+02  0.62378798533E+02  0.67673281943E+02  0.41800000000E+01 0. -1.
        -11    1    1    2    0    0 -0.16292558710E+03  0.60456889676E+02  0.58697745753E+03  0.61216200314E+03  0.00000000000E+00 0. -1.
         11    1    1    2    0    0 -0.76563507441E+02  0.67522757561E+02  0.20759969040E+03  0.23134157628E+03  0.00000000000E+00 0.  1.
</event>
<event>
 7    1  0.2840156E-009  0.1566382E+03  0.7561462E-02  0.1192545E+00
          2   -1    0    0  501    0  0.00000000000E+00  0.00000000000E+00  0.10831066206E+03  0.10831066206E+03  0.00000000000E+00 0. -1.
         -2   -1    0    0    0  501 -0.00000000000E+00 -0.00000000000E+00 -0.31495723603E+03  0.31495723603E+03  0.00000000000E+00 0.  1.
         25    2    1    2    0    0  0.50179813071E+02  0.13926726429E+03 -0.13884607275E+03  0.23841107041E+03  0.12509285366E+03 0.  0.
          5    1    3    3  502    0 -0.96487317652E+01  0.59315803327E+02 -0.12334609162E+03  0.13727051128E+03  0.41800000000E+01 0.  1.
         -5    1    3    3    0  502  0.59828544837E+02  0.79951460959E+02 -0.15499981127E+02  0.10114055913E+03  0.41800000000E+01 0.  1.
        -11    1    1    2    0    0 -0.18869202093E+02 -0.10496055720E+03 -0.83908670052E+02  0.13569609525E+03  0.00000000000E+00 0.  1.
         11    1    1    2    0    0 -0.31310610978E+02 -0.34306707085E+02  0.16108168825E+02  0.49160732437E+02  0.00000000000E+00 0. -1.
</event>
<event>
 7    1  0.2840156E-009  0.1681814E+03  0.7561462E-02  0.1179758E+00
          2   -1    0    0  501    0  0.00000000000E+00  0.00000000000E+00  0.95053270294E+03  0.95053270294E+03  0.00000000000E+00 0. -1.
         -2   -1    0    0    0  501 -0.00000000000E+00 -0.00000000000E+00 -0.39302000174E+02  0.39302000174E+02  0.00000000000E+00 0.  1.
         25    2    1    2    0    0 -0.13878995309E+03 -0.23261654369E+02  0.25876613623E+03  0.32001735179E+03  0.12508971399E+03 0.  0.
          5    1    3    3  502    0 -0.12117087597E+02 -0.53168045103E+02  0.10602127323E+03  0.11929646939E+03  0.41800000000E+01 0.  1.
         -5    1    3    3    0  502 -0.12667286549E+03  0.29906390734E+02  0.15274486300E+03  0.20072088240E+03  0.41800000000E+01 0.  1.
        -11    1    1    2    0    0  0.10808900419E+03  0.41450890440E+02  0.50411613612E+03  0.51723736122E+03  0.00000000000E+00 0.  1.
         11    1    1    2    0    0  0.30700948901E+02 -0.18189236071E+02  0.14834843042E+03  0.15257999010E+03  0.00000000000E+00 0. -1.
</event>
<event>
 7    1  0.2840156E-009  0.1121952E+03  0.7561462E-02  0.1256558E+00
          1   -1    0    0  501    0  0.00000000000E+00  0.00000000000E+00  0.22915142573E+03  0.22915142573E+03  0.00000000000E+00 0. -1.
         -1   -1    0    0    0  501 -0.00000000000E+00 -0.00000000000E+00 -0.76015281360E+02  0.76015281360E+02  0.00000000000E+00 0.  1.
         25    2    1    2    0    0  0.42978926380E+02  0.57461722328E+02  0.10774770256E+03  0.18001489692E+03  0.12508700195E+03 0.  0.
          5    1    3    3  502    0  0.70775030889E+01  0.79695133308E+02  0.11162768483E+03  0.13740312131E+03  0.41800000000E+01 0.  1.
         -5    1    3    3    0  502  0.35901423292E+02 -0.22233410980E+02 -0.38799822703E+01  0.42611775609E+02  0.41800000000E+01 0.  1.
        -11    1    1    2    0    0 -0.35174435969E+02  0.78678170814E+01 -0.11853080550E+02  0.37942575162E+02  0.00000000000E+00 0.  1.
         11    1    1    2    0    0 -0.78044904110E+01 -0.65329539409E+02  0.57241522353E+02  0.87209235012E+02  0.00000000000E+00 0. -1.
</event>
<event>
 7    1  0.2840156E-009  0.1483809E+03  0.7561462E-02  0.1202477E+00
         -1   -1    0    0    0  501 -0.00000000000E+00  0.00000000000E+00  0.17720547999E+03  0.17720547999E+03  0.00000000000E+00 0.  1.
          1   -1    0    0  501    0  0.00000000000E+00 -0.00000000000E+00 -0.15009390211E+03  0.15009390211E+03  0.00000000000E+00 0. -1.
         25    2    1    2    0    0  0.98873319666E+02  0.57407979181E+02  0.54176084348E+02  0.17790833937E+03  0.12507885387E+03 0.  0.
          5    1    3    3  502    0  0.32296259072E+02  0.75173774402E+02 -0.11375667827E+02  0.82710476521E+02  0.41800000000E+01 0. -1.
         -5    1    3    3    0  502  0.66577060594E+02 -0.17765795221E+02  0.65551752175E+02  0.95197862846E+02  0.41800000000E+01 0. -1.
        -11    1    1    2    0    0  0.62785323920E+01 -0.38447025793E+02  0.81916938504E+00  0.38964917552E+02  0.00000000000E+00 0.  1.
         11    1    1    2    0    0 -0.10515185206E+03 -0.18960953388E+02 -0.27883675856E+02  0.11042612519E+03  0.00000000000E+00 0. -1.
</event>
<event>
 7    1  0.2840156E-009  0.1088435E+03  0.7561462E-02  0.1262727E+00
         -2   -1    0    0    0  501 -0.00000000000E+00  0.00000000000E+00  0.71874776728E+03  0.71874776728E+03  0.00000000000E+00 0.  1.
          2   -1    0    0  501    0  0.00000000000E+00 -0.00000000000E+00 -0.20481425613E+02  0.20481425613E+02  0.00000000000E+00 0. -1.
         25    2    1    2    0    0  0.92320932746E+01 -0.49823082934E+02  0.46416379494E+03  0.48338753783E+03  0.12509161464E+03 0.  0.
          5    1    3    3  502    0 -0.37473178646E+02 -0.57571737635E+02  0.38460223346E+03  0.39071101145E+03  0.41800000000E+01 0.  1.
         -5    1    3    3    0  502  0.46705271920E+02  0.77486547003E+01  0.79561561483E+02  0.92676526372E+02  0.41800000000E+01 0.  1.
        -11    1    1    2    0    0 -0.29952405131E+02  0.67663474527E+02  0.19060021286E+03  0.20446010247E+03  0.00000000000E+00 0.  1.
         11    1    1    2    0    0  0.20720311857E+02 -0.17840391593E+02  0.43502333859E+02  0.51381552592E+02  0.00000000000E+00 0. -1.
</event>
<event>
 7    1  0.2840156E-009  0.1014727E+03  0.7561462E-02  0.1277229E+00
          1   -1    0    0  501    0  0.00000000000E+00  0.00000000000E+00  0.57560900182E+03  0.57560900182E+03  0.00000000000E+00 0. -1.
         -1   -1    0    0    0  501 -0.00000000000E+00 -0.00000000000E+00 -0.28417793879E+02  0.28417793879E+02  0.00000000000E+00 0.  1.
         25    2    1    2    0    0  0.62422730062E+02 -0.51247916110E+01  0.36117063949E+03  0.38731887442E+03  0.12509523946E+03 0.  0.
          5    1    3    3  502    0  0.80308624665E+02  0.70925039880E+01  0.35548716600E+03  0.36453858012E+03  0.41800000000E+01 0. -1.
         -5    1    3    3    0  502 -0.17885894603E+02 -0.12217295599E+02  0.56834734946E+01  0.22780294302E+02  0.41800000000E+01 0. -1.
        -11    1    1    2    0    0 -0.15225607939E+02  0.39127868664E+02  0.34290373553E+02  0.54209214730E+02  0.00000000000E+00 0.  1.
         11    1    1    2    0    0 -0.47197122123E+02 -0.34003077053E+02  0.15173019490E+03  0.16249870655E+03  0.00000000000E+00 0. -1.
</event>
<event>
 7    1  0.2840156E-009  0.8677509E+02  0.7561462E-02  0.1310855E+00
          2   -1    0    0  501    0  0.00000000000E+00  0.00000000000E+00  0.90207633984E+02  0.90207633984E+02  0.00000000000E+00 0. -1.
         -2   -1    0    0    0  501 -0.00000000000E+00 -0.00000000000E+00 -0.13789437148E+03  0.13789437148E+03  0.00000000000E+00 0.  1.
         25    2    1    2    0    0 -0.13035933715E+01 -0.96532572672E+01 -0.40799519290E+01  0.12553403236E+03  0.12508901847E+03 0.  0.
          5    1    3    3  502    0  0.33258199574E+02 -0.29541143257E+02 -0.48332181027E+02  0.65819899017E+02  0.41800000000E+01 0.  1.
         -5    1    3    3    0  502 -0.34561792945E+02  0.19887885990E+02  0.44252229098E+02  0.59714133342E+02  0.41800000000E+01 0.  1.
        -11    1    1    2    0    0 -0.43175938207E+02  0.99007722029E+01 -0.36762065044E+02  0.57564193355E+02  0.00000000000E+00 0.  1.
         11    1    1    2    0    0  0.44479531579E+02 -0.24751493569E+00 -0.68447205270E+01  0.45003779755E+02  0.00000000000E+00 0. -1.
</event>
<event>
 7    1  0.2840156E-009  0.1891109E+03  0.7561462E-02  0.1159266E+00
          1   -1    0    0  501    0  0.00000000000E+00  0.00000000000E+00  0.24320942919E+03  0.24320942919E+03  0.00000000000E+00 0. -1.
         -1   -1    0    0    0  501 -0.00000000000E+00 -0.00000000000E+00 -0.18453950905E+03  0.18453950905E+03  0.00000000000E+00 0.  1.
         25    2    1    2    0    0 -0.10950249630E+03  0.13149573966E+03 -0.32125314086E+02  0.21437986329E+03  0.12507902996E+03 0.  0.
          5    1    3    3  502    0 -0.27205703330E+02  0.97957071519E+02 -0.63620026155E+02  0.12000299281E+03  0.41800000000E+01 0. -1.
         -5    1    3    3    0  502 -0.82296792974E+02  0.33538668139E+02  0.31494712069E+02  0.94376870485E+02  0.41800000000E+01 0. -1.
        -11    1    1    2    0    0  0.53352657147E+02 -0.10867794093E+02  0.41879365649E+01  0.54609099844E+02  0.00000000000E+00 0.  1.
         11    1    1    2    0    0  0.56149839156E+02 -0.12062794557E+03  0.86607297662E+02  0.15875997511E+03  0.00000000000E+00 0. -1.
</event>
<event>
 7    1  0.2840156E-009  0.1312159E+03  0.7561462E-02  0.1225663E+00
          2   -1    0    0  501    0  0.00000000000E+00  0.00000000000E+00  0.52901420160E+03  0.52901420160E+03  0.00000000000E+00 0. -1.
         -2   -1    0    0    0  501 -0.00000000000E+00 -0.00000000000E+00 -0.34155454847E+02  0.34155454847E+02  0.00000000000E+00 0.  1.
         25    2    1    2    0    0  0.58149760255E+02 -0.50358498991E+02  0.23579665169E+03  0.27778599258E+03  0.12509046200E+03 0.  0.
          5    1    3    3  502    0  0.93795995102E+02 -0.19671429094E+02  0.12678273483E+03  0.15898423843E+03  0.41800000000E+01 0. -1.
         -5    1    3    3    0  502 -0.35646234847E+02 -0.30687069898E+02  0.10901391686E+03  0.11880175414E+03  0.41800000000E+01 0. -1.
        -11    1    1    2    0    0 -0.79394208113E+02  0.56173767330E+02  0.20126822646E+03  0.22353485500E+03  0.00000000000E+00 0.  1.
         11    1    1    2    0    0  0.21244447858E+02 -0.58152683382E+01  0.57793868603E+02  0.61848808870E+02  0.00000000000E+00 0. -1.
</event>
<event>
 7    1  0.2840156E-009  0.7223585E+02  0.7561462E-02  0.1352651E+00
         -1   -1    0    0    0  501 -0.00000000000E+00  0.00000000000E+00  0.21214130284E+03  0.21214130284E+03  0.00000000000E+00 0.  1.
          1   -1    0    0  501    0  0.00000000000E+00 -0.00000000000E+00 -0.62062211620E+02  0.62062211620E+02  0.00000000000E+00 0. -1.
         25    2    1    2    0    0  0.33413253579E+01  0.33396576516E+01  0.15477031876E+03  0.19905760323E+03  0.12509100714E+03 0.  0.
          5    1    3    3  502    0  0.44225084274E+02  0.17079495978E+02  0.14766626784E+03  0.15514627395E+03  0.41800000000E+01 0. -1.
         -5    1    3    3    0  502 -0.40883758916E+02 -0.13739838327E+02  0.71040509184E+01  0.43911329288E+02  0.41800000000E+01 0. -1.
        -11    1    1    2    0    0 -0.25309674812E+02  0.10696146490E+02  0.23926458967E+02  0.36434360534E+02  0.00000000000E+00 0.  1.
         11    1    1    2    0    0  0.21968349454E+02 -0.14035804142E+02 -0.28617686509E+02  0.38711550689E+02  0.00000000000E+00 0. -1.
</event>
<event>
 7    1  0.2840156E-009  0.1279787E+03  0.7561462E-02  0.1230486E+00
         -1   -1    0    0    0  501 -0.00000000000E+00  0.00000000000E+00  0.83394197602E+02  0.83394197602E+02  0.00000000000E+00 0.  1.
          1   -1    0    0  501    0  0.00000000000E+00 -0.00000000000E+00 -0.22584765269E+03  0.22584765269E+03  0.00000000000E+00 0. -1.
         25    2    1    2    0    0  0.73579207843E+02  0.19713779572E+02 -0.11605000363E+03  0.18686401547E+03  0.12509206210E+03 0.  0.
          5    1    3    3  502    0 -0.24985727735E+02 -0.27234410387E+02 -0.28525250186E+02  0.46873894630E+02  0.41800000000E+01 0.  1.
         -5    1    3    3    0  502  0.98564935578E+02  0.46948189958E+02 -0.87524753446E+02  0.13999012084E+03  0.41800000000E+01 0.  1.
        -11    1    1    2    0    0 -0.51357803284E+02  0.26820793202E+02 -0.38301690751E+02  0.69455010046E+02  0.00000000000E+00 0. -1.
         11    1    1    2    0    0 -0.22221404559E+02 -0.46534572774E+02  0.11898239300E+02  0.52922824776E+02  0.00000000000E+00 0.  1.
</event>
<event>
 7    1  0.2840156E-009  0.8443231E+02  0.7561462E-02  0.1316924E+00
         -2   -1    0    0    0  501 -0.00000000000E+00  0.00000000000E+00  0.83479306486E+01  0.83479306486E+01  0.00000000000E+00 0.  1.
          2   -1    0    0  501    0  0.00000000000E+00 -0.00000000000E+00 -0.87092641112E+03  0.87092641112E+03  0.00000000000E+00 0. -1.
         25    2    1    2    0    0  0.18885991578E+02  0.16057824880E+01 -0.61997057102E+03  0.63274967781E+03  0.12509750848E+03 0.  0.
          5    1    3    3  502    0 -0.36915278490E+02 -0.40580119370E+02 -0.32059368960E+03  0.32528029464E+03  0.41800000000E+01 0. -1.
         -5    1    3    3    0  502  0.55801270069E+02  0.42185901858E+02 -0.29937688142E+03  0.30746938317E+03  0.41800000000E+01 0. -1.
        -11    1    1    2    0    0 -0.24905818779E+01  0.18022646554E+02 -0.10166589151E+03  0.10328103545E+03  0.00000000000E+00 0. -1.
         11    1    1    2    0    0 -0.16395409701E+02 -0.19628429042E+02 -0.14094201795E+03  0.14324362851E+03  0.00000000000E+00 0.  1.
</event>
<event>
 7    1  0.2840156E-009  0.1061954E+03  0.7561462E-02  0.1267782E+00
          2   -1    0    0  501    0  0.00000000000E+00  0.00000000000E+00  0.63480444145E+02  0.63480444145E+02  0.00000000000E+00 0. -1.
         -2   -1    0    0    0  501 -0.00000000000E+00 -0.00000000000E+00 -0.20023610894E+03  0.20023610894E+03  0.00000000000E+00 0.  1.
         25    2    1    2    0    0  0.15435597758E+02 -0.19985409795E+02 -0.56162309853E+02  0.13942484851E+03  0.12508960409E+03 0.  0.
          5    1    3    3  502    0 -0.53186172984E+02 -0.28064366825E+01 -0.40008208293E+02  0.66744094977E+02  0.41800000000E+01 0.  1.
         -5    1    3    3    0  502  0.68621770741E+02 -0.17178973113E+02 -0.16154101560E+02  0.72680753533E+02  0.41800000000E+01 0.  1.
        -11    1    1    2    0    0 -0.47623052011E+02 -0.42507959696E+01 -0.65871594175E+02  0.81394663636E+02  0.00000000000E+00 0.  1.
         11    1    1    2    0    0  0.32187454253E+02  0.24236205765E+02 -0.14721760765E+02  0.42897040938E+02  0.00000000000E+00 0. -1.
</event>
<event>
 7    1  0.2840156E-009  0.1161822E+03  0.7561462E-02  0.1249532E+00
          3   -1    0    0  501    0  0.00000000000E+00  0.00000000000E+00  0.53671495074E+03  0.53671495074E+03  0.00000000000E+00 0. -1.
         -3   -1    0    0    0  501 -0.00000000000E+00 -0.00000000000E+00 -0.31712108383E+02  0.31712108383E+02  0.00000000000E+00 0.  1.
         25    2    1    2    0    0 -0.70222930431E+02  0.10236178576E+02  0.27128334349E+03  0.30704734627E+03  0.12508949231E+03 0.  0.
          5    1    3    3  502    0  0.24680083821E+02  0.63579127532E+01  0.78659708936E+01  0.26997694163E+02  0.41800000000E+01 0.  1.
         -5    1    3    3    0  502 -0.94903014252E+02  0.38782658231E+01  0.26341737259E+03  0.28004965211E+03  0.41800000000E+01 0.  1.
        -11    1    1    2    0    0  0.47555170931E+02  0.36216406789E+02  0.16426155496E+03  0.17479983078E+03  0.00000000000E+00 0.  1.
         11    1    1    2    0    0  0.22667759500E+02 -0.46452585365E+02  0.69457943909E+02  0.86579882073E+02  0.00000000000E+00 0. -1.
</event>
<event>
 7    1  0.2840156E-009  0.8844933E+02  0.7561462E-02  0.1306651E+00
          2   -1    0    0  501    0  0.00000000000E+00  0.00000000000E+00  0.27858792549E+03  0.27858792549E+03  0.00000000000E+00 0. -1.
         -2   -1    0    0    0  501 -0.00000000000E+00 -0.00000000000E+00 -0.65032064905E+02  0.65032064905E+02  0.00000000000E+00 0.  1.
         25    2    1    2    0    0 -0.60486930325E+02 -0.22246757883E+02  0.17375994176E+03  0.22359877514E+03  0.12510119067E+03 0.  0.
          5    1    3    3  502    0 -0.39382909042E+02 -0.41490936284E+02  0.18418444159E+03  0.19290902582E+03  0.41800000000E+01 0.  1.
         -5    1    3    3    0  502 -0.21104021283E+02  0.19244178401E+02 -0.10424499831E+02  0.30689749321E+02  0.41800000000E+01 0.  1.
        -11    1    1    2    0    0  0.42434817228E+02 -0.18360202493E+02  0.56089072059E+02  0.72689715594E+02  0.00000000000E+00 0. -1.
         11    1    1    2    0    0  0.18052113097E+02  0.40606960376E+02 -0.16293153230E+02  0.47331499664E+02  0.00000000000E+00 0.  1.
</event>
<event>
 7    1  0.2840156E-009  0.1515505E+03  0.7561462E-02  0.1198581E+00
         -1   -1    0    0    0  501 -0.00000000000E+00  0.00000000000E+00  0.41801670494E+02  0.41801670494E+02  0.00000000000E+00 0.  1.
          1   -1    0    0  501    0  0.00000000000E+00 -0.00000000000E+00 -0.74292748498E+03  0.74292748498E+03  0.00000000000E+00 0. -1.
         25    2    1    2    0    0  0.13071216508E+03  0.36234072203E+02 -0.42791541715E+03  0.46600104504E+03  0.12508713622E+03 0.  0.
          5    1    3    3  502    0 -0.84850117473E+01 -0.15188221325E+02 -0.62267906566E+01  0.18945258332E+02  0.41800000000E+01 0. -1.
         -5    1    3    3    0  502  0.13919717683E+03  0.51422293529E+02 -0.42168862650E+03  0.44705578670E+03  0.41800000000E+01 0. -1.
        -11    1    1    2    0    0 -0.11529828700E+03 -0.37622996275E+02 -0.27734965354E+03  0.30270780490E+03  0.00000000000E+00 0. -1.
         11    1    1    2    0    0 -0.15413878084E+02  0.13889240719E+01  0.41392562001E+01  0.16020305539E+02  0.00000000000E+00 0.  1.
</event>
<event>
 7    1  0.2840156E-009  0.9401080E+02  0.7561462E-02  0.1293420E+00
          2   -1    0    0  501    0  0.00000000000E+00  0.00000000000E+00  0.64062630734E+02  0.64062630734E+02  0.00000000000E+00 0.  1.
         -2   -1    0    0    0  501 -0.00000000000E+00 -0.00000000000E+00 -0.49682597335E+03  0.49682597335E+03  0.00000000000E+00 0. -1.
         25    2    1    2    0    0 -0.22324443899E+02  0.50120668024E+02 -0.43178664667E+03  0.45287709343E+03  0.12508993305E+03 0.  0.
          5    1    3    3  502    0 -0.26038310614E+02  0.69086297593E+02 -0.42586363561E+03  0.43223629957E+03  0.41800000000E+01 0.  1.
         -5    1    3    3    0  502  0.37138667151E+01 -0.18965629570E+02 -0.59230110614E+01  0.20640793855E+02  0.41800000000E+01 0.  1.
        -11    1    1    2    0    0  0.31985081199E+01 -0.68025967418E+02  0.23614565204E+02  0.72079195245E+02  0.00000000000E+00 0.  1.
         11    1    1    2    0    0  0.19125935779E+02  0.17905299395E+02 -0.24591261150E+02  0.35932315411E+02  0.00000000000E+00 0. -1.
</event>
<event>
 7    1  0.2840156E-009  0.1501520E+03  0.7561462E-02  0.1200286E+00
         -1   -1    0    0    0  501 -0.00000000000E+00  0.00000000000E+00  0.16152413437E+04  0.16152413437E+04  0.00000000000E+00 0.  1.
          1   -1    0    0  501    0  0.00000000000E+00 -0.00000000000E+00 -0.27175143443E+02  0.27175143443E+02  0.00000000000E+00 0. -1.
         25    2    1    2    0    0  0.80378904617E+02  0.87246528061E+02  0.13518118155E+04  0.13627602785E+04  0.12509063614E+03 0.  0.
          5    1    3    3  502    0  0.18790718571E+02 -0.20201002612E+02  0.76285891244E+02  0.81229189420E+02  0.41800000000E+01 0. -1.
         -5    1    3    3    0  502  0.61588186047E+02  0.10744753067E+03  0.12755259243E+04  0.12815310891E+04  0.41800000000E+01 0. -1.
        -11    1    1    2    0    0 -0.83099800713E+02 -0.25853042179E+02  0.15524896124E+03  0.17797807908E+03  0.00000000000E+00 0.  1.
         11    1    1    2    0    0  0.27208960957E+01 -0.61393485882E+02  0.81005423499E+02  0.10167812951E+03  0.00000000000E+00 0. -1.
</event>
<event>
 7    1  0.2840156E-009  0.7097114E+02  0.7561462E-02  0.1356821E+00
         -2   -1    0    0    0  501 -0.00000000000E+00  0.00000000000E+00  0.33468345460E+02  0.33468345460E+02  0.00000000000E+00 0.  1.
          2   -1    0    0  501    0  0.00000000000E+00 -0.00000000000E+00 -0.35635087100E+03  0.35635087100E+03  0.00000000000E+00 0. -1.
         25    2    1    2    0    0 -0.11888449893E+01 -0.15010398199E+01 -0.23845011050E+03  0.26927692765E+03  0.12509173472E+03 0.  0.
          5    1    3    3  502    0  0.17664603169E+02 -0.35982501853E+02 -0.16029964569E+02  0.43372927141E+02  0.41800000000E+01 0.  1.
         -5    1    3    3    0  502 -0.18853448158E+02  0.34481462033E+02 -0.22242014593E+03  0.22590400051E+03  0.41800000000E+01 0.  1.
        -11    1    1    2    0    0 -0.30362461296E+02  0.31477706094E+01 -0.83532550190E+02  0.88935226187E+02  0.00000000000E+00 0. -1.
         11    1    1    2    0    0  0.31551306285E+02 -0.16467307895E+01 -0.89986484766E+00  0.31607062618E+02  0.00000000000E+00 0.  1.
</event>
<event>
 7    1  0.2840156E-009  0.1036625E+03  0.7561462E-02  0.1272777E+00
         -2   -1    0    0    0  501 -0.00000000000E+00  0.00000000000E+00  0.18280484827E+03  0.18280484827E+03  0.00000000000E+00 0.  1.
          2   -1    0    0  501    0  0.00000000000E+00 -0.00000000000E+00 -0.72455165512E+02  0.72455165512E+02  0.00000000000E+00 0. -1.
         25    2    1    2    0    0  0.20439748355E+02 -0.26440325944E+02  0.85412755153E+02  0.15512300866E+03  0.12510369669E+03 0.  0.
          5    1    3    3  502    0 -0.12775484425E+02 -0.64555934121E+02  0.13810813982E+02  0.67371304094E+02  0.41800000000E+01 0. -1.
         -5    1    3    3    0  502  0.33215232780E+02  0.38115608177E+02  0.71601941172E+02  0.87751704570E+02  0.41800000000E+01 0. -1.
        -11    1    1    2    0    0 -0.27502037729E+01 -0.30708107049E+02  0.25959853600E+02  0.40304658022E+02  0.00000000000E+00 0.  1.
         11    1    1    2    0    0 -0.17689544582E+02  0.57148432993E+02 -0.10229259993E+01  0.59832347093E+02  0.00000000000E+00 0. -1.
</event>
<event>
 7    1  0.2840156E-009  0.1053062E+03  0.7561462E-02  0.1269517E+00
          2   -1    0    0  501    0  0.00000000000E+00  0.00000000000E+00  0.20336506475E+03  0.20336506475E+03  0.00000000000E+00 0. -1.
         -2   -1    0    0    0  501 -0.00000000000E+00 -0.00000000000E+00 -0.60159018746E+02  0.60159018746E+02  0.00000000000E+00 0.  1.
         25    2    1    2    0    0  0.51720368662E+01 -0.13052865745E+01  0.54613099888E+02  0.13659752337E+03  0.12509132254E+03 0.  0.
          5    1    3    3  502    0 -0.25898269312E+02  0.53905628734E+02  0.37965453485E+02  0.70960448286E+02  0.41800000000E+01 0.  1.
         -5    1    3    3    0  502  0.31070306179E+02 -0.55210915308E+02  0.16647646403E+02  0.65637075087E+02  0.41800000000E+01 0.  1.
        -11    1    1    2    0    0  0.12488446357E+02 -0.40184061034E+02  0.24923818294E+02  0.48907226173E+02  0.00000000000E+00 0.  1.
         11    1    1    2    0    0 -0.17660483223E+02  0.41489347608E+02  0.63669127822E+02  0.78019333952E+02  0.00000000000E+00 0. -1.
</event>
<event>
 7    1  0.2840156E-009  0.2381794E+03  0.7561462E-02  0.1121012E+00
          2   -1    0    0  501    0  0.00000000000E+00  0.00000000000E+00  0.16070539988E+03  0.16070539988E+03  0.00000000000E+00 0.  1.
         -2   -1    0    0    0  501 -0.00000000000E+00 -0.00000000000E+00 -0.68242113252E+03  0.68242113252E+03  0.00000000000E+00 0. -1.
         25    2    1    2    0    0 -0.18895353004E+03 -0.95152330137E+02 -0.55780718110E+03  0.60955144956E+03  0.12508683354E+03 0.  0.
          5    1    3    3  502    0 -0.20174805561E+03 -0.63995320586E+02 -0.48752283356E+03  0.53150133080E+03  0.41800000000E+01 0.  1.
         -5    1    3    3    0  502  0.12794525572E+02 -0.31157009551E+02 -0.70284347544E+02  0.78050118760E+02  0.41800000000E+01 0.  1.
        -11    1    1    2    0    0  0.79002092175E+02  0.91256385913E+02  0.16524889148E+02  0.12182828284E+03  0.00000000000E+00 0.  1.
         11    1    1    2    0    0  0.10995143786E+03  0.38959442244E+01  0.19566559310E+02  0.11174680001E+03  0.00000000000E+00 0. -1.
</event>
<event>
 7    1  0.3038396E-009  0.1066010E+03  0.7561462E-02  0.1266997E+00
         -1   -1    0    0    0  501 -0.00000000000E+00  0.00000000000E+00  0.84469748250E+02  0.84469748250E+02  0.00000000000E+00 0.  1.
          1   -1    0    0  501    0  0.00000000000E+00 -0.00000000000E+00 -0.18352058145E+03  0.18352058145E+03  0.00000000000E+00 0. -1.
         25    2    1    2    0    0 -0.30211489684E+02  0.13985848341E+02  0.15263940306E+00  0.12944454958E+03  0.12509008776E+03 0.  0.
          5    1    3    3  502    0 -0.76767651767E+02 -0.77174180675E+01 -0.62108936766E+01  0.77516956207E+02  0.41800000000E+01 0.  1.
         -5    1    3    3    0  502  0.46556162083E+02  0.21703266408E+02  0.63635330796E+01  0.51927593377E+02  0.41800000000E+01 0.  1.
        -11    1    1    2    0    0  0.18609130423E+02  0.31974735825E+02 -0.11312204030E+02  0.38686553558E+02  0.00000000000E+00 0.  1.
         11    1    1    2    0    0  0.11602359261E+02 -0.45960584166E+02 -0.87891268576E+02  0.99859226560E+02  0.00000000000E+00 0. -1.
</event>
<event>
 7    1  0.2840156E-009  0.1297515E+03  0.7561462E-02  0.1227825E+00
         -2   -1    0    0    0  501 -0.00000000000E+00  0.00000000000E+00  0.88877095317E+02  0.88877095317E+02  0.00000000000E+00 0.  1.
          2   -1    0    0  501    0  0.00000000000E+00 -0.00000000000E+00 -0.27898626674E+03  0.27898626674E+03  0.00000000000E+00 0. -1.
         25    2    1    2    0    0 -0.53861167050E+02  0.98036741055E+02 -0.79390076928E+02  0.18564004926E+03  0.12508883108E+03 0.  0.
          5    1    3    3  502    0 -0.30017255677E+01  0.33542540975E+02  0.32359026231E+02  0.46890205694E+02  0.41800000000E+01 0.  1.
         -5    1    3    3    0  502 -0.50859441482E+02  0.64494200080E+02 -0.11174910316E+03  0.13874984356E+03  0.41800000000E+01 0.  1.
        -11    1    1    2    0    0  0.75214113610E+02 -0.48798258155E+02 -0.81249927588E+02  0.12099580000E+03  0.00000000000E+00 0.  1.
         11    1    1    2    0    0 -0.21352946560E+02 -0.49238482900E+02 -0.29469166904E+02  0.61227512795E+02  0.00000000000E+00 0. -1.
</event>
<event>
 7    1  0.2840156E-009  0.7058053E+02  0.7561462E-02  0.1358130E+00
          1   -1    0    0  501    0  0.00000000000E+00  0.00000000000E+00  0.17412540138E+03  0.17412540138E+03  0.00000000000E+00 0. -1.
         -1   -1    0    0    0  501 -0.00000000000E+00 -0.00000000000E+00 -0.10784777415E+03  0.10784777415E+03  0.00000000000E+00 0.  1.
         25    2    1    2    0    0 -0.26677121361E+02  0.33596445623E+02  0.10980570507E+03  0.17188661532E+03  0.12508927091E+03 0.  0.
          5    1    3    3  502    0 -0.22521124527E+02  0.36022320429E+01  0.13205727510E+03  0.13407749040E+03  0.41800000000E+01 0. -1.
         -5    1    3    3    0  502 -0.41559968343E+01  0.29994213580E+02 -0.22251570034E+02  0.37809124917E+02  0.41800000000E+01 0. -1.
        -11    1    1    2    0    0 -0.13586115522E+02  0.17625254297E+02 -0.38843110338E+02  0.44766274635E+02  0.00000000000E+00 0.  1.
         11    1    1    2    0    0  0.40263236883E+02 -0.51221699920E+02 -0.46849675002E+01  0.65320285574E+02  0.00000000000E+00 0. -1.
</event>
<event>
 7    1  0.2840156E-009  0.9750139E+02  0.7561462E-02  0.1285640E+00
         -1   -1    0    0    0  501 -0.00000000000E+00  0.00000000000E+00  0.10279565845E+02  0.10279565845E+02  0.00000000000E+00 0.  1.
          1   -1    0    0  501    0  0.00000000000E+00 -0.00000000000E+00 -0.16037976769E+04  0.16037976769E+04  0.00000000000E+00 0. -1.
         25    2    1    2    0    0 -0.35432443514E+02  0.55466093949E+02 -0.10085973256E+04  0.10184548519E+04  0.12509905835E+03 0.  0.
          5    1    3    3  502    0 -0.21955335782E+02 -0.33412046026E+01 -0.82182129631E+03  0.82213193338E+03  0.41800000000E+01 0. -1.
         -5    1    3    3    0  502 -0.13477107732E+02  0.58807298552E+02 -0.18677602933E+03  0.19632291850E+03  0.41800000000E+01 0. -1.
        -11    1    1    2    0    0 -0.28040084750E+02 -0.62739033151E+00 -0.12414121615E+03  0.12727011243E+03  0.00000000000E+00 0.  1.
         11    1    1    2    0    0  0.63472528264E+02 -0.54838703618E+02 -0.46077956923E+03  0.46835227840E+03  0.00000000000E+00 0. -1.
</event>
<event>
 7    1  0.2840156E-009  0.1019350E+03  0.7561462E-02  0.1276279E+00
         -1   -1    0    0    0  501 -0.00000000000E+00  0.00000000000E+00  0.48064730562E+02  0.48064730562E+02  0.00000000000E+00 0.  1.
          1   -1    0    0  501    0  0.00000000000E+00 -0.00000000000E+00 -0.31145257049E+03  0.31145257049E+03  0.00000000000E+00 0. -1.
         25    2    1    2    0    0 -0.40314003832E+02  0.34677619798E+02 -0.17769013431E+03  0.22371725521E+03  0.12509144746E+03 0.  0.
          5    1    3    3  502    0 -0.36417884944E+02  0.80953971747E+02 -0.12482269267E+03  0.15322527498E+03  0.41800000000E+01 0.  1.
         -5    1    3    3    0  502 -0.38961188879E+01 -0.46276351949E+02 -0.52867441635E+02  0.70491980232E+02  0.41800000000E+01 0.  1.
        -11    1    1    2    0    0  0.34940134265E+02 -0.17196441339E+01  0.83795324508E+01  0.35972026945E+02  0.00000000000E+00 0.  1.
         11    1    1    2    0    0  0.53738695669E+01 -0.32957975665E+02 -0.94077238065E+02  0.99828018892E+02  0.00000000000E+00 0. -1.
</event>
<event>
 7    1  0.2840156E-009  0.1066882E+03  0.7561462E-02  0.1266829E+00
          2   -1    0    0  501    0  0.00000000000E+00  0.00000000000E+00  0.10227957340E+04  0.10227957340E+04  0.00000000000E+00 0. -1.
         -2   -1    0    0    0  501 -0.00000000000E+00 -0.00000000000E+00 -0.12983033225E+02  0.12983033225E+02  0.00000000000E+00 0.  1.
         25    2    1    2    0    0  0.36003925489E+02 -0.24759639106E+02  0.52724362894E+03  0.54363835971E+03  0.12508996568E+03 0.  0.
          5    1    3    3  502    0 -0.32581146440E+02 -0.34259021265E+02  0.98720084176E+02  0.10953693012E+03  0.41800000000E+01 0.  1.
         -5    1    3    3    0  502  0.68585071928E+02  0.94993821585E+01  0.42852354476E+03  0.43410142959E+03  0.41800000000E+01 0.  1.
        -11    1    1    2    0    0 -0.32653796576E+02  0.56163458971E+02  0.33128802658E+03  0.33759792818E+03  0.00000000000E+00 0.  1.
         11    1    1    2    0    0 -0.33501289129E+01 -0.31403819865E+02  0.15128104530E+03  0.15454247938E+03  0.00000000000E+00 0. -1.
</event>
<event>
 7    1  0.2840156E-009  0.1106014E+03  0.7561462E-02  0.1259460E+00
         -1   -1    0    0    0  501 -0.00000000000E+00  0.00000000000E+00  0.80721711608E+02  0.80721711608E+02  0.00000000000E+00 0.  1.
          1   -1    0    0  501    0  0.00000000000E+00 -0.00000000000E+00 -0.26281165624E+03  0.26281165624E+03  0.00000000000E+00 0. -1.
         25    2    1    2    0    0  0.62777970747E+02  0.40290584536E+02 -0.16709765094E+03  0.22166223000E+03  0.12509242361E+03 0.  0.
          5    1    3    3  502    0  0.16570032606E+02 -0.41445609462E+02 -0.88242396733E+02  0.98977257516E+02  0.41800000000E+01 0.  1.
         -5    1    3    3    0  502  0.46207938141E+02  0.81736193999E+02 -0.78855254205E+02  0.12268497248E+03  0.41800000000E+01 0.  1.
        -11    1    1    2    0    0 -0.35386827051E+02 -0.21813339870E+01  0.37398940935E+02  0.51533159517E+02  0.00000000000E+00 0.  1.
         11    1    1    2    0    0 -0.27391143696E+02 -0.38109250549E+02 -0.52391234634E+02  0.70337978340E+02  0.00000000000E+00 0. -1.
</event>
<event>
 7    1  0.2840156E-009  0.9468876E+02  0.7561462E-02  0.1291879E+00
         -3   -1    0    0    0  501 -0.00000000000E+00  0.00000000000E+00  0.14558445111E+03  0.14558445111E+03  0.00000000000E+00 0.  1.
          3   -1    0    0  501    0  0.00000000000E+00 -0.00000000000E+00 -0.93599740784E+02  0.93599740784E+02  0.00000000000E+00 0. -1.
         25    2    1    2    0    0 -0.23915074658E+02  0.26817906286E+02  0.64093439248E+01  0.13030593987E+03  0.12508967736E+03 0.  0.
          5    1    3    3  502    0  0.31444163850E+02  0.56584398082E+02  0.15405879289E+02  0.66673405967E+02  0.41800000000E+01 0. -1.
         -5    1    3    3    0  502 -0.55359238508E+02 -0.29766491796E+02 -0.89965353645E+01  0.63632533901E+02  0.41800000000E+01 0. -1.
        -11    1    1    2    0    0  0.34213505430E+02 -0.34560168526E+02  0.67651852180E+02  0.83317118923E+02  0.00000000000E+00 0.  1.
         11    1    1    2    0    0 -0.10298430771E+02  0.77422622401E+01 -0.22076485781E+02  0.25561133100E+02  0.00000000000E+00 0. -1.
</event>
<event>
 7    1  0.2840156E-009  0.1296349E+03  0.7561462E-02  0.1227999E+00
          2   -1    0    0  501    0  0.00000000000E+00  0.00000000000E+00  0.14275845034E+03  0.14275845034E+03  0.00000000000E+00 0.  1.
         -2   -1    0    0    0  501 -0.00000000000E+00 -0.00000000000E+00 -0.14077294288E+03  0.14077294288E+03  0.00000000000E+00 0. -1.
         25    2    1    2    0    0  0.42972267953E+02  0.80684955562E+02  0.12600846485E+01  0.15493824005E+03  0.12509033755E+03 0.  0.
          5    1    3    3  502    0  0.83417962396E+02  0.45237035527E+02  0.21383571593E+02  0.97363624458E+02  0.41800000000E+01 0. -1.
         -5    1    3    3    0  502 -0.40445694442E+02  0.35447920035E+02 -0.20123486944E+02  0.57574615592E+02  0.41800000000E+01 0. -1.
        -11    1    1    2    0    0 -0.39654190941E+02 -0.11796442295E+02  0.32545134652E+02  0.52638357682E+02  0.00000000000E+00 0.  1.
         11    1    1    2    0    0 -0.33180770127E+01 -0.68888513266E+02 -0.31819711842E+02  0.75954795483E+02  0.00000000000E+00 0. -1.
</event>
<event>
 7    1  0.2840156E-009  0.8419557E+02  0.7561462E-02  0.1317550E+00
          2   -1    0    0  501    0  0.00000000000E+00  0.00000000000E+00  0.89550606489E+02  0.89550606489E+02  0.00000000000E+00 0. -1.
         -2   -1    0    0    0  501 -0.00000000000E+00 -0.00000000000E+00 -0.14591722787E+03  0.14591722787E+03  0.00000000000E+00 0.  1.
         25    2    1    2    0    0 -0.13203739920E+01 -0.12400326477E+01 -0.20386388859E+02  0.12675209968E+03  0.12508880387E+03 0.  0.
          5    1    3    3  502    0  0.42462963899E+02 -0.41831032244E+02  0.83969436353E+01  0.60340033346E+02  0.41800000000E+01 0.  1.
         -5    1    3    3    0  502 -0.43783337892E+02  0.40590999596E+02 -0.28783332494E+02  0.66412066333E+02  0.41800000000E+01 0.  1.
        -11    1    1    2    0    0 -0.19286906640E+02  0.14633844083E+02 -0.65776763741E+02  0.70090775489E+02  0.00000000000E+00 0.  1.
         11    1    1    2    0    0  0.20607280632E+02 -0.13393811436E+02  0.29796531218E+02  0.38624959191E+02  0.00000000000E+00 0. -1.
</event>
<event>
 7    1  0.2840156E-009  0.1048682E+03  0.7561462E-02  0.1270380E+00
          1   -1    0    0  501    0  0.00000000000E+00  0.00000000000E+00  0.90463691815E+02  0.90463691815E+02  0.00000000000E+00 0. -1.
         -1   -1    0    0    0  501 -0.00000000000E+00 -0.00000000000E+00 -0.89166927250E+03  0.89166927250E+03  0.00000000000E+00 0.  1.
         25    2    1    2    0    0  0.14224759928E+02 -0.28835028999E+02 -0.85910343493E+03  0.86875829652E+03  0.12509381744E+03 0.  0.
          5    1    3    3  502    0 -0.42499830821E+02  0.10498647606E+02 -0.15064187617E+03  0.15692961631E+03  0.41800000000E+01 0.  1.
         -5    1    3    3    0  502  0.56724590748E+02 -0.39333676605E+02 -0.70846155877E+03  0.71182868021E+03  0.41800000000E+01 0.  1.
        -11    1    1    2    0    0  0.24024397581E+02  0.48109640860E+02  0.39681759001E+02  0.66830765522E+02  0.00000000000E+00 0.  1.
         11    1    1    2    0    0 -0.38249157509E+02 -0.19274611861E+02  0.18216095250E+02  0.46543902272E+02  0.00000000000E+00 0. -1.
</event>
<event>
 7    1  0.2840156E-009  0.3233472E+03  0.7561462E-02  0.1074119E+00
         -3   -1    0    0    0  501 -0.00000000000E+00  0.00000000000E+00  0.37798041735E+03  0.37798041735E+03  0.00000000000E+00 0.  1.
          3   -1    0    0  501    0  0.00000000000E+00 -0.00000000000E+00 -0.51951860955E+03  0.51951860955E+03  0.00000000000E+00 0. -1.
         25    2    1    2    0    0  0.19379096495E+03 -0.24234937615E+03 -0.37384685173E+03  0.50169401443E+03  0.12508899772E+03 0.  0.
          5    1    3    3  502    0  0.70475667274E+02 -0.19380628950E+02 -0.46029017495E+02  0.86478733269E+02  0.41800000000E+01 0. -1.
         -5    1    3    3    0  502  0.12331529768E+03 -0.22296874720E+03 -0.32781783424E+03  0.41521528116E+03  0.41800000000E+01 0. -1.
        -11    1    1    2    0    0 -0.73421997706E+02  0.41075174688E+02  0.43413279308E+02  0.94671392422E+02  0.00000000000E+00 0.  1.
         11    1    1    2    0    0 -0.12036896725E+03  0.20127420146E+03  0.18889538023E+03  0.30113362005E+03  0.00000000000E+00 0. -1.
</event>
<event>
 7    1  0.2840156E-009  0.8857512E+02  0.7561462E-02  0.1306339E+00
          1   -1    0    0  501    0  0.00000000000E+00  0.00000000000E+00  0.38438293248E+02  0.38438293248E+02  0.00000000000E+00 0. -1.
         -1   -1    0    0    0  501 -0.00000000000E+00 -0.00000000000E+00 -0.32596416544E+03  0.32596416544E+03  0.00000000000E+00 0.  1.
         25    2    1    2    0    0 -0.95033522738E+01 -0.25080403260E+02 -0.19101201692E+03  0.22989699819E+03  0.12509076239E+03 0.  0.
          5    1    3    3  502    0  0.15895079620E+02 -0.63870386069E+02 -0.16233360418E+03  0.17521915198E+03  0.41800000000E+01 0.  1.
         -5    1    3    3    0  502 -0.25398431893E+02  0.38789982809E+02 -0.28678412739E+02  0.54677846210E+02  0.41800000000E+01 0.  1.
        -11    1    1    2    0    0 -0.24841456937E+02  0.68805999027E+01 -0.91801622321E+02  0.95351866781E+02  0.00000000000E+00 0.  1.
         11    1    1    2    0    0  0.34344809210E+02  0.18199803357E+02 -0.47122329529E+01  0.39153593722E+02  0.00000000000E+00 0. -1.
</event>
<event>
 7    1  0.2840156E-009  0.1143305E+03  0.7561462E-02  0.1252754E+00
         -1   -1    0    0    0  501 -0.00000000000E+00  0.00000000000E+00  0.70110859329E+02  0.70110859329E+02  0.00000000000E+00 0.  1.
          1   -1    0    0  501    0  0.00000000000E+00 -0.00000000000E+00 -0.51416044270E+03  0.51416044270E+03  0.00000000000E+00 0. -1.
         25    2    1    2    0    0  0.30503457200E+02  0.41810339834E+02 -0.80270368327E+01  0.13561065980E+03  0.12508897759E+03 0.  0.
          5    1    3    3  502    0  0.38041965736E+02  0.78657231749E+02 -0.29236989359E+02  0.92230283586E+02  0.41800000000E+01 0. -1.
         -5    1    3    3    0  502 -0.75385085360E+01 -0.36846891915E+02  0.21209952526E+02  0.43380376219E+02  0.41800000000E+01 0. -1.
        -11    1    1    2    0    0  0.31952116968E+02 -0.11883531979E+02 -0.10239453562E+03  0.10792032726E+03  0.00000000000E+00 0.  1.
         11    1    1    2    0    0 -0.62455574167E+02 -0.29926807855E+02 -0.33362801092E+03  0.34074031496E+03  0.00000000000E+00 0. -1.
</event>
<event>
 7    1  0.2840156E-009  0.1695148E+03  0.7561462E-02  0.1178355E+00
          1   -1    0    0  501    0  0.00000000000E+00  0.00000000000E+00  0.18886571019E+04  0.18886571019E+04  0.00000000000E+00 0. -1.
         -1   -1    0    0    0  501 -0.00000000000E+00 -0.00000000000E+00 -0.21227772797E+02  0.21227772797E+02  0.00000000000E+00 0.  1.
         25    2    1    2    0    0  0.16393133890E+03  0.22823562012E+02  0.11641140857E+04  0.11824556968E+04  0.12508185925E+03 0.  0.
          5    1    3    3  502    0  0.98030016366E+02  0.38422051602E+02  0.98993687563E+03  0.99552932066E+03  0.41800000000E+01 0. -1.
         -5    1    3    3    0  502  0.65901322537E+02 -0.15598489589E+02  0.17417721006E+03  0.18692637613E+03  0.41800000000E+01 0. -1.
        -11    1    1    2    0    0 -0.52505897763E+02 -0.11962402748E+02  0.97749091456E+02  0.11160131388E+03  0.00000000000E+00 0.  1.
         11    1    1    2    0    0 -0.11142544114E+03 -0.10861159264E+02  0.60556615194E+03  0.61582786401E+03  0.00000000000E+00 0. -1.
</event>
<event>
 7    1  0.2840156E-009  0.1712648E+03  0.7561462E-02  0.1176535E+00
          2   -1    0    0  501    0  0.00000000000E+00  0.00000000000E+00  0.84821703962E+03  0.84821703962E+03  0.00000000000E+00 0. -1.
         -2   -1    0    0    0  501 -0.00000000000E+00 -0.00000000000E+00 -0.39854783370E+02  0.39854783370E+02  0.00000000000E+00 0.  1.
         25    2    1    2    0    0  0.22252148965E+02 -0.14624113351E+03  0.42741097350E+03  0.46926871158E+03  0.12510538010E+03 0.  0.
          5    1    3    3  502    0  0.58030301790E+02 -0.75092643613E+02  0.12787227004E+03  0.15929598518E+03  0.41800000000E+01 0. -1.
         -5    1    3    3    0  502 -0.35778152825E+02 -0.71148489897E+02  0.29953870346E+03  0.30997272639E+03  0.41800000000E+01 0. -1.
        -11    1    1    2    0    0 -0.22977599091E+02  0.14801859218E+01  0.10153768400E+03  0.10411561978E+03  0.00000000000E+00 0. -1.
         11    1    1    2    0    0  0.72545012632E+00  0.14476094759E+03  0.27941359874E+03  0.31468749162E+03  0.00000000000E+00 0.  1.
</event>
<event>
 7    1  0.2840156E-009  0.1036924E+03  0.7561462E-02  0.1272717E+00
         -1   -1    0    0    0  501 -0.00000000000E+00  0.00000000000E+00  0.37748030841E+02  0.37748030841E+02  0.00000000000E+00 0.  1.
          1   -1    0    0  501    0  0.00000000000E+00 -0.00000000000E+00 -0.67383032555E+03  0.67383032555E+03  0.00000000000E+00 0. -1.
         25    2    1    2    0    0 -0.84645434846E+02 -0.51398508523E+02 -0.48106708530E+03  0.50683327001E+03  0.12509103368E+03 0.  0.
          5    1    3    3  502    0 -0.45221718021E+02 -0.45672220387E+02 -0.75276906583E+02  0.99070886543E+02  0.41800000000E+01 0. -1.
         -5    1    3    3    0  502 -0.39423716825E+02 -0.57262881358E+01 -0.40579017872E+03  0.40776238346E+03  0.41800000000E+01 0. -1.
        -11    1    1    2    0    0  0.14997713195E+02  0.23531651876E+02  0.46930259994E+01  0.28296546328E+02  0.00000000000E+00 0.  1.
         11    1    1    2    0    0  0.69647721651E+02  0.27866856647E+02 -0.15970823541E+03  0.17644854006E+03  0.00000000000E+00 0. -1.
</event>
<event>
 7    1  0.2840156E-009  0.1415919E+03  0.7561462E-02  0.1211203E+00
         -2   -1    0    0    0  501 -0.00000000000E+00  0.00000000000E+00  0.38081550935E+02  0.38081550935E+02  0.00000000000E+00 0.  1.
          2   -1    0    0  501    0  0.00000000000E+00 -0.00000000000E+00 -0.74477496466E+03  0.74477496466E+03  0.00000000000E+00 0. -1.
         25    2    1    2    0    0 -0.53071497870E+02  0.84037650532E+02 -0.56360885541E+03  0.58581634456E+03  0.12508771747E+03 0.  0.
          5    1    3    3  502    0 -0.85761115123E+02  0.44295755075E+02 -0.46023780619E+03  0.47026949022E+03  0.41800000000E+01 0.  1.
         -5    1    3    3    0  502  0.32689617254E+02  0.39741895456E+02 -0.10337104922E+03  0.11554685434E+03  0.41800000000E+01 0.  1.
        -11    1    1    2    0    0  0.99452484081E+01 -0.90750878055E+02 -0.88470203516E+02  0.12712830819E+03  0.00000000000E+00 0. -1.
         11    1    1    2    0    0  0.43126249461E+02  0.67132275231E+01 -0.54614354798E+02  0.69911862845E+02  0.00000000000E+00 0.  1.
</event>
<event>
 7    1  0.2840156E-009  0.1681477E+03  0.7561462E-02  0.1179793E+00
          1   -1    0    0  501    0  0.00000000000E+00  0.00000000000E+00  0.31032545497E+03  0.31032545497E+03  0.00000000000E+00 0. -1.
         -1   -1    0    0    0  501 -0.00000000000E+00 -0.00000000000E+00 -0.13527955282E+03  0.13527955282E+03  0.00000000000E+00 0.  1.
         25    2    1    2    0    0 -0.82233712943E+02  0.13786985699E+03  0.17494400996E+02  0.20426467721E+03  0.12509006067E+03 0.  0.
          5    1    3    3  502    0 -0.52167010092E+02  0.13085118020E+03 -0.33176571380E+02  0.14478116448E+03  0.41800000000E+01 0.  1.
         -5    1    3    3    0  502 -0.30066702851E+02  0.70186767914E+01  0.50670972376E+02  0.59483512722E+02  0.41800000000E+01 0.  1.
        -11    1    1    2    0    0  0.53708891832E+02 -0.56360025041E+02  0.12846909435E+03  0.15021786074E+03  0.00000000000E+00 0. -1.
         11    1    1    2    0    0  0.28524821111E+02 -0.81509831948E+02  0.29082406816E+02  0.91122469841E+02  0.00000000000E+00 0.  1.
</event>
<event>
 7    1  0.2840156E-009  0.2338640E+03  0.7561462E-02  0.1123949E+00
          2   -1    0    0  501    0  0.00000000000E+00  0.00000000000E+00  0.31894724676E+03  0.31894724676E+03  0.00000000000E+00 0. -1.
         -2   -1    0    0    0  501 -0.00000000000E+00 -0.00000000000E+00 -0.19638877013E+03  0.19638877013E+03  0.00000000000E+00 0.  1.
         25    2    1    2    0    0 -0.18543229240E+03  0.12386701819E+03  0.30929128851E+02  0.25754821119E+03  0.12508515825E+03 0.  0.
          5    1    3    3  502    0 -0.12177353032E+03  0.21140009196E+02  0.53142223811E+02  0.13460037528E+03  0.41800000000E+01 0.  1.
         -5    1    3    3    0  502 -0.63658762088E+02  0.10272700900E+03 -0.22213094960E+02  0.12294783591E+03  0.41800000000E+01 0.  1.
        -11    1    1    2    0    0  0.37077920871E+02 -0.28635224864E+02 -0.18003616053E+02  0.50188430043E+02  0.00000000000E+00 0.  1.
         11    1    1    2    0    0  0.14835437153E+03 -0.95231793327E+02  0.10963296383E+03  0.20759937565E+03  0.00000000000E+00 0. -1.
</event>
<event>
 7    1  0.2840156E-009  0.1582040E+03  0.7561462E-02  0.1190739E+00
         -2   -1    0    0    0  501 -0.00000000000E+00  0.00000000000E+00  0.17281043698E+02  0.17281043698E+02  0.00000000000E+00 0.  1.
          2   -1    0    0  501    0  0.00000000000E+00 -0.00000000000E+00 -0.23622910903E+04  0.23622910903E+04  0.00000000000E+00 0. -1.
         25    2    1    2    0    0  0.82464097122E+02 -0.99861527241E+02 -0.18139162202E+04  0.18228305450E+04  0.12508593078E+03 0.  0.
          5    1    3    3  502    0  0.29362535045E+01 -0.77001696966E+02 -0.12990724730E+04  0.13013626111E+04  0.41800000000E+01 0.  1.
         -5    1    3    3    0  502  0.79527843618E+02 -0.22859830275E+02 -0.51484374717E+03  0.52146793396E+03  0.41800000000E+01 0.  1.
        -11    1    1    2    0    0  0.18879129488E+02  0.18346472128E+02 -0.34485883152E+02  0.43385374339E+02  0.00000000000E+00 0.  1.
         11    1    1    2    0    0 -0.10134322661E+03  0.81515055113E+02 -0.49660794322E+03  0.51335621459E+03  0.00000000000E+00 0. -1.
</event>
<event>
 7    1  0.2840156E-009  0.6127657E+02  0.7561462E-02  0.1392551E+00
          1   -1    0    0  501    0  0.00000000000E+00  0.00000000000E+00  0.35016590753E+03  0.35016590753E+03  0.00000000000E+00 0. -1.
         -1   -1    0    0    0  501 -0.00000000000E+00 -0.00000000000E+00 -0.35092834531E+02  0.35092834531E+02  0.00000000000E+00 0.  1.
         25    2    1    2    0    0  0.32298961550E+01  0.13775453800E+02  0.14849206964E+03  0.19467316420E+03  0.12509017051E+03 0.  0.
          5    1    3    3  502    0  0.48083535819E+01  0.21170723473E+02  0.17003282935E+03  0.17146415151E+03  0.41800000000E+01 0.  1.
         -5    1    3    3    0  502 -0.15784574269E+01 -0.73952696732E+01 -0.21540759709E+02  0.23209012694E+02  0.41800000000E+01 0.  1.
        -11    1    1    2    0    0  0.39372801809E+02 -0.26359504486E+02  0.98342276907E+02  0.10916155196E+03  0.00000000000E+00 0.  1.
         11    1    1    2    0    0 -0.42602697964E+02  0.12584050686E+02  0.68238726455E+02  0.81424025899E+02  0.00000000000E+00 0. -1.
</event>
<event>
 7    1  0.2840156E-009  0.1022792E+03  0.7561462E-02  0.1275575E+00
          1   -1    0    0  501    0  0.00000000000E+00  0.00000000000E+00  0.37046997184E+03  0.37046997184E+03  0.00000000000E+00 0. -1.
         -1   -1    0    0    0  501 -0.00000000000E+00 -0.00000000000E+00 -0.52160508682E+02  0.52160508682E+02  0.00000000000E+00 0.  1.
         25    2    1    2    0    0  0.34012749795E+01 -0.77091566252E+02  0.91990463603E+02  0.17339312143E+03  0.12509296905E+03 0.  0.
          5    1    3    3  502    0 -0.34651957861E+02 -0.79252062469E+02  0.10196309819E+03  0.13377441228E+03  0.41800000000E+01 0.  1.
         -5    1    3    3    0  502  0.38053232840E+02  0.21604962173E+01 -0.99726345875E+01  0.39618709142E+02  0.41800000000E+01 0.  1.
        -11    1    1    2    0    0 -0.11640913151E+02  0.43527374011E+02  0.41637932937E+02  0.61350310566E+02  0.00000000000E+00 0.  1.
         11    1    1    2    0    0  0.82396381719E+01  0.33564192241E+02  0.18468106661E+03  0.18788704853E+03  0.00000000000E+00 0. -1.
</event>
<event>
 7    1  0.2840156E-009  0.1053823E+03  0.7561462E-02  0.1269368E+00
         -2   -1    0    0    0  501 -0.00000000000E+00  0.00000000000E+00  0.10235924999E+03  0.10235924999E+03  0.00000000000E+00 0.  1.
          2   -1    0    0  501    0  0.00000000000E+00 -0.00000000000E+00 -0.13230749191E+03  0.13230749191E+03  0.00000000000E+00 0. -1.
         25    2    1    2    0    0 -0.13638457285E+02 -0.30985446224E+02  0.10556580524E+02  0.13003806532E+03  0.12510935874E+03 0.  0.
          5    1    3    3  502    0 -0.30060882578E+02 -0.72770400731E+02  0.24961223387E+02  0.82702617594E+02  0.41800000000E+01 0. -1.
         -5    1    3    3    0  502  0.16422425293E+02  0.41784954507E+02 -0.14404642863E+02  0.47335447728E+02  0.41800000000E+01 0. -1.
        -11    1    1    2    0    0  0.44562579503E+02  0.22581823392E+01 -0.43498614295E+02  0.62314142255E+02  0.00000000000E+00 0. -1.
         11    1    1    2    0    0 -0.30924122218E+02  0.28727263885E+02  0.29937918538E+01  0.42314534322E+02  0.00000000000E+00 0.  1.
</event>
<event>
 7    1  0.5366395E-009  0.1389407E+03  0.7561462E-02  0.1214761E+00
          1   -1    0    0  501    0  0.00000000000E+00  0.00000000000E+00  0.82084339182E+03  0.82084339182E+03  0.00000000000E+00 0. -1.
         -1   -1    0    0    0  501 -0.00000000000E+00 -0.00000000000E+00 -0.27971916640E+02  0.27971916640E+02  0.00000000000E+00 0.  1.
         25    2    1    2    0    0  0.71681738195E+02  0.76070081577E+02  0.39718680201E+03  0.42933632461E+03  0.12508954808E+03 0.  0.
          5    1    3    3  502    0 -0.17205356060E+01 -0.31947866107E+02  0.73429168826E+02  0.80205620913E+02  0.41800000000E+01 0.  1.
         -5    1    3    3    0  502  0.73402273801E+02  0.10801794768E+03  0.32375763318E+03  0.34913070370E+03  0.41800000000E+01 0.  1.
        -11    1    1    2    0    0 -0.21309705848E+02 -0.57403422625E+02  0.88407118880E+02  0.10754103943E+03  0.00000000000E+00 0.  1.
         11    1    1    2    0    0 -0.50372032347E+02 -0.18666658952E+02  0.30727755430E+03  0.31193794443E+03  0.00000000000E+00 0. -1.
</event>
<event>
 7    1  0.2840156E-009  0.9421243E+02  0.7561462E-02  0.1292960E+00
          1   -1    0    0  501    0  0.00000000000E+00  0.00000000000E+00  0.27714443351E+02  0.27714443351E+02  0.00000000000E+00 0. -1.
         -1   -1    0    0    0  501 -0.00000000000E+00 -0.00000000000E+00 -0.44193878107E+03  0.44193878107E+03  0.00000000000E+00 0.  1.
         25    2    1    2    0    0 -0.14754841794E+02 -0.44912931336E+01 -0.23116122080E+03  0.26328794107E+03  0.12508857999E+03 0.  0.
          5    1    3    3  502    0  0.33168959790E+02  0.32332396998E+02 -0.35633291000E+02  0.58589825198E+02  0.41800000000E+01 0.  1.
         -5    1    3    3    0  502 -0.47923801584E+02 -0.36823690132E+02 -0.19552792980E+03  0.20469811588E+03  0.41800000000E+01 0.  1.
        -11    1    1    2    0    0  0.31564507473E+02 -0.29633047870E+02 -0.42209912768E+02  0.60465795240E+02  0.00000000000E+00 0. -1.
         11    1    1    2    0    0 -0.16809665680E+02  0.34124341004E+02 -0.14085320416E+03  0.14589948811E+03  0.00000000000E+00 0.  1.
</event>
<event>
 7    1  0.2840156E-009  0.1074553E+03  0.7561462E-02  0.1265356E+00
          2   -1    0    0  501    0  0.00000000000E+00  0.00000000000E+00  0.88866884327E+02  0.88866884327E+02  0.00000000000E+00 0. -1.
         -2   -1    0    0    0  501 -0.00000000000E+00 -0.00000000000E+00 -0.14063138413E+03  0.14063138413E+03  0.00000000000E+00 0.  1.
         25    2    1    2    0    0  0.80418389310E+01  0.22925709483E+02 -0.46288532365E+02  0.13556031194E+03  0.12507482007E+03 0.  0.
          5    1    3    3  502    0  0.20483043059E+02  0.72838089295E+02 -0.28845482835E+02  0.81083146123E+02  0.41800000000E+01 0.  1.
         -5    1    3    3    0  502 -0.12441204128E+02 -0.49912379813E+02 -0.17443049530E+02  0.54477165818E+02  0.41800000000E+01 0.  1.
        -11    1    1    2    0    0  0.33184930287E+02  0.10112124741E+02  0.14304841299E+02  0.37524967015E+02  0.00000000000E+00 0. -1.
         11    1    1    2    0    0 -0.41226769218E+02 -0.33037834224E+02 -0.19780808741E+02  0.56412989504E+02  0.00000000000E+00 0.  1.
</event>
<event>
 7    1  0.2840156E-009  0.3217564E+03  0.7561462E-02  0.1074844E+00
         -2   -1    0    0    0  501 -0.00000000000E+00  0.00000000000E+00  0.90567207668E+02  0.90567207668E+02  0.00000000000E+00 0. -1.
          2   -1    0    0  501    0  0.00000000000E+00 -0.00000000000E+00 -0.13977743511E+04  0.13977743511E+04  0.00000000000E+00 0.  1.
         25    2    1    2    0    0 -0.14045188345E+03  0.27229116789E+03 -0.96376411019E+03  0.10189983031E+04  0.12508824894E+03 0.  0.
          5    1    3    3  502    0 -0.31924096118E+02  0.19207433946E+01 -0.17915265821E+03  0.18203292150E+03  0.41800000000E+01 0. -1.
         -5    1    3    3    0  502 -0.10852778733E+03  0.27037042449E+03 -0.78461145198E+03  0.83696538163E+03  0.41800000000E+01 0. -1.
        -11    1    1    2    0    0  0.54279713705E+02 -0.28478090260E+02 -0.65450830859E+02  0.89672181890E+02  0.00000000000E+00 0.  1.
         11    1    1    2    0    0  0.86172169744E+02 -0.24381307763E+03 -0.27799220241E+03  0.37967107377E+03  0.00000000000E+00 0. -1.
</event>
<event>
 7    1  0.2840156E-009  0.1122940E+03  0.7561462E-02  0.1256380E+00
          1   -1    0    0  501    0  0.00000000000E+00  0.00000000000E+00  0.15177490126E+03  0.15177490126E+03  0.00000000000E+00 0. -1.
         -1   -1    0    0    0  501 -0.00000000000E+00 -0.00000000000E+00 -0.11343415616E+03  0.11343415616E+03  0.00000000000E+00 0.  1.
         25    2    1    2    0    0  0.55999459652E+01  0.59433793982E+02 -0.22197049541E+02  0.14036901355E+03  0.12508803178E+03 0.  0.
          5    1    3    3  502    0  0.40173559211E+02 -0.69300800591E+01 -0.46120445601E+02  0.61696910553E+02  0.41800000000E+01 0.  1.
         -5    1    3    3    0  502 -0.34573613246E+02  0.66363874041E+02  0.23923396060E+02  0.78672102995E+02  0.41800000000E+01 0.  1.
        -11    1    1    2    0    0  0.41236641564E+02 -0.41512339633E+02  0.38636888216E+02  0.70118072423E+02  0.00000000000E+00 0.  1.
         11    1    1    2    0    0 -0.46836587529E+02 -0.17921454349E+02  0.21900906421E+02  0.54721971451E+02  0.00000000000E+00 0. -1.
</event>
<event>
 7    1  0.2840156E-009  0.1145651E+03  0.7561462E-02  0.1252342E+00
          1   -1    0    0  501    0  0.00000000000E+00  0.00000000000E+00  0.14307359371E+04  0.14307359371E+04  0.00000000000E+00 0. -1.
         -1   -1    0    0    0  501 -0.00000000000E+00 -0.00000000000E+00 -0.12389874553E+02  0.12389874553E+02  0.00000000000E+00 0.  1.
         25    2    1    2    0    0  0.22815044477E+02  0.82520584455E+02  0.95635794209E+03  0.96829575555E+03  0.12508390661E+03 0.  0.
          5    1    3    3  502    0  0.42505723824E+02  0.45050831831E+01  0.65330990831E+03  0.65472004783E+03  0.41800000000E+01 0. -1.
         -5    1    3    3    0  502 -0.19690679346E+02  0.78015501272E+02  0.30304803378E+03  0.31357570771E+03  0.41800000000E+01 0. -1.
        -11    1    1    2    0    0 -0.43831256165E+02 -0.46449370309E+02  0.21307196760E+03  0.22243737635E+03  0.00000000000E+00 0.  1.
         11    1    1    2    0    0  0.21016211688E+02 -0.36071214146E+02  0.24891615282E+03  0.25239267973E+03  0.00000000000E+00 0. -1.
</event>
<event>
 7    1  0.2840156E-009  0.1161503E+03  0.7561462E-02  0.1249586E+00
         -2   -1    0    0    0  501 -0.00000000000E+00  0.00000000000E+00  0.75344414435E+02  0.75344414435E+02  0.00000000000E+00 0.  1.
          2   -1    0    0  501    0  0.00000000000E+00 -0.00000000000E+00 -0.25848961612E+03  0.25848961612E+03  0.00000000000E+00 0. -1.
         25    2    1    2    0    0  0.90013797724E+02 -0.45998445198E+01 -0.12700004392E+03  0.19975170700E+03  0.12509232967E+03 0.  0.
          5    1    3    3  502    0  0.74120412403E+02  0.23964028621E+02 -0.10539911333E+02  0.78718945200E+02  0.41800000000E+01 0. -1.
         -5    1    3    3    0  502  0.15893385321E+02 -0.28563873141E+02 -0.11646013259E+03  0.12103276180E+03  0.41800000000E+01 0. -1.
        -11    1    1    2    0    0 -0.33462936620E+02  0.41877093430E+02 -0.30384114231E+02  0.61616990181E+02  0.00000000000E+00 0.  1.
         11    1    1    2    0    0 -0.56550861104E+02 -0.37277248910E+02 -0.25761043536E+02  0.72465333381E+02  0.00000000000E+00 0. -1.
</event>
<event>
 7    1  0.2840156E-009  0.9754918E+02  0.7561462E-02  0.1285536E+00
         -1   -1    0    0    0  501 -0.00000000000E+00  0.00000000000E+00  0.25792670648E+03  0.25792670648E+03  0.00000000000E+00 0.  1.
          1   -1    0    0  501    0  0.00000000000E+00 -0.00000000000E+00 -0.47424513563E+02  0.47424513563E+02  0.00000000000E+00 0. -1.
         25    2    1    2    0    0  0.92442120611E+01  0.20130654372E+02  0.10832433910E+03  0.16695267503E+03  0.12509330341E+03 0.  0.
          5    1    3    3  502    0  0.66538582617E+02  0.18882650103E+02  0.64779661618E+02  0.94856810040E+02  0.41800000000E+01 0. -1.
         -5    1    3    3    0  502 -0.57294370556E+02  0.12480042695E+01  0.43544677483E+02  0.72095864993E+02  0.41800000000E+01 0. -1.
        -11    1    1    2    0    0  0.17275918759E+02 -0.34206709250E+02  0.10136090767E+03  0.10836323145E+03  0.00000000000E+00 0.  1.
         11    1    1    2    0    0 -0.26520130820E+02  0.14076054878E+02  0.81694614607E+00  0.30035313560E+02  0.00000000000E+00 0. -1.
</event>
<event>
 7    1  0.2840156E-009  0.1378464E+03  0.7561462E-02  0.1216257E+00
          2   -1    0    0  501    0  0.00000000000E+00  0.00000000000E+00  0.37889716852E+03  0.37889716852E+03  0.00000000000E+00 0. -1.
         -2   -1    0    0    0  501 -0.00000000000E+00 -0.00000000000E+00 -0.89151552155E+02  0.89151552155E+02  0.00000000000E+00 0.  1.
         25    2    1    2    0    0 -0.10189001978E+03  0.58191993292E+02  0.38464242827E+02  0.17576946261E+03  0.12509005474E+03 0.  0.
          5    1    3    3  502    0 -0.10635326069E+03  0.65521879006E+02  0.69700266849E+02  0.14310741520E+03  0.41800000000E+01 0. -1.
         -5    1    3    3    0  502  0.44632409071E+01 -0.73298857137E+01 -0.31236024022E+02  0.32662047405E+02  0.41800000000E+01 0. -1.
        -11    1    1    2    0    0  0.35241687967E+02  0.18296978846E+02  0.33216172695E+02  0.51769393798E+02  0.00000000000E+00 0.  1.
         11    1    1    2    0    0  0.66648331812E+02 -0.76488972138E+02  0.21806520084E+03  0.24050986427E+03  0.00000000000E+00 0. -1.
</event>
<event>
 7    1  0.3131292E-009  0.1913381E+03  0.7561462E-02  0.1157260E+00
          2   -1    0    0  501    0  0.00000000000E+00  0.00000000000E+00  0.19879895288E+04  0.19879895288E+04  0.00000000000E+00 0. -1.
         -2   -1    0    0    0  501 -0.00000000000E+00 -0.00000000000E+00 -0.20902329602E+02  0.20902329602E+02  0.00000000000E+00 0.  1.
         25    2    1    2    0    0  0.11927651376E+03 -0.10424480315E+03  0.13596742353E+04  0.13745742658E+04  0.12508605234E+03 0.  0.
          5    1    3    3  502    0  0.85421580571E+02 -0.13238094319E+03  0.10697020568E+04  0.10812499819E+04  0.41800000000E+01 0.  1.
         -5    1    3    3    0  502  0.33854933185E+02  0.28136140036E+02  0.28997217846E+03  0.29332428395E+03  0.41800000000E+01 0.  1.
        -11    1    1    2    0    0 -0.10050129287E+02  0.63476158489E+02  0.26168344378E+03  0.26945955642E+03  0.00000000000E+00 0.  1.
         11    1    1    2    0    0 -0.10922638447E+03  0.40768644665E+02  0.34572952017E+03  0.36485803619E+03  0.00000000000E+00 0. -1.
</event>
<event>
 7    1  0.2840156E-009  0.1814535E+03  0.7561462E-02  0.1166404E+00
         -1   -1    0    0    0  501 -0.00000000000E+00  0.00000000000E+00  0.63844971047E+02  0.63844971047E+02  0.00000000000E+00 0.  1.
          1   -1    0    0  501    0  0.00000000000E+00 -0.00000000000E+00 -0.52512233734E+03  0.52512233734E+03  0.00000000000E+00 0. -1.
         25    2    1    2    0    0 -0.14660058743E+03  0.15049128841E+02 -0.27012621997E+03  0.33216542954E+03  0.12508992507E+03 0.  0.
          5    1    3    3  502    0 -0.14144946012E+03 -0.32043150945E+02 -0.19122420216E+03  0.24003933257E+03  0.41800000000E+01 0. -1.
         -5    1    3    3    0  502 -0.51511273087E+01  0.47092279787E+02 -0.78902017811E+02  0.92126096969E+02  0.41800000000E+01 0. -1.
        -11    1    1    2    0    0 -0.38148585410E+00 -0.23052990447E+02 -0.16281240623E+02  0.28225249268E+02  0.00000000000E+00 0.  1.
         11    1    1    2    0    0  0.14698207329E+03  0.80038616060E+01 -0.17486990570E+03  0.22857662957E+03  0.00000000000E+00 0. -1.
</event>
<event>
 7    1  0.2840156E-009  0.1006148E+03  0.7561462E-02  0.1279008E+00
         -1   -1    0    0    0  501 -0.00000000000E+00  0.00000000000E+00  0.50856174405E+02  0.50856174405E+02  0.00000000000E+00 0.  1.
          1   -1    0    0  501    0  0.00000000000E+00 -0.00000000000E+00 -0.31335122384E+03  0.31335122384E+03  0.00000000000E+00 0. -1.
         25    2    1    2    0    0 -0.29303590275E+02  0.26631672017E+02 -0.71085169371E+02  0.14922700566E+03  0.12509057341E+03 0.  0.
          5    1    3    3  502    0 -0.55381247637E+02  0.55722645362E+02 -0.76294358198E+02  0.10959195814E+03  0.41800000000E+01 0. -1.
         -5    1    3    3    0  502  0.26077657362E+02 -0.29090973344E+02  0.52091888276E+01  0.39635047519E+02  0.41800000000E+01 0. -1.
        -11    1    1    2    0    0  0.35452685534E+01 -0.49012926400E+02 -0.52374143547E+02  0.71818429360E+02  0.00000000000E+00 0.  1.
         11    1    1    2    0    0  0.25758321722E+02  0.22381254383E+02 -0.13903573651E+03  0.14316196322E+03  0.00000000000E+00 0. -1.
</event>
<event>
 7    1  0.2840156E-009  0.8070094E+02  0.7561462E-02  0.1327074E+00
         -1   -1    0    0    0  501 -0.00000000000E+00  0.00000000000E+00  0.41267003263E+02  0.41267003263E+02  0.00000000000E+00 0.  1.
          1   -1    0    0  501    0  0.00000000000E+00 -0.00000000000E+00 -0.56888908425E+03  0.56888908425E+03  0.00000000000E+00 0. -1.
         25    2    1    2    0    0  0.53532093992E+02  0.24537525582E+02 -0.45097703521E+03  0.47169232923E+03  0.12508234057E+03 0.  0.
          5    1    3    3  502    0  0.71678715325E+02  0.25390721310E+02 -0.44592075540E+03  0.45237740820E+03  0.41800000000E+01 0.  1.
         -5    1    3    3    0  502 -0.18146621334E+02 -0.85319572811E+00 -0.50562798105E+01  0.19314921028E+02  0.41800000000E+01 0.  1.
        -11    1    1    2    0    0 -0.11831933731E+02 -0.21811014931E+02 -0.90965381179E+02  0.94289000426E+02  0.00000000000E+00 0. -1.
         11    1    1    2    0    0 -0.41700160260E+02 -0.27265106501E+01  0.14320335396E+02  0.44174757859E+02  0.00000000000E+00 0.  1.
</event>
<event>
 7    1  0.2840156E-009  0.1614257E+03  0.7561462E-02  0.1187097E+00
          2   -1    0    0  501    0  0.00000000000E+00  0.00000000000E+00  0.32214550364E+03  0.32214550364E+03  0.00000000000E+00 0. -1.
         -2   -1    0    0    0  501 -0.00000000000E+00 -0.00000000000E+00 -0.10407890405E+03  0.10407890405E+03  0.00000000000E+00 0.  1.
         25    2    1    2    0    0  0.16629690654E+02  0.14481275665E+03  0.12206786231E+03  0.22758478216E+03  0.12508792493E+03 0.  0.
          5    1    3    3  502    0 -0.41492032218E+01  0.40129954222E+01 -0.23141614734E+02  0.24214184937E+02  0.41800000000E+01 0.  1.
         -5    1    3    3    0  502  0.20778893875E+02  0.14079976123E+03  0.14520947705E+03  0.20337059723E+03  0.41800000000E+01 0.  1.
        -11    1    1    2    0    0 -0.40304162516E+02 -0.17665270319E+02  0.31487359876E+02  0.54110452997E+02  0.00000000000E+00 0.  1.
         11    1    1    2    0    0  0.23674471863E+02 -0.12714748633E+03  0.64511377394E+02  0.14452917253E+03  0.00000000000E+00 0. -1.
</event>
<event>
 7    1  0.2840156E-009  0.1146370E+03  0.7561462E-02  0.1252216E+00
         -1   -1    0    0    0  501 -0.00000000000E+00  0.00000000000E+00  0.58418383707E+02  0.58418383707E+02  0.00000000000E+00 0.  1.
          1   -1    0    0  501    0  0.00000000000E+00 -0.00000000000E+00 -0.28117806090E+03  0.28117806090E+03  0.00000000000E+00 0. -1.
         25    2    1    2    0    0  0.53834529005E+02 -0.11791290680E+02 -0.69519868566E+02  0.15335616854E+03  0.12509161144E+03 0.  0.
          5    1    3    3  502    0  0.91383880485E+02 -0.27863417372E+02 -0.49345725753E+02  0.10760974254E+03  0.41800000000E+01 0.  1.
         -5    1    3    3    0  502 -0.37549351479E+02  0.16072126691E+02 -0.20174142813E+02  0.45746425993E+02  0.41800000000E+01 0.  1.
        -11    1    1    2    0    0  0.18723015541E+01 -0.25488615088E+02 -0.91873330039E+02  0.95361857074E+02  0.00000000000E+00 0.  1.
         11    1    1    2    0    0 -0.55706830560E+02  0.37279905768E+02 -0.61366478589E+02  0.90878418998E+02  0.00000000000E+00 0. -1.
</event>
<event>
 7    1  0.2840156E-009  0.8710791E+02  0.7561462E-02  0.1310010E+00
          2   -1    0    0  501    0  0.00000000000E+00  0.00000000000E+00  0.33458562507E+03  0.33458562507E+03  0.00000000000E+00 0. -1.
         -2   -1    0    0    0  501 -0.00000000000E+00 -0.00000000000E+00 -0.45392687504E+02  0.45392687504E+02  0.00000000000E+00 0.  1.
         25    2    1    2    0    0 -0.20399975170E+02  0.43675532019E+02  0.11039110114E+03  0.17365979564E+03  0.12509124001E+03 0.  0.
          5    1    3    3  502    0 -0.37291428265E+02  0.63671639272E+02  0.16001888336E+02  0.75619184735E+02  0.41800000000E+01 0.  1.
         -5    1    3    3    0  502  0.16891453095E+02 -0.19996107254E+02  0.94389212805E+02  0.98040610906E+02  0.41800000000E+01 0.  1.
        -11    1    1    2    0    0  0.38758681924E+02 -0.19334047063E+02  0.16874349554E+03  0.17421368513E+03  0.00000000000E+00 0. -1.
         11    1    1    2    0    0 -0.18358706754E+02 -0.24341484955E+02  0.10058340882E+02  0.32104831798E+02  0.00000000000E+00 0.  1.
</event>
<event>
 7    1  0.2840156E-009  0.1057637E+03  0.7561462E-02  0.1268622E+00
         -2   -1    0    0    0  501 -0.00000000000E+00  0.00000000000E+00  0.27740093513E+02  0.27740093513E+02  0.00000000000E+00 0.  1.
          2   -1    0    0  501    0  0.00000000000E+00 -0.00000000000E+00 -0.44327270673E+03  0.44327270673E+03  0.00000000000E+00 0. -1.
         25    2    1    2    0    0 -0.16402582799E+02 -0.11077064718E+02 -0.27535295768E+03  0.30308131905E+03  0.12508912251E+03 0.  0.
          5    1    3    3  502    0 -0.20886272372E+02 -0.66605247687E+02 -0.17029616322E+03  0.18409440785E+03  0.41800000000E+01 0. -1.
         -5    1    3    3    0  502  0.44836895730E+01  0.55528182970E+02 -0.10505679446E+03  0.11898691120E+03  0.41800000000E+01 0. -1.
        -11    1    1    2    0    0 -0.83951606924E+01  0.43844297279E+02 -0.41145963360E+02  0.60710719217E+02  0.00000000000E+00 0.  1.
         11    1    1    2    0    0  0.24797743491E+02 -0.32767232562E+02 -0.99033692177E+02  0.10722076197E+03  0.00000000000E+00 0. -1.
</event>
<event>
 7    1  0.2840156E-009  0.1140789E+03  0.7561462E-02  0.1253198E+00
          2   -1    0    0  501    0  0.00000000000E+00  0.00000000000E+00  0.11097216612E+04  0.11097216612E+04  0.00000000000E+00 0. -1.
         -2   -1    0    0    0  501 -0.00000000000E+00 -0.00000000000E+00 -0.28338346196E+02  0.28338346196E+02  0.00000000000E+00 0.  1.
         25    2    1    2    0    0 -0.16332321335E+02 -0.10364756570E+03  0.87410052975E+03  0.88921867682E+03  0.12509419054E+03 0.  0.
          5    1    3    3  502    0 -0.10324537928E+02  0.60517030570E+01  0.57220112241E+01  0.13908019477E+02  0.41800000000E+01 0. -1.
         -5    1    3    3    0  502 -0.60077834073E+01 -0.10969926876E+03  0.86837851852E+03  0.87531065734E+03  0.41800000000E+01 0. -1.
        -11    1    1    2    0    0  0.38055832050E+01  0.60219380124E+02  0.19179511574E+03  0.20106273306E+03  0.00000000000E+00 0. -1.
         11    1    1    2    0    0  0.12526738130E+02  0.43428185580E+02  0.15487669488E+02  0.47778597480E+02  0.00000000000E+00 0.  1.
</event>
<event>
 7    1  0.2840156E-009  0.9302533E+02  0.7561462E-02  0.1295687E+00
          1   -1    0    0  501    0  0.00000000000E+00  0.00000000000E+00  0.15016270583E+03  0.15016270583E+03  0.00000000000E+00 0. -1.
         -1   -1    0    0    0  501 -0.00000000000E+00 -0.00000000000E+00 -0.82656253846E+02  0.82656253846E+02  0.00000000000E+00 0.  1.
         25    2    1    2    0    0 -0.20871522930E+02 -0.32354744591E+01  0.16804878535E+02  0.12796837477E+03  0.12508961682E+03 0.  0.
          5    1    3    3  502    0 -0.56615257155E+02  0.18822808957E+02 -0.28323903082E+02  0.66176290056E+02  0.41800000000E+01 0.  1.
         -5    1    3    3    0  502  0.35743734226E+02 -0.22058283416E+02  0.45128781616E+02  0.61792084718E+02  0.41800000000E+01 0.  1.
        -11    1    1    2    0    0  0.14762340096E+02  0.42140146936E+02  0.56406797995E+01  0.45005954467E+02  0.00000000000E+00 0. -1.
         11    1    1    2    0    0  0.61091828340E+01 -0.38904672477E+02  0.45060893654E+02  0.59844630439E+02  0.00000000000E+00 0.  1.
</event>
<event>
 7    1  0.2840156E-009  0.1200089E+03  0.7561462E-02  0.1243082E+00
         -2   -1    0    0    0  501 -0.00000000000E+00  0.00000000000E+00  0.43081332783E+02  0.43081332783E+02  0.00000000000E+00 0.  1.
          2   -1    0    0  501    0  0.00000000000E+00 -0.00000000000E+00 -0.43440688181E+03  0.43440688181E+03  0.00000000000E+00 0. -1.
         25    2    1    2    0    0  0.47424294806E+01 -0.69669908912E+02 -0.13598833672E+03  0.19752707936E+03  0.12509089699E+03 0.  0.
          5    1    3    3  502    0 -0.43056105191E+02 -0.24785010031E+01 -0.62968444584E+01  0.43784629855E+02  0.41800000000E+01 0.  1.
         -5    1    3    3    0  502  0.47798534672E+02 -0.67191407909E+02 -0.12969149226E+03  0.15374244950E+03  0.41800000000E+01 0.  1.
        -11    1    1    2    0    0  0.31415835405E+02 -0.43781001346E+01 -0.57941973243E+02  0.66055996990E+02  0.00000000000E+00 0. -1.
         11    1    1    2    0    0 -0.36158264886E+02  0.74048009047E+02 -0.19739523906E+03  0.21390513824E+03  0.00000000000E+00 0.  1.
</event>
<event>
 7    1  0.3443598E-009  0.1078289E+03  0.7561462E-02  0.1264644E+00
          2   -1    0    0  501    0  0.00000000000E+00  0.00000000000E+00  0.77146460137E+03  0.77146460137E+03  0.00000000000E+00 0.  1.
         -2   -1    0    0    0  501 -0.00000000000E+00 -0.00000000000E+00 -0.20151518664E+02  0.20151518664E+02  0.00000000000E+00 0. -1.
         25    2    1    2    0    0  0.52481738279E+01  0.42584791985E+02  0.55494911537E+03  0.57048766862E+03  0.12508657623E+03 0.  0.
          5    1    3    3  502    0 -0.34604916654E+01  0.86455972974E+02  0.33685156866E+03  0.34781181977E+03  0.41800000000E+01 0.  1.
         -5    1    3    3    0  502  0.87086654932E+01 -0.43871180989E+02  0.21809754671E+03  0.22267584885E+03  0.41800000000E+01 0.  1.
        -11    1    1    2    0    0 -0.38887591364E+02 -0.22316849447E+02  0.40590157454E+02  0.60480140653E+02  0.00000000000E+00 0. -1.
         11    1    1    2    0    0  0.33639417536E+02 -0.20267942537E+02  0.15577380987E+03  0.16064831076E+03  0.00000000000E+00 0.  1.
</event>
<event>
 7    1  0.2840156E-009  0.2398297E+03  0.7561462E-02  0.1119906E+00
         -3   -1    0    0    0  501 -0.00000000000E+00  0.00000000000E+00  0.84837668347E+03  0.84837668347E+03  0.00000000000E+00 0.  1.
          3   -1    0    0  501    0  0.00000000000E+00 -0.00000000000E+00 -0.79001122259E+02  0.79001122259E+02  0.00000000000E+00 0. -1.
         25    2    1    2    0    0 -0.20343132748E+03  0.76246767979E+02  0.23581837908E+03  0.34417474419E+03  0.12509225395E+03 0.  0.
          5    1    3    3  502    0 -0.18031547734E+03  0.10661668740E+03  0.17883649907E+03  0.27546461696E+03  0.41800000000E+01 0.  1.
         -5    1    3    3    0  502 -0.23115850138E+02 -0.30369919422E+02  0.56981880016E+02  0.68710127227E+02  0.41800000000E+01 0.  1.
        -11    1    1    2    0    0  0.16681645264E+03 -0.93539974015E+02  0.47453415715E+03  0.51162498171E+03  0.00000000000E+00 0. -1.
         11    1    1    2    0    0  0.36614874833E+02  0.17293206036E+02  0.59023024981E+02  0.71578079829E+02  0.00000000000E+00 0.  1.
</event>
<event>
 7    1  0.2840156E-009  0.8139553E+02  0.7561462E-02  0.1325137E+00
          1   -1    0    0  501    0  0.00000000000E+00  0.00000000000E+00  0.36140031343E+03  0.36140031343E+03  0.00000000000E+00 0. -1.
         -1   -1    0    0    0  501 -0.00000000000E+00 -0.00000000000E+00 -0.19700638294E+02  0.19700638294E+02  0.00000000000E+00 0.  1.
         25    2    1    2    0    0 -0.28183305171E+02 -0.18348312179E+02  0.28998138086E+03  0.31759617080E+03  0.12508863740E+03 0.  0.
          5    1    3    3  502    0 -0.23239118370E+02 -0.70806772798E+02  0.14135999772E+03  0.15985548802E+03  0.41800000000E+01 0.  1.
         -5    1    3    3    0  502 -0.49441868006E+01  0.52458460619E+02  0.14862138315E+03  0.15774068277E+03  0.41800000000E+01 0.  1.
        -11    1    1    2    0    0  0.19941498721E+02  0.67233043665E+01  0.21448263395E+02  0.30048197874E+02  0.00000000000E+00 0. -1.
         11    1    1    2    0    0  0.82418064503E+01  0.11625007812E+02  0.30270030873E+02  0.33456583048E+02  0.00000000000E+00 0.  1.
</event>
<event>
 7    1  0.2840156E-009  0.9082647E+02  0.7561462E-02  0.1300863E+00
         -3   -1    0    0    0  501 -0.00000000000E+00  0.00000000000E+00  0.67277100489E+02  0.67277100489E+02  0.00000000000E+00 0.  1.
          3   -1    0    0  501    0  0.00000000000E+00 -0.00000000000E+00 -0.27160219158E+03  0.27160219158E+03  0.00000000000E+00 0. -1.
         25    2    1    2    0    0  0.27459899886E+01 -0.54555124871E+02 -0.37759243439E+02  0.14162464194E+03  0.12509187275E+03 0.  0.
          5    1    3    3  502    0  0.33597118732E+02  0.15436110978E+02  0.23093263689E+02  0.43792820610E+02  0.41800000000E+01 0.  1.
         -5    1    3    3    0  502 -0.30851128743E+02 -0.69991235849E+02 -0.60852507128E+02  0.97831821327E+02  0.41800000000E+01 0.  1.
        -11    1    1    2    0    0  0.18735761517E+02  0.27894926972E+02 -0.73476701044E+01  0.34396859832E+02  0.00000000000E+00 0.  1.
         11    1    1    2    0    0 -0.21481751505E+02  0.26660197899E+02 -0.15921817755E+03  0.16285779030E+03  0.00000000000E+00 0. -1.
</event>
<event>
 7    1  0.2840156E-009  0.8871288E+02  0.7561462E-02  0.1305999E+00
         -1   -1    0    0    0  501 -0.00000000000E+00  0.00000000000E+00  0.54447039392E+02  0.54447039392E+02  0.00000000000E+00 0.  1.
          1   -1    0    0  501    0  0.00000000000E+00 -0.00000000000E+00 -0.23898250443E+03  0.23898250443E+03  0.00000000000E+00 0. -1.
         25    2    1    2    0    0  0.20964417954E+02 -0.19981737256E+02 -0.12914238766E+03  0.18210976655E+03  0.12508970436E+03 0.  0.
          5    1    3    3  502    0  0.37395788904E+02 -0.50437688025E+02 -0.17738457761E+02  0.65379895112E+02  0.41800000000E+01 0. -1.
         -5    1    3    3    0  502 -0.16431370951E+02  0.30455950769E+02 -0.11140392990E+03  0.11672987144E+03  0.41800000000E+01 0. -1.
        -11    1    1    2    0    0  0.91423261336E+01  0.41589662607E+02  0.24174155798E+01  0.42651214063E+02  0.00000000000E+00 0.  1.
         11    1    1    2    0    0 -0.30106744087E+02 -0.21607925352E+02 -0.57810492956E+02  0.68668563210E+02  0.00000000000E+00 0. -1.
</event>
<event>
 7    1  0.2840156E-009  0.1172785E+03  0.7561462E-02  0.1247655E+00
         -1   -1    0    0    0  501 -0.00000000000E+00  0.00000000000E+00  0.92508263311E+01  0.92508263311E+01  0.00000000000E+00 0.  1.
          1   -1    0    0  501    0  0.00000000000E+00 -0.00000000000E+00 -0.19017770425E+04  0.19017770425E+04  0.00000000000E+00 0. -1.
         25    2    1    2    0    0  0.55070101056E+02 -0.16912160393E+02 -0.13950109287E+04  0.14017927020E+04  0.12509416873E+03 0.  0.
          5    1    3    3  502    0 -0.28963247625E+02 -0.29694915401E+02 -0.75476039403E+03  0.75591096203E+03  0.41800000000E+01 0.  1.
         -5    1    3    3    0  502  0.84033348681E+02  0.12782755008E+02 -0.64025053465E+03  0.64588173997E+03  0.41800000000E+01 0.  1.
        -11    1    1    2    0    0  0.13320368095E+02  0.34639825133E+02 -0.14214995497E+03  0.14691480317E+03  0.00000000000E+00 0. -1.
         11    1    1    2    0    0 -0.68390469150E+02 -0.17727664740E+02 -0.35536533248E+03  0.36232036363E+03  0.00000000000E+00 0.  1.
</event>
<event>
 7    1  0.2840156E-009  0.1059284E+03  0.7561462E-02  0.1268301E+00
          1   -1    0    0  501    0  0.00000000000E+00  0.00000000000E+00  0.13542242071E+03  0.13542242071E+03  0.00000000000E+00 0. -1.
         -1   -1    0    0    0  501 -0.00000000000E+00 -0.00000000000E+00 -0.12140334051E+03  0.12140334051E+03  0.00000000000E+00 0.  1.
         25    2    1    2    0    0  0.57643384581E+02  0.12939817173E+02 -0.27798590158E+02  0.14110714821E+03  0.12509303341E+03 0.  0.
          5    1    3    3  502    0  0.75880833753E+02 -0.36284119874E+02 -0.27017925702E+02  0.88441387344E+02  0.41800000000E+01 0.  1.
         -5    1    3    3    0  502 -0.18237449172E+02  0.49223937047E+02 -0.78066445632E+00  0.52665760867E+02  0.41800000000E+01 0.  1.
        -11    1    1    2    0    0 -0.46883508366E+02 -0.29384822676E+02 -0.13550495366E+02  0.56966192475E+02  0.00000000000E+00 0.  1.
         11    1    1    2    0    0 -0.10759876215E+02  0.16445005504E+02  0.55368165732E+02  0.58752420535E+02  0.00000000000E+00 0. -1.
</event>
<event>
 7    1  0.2840156E-009  0.1500076E+03  0.7561462E-02  0.1200464E+00
          1   -1    0    0  501    0  0.00000000000E+00  0.00000000000E+00  0.88239448710E+03  0.88239448710E+03  0.00000000000E+00 0. -1.
         -1   -1    0    0    0  501 -0.00000000000E+00 -0.00000000000E+00 -0.30694428481E+02  0.30694428481E+02  0.00000000000E+00 0.  1.
         25    2    1    2    0    0  0.10870418336E+03 -0.10143642289E+02  0.61487354995E+03  0.63689493693E+03  0.12508471253E+03 0.  0.
          5    1    3    3  502    0 -0.25677360156E+02 -0.69568736763E+01  0.57010944150E+02  0.63051130592E+02  0.41800000000E+01 0.  1.
         -5    1    3    3    0  502  0.13438154352E+03 -0.31867686122E+01  0.55786260580E+03  0.57384380634E+03  0.41800000000E+01 0.  1.
        -11    1    1    2    0    0 -0.26437530273E+02 -0.35700216505E+02  0.49399327584E+02  0.66435999512E+02  0.00000000000E+00 0.  1.
         11    1    1    2    0    0 -0.82266653088E+02  0.45843858793E+02  0.18742718109E+03  0.20975797913E+03  0.00000000000E+00 0. -1.
</event>
<event>
 7    1  0.2840156E-009  0.1572805E+03  0.7561462E-02  0.1191802E+00
          1   -1    0    0  501    0  0.00000000000E+00  0.00000000000E+00  0.63947478912E+03  0.63947478912E+03  0.00000000000E+00 0. -1.
         -1   -1    0    0    0  501 -0.00000000000E+00 -0.00000000000E+00 -0.49012353481E+02  0.49012353481E+02  0.00000000000E+00 0.  1.
         25    2    1    2    0    0  0.66848972379E+01  0.13599951183E+03  0.34920435332E+03  0.39513394128E+03  0.12508635457E+03 0.  0.
          5    1    3    3  502    0 -0.57674645131E+01  0.15495850331E+03  0.25786315402E+03  0.30092570511E+03  0.41800000000E+01 0.  1.
         -5    1    3    3    0  502  0.12452361751E+02 -0.18958991483E+02  0.91341199298E+02  0.94208236160E+02  0.41800000000E+01 0.  1.
        -11    1    1    2    0    0 -0.76995088251E+01 -0.80919897372E+02  0.21959742935E+03  0.23415879912E+03  0.00000000000E+00 0. -1.
         11    1    1    2    0    0  0.10146115872E+01 -0.55079614460E+02  0.21660652967E+02  0.59194402207E+02  0.00000000000E+00 0.  1.
</event>
<event>
 7    1  0.2840156E-009  0.1160283E+03  0.7561462E-02  0.1249797E+00
         -1   -1    0    0    0  501 -0.00000000000E+00  0.00000000000E+00  0.77675283210E+02  0.77675283210E+02  0.00000000000E+00 0.  1.
          1   -1    0    0  501    0  0.00000000000E+00 -0.00000000000E+00 -0.25891601911E+03  0.25891601911E+03  0.00000000000E+00 0. -1.
         25    2    1    2    0    0  0.71464456204E+02 -0.16636547690E+02 -0.16048898790E+03  0.21630505083E+03  0.12508883466E+03 0.  0.
          5    1    3    3  502    0 -0.31727149749E+02  0.74873380226E+01 -0.68242458317E+02  0.75744160032E+02  0.41800000000E+01 0.  1.
         -5    1    3    3    0  502  0.10319160595E+03 -0.24123885713E+02 -0.92246529582E+02  0.14056089079E+03  0.41800000000E+01 0.  1.
        -11    1    1    2    0    0 -0.25406629196E+02  0.35255188527E+02  0.27178497408E+02  0.51255203117E+02  0.00000000000E+00 0.  1.
         11    1    1    2    0    0 -0.46057827008E+02 -0.18618640837E+02 -0.47930245412E+02  0.69031048381E+02  0.00000000000E+00 0. -1.
</event>
<event>
 7    1  0.4075675E-009  0.1965014E+03  0.7561462E-02  0.1152725E+00
         -2   -1    0    0    0  501 -0.00000000000E+00  0.00000000000E+00  0.95651532711E+02  0.95651532711E+02  0.00000000000E+00 0.  1.
          2   -1    0    0  501    0  0.00000000000E+00 -0.00000000000E+00 -0.66859268344E+03  0.66859268344E+03  0.00000000000E+00 0. -1.
         25    2    1    2    0    0  0.87321026091E+02  0.16337624958E+03 -0.49549167139E+03  0.54357679925E+03  0.12508788807E+03 0.  0.
          5    1    3    3  502    0  0.68018800212E+02  0.33953116829E+02 -0.92234591747E+02  0.11959959715E+03  0.41800000000E+01 0. -1.
         -5    1    3    3    0  502  0.19302225878E+02  0.12942313275E+03 -0.40325707964E+03  0.42397720209E+03  0.41800000000E+01 0. -1.
        -11    1    1    2    0    0 -0.33631924743E+02 -0.79942697479E+02  0.11410702792E+02  0.87476541886E+02  0.00000000000E+00 0.  1.
         11    1    1    2    0    0 -0.53689101347E+02 -0.83433552098E+02 -0.88860182133E+02  0.13319087502E+03  0.00000000000E+00 0. -1.
</event>
<event>
 7    1  0.2840156E-009  0.1718157E+03  0.7561462E-02  0.1175968E+00
          2   -1    0    0  501    0  0.00000000000E+00  0.00000000000E+00  0.22006321989E+03  0.22006321989E+03  0.00000000000E+00 0. -1.
         -2   -1    0    0    0  501 -0.00000000000E+00 -0.00000000000E+00 -0.15124586526E+03  0.15124586526E+03  0.00000000000E+00 0.  1.
         25    2    1    2    0    0  0.97789160189E+02  0.10749754362E+03  0.17189125898E+02  0.19251206404E+03  0.12508791716E+03 0.  0.
          5    1    3    3  502    0 -0.43113116475E+01  0.85705165087E+02 -0.35550242135E+01  0.85988797689E+02  0.41800000000E+01 0. -1.
         -5    1    3    3    0  502  0.10210047184E+03  0.21792378528E+02  0.20744150112E+02  0.10652326635E+03  0.41800000000E+01 0. -1.
        -11    1    1    2    0    0 -0.42679533908E+02 -0.82144781830E+02 -0.90312274265E+01  0.93010057872E+02  0.00000000000E+00 0.  1.
         11    1    1    2    0    0 -0.55109626281E+02 -0.25352761785E+02  0.60659456161E+02  0.85786963232E+02  0.00000000000E+00 0. -1.
</event>
<event>
 7    1  0.2840156E-009  0.1211185E+03  0.7561462E-02  0.1241263E+00
         -3   -1    0    0    0  501 -0.00000000000E+00  0.00000000000E+00  0.38404725097E+03  0.38404725097E+03  0.00000000000E+00 0. -1.
          3   -1    0    0  501    0  0.00000000000E+00 -0.00000000000E+00 -0.41567308913E+02  0.41567308913E+02  0.00000000000E+00 0.  1.
         25    2    1    2    0    0  0.62096312486E+02 -0.19933839590E+02  0.19583221972E+03  0.24135288104E+03  0.12509054688E+03 0.  0.
          5    1    3    3  502    0  0.38852391471E+02 -0.68239322555E+02  0.73124742873E+02  0.10738162732E+03  0.41800000000E+01 0. -1.
         -5    1    3    3    0  502  0.23243921015E+02  0.48305482965E+02  0.12270747685E+03  0.13397125372E+03  0.41800000000E+01 0. -1.
        -11    1    1    2    0    0 -0.45268205252E+02  0.54822470086E+02  0.78778700452E+02  0.10611690383E+03  0.00000000000E+00 0.  1.
         11    1    1    2    0    0 -0.16828107234E+02 -0.34888630496E+02  0.67869021886E+02  0.78144775018E+02  0.00000000000E+00 0. -1.
</event>
<event>
 7    1  0.2840156E-009  0.1026867E+03  0.7561462E-02  0.1274745E+00
          1   -1    0    0  501    0  0.00000000000E+00  0.00000000000E+00  0.45641214360E+03  0.45641214360E+03  0.00000000000E+00 0. -1.
         -1   -1    0    0    0  501 -0.00000000000E+00 -0.00000000000E+00 -0.40499663501E+02  0.40499663501E+02  0.00000000000E+00 0.  1.
         25    2    1    2    0    0  0.28355125293E+02 -0.57997871826E+02  0.32717857942E+03  0.35617538808E+03  0.12508924006E+03 0.  0.
          5    1    3    3  502    0 -0.28523360263E+02  0.94451281191E+01  0.19408156444E+03  0.19643807824E+03  0.41800000000E+01 0. -1.
         -5    1    3    3    0  502  0.56878485557E+02 -0.67442999945E+02  0.13309701497E+03  0.15973730984E+03  0.41800000000E+01 0. -1.
        -11    1    1    2    0    0 -0.42632177194E+02  0.21971232550E+02  0.89980029678E+02  0.10196393153E+03  0.00000000000E+00 0. -1.
         11    1    1    2    0    0  0.14277051900E+02  0.36026639276E+02 -0.12461289975E+01  0.38772487487E+02  0.00000000000E+00 0.  1.
</event>
<event>
 7    1  0.2840156E-009  0.1017997E+03  0.7561462E-02  0.1276556E+00
         -2   -1    0    0    0  501 -0.00000000000E+00  0.00000000000E+00  0.65236344255E+02  0.65236344255E+02  0.00000000000E+00 0.  1.
          2   -1    0    0  501    0  0.00000000000E+00 -0.00000000000E+00 -0.24824037824E+03  0.24824037824E+03  0.00000000000E+00 0. -1.
         25    2    1    2    0    0  0.56447092181E+02 -0.29885541986E+02 -0.12127417953E+03  0.18556656136E+03  0.12509237483E+03 0.  0.
          5    1    3    3  502    0  0.89173574783E+02 -0.27039238457E+02 -0.47442256669E+02  0.10464839690E+03  0.41800000000E+01 0. -1.
         -5    1    3    3    0  502 -0.32726482602E+02 -0.28463035293E+01 -0.73831922856E+02  0.80918164462E+02  0.41800000000E+01 0. -1.
        -11    1    1    2    0    0 -0.18189243846E+02  0.34171267957E+02 -0.77246645420E+02  0.86403520612E+02  0.00000000000E+00 0. -1.
         11    1    1    2    0    0 -0.38257848334E+02 -0.42857259709E+01  0.15516790955E+02  0.41506640527E+02  0.00000000000E+00 0.  1.
</event>
<event>
 7    1  0.2840156E-009  0.2201412E+03  0.7561462E-02  0.1133778E+00
          1   -1    0    0  501    0  0.00000000000E+00  0.00000000000E+00  0.51456058123E+03  0.51456058123E+03  0.00000000000E+00 0. -1.
         -1   -1    0    0    0  501 -0.00000000000E+00 -0.00000000000E+00 -0.11276138397E+03  0.11276138397E+03  0.00000000000E+00 0.  1.
         25    2    1    2    0    0 -0.12484650230E+03 -0.17508577983E+03  0.20113105569E+03  0.31991066569E+03  0.12508977986E+03 0.  0.
          5    1    3    3  502    0 -0.10425007628E+01 -0.29519753431E+02 -0.13294311364E+02  0.32660584274E+02  0.41800000000E+01 0.  1.
         -5    1    3    3    0  502 -0.12380400154E+03 -0.14556602640E+03  0.21442536705E+03  0.28725008142E+03  0.41800000000E+01 0.  1.
        -11    1    1    2    0    0  0.53687826689E+01  0.34045896251E+02 -0.15872998964E+00  0.34466970770E+02  0.00000000000E+00 0.  1.
         11    1    1    2    0    0  0.11947771963E+03  0.14103988358E+03  0.20082687156E+03  0.27294432873E+03  0.00000000000E+00 0. -1.
</event>
<event>
 7    1  0.2840156E-009  0.1851990E+03  0.7561462E-02  0.1162864E+00
          2   -1    0    0  501    0  0.00000000000E+00  0.00000000000E+00  0.78444592286E+02  0.78444592286E+02  0.00000000000E+00 0. -1.
         -2   -1    0    0    0  501 -0.00000000000E+00 -0.00000000000E+00 -0.61200412371E+03  0.61200412371E+03  0.00000000000E+00 0.  1.
         25    2    1    2    0    0  0.16246458046E+03  0.36537129880E+02 -0.42555000207E+03  0.47378279035E+03  0.12509047286E+03 0.  0.
          5    1    3    3  502    0  0.16096311389E+02 -0.32107887880E+02 -0.14986096204E+03  0.15416156476E+03  0.41800000000E+01 0. -1.
         -5    1    3    3    0  502  0.14636826907E+03  0.68645017760E+02 -0.27568904003E+03  0.31962122559E+03  0.41800000000E+01 0. -1.
        -11    1    1    2    0    0 -0.13624759111E+03 -0.47235469185E+02 -0.50901487857E+02  0.15292337002E+03  0.00000000000E+00 0.  1.
         11    1    1    2    0    0 -0.26216989348E+02  0.10698339305E+02 -0.57108041498E+02  0.63742555629E+02  0.00000000000E+00 0. -1.
</event>
<event>
 7    1  0.2840156E-009  0.1369975E+03  0.7561462E-02  0.1217427E+00
         -1   -1    0    0    0  501 -0.00000000000E+00  0.00000000000E+00  0.80113451398E+02  0.80113451398E+02  0.00000000000E+00 0.  1.
          1   -1    0    0  501    0  0.00000000000E+00 -0.00000000000E+00 -0.39002031366E+03  0.39002031366E+03  0.00000000000E+00 0. -1.
         25    2    1    2    0    0 -0.81646150321E+02 -0.70172142072E+02 -0.27862736904E+03  0.32384048334E+03  0.12509686043E+03 0.  0.
          5    1    3    3  502    0 -0.10625748607E+03 -0.39642658096E+02 -0.25165774368E+03  0.27606391658E+03  0.41800000000E+01 0.  1.
         -5    1    3    3    0  502  0.24611335749E+02 -0.30529483975E+02 -0.26969625364E+02  0.47776566761E+02  0.41800000000E+01 0.  1.
        -11    1    1    2    0    0  0.12588208050E+02  0.46333500925E+02 -0.51580447644E+02  0.70468424624E+02  0.00000000000E+00 0. -1.
         11    1    1    2    0    0  0.69057942271E+02  0.23838641147E+02  0.20300954422E+02  0.75824857091E+02  0.00000000000E+00 0.  1.
</event>
