<event>
 7    1  0.2666594E-009  0.1256907E+03  0.7561462E-02  0.1233994E+00
         -1   -1    0    0    0  501 -0.00000000000E+00  0.00000000000E+00  0.45932821610E+03  0.45932821610E+03  0.00000000000E+00 0.  1.
          1   -1    0    0  501    0  0.00000000000E+00 -0.00000000000E+00 -0.35203482822E+02  0.35203482822E+02  0.00000000000E+00 0. -1.
         25    2    1    2    0    0  0.60855397909E+02  0.19243506805E+02  0.20001663644E+03  0.24439278478E+03  0.12508991322E+03 0.  0.
          5    1    3    3  502    0  0.87820232836E+02 -0.22294561175E+02  0.13165109287E+03  0.15987158411E+03  0.41800000000E+01 0. -1.
         -5    1    3    3    0  502 -0.26964834927E+02  0.41538067980E+02  0.68365543567E+02  0.84521200662E+02  0.41800000000E+01 0. -1.
        -11    1    1    2    0    0  0.16983199624E+02  0.17950805875E+02  0.45045894969E+02  0.51378917414E+02  0.00000000000E+00 0.  1.
         11    1    1    2    0    0 -0.77838597533E+02 -0.37194312680E+02  0.17906220187E+03  0.19875999673E+03  0.00000000000E+00 0. -1.
</event>
<event>
 7    1  0.2666594E-009  0.9233141E+02  0.7561462E-02  0.1297302E+00
         -4   -1    0    0    0  501 -0.00000000000E+00  0.00000000000E+00  0.14115639557E+03  0.14115639557E+03  0.00000000000E+00 0.  1.
          4   -1    0    0  501    0  0.00000000000E+00 -0.00000000000E+00 -0.88078297069E+02  0.88078297069E+02  0.00000000000E+00 0. -1.
         25    2    1    2    0    0 -0.26185892014E+01 -0.63354479927E+01  0.54972940494E+02  0.13680709621E+03  0.12508861849E+03 0.  0.
          5    1    3    3  502    0 -0.50012941704E+02  0.30494596524E+02  0.48740936421E+02  0.76317534278E+02  0.41800000000E+01 0. -1.
         -5    1    3    3    0  502  0.47394352503E+02 -0.36830044517E+02  0.62320040725E+01  0.60489561935E+02  0.41800000000E+01 0. -1.
        -11    1    1    2    0    0 -0.23951573133E+02  0.23965467947E+02 -0.33417459745E+02  0.47589369877E+02  0.00000000000E+00 0. -1.
         11    1    1    2    0    0  0.26570162334E+02 -0.17630019955E+02  0.31522617749E+02  0.44838226546E+02  0.00000000000E+00 0.  1.
</event>
<event>
 7    1  0.2666594E-009  0.1290167E+03  0.7561462E-02  0.1228922E+00
         -1   -1    0    0    0  501 -0.00000000000E+00  0.00000000000E+00  0.22505062083E+03  0.22505062083E+03  0.00000000000E+00 0.  1.
          1   -1    0    0  501    0  0.00000000000E+00 -0.00000000000E+00 -0.11749881992E+03  0.11749881992E+03  0.00000000000E+00 0. -1.
         25    2    1    2    0    0 -0.19642551089E+02  0.10458003810E+03  0.12086680461E+03  0.20391072238E+03  0.12509190248E+03 0.  0.
          5    1    3    3  502    0 -0.14144347338E+02 -0.20074874371E+02 -0.63086297488E+01  0.25696971649E+02  0.41800000000E+01 0. -1.
         -5    1    3    3    0  502 -0.54982037513E+01  0.12465491247E+03  0.12717543435E+03  0.17821375073E+03  0.41800000000E+01 0. -1.
        -11    1    1    2    0    0 -0.39184591937E+01 -0.24185314272E+02 -0.43223000208E+02  0.49684117139E+02  0.00000000000E+00 0. -1.
         11    1    1    2    0    0  0.23561010283E+02 -0.80394723823E+02  0.29907996519E+02  0.88954601230E+02  0.00000000000E+00 0.  1.
</event>
<event>
 7    1  0.2997015E-009  0.1722663E+03  0.7561462E-02  0.1175505E+00
          4   -1    0    0  501    0  0.00000000000E+00  0.00000000000E+00  0.88889753282E+03  0.88889753282E+03  0.00000000000E+00 0. -1.
         -4   -1    0    0    0  501 -0.00000000000E+00 -0.00000000000E+00 -0.46040699896E+02  0.46040699896E+02  0.00000000000E+00 0.  1.
         25    2    1    2    0    0 -0.17316536361E+02  0.16747742730E+03  0.37743391462E+03  0.43180128028E+03  0.12508970646E+03 0.  0.
          5    1    3    3  502    0 -0.30469707083E+02  0.58369438950E+02  0.40599174334E+02  0.77467153102E+02  0.41800000000E+01 0. -1.
         -5    1    3    3    0  502  0.13153170722E+02  0.10910798835E+03  0.33683474029E+03  0.35433412718E+03  0.41800000000E+01 0. -1.
        -11    1    1    2    0    0  0.90542210877E+01 -0.12354554526E+03  0.20985947374E+03  0.24369341270E+03  0.00000000000E+00 0.  1.
         11    1    1    2    0    0  0.82623152731E+01 -0.43931882045E+02  0.25556344457E+03  0.25944353974E+03  0.00000000000E+00 0. -1.
</event>
<event>
 7    1  0.2666594E-009  0.9560076E+02  0.7561462E-02  0.1289829E+00
          2   -1    0    0  501    0  0.00000000000E+00  0.00000000000E+00  0.63088474757E+02  0.63088474757E+02  0.00000000000E+00 0. -1.
         -2   -1    0    0    0  501 -0.00000000000E+00 -0.00000000000E+00 -0.24367766935E+03  0.24367766935E+03  0.00000000000E+00 0.  1.
         25    2    1    2    0    0  0.77653171242E+01  0.11553077147E+02 -0.28036311598E+02  0.12894755916E+03  0.12509062516E+03 0.  0.
          5    1    3    3  502    0 -0.43449341611E+02  0.21800662038E+02 -0.52021446326E+02  0.71321928112E+02  0.41800000000E+01 0. -1.
         -5    1    3    3    0  502  0.51214658736E+02 -0.10247584891E+02  0.23985134728E+02  0.57625631046E+02  0.41800000000E+01 0. -1.
        -11    1    1    2    0    0  0.31732999948E+02  0.21648778762E+02 -0.50369240633E+02  0.63345981005E+02  0.00000000000E+00 0.  1.
         11    1    1    2    0    0 -0.39498317072E+02 -0.33201855908E+02 -0.10218364237E+03  0.11447260395E+03  0.00000000000E+00 0. -1.
</event>
<event>
 7    1  0.2666594E-009  0.1011528E+03  0.7561462E-02  0.1277890E+00
          1   -1    0    0  501    0  0.00000000000E+00  0.00000000000E+00  0.53496872910E+03  0.53496872910E+03  0.00000000000E+00 0. -1.
         -1   -1    0    0    0  501 -0.00000000000E+00 -0.00000000000E+00 -0.26933418937E+02  0.26933418937E+02  0.00000000000E+00 0.  1.
         25    2    1    2    0    0  0.47410290670E+02 -0.16788643184E+02  0.25450571439E+03  0.28800971921E+03  0.12508735148E+03 0.  0.
          5    1    3    3  502    0  0.93471923565E+01 -0.54755311385E+02  0.21243256468E+03  0.21961461942E+03  0.41800000000E+01 0.  1.
         -5    1    3    3    0  502  0.38063098314E+02  0.37966668201E+02  0.42073149709E+02  0.68395099780E+02  0.41800000000E+01 0.  1.
        -11    1    1    2    0    0 -0.43247411801E+01  0.42356722296E+02  0.17965512457E+03  0.18463141416E+03  0.00000000000E+00 0. -1.
         11    1    1    2    0    0 -0.43085549490E+02 -0.25568079112E+02  0.73874471204E+02  0.89261014671E+02  0.00000000000E+00 0.  1.
</event>
<event>
 7    1  0.2666594E-009  0.1312357E+03  0.7561462E-02  0.1225634E+00
          1   -1    0    0  501    0  0.00000000000E+00  0.00000000000E+00  0.66495579473E+03  0.66495579473E+03  0.00000000000E+00 0. -1.
         -1   -1    0    0    0  501 -0.00000000000E+00 -0.00000000000E+00 -0.33589490886E+02  0.33589490886E+02  0.00000000000E+00 0.  1.
         25    2    1    2    0    0 -0.32252772871E+02  0.85151317616E+02  0.44896133393E+03  0.47487247158E+03  0.12508635676E+03 0.  0.
          5    1    3    3  502    0 -0.12926357591E+02 -0.25621851416E+02  0.32870534553E+02  0.43835082210E+02  0.41800000000E+01 0. -1.
         -5    1    3    3    0  502 -0.19326415280E+02  0.11077316903E+03  0.41609079938E+03  0.43103738937E+03  0.41800000000E+01 0. -1.
        -11    1    1    2    0    0  0.99121759204E+01 -0.95720254705E+02  0.10504423403E+03  0.14246020320E+03  0.00000000000E+00 0. -1.
         11    1    1    2    0    0  0.22340596951E+02  0.10568937089E+02  0.77360735880E+02  0.81212610839E+02  0.00000000000E+00 0.  1.
</event>
<event>
 7    1  0.5402192E-009  0.1315845E+03  0.7561462E-02  0.1225123E+00
         -1   -1    0    0    0  501 -0.00000000000E+00  0.00000000000E+00  0.59239513719E+02  0.59239513719E+02  0.00000000000E+00 0.  1.
          1   -1    0    0  501    0  0.00000000000E+00 -0.00000000000E+00 -0.35354408291E+03  0.35354408291E+03  0.00000000000E+00 0. -1.
         25    2    1    2    0    0 -0.92752054432E+02  0.27030529155E+01 -0.12811964853E+03  0.20167468812E+03  0.12509110837E+03 0.  0.
          5    1    3    3  502    0 -0.12305435448E+03 -0.63537081261E+01 -0.10842391184E+03  0.16418270561E+03  0.41800000000E+01 0.  1.
         -5    1    3    3    0  502  0.30302300049E+02  0.90567610416E+01 -0.19695736692E+02  0.37491982511E+02  0.41800000000E+01 0.  1.
        -11    1    1    2    0    0  0.14843386216E+02 -0.23086832785E+02 -0.11463990725E+01  0.27470751596E+02  0.00000000000E+00 0.  1.
         11    1    1    2    0    0  0.77908668216E+02  0.20383779869E+02 -0.16503852158E+03  0.18363815690E+03  0.00000000000E+00 0. -1.
</event>
<event>
 7    1  0.2666594E-009  0.1424453E+03  0.7561462E-02  0.1210076E+00
         -1   -1    0    0    0  501 -0.00000000000E+00  0.00000000000E+00  0.77783616926E+02  0.77783616926E+02  0.00000000000E+00 0.  1.
          1   -1    0    0  501    0  0.00000000000E+00 -0.00000000000E+00 -0.28726932387E+03  0.28726932387E+03  0.00000000000E+00 0. -1.
         25    2    1    2    0    0  0.95271502950E+02  0.33300835526E+02 -0.13879645786E+03  0.21236267739E+03  0.12509134706E+03 0.  0.
          5    1    3    3  502    0  0.12157755431E+03  0.48505188332E+01 -0.10608463206E+03  0.16148080630E+03  0.41800000000E+01 0.  1.
         -5    1    3    3    0  502 -0.26306051356E+02  0.28450316692E+02 -0.32711825799E+02  0.50881871084E+02  0.41800000000E+01 0.  1.
        -11    1    1    2    0    0 -0.94563620529E+02 -0.37769162458E+01 -0.24318002184E+02  0.97713400586E+02  0.00000000000E+00 0.  1.
         11    1    1    2    0    0 -0.70788242092E+00 -0.29523919280E+02 -0.46371246901E+02  0.54976862827E+02  0.00000000000E+00 0. -1.
</event>
<event>
 7    1  0.2666594E-009  0.1432372E+03  0.7561462E-02  0.1209038E+00
         -2   -1    0    0    0  501 -0.00000000000E+00  0.00000000000E+00  0.10468908849E+03  0.10468908849E+03  0.00000000000E+00 0.  1.
          2   -1    0    0  501    0  0.00000000000E+00 -0.00000000000E+00 -0.22106841238E+03  0.22106841238E+03  0.00000000000E+00 0. -1.
         25    2    1    2    0    0  0.47472992364E+02  0.97263851958E+02 -0.70909852979E+02  0.17997291561E+03  0.12509237068E+03 0.  0.
          5    1    3    3  502    0  0.22668978368E+02 -0.25166468735E+02  0.38322765120E+01  0.34342284026E+02  0.41800000000E+01 0.  1.
         -5    1    3    3    0  502  0.24804013995E+02  0.12243032069E+03 -0.74742129491E+02  0.14563063159E+03  0.41800000000E+01 0.  1.
        -11    1    1    2    0    0 -0.43343561872E+01 -0.81216719812E+02 -0.35243532402E+00  0.81333058662E+02  0.00000000000E+00 0.  1.
         11    1    1    2    0    0 -0.43138636177E+02 -0.16047132146E+02 -0.45117035587E+02  0.64451526603E+02  0.00000000000E+00 0. -1.
</event>
<event>
 7    1  0.2666594E-009  0.6432941E+02  0.7561462E-02  0.1380512E+00
          2   -1    0    0  501    0  0.00000000000E+00  0.00000000000E+00  0.52391669351E+03  0.52391669351E+03  0.00000000000E+00 0. -1.
         -2   -1    0    0    0  501 -0.00000000000E+00 -0.00000000000E+00 -0.26130055901E+02  0.26130055901E+02  0.00000000000E+00 0.  1.
         25    2    1    2    0    0  0.92430378360E+00 -0.46529111337E+02  0.20338073770E+03  0.24326295044E+03  0.12508927231E+03 0.  0.
          5    1    3    3  502    0 -0.15523002350E+01  0.58189064104E-02 -0.17203131048E+02  0.17771600596E+02  0.41800000000E+01 0. -1.
         -5    1    3    3    0  502  0.24766040186E+01 -0.46534930243E+02  0.22058386875E+03  0.22549134984E+03  0.41800000000E+01 0. -1.
        -11    1    1    2    0    0  0.26861436181E+02  0.41102304676E+02  0.24472852856E+03  0.24960566679E+03  0.00000000000E+00 0. -1.
         11    1    1    2    0    0 -0.27785739964E+02  0.54268066610E+01  0.49677371348E+02  0.57178132183E+02  0.00000000000E+00 0.  1.
</event>
<event>
 7    1  0.2666594E-009  0.9354826E+02  0.7561462E-02  0.1294480E+00
          2   -1    0    0  501    0  0.00000000000E+00  0.00000000000E+00  0.33149585407E+03  0.33149585407E+03  0.00000000000E+00 0. -1.
         -2   -1    0    0    0  501 -0.00000000000E+00 -0.00000000000E+00 -0.47717715422E+02  0.47717715422E+02  0.00000000000E+00 0.  1.
         25    2    1    2    0    0  0.62841110992E+02  0.41887671324E+01  0.14061109755E+03  0.19846608665E+03  0.12510298076E+03 0.  0.
          5    1    3    3  502    0 -0.15443485839E+01 -0.12754375036E+02  0.13026055362E+03  0.13095931935E+03  0.41800000000E+01 0.  1.
         -5    1    3    3    0  502  0.64385459576E+02  0.16943142168E+02  0.10350543931E+02  0.67506767298E+02  0.41800000000E+01 0.  1.
        -11    1    1    2    0    0  0.21973422759E+02 -0.35048529167E+00  0.13608094150E+02  0.25848295380E+02  0.00000000000E+00 0.  1.
         11    1    1    2    0    0 -0.84814533751E+02 -0.38382818407E+01  0.12955894695E+03  0.15489918746E+03  0.00000000000E+00 0. -1.
</event>
<event>
 7    1  0.2666594E-009  0.1424755E+03  0.7561462E-02  0.1210036E+00
         -2   -1    0    0    0  501 -0.00000000000E+00  0.00000000000E+00  0.25250670210E+02  0.25250670210E+02  0.00000000000E+00 0. -1.
          2   -1    0    0  501    0  0.00000000000E+00 -0.00000000000E+00 -0.10724638659E+04  0.10724638659E+04  0.00000000000E+00 0.  1.
         25    2    1    2    0    0  0.58836077800E+02  0.96870604811E+02 -0.72179751270E+03  0.74127244209E+03  0.12509031110E+03 0.  0.
          5    1    3    3  502    0  0.42633963822E+02  0.16928317465E+01 -0.46368066092E+03  0.46565840297E+03  0.41800000000E+01 0. -1.
         -5    1    3    3    0  502  0.16202113979E+02  0.95177773065E+02 -0.25811685179E+03  0.27561403912E+03  0.41800000000E+01 0. -1.
        -11    1    1    2    0    0  0.19047548107E+02 -0.52403607123E+02 -0.12657336866E+03  0.13831039290E+03  0.00000000000E+00 0.  1.
         11    1    1    2    0    0 -0.77883625908E+02 -0.44466997688E+02 -0.19884231430E+03  0.21813170109E+03  0.00000000000E+00 0. -1.
</event>
<event>
 7    1  0.2666594E-009  0.1192995E+03  0.7561462E-02  0.1244257E+00
          2   -1    0    0  501    0  0.00000000000E+00  0.00000000000E+00  0.13291054370E+03  0.13291054370E+03  0.00000000000E+00 0. -1.
         -2   -1    0    0    0  501 -0.00000000000E+00 -0.00000000000E+00 -0.20040524949E+03  0.20040524949E+03  0.00000000000E+00 0.  1.
         25    2    1    2    0    0  0.94930920897E+02  0.37590641128E+02  0.31901438797E+02  0.16458234943E+03  0.12507882277E+03 0.  0.
          5    1    3    3  502    0  0.71621561177E+02 -0.30593088325E+01 -0.37288949724E+02  0.80913197733E+02  0.41800000000E+01 0.  1.
         -5    1    3    3    0  502  0.23309359721E+02  0.40649949961E+02  0.69190388521E+02  0.83669151699E+02  0.41800000000E+01 0.  1.
        -11    1    1    2    0    0 -0.71235653928E+02  0.45704251258E+01 -0.96836142097E+02  0.12030230917E+03  0.00000000000E+00 0.  1.
         11    1    1    2    0    0 -0.23695266970E+02 -0.42161066254E+02 -0.25600024844E+01  0.48431134585E+02  0.00000000000E+00 0. -1.
</event>
<event>
 7    1  0.2666594E-009  0.1226109E+03  0.7561462E-02  0.1238851E+00
          1   -1    0    0  501    0  0.00000000000E+00  0.00000000000E+00  0.22274722311E+03  0.22274722311E+03  0.00000000000E+00 0. -1.
         -1   -1    0    0    0  501 -0.00000000000E+00 -0.00000000000E+00 -0.14277401952E+03  0.14277401952E+03  0.00000000000E+00 0.  1.
         25    2    1    2    0    0 -0.58410815540E+02 -0.92035588926E+02  0.13476364710E+03  0.21375666420E+03  0.12509315692E+03 0.  0.
          5    1    3    3  502    0 -0.47025521008E+02 -0.12381280783E+02  0.12300038718E+03  0.13233013031E+03  0.41800000000E+01 0. -1.
         -5    1    3    3    0  502 -0.11385294532E+02 -0.79654308144E+02  0.11763259918E+02  0.81426533890E+02  0.41800000000E+01 0. -1.
        -11    1    1    2    0    0  0.28272707561E+02  0.77272346844E+02 -0.76044391150E+02  0.11204066675E+03  0.00000000000E+00 0.  1.
         11    1    1    2    0    0  0.30138107979E+02  0.14763242082E+02  0.21253947640E+02  0.39723911686E+02  0.00000000000E+00 0. -1.
</event>
<event>
 7    1  0.2666594E-009  0.1070474E+03  0.7561462E-02  0.1266137E+00
          2   -1    0    0  501    0  0.00000000000E+00  0.00000000000E+00  0.31671590461E+02  0.31671590461E+02  0.00000000000E+00 0. -1.
         -2   -1    0    0    0  501 -0.00000000000E+00 -0.00000000000E+00 -0.50902481332E+03  0.50902481332E+03  0.00000000000E+00 0.  1.
         25    2    1    2    0    0 -0.60304173174E+01 -0.53675115131E+02 -0.36649735511E+03  0.39100525984E+03  0.12508963987E+03 0.  0.
          5    1    3    3  502    0 -0.11335196100E+02  0.40249667761E+02 -0.11858602606E+03  0.12581192472E+03  0.41800000000E+01 0.  1.
         -5    1    3    3    0  502  0.53047787826E+01 -0.93924782892E+02 -0.24791132905E+03  0.26519333511E+03  0.41800000000E+01 0.  1.
        -11    1    1    2    0    0 -0.22132216717E+02  0.41885039473E+02 -0.10929528420E+03  0.11912032025E+03  0.00000000000E+00 0.  1.
         11    1    1    2    0    0  0.28162634035E+02  0.11790075659E+02 -0.15605835448E+01  0.30570823685E+02  0.00000000000E+00 0. -1.
</event>
<event>
 7    1  0.2666594E-009  0.2728956E+03  0.7561462E-02  0.1099634E+00
          2   -1    0    0  501    0  0.00000000000E+00  0.00000000000E+00  0.47555752903E+03  0.47555752903E+03  0.00000000000E+00 0. -1.
         -2   -1    0    0    0  501 -0.00000000000E+00 -0.00000000000E+00 -0.27721614990E+03  0.27721614990E+03  0.00000000000E+00 0.  1.
         25    2    1    2    0    0  0.22130303910E+03 -0.13397299570E+03  0.33931635495E+03  0.44463901875E+03  0.12507785402E+03 0.  0.
          5    1    3    3  502    0  0.10630672278E+02  0.21889544821E+02  0.37590514309E+02  0.44974242979E+02  0.41800000000E+01 0. -1.
         -5    1    3    3    0  502  0.21067236682E+03 -0.15586254052E+03  0.30172584064E+03  0.39966477577E+03  0.41800000000E+01 0. -1.
        -11    1    1    2    0    0 -0.47647058490E+02  0.22882998468E+02  0.84478918148E+01  0.53527942962E+02  0.00000000000E+00 0. -1.
         11    1    1    2    0    0 -0.17365598061E+03  0.11108999723E+03 -0.14942286762E+03  0.25460671722E+03  0.00000000000E+00 0.  1.
</event>
<event>
 7    1  0.2666594E-009  0.2175794E+03  0.7561462E-02  0.1135701E+00
          1   -1    0    0  501    0  0.00000000000E+00  0.00000000000E+00  0.70737966828E+02  0.70737966828E+02  0.00000000000E+00 0. -1.
         -1   -1    0    0    0  501 -0.00000000000E+00 -0.00000000000E+00 -0.79697476077E+03  0.79697476077E+03  0.00000000000E+00 0.  1.
         25    2    1    2    0    0  0.12643372294E+03  0.16912369233E+03 -0.43998152370E+03  0.50380557524E+03  0.12509199353E+03 0.  0.
          5    1    3    3  502    0  0.10029947606E+03  0.11586212743E+03 -0.17689302103E+03  0.23407825777E+03  0.41800000000E+01 0.  1.
         -5    1    3    3    0  502  0.26134246880E+02  0.53261564894E+02 -0.26308850267E+03  0.26972731747E+03  0.41800000000E+01 0.  1.
        -11    1    1    2    0    0 -0.25637919451E+02 -0.91886258118E+02 -0.14897600180E+03  0.17690177065E+03  0.00000000000E+00 0.  1.
         11    1    1    2    0    0 -0.10079580349E+03 -0.77237434210E+02 -0.13727926844E+03  0.18700538171E+03  0.00000000000E+00 0. -1.
</event>
<event>
 7    1  0.2666594E-009  0.1538624E+03  0.7561462E-02  0.1195806E+00
          2   -1    0    0  501    0  0.00000000000E+00  0.00000000000E+00  0.18060827726E+04  0.18060827726E+04  0.00000000000E+00 0. -1.
         -2   -1    0    0    0  501 -0.00000000000E+00 -0.00000000000E+00 -0.14186720632E+02  0.14186720632E+02  0.00000000000E+00 0.  1.
         25    2    1    2    0    0 -0.10163806696E+03  0.41796245271E+02  0.11963356916E+04  0.12078654788E+04  0.12507080111E+03 0.  0.
          5    1    3    3  502    0  0.26462653944E+02  0.24406509165E+02  0.31773816532E+03  0.31979831745E+03  0.41800000000E+01 0.  1.
         -5    1    3    3    0  502 -0.12810072090E+03  0.17389736106E+02  0.87859752625E+03  0.88806716139E+03  0.41800000000E+01 0.  1.
        -11    1    1    2    0    0  0.11488843102E+03 -0.51312813854E+02  0.50917098285E+03  0.52448779416E+03  0.00000000000E+00 0.  1.
         11    1    1    2    0    0 -0.13250364060E+02  0.95165685837E+01  0.86389377508E+02  0.87916220184E+02  0.00000000000E+00 0. -1.
</event>
<event>
 7    1  0.2666594E-009  0.1148894E+03  0.7561462E-02  0.1251774E+00
         -1   -1    0    0    0  501 -0.00000000000E+00  0.00000000000E+00  0.64863057234E+03  0.64863057234E+03  0.00000000000E+00 0.  1.
          1   -1    0    0  501    0  0.00000000000E+00 -0.00000000000E+00 -0.21436957082E+02  0.21436957082E+02  0.00000000000E+00 0. -1.
         25    2    1    2    0    0  0.41120072856E+02 -0.21631026814E+02  0.37796306239E+03  0.40082746533E+03  0.12509124157E+03 0.  0.
          5    1    3    3  502    0  0.64947736984E+02  0.33366203035E+02  0.19594074180E+03  0.20914530533E+03  0.41800000000E+01 0.  1.
         -5    1    3    3    0  502 -0.23827664128E+02 -0.54997229849E+02  0.18202232059E+03  0.19168216000E+03  0.41800000000E+01 0.  1.
        -11    1    1    2    0    0 -0.50047111640E+02 -0.20064132753E+02  0.18027465143E+03  0.18816543985E+03  0.00000000000E+00 0.  1.
         11    1    1    2    0    0  0.89270387840E+01  0.41695159567E+02  0.68955901438E+02  0.81074624242E+02  0.00000000000E+00 0. -1.
</event>
<event>
 7    1  0.2666594E-009  0.1474526E+03  0.7561462E-02  0.1203639E+00
         -1   -1    0    0    0  501 -0.00000000000E+00  0.00000000000E+00  0.40670097554E+03  0.40670097554E+03  0.00000000000E+00 0.  1.
          1   -1    0    0  501    0  0.00000000000E+00 -0.00000000000E+00 -0.82717415997E+02  0.82717415997E+02  0.00000000000E+00 0. -1.
         25    2    1    2    0    0  0.11029463452E+03  0.32630553398E+02  0.28867134574E+03  0.33497502710E+03  0.12508982176E+03 0.  0.
          5    1    3    3  502    0  0.12453362584E+03  0.45893484489E+02  0.17553785833E+03  0.22010417532E+03  0.41800000000E+01 0. -1.
         -5    1    3    3    0  502 -0.14238991327E+02 -0.13262931091E+02  0.11313348741E+03  0.11487085178E+03  0.41800000000E+01 0. -1.
        -11    1    1    2    0    0 -0.10806216335E+03 -0.53949000000E+02  0.98814593345E+01  0.12118402942E+03  0.00000000000E+00 0. -1.
         11    1    1    2    0    0 -0.22324711660E+01  0.21318446601E+02  0.25430754471E+02  0.33259335020E+02  0.00000000000E+00 0.  1.
</event>
<event>
 7    1  0.2666594E-009  0.8206002E+02  0.7561462E-02  0.1323305E+00
          2   -1    0    0  501    0  0.00000000000E+00  0.00000000000E+00  0.61959388193E+02  0.61959388193E+02  0.00000000000E+00 0. -1.
         -2   -1    0    0    0  501 -0.00000000000E+00 -0.00000000000E+00 -0.21732030594E+03  0.21732030594E+03  0.00000000000E+00 0.  1.
         25    2    1    2    0    0  0.17073899722E+02 -0.35978229768E+02 -0.71617757783E+02  0.14952779297E+03  0.12507400439E+03 0.  0.
          5    1    3    3  502    0 -0.27832252698E+02  0.94790607151E+01  0.21396461448E+02  0.36602839300E+02  0.41800000000E+01 0.  1.
         -5    1    3    3    0  502  0.44906152420E+02 -0.45457290483E+02 -0.93014219231E+02  0.11292495367E+03  0.41800000000E+01 0.  1.
        -11    1    1    2    0    0 -0.17251553194E+02 -0.12880011622E+02 -0.77573134762E+02  0.80505291899E+02  0.00000000000E+00 0.  1.
         11    1    1    2    0    0  0.17765347230E+00  0.48858241390E+02 -0.61700252005E+01  0.49246609258E+02  0.00000000000E+00 0. -1.
</event>
<event>
 7    1  0.2666594E-009  0.1066987E+03  0.7561462E-02  0.1266808E+00
         -1   -1    0    0    0  501 -0.00000000000E+00  0.00000000000E+00  0.13528607278E+02  0.13528607278E+02  0.00000000000E+00 0.  1.
          1   -1    0    0  501    0  0.00000000000E+00 -0.00000000000E+00 -0.11982732594E+04  0.11982732594E+04  0.00000000000E+00 0. -1.
         25    2    1    2    0    0  0.41860872403E+02 -0.30763471446E+02 -0.85343547811E+03  0.86411600931E+03  0.12508252654E+03 0.  0.
          5    1    3    3  502    0  0.22740686881E+02 -0.67968715262E+02 -0.27710434277E+03  0.28625368867E+03  0.41800000000E+01 0.  1.
         -5    1    3    3    0  502  0.19120185522E+02  0.37205243816E+02 -0.57633113534E+03  0.57786232065E+03  0.41800000000E+01 0.  1.
        -11    1    1    2    0    0 -0.53372867137E+02  0.52564133973E+02 -0.18985579175E+03  0.20410015382E+03  0.00000000000E+00 0.  1.
         11    1    1    2    0    0  0.11511994734E+02 -0.21800662527E+02 -0.14145338223E+03  0.14358570351E+03  0.00000000000E+00 0. -1.
</event>
<event>
 7    1  0.2666594E-009  0.1452189E+03  0.7561462E-02  0.1206474E+00
          1   -1    0    0  501    0  0.00000000000E+00  0.00000000000E+00  0.50511103505E+02  0.50511103505E+02  0.00000000000E+00 0. -1.
         -1   -1    0    0    0  501 -0.00000000000E+00 -0.00000000000E+00 -0.54045058645E+03  0.54045058645E+03  0.00000000000E+00 0.  1.
         25    2    1    2    0    0  0.69392064569E+02 -0.10240976956E+03 -0.23715356781E+03  0.29527754717E+03  0.12507595935E+03 0.  0.
          5    1    3    3  502    0  0.80402880506E+02 -0.11286494184E+03 -0.14062968723E+03  0.19747733951E+03  0.41800000000E+01 0. -1.
         -5    1    3    3    0  502 -0.11010815937E+02  0.10455172277E+02 -0.96523880581E+02  0.97800207655E+02  0.41800000000E+01 0. -1.
        -11    1    1    2    0    0 -0.75241500111E+02  0.68860318052E+02 -0.11483012632E+03  0.15358705887E+03  0.00000000000E+00 0. -1.
         11    1    1    2    0    0  0.58494355426E+01  0.33549451506E+02 -0.13795578880E+03  0.14209708391E+03  0.00000000000E+00 0.  1.
</event>
<event>
 7    1  0.2666594E-009  0.1043045E+03  0.7561462E-02  0.1271496E+00
          1   -1    0    0  501    0  0.00000000000E+00  0.00000000000E+00  0.68600210141E+03  0.68600210141E+03  0.00000000000E+00 0. -1.
         -1   -1    0    0    0  501 -0.00000000000E+00 -0.00000000000E+00 -0.32153218058E+02  0.32153218058E+02  0.00000000000E+00 0.  1.
         25    2    1    2    0    0  0.53714841321E+02  0.60657244180E+02  0.50313084839E+03  0.52474053705E+03  0.12508954865E+03 0.  0.
          5    1    3    3  502    0 -0.22595916329E+02 -0.61985056129E+01  0.20100492908E+02  0.31152834891E+02  0.41800000000E+01 0.  1.
         -5    1    3    3    0  502  0.76310757650E+02  0.66855749793E+02  0.48303035548E+03  0.49358770216E+03  0.41800000000E+01 0.  1.
        -11    1    1    2    0    0 -0.51702725840E+02 -0.48318692723E+02  0.16186947626E+03  0.17666237650E+03  0.00000000000E+00 0. -1.
         11    1    1    2    0    0 -0.20121154816E+01 -0.12338551457E+02 -0.11151441299E+02  0.16752405911E+02  0.00000000000E+00 0.  1.
</event>
<event>
 7    1  0.2666594E-009  0.1490998E+03  0.7561462E-02  0.1201584E+00
         -2   -1    0    0    0  501 -0.00000000000E+00  0.00000000000E+00  0.89631407987E+02  0.89631407987E+02  0.00000000000E+00 0.  1.
          2   -1    0    0  501    0  0.00000000000E+00 -0.00000000000E+00 -0.14169716310E+04  0.14169716310E+04  0.00000000000E+00 0. -1.
         25    2    1    2    0    0 -0.39173447463E+02 -0.13003586980E+03 -0.13276730793E+04  0.13404505285E+04  0.12509167649E+03 0.  0.
          5    1    3    3  502    0 -0.15839984221E+02 -0.49288814336E+02 -0.13247358428E+03  0.14229200698E+03  0.41800000000E+01 0.  1.
         -5    1    3    3    0  502 -0.23333463242E+02 -0.80747055463E+02 -0.11951994950E+04  0.11981585216E+04  0.41800000000E+01 0.  1.
        -11    1    1    2    0    0 -0.19206390630E+02  0.88239379056E+02  0.18295922539E+02  0.92140187968E+02  0.00000000000E+00 0.  1.
         11    1    1    2    0    0  0.58379838093E+02  0.41796490743E+02 -0.17963066284E+02  0.74012322518E+02  0.00000000000E+00 0. -1.
</event>
<event>
 7    1  0.2666594E-009  0.8675017E+02  0.7561462E-02  0.1310918E+00
         -1   -1    0    0    0  501 -0.00000000000E+00  0.00000000000E+00  0.26814493351E+02  0.26814493351E+02  0.00000000000E+00 0.  1.
          1   -1    0    0  501    0  0.00000000000E+00 -0.00000000000E+00 -0.60560167762E+03  0.60560167762E+03  0.00000000000E+00 0. -1.
         25    2    1    2    0    0 -0.15805278929E+01  0.17964056601E+02 -0.48391900378E+03  0.50014733077E+03  0.12507815500E+03 0.  0.
          5    1    3    3  502    0  0.33524890555E+01  0.54773901846E+02 -0.97783745013E+02  0.11220763207E+03  0.41800000000E+01 0.  1.
         -5    1    3    3    0  502 -0.49330169484E+01 -0.36809845245E+02 -0.38613525877E+03  0.38793969870E+03  0.41800000000E+01 0.  1.
        -11    1    1    2    0    0  0.38663157697E+02 -0.20795582174E+02 -0.81823684836E+02  0.92856940512E+02  0.00000000000E+00 0. -1.
         11    1    1    2    0    0 -0.37082629804E+02  0.28315255732E+01 -0.13044495653E+02  0.39411899689E+02  0.00000000000E+00 0.  1.
</event>
<event>
 7    1  0.2666594E-009  0.1210414E+03  0.7561462E-02  0.1241389E+00
          1   -1    0    0  501    0  0.00000000000E+00  0.00000000000E+00  0.89254575829E+02  0.89254575829E+02  0.00000000000E+00 0. -1.
         -1   -1    0    0    0  501 -0.00000000000E+00 -0.00000000000E+00 -0.27214054043E+03  0.27214054043E+03  0.00000000000E+00 0.  1.
         25    2    1    2    0    0 -0.74986849834E+02 -0.39657228764E+02 -0.19353738341E+03  0.24556169896E+03  0.12509238895E+03 0.  0.
          5    1    3    3  502    0 -0.97768247879E+02 -0.32052579662E+02 -0.19564848691E+03  0.22109229065E+03  0.41800000000E+01 0.  1.
         -5    1    3    3    0  502  0.22781398045E+02 -0.76046491015E+01  0.21111034925E+01  0.24469408305E+02  0.41800000000E+01 0.  1.
        -11    1    1    2    0    0  0.82220160908E+02  0.83998747659E+01  0.22965181113E+01  0.82680026314E+02  0.00000000000E+00 0.  1.
         11    1    1    2    0    0 -0.72333110743E+01  0.31257353998E+02  0.83549007059E+01  0.33153390986E+02  0.00000000000E+00 0. -1.
</event>
<event>
 7    1  0.2666594E-009  0.1148255E+03  0.7561462E-02  0.1251886E+00
          2   -1    0    0  501    0  0.00000000000E+00  0.00000000000E+00  0.10260229899E+04  0.10260229899E+04  0.00000000000E+00 0. -1.
         -2   -1    0    0    0  501 -0.00000000000E+00 -0.00000000000E+00 -0.29727197088E+02  0.29727197088E+02  0.00000000000E+00 0.  1.
         25    2    1    2    0    0  0.63350680225E+02 -0.49201930866E+02  0.85690327390E+03  0.86969269660E+03  0.12509207411E+03 0.  0.
          5    1    3    3  502    0 -0.92693318266E+01  0.31689465520E+02  0.11049049508E+03  0.11539395409E+03  0.41800000000E+01 0. -1.
         -5    1    3    3    0  502  0.72620012051E+02 -0.80891396386E+02  0.74641277882E+03  0.75429874250E+03  0.41800000000E+01 0. -1.
        -11    1    1    2    0    0 -0.53466371407E+02  0.20558924539E+02  0.14439909986E+03  0.15534613703E+03  0.00000000000E+00 0. -1.
         11    1    1    2    0    0 -0.98843088181E+01  0.28643006328E+02 -0.50065809525E+01  0.30711353359E+02  0.00000000000E+00 0.  1.
</event>
<event>
 7    1  0.2666594E-009  0.8943673E+02  0.7561462E-02  0.1304221E+00
          2   -1    0    0  501    0  0.00000000000E+00  0.00000000000E+00  0.54374297249E+03  0.54374297249E+03  0.00000000000E+00 0. -1.
         -2   -1    0    0    0  501 -0.00000000000E+00 -0.00000000000E+00 -0.26195344084E+02  0.26195344084E+02  0.00000000000E+00 0.  1.
         25    2    1    2    0    0  0.36674657423E+02  0.32660301056E+02  0.33430225732E+03  0.36030193059E+03  0.12509099160E+03 0.  0.
          5    1    3    3  502    0 -0.12440601036E+02 -0.26728927263E+02  0.18166594393E+02  0.34881250818E+02  0.41800000000E+01 0.  1.
         -5    1    3    3    0  502  0.49115258459E+02  0.59389228319E+02  0.31613566292E+03  0.32542067977E+03  0.41800000000E+01 0.  1.
        -11    1    1    2    0    0  0.52175316288E+01 -0.29441209080E+02  0.10244076564E+02  0.31606147077E+02  0.00000000000E+00 0.  1.
         11    1    1    2    0    0 -0.41892189052E+02 -0.32190919759E+01  0.17300129453E+03  0.17803023890E+03  0.00000000000E+00 0. -1.
</event>
<event>
 7    1  0.2666594E-009  0.1079984E+03  0.7561462E-02  0.1264322E+00
         -1   -1    0    0    0  501 -0.00000000000E+00  0.00000000000E+00  0.69208474990E+02  0.69208474990E+02  0.00000000000E+00 0.  1.
          1   -1    0    0  501    0  0.00000000000E+00 -0.00000000000E+00 -0.28501582866E+03  0.28501582866E+03  0.00000000000E+00 0. -1.
         25    2    1    2    0    0  0.61684876889E+02 -0.49527932505E+02 -0.17048609983E+03  0.22576864400E+03  0.12509168734E+03 0.  0.
          5    1    3    3  502    0  0.33058076825E+02 -0.57346876774E+02 -0.15765926106E+02  0.68172850498E+02  0.41800000000E+01 0. -1.
         -5    1    3    3    0  502  0.28626800064E+02  0.78189442690E+01 -0.15472017372E+03  0.15759579350E+03  0.41800000000E+01 0. -1.
        -11    1    1    2    0    0  0.14919644858E+02 -0.13791496936E+02 -0.34449753569E+01  0.20607499742E+02  0.00000000000E+00 0. -1.
         11    1    1    2    0    0 -0.76604521747E+02  0.63319429440E+02 -0.41876278486E+02  0.10784815991E+03  0.00000000000E+00 0.  1.
</event>
<event>
 7    1  0.2666594E-009  0.1199361E+03  0.7561462E-02  0.1243202E+00
         -1   -1    0    0    0  501 -0.00000000000E+00  0.00000000000E+00  0.10289617387E+03  0.10289617387E+03  0.00000000000E+00 0.  1.
          1   -1    0    0  501    0  0.00000000000E+00 -0.00000000000E+00 -0.19187179506E+03  0.19187179506E+03  0.00000000000E+00 0. -1.
         25    2    1    2    0    0 -0.38154448708E+01  0.87765547071E+02 -0.32347677481E+02  0.15623972963E+03  0.12508849669E+03 0.  0.
          5    1    3    3  502    0  0.51205708139E+02  0.42174349398E+02 -0.49209556972E+02  0.82702800379E+02  0.41800000000E+01 0. -1.
         -5    1    3    3    0  502 -0.55021153010E+02  0.45591197673E+02  0.16861879491E+02  0.73536929251E+02  0.41800000000E+01 0. -1.
        -11    1    1    2    0    0 -0.23341514504E+02 -0.30142108274E+02  0.16504215046E+02  0.41542292966E+02  0.00000000000E+00 0.  1.
         11    1    1    2    0    0  0.27156959375E+02 -0.57623438797E+02 -0.73132158758E+02  0.96985946332E+02  0.00000000000E+00 0. -1.
</event>
<event>
 7    1  0.2666594E-009  0.1387574E+03  0.7561462E-02  0.1215011E+00
          3   -1    0    0  501    0  0.00000000000E+00  0.00000000000E+00  0.17259098102E+03  0.17259098102E+03  0.00000000000E+00 0. -1.
         -3   -1    0    0    0  501 -0.00000000000E+00 -0.00000000000E+00 -0.15640843589E+03  0.15640843589E+03  0.00000000000E+00 0.  1.
         25    2    1    2    0    0  0.10524384244E+03  0.47548969407E+02 -0.36534795955E+02  0.17412571074E+03  0.12509117060E+03 0.  0.
          5    1    3    3  502    0 -0.66052773435E+01  0.35901062581E+02 -0.48625824502E+02  0.60946363237E+02  0.41800000000E+01 0.  1.
         -5    1    3    3    0  502  0.11184911978E+03  0.11647906826E+02  0.12091028547E+02  0.11317934750E+03  0.41800000000E+01 0.  1.
        -11    1    1    2    0    0 -0.77005232067E+02 -0.49914071261E+01 -0.55795328830E+01  0.77368282248E+02  0.00000000000E+00 0.  1.
         11    1    1    2    0    0 -0.28238610370E+02 -0.42557562281E+02  0.58296873968E+02  0.77505423922E+02  0.00000000000E+00 0. -1.
</event>
<event>
 7    1  0.2666594E-009  0.1624750E+03  0.7561462E-02  0.1185930E+00
          3   -1    0    0  501    0  0.00000000000E+00  0.00000000000E+00  0.13380264253E+03  0.13380264253E+03  0.00000000000E+00 0. -1.
         -3   -1    0    0    0  501 -0.00000000000E+00 -0.00000000000E+00 -0.28123174172E+03  0.28123174172E+03  0.00000000000E+00 0.  1.
         25    2    1    2    0    0 -0.29303051550E+02  0.14364273235E+03 -0.66243795735E+01  0.19283107826E+03  0.12509212186E+03 0.  0.
          5    1    3    3  502    0  0.31226790240E+02  0.92971515371E+02 -0.41314456877E+02  0.10650432783E+03  0.41800000000E+01 0.  1.
         -5    1    3    3    0  502 -0.60529841790E+02  0.50671216979E+02  0.34690077303E+02  0.86326750434E+02  0.41800000000E+01 0.  1.
        -11    1    1    2    0    0  0.27927231875E+02 -0.93690274097E+02 -0.32666311330E+02  0.10307708589E+03  0.00000000000E+00 0. -1.
         11    1    1    2    0    0  0.13758196754E+01 -0.49952458252E+02 -0.10813840829E+03  0.11912622009E+03  0.00000000000E+00 0.  1.
</event>
<event>
 7    1  0.2666594E-009  0.9705786E+02  0.7561462E-02  0.1286607E+00
          2   -1    0    0  501    0  0.00000000000E+00  0.00000000000E+00  0.38805433718E+03  0.38805433718E+03  0.00000000000E+00 0.  1.
         -2   -1    0    0    0  501 -0.00000000000E+00 -0.00000000000E+00 -0.45065327798E+02  0.45065327798E+02  0.00000000000E+00 0. -1.
         25    2    1    2    0    0 -0.37357103121E+02  0.41519708831E+02  0.10766794313E+03  0.17423515816E+03  0.12508423156E+03 0.  0.
          5    1    3    3  502    0 -0.33721560337E+02  0.59960235282E+02  0.12853239109E+03  0.14584382540E+03  0.41800000000E+01 0. -1.
         -5    1    3    3    0  502 -0.36355427838E+01 -0.18440526451E+02 -0.20864447964E+02  0.28391332761E+02  0.41800000000E+01 0. -1.
        -11    1    1    2    0    0  0.63909187521E+02 -0.99309861229E+01  0.11867963081E+03  0.13515866048E+03  0.00000000000E+00 0. -1.
         11    1    1    2    0    0 -0.26552084400E+02 -0.31588722708E+02  0.11664143545E+03  0.12372584634E+03  0.00000000000E+00 0.  1.
</event>
<event>
 7    1  0.2666594E-009  0.2156434E+03  0.7561462E-02  0.1137173E+00
          2   -1    0    0  501    0  0.00000000000E+00  0.00000000000E+00  0.12072074730E+04  0.12072074730E+04  0.00000000000E+00 0. -1.
         -2   -1    0    0    0  501 -0.00000000000E+00 -0.00000000000E+00 -0.51973973897E+02  0.51973973897E+02  0.00000000000E+00 0.  1.
         25    2    1    2    0    0 -0.37829436702E+02 -0.20177540080E+03  0.81211291263E+03  0.84694617037E+03  0.12508418768E+03 0.  0.
          5    1    3    3  502    0  0.19514500487E+01 -0.45096215816E+02  0.48448361232E+02  0.66349023687E+02  0.41800000000E+01 0. -1.
         -5    1    3    3    0  502 -0.39780886751E+02 -0.15667918498E+03  0.76366455139E+03  0.78059714668E+03  0.41800000000E+01 0. -1.
        -11    1    1    2    0    0  0.66168929470E+02  0.11175707352E+03  0.23674958138E+03  0.27003395155E+03  0.00000000000E+00 0.  1.
         11    1    1    2    0    0 -0.28339492768E+02  0.90018327277E+02  0.10637100507E+03  0.14220132495E+03  0.00000000000E+00 0. -1.
</event>
<event>
 7    1  0.2666594E-009  0.2150358E+03  0.7561462E-02  0.1137639E+00
          1   -1    0    0  501    0  0.00000000000E+00  0.00000000000E+00  0.36233840880E+03  0.36233840880E+03  0.00000000000E+00 0. -1.
         -1   -1    0    0    0  501 -0.00000000000E+00 -0.00000000000E+00 -0.17953719100E+03  0.17953719100E+03  0.00000000000E+00 0.  1.
         25    2    1    2    0    0  0.13629630662E+03 -0.15277738740E+03 -0.18146900403E+02  0.24060515438E+03  0.12507564520E+03 0.  0.
          5    1    3    3  502    0  0.97042301181E+02 -0.51972954850E+02  0.40633968990E+02  0.11741800582E+03  0.41800000000E+01 0. -1.
         -5    1    3    3    0  502  0.39254005436E+02 -0.10080443255E+03 -0.58780869393E+02  0.12318714856E+03  0.41800000000E+01 0. -1.
        -11    1    1    2    0    0 -0.89477176758E+02  0.13416966043E+03  0.19089288142E+03  0.24989548839E+03  0.00000000000E+00 0.  1.
         11    1    1    2    0    0 -0.46819129860E+02  0.18607726968E+02  0.10055236785E+02  0.51374957037E+02  0.00000000000E+00 0. -1.
</event>
<event>
 7    1  0.2666594E-009  0.1300862E+03  0.7561462E-02  0.1227328E+00
         -1   -1    0    0    0  501 -0.00000000000E+00  0.00000000000E+00  0.74658292977E+03  0.74658292977E+03  0.00000000000E+00 0.  1.
          1   -1    0    0  501    0  0.00000000000E+00 -0.00000000000E+00 -0.42312342324E+02  0.42312342324E+02  0.00000000000E+00 0. -1.
         25    2    1    2    0    0  0.60828831603E+02 -0.97841895810E+02  0.54879229682E+03  0.57453794459E+03  0.12509069266E+03 0.  0.
          5    1    3    3  502    0  0.48752186738E+02 -0.92659393884E+01  0.38218756064E+03  0.38541852220E+03  0.41800000000E+01 0.  1.
         -5    1    3    3    0  502  0.12076644865E+02 -0.88575956422E+02  0.16660473618E+03  0.18911942239E+03  0.41800000000E+01 0.  1.
        -11    1    1    2    0    0 -0.27183503318E+02  0.76125660648E+02  0.15442104713E+03  0.17429836160E+03  0.00000000000E+00 0.  1.
         11    1    1    2    0    0 -0.33645328285E+02  0.21716235162E+02  0.10572434938E+01  0.40058965898E+02  0.00000000000E+00 0. -1.
</event>
<event>
 7    1  0.2666594E-009  0.7282419E+02  0.7561462E-02  0.1350744E+00
         -2   -1    0    0    0  501 -0.00000000000E+00  0.00000000000E+00  0.39533024902E+03  0.39533024902E+03  0.00000000000E+00 0.  1.
          2   -1    0    0  501    0  0.00000000000E+00 -0.00000000000E+00 -0.48864499945E+02  0.48864499945E+02  0.00000000000E+00 0. -1.
         25    2    1    2    0    0 -0.10110449273E+02 -0.28849389809E+02  0.31819823192E+03  0.34326691497E+03  0.12509017404E+03 0.  0.
          5    1    3    3  502    0  0.22449660776E+02  0.22971752116E+02  0.18389891682E+02  0.37247136539E+02  0.41800000000E+01 0.  1.
         -5    1    3    3    0  502 -0.32560110049E+02 -0.51821141925E+02  0.29980834024E+03  0.30601977843E+03  0.41800000000E+01 0.  1.
        -11    1    1    2    0    0  0.15505186701E+02 -0.60175777600E+01  0.54487866070E+02  0.56969725342E+02  0.00000000000E+00 0.  1.
         11    1    1    2    0    0 -0.53947374276E+01  0.34866967569E+02 -0.26220348911E+02  0.43958108653E+02  0.00000000000E+00 0. -1.
</event>
<event>
 7    1  0.2666594E-009  0.7549979E+02  0.7561462E-02  0.1342330E+00
          2   -1    0    0  501    0  0.00000000000E+00  0.00000000000E+00  0.41411952912E+03  0.41411952912E+03  0.00000000000E+00 0. -1.
         -2   -1    0    0    0  501 -0.00000000000E+00 -0.00000000000E+00 -0.31288174940E+02  0.31288174940E+02  0.00000000000E+00 0.  1.
         25    2    1    2    0    0 -0.32674165153E+02 -0.50947520706E+01  0.20159606330E+03  0.23954598396E+03  0.12509095941E+03 0.  0.
          5    1    3    3  502    0  0.11604211551E+02 -0.27506380534E+02  0.18441534642E+03  0.18686292059E+03  0.41800000000E+01 0. -1.
         -5    1    3    3    0  502 -0.44278376704E+02  0.22411628463E+02  0.17180716884E+02  0.52683063375E+02  0.41800000000E+01 0. -1.
        -11    1    1    2    0    0  0.64565264771E+01 -0.28054349687E+02  0.15143807381E+03  0.15415000314E+03  0.00000000000E+00 0. -1.
         11    1    1    2    0    0  0.26217638676E+02  0.33149101757E+02  0.29797217065E+02  0.51711716950E+02  0.00000000000E+00 0.  1.
</event>
<event>
 7    1  0.2666594E-009  0.1010958E+03  0.7561462E-02  0.1278008E+00
          2   -1    0    0  501    0  0.00000000000E+00  0.00000000000E+00  0.12673960018E+03  0.12673960018E+03  0.00000000000E+00 0. -1.
         -2   -1    0    0    0  501 -0.00000000000E+00 -0.00000000000E+00 -0.12702938582E+03  0.12702938582E+03  0.00000000000E+00 0.  1.
         25    2    1    2    0    0  0.60666849681E+02  0.10992359585E+02  0.15683249883E+02  0.14033773316E+03  0.12508963348E+03 0.  0.
          5    1    3    3  502    0  0.64555169271E+02 -0.33432625145E+02  0.46110168372E+02  0.86190082556E+02  0.41800000000E+01 0.  1.
         -5    1    3    3    0  502 -0.38883195909E+01  0.44424984730E+02 -0.30426918488E+02  0.54147650607E+02  0.41800000000E+01 0.  1.
        -11    1    1    2    0    0  0.69562752231E+01 -0.15315635926E+02 -0.38507543772E+02  0.42021296936E+02  0.00000000000E+00 0.  1.
         11    1    1    2    0    0 -0.67623124904E+02  0.43232763406E+01  0.22534508242E+02  0.71409955901E+02  0.00000000000E+00 0. -1.
</event>
<event>
 7    1  0.2666594E-009  0.1059032E+03  0.7561462E-02  0.1268350E+00
         -2   -1    0    0    0  501 -0.00000000000E+00  0.00000000000E+00  0.27781769879E+02  0.27781769879E+02  0.00000000000E+00 0.  1.
          2   -1    0    0  501    0  0.00000000000E+00 -0.00000000000E+00 -0.48806756651E+03  0.48806756651E+03  0.00000000000E+00 0. -1.
         25    2    1    2    0    0  0.30943343279E+02  0.20245320380E+02 -0.31204405025E+03  0.33821153924E+03  0.12509273555E+03 0.  0.
          5    1    3    3  502    0 -0.17757238913E+02 -0.45209771051E+02 -0.11643083383E+03  0.12622541106E+03  0.41800000000E+01 0. -1.
         -5    1    3    3    0  502  0.48700582192E+02  0.65455091431E+02 -0.19561321643E+03  0.21198612818E+03  0.41800000000E+01 0. -1.
        -11    1    1    2    0    0 -0.37082607208E+02 -0.43587052263E+02 -0.48491570983E+02  0.75009221691E+02  0.00000000000E+00 0.  1.
         11    1    1    2    0    0  0.61392639294E+01  0.23341731883E+02 -0.99750175399E+02  0.10262857546E+03  0.00000000000E+00 0. -1.
</event>
<event>
 7    1  0.4411052E-009  0.2149733E+03  0.7561462E-02  0.1137687E+00
         -1   -1    0    0    0  501 -0.00000000000E+00  0.00000000000E+00  0.41628389881E+02  0.41628389881E+02  0.00000000000E+00 0.  1.
          1   -1    0    0  501    0  0.00000000000E+00 -0.00000000000E+00 -0.12704698130E+04  0.12704698130E+04  0.00000000000E+00 0. -1.
         25    2    1    2    0    0 -0.22654209711E+02  0.19546782709E+03 -0.50008359340E+03  0.55177195509E+03  0.12509118828E+03 0.  0.
          5    1    3    3  502    0  0.34320106492E+02  0.57881176256E+01 -0.72617567376E+02  0.80635944261E+02  0.41800000000E+01 0.  1.
         -5    1    3    3    0  502 -0.56974316203E+02  0.18967970947E+03 -0.42746602603E+03  0.47113601083E+03  0.41800000000E+01 0.  1.
        -11    1    1    2    0    0  0.68195588921E+01 -0.70441042299E+02 -0.12581315438E+03  0.14435164232E+03  0.00000000000E+00 0.  1.
         11    1    1    2    0    0  0.15834650819E+02 -0.12502678479E+03 -0.60294467531E+03  0.61597460546E+03  0.00000000000E+00 0. -1.
</event>
<event>
 7    1  0.2666594E-009  0.1410415E+03  0.7561462E-02  0.1211934E+00
          4   -1    0    0  501    0  0.00000000000E+00  0.00000000000E+00  0.53582067568E+02  0.53582067568E+02  0.00000000000E+00 0. -1.
         -4   -1    0    0    0  501 -0.00000000000E+00 -0.00000000000E+00 -0.39859082942E+03  0.39859082942E+03  0.00000000000E+00 0.  1.
         25    2    1    2    0    0  0.63701723967E+02  0.72345877692E+02 -0.16641886200E+03  0.22942059318E+03  0.12508691095E+03 0.  0.
          5    1    3    3  502    0 -0.25987829111E+02 -0.16624290614E+02 -0.26742913810E+02  0.41041322340E+02  0.41800000000E+01 0. -1.
         -5    1    3    3    0  502  0.89689553078E+02  0.88970168306E+02 -0.13967594819E+03  0.18837927084E+03  0.41800000000E+01 0. -1.
        -11    1    1    2    0    0  0.11674741066E+02  0.81756170360E+01 -0.56274813257E+02  0.58051657168E+02  0.00000000000E+00 0.  1.
         11    1    1    2    0    0 -0.75376465033E+02 -0.80521494728E+02 -0.12231508659E+03  0.16470064663E+03  0.00000000000E+00 0. -1.
</event>
<event>
 7    1  0.2666594E-009  0.1311601E+03  0.7561462E-02  0.1225744E+00
         -1   -1    0    0    0  501 -0.00000000000E+00  0.00000000000E+00  0.25377460910E+03  0.25377460910E+03  0.00000000000E+00 0.  1.
          1   -1    0    0  501    0  0.00000000000E+00 -0.00000000000E+00 -0.22494303350E+03  0.22494303350E+03  0.00000000000E+00 0. -1.
         25    2    1    2    0    0 -0.63163130888E+02 -0.78781804604E+02  0.20192762944E+03  0.25810468911E+03  0.12508840541E+03 0.  0.
          5    1    3    3  502    0 -0.25698300222E+02 -0.10921676610E+03  0.13869902102E+03  0.17844773874E+03  0.41800000000E+01 0.  1.
         -5    1    3    3    0  502 -0.37464830666E+02  0.30434961497E+02  0.63228608423E+02  0.79656950364E+02  0.41800000000E+01 0.  1.
        -11    1    1    2    0    0  0.18491641497E+02  0.31644807803E+02 -0.14550999860E+03  0.15005497113E+03  0.00000000000E+00 0. -1.
         11    1    1    2    0    0  0.44671489391E+02  0.47136996801E+02 -0.27586055242E+02  0.70557982367E+02  0.00000000000E+00 0.  1.
</event>
<event>
 7    1  0.2666594E-009  0.1120915E+03  0.7561462E-02  0.1256745E+00
          2   -1    0    0  501    0  0.00000000000E+00  0.00000000000E+00  0.13968838387E+04  0.13968838387E+04  0.00000000000E+00 0.  1.
         -2   -1    0    0    0  501 -0.00000000000E+00 -0.00000000000E+00 -0.10926462651E+02  0.10926462651E+02  0.00000000000E+00 0. -1.
         25    2    1    2    0    0 -0.11620265912E+02 -0.44789697984E+02  0.99829534880E+03  0.10071654708E+04  0.12509010540E+03 0.  0.
          5    1    3    3  502    0 -0.44970253381E+01 -0.87933242836E+02  0.59685755564E+03  0.60333149475E+03  0.41800000000E+01 0. -1.
         -5    1    3    3    0  502 -0.71232405742E+01  0.43143544852E+02  0.40143779315E+03  0.40383397602E+03  0.41800000000E+01 0. -1.
        -11    1    1    2    0    0  0.16361460505E+02  0.67220159918E+02  0.34820165024E+03  0.35500793868E+03  0.00000000000E+00 0. -1.
         11    1    1    2    0    0 -0.47411945925E+01 -0.22430461934E+02  0.39460377009E+02  0.45636891901E+02  0.00000000000E+00 0.  1.
</event>
<event>
 7    1  0.2666594E-009  0.1077238E+03  0.7561462E-02  0.1264844E+00
         -1   -1    0    0    0  501 -0.00000000000E+00  0.00000000000E+00  0.90334089318E+02  0.90334089318E+02  0.00000000000E+00 0.  1.
          1   -1    0    0  501    0  0.00000000000E+00 -0.00000000000E+00 -0.21131814310E+03  0.21131814310E+03  0.00000000000E+00 0. -1.
         25    2    1    2    0    0  0.65440233473E+02  0.35369395884E+02 -0.12283727785E+03  0.19044429486E+03  0.12508642729E+03 0.  0.
          5    1    3    3  502    0  0.88551171055E+02  0.57966147472E+02 -0.65628389899E+02  0.12460313844E+03  0.41800000000E+01 0. -1.
         -5    1    3    3    0  502 -0.23110937582E+02 -0.22596751588E+02 -0.57208887950E+02  0.65841156420E+02  0.41800000000E+01 0. -1.
        -11    1    1    2    0    0 -0.12394577899E+02 -0.16496732189E+02  0.38743681636E+02  0.43895792520E+02  0.00000000000E+00 0.  1.
         11    1    1    2    0    0 -0.53045655573E+02 -0.18872663694E+02 -0.36890457565E+02  0.67312145037E+02  0.00000000000E+00 0. -1.
</event>
<event>
 7    1  0.2666594E-009  0.1072894E+03  0.7561462E-02  0.1265673E+00
         -1   -1    0    0    0  501 -0.00000000000E+00  0.00000000000E+00  0.26935020893E+02  0.26935020893E+02  0.00000000000E+00 0.  1.
          1   -1    0    0  501    0  0.00000000000E+00 -0.00000000000E+00 -0.48839436869E+03  0.48839436869E+03  0.00000000000E+00 0. -1.
         25    2    1    2    0    0 -0.87525606173E+01 -0.34702286716E+02 -0.24239320582E+03  0.27510784692E+03  0.12509598391E+03 0.  0.
          5    1    3    3  502    0  0.19861681239E+02 -0.76272799824E+02 -0.13512299045E+03  0.15648553072E+03  0.41800000000E+01 0. -1.
         -5    1    3    3    0  502 -0.28614241856E+02  0.41570513108E+02 -0.10727021537E+03  0.11862231620E+03  0.41800000000E+01 0. -1.
        -11    1    1    2    0    0 -0.11736966638E+00  0.59075230275E+02 -0.19854816038E+03  0.20715035263E+03  0.00000000000E+00 0. -1.
         11    1    1    2    0    0  0.88699302837E+01 -0.24372943559E+02 -0.20517981604E+02  0.33071190031E+02  0.00000000000E+00 0.  1.
</event>
<event>
 7    1  0.2666594E-009  0.1559263E+03  0.7561462E-02  0.1193374E+00
         -1   -1    0    0    0  501 -0.00000000000E+00  0.00000000000E+00  0.44057829878E+02  0.44057829878E+02  0.00000000000E+00 0. -1.
          1   -1    0    0  501    0  0.00000000000E+00 -0.00000000000E+00 -0.65212918924E+03  0.65212918924E+03  0.00000000000E+00 0.  1.
         25    2    1    2    0    0 -0.11190882594E+03  0.56977289097E+02 -0.36305929476E+03  0.40401640488E+03  0.12508879689E+03 0.  0.
          5    1    3    3  502    0 -0.11760122966E+03  0.35268965788E+01 -0.29183937262E+03  0.31469061001E+03  0.41800000000E+01 0.  1.
         -5    1    3    3    0  502  0.56924037218E+01  0.53450392518E+02 -0.71219922144E+02  0.89325794878E+02  0.41800000000E+01 0.  1.
        -11    1    1    2    0    0  0.89188822321E+02 -0.12228677635E+02 -0.21645402823E+03  0.23442809755E+03  0.00000000000E+00 0.  1.
         11    1    1    2    0    0  0.22720003616E+02 -0.44748611461E+02 -0.28558036378E+02  0.57742516691E+02  0.00000000000E+00 0. -1.
</event>
<event>
 7    1  0.2666594E-009  0.8229860E+02  0.7561462E-02  0.1322652E+00
          2   -1    0    0  501    0  0.00000000000E+00  0.00000000000E+00  0.84769437688E+02  0.84769437688E+02  0.00000000000E+00 0. -1.
         -2   -1    0    0    0  501 -0.00000000000E+00 -0.00000000000E+00 -0.28521324350E+03  0.28521324350E+03  0.00000000000E+00 0.  1.
         25    2    1    2    0    0 -0.16586548935E+02  0.52362925492E+02 -0.22293440500E+03  0.26146572746E+03  0.12509031990E+03 0.  0.
          5    1    3    3  502    0  0.17357467700E+02  0.24284030269E+02  0.38670224981E+01  0.30387860636E+02  0.41800000000E+01 0. -1.
         -5    1    3    3    0  502 -0.33944016635E+02  0.28078895224E+02 -0.22680142750E+03  0.23107786683E+03  0.41800000000E+01 0. -1.
        -11    1    1    2    0    0  0.23861620656E+02  0.11107375297E+02 -0.18892606835E+02  0.32398785770E+02  0.00000000000E+00 0.  1.
         11    1    1    2    0    0 -0.72750717208E+01 -0.63470300790E+02  0.41383206028E+02  0.76118167950E+02  0.00000000000E+00 0. -1.
</event>
<event>
 7    1  0.2666594E-009  0.6777659E+02  0.7561462E-02  0.1367821E+00
         -1   -1    0    0    0  501 -0.00000000000E+00  0.00000000000E+00  0.14202674259E+03  0.14202674259E+03  0.00000000000E+00 0.  1.
          1   -1    0    0  501    0  0.00000000000E+00 -0.00000000000E+00 -0.12339386146E+03  0.12339386146E+03  0.00000000000E+00 0. -1.
         25    2    1    2    0    0 -0.44989852381E+02  0.22120415000E+02  0.66674728227E+02  0.15035037745E+03  0.12508523909E+03 0.  0.
          5    1    3    3  502    0  0.13664496900E+02 -0.47003846773E+01  0.82459026788E+02  0.83819899728E+02  0.41800000000E+01 0. -1.
         -5    1    3    3    0  502 -0.58654349281E+02  0.26820799677E+02 -0.15784298561E+02  0.66530477723E+02  0.41800000000E+01 0. -1.
        -11    1    1    2    0    0  0.34419007215E+02 -0.36683001755E+01 -0.73891729832E+02  0.81597256213E+02  0.00000000000E+00 0. -1.
         11    1    1    2    0    0  0.10570845166E+02 -0.18452114824E+02  0.25849882734E+02  0.33472970385E+02  0.00000000000E+00 0.  1.
</event>
<event>
 7    1  0.2666594E-009  0.7538201E+02  0.7561462E-02  0.1342692E+00
          2   -1    0    0  501    0  0.00000000000E+00  0.00000000000E+00  0.60529440476E+03  0.60529440476E+03  0.00000000000E+00 0. -1.
         -2   -1    0    0    0  501 -0.00000000000E+00 -0.00000000000E+00 -0.20230994459E+02  0.20230994459E+02  0.00000000000E+00 0.  1.
         25    2    1    2    0    0 -0.14214494525E+02  0.11286279693E+01  0.35602117387E+03  0.37762691288E+03  0.12509070081E+03 0.  0.
          5    1    3    3  502    0  0.28183215450E+02  0.18993624337E+01  0.32156016008E+03  0.32282551039E+03  0.41800000000E+01 0. -1.
         -5    1    3    3    0  502 -0.42397709975E+02 -0.77073446443E+00  0.34461013797E+02  0.54801402488E+02  0.41800000000E+01 0. -1.
        -11    1    1    2    0    0 -0.15784317229E+02  0.31525934720E+02  0.17237763405E+03  0.17594623597E+03  0.00000000000E+00 0. -1.
         11    1    1    2    0    0  0.29998811754E+02 -0.32654562689E+02  0.56664602376E+02  0.71952250371E+02  0.00000000000E+00 0.  1.
</event>
<event>
 7    1  0.2666594E-009  0.1234704E+03  0.7561462E-02  0.1237479E+00
          2   -1    0    0  501    0  0.00000000000E+00  0.00000000000E+00  0.48777574824E+03  0.48777574824E+03  0.00000000000E+00 0. -1.
         -2   -1    0    0    0  501 -0.00000000000E+00 -0.00000000000E+00 -0.32367659855E+02  0.32367659855E+02  0.00000000000E+00 0.  1.
         25    2    1    2    0    0 -0.58364613633E+02 -0.27745961660E+02  0.25693683482E+03  0.29298971740E+03  0.12510064309E+03 0.  0.
          5    1    3    3  502    0  0.26081525156E+02 -0.47147383642E+02  0.10083978894E+03  0.11440829154E+03  0.41800000000E+01 0.  1.
         -5    1    3    3    0  502 -0.84446138789E+02  0.19401421981E+02  0.15609704588E+03  0.17858142587E+03  0.41800000000E+01 0.  1.
        -11    1    1    2    0    0  0.28007446989E+02 -0.29919819897E+02  0.10911622005E+03  0.11655883574E+03  0.00000000000E+00 0.  1.
         11    1    1    2    0    0  0.30357166644E+02  0.57665781558E+02  0.89355033509E+02  0.11059485496E+03  0.00000000000E+00 0. -1.
</event>
<event>
 7    1  0.2666594E-009  0.9246997E+02  0.7561462E-02  0.1296978E+00
          4   -1    0    0  501    0  0.00000000000E+00  0.00000000000E+00  0.33291286541E+03  0.33291286541E+03  0.00000000000E+00 0. -1.
         -4   -1    0    0    0  501 -0.00000000000E+00 -0.00000000000E+00 -0.40621015341E+02  0.40621015341E+02  0.00000000000E+00 0.  1.
         25    2    1    2    0    0  0.40968348392E+02  0.75833670913E+01  0.15111588647E+03  0.20054812819E+03  0.12509047746E+03 0.  0.
          5    1    3    3  502    0 -0.13078657618E+02  0.36923427018E+02  0.22871813858E+01  0.39460034801E+02  0.41800000000E+01 0.  1.
         -5    1    3    3    0  502  0.54047006010E+02 -0.29340059926E+02  0.14882870509E+03  0.16108809339E+03  0.41800000000E+01 0.  1.
        -11    1    1    2    0    0  0.12351667755E+02 -0.24941784369E+02  0.98951778817E+02  0.10279158932E+03  0.00000000000E+00 0. -1.
         11    1    1    2    0    0 -0.53320016147E+02  0.17358417278E+02  0.42224184782E+02  0.70194163239E+02  0.00000000000E+00 0.  1.
</event>
<event>
 7    1  0.2666594E-009  0.1239789E+03  0.7561462E-02  0.1236674E+00
         -1   -1    0    0    0  501 -0.00000000000E+00  0.00000000000E+00  0.14826204832E+02  0.14826204832E+02  0.00000000000E+00 0.  1.
          1   -1    0    0  501    0  0.00000000000E+00 -0.00000000000E+00 -0.11093119817E+04  0.11093119817E+04  0.00000000000E+00 0. -1.
         25    2    1    2    0    0  0.61289414942E+02 -0.22929934761E+02 -0.54909742859E+03  0.56695482324E+03  0.12509041218E+03 0.  0.
          5    1    3    3  502    0 -0.25028522143E+02 -0.38518218637E+02 -0.28321247339E+03  0.28694399728E+03  0.41800000000E+01 0.  1.
         -5    1    3    3    0  502  0.86317937085E+02  0.15588283876E+02 -0.26588495520E+03  0.28001082596E+03  0.41800000000E+01 0.  1.
        -11    1    1    2    0    0 -0.54557136333E+02  0.57227744763E+02 -0.37333905893E+03  0.38161963893E+03  0.00000000000E+00 0. -1.
         11    1    1    2    0    0 -0.67322786093E+01 -0.34297810002E+02 -0.17204928932E+03  0.17556372434E+03  0.00000000000E+00 0.  1.
</event>
<event>
 7    1  0.2666594E-009  0.1031003E+03  0.7561462E-02  0.1273908E+00
         -2   -1    0    0    0  501 -0.00000000000E+00  0.00000000000E+00  0.15685826950E+03  0.15685826950E+03  0.00000000000E+00 0.  1.
          2   -1    0    0  501    0  0.00000000000E+00 -0.00000000000E+00 -0.12700750558E+03  0.12700750558E+03  0.00000000000E+00 0. -1.
         25    2    1    2    0    0  0.48170808345E+02 -0.35022785626E+02  0.82394289899E+02  0.16119288150E+03  0.12508918318E+03 0.  0.
          5    1    3    3  502    0  0.69578332008E+01  0.23931009454E+02  0.85417619193E+02  0.89077195313E+02  0.41800000000E+01 0.  1.
         -5    1    3    3    0  502  0.41212975144E+02 -0.58953795079E+02 -0.30233292939E+01  0.72115686189E+02  0.41800000000E+01 0.  1.
        -11    1    1    2    0    0 -0.18218636054E+02 -0.31237744336E+02 -0.28637149034E+02  0.46128100716E+02  0.00000000000E+00 0. -1.
         11    1    1    2    0    0 -0.29952172290E+02  0.66260529962E+02 -0.23906376941E+02  0.76544792861E+02  0.00000000000E+00 0.  1.
</event>
<event>
 7    1  0.2666594E-009  0.1223975E+03  0.7561462E-02  0.1239193E+00
         -2   -1    0    0    0  501 -0.00000000000E+00  0.00000000000E+00  0.76725271802E+02  0.76725271802E+02  0.00000000000E+00 0.  1.
          2   -1    0    0  501    0  0.00000000000E+00 -0.00000000000E+00 -0.23929292799E+03  0.23929292799E+03  0.00000000000E+00 0. -1.
         25    2    1    2    0    0  0.35245159637E+02 -0.70802024328E+02 -0.94748554501E+02  0.17572549844E+03  0.12508802618E+03 0.  0.
          5    1    3    3  502    0  0.60750696376E+02 -0.90960801367E+02 -0.91717558326E+02  0.14280790385E+03  0.41800000000E+01 0. -1.
         -5    1    3    3    0  502 -0.25505536738E+02  0.20158777039E+02 -0.30309961751E+01  0.32917594593E+02  0.41800000000E+01 0. -1.
        -11    1    1    2    0    0 -0.48228463620E+02  0.74773557160E+02 -0.20832966810E+02  0.91384254987E+02  0.00000000000E+00 0.  1.
         11    1    1    2    0    0  0.12983303982E+02 -0.39715328313E+01 -0.46986134874E+02  0.48908446364E+02  0.00000000000E+00 0. -1.
</event>
<event>
 7    1  0.2666594E-009  0.1221165E+03  0.7561462E-02  0.1239646E+00
         -1   -1    0    0    0  501 -0.00000000000E+00  0.00000000000E+00  0.13984230597E+02  0.13984230597E+02  0.00000000000E+00 0.  1.
          1   -1    0    0  501    0  0.00000000000E+00 -0.00000000000E+00 -0.13069813117E+04  0.13069813117E+04  0.00000000000E+00 0. -1.
         25    2    1    2    0    0  0.56381771584E+02  0.52565030535E+02 -0.83944641913E+03  0.85220739544E+03  0.12508064462E+03 0.  0.
          5    1    3    3  502    0  0.71354045587E+02  0.72254716054E+02 -0.42426331898E+03  0.43626709714E+03  0.41800000000E+01 0. -1.
         -5    1    3    3    0  502 -0.14972274003E+02 -0.19689685519E+02 -0.41518310015E+03  0.41594029830E+03  0.41800000000E+01 0. -1.
        -11    1    1    2    0    0 -0.51406453027E+02  0.11973018949E+02 -0.23307716863E+03  0.23897895960E+03  0.00000000000E+00 0. -1.
         11    1    1    2    0    0 -0.49753185570E+01 -0.64538049485E+02 -0.22047349330E+03  0.22977918721E+03  0.00000000000E+00 0.  1.
</event>
<event>
 7    1  0.2666594E-009  0.1364390E+03  0.7561462E-02  0.1218202E+00
          3   -1    0    0  501    0  0.00000000000E+00  0.00000000000E+00  0.76184130183E+02  0.76184130183E+02  0.00000000000E+00 0. -1.
         -3   -1    0    0    0  501 -0.00000000000E+00 -0.00000000000E+00 -0.27015131440E+03  0.27015131440E+03  0.00000000000E+00 0.  1.
         25    2    1    2    0    0  0.77483934500E+02 -0.49879360533E+02 -0.11024164126E+03  0.19050576800E+03  0.12509003741E+03 0.  0.
          5    1    3    3  502    0 -0.33170936958E+02 -0.13103975121E+01 -0.33173803518E+02  0.47116895485E+02  0.41800000000E+01 0. -1.
         -5    1    3    3    0  502  0.11065487146E+03 -0.48568963021E+02 -0.77067837741E+02  0.14338887251E+03  0.41800000000E+01 0. -1.
        -11    1    1    2    0    0 -0.10294982930E+02  0.50268646350E+02 -0.70749572306E+02  0.87398086140E+02  0.00000000000E+00 0.  1.
         11    1    1    2    0    0 -0.67188951570E+02 -0.38928581687E+00 -0.12975970651E+02  0.68431590445E+02  0.00000000000E+00 0. -1.
</event>
<event>
 7    1  0.2666594E-009  0.2549595E+03  0.7561462E-02  0.1110210E+00
         -1   -1    0    0    0  501 -0.00000000000E+00  0.00000000000E+00  0.15382051633E+04  0.15382051633E+04  0.00000000000E+00 0.  1.
          1   -1    0    0  501    0  0.00000000000E+00 -0.00000000000E+00 -0.50790851379E+02  0.50790851379E+02  0.00000000000E+00 0. -1.
         25    2    1    2    0    0 -0.24134625336E+03 -0.45605361692E+02  0.94756847107E+03  0.98684439995E+03  0.12509196340E+03 0.  0.
          5    1    3    3  502    0 -0.16562106898E+03  0.33607559334E+01  0.41819881329E+03  0.44983258332E+03  0.41800000000E+01 0.  1.
         -5    1    3    3    0  502 -0.75725184381E+02 -0.48966117626E+02  0.52936965778E+03  0.53701181663E+03  0.41800000000E+01 0.  1.
        -11    1    1    2    0    0  0.13059514343E+03  0.57215539628E+02  0.39154030397E+03  0.41669235545E+03  0.00000000000E+00 0.  1.
         11    1    1    2    0    0  0.11075110994E+03 -0.11610177935E+02  0.14830553689E+03  0.18545925929E+03  0.00000000000E+00 0. -1.
</event>
<event>
 7    1  0.2666594E-009  0.2077704E+03  0.7561462E-02  0.1143344E+00
         -2   -1    0    0    0  501 -0.00000000000E+00  0.00000000000E+00  0.22586641425E+03  0.22586641425E+03  0.00000000000E+00 0. -1.
          2   -1    0    0  501    0  0.00000000000E+00 -0.00000000000E+00 -0.29715742061E+03  0.29715742061E+03  0.00000000000E+00 0.  1.
         25    2    1    2    0    0  0.68853564809E+02 -0.18332026428E+03 -0.16710648493E+03  0.28621416059E+03  0.12508731245E+03 0.  0.
          5    1    3    3  502    0 -0.54021654372E+01 -0.92628851132E+02 -0.14912102243E+02  0.94069817937E+02  0.41800000000E+01 0.  1.
         -5    1    3    3    0  502  0.74255730247E+02 -0.90691413149E+02 -0.15219438268E+03  0.19214434265E+03  0.41800000000E+01 0.  1.
        -11    1    1    2    0    0 -0.19487910350E+02  0.13463784532E+03  0.26165720967E+02  0.13853437478E+03  0.00000000000E+00 0.  1.
         11    1    1    2    0    0 -0.49365654459E+02  0.48682418962E+02  0.69649757604E+02  0.98275299493E+02  0.00000000000E+00 0. -1.
</event>
<event>
 7    1  0.2666594E-009  0.1366512E+03  0.7561462E-02  0.1217907E+00
          1   -1    0    0  501    0  0.00000000000E+00  0.00000000000E+00  0.95128712677E+03  0.95128712677E+03  0.00000000000E+00 0. -1.
         -1   -1    0    0    0  501 -0.00000000000E+00 -0.00000000000E+00 -0.29944272004E+02  0.29944272004E+02  0.00000000000E+00 0.  1.
         25    2    1    2    0    0 -0.12293931179E+03  0.15474483959E+01  0.60695266413E+03  0.63178890967E+03  0.12509684611E+03 0.  0.
          5    1    3    3  502    0 -0.17471351859E+02 -0.14939897472E+02  0.38246217013E+03  0.38317519838E+03  0.41800000000E+01 0.  1.
         -5    1    3    3    0  502 -0.10546795993E+03  0.16487345868E+02  0.22449049400E+03  0.24861371129E+03  0.41800000000E+01 0.  1.
        -11    1    1    2    0    0  0.33635346764E+02  0.33219017825E+02  0.52903680078E+02  0.70948143478E+02  0.00000000000E+00 0.  1.
         11    1    1    2    0    0  0.89303965022E+02 -0.34766466221E+02  0.26148651056E+03  0.27849434563E+03  0.00000000000E+00 0. -1.
</event>
<event>
 7    1  0.2666594E-009  0.1029613E+03  0.7561462E-02  0.1274189E+00
          2   -1    0    0  501    0  0.00000000000E+00  0.00000000000E+00  0.19613050851E+03  0.19613050851E+03  0.00000000000E+00 0. -1.
         -2   -1    0    0    0  501 -0.00000000000E+00 -0.00000000000E+00 -0.61523947325E+02  0.61523947325E+02  0.00000000000E+00 0.  1.
         25    2    1    2    0    0 -0.15596449324E+01  0.26965228581E+02  0.76924339898E+02  0.14931968885E+03  0.12509779920E+03 0.  0.
          5    1    3    3  502    0 -0.59639843639E+02 -0.73730251072E+01  0.39743067490E+02  0.72168249681E+02  0.41800000000E+01 0.  1.
         -5    1    3    3    0  502  0.58080198707E+02  0.34338253688E+02  0.37181272407E+02  0.77151439170E+02  0.41800000000E+01 0.  1.
        -11    1    1    2    0    0 -0.10706297374E+02 -0.50457525918E+02  0.82360471842E+01  0.52234272260E+02  0.00000000000E+00 0.  1.
         11    1    1    2    0    0  0.12265942306E+02  0.23492297337E+02  0.49446174100E+02  0.56100494721E+02  0.00000000000E+00 0. -1.
</event>
<event>
 7    1  0.2666594E-009  0.1321815E+03  0.7561462E-02  0.1224254E+00
          1   -1    0    0  501    0  0.00000000000E+00  0.00000000000E+00  0.17302449048E+04  0.17302449048E+04  0.00000000000E+00 0.  1.
         -1   -1    0    0    0  501 -0.00000000000E+00 -0.00000000000E+00 -0.14797027128E+02  0.14797027128E+02  0.00000000000E+00 0. -1.
         25    2    1    2    0    0  0.85840851109E+02 -0.35421032613E+02  0.13188037087E+04  0.13279735770E+04  0.12508915958E+03 0.  0.
          5    1    3    3  502    0  0.37190045566E+02  0.45852463554E+02  0.60802809939E+03  0.61090194791E+03  0.41800000000E+01 0. -1.
         -5    1    3    3    0  502  0.48650805543E+02 -0.81273496167E+02  0.71077560932E+03  0.71707162910E+03  0.41800000000E+01 0. -1.
        -11    1    1    2    0    0 -0.59500467833E+02  0.52182540986E+02  0.36148887633E+03  0.37005071405E+03  0.00000000000E+00 0.  1.
         11    1    1    2    0    0 -0.26340383276E+02 -0.16761508373E+02  0.35155292652E+02  0.47017640897E+02  0.00000000000E+00 0. -1.
</event>
<event>
 7    1  0.2666594E-009  0.1174804E+03  0.7561462E-02  0.1247312E+00
         -2   -1    0    0    0  501 -0.00000000000E+00  0.00000000000E+00  0.14305509729E+02  0.14305509729E+02  0.00000000000E+00 0.  1.
          2   -1    0    0  501    0  0.00000000000E+00 -0.00000000000E+00 -0.13622039185E+04  0.13622039185E+04  0.00000000000E+00 0. -1.
         25    2    1    2    0    0 -0.26613998230E+01 -0.47440570068E+02 -0.11005864878E+04  0.11086907920E+04  0.12508782641E+03 0.  0.
          5    1    3    3  502    0 -0.18807709642E+02  0.39977870871E+02 -0.32530699444E+03  0.32832007726E+03  0.41800000000E+01 0. -1.
         -5    1    3    3    0  502  0.16146309819E+02 -0.87418440939E+02 -0.77527949337E+03  0.78037071471E+03  0.41800000000E+01 0. -1.
        -11    1    1    2    0    0 -0.27370179813E+02 -0.15782127504E+02 -0.59128721639E+02  0.67040346167E+02  0.00000000000E+00 0. -1.
         11    1    1    2    0    0  0.30031579636E+02  0.63222697572E+02 -0.18818319930E+03  0.20077829007E+03  0.00000000000E+00 0.  1.
</event>
<event>
 7    1  0.2666594E-009  0.1566535E+03  0.7561462E-02  0.1192528E+00
          4   -1    0    0  501    0  0.00000000000E+00  0.00000000000E+00  0.18999101640E+03  0.18999101640E+03  0.00000000000E+00 0. -1.
         -4   -1    0    0    0  501 -0.00000000000E+00 -0.00000000000E+00 -0.13867459691E+03  0.13867459691E+03  0.00000000000E+00 0.  1.
         25    2    1    2    0    0  0.10855057780E+03 -0.50698481559E+02  0.11622766275E+02  0.17359631624E+03  0.12508808234E+03 0.  0.
          5    1    3    3  502    0  0.85508889747E+02 -0.89337664499E+02 -0.87282093021E+01  0.12404290613E+03  0.41800000000E+01 0. -1.
         -5    1    3    3    0  502  0.23041688055E+02  0.38639182939E+02  0.20350975577E+02  0.49553410110E+02  0.41800000000E+01 0. -1.
        -11    1    1    2    0    0 -0.11869572443E+03  0.31705731037E+02  0.48122513803E+02  0.13194584007E+03  0.00000000000E+00 0. -1.
         11    1    1    2    0    0  0.10145146625E+02  0.18992750522E+02 -0.84288605844E+01  0.23123456991E+02  0.00000000000E+00 0.  1.
</event>
<event>
 7    1  0.2666594E-009  0.6299331E+02  0.7561462E-02  0.1385683E+00
          2   -1    0    0  501    0  0.00000000000E+00  0.00000000000E+00  0.28493668063E+03  0.28493668063E+03  0.00000000000E+00 0. -1.
         -2   -1    0    0    0  501 -0.00000000000E+00 -0.00000000000E+00 -0.43518506633E+02  0.43518506633E+02  0.00000000000E+00 0.  1.
         25    2    1    2    0    0 -0.26542478405E+02 -0.74245036834E+01  0.13683200503E+03  0.18743065901E+03  0.12509047893E+03 0.  0.
          5    1    3    3  502    0  0.48094444995E+01  0.58722333470E+01 -0.22675468655E+02  0.24274743245E+02  0.41800000000E+01 0.  1.
         -5    1    3    3    0  502 -0.31351922904E+02 -0.13296737030E+02  0.15950747369E+03  0.16315591576E+03  0.41800000000E+01 0.  1.
        -11    1    1    2    0    0 -0.24080456400E+02 -0.14207900989E+02  0.67489493946E+01  0.28762495526E+02  0.00000000000E+00 0.  1.
         11    1    1    2    0    0  0.50622934804E+02  0.21632404673E+02  0.97837219570E+02  0.11226203273E+03  0.00000000000E+00 0. -1.
</event>
<event>
 7    1  0.2666594E-009  0.1379014E+03  0.7561462E-02  0.1216181E+00
         -1   -1    0    0    0  501 -0.00000000000E+00  0.00000000000E+00  0.44562172372E+03  0.44562172372E+03  0.00000000000E+00 0.  1.
          1   -1    0    0  501    0  0.00000000000E+00 -0.00000000000E+00 -0.54598617113E+02  0.54598617113E+02  0.00000000000E+00 0. -1.
         25    2    1    2    0    0  0.69141433567E+02 -0.67546896545E+02  0.29844992096E+03  0.33773216843E+03  0.12509013231E+03 0.  0.
          5    1    3    3  502    0  0.53379082404E+02  0.17855565065E+02  0.19287619010E+03  0.20096478485E+03  0.41800000000E+01 0. -1.
         -5    1    3    3    0  502  0.15762351163E+02 -0.85402461611E+02  0.10557373086E+03  0.13676738358E+03  0.41800000000E+01 0. -1.
        -11    1    1    2    0    0 -0.21327693535E+02 -0.22163919755E+02  0.13009897317E+02  0.33397114825E+02  0.00000000000E+00 0. -1.
         11    1    1    2    0    0 -0.47813740032E+02  0.89710816300E+02  0.79563288329E+02  0.12909105758E+03  0.00000000000E+00 0.  1.
</event>
<event>
 7    1  0.2666594E-009  0.7259382E+02  0.7561462E-02  0.1351488E+00
         -1   -1    0    0    0  501 -0.00000000000E+00  0.00000000000E+00  0.34877955206E+03  0.34877955206E+03  0.00000000000E+00 0.  1.
          1   -1    0    0  501    0  0.00000000000E+00 -0.00000000000E+00 -0.36460717077E+02  0.36460717077E+02  0.00000000000E+00 0. -1.
         25    2    1    2    0    0  0.22246397086E+01 -0.31739225723E+02  0.18964959389E+03  0.22940441084E+03  0.12508831992E+03 0.  0.
          5    1    3    3  502    0 -0.42833591696E+02  0.48186576201E+01  0.15830315259E+02  0.46108646912E+02  0.41800000000E+01 0. -1.
         -5    1    3    3    0  502  0.45058231404E+02 -0.36557883343E+02  0.17381927863E+03  0.18329576393E+03  0.41800000000E+01 0. -1.
        -11    1    1    2    0    0  0.13898802314E+02  0.15630166308E+02 -0.85909645420E+01  0.22611578369E+02  0.00000000000E+00 0. -1.
         11    1    1    2    0    0 -0.16123442023E+02  0.16109059414E+02  0.13126020564E+03  0.13322427993E+03  0.00000000000E+00 0.  1.
</event>
<event>
 7    1  0.2666594E-009  0.1813628E+03  0.7561462E-02  0.1166491E+00
          1   -1    0    0  501    0  0.00000000000E+00  0.00000000000E+00  0.59860224211E+03  0.59860224211E+03  0.00000000000E+00 0. -1.
         -1   -1    0    0    0  501 -0.00000000000E+00 -0.00000000000E+00 -0.76682650385E+02  0.76682650385E+02  0.00000000000E+00 0.  1.
         25    2    1    2    0    0  0.39163206007E+02 -0.14392009221E+03  0.44484375174E+03  0.48557229178E+03  0.12509091665E+03 0.  0.
          5    1    3    3  502    0  0.77288494980E+02 -0.48306058663E+02  0.19332784768E+03  0.21377585422E+03  0.41800000000E+01 0. -1.
         -5    1    3    3    0  502 -0.38125288973E+02 -0.95614033547E+02  0.25151590406E+03  0.27179643755E+03  0.41800000000E+01 0. -1.
        -11    1    1    2    0    0 -0.14860129491E+02 -0.64113307466E+01 -0.47116443899E+01  0.16856102850E+02  0.00000000000E+00 0.  1.
         11    1    1    2    0    0 -0.24303076516E+02  0.15033142296E+03  0.81787484376E+02  0.17285649787E+03  0.00000000000E+00 0. -1.
</event>
<event>
 7    1  0.2670062E-009  0.1468249E+03  0.7561462E-02  0.1204430E+00
         -1   -1    0    0    0  501 -0.00000000000E+00  0.00000000000E+00  0.12115160105E+02  0.12115160105E+02  0.00000000000E+00 0.  1.
          1   -1    0    0  501    0  0.00000000000E+00 -0.00000000000E+00 -0.19211984269E+04  0.19211984269E+04  0.00000000000E+00 0. -1.
         25    2    1    2    0    0  0.51084636067E+02 -0.93061820178E+02 -0.10812722866E+04  0.10936488993E+04  0.12509202484E+03 0.  0.
          5    1    3    3  502    0  0.85034975991E+02 -0.52550140266E+02 -0.87377920914E+03  0.87948851221E+03  0.41800000000E+01 0.  1.
         -5    1    3    3    0  502 -0.33950339924E+02 -0.40511679912E+02 -0.20749307750E+03  0.21416038709E+03  0.41800000000E+01 0.  1.
        -11    1    1    2    0    0  0.25255557723E+02  0.41074167968E+02 -0.27867918949E+03  0.28281976792E+03  0.00000000000E+00 0.  1.
         11    1    1    2    0    0 -0.76340193790E+02  0.51987652210E+02 -0.54913179071E+03  0.55684491983E+03  0.00000000000E+00 0. -1.
</event>
<event>
 7    1  0.2666594E-009  0.8089299E+02  0.7561462E-02  0.1326536E+00
         -1   -1    0    0    0  501 -0.00000000000E+00  0.00000000000E+00  0.26584365554E+03  0.26584365554E+03  0.00000000000E+00 0.  1.
          1   -1    0    0  501    0  0.00000000000E+00 -0.00000000000E+00 -0.64266863432E+02  0.64266863432E+02  0.00000000000E+00 0. -1.
         25    2    1    2    0    0 -0.61673522058E+02  0.16535563024E+02  0.15487212861E+03  0.20907025135E+03  0.12509174878E+03 0.  0.
          5    1    3    3  502    0 -0.65992741074E+01 -0.51945589193E+01 -0.21243159450E+02  0.23222361735E+02  0.41800000000E+01 0.  1.
         -5    1    3    3    0  502 -0.55074247950E+02  0.21730121943E+02  0.17611528806E+03  0.18584788962E+03  0.41800000000E+01 0.  1.
        -11    1    1    2    0    0  0.65984720504E+02  0.94965399555E+01  0.61576241732E+02  0.90751314905E+02  0.00000000000E+00 0.  1.
         11    1    1    2    0    0 -0.43111984467E+01 -0.26032102979E+02 -0.14871578231E+02  0.30288952717E+02  0.00000000000E+00 0. -1.
</event>
<event>
 7    1  0.2666594E-009  0.7871914E+02  0.7561462E-02  0.1332726E+00
         -2   -1    0    0    0  501 -0.00000000000E+00  0.00000000000E+00  0.68752051440E+02  0.68752051440E+02  0.00000000000E+00 0.  1.
          2   -1    0    0  501    0  0.00000000000E+00 -0.00000000000E+00 -0.20748018650E+03  0.20748018650E+03  0.00000000000E+00 0. -1.
         25    2    1    2    0    0 -0.38934542629E+01 -0.47214491288E+02 -0.58285313932E+02  0.14590631334E+03  0.12508839786E+03 0.  0.
          5    1    3    3  502    0  0.14338262544E+02  0.21336919263E+01  0.35343361831E+02  0.38428687716E+02  0.41800000000E+01 0. -1.
         -5    1    3    3    0  502 -0.18231716806E+02 -0.49348183214E+02 -0.93628675763E+02  0.10747762562E+03  0.41800000000E+01 0. -1.
        -11    1    1    2    0    0 -0.31501839152E+02  0.43891809650E+02 -0.77743564245E+02  0.94672691975E+02  0.00000000000E+00 0. -1.
         11    1    1    2    0    0  0.35395293415E+02  0.33226816377E+01 -0.26992568855E+01  0.35653232630E+02  0.00000000000E+00 0.  1.
</event>
<event>
 7    1  0.2666594E-009  0.1925909E+03  0.7561462E-02  0.1156145E+00
         -2   -1    0    0    0  501 -0.00000000000E+00  0.00000000000E+00  0.69771401689E+02  0.69771401689E+02  0.00000000000E+00 0. -1.
          2   -1    0    0  501    0  0.00000000000E+00 -0.00000000000E+00 -0.63204597135E+03  0.63204597135E+03  0.00000000000E+00 0.  1.
         25    2    1    2    0    0 -0.16433136215E+03 -0.53163387175E+01 -0.17247366503E+03  0.26912544173E+03  0.12509307820E+03 0.  0.
          5    1    3    3  502    0  0.13113822245E+01  0.29553485053E+02 -0.56434463207E+02  0.63854907718E+02  0.41800000000E+01 0. -1.
         -5    1    3    3    0  502 -0.16564274438E+03 -0.34869823771E+02 -0.11603920182E+03  0.20527053401E+03  0.41800000000E+01 0. -1.
        -11    1    1    2    0    0  0.29047683608E+02 -0.34365432728E+02 -0.12225885816E+03  0.13027654926E+03  0.00000000000E+00 0. -1.
         11    1    1    2    0    0  0.13528367855E+03  0.39681771445E+02 -0.26754204648E+03  0.30241538205E+03  0.00000000000E+00 0.  1.
</event>
<event>
 7    1  0.2666594E-009  0.6844385E+02  0.7561462E-02  0.1365466E+00
          3   -1    0    0  501    0  0.00000000000E+00  0.00000000000E+00  0.56306787446E+02  0.56306787446E+02  0.00000000000E+00 0. -1.
         -3   -1    0    0    0  501 -0.00000000000E+00 -0.00000000000E+00 -0.29458084548E+03  0.29458084548E+03  0.00000000000E+00 0.  1.
         25    2    1    2    0    0  0.19193504013E+02 -0.44624838850E+02 -0.63092188776E+02  0.14827987307E+03  0.12508608889E+03 0.  0.
          5    1    3    3  502    0  0.93131736150E+01 -0.12700964152E+02  0.38202873216E+02  0.41532897986E+02  0.41800000000E+01 0. -1.
         -5    1    3    3    0  502  0.98803303979E+01 -0.31923874698E+02 -0.10129506199E+03  0.10674697508E+03  0.41800000000E+01 0. -1.
        -11    1    1    2    0    0  0.26798964127E+02  0.75572376363E+01 -0.14460981791E+02  0.31375409373E+02  0.00000000000E+00 0. -1.
         11    1    1    2    0    0 -0.45992468140E+02  0.37067601214E+02 -0.16072088747E+03  0.17123235049E+03  0.00000000000E+00 0.  1.
</event>
<event>
 7    1  0.2666594E-009  0.1493244E+03  0.7561462E-02  0.1201306E+00
         -1   -1    0    0    0  501 -0.00000000000E+00  0.00000000000E+00  0.56626203403E+02  0.56626203403E+02  0.00000000000E+00 0.  1.
          1   -1    0    0  501    0  0.00000000000E+00 -0.00000000000E+00 -0.45830984516E+03  0.45830984516E+03  0.00000000000E+00 0. -1.
         25    2    1    2    0    0  0.20994655770E+01 -0.11360904810E+03 -0.27157519471E+03  0.31986237949E+03  0.12508969529E+03 0.  0.
          5    1    3    3  502    0  0.54436638953E+02 -0.21650934723E+02 -0.64178644514E+02  0.86997019757E+02  0.41800000000E+01 0. -1.
         -5    1    3    3    0  502 -0.52337173376E+02 -0.91958113375E+02 -0.20739655020E+03  0.23286535974E+03  0.41800000000E+01 0. -1.
        -11    1    1    2    0    0  0.33350260045E+02  0.38274430632E+02 -0.14858108820E+02  0.52895512881E+02  0.00000000000E+00 0.  1.
         11    1    1    2    0    0 -0.35449725622E+02  0.75334617466E+02 -0.11525033823E+03  0.14217815619E+03  0.00000000000E+00 0. -1.
</event>
<event>
 7    1  0.2666594E-009  0.8480676E+02  0.7561462E-02  0.1315939E+00
         -1   -1    0    0    0  501 -0.00000000000E+00  0.00000000000E+00  0.96635743986E+02  0.96635743986E+02  0.00000000000E+00 0.  1.
          1   -1    0    0  501    0  0.00000000000E+00 -0.00000000000E+00 -0.25208737827E+03  0.25208737827E+03  0.00000000000E+00 0. -1.
         25    2    1    2    0    0  0.67530181963E+01 -0.43335481482E+02 -0.19540229810E+03  0.23611719330E+03  0.12508278724E+03 0.  0.
          5    1    3    3  502    0  0.48313298416E+02 -0.64169800406E+01 -0.21381544971E+02  0.53385347259E+02  0.41800000000E+01 0.  1.
         -5    1    3    3    0  502 -0.41560280220E+02 -0.36918501442E+02 -0.17402075312E+03  0.18273184604E+03  0.41800000000E+01 0.  1.
        -11    1    1    2    0    0  0.14705382677E+02 -0.19537300240E+01 -0.25903872467E+02  0.29850895288E+02  0.00000000000E+00 0. -1.
         11    1    1    2    0    0 -0.21458400873E+02  0.45289211506E+02  0.65854536283E+02  0.82755033659E+02  0.00000000000E+00 0.  1.
</event>
<event>
 7    1  0.2666594E-009  0.8640423E+02  0.7561462E-02  0.1311801E+00
          2   -1    0    0  501    0  0.00000000000E+00  0.00000000000E+00  0.22585272503E+03  0.22585272503E+03  0.00000000000E+00 0.  1.
         -2   -1    0    0    0  501 -0.00000000000E+00 -0.00000000000E+00 -0.64323621537E+02  0.64323621537E+02  0.00000000000E+00 0. -1.
         25    2    1    2    0    0  0.47663648533E+02  0.14828347142E+02  0.10845144889E+03  0.17291877071E+03  0.12508989259E+03 0.  0.
          5    1    3    3  502    0 -0.23242634716E+02  0.21985730291E+02 -0.10720790650E+02  0.34000002310E+02  0.41800000000E+01 0. -1.
         -5    1    3    3    0  502  0.70906283249E+02 -0.71573831493E+01  0.11917223954E+03  0.13891876840E+03  0.41800000000E+01 0. -1.
        -11    1    1    2    0    0 -0.31014640238E+02  0.15412305474E+02 -0.17415828908E+02  0.38765424874E+02  0.00000000000E+00 0. -1.
         11    1    1    2    0    0 -0.16649008295E+02 -0.30240652615E+02  0.70493483508E+02  0.78492150976E+02  0.00000000000E+00 0.  1.
</event>
<event>
 7    1  0.2666594E-009  0.9246662E+02  0.7561462E-02  0.1296986E+00
          1   -1    0    0  501    0  0.00000000000E+00  0.00000000000E+00  0.49740694003E+02  0.49740694003E+02  0.00000000000E+00 0. -1.
         -1   -1    0    0    0  501 -0.00000000000E+00 -0.00000000000E+00 -0.27814522667E+03  0.27814522667E+03  0.00000000000E+00 0.  1.
         25    2    1    2    0    0 -0.13284102330E+02  0.40747624120E+02 -0.13681955046E+03  0.19027441285E+03  0.12509167259E+03 0.  0.
          5    1    3    3  502    0 -0.68122631236E+02  0.28043893710E+02 -0.93573921316E+02  0.11916670681E+03  0.41800000000E+01 0. -1.
         -5    1    3    3    0  502  0.54838528906E+02  0.12703730410E+02 -0.43245629144E+02  0.71107706045E+02  0.41800000000E+01 0. -1.
        -11    1    1    2    0    0  0.24867229198E+02 -0.29005020740E+02 -0.10786794062E+03  0.11443409863E+03  0.00000000000E+00 0.  1.
         11    1    1    2    0    0 -0.11583126868E+02 -0.11742603380E+02  0.16282958411E+02  0.23177409190E+02  0.00000000000E+00 0. -1.
</event>
<event>
 7    1  0.2666594E-009  0.1069720E+03  0.7561462E-02  0.1266282E+00
         -1   -1    0    0    0  501 -0.00000000000E+00  0.00000000000E+00  0.28586347288E+02  0.28586347288E+02  0.00000000000E+00 0.  1.
          1   -1    0    0  501    0  0.00000000000E+00 -0.00000000000E+00 -0.52718690744E+03  0.52718690744E+03  0.00000000000E+00 0. -1.
         25    2    1    2    0    0 -0.39655270091E+02  0.39445503354E+02 -0.28813990662E+03  0.31906027569E+03  0.12508543302E+03 0.  0.
          5    1    3    3  502    0  0.61969195537E+01 -0.39792248126E+02 -0.53019390261E+02  0.66710965864E+02  0.41800000000E+01 0. -1.
         -5    1    3    3    0  502 -0.45852189644E+02  0.79237751480E+02 -0.23512051636E+03  0.25234930983E+03  0.41800000000E+01 0. -1.
        -11    1    1    2    0    0  0.17364099645E+02 -0.52967053345E+02 -0.20161995815E+03  0.20918324077E+03  0.00000000000E+00 0. -1.
         11    1    1    2    0    0  0.22291170446E+02  0.13521549991E+02 -0.88406953756E+01  0.27529738261E+02  0.00000000000E+00 0.  1.
</event>
<event>
 7    1  0.2666594E-009  0.1073239E+03  0.7561462E-02  0.1265607E+00
          1   -1    0    0  501    0  0.00000000000E+00  0.00000000000E+00  0.41461863823E+02  0.41461863823E+02  0.00000000000E+00 0. -1.
         -1   -1    0    0    0  501 -0.00000000000E+00 -0.00000000000E+00 -0.29825685157E+03  0.29825685157E+03  0.00000000000E+00 0.  1.
         25    2    1    2    0    0  0.43876297333E+02  0.69512021423E+01 -0.16065382325E+03  0.20840025027E+03  0.12509022627E+03 0.  0.
          5    1    3    3  502    0  0.37248850500E+02  0.62189747364E+02 -0.63957343236E+02  0.96762883869E+02  0.41800000000E+01 0.  1.
         -5    1    3    3    0  502  0.66274468336E+01 -0.55238545222E+02 -0.96696480018E+02  0.11163736640E+03  0.41800000000E+01 0.  1.
        -11    1    1    2    0    0 -0.51357518189E+02 -0.31724485071E+02 -0.82015216289E+02  0.10183581556E+03  0.00000000000E+00 0. -1.
         11    1    1    2    0    0  0.74812208556E+01  0.24773282928E+02 -0.14125948204E+02  0.29482649562E+02  0.00000000000E+00 0.  1.
</event>
<event>
 7    1  0.2666594E-009  0.1149799E+03  0.7561462E-02  0.1251616E+00
         -3   -1    0    0    0  501 -0.00000000000E+00  0.00000000000E+00  0.60732512655E+03  0.60732512655E+03  0.00000000000E+00 0.  1.
          3   -1    0    0  501    0  0.00000000000E+00 -0.00000000000E+00 -0.27355375436E+02  0.27355375436E+02  0.00000000000E+00 0. -1.
         25    2    1    2    0    0  0.34528623189E+02 -0.59818772433E+02  0.28483676619E+03  0.31866922442E+03  0.12509028686E+03 0.  0.
          5    1    3    3  502    0  0.70634235766E+02 -0.75098978169E+02  0.19688423319E+03  0.22228343497E+03  0.41800000000E+01 0. -1.
         -5    1    3    3    0  502 -0.36105612577E+02  0.15280205736E+02  0.87952532999E+02  0.96385789449E+02  0.41800000000E+01 0. -1.
        -11    1    1    2    0    0 -0.34671511194E+02  0.80668766264E+01  0.32092882566E+02  0.47928501941E+02  0.00000000000E+00 0. -1.
         11    1    1    2    0    0  0.14288800527E+00  0.51751895807E+02  0.26304010236E+03  0.26808277563E+03  0.00000000000E+00 0.  1.
</event>
<event>
 7    1  0.2666594E-009  0.8281913E+02  0.7561462E-02  0.1321236E+00
          1   -1    0    0  501    0  0.00000000000E+00  0.00000000000E+00  0.18038685962E+03  0.18038685962E+03  0.00000000000E+00 0. -1.
         -1   -1    0    0    0  501 -0.00000000000E+00 -0.00000000000E+00 -0.81114392555E+02  0.81114392555E+02  0.00000000000E+00 0.  1.
         25    2    1    2    0    0 -0.40097574970E+02  0.36924076413E+02  0.57146046814E+02  0.14793403892E+03  0.12509039238E+03 0.  0.
          5    1    3    3  502    0 -0.39704609456E+02 -0.25464952585E+02 -0.17566557657E+02  0.50507189292E+02  0.41800000000E+01 0. -1.
         -5    1    3    3    0  502 -0.39296551301E+00  0.62389028999E+02  0.74712604471E+02  0.97426849627E+02  0.41800000000E+01 0. -1.
        -11    1    1    2    0    0  0.21463067945E+02 -0.11859715725E+02 -0.27747790763E+02  0.37030474408E+02  0.00000000000E+00 0.  1.
         11    1    1    2    0    0  0.18634507025E+02 -0.25064360688E+02  0.69874211011E+02  0.76536738846E+02  0.00000000000E+00 0. -1.
</event>
<event>
 7    1  0.2666594E-009  0.1869971E+03  0.7561462E-02  0.1161198E+00
         -2   -1    0    0    0  501 -0.00000000000E+00  0.00000000000E+00  0.64268560974E+02  0.64268560974E+02  0.00000000000E+00 0.  1.
          2   -1    0    0  501    0  0.00000000000E+00 -0.00000000000E+00 -0.63639259515E+03  0.63639259515E+03  0.00000000000E+00 0. -1.
         25    2    1    2    0    0 -0.28482411888E+02 -0.16584199017E+03 -0.26213806266E+03  0.33567534658E+03  0.12508701338E+03 0.  0.
          5    1    3    3  502    0 -0.52625188890E+01  0.91269800382E+01  0.73461974549E+01  0.13506845921E+02  0.41800000000E+01 0. -1.
         -5    1    3    3    0  502 -0.23219892999E+02 -0.17496897021E+03 -0.26948426012E+03  0.32216850066E+03  0.41800000000E+01 0. -1.
        -11    1    1    2    0    0 -0.23788736781E+02  0.95808882653E+02 -0.11663910318E+03  0.15280682702E+03  0.00000000000E+00 0. -1.
         11    1    1    2    0    0  0.52271148669E+02  0.70033107515E+02 -0.19334686833E+03  0.21217898252E+03  0.00000000000E+00 0.  1.
</event>
<event>
 7    1  0.2666594E-009  0.1087406E+03  0.7561462E-02  0.1262920E+00
          1   -1    0    0  501    0  0.00000000000E+00  0.00000000000E+00  0.65857261609E+02  0.65857261609E+02  0.00000000000E+00 0. -1.
         -1   -1    0    0    0  501 -0.00000000000E+00 -0.00000000000E+00 -0.23593300899E+03  0.23593300899E+03  0.00000000000E+00 0.  1.
         25    2    1    2    0    0 -0.14710459528E+02 -0.33825467413E+02 -0.15287805535E+03  0.20094702077E+03  0.12508974971E+03 0.  0.
          5    1    3    3  502    0 -0.68086390950E+02 -0.30792757697E+02 -0.71623713098E+02  0.10359237056E+03  0.41800000000E+01 0.  1.
         -5    1    3    3    0  502  0.53375931422E+02 -0.30327097159E+01 -0.81254342248E+02  0.97354650210E+02  0.41800000000E+01 0.  1.
        -11    1    1    2    0    0  0.44994521949E+02  0.37413722114E+02  0.10728312747E+02  0.59492775210E+02  0.00000000000E+00 0. -1.
         11    1    1    2    0    0 -0.30284062421E+02 -0.35882547006E+01 -0.27926004776E+02  0.41350474619E+02  0.00000000000E+00 0.  1.
</event>
<event>
 7    1  0.2666594E-009  0.1032560E+03  0.7561462E-02  0.1273594E+00
         -2   -1    0    0    0  501 -0.00000000000E+00  0.00000000000E+00  0.41248359275E+02  0.41248359275E+02  0.00000000000E+00 0.  1.
          2   -1    0    0  501    0  0.00000000000E+00 -0.00000000000E+00 -0.47054846536E+03  0.47054846536E+03  0.00000000000E+00 0. -1.
         25    2    1    2    0    0 -0.18581821360E+02 -0.41227126102E+02 -0.37763437667E+03  0.40037532843E+03  0.12509085163E+03 0.  0.
          5    1    3    3  502    0 -0.27621869948E+02 -0.81716272799E+02 -0.19885185197E+03  0.21679494545E+03  0.41800000000E+01 0. -1.
         -5    1    3    3    0  502  0.90400485880E+01  0.40489146697E+02 -0.17878252470E+03  0.18358038298E+03  0.41800000000E+01 0. -1.
        -11    1    1    2    0    0 -0.68779527995E+01  0.50794654411E+02  0.19569564125E+01  0.51295543957E+02  0.00000000000E+00 0. -1.
         11    1    1    2    0    0  0.25459774159E+02 -0.95675283086E+01 -0.53622685824E+02  0.60125952243E+02  0.00000000000E+00 0.  1.
</event>
<event>
 7    1  0.2666594E-009  0.8752407E+02  0.7561462E-02  0.1308961E+00
         -2   -1    0    0    0  501 -0.00000000000E+00  0.00000000000E+00  0.20237385397E+03  0.20237385397E+03  0.00000000000E+00 0.  1.
          2   -1    0    0  501    0  0.00000000000E+00 -0.00000000000E+00 -0.11127575512E+03  0.11127575512E+03  0.00000000000E+00 0. -1.
         25    2    1    2    0    0 -0.22764158369E+02 -0.88813075132E+01  0.15540875943E+03  0.20098944228E+03  0.12509112228E+03 0.  0.
          5    1    3    3  502    0  0.61045622622E+01 -0.57513959642E+02  0.12222763695E+03  0.13528558263E+03  0.41800000000E+01 0. -1.
         -5    1    3    3    0  502 -0.28868720631E+02  0.48632652129E+02  0.33181122479E+02  0.65703859650E+02  0.41800000000E+01 0. -1.
        -11    1    1    2    0    0  0.17775758150E+02  0.32050721902E+02  0.71770469850E+01  0.37346169224E+02  0.00000000000E+00 0.  1.
         11    1    1    2    0    0  0.49884002193E+01 -0.23169414389E+02 -0.71487707566E+02  0.75313997590E+02  0.00000000000E+00 0. -1.
</event>
<event>
 7    1  0.2666594E-009  0.8875818E+02  0.7561462E-02  0.1305887E+00
         -1   -1    0    0    0  501 -0.00000000000E+00  0.00000000000E+00  0.42933520126E+03  0.42933520126E+03  0.00000000000E+00 0.  1.
          1   -1    0    0  501    0  0.00000000000E+00 -0.00000000000E+00 -0.36134071151E+02  0.36134071151E+02  0.00000000000E+00 0. -1.
         25    2    1    2    0    0 -0.42984011926E+02  0.26695115725E+02  0.26993831294E+03  0.30178653957E+03  0.12509263842E+03 0.  0.
          5    1    3    3  502    0 -0.56666779659E+02  0.14484960324E+02  0.27589445530E+03  0.28205701703E+03  0.41800000000E+01 0.  1.
         -5    1    3    3    0  502  0.13682767734E+02  0.12210155401E+02 -0.59561423571E+01  0.19729522537E+02  0.41800000000E+01 0.  1.
        -11    1    1    2    0    0 -0.21844352749E+01 -0.49446380697E+02  0.30809465275E+02  0.58300424287E+02  0.00000000000E+00 0. -1.
         11    1    1    2    0    0  0.45168447201E+02  0.22751264973E+02  0.92453351897E+02  0.10538230856E+03  0.00000000000E+00 0.  1.
</event>
<event>
 7    1  0.2666594E-009  0.1244602E+03  0.7561462E-02  0.1235915E+00
          1   -1    0    0  501    0  0.00000000000E+00  0.00000000000E+00  0.11484688374E+03  0.11484688374E+03  0.00000000000E+00 0. -1.
         -1   -1    0    0    0  501 -0.00000000000E+00 -0.00000000000E+00 -0.17913605624E+03  0.17913605624E+03  0.00000000000E+00 0.  1.
         25    2    1    2    0    0  0.58325396315E+02  0.72326897277E+02 -0.23080113269E+02  0.15751938319E+03  0.12508650018E+03 0.  0.
          5    1    3    3  502    0  0.20222106711E+02  0.85914491940E+02 -0.56499910932E+02  0.10488062672E+03  0.41800000000E+01 0. -1.
         -5    1    3    3    0  502  0.38103289603E+02 -0.13587594663E+02  0.33419797663E+02  0.52638756474E+02  0.41800000000E+01 0. -1.
        -11    1    1    2    0    0 -0.42822976651E+02  0.30540373314E+01 -0.41203368778E+02  0.59505059213E+02  0.00000000000E+00 0.  1.
         11    1    1    2    0    0 -0.15502419664E+02 -0.75380934609E+02 -0.56904513685E-02  0.76958497584E+02  0.00000000000E+00 0. -1.
</event>
<event>
 7    1  0.2666594E-009  0.1226998E+03  0.7561462E-02  0.1238708E+00
          1   -1    0    0  501    0  0.00000000000E+00  0.00000000000E+00  0.49451245100E+03  0.49451245100E+03  0.00000000000E+00 0. -1.
         -1   -1    0    0    0  501 -0.00000000000E+00 -0.00000000000E+00 -0.45649474013E+02  0.45649474013E+02  0.00000000000E+00 0.  1.
         25    2    1    2    0    0  0.55976862764E+02  0.85016690504E+02  0.27457519424E+03  0.31843424267E+03  0.12509029851E+03 0.  0.
          5    1    3    3  502    0  0.28640721011E+02  0.77680793362E+02  0.27755395663E+03  0.28966923862E+03  0.41800000000E+01 0. -1.
         -5    1    3    3    0  502  0.27336141753E+02  0.73358971421E+01 -0.29787623898E+01  0.28765004054E+02  0.41800000000E+01 0. -1.
        -11    1    1    2    0    0 -0.35916917788E+02  0.95949908858E+01  0.71532571481E+02  0.80616360722E+02  0.00000000000E+00 0. -1.
         11    1    1    2    0    0 -0.20059944976E+02 -0.94611681390E+02  0.10275521126E+03  0.14111132162E+03  0.00000000000E+00 0.  1.
</event>
<event>
 7    1  0.2666594E-009  0.7902190E+02  0.7561462E-02  0.1331850E+00
          1   -1    0    0  501    0  0.00000000000E+00  0.00000000000E+00  0.99080534255E+02  0.99080534255E+02  0.00000000000E+00 0. -1.
         -1   -1    0    0    0  501 -0.00000000000E+00 -0.00000000000E+00 -0.15852899872E+03  0.15852899872E+03  0.00000000000E+00 0.  1.
         25    2    1    2    0    0 -0.55377249276E+02 -0.31111779668E+01 -0.68176333164E+01  0.13700502660E+03  0.12509027950E+03 0.  0.
          5    1    3    3  502    0  0.38458866420E+01 -0.32537752978E+01 -0.58151704757E+02  0.58518980373E+02  0.41800000000E+01 0. -1.
         -5    1    3    3    0  502 -0.59223135918E+02  0.14259733099E+00  0.51334071441E+02  0.78486046229E+02  0.41800000000E+01 0. -1.
        -11    1    1    2    0    0  0.69033617383E+02 -0.13790769228E+02 -0.64815784336E+02  0.95691752748E+02  0.00000000000E+00 0.  1.
         11    1    1    2    0    0 -0.13656368107E+02  0.16901947195E+02  0.12184953189E+02  0.24912753623E+02  0.00000000000E+00 0. -1.
</event>
<event>
 7    1  0.2666594E-009  0.1421258E+03  0.7561462E-02  0.1210497E+00
         -2   -1    0    0    0  501 -0.00000000000E+00  0.00000000000E+00  0.38138319948E+02  0.38138319948E+02  0.00000000000E+00 0.  1.
          2   -1    0    0  501    0  0.00000000000E+00 -0.00000000000E+00 -0.55237259501E+03  0.55237259501E+03  0.00000000000E+00 0. -1.
         25    2    1    2    0    0 -0.82277168558E+02  0.56262850369E+02 -0.25360523864E+03  0.29983314248E+03  0.12509698424E+03 0.  0.
          5    1    3    3  502    0 -0.79272437051E+01  0.77587279861E+02 -0.16216973083E+03  0.17999755883E+03  0.41800000000E+01 0.  1.
         -5    1    3    3    0  502 -0.74349924852E+02 -0.21324429492E+02 -0.91435507814E+02  0.11983558365E+03  0.41800000000E+01 0.  1.
        -11    1    1    2    0    0 -0.12892153554E+02 -0.25664722270E+02 -0.55993885947E+02  0.62930126775E+02  0.00000000000E+00 0. -1.
         11    1    1    2    0    0  0.95169322111E+02 -0.30598128099E+02 -0.20463515047E+03  0.22774764570E+03  0.00000000000E+00 0.  1.
</event>
<event>
 7    1  0.2666594E-009  0.1054999E+03  0.7561462E-02  0.1269138E+00
         -1   -1    0    0    0  501 -0.00000000000E+00  0.00000000000E+00  0.88475944171E+02  0.88475944171E+02  0.00000000000E+00 0.  1.
          1   -1    0    0  501    0  0.00000000000E+00 -0.00000000000E+00 -0.25769175068E+03  0.25769175068E+03  0.00000000000E+00 0. -1.
         25    2    1    2    0    0  0.99129735548E+01 -0.83473712989E+02 -0.19107323860E+02  0.15191692818E+03  0.12509010927E+03 0.  0.
          5    1    3    3  502    0 -0.20533067910E+02 -0.56417620996E+02  0.45486676951E+02  0.75439147773E+02  0.41800000000E+01 0.  1.
         -5    1    3    3    0  502  0.30446041465E+02 -0.27056091993E+02 -0.64594000811E+02  0.76477780405E+02  0.41800000000E+01 0.  1.
        -11    1    1    2    0    0 -0.39329624121E+02  0.32505389883E+02 -0.11478631605E+03  0.12561575561E+03  0.00000000000E+00 0.  1.
         11    1    1    2    0    0  0.29416650567E+02  0.50968323106E+02 -0.35322166606E+02  0.68635011070E+02  0.00000000000E+00 0. -1.
</event>
<event>
 7    1  0.2666594E-009  0.1226329E+03  0.7561462E-02  0.1238816E+00
         -1   -1    0    0    0  501 -0.00000000000E+00  0.00000000000E+00  0.18294377897E+03  0.18294377897E+03  0.00000000000E+00 0.  1.
          1   -1    0    0  501    0  0.00000000000E+00 -0.00000000000E+00 -0.10065034241E+03  0.10065034241E+03  0.00000000000E+00 0. -1.
         25    2    1    2    0    0  0.18724157312E+02 -0.71658343020E+02  0.12604608377E+02  0.14591690259E+03  0.12508938451E+03 0.  0.
          5    1    3    3  502    0  0.12132785850E+02 -0.10392526509E+03  0.29329421234E+02  0.10874443694E+03  0.41800000000E+01 0.  1.
         -5    1    3    3    0  502  0.65913714623E+01  0.32266922066E+02 -0.16724812858E+02  0.37172465650E+02  0.41800000000E+01 0.  1.
        -11    1    1    2    0    0 -0.34110453085E+02  0.82002193174E+02  0.77197184595E+02  0.11767450023E+03  0.00000000000E+00 0.  1.
         11    1    1    2    0    0  0.15386295772E+02 -0.10343850154E+02 -0.75083564215E+01  0.20002718559E+02  0.00000000000E+00 0. -1.
</event>
<event>
 7    1  0.2666594E-009  0.1146774E+03  0.7561462E-02  0.1252145E+00
          2   -1    0    0  501    0  0.00000000000E+00  0.00000000000E+00  0.39858302054E+03  0.39858302054E+03  0.00000000000E+00 0.  1.
         -2   -1    0    0    0  501 -0.00000000000E+00 -0.00000000000E+00 -0.57177896687E+02  0.57177896687E+02  0.00000000000E+00 0. -1.
         25    2    1    2    0    0 -0.64098431745E+02 -0.90685306269E+01  0.30456068591E+03  0.33555275131E+03  0.12509032859E+03 0.  0.
          5    1    3    3  502    0 -0.34427431711E+02  0.51707001522E+02  0.82328851687E+02  0.10322002849E+03  0.41800000000E+01 0.  1.
         -5    1    3    3    0  502 -0.29671000034E+02 -0.60775532149E+02  0.22223183423E+03  0.23233272282E+03  0.41800000000E+01 0.  1.
        -11    1    1    2    0    0  0.57431204483E+02  0.38509681335E+02 -0.41812161324E+01  0.69273525775E+02  0.00000000000E+00 0. -1.
         11    1    1    2    0    0  0.66672272615E+01 -0.29441150708E+02  0.41025654068E+02  0.50934640139E+02  0.00000000000E+00 0.  1.
</event>
<event>
 7    1  0.2666594E-009  0.9834995E+02  0.7561462E-02  0.1283805E+00
          2   -1    0    0  501    0  0.00000000000E+00  0.00000000000E+00  0.51330609430E+03  0.51330609430E+03  0.00000000000E+00 0. -1.
         -2   -1    0    0    0  501 -0.00000000000E+00 -0.00000000000E+00 -0.23992860282E+02  0.23992860282E+02  0.00000000000E+00 0.  1.
         25    2    1    2    0    0 -0.81602168197E+01  0.24296901309E+02  0.28660820945E+03  0.31376404833E+03  0.12508670493E+03 0.  0.
          5    1    3    3  502    0 -0.53924060078E+02 -0.22524443272E+02  0.99261935780E+02  0.11526299968E+03  0.41800000000E+01 0. -1.
         -5    1    3    3    0  502  0.45763843259E+02  0.46821344582E+02  0.18734627367E+03  0.19850104865E+03  0.41800000000E+01 0. -1.
        -11    1    1    2    0    0 -0.29294535748E+02 -0.30711823906E+01  0.19465248782E+02  0.35305777092E+02  0.00000000000E+00 0.  1.
         11    1    1    2    0    0  0.37454752567E+02 -0.21225718919E+02  0.18323977578E+03  0.18822912915E+03  0.00000000000E+00 0. -1.
</event>
<event>
 7    1  0.2666594E-009  0.1273728E+03  0.7561462E-02  0.1231407E+00
          1   -1    0    0  501    0  0.00000000000E+00  0.00000000000E+00  0.13769823579E+03  0.13769823579E+03  0.00000000000E+00 0. -1.
         -1   -1    0    0    0  501 -0.00000000000E+00 -0.00000000000E+00 -0.25468024760E+03  0.25468024760E+03  0.00000000000E+00 0.  1.
         25    2    1    2    0    0  0.88672403210E+02  0.46465591398E+02  0.55239736755E+02  0.16947103771E+03  0.12508859992E+03 0.  0.
          5    1    3    3  502    0 -0.66463370119E+01  0.52750883755E+01 -0.32260022033E+02  0.33618176253E+02  0.41800000000E+01 0. -1.
         -5    1    3    3    0  502  0.95318740222E+02  0.41190503023E+02  0.87499758788E+02  0.13585286145E+03  0.41800000000E+01 0. -1.
        -11    1    1    2    0    0 -0.32497980566E+02  0.31507258621E+02 -0.50366519634E+02  0.67717149871E+02  0.00000000000E+00 0.  1.
         11    1    1    2    0    0 -0.56174422644E+02 -0.77972850019E+02 -0.12185522893E+03  0.15519029582E+03  0.00000000000E+00 0. -1.
</event>
<event>
 7    1  0.2666594E-009  0.1195364E+03  0.7561462E-02  0.1243864E+00
          1   -1    0    0  501    0  0.00000000000E+00  0.00000000000E+00  0.14766641847E+03  0.14766641847E+03  0.00000000000E+00 0.  1.
         -1   -1    0    0    0  501 -0.00000000000E+00 -0.00000000000E+00 -0.13411467668E+03  0.13411467668E+03  0.00000000000E+00 0. -1.
         25    2    1    2    0    0  0.36154506204E+02  0.81041617769E+02  0.26052712860E+01  0.15339061750E+03  0.12508797692E+03 0.  0.
          5    1    3    3  502    0  0.73709865542E+02  0.80347873574E+02  0.21378782483E+02  0.11119105093E+03  0.41800000000E+01 0.  1.
         -5    1    3    3    0  502 -0.37555359338E+02  0.69374419468E+00 -0.18773511197E+02  0.42199566570E+02  0.41800000000E+01 0.  1.
        -11    1    1    2    0    0 -0.13857391564E+02 -0.84654137693E+01  0.43010197916E+02  0.45973553876E+02  0.00000000000E+00 0.  1.
         11    1    1    2    0    0 -0.22297114640E+02 -0.72576204000E+02 -0.32063727412E+02  0.82416923771E+02  0.00000000000E+00 0. -1.
</event>
<event>
 7    1  0.2666594E-009  0.9214009E+02  0.7561462E-02  0.1297750E+00
          1   -1    0    0  501    0  0.00000000000E+00  0.00000000000E+00  0.23386932624E+03  0.23386932624E+03  0.00000000000E+00 0. -1.
         -1   -1    0    0    0  501 -0.00000000000E+00 -0.00000000000E+00 -0.72877491831E+02  0.72877491831E+02  0.00000000000E+00 0.  1.
         25    2    1    2    0    0 -0.46482410064E+02  0.35786313282E+02  0.14013828683E+03  0.19679215191E+03  0.12508851647E+03 0.  0.
          5    1    3    3  502    0 -0.48674018748E+02  0.95045990927E+01  0.15734344214E+03  0.16502705441E+03  0.41800000000E+01 0. -1.
         -5    1    3    3    0  502  0.21916086838E+01  0.26281714190E+02 -0.17205155311E+02  0.31765097491E+02  0.41800000000E+01 0. -1.
        -11    1    1    2    0    0  0.70961780331E+02 -0.42123540658E+02  0.18404856075E+02  0.84550018760E+02  0.00000000000E+00 0. -1.
         11    1    1    2    0    0 -0.24479370267E+02  0.63372273758E+01  0.24486915031E+01  0.25404647401E+02  0.00000000000E+00 0.  1.
</event>
<event>
 7    1  0.2666594E-009  0.1339679E+03  0.7561462E-02  0.1221684E+00
          3   -1    0    0  501    0  0.00000000000E+00  0.00000000000E+00  0.17458009269E+03  0.17458009269E+03  0.00000000000E+00 0. -1.
         -3   -1    0    0    0  501 -0.00000000000E+00 -0.00000000000E+00 -0.10599509992E+03  0.10599509992E+03  0.00000000000E+00 0.  1.
         25    2    1    2    0    0  0.73514113419E+02 -0.40650748798E+02  0.20807691266E+02  0.15211055748E+03  0.12509138032E+03 0.  0.
          5    1    3    3  502    0  0.10694092197E+03 -0.43812441842E+02  0.79552568877E+01  0.11591656208E+03  0.41800000000E+01 0. -1.
         -5    1    3    3    0  502 -0.33426808556E+02  0.31616930438E+01  0.12852434378E+02  0.36193995394E+02  0.41800000000E+01 0. -1.
        -11    1    1    2    0    0 -0.55479998795E+02  0.66710547011E+02  0.28291255946E+02  0.91261834914E+02  0.00000000000E+00 0.  1.
         11    1    1    2    0    0 -0.18034114623E+02 -0.26059798212E+02  0.19486045551E+02  0.37202800222E+02  0.00000000000E+00 0. -1.
</event>
<event>
 7    1  0.2866749E-009  0.1428410E+03  0.7561462E-02  0.1209557E+00
         -2   -1    0    0    0  501 -0.00000000000E+00  0.00000000000E+00  0.19643783777E+02  0.19643783777E+02  0.00000000000E+00 0.  1.
          2   -1    0    0  501    0  0.00000000000E+00 -0.00000000000E+00 -0.13383161724E+04  0.13383161724E+04  0.00000000000E+00 0. -1.
         25    2    1    2    0    0  0.80926867353E+02 -0.78273274119E+02 -0.87426950413E+03  0.89031994841E+03  0.12508629577E+03 0.  0.
          5    1    3    3  502    0  0.49380025277E+02  0.95086032488E+01 -0.56535799209E+03  0.56760543695E+03  0.41800000000E+01 0.  1.
         -5    1    3    3    0  502  0.31546842076E+02 -0.87781877367E+02 -0.30891151204E+03  0.32271451146E+03  0.41800000000E+01 0.  1.
        -11    1    1    2    0    0 -0.58444511001E+02 -0.20084484809E+01 -0.13336917957E+03  0.14562668983E+03  0.00000000000E+00 0.  1.
         11    1    1    2    0    0 -0.22482356353E+02  0.80281722600E+02 -0.31103370496E+03  0.32201331798E+03  0.00000000000E+00 0. -1.
</event>
<event>
 7    1  0.2666594E-009  0.1031230E+03  0.7561462E-02  0.1273863E+00
         -2   -1    0    0    0  501 -0.00000000000E+00  0.00000000000E+00  0.40982944815E+02  0.40982944815E+02  0.00000000000E+00 0.  1.
          2   -1    0    0  501    0  0.00000000000E+00 -0.00000000000E+00 -0.31908397198E+03  0.31908397198E+03  0.00000000000E+00 0. -1.
         25    2    1    2    0    0  0.46709284914E+02  0.13131444825E+02 -0.15856892478E+03  0.20771514199E+03  0.12508910492E+03 0.  0.
          5    1    3    3  502    0 -0.22465620002E+02  0.50309103567E+02 -0.59002749928E+02  0.80836296816E+02  0.41800000000E+01 0. -1.
         -5    1    3    3    0  502  0.69174904917E+02 -0.37177658743E+02 -0.99566174848E+02  0.12687884518E+03  0.41800000000E+01 0. -1.
        -11    1    1    2    0    0 -0.20712016696E+02 -0.33455481948E+02 -0.11171177117E+03  0.11843891559E+03  0.00000000000E+00 0. -1.
         11    1    1    2    0    0 -0.25997268219E+02  0.20324037123E+02 -0.78203312231E+01  0.33912859217E+02  0.00000000000E+00 0.  1.
</event>
<event>
 7    1  0.2666594E-009  0.1766413E+03  0.7561462E-02  0.1171094E+00
         -2   -1    0    0    0  501 -0.00000000000E+00  0.00000000000E+00  0.62885066350E+02  0.62885066350E+02  0.00000000000E+00 0.  1.
          2   -1    0    0  501    0  0.00000000000E+00 -0.00000000000E+00 -0.12416132143E+04  0.12416132143E+04  0.00000000000E+00 0. -1.
         25    2    1    2    0    0 -0.15348216710E+03 -0.51397089352E+02 -0.10682344446E+04  0.10876446098E+04  0.12509009621E+03 0.  0.
          5    1    3    3  502    0 -0.15561657372E+03 -0.59363145367E+02 -0.10648404077E+04  0.10777954663E+04  0.41800000000E+01 0.  1.
         -5    1    3    3    0  502  0.21344066236E+01  0.79660560145E+01 -0.33940369206E+01  0.98491434491E+01  0.41800000000E+01 0.  1.
        -11    1    1    2    0    0  0.67471790838E+02  0.60905543044E+02 -0.90025203942E+02  0.12793148587E+03  0.00000000000E+00 0.  1.
         11    1    1    2    0    0  0.86010376262E+02 -0.95084536920E+01 -0.20468499421E+02  0.88922184998E+02  0.00000000000E+00 0. -1.
</event>
<event>
 7    1  0.3251913E-009  0.1184079E+03  0.7561462E-02  0.1245747E+00
         -1   -1    0    0    0  501 -0.00000000000E+00  0.00000000000E+00  0.21683507381E+03  0.21683507381E+03  0.00000000000E+00 0.  1.
          1   -1    0    0  501    0  0.00000000000E+00 -0.00000000000E+00 -0.86012663318E+02  0.86012663318E+02  0.00000000000E+00 0. -1.
         25    2    1    2    0    0 -0.77413119549E+02  0.11763491319E+02  0.42149010538E+02  0.15347565383E+03  0.12508823456E+03 0.  0.
          5    1    3    3  502    0  0.25895351784E+02  0.13384446524E+02 -0.17345030990E+02  0.34176529268E+02  0.41800000000E+01 0.  1.
         -5    1    3    3    0  502 -0.10330847133E+03 -0.16209552053E+01  0.59494041529E+02  0.11929912457E+03  0.41800000000E+01 0.  1.
        -11    1    1    2    0    0 -0.95615296138E+01  0.10481822415E+02  0.49375167005E+02  0.51373130783E+02  0.00000000000E+00 0. -1.
         11    1    1    2    0    0  0.86974649163E+02 -0.22245313734E+02  0.39298232947E+02  0.97998952509E+02  0.00000000000E+00 0.  1.
</event>
<event>
 7    1  0.2666594E-009  0.1064617E+03  0.7561462E-02  0.1267266E+00
         -1   -1    0    0    0  501 -0.00000000000E+00  0.00000000000E+00  0.23285147766E+02  0.23285147766E+02  0.00000000000E+00 0.  1.
          1   -1    0    0  501    0  0.00000000000E+00 -0.00000000000E+00 -0.79092682232E+03  0.79092682232E+03  0.00000000000E+00 0. -1.
         25    2    1    2    0    0  0.62135960747E+02  0.19094178769E+02 -0.57624586777E+03  0.59323831419E+03  0.12508769727E+03 0.  0.
          5    1    3    3  502    0  0.84433478196E+02  0.18861546478E+02 -0.22248225790E+03  0.23874797938E+03  0.41800000000E+01 0. -1.
         -5    1    3    3    0  502 -0.22297517449E+02  0.23263229174E+00 -0.35376360987E+03  0.35449033480E+03  0.41800000000E+01 0. -1.
        -11    1    1    2    0    0 -0.94457473207E+01  0.30092656242E+02 -0.27184024684E+02  0.41638459387E+02  0.00000000000E+00 0.  1.
         11    1    1    2    0    0 -0.52690213426E+02 -0.49186835012E+02 -0.16421178210E+03  0.17933519651E+03  0.00000000000E+00 0. -1.
</event>
<event>
 7    1  0.2720065E-009  0.1040681E+03  0.7561462E-02  0.1271967E+00
          2   -1    0    0  501    0  0.00000000000E+00  0.00000000000E+00  0.37467043063E+03  0.37467043063E+03  0.00000000000E+00 0.  1.
         -2   -1    0    0    0  501 -0.00000000000E+00 -0.00000000000E+00 -0.64626215134E+02  0.64626215134E+02  0.00000000000E+00 0. -1.
         25    2    1    2    0    0 -0.78938376609E+02 -0.46176579796E+02  0.77861163276E+02  0.17341584687E+03  0.12508857412E+03 0.  0.
          5    1    3    3  502    0 -0.92262691639E+02 -0.36936508651E+02  0.60226973583E+01  0.99651669445E+02  0.41800000000E+01 0. -1.
         -5    1    3    3    0  502  0.13324315030E+02 -0.92400711453E+01  0.71838465917E+02  0.73764177425E+02  0.41800000000E+01 0. -1.
        -11    1    1    2    0    0  0.33629293687E+02  0.25025976275E+02  0.20444810896E+03  0.20870136114E+03  0.00000000000E+00 0.  1.
         11    1    1    2    0    0  0.45309082922E+02  0.21150603521E+02  0.27734943258E+02  0.57179437756E+02  0.00000000000E+00 0. -1.
</event>
<event>
 7    1  0.2666594E-009  0.1152662E+03  0.7561462E-02  0.1251117E+00
          2   -1    0    0  501    0  0.00000000000E+00  0.00000000000E+00  0.20520267011E+03  0.20520267011E+03  0.00000000000E+00 0. -1.
         -2   -1    0    0    0  501 -0.00000000000E+00 -0.00000000000E+00 -0.99912093448E+02  0.99912093448E+02  0.00000000000E+00 0.  1.
         25    2    1    2    0    0  0.72601569570E+02  0.35319770437E+02  0.95884111272E+01  0.14919105067E+03  0.12509019900E+03 0.  0.
          5    1    3    3  502    0 -0.22817020394E+02 -0.17961981637E+02  0.25250946722E+02  0.38708292578E+02  0.41800000000E+01 0.  1.
         -5    1    3    3    0  502  0.95418589963E+02  0.53281752074E+02 -0.15662535595E+02  0.11048275809E+03  0.41800000000E+01 0.  1.
        -11    1    1    2    0    0 -0.45059653085E+02 -0.43970801874E+02  0.10762701349E+03  0.12468912457E+03  0.00000000000E+00 0. -1.
         11    1    1    2    0    0 -0.27541916484E+02  0.86510314371E+01 -0.11924847954E+02  0.31234588316E+02  0.00000000000E+00 0.  1.
</event>
<event>
 7    1  0.2666594E-009  0.1524964E+03  0.7561462E-02  0.1197439E+00
          1   -1    0    0  501    0  0.00000000000E+00  0.00000000000E+00  0.30816197721E+03  0.30816197721E+03  0.00000000000E+00 0. -1.
         -1   -1    0    0    0  501 -0.00000000000E+00 -0.00000000000E+00 -0.95621739590E+02  0.95621739590E+02  0.00000000000E+00 0.  1.
         25    2    1    2    0    0 -0.20908918005E+02  0.12045377860E+03  0.16753292036E+03  0.24220171736E+03  0.12509235330E+03 0.  0.
          5    1    3    3  502    0  0.74157282492E+01  0.12906056287E+03  0.85902364824E+02  0.15526851128E+03  0.41800000000E+01 0.  1.
         -5    1    3    3    0  502 -0.28324646254E+02 -0.86067842657E+01  0.81630555540E+02  0.86933206076E+02  0.41800000000E+01 0.  1.
        -11    1    1    2    0    0 -0.20750707247E+02 -0.94321763439E+02  0.25475746641E+01  0.96610957175E+02  0.00000000000E+00 0.  1.
         11    1    1    2    0    0  0.41659625252E+02 -0.26132015162E+02  0.42459742590E+02  0.64971042268E+02  0.00000000000E+00 0. -1.
</event>
<event>
 7    1  0.2666594E-009  0.1068502E+03  0.7561462E-02  0.1266517E+00
          1   -1    0    0  501    0  0.00000000000E+00  0.00000000000E+00  0.71752079545E+03  0.71752079545E+03  0.00000000000E+00 0. -1.
         -1   -1    0    0    0  501 -0.00000000000E+00 -0.00000000000E+00 -0.19362246571E+02  0.19362246571E+02  0.00000000000E+00 0.  1.
         25    2    1    2    0    0 -0.12025505247E+02 -0.24074668842E+02  0.27919149982E+03  0.30711467914E+03  0.12508928859E+03 0.  0.
          5    1    3    3  502    0  0.41525130334E+02 -0.45915196313E+02  0.19691092132E+03  0.20645562487E+03  0.41800000000E+01 0.  1.
         -5    1    3    3    0  502 -0.53550635581E+02  0.21840527471E+02  0.82280578492E+02  0.10065905428E+03  0.41800000000E+01 0.  1.
        -11    1    1    2    0    0  0.51269496100E+02  0.14237693391E+02  0.19263685336E+03  0.19985052018E+03  0.00000000000E+00 0.  1.
         11    1    1    2    0    0 -0.39243990853E+02  0.98369754510E+01  0.22633019571E+03  0.22991784270E+03  0.00000000000E+00 0. -1.
</event>
<event>
 7    1  0.2666594E-009  0.1318430E+03  0.7561462E-02  0.1224746E+00
          1   -1    0    0  501    0  0.00000000000E+00  0.00000000000E+00  0.11666495351E+03  0.11666495351E+03  0.00000000000E+00 0. -1.
         -1   -1    0    0    0  501 -0.00000000000E+00 -0.00000000000E+00 -0.18575492842E+03  0.18575492842E+03  0.00000000000E+00 0.  1.
         25    2    1    2    0    0  0.87705715200E+02 -0.44136189235E+02 -0.24185993757E+02  0.16085188035E+03  0.12509224372E+03 0.  0.
          5    1    3    3  502    0  0.49051398038E+02  0.31219504903E+02 -0.44879773032E+02  0.73568767580E+02  0.41800000000E+01 0.  1.
         -5    1    3    3    0  502  0.38654317162E+02 -0.75355694138E+02  0.20693779275E+02  0.87283112771E+02  0.41800000000E+01 0.  1.
        -11    1    1    2    0    0 -0.74012294053E+02 -0.39002169465E+00 -0.57023989163E+02  0.93432901743E+02  0.00000000000E+00 0.  1.
         11    1    1    2    0    0 -0.13693421147E+02  0.44526210930E+02  0.12120008009E+02  0.48135099840E+02  0.00000000000E+00 0. -1.
</event>
<event>
 7    1  0.2666594E-009  0.1217400E+03  0.7561462E-02  0.1240254E+00
          2   -1    0    0  501    0  0.00000000000E+00  0.00000000000E+00  0.10047230065E+04  0.10047230065E+04  0.00000000000E+00 0.  1.
         -2   -1    0    0    0  501 -0.00000000000E+00 -0.00000000000E+00 -0.17865929124E+02  0.17865929124E+02  0.00000000000E+00 0. -1.
         25    2    1    2    0    0 -0.77546422234E+02 -0.92076951969E+01  0.52399619155E+03  0.54435015612E+03  0.12508738724E+03 0.  0.
          5    1    3    3  502    0  0.27748834085E+02 -0.97177421749E+00  0.23424054933E+03  0.23591746330E+03  0.41800000000E+01 0. -1.
         -5    1    3    3    0  502 -0.10529525632E+03 -0.82359209794E+01  0.28975564222E+03  0.30843269282E+03  0.41800000000E+01 0. -1.
        -11    1    1    2    0    0  0.89205718919E+02 -0.72864907996E+01  0.43322569074E+03  0.44237456115E+03  0.00000000000E+00 0.  1.
         11    1    1    2    0    0 -0.11659296685E+02  0.16494185996E+02  0.29635195077E+02  0.35864218354E+02  0.00000000000E+00 0. -1.
</event>
<event>
 7    1  0.2666594E-009  0.5104459E+02  0.7561462E-02  0.1439787E+00
         -2   -1    0    0    0  501 -0.00000000000E+00  0.00000000000E+00  0.12828917879E+02  0.12828917879E+02  0.00000000000E+00 0.  1.
          2   -1    0    0  501    0  0.00000000000E+00 -0.00000000000E+00 -0.10396454590E+04  0.10396454590E+04  0.00000000000E+00 0. -1.
         25    2    1    2    0    0  0.17787434460E+02  0.15482132674E+01 -0.75766373127E+03  0.76812812871E+03  0.12509077761E+03 0.  0.
          5    1    3    3  502    0  0.20120210247E+02  0.50995574126E+01 -0.16249219009E+02  0.26689658382E+02  0.41800000000E+01 0. -1.
         -5    1    3    3    0  502 -0.23327757869E+01 -0.35513441452E+01 -0.74141451226E+03  0.74143847033E+03  0.41800000000E+01 0. -1.
        -11    1    1    2    0    0 -0.13531938262E+02  0.35329964119E+02 -0.21733350110E+03  0.22060183684E+03  0.00000000000E+00 0. -1.
         11    1    1    2    0    0 -0.42554961977E+01 -0.36878177386E+02 -0.51819308714E+02  0.63744411291E+02  0.00000000000E+00 0.  1.
</event>
<event>
 7    1  0.2666594E-009  0.1952496E+03  0.7561462E-02  0.1153810E+00
         -1   -1    0    0    0  501 -0.00000000000E+00  0.00000000000E+00  0.65065364186E+03  0.65065364186E+03  0.00000000000E+00 0.  1.
          1   -1    0    0  501    0  0.00000000000E+00 -0.00000000000E+00 -0.63202205762E+02  0.63202205762E+02  0.00000000000E+00 0. -1.
         25    2    1    2    0    0 -0.40073357000E+02  0.16533381554E+03  0.26731182896E+03  0.34065357369E+03  0.12509236134E+03 0.  0.
          5    1    3    3  502    0  0.10545561927E+02  0.15138534083E+03  0.15689294705E+03  0.21831536714E+03  0.41800000000E+01 0. -1.
         -5    1    3    3    0  502 -0.50618918927E+02  0.13948474702E+02  0.11041888191E+03  0.12233820655E+03  0.41800000000E+01 0. -1.
        -11    1    1    2    0    0  0.46729959535E+02 -0.43001747244E+02  0.69013296228E+02  0.93785257052E+02  0.00000000000E+00 0. -1.
         11    1    1    2    0    0 -0.66566025342E+01 -0.12233206829E+03  0.25112631091E+03  0.27941701688E+03  0.00000000000E+00 0.  1.
</event>
<event>
 7    1  0.2666594E-009  0.3022438E+03  0.7561462E-02  0.1084124E+00
          1   -1    0    0  501    0  0.00000000000E+00  0.00000000000E+00  0.40763172712E+03  0.40763172712E+03  0.00000000000E+00 0. -1.
         -1   -1    0    0    0  501 -0.00000000000E+00 -0.00000000000E+00 -0.29740167906E+03  0.29740167906E+03  0.00000000000E+00 0.  1.
         25    2    1    2    0    0  0.21846171996E+03 -0.19545253448E+03 -0.98249551352E+02  0.33350838206E+03  0.12509056815E+03 0.  0.
          5    1    3    3  502    0  0.16560644122E+03 -0.84525061457E+02 -0.98732397849E+02  0.21056005835E+03  0.41800000000E+01 0. -1.
         -5    1    3    3    0  502  0.52855278746E+02 -0.11092747302E+03  0.48284649737E+00  0.12294832371E+03  0.41800000000E+01 0. -1.
        -11    1    1    2    0    0 -0.20132805372E+03  0.16369459166E+03  0.14177135985E+03  0.29568230083E+03  0.00000000000E+00 0.  1.
         11    1    1    2    0    0 -0.17133666245E+02  0.31757942820E+02  0.66708239566E+02  0.75842723297E+02  0.00000000000E+00 0. -1.
</event>
<event>
 7    1  0.2666594E-009  0.1014620E+03  0.7561462E-02  0.1277251E+00
         -2   -1    0    0    0  501 -0.00000000000E+00  0.00000000000E+00  0.17719670821E+02  0.17719670821E+02  0.00000000000E+00 0.  1.
          2   -1    0    0  501    0  0.00000000000E+00 -0.00000000000E+00 -0.75994618549E+03  0.75994618549E+03  0.00000000000E+00 0. -1.
         25    2    1    2    0    0  0.39093236933E+02 -0.71373871991E+01 -0.46017608038E+03  0.47852719820E+03  0.12508809294E+03 0.  0.
          5    1    3    3  502    0  0.80602456629E+02 -0.26365218752E+02 -0.28028323286E+03  0.29286181690E+03  0.41800000000E+01 0. -1.
         -5    1    3    3    0  502 -0.41509219696E+02  0.19227831553E+02 -0.17989284751E+03  0.18566538130E+03  0.41800000000E+01 0. -1.
        -11    1    1    2    0    0 -0.48274685058E+00 -0.23058279568E+02 -0.14739537786E+02  0.27370993319E+02  0.00000000000E+00 0.  1.
         11    1    1    2    0    0 -0.38610490082E+02  0.30195666767E+02 -0.26731089651E+03  0.27176766479E+03  0.00000000000E+00 0. -1.
</event>
<event>
 7    1  0.2666594E-009  0.1132460E+03  0.7561462E-02  0.1254674E+00
          2   -1    0    0  501    0  0.00000000000E+00  0.00000000000E+00  0.28367033395E+03  0.28367033395E+03  0.00000000000E+00 0. -1.
         -2   -1    0    0    0  501 -0.00000000000E+00 -0.00000000000E+00 -0.60637548589E+02  0.60637548589E+02  0.00000000000E+00 0.  1.
         25    2    1    2    0    0 -0.20022587318E+02 -0.40768450881E+02  0.19562964469E+03  0.23660429855E+03  0.12509062963E+03 0.  0.
          5    1    3    3  502    0  0.46049632876E+02  0.58993383867E+00  0.11699804117E+03  0.12580513005E+03  0.41800000000E+01 0. -1.
         -5    1    3    3    0  502 -0.66072220194E+02 -0.41358384720E+02  0.78631603521E+02  0.11079916850E+03  0.41800000000E+01 0. -1.
        -11    1    1    2    0    0  0.33520202743E+02 -0.20605905150E+02  0.20827139436E+02  0.44519400895E+02  0.00000000000E+00 0. -1.
         11    1    1    2    0    0 -0.13497615425E+02  0.61374356032E+02  0.65760012319E+01  0.63184183089E+02  0.00000000000E+00 0.  1.
</event>
<event>
 7    1  0.2666594E-009  0.1971841E+03  0.7561462E-02  0.1152137E+00
         -3   -1    0    0    0  501 -0.00000000000E+00  0.00000000000E+00  0.33600779467E+03  0.33600779467E+03  0.00000000000E+00 0.  1.
          3   -1    0    0  501    0  0.00000000000E+00 -0.00000000000E+00 -0.15611608654E+03  0.15611608654E+03  0.00000000000E+00 0. -1.
         25    2    1    2    0    0 -0.56002406014E+02 -0.16250695347E+03  0.20592448246E+03  0.29596866288E+03  0.12509107691E+03 0.  0.
          5    1    3    3  502    0 -0.84561413990E+02 -0.15173543221E+03  0.19938727382E+03  0.26447501108E+03  0.41800000000E+01 0.  1.
         -5    1    3    3    0  502  0.28559007976E+02 -0.10771521261E+02  0.65372086443E+01  0.31493651800E+02  0.41800000000E+01 0.  1.
        -11    1    1    2    0    0  0.33393331755E+02  0.89249575193E+01  0.11530594066E+02  0.36437948240E+02  0.00000000000E+00 0.  1.
         11    1    1    2    0    0  0.22609074259E+02  0.15358199595E+03 -0.37563368394E+02  0.15971727009E+03  0.00000000000E+00 0. -1.
</event>
<event>
 7    1  0.2666594E-009  0.1204037E+03  0.7561462E-02  0.1242433E+00
          2   -1    0    0  501    0  0.00000000000E+00  0.00000000000E+00  0.44090273081E+03  0.44090273081E+03  0.00000000000E+00 0. -1.
         -2   -1    0    0    0  501 -0.00000000000E+00 -0.00000000000E+00 -0.47945498104E+02  0.47945498104E+02  0.00000000000E+00 0.  1.
         25    2    1    2    0    0  0.55924780759E+02  0.65893454874E+02  0.14407943850E+03  0.20946660030E+03  0.12509134081E+03 0.  0.
          5    1    3    3  502    0 -0.22432971885E+02  0.66907594139E+02  0.88670612197E+02  0.11340112102E+03  0.41800000000E+01 0.  1.
         -5    1    3    3    0  502  0.78357752645E+02 -0.10141392656E+01  0.55408826301E+02  0.96065479284E+02  0.41800000000E+01 0.  1.
        -11    1    1    2    0    0 -0.15505371366E+02 -0.41802868206E+02  0.26046387737E+02  0.51636330675E+02  0.00000000000E+00 0.  1.
         11    1    1    2    0    0 -0.40419409393E+02 -0.24090586668E+02  0.22283140647E+03  0.22774529794E+03  0.00000000000E+00 0. -1.
</event>
<event>
 7    1  0.2666594E-009  0.9351086E+02  0.7561462E-02  0.1294566E+00
          2   -1    0    0  501    0  0.00000000000E+00  0.00000000000E+00  0.67322115266E+03  0.67322115266E+03  0.00000000000E+00 0. -1.
         -2   -1    0    0    0  501 -0.00000000000E+00 -0.00000000000E+00 -0.29704536309E+02  0.29704536309E+02  0.00000000000E+00 0.  1.
         25    2    1    2    0    0  0.38503018723E+02  0.80808065870E+02  0.32431591302E+03  0.35894023271E+03  0.12507938781E+03 0.  0.
          5    1    3    3  502    0  0.20660187227E+02  0.57327414138E+02  0.39873905113E+02  0.72942967152E+02  0.41800000000E+01 0.  1.
         -5    1    3    3    0  502  0.17842831496E+02  0.23480651732E+02  0.28444200791E+03  0.28599726556E+03  0.41800000000E+01 0.  1.
        -11    1    1    2    0    0 -0.34737871292E+02 -0.32085506686E+02  0.44374064108E+02  0.64847952987E+02  0.00000000000E+00 0.  1.
         11    1    1    2    0    0 -0.37651474305E+01 -0.48722559183E+02  0.27482663922E+03  0.27913750327E+03  0.00000000000E+00 0. -1.
</event>
<event>
 7    1  0.2666594E-009  0.1304531E+03  0.7561462E-02  0.1226785E+00
          1   -1    0    0  501    0  0.00000000000E+00  0.00000000000E+00  0.57128137478E+03  0.57128137478E+03  0.00000000000E+00 0. -1.
         -1   -1    0    0    0  501 -0.00000000000E+00 -0.00000000000E+00 -0.58243284292E+02  0.58243284292E+02  0.00000000000E+00 0.  1.
         25    2    1    2    0    0  0.12473011552E+03 -0.30593665869E+02  0.38488272546E+03  0.42458901362E+03  0.12509014356E+03 0.  0.
          5    1    3    3  502    0  0.54694440037E+02 -0.89705139602E+01  0.32536278672E+03  0.33007630523E+03  0.41800000000E+01 0. -1.
         -5    1    3    3    0  502  0.70035675484E+02 -0.21623151909E+02  0.59519938745E+02  0.94512708390E+02  0.41800000000E+01 0. -1.
        -11    1    1    2    0    0 -0.11513681014E+03  0.18731055499E+02  0.52786323221E+02  0.12803801548E+03  0.00000000000E+00 0.  1.
         11    1    1    2    0    0 -0.95933053820E+01  0.11862610370E+02  0.75369041805E+02  0.76897629973E+02  0.00000000000E+00 0. -1.
</event>
<event>
 7    1  0.2666594E-009  0.1168831E+03  0.7561462E-02  0.1248329E+00
          2   -1    0    0  501    0  0.00000000000E+00  0.00000000000E+00  0.67801032405E+03  0.67801032405E+03  0.00000000000E+00 0. -1.
         -2   -1    0    0    0  501 -0.00000000000E+00 -0.00000000000E+00 -0.37481963829E+02  0.37481963829E+02  0.00000000000E+00 0.  1.
         25    2    1    2    0    0 -0.63022365453E+02 -0.96550708607E+02  0.37638843306E+03  0.41304739891E+03  0.12508414498E+03 0.  0.
          5    1    3    3  502    0 -0.30011533340E+02 -0.29281971253E+02  0.30999501193E+03  0.31284581793E+03  0.41800000000E+01 0. -1.
         -5    1    3    3    0  502 -0.33010832112E+02 -0.67268737353E+02  0.66393421129E+02  0.10020158098E+03  0.41800000000E+01 0. -1.
        -11    1    1    2    0    0  0.47995059246E+02  0.85046438254E+02  0.26606664089E+03  0.28342173481E+03  0.00000000000E+00 0. -1.
         11    1    1    2    0    0  0.15027306206E+02  0.11504270353E+02 -0.19267137278E+01  0.19023154154E+02  0.00000000000E+00 0.  1.
</event>
<event>
 7    1  0.2666594E-009  0.1095958E+03  0.7561462E-02  0.1261320E+00
         -1   -1    0    0    0  501 -0.00000000000E+00  0.00000000000E+00  0.51043786074E+03  0.51043786074E+03  0.00000000000E+00 0.  1.
          1   -1    0    0  501    0  0.00000000000E+00 -0.00000000000E+00 -0.36993965011E+02  0.36993965011E+02  0.00000000000E+00 0. -1.
         25    2    1    2    0    0  0.74942954491E+02  0.36617310001E+02  0.23190734004E+03  0.27637963944E+03  0.12508963553E+03 0.  0.
          5    1    3    3  502    0  0.61596167930E+02  0.61171478025E+02  0.68810815558E+02  0.11085322893E+03  0.41800000000E+01 0. -1.
         -5    1    3    3    0  502  0.13346786561E+02 -0.24554168024E+02  0.16309652448E+03  0.16552641051E+03  0.41800000000E+01 0. -1.
        -11    1    1    2    0    0 -0.45589036562E+01 -0.33246900536E+02  0.21131222003E+02  0.39656885167E+02  0.00000000000E+00 0. -1.
         11    1    1    2    0    0 -0.70384050835E+02 -0.33704094650E+01  0.22040533369E+03  0.23139530115E+03  0.00000000000E+00 0.  1.
</event>
<event>
 7    1  0.2666594E-009  0.1784626E+03  0.7561462E-02  0.1169299E+00
          1   -1    0    0  501    0  0.00000000000E+00  0.00000000000E+00  0.10808363320E+04  0.10808363320E+04  0.00000000000E+00 0. -1.
         -1   -1    0    0    0  501 -0.00000000000E+00 -0.00000000000E+00 -0.45675828314E+02  0.45675828314E+02  0.00000000000E+00 0.  1.
         25    2    1    2    0    0  0.15359047017E+03  0.23529992479E+02  0.83225392257E+03  0.85582559285E+03  0.12508861132E+03 0.  0.
          5    1    3    3  502    0  0.62602716343E+02 -0.49235644027E+02  0.41485724411E+03  0.42245384852E+03  0.41800000000E+01 0. -1.
         -5    1    3    3    0  502  0.90987753826E+02  0.72765636506E+02  0.41739667845E+03  0.43337174433E+03  0.41800000000E+01 0. -1.
        -11    1    1    2    0    0 -0.10971529947E+03 -0.35139562536E+02  0.19215681466E+03  0.22404570340E+03  0.00000000000E+00 0. -1.
         11    1    1    2    0    0 -0.43875170697E+02  0.11609570057E+02  0.10749766452E+02  0.46640864051E+02  0.00000000000E+00 0.  1.
</event>
<event>
 7    1  0.2666594E-009  0.1117269E+03  0.7561462E-02  0.1257405E+00
         -2   -1    0    0    0  501 -0.00000000000E+00  0.00000000000E+00  0.24885424439E+02  0.24885424439E+02  0.00000000000E+00 0.  1.
          2   -1    0    0  501    0  0.00000000000E+00 -0.00000000000E+00 -0.60442027060E+03  0.60442027060E+03  0.00000000000E+00 0. -1.
         25    2    1    2    0    0 -0.44845148378E+02 -0.21059624426E+02 -0.24570358472E+03  0.28012682254E+03  0.12508473148E+03 0.  0.
          5    1    3    3  502    0  0.11008232370E+02 -0.55021510117E+02 -0.17463920996E+03  0.18347990029E+03  0.41800000000E+01 0. -1.
         -5    1    3    3    0  502 -0.55853380747E+02  0.33961885692E+02 -0.71064374758E+02  0.96646922250E+02  0.41800000000E+01 0. -1.
        -11    1    1    2    0    0 -0.12871726227E+02  0.39139898351E+02 -0.15571175195E+03  0.16107067602E+03  0.00000000000E+00 0. -1.
         11    1    1    2    0    0  0.57716874605E+02 -0.18080273925E+02 -0.17811950949E+03  0.18810819647E+03  0.00000000000E+00 0.  1.
</event>
<event>
 7    1  0.2666594E-009  0.1187128E+03  0.7561462E-02  0.1245236E+00
         -1   -1    0    0    0  501 -0.00000000000E+00  0.00000000000E+00  0.40796059569E+02  0.40796059569E+02  0.00000000000E+00 0.  1.
          1   -1    0    0  501    0  0.00000000000E+00 -0.00000000000E+00 -0.63253805048E+03  0.63253805048E+03  0.00000000000E+00 0. -1.
         25    2    1    2    0    0 -0.91081549972E+02  0.46808943510E+02 -0.18997044335E+03  0.24944519528E+03  0.12508880911E+03 0.  0.
          5    1    3    3  502    0 -0.78936596726E+02  0.52813852541E+02 -0.47504226795E+02  0.10627517719E+03  0.41800000000E+01 0. -1.
         -5    1    3    3    0  502 -0.12144953246E+02 -0.60049090313E+01 -0.14246621655E+03  0.14317001809E+03  0.41800000000E+01 0. -1.
        -11    1    1    2    0    0  0.14814942527E+02 -0.49697514731E+02 -0.23240116391E+03  0.23811683368E+03  0.00000000000E+00 0. -1.
         11    1    1    2    0    0  0.76266607445E+02  0.28885712214E+01 -0.16937038365E+03  0.18577208109E+03  0.00000000000E+00 0.  1.
</event>
<event>
 7    1  0.2666594E-009  0.2541017E+03  0.7561462E-02  0.1110740E+00
         -3   -1    0    0    0  501 -0.00000000000E+00  0.00000000000E+00  0.53880978116E+02  0.53880978116E+02  0.00000000000E+00 0.  1.
          3   -1    0    0  501    0  0.00000000000E+00 -0.00000000000E+00 -0.13920805448E+04  0.13920805448E+04  0.00000000000E+00 0. -1.
         25    2    1    2    0    0 -0.23384509280E+03 -0.67879050777E+02 -0.84752089369E+03  0.89063416777E+03  0.12508582089E+03 0.  0.
          5    1    3    3  502    0 -0.77228295689E+02  0.14773981426E+02 -0.13370408720E+03  0.15516679901E+03  0.41800000000E+01 0.  1.
         -5    1    3    3    0  502 -0.15661679711E+03 -0.82653032204E+02 -0.71381680649E+03  0.73546736875E+03  0.41800000000E+01 0.  1.
        -11    1    1    2    0    0  0.21455247632E+02 -0.12967012781E+02 -0.10247306096E+03  0.10549502024E+03  0.00000000000E+00 0. -1.
         11    1    1    2    0    0  0.21238984517E+03  0.80846063558E+02 -0.38820561202E+03  0.44983233491E+03  0.00000000000E+00 0.  1.
</event>
<event>
 7    1  0.2666594E-009  0.9834707E+02  0.7561462E-02  0.1283811E+00
         -3   -1    0    0    0  501 -0.00000000000E+00  0.00000000000E+00  0.36018571428E+03  0.36018571428E+03  0.00000000000E+00 0.  1.
          3   -1    0    0  501    0  0.00000000000E+00 -0.00000000000E+00 -0.40540670291E+02  0.40540670291E+02  0.00000000000E+00 0. -1.
         25    2    1    2    0    0 -0.88813580333E+01 -0.21220904379E+02  0.27664378683E+03  0.30448106288E+03  0.12509087719E+03 0.  0.
          5    1    3    3  502    0  0.49016983039E+02  0.17059690407E+02  0.16435600599E+03  0.17240669003E+03  0.41800000000E+01 0.  1.
         -5    1    3    3    0  502 -0.57898341073E+02 -0.38280594787E+02  0.11228778084E+03  0.13207437285E+03  0.41800000000E+01 0.  1.
        -11    1    1    2    0    0  0.19984044472E+01 -0.26651203602E+02  0.39582325988E+02  0.47760242926E+02  0.00000000000E+00 0.  1.
         11    1    1    2    0    0  0.68829535861E+01  0.47872107981E+02  0.34189311695E+01  0.48485078766E+02  0.00000000000E+00 0. -1.
</event>
<event>
 7    1  0.2666594E-009  0.3053210E+03  0.7561462E-02  0.1082611E+00
         -2   -1    0    0    0  501 -0.00000000000E+00  0.00000000000E+00  0.47001087142E+03  0.47001087142E+03  0.00000000000E+00 0.  1.
          2   -1    0    0  501    0  0.00000000000E+00 -0.00000000000E+00 -0.23980203296E+03  0.23980203296E+03  0.00000000000E+00 0. -1.
         25    2    1    2    0    0  0.17078385511E+03  0.25287133573E+03  0.24553026874E+02  0.33069351920E+03  0.12507723579E+03 0.  0.
          5    1    3    3  502    0  0.48204514518E+02  0.79440512428E+02  0.66281651726E+02  0.11421558558E+03  0.41800000000E+01 0. -1.
         -5    1    3    3    0  502  0.12257934059E+03  0.17343082330E+03 -0.41728624851E+02  0.21647793361E+03  0.41800000000E+01 0. -1.
        -11    1    1    2    0    0 -0.39527501558E+02 -0.53800415640E+02  0.95338612598E+02  0.11638882745E+03  0.00000000000E+00 0.  1.
         11    1    1    2    0    0 -0.13125635355E+03 -0.19907092009E+03  0.11031719899E+03  0.26273055773E+03  0.00000000000E+00 0. -1.
</event>
<event>
 7    1  0.2666594E-009  0.1567180E+03  0.7561462E-02  0.1192453E+00
          2   -1    0    0  501    0  0.00000000000E+00  0.00000000000E+00  0.34727610854E+03  0.34727610854E+03  0.00000000000E+00 0. -1.
         -2   -1    0    0    0  501 -0.00000000000E+00 -0.00000000000E+00 -0.94716491032E+02  0.94716491032E+02  0.00000000000E+00 0.  1.
         25    2    1    2    0    0  0.43501379351E+02  0.11368122457E+03  0.36916934915E+02  0.17839346966E+03  0.12508228935E+03 0.  0.
          5    1    3    3  502    0  0.10228020352E+02  0.13214328794E+03  0.43486362423E+02  0.13955284685E+03  0.41800000000E+01 0.  1.
         -5    1    3    3    0  502  0.33273359000E+02 -0.18462063366E+02 -0.65694275079E+01  0.38840622815E+02  0.41800000000E+01 0.  1.
        -11    1    1    2    0    0 -0.56964842425E+02 -0.45090407014E+02  0.64812103544E+02  0.97358856007E+02  0.00000000000E+00 0.  1.
         11    1    1    2    0    0  0.13463463073E+02 -0.68590817555E+02  0.15083057905E+03  0.16624027391E+03  0.00000000000E+00 0. -1.
</event>
<event>
 7    1  0.2666594E-009  0.1752247E+03  0.7561462E-02  0.1172506E+00
          2   -1    0    0  501    0  0.00000000000E+00  0.00000000000E+00  0.10132571304E+04  0.10132571304E+04  0.00000000000E+00 0. -1.
         -2   -1    0    0    0  501 -0.00000000000E+00 -0.00000000000E+00 -0.49686444785E+02  0.49686444785E+02  0.00000000000E+00 0.  1.
         25    2    1    2    0    0 -0.85438896080E+02 -0.13913694776E+03  0.76039112748E+03  0.78771894785E+03  0.12509028284E+03 0.  0.
          5    1    3    3  502    0 -0.56635964255E+02 -0.45145272780E+02  0.55779464918E+03  0.56249272987E+03  0.41800000000E+01 0.  1.
         -5    1    3    3    0  502 -0.28802931825E+02 -0.93991674982E+02  0.20259647830E+03  0.22522621798E+03  0.41800000000E+01 0.  1.
        -11    1    1    2    0    0  0.56121443782E+02  0.13930920336E+03  0.13888993983E+03  0.20456560312E+03  0.00000000000E+00 0.  1.
         11    1    1    2    0    0  0.29317452299E+02 -0.17225559847E+00  0.64289618328E+02  0.70659024236E+02  0.00000000000E+00 0. -1.
</event>
<event>
 7    1  0.2666594E-009  0.1611091E+03  0.7561462E-02  0.1187450E+00
         -1   -1    0    0    0  501 -0.00000000000E+00  0.00000000000E+00  0.25880935783E+03  0.25880935783E+03  0.00000000000E+00 0.  1.
          1   -1    0    0  501    0  0.00000000000E+00 -0.00000000000E+00 -0.15697797940E+03  0.15697797940E+03  0.00000000000E+00 0. -1.
         25    2    1    2    0    0 -0.13239867645E+03 -0.29924349980E+02 -0.51448070451E+02  0.19161599594E+03  0.12507961345E+03 0.  0.
          5    1    3    3  502    0 -0.12660670516E+03  0.15954243820E+02 -0.64969328799E+02  0.14325600082E+03  0.41800000000E+01 0.  1.
         -5    1    3    3    0  502 -0.57919712865E+01 -0.45878593800E+02  0.13521258348E+02  0.48359995117E+02  0.41800000000E+01 0.  1.
        -11    1    1    2    0    0  0.41609297947E+02 -0.18130313620E+02  0.96877928431E+02  0.10698305924E+03  0.00000000000E+00 0.  1.
         11    1    1    2    0    0  0.90789378498E+02  0.48054663600E+02  0.56401520446E+02  0.11718828205E+03  0.00000000000E+00 0. -1.
</event>
<event>
 7    1  0.2666594E-009  0.6975014E+02  0.7561462E-02  0.1360945E+00
          2   -1    0    0  501    0  0.00000000000E+00  0.00000000000E+00  0.79648998427E+02  0.79648998427E+02  0.00000000000E+00 0.  1.
         -2   -1    0    0    0  501 -0.00000000000E+00 -0.00000000000E+00 -0.15194699310E+03  0.15194699310E+03  0.00000000000E+00 0. -1.
         25    2    1    2    0    0  0.11287525768E+02  0.18343096381E+02 -0.34297017340E+02  0.13148235874E+03  0.12508975913E+03 0.  0.
          5    1    3    3  502    0 -0.26557512084E+02  0.55508139702E+02  0.97088074255E+01  0.62435473594E+02  0.41800000000E+01 0.  1.
         -5    1    3    3    0  502  0.37845037852E+02 -0.37165043320E+02 -0.44005824766E+02  0.69046885146E+02  0.41800000000E+01 0.  1.
        -11    1    1    2    0    0 -0.92279843166E+01 -0.38832723046E+01  0.29446954422E+02  0.31102389346E+02  0.00000000000E+00 0.  1.
         11    1    1    2    0    0 -0.20595414515E+01 -0.14459824077E+02 -0.67447931755E+02  0.69011243441E+02  0.00000000000E+00 0. -1.
</event>
<event>
 7    1  0.2666594E-009  0.9200138E+02  0.7561462E-02  0.1298076E+00
          2   -1    0    0  501    0  0.00000000000E+00  0.00000000000E+00  0.66049203227E+02  0.66049203227E+02  0.00000000000E+00 0. -1.
         -2   -1    0    0    0  501 -0.00000000000E+00 -0.00000000000E+00 -0.18830811150E+03  0.18830811150E+03  0.00000000000E+00 0.  1.
         25    2    1    2    0    0  0.41598814336E+01  0.16857465382E+02 -0.91519473465E+02  0.15597251336E+03  0.12510048820E+03 0.  0.
          5    1    3    3  502    0  0.49593048726E+02  0.37539453040E+02 -0.85069001182E+02  0.10546510503E+03  0.41800000000E+01 0. -1.
         -5    1    3    3    0  502 -0.45433167292E+02 -0.20681987658E+02 -0.64504722834E+01  0.50507408332E+02  0.41800000000E+01 0. -1.
        -11    1    1    2    0    0 -0.20780736022E+02 -0.38817005698E+02 -0.48585412771E+02  0.65567837048E+02  0.00000000000E+00 0.  1.
         11    1    1    2    0    0  0.16620854589E+02  0.21959540316E+02  0.17845977959E+02  0.32816964324E+02  0.00000000000E+00 0. -1.
</event>
<event>
 7    1  0.2666594E-009  0.1004902E+03  0.7561462E-02  0.1279268E+00
          4   -1    0    0  501    0  0.00000000000E+00  0.00000000000E+00  0.59913680420E+03  0.59913680420E+03  0.00000000000E+00 0. -1.
         -4   -1    0    0    0  501 -0.00000000000E+00 -0.00000000000E+00 -0.22780915455E+02  0.22780915455E+02  0.00000000000E+00 0.  1.
         25    2    1    2    0    0 -0.51305937238E+01 -0.22630276064E+02  0.42662321279E+03  0.44519478141E+03  0.12511025266E+03 0.  0.
          5    1    3    3  502    0 -0.60576170034E+02 -0.11950300306E+02  0.14052937319E+03  0.15355213832E+03  0.41800000000E+01 0.  1.
         -5    1    3    3    0  502  0.55445576310E+02 -0.10679975758E+02  0.28609383960E+03  0.29164264309E+03  0.41800000000E+01 0.  1.
        -11    1    1    2    0    0 -0.33774539926E+02  0.27116697081E+02  0.11992413707E+03  0.12750620950E+03  0.00000000000E+00 0. -1.
         11    1    1    2    0    0  0.38905133650E+02 -0.44864210165E+01  0.29808538881E+02  0.49216728743E+02  0.00000000000E+00 0.  1.
</event>
<event>
 7    1  0.2666594E-009  0.1812754E+03  0.7561462E-02  0.1166574E+00
         -1   -1    0    0    0  501 -0.00000000000E+00  0.00000000000E+00  0.69919306332E+03  0.69919306332E+03  0.00000000000E+00 0.  1.
          1   -1    0    0  501    0  0.00000000000E+00 -0.00000000000E+00 -0.62473878033E+02  0.62473878033E+02  0.00000000000E+00 0. -1.
         25    2    1    2    0    0  0.95412168885E+02  0.11147788643E+03  0.51753863506E+03  0.55229235219E+03  0.12509917017E+03 0.  0.
          5    1    3    3  502    0  0.91718350327E+02  0.13254629538E+02  0.21498507144E+03  0.23414524196E+03  0.41800000000E+01 0.  1.
         -5    1    3    3    0  502  0.36938185588E+01  0.98223256894E+02  0.30255356362E+03  0.31814711023E+03  0.41800000000E+01 0.  1.
        -11    1    1    2    0    0  0.17364695459E+02 -0.16653894203E+02  0.10327324005E+02  0.26182789417E+02  0.00000000000E+00 0.  1.
         11    1    1    2    0    0 -0.11277686434E+03 -0.94823992229E+02  0.10885322622E+03  0.18319179974E+03  0.00000000000E+00 0. -1.
</event>
<event>
 7    1  0.3342681E-009  0.2058788E+03  0.7561462E-02  0.1144872E+00
         -2   -1    0    0    0  501 -0.00000000000E+00  0.00000000000E+00  0.29091116163E+02  0.29091116163E+02  0.00000000000E+00 0.  1.
          2   -1    0    0  501    0  0.00000000000E+00 -0.00000000000E+00 -0.16823706274E+04  0.16823706274E+04  0.00000000000E+00 0. -1.
         25    2    1    2    0    0  0.61239872000E+02  0.16875312011E+03 -0.11231145842E+04  0.11442299090E+04  0.12509107929E+03 0.  0.
          5    1    3    3  502    0  0.28907209861E+02  0.17623841468E+03 -0.10279617354E+04  0.10433687783E+04  0.41800000000E+01 0. -1.
         -5    1    3    3    0  502  0.32332662140E+02 -0.74852945714E+01 -0.95152848767E+02  0.10086113079E+03  0.41800000000E+01 0. -1.
        -11    1    1    2    0    0  0.20461139975E+02 -0.61655426358E+02 -0.13676292358E+03  0.15140722280E+03  0.00000000000E+00 0.  1.
         11    1    1    2    0    0 -0.81701011975E+02 -0.10709769375E+03 -0.39340200350E+03  0.41582461173E+03  0.00000000000E+00 0. -1.
</event>
<event>
 7    1  0.2666594E-009  0.7626136E+02  0.7561462E-02  0.1340009E+00
          3   -1    0    0  501    0  0.00000000000E+00  0.00000000000E+00  0.16153907292E+02  0.16153907292E+02  0.00000000000E+00 0. -1.
         -3   -1    0    0    0  501 -0.00000000000E+00 -0.00000000000E+00 -0.11882881369E+04  0.11882881369E+04  0.00000000000E+00 0.  1.
         25    2    1    2    0    0 -0.63500882900E+02 -0.72140985712E+01 -0.91088376296E+03  0.92165232004E+03  0.12509741830E+03 0.  0.
          5    1    3    3  502    0 -0.33183759324E+02 -0.45498964893E+01 -0.86928500404E+03  0.86994008649E+03  0.41800000000E+01 0. -1.
         -5    1    3    3    0  502 -0.30317123577E+02 -0.26642020819E+01 -0.41598758923E+02  0.51712233549E+02  0.41800000000E+01 0. -1.
        -11    1    1    2    0    0  0.53713590419E+02 -0.21390658973E+02 -0.23723715968E+03  0.24418062990E+03  0.00000000000E+00 0.  1.
         11    1    1    2    0    0  0.97872924814E+01  0.28604757544E+02 -0.24013307006E+02  0.38609094286E+02  0.00000000000E+00 0. -1.
</event>
<event>
 7    1  0.2666594E-009  0.1083928E+03  0.7561462E-02  0.1263575E+00
          3   -1    0    0  501    0  0.00000000000E+00  0.00000000000E+00  0.10119439480E+03  0.10119439480E+03  0.00000000000E+00 0. -1.
         -3   -1    0    0    0  501 -0.00000000000E+00 -0.00000000000E+00 -0.16987459990E+03  0.16987459990E+03  0.00000000000E+00 0.  1.
         25    2    1    2    0    0 -0.34402833778E+02  0.59721280022E+02 -0.13369305372E+02  0.14344721430E+03  0.12509268046E+03 0.  0.
          5    1    3    3  502    0 -0.56759380027E+02  0.87810770570E+02 -0.20440387356E+02  0.10661913751E+03  0.41800000000E+01 0. -1.
         -5    1    3    3    0  502  0.22356546248E+02 -0.28089490548E+02  0.70710819843E+01  0.36828076787E+02  0.41800000000E+01 0. -1.
        -11    1    1    2    0    0  0.11389276260E+02  0.63445899003E+00 -0.61669090594E+02  0.62715188644E+02  0.00000000000E+00 0.  1.
         11    1    1    2    0    0  0.23013557518E+02 -0.60355739012E+02  0.63581908629E+01  0.64906591748E+02  0.00000000000E+00 0. -1.
</event>
<event>
 7    1  0.2666594E-009  0.1128811E+03  0.7561462E-02  0.1255326E+00
          4   -1    0    0  501    0  0.00000000000E+00  0.00000000000E+00  0.22667344636E+03  0.22667344636E+03  0.00000000000E+00 0. -1.
         -4   -1    0    0    0  501 -0.00000000000E+00 -0.00000000000E+00 -0.61166241487E+02  0.61166241487E+02  0.00000000000E+00 0.  1.
         25    2    1    2    0    0  0.31691837745E+01 -0.48407203723E+02  0.93441731838E+02  0.16349761808E+03  0.12508722065E+03 0.  0.
          5    1    3    3  502    0  0.45046768240E+02  0.21542394598E+02  0.20907878820E+02  0.54294547522E+02  0.41800000000E+01 0.  1.
         -5    1    3    3    0  502 -0.41877584465E+02 -0.69949598321E+02  0.72533853019E+02  0.10920307056E+03  0.41800000000E+01 0.  1.
        -11    1    1    2    0    0  0.38645577701E+02  0.26031327859E+02  0.58941114235E+02  0.75134317414E+02  0.00000000000E+00 0. -1.
         11    1    1    2    0    0 -0.41814761476E+02  0.22375875864E+02  0.13124358804E+02  0.49207752357E+02  0.00000000000E+00 0.  1.
</event>
<event>
 7    1  0.2666594E-009  0.6603055E+02  0.7561462E-02  0.1374136E+00
         -2   -1    0    0    0  501 -0.00000000000E+00  0.00000000000E+00  0.58991103286E+02  0.58991103286E+02  0.00000000000E+00 0. -1.
          2   -1    0    0  501    0  0.00000000000E+00 -0.00000000000E+00 -0.27959186061E+03  0.27959186061E+03  0.00000000000E+00 0.  1.
         25    2    1    2    0    0  0.11892835169E+02  0.67146899610E+00 -0.34223355541E+02  0.13023448109E+03  0.12509153290E+03 0.  0.
          5    1    3    3  502    0 -0.11373314756E+02 -0.14325715588E+02  0.43634002594E+02  0.47497126209E+02  0.41800000000E+01 0.  1.
         -5    1    3    3    0  502  0.23266149925E+02  0.14997184584E+02 -0.77857358135E+02  0.82737354886E+02  0.41800000000E+01 0.  1.
        -11    1    1    2    0    0  0.10845735933E+02 -0.39141181883E+02 -0.13121067836E+03  0.13735320973E+03  0.00000000000E+00 0.  1.
         11    1    1    2    0    0 -0.22738571102E+02  0.38469712887E+02 -0.55166723427E+02  0.70995273075E+02  0.00000000000E+00 0. -1.
</event>
<event>
 7    1  0.2666594E-009  0.8287573E+02  0.7561462E-02  0.1321083E+00
          1   -1    0    0  501    0  0.00000000000E+00  0.00000000000E+00  0.64036739499E+02  0.64036739499E+02  0.00000000000E+00 0. -1.
         -1   -1    0    0    0  501 -0.00000000000E+00 -0.00000000000E+00 -0.19378436002E+03  0.19378436002E+03  0.00000000000E+00 0.  1.
         25    2    1    2    0    0  0.21255171270E+02 -0.16622615872E+02 -0.71656328033E+02  0.14666529876E+03  0.12509191361E+03 0.  0.
          5    1    3    3  502    0 -0.19492748791E+02 -0.56372663923E+02 -0.66385730508E+02  0.89344177808E+02  0.41800000000E+01 0.  1.
         -5    1    3    3    0  502  0.40747920060E+02  0.39750048051E+02 -0.52705975250E+01  0.57321120956E+02  0.41800000000E+01 0.  1.
        -11    1    1    2    0    0 -0.17155280768E+02  0.30180214803E+02  0.14187369237E+02  0.37502406185E+02  0.00000000000E+00 0. -1.
         11    1    1    2    0    0 -0.40998905018E+01 -0.13557598931E+02 -0.72278661723E+02  0.73653394568E+02  0.00000000000E+00 0.  1.
</event>
<event>
 7    1  0.2666594E-009  0.1221239E+03  0.7561462E-02  0.1239634E+00
          2   -1    0    0  501    0  0.00000000000E+00  0.00000000000E+00  0.44554714097E+03  0.44554714097E+03  0.00000000000E+00 0. -1.
         -2   -1    0    0    0  501 -0.00000000000E+00 -0.00000000000E+00 -0.42306172023E+02  0.42306172023E+02  0.00000000000E+00 0.  1.
         25    2    1    2    0    0  0.25922198680E+02 -0.74824608056E+02  0.26804126056E+03  0.30620912523E+03  0.12508888302E+03 0.  0.
          5    1    3    3  502    0 -0.34291802492E+02  0.14527169563E+02  0.97324564529E+02  0.10429050597E+03  0.41800000000E+01 0. -1.
         -5    1    3    3    0  502  0.60214001173E+02 -0.89351777619E+02  0.17071669603E+03  0.20191861926E+03  0.41800000000E+01 0. -1.
        -11    1    1    2    0    0 -0.35188788500E+02  0.14744146458E+02  0.56874740891E+01  0.38574448180E+02  0.00000000000E+00 0.  1.
         11    1    1    2    0    0  0.92665898194E+01  0.60080461598E+02  0.12951223430E+03  0.14306973959E+03  0.00000000000E+00 0. -1.
</event>
<event>
 7    1  0.2666594E-009  0.1508869E+03  0.7561462E-02  0.1199387E+00
          1   -1    0    0  501    0  0.00000000000E+00  0.00000000000E+00  0.19098115558E+03  0.19098115558E+03  0.00000000000E+00 0. -1.
         -1   -1    0    0    0  501 -0.00000000000E+00 -0.00000000000E+00 -0.13892831953E+03  0.13892831953E+03  0.00000000000E+00 0.  1.
         25    2    1    2    0    0  0.83594079443E+02  0.80684023222E+02 -0.11097687771E+02  0.17108186750E+03  0.12509182624E+03 0.  0.
          5    1    3    3  502    0  0.10706573843E+03  0.93764968930E+02 -0.16572421548E+02  0.14334245463E+03  0.41800000000E+01 0. -1.
         -5    1    3    3    0  502 -0.23471658990E+02 -0.13080945708E+02  0.54747337774E+01  0.27739412868E+02  0.41800000000E+01 0. -1.
        -11    1    1    2    0    0 -0.29440695577E+02 -0.71431322100E+02  0.29350822648E+01  0.77316253406E+02  0.00000000000E+00 0.  1.
         11    1    1    2    0    0 -0.54153383867E+02 -0.92527011224E+01  0.60215441551E+02  0.81511354200E+02  0.00000000000E+00 0. -1.
</event>
<event>
 7    1  0.2666594E-009  0.1133901E+03  0.7561462E-02  0.1254418E+00
          2   -1    0    0  501    0  0.00000000000E+00  0.00000000000E+00  0.38794170044E+03  0.38794170044E+03  0.00000000000E+00 0.  1.
         -2   -1    0    0    0  501 -0.00000000000E+00 -0.00000000000E+00 -0.36702153819E+02  0.36702153819E+02  0.00000000000E+00 0. -1.
         25    2    1    2    0    0 -0.39645420598E+02 -0.27270179811E+02  0.18803402885E+03  0.23090808123E+03  0.12508526650E+03 0.  0.
          5    1    3    3  502    0 -0.11503639057E+02 -0.71085735512E+02  0.14950081651E+03  0.16599241562E+03  0.41800000000E+01 0. -1.
         -5    1    3    3    0  502 -0.28141781541E+02  0.43815555701E+02  0.38533212331E+02  0.64915665615E+02  0.41800000000E+01 0. -1.
        -11    1    1    2    0    0  0.56050604614E+01 -0.32846433808E+02  0.36515845489E+02  0.49433914355E+02  0.00000000000E+00 0. -1.
         11    1    1    2    0    0  0.34040360137E+02  0.60116613620E+02  0.12668967228E+03  0.14430185867E+03  0.00000000000E+00 0.  1.
</event>
<event>
 7    1  0.2666594E-009  0.8241659E+02  0.7561462E-02  0.1322330E+00
          1   -1    0    0  501    0  0.00000000000E+00  0.00000000000E+00  0.15455434426E+03  0.15455434426E+03  0.00000000000E+00 0. -1.
         -1   -1    0    0    0  501 -0.00000000000E+00 -0.00000000000E+00 -0.93562998201E+02  0.93562998201E+02  0.00000000000E+00 0.  1.
         25    2    1    2    0    0 -0.30901816801E+02  0.17958891242E+02  0.75154659173E+02  0.15024398529E+03  0.12509032043E+03 0.  0.
          5    1    3    3  502    0  0.13404101954E+02  0.32750481943E+02  0.93366706889E+02  0.99935370976E+02  0.41800000000E+01 0.  1.
         -5    1    3    3    0  502 -0.44305918755E+02 -0.14791590701E+02 -0.18212047716E+02  0.50308614314E+02  0.41800000000E+01 0.  1.
        -11    1    1    2    0    0 -0.23901204149E+02 -0.13175082674E+02 -0.30069813168E+02  0.40608423106E+02  0.00000000000E+00 0.  1.
         11    1    1    2    0    0  0.54803020950E+02 -0.47838085681E+01  0.15906500055E+02  0.57264934066E+02  0.00000000000E+00 0. -1.
</event>
<event>
 7    1  0.3125667E-009  0.2043741E+03  0.7561462E-02  0.1146100E+00
         -1   -1    0    0    0  501 -0.00000000000E+00  0.00000000000E+00  0.13823311947E+03  0.13823311947E+03  0.00000000000E+00 0.  1.
          1   -1    0    0  501    0  0.00000000000E+00 -0.00000000000E+00 -0.36942649406E+03  0.36942649406E+03  0.00000000000E+00 0. -1.
         25    2    1    2    0    0 -0.19692664020E+03  0.14688471569E+02 -0.99957036283E+02  0.25423385504E+03  0.12509033188E+03 0.  0.
          5    1    3    3  502    0 -0.14731371803E+00  0.13402156200E+02 -0.48922670760E+02  0.50897343806E+02  0.41800000000E+01 0.  1.
         -5    1    3    3    0  502 -0.19677932648E+03  0.12863153695E+01 -0.51034365523E+02  0.20333651124E+03  0.41800000000E+01 0.  1.
        -11    1    1    2    0    0  0.10580408688E+03 -0.14231949303E+02 -0.18304240100E+02  0.10831481148E+03  0.00000000000E+00 0.  1.
         11    1    1    2    0    0  0.91122553325E+02 -0.45652226574E+00 -0.11293209820E+03  0.14511094701E+03  0.00000000000E+00 0. -1.
</event>
<event>
 7    1  0.2666594E-009  0.1102835E+03  0.7561462E-02  0.1260046E+00
          2   -1    0    0  501    0  0.00000000000E+00  0.00000000000E+00  0.58254500563E+02  0.58254500563E+02  0.00000000000E+00 0. -1.
         -2   -1    0    0    0  501 -0.00000000000E+00 -0.00000000000E+00 -0.35496920592E+03  0.35496920592E+03  0.00000000000E+00 0.  1.
         25    2    1    2    0    0  0.11075124162E+02  0.86617393117E+02 -0.99414025294E+02  0.18208924726E+03  0.12509242334E+03 0.  0.
          5    1    3    3  502    0 -0.31687729843E+02  0.63103788956E+02 -0.11112517259E+03  0.13172880014E+03  0.41800000000E+01 0.  1.
         -5    1    3    3    0  502  0.42762854005E+02  0.23513604162E+02  0.11711147292E+02  0.50360447121E+02  0.41800000000E+01 0.  1.
        -11    1    1    2    0    0  0.15330055769E+02 -0.67846686377E+01 -0.11066082816E+00  0.16764682646E+02  0.00000000000E+00 0. -1.
         11    1    1    2    0    0 -0.26405179931E+02 -0.79832724480E+02 -0.19719001923E+03  0.21436977658E+03  0.00000000000E+00 0.  1.
</event>
<event>
 7    1  0.2666594E-009  0.3465788E+03  0.7561462E-02  0.1064028E+00
         -2   -1    0    0    0  501 -0.00000000000E+00  0.00000000000E+00  0.11954575261E+04  0.11954575261E+04  0.00000000000E+00 0.  1.
          2   -1    0    0  501    0  0.00000000000E+00 -0.00000000000E+00 -0.10269328042E+03  0.10269328042E+03  0.00000000000E+00 0. -1.
         25    2    1    2    0    0 -0.19564719694E+03 -0.26935827717E+03  0.56353758944E+03  0.66637259390E+03  0.12508441967E+03 0.  0.
          5    1    3    3  502    0 -0.83916799304E+01 -0.10549781517E+03  0.14756311802E+03  0.18163852978E+03  0.41800000000E+01 0. -1.
         -5    1    3    3    0  502 -0.18725551701E+03 -0.16386046200E+03  0.41597447142E+03  0.48473406413E+03  0.41800000000E+01 0. -1.
        -11    1    1    2    0    0  0.12788215984E+03  0.12459703707E+03  0.34041453206E+03  0.38439604848E+03  0.00000000000E+00 0. -1.
         11    1    1    2    0    0  0.67765037099E+02  0.14476124010E+03  0.18881212415E+03  0.24738216410E+03  0.00000000000E+00 0.  1.
</event>
<event>
 7    1  0.2666594E-009  0.1047537E+03  0.7561462E-02  0.1270606E+00
         -1   -1    0    0    0  501 -0.00000000000E+00  0.00000000000E+00  0.41611437412E+02  0.41611437412E+02  0.00000000000E+00 0.  1.
          1   -1    0    0  501    0  0.00000000000E+00 -0.00000000000E+00 -0.62319192859E+03  0.62319192859E+03  0.00000000000E+00 0. -1.
         25    2    1    2    0    0  0.76600732704E+01  0.32578291783E+02 -0.55347555598E+03  0.56842124149E+03  0.12508994723E+03 0.  0.
          5    1    3    3  502    0 -0.13299270742E+02 -0.39711331051E+02 -0.32774569714E+03  0.33043694529E+03  0.41800000000E+01 0.  1.
         -5    1    3    3    0  502  0.20959344013E+02  0.72289622834E+02 -0.22572985883E+03  0.23798429620E+03  0.41800000000E+01 0.  1.
        -11    1    1    2    0    0  0.16576021736E+02 -0.55958617872E+02 -0.20509022988E+02  0.61860742274E+02  0.00000000000E+00 0.  1.
         11    1    1    2    0    0 -0.24236095006E+02  0.23380326089E+02 -0.75959122161E+01  0.34521382237E+02  0.00000000000E+00 0. -1.
</event>
<event>
 7    1  0.2666594E-009  0.7935759E+02  0.7561462E-02  0.1330884E+00
          1   -1    0    0  501    0  0.00000000000E+00  0.00000000000E+00  0.58807840700E+03  0.58807840700E+03  0.00000000000E+00 0. -1.
         -1   -1    0    0    0  501 -0.00000000000E+00 -0.00000000000E+00 -0.18883322058E+02  0.18883322058E+02  0.00000000000E+00 0.  1.
         25    2    1    2    0    0  0.55246250894E+00 -0.24801020723E+02  0.44618157579E+03  0.46404816555E+03  0.12508919032E+03 0.  0.
          5    1    3    3  502    0  0.76617602872E+01  0.29644700364E+02  0.36286327262E+03  0.36417679477E+03  0.41800000000E+01 0. -1.
         -5    1    3    3    0  502 -0.71092977783E+01 -0.54445721087E+02  0.83318303166E+02  0.99871370783E+02  0.41800000000E+01 0. -1.
        -11    1    1    2    0    0  0.25276578673E+02 -0.11842949160E+02  0.47003284676E+02  0.54666897155E+02  0.00000000000E+00 0.  1.
         11    1    1    2    0    0 -0.25829041182E+02  0.36643969882E+02  0.76010224482E+02  0.88246666356E+02  0.00000000000E+00 0. -1.
</event>
<event>
 7    1  0.2666594E-009  0.1294821E+03  0.7561462E-02  0.1228226E+00
          1   -1    0    0  501    0  0.00000000000E+00  0.00000000000E+00  0.24137276237E+02  0.24137276237E+02  0.00000000000E+00 0. -1.
         -1   -1    0    0    0  501 -0.00000000000E+00 -0.00000000000E+00 -0.84575419075E+03  0.84575419075E+03  0.00000000000E+00 0.  1.
         25    2    1    2    0    0 -0.85106506199E+02  0.23187001930E+02 -0.43496926652E+03  0.46111355247E+03  0.12508673388E+03 0.  0.
          5    1    3    3  502    0 -0.10439274615E+03  0.37571710889E+02 -0.41491837280E+03  0.42951624811E+03  0.41800000000E+01 0.  1.
         -5    1    3    3    0  502  0.19286239950E+02 -0.14384708959E+02 -0.20050893726E+02  0.31597304354E+02  0.41800000000E+01 0.  1.
        -11    1    1    2    0    0  0.82427482588E+02  0.16229091289E+02 -0.18339223803E+03  0.20171858184E+03  0.00000000000E+00 0. -1.
         11    1    1    2    0    0  0.26790236107E+01 -0.39416093219E+02 -0.20325540996E+03  0.20705933268E+03  0.00000000000E+00 0.  1.
</event>
<event>
 7    1  0.2666594E-009  0.9793365E+02  0.7561462E-02  0.1284702E+00
          3   -1    0    0  501    0  0.00000000000E+00  0.00000000000E+00  0.51674107531E+03  0.51674107531E+03  0.00000000000E+00 0. -1.
         -3   -1    0    0    0  501 -0.00000000000E+00 -0.00000000000E+00 -0.53551629238E+02  0.53551629238E+02  0.00000000000E+00 0.  1.
         25    2    1    2    0    0  0.75607487938E+02 -0.34349159727E+02  0.85687747818E+02  0.17287906167E+03  0.12509365624E+03 0.  0.
          5    1    3    3  502    0  0.18880318014E+02 -0.19501341299E+02  0.10690821529E+03  0.11037938040E+03  0.41800000000E+01 0. -1.
         -5    1    3    3    0  502  0.56727169924E+02 -0.14847818428E+02 -0.21220467470E+02  0.62499681273E+02  0.41800000000E+01 0. -1.
        -11    1    1    2    0    0  0.14027472384E+02  0.81875742768E+01  0.12056209724E+02  0.20227667857E+02  0.00000000000E+00 0.  1.
         11    1    1    2    0    0 -0.89634960322E+02  0.26161585450E+02  0.36544548853E+03  0.37718597502E+03  0.00000000000E+00 0. -1.
</event>
<event>
 7    1  0.2666594E-009  0.1265522E+03  0.7561462E-02  0.1232663E+00
          2   -1    0    0  501    0  0.00000000000E+00  0.00000000000E+00  0.14864108998E+04  0.14864108998E+04  0.00000000000E+00 0. -1.
         -2   -1    0    0    0  501 -0.00000000000E+00 -0.00000000000E+00 -0.13496990413E+02  0.13496990413E+02  0.00000000000E+00 0.  1.
         25    2    1    2    0    0 -0.23537958396E+02  0.65029794047E+02  0.11060749691E+04  0.11152725670E+04  0.12509257337E+03 0.  0.
          5    1    3    3  502    0  0.37846061566E+02  0.67719048543E+02  0.73838179563E+03  0.74245763679E+03  0.41800000000E+01 0.  1.
         -5    1    3    3    0  502 -0.61384019961E+02 -0.26892544965E+01  0.36769317345E+03  0.37281493023E+03  0.41800000000E+01 0.  1.
        -11    1    1    2    0    0  0.46357516991E+02 -0.15613522424E+01  0.18390006342E+03  0.18965940664E+03  0.00000000000E+00 0. -1.
         11    1    1    2    0    0 -0.22819558595E+02 -0.63468441804E+02  0.18293887688E+03  0.19497591654E+03  0.00000000000E+00 0.  1.
</event>
<event>
 7    1  0.2666594E-009  0.9196402E+02  0.7561462E-02  0.1298164E+00
          4   -1    0    0  501    0  0.00000000000E+00  0.00000000000E+00  0.13044117046E+03  0.13044117046E+03  0.00000000000E+00 0. -1.
         -4   -1    0    0    0  501 -0.00000000000E+00 -0.00000000000E+00 -0.15627377897E+03  0.15627377897E+03  0.00000000000E+00 0.  1.
         25    2    1    2    0    0  0.69885805927E+02 -0.42475232330E+02 -0.57178077624E+02  0.16001750767E+03  0.12509236176E+03 0.  0.
          5    1    3    3  502    0  0.31755564565E+02 -0.27719952184E+02 -0.95093215276E+02  0.10410092997E+03  0.41800000000E+01 0. -1.
         -5    1    3    3    0  502  0.38130241362E+02 -0.14755280146E+02  0.37915137652E+02  0.55916577700E+02  0.41800000000E+01 0. -1.
        -11    1    1    2    0    0 -0.36145792711E+02  0.53857129902E+02  0.54080753508E+02  0.84450202320E+02  0.00000000000E+00 0. -1.
         11    1    1    2    0    0 -0.33740013215E+02 -0.11381897572E+02 -0.22735284391E+02  0.42247239442E+02  0.00000000000E+00 0.  1.
</event>
<event>
 7    1  0.2666594E-009  0.1025255E+03  0.7561462E-02  0.1275073E+00
         -2   -1    0    0    0  501 -0.00000000000E+00  0.00000000000E+00  0.10095792833E+03  0.10095792833E+03  0.00000000000E+00 0.  1.
          2   -1    0    0  501    0  0.00000000000E+00 -0.00000000000E+00 -0.24103291480E+03  0.24103291480E+03  0.00000000000E+00 0. -1.
         25    2    1    2    0    0 -0.58682612279E+02  0.18359990396E+02  0.26389442014E+02  0.14186029988E+03  0.12508878367E+03 0.  0.
          5    1    3    3  502    0 -0.37792710173E+02  0.56814235871E+02  0.56405174200E+02  0.88629354146E+02  0.41800000000E+01 0. -1.
         -5    1    3    3    0  502 -0.20889902106E+02 -0.38454245475E+02 -0.30015732186E+02  0.53230945734E+02  0.41800000000E+01 0. -1.
        -11    1    1    2    0    0 -0.51570992459E+01 -0.27727082787E+02 -0.84361924745E+01  0.29437325557E+02  0.00000000000E+00 0.  1.
         11    1    1    2    0    0  0.63839711525E+02  0.93670923913E+01 -0.15802823601E+03  0.17069321769E+03  0.00000000000E+00 0. -1.
</event>
<event>
 7    1  0.2666594E-009  0.1651953E+03  0.7561462E-02  0.1182953E+00
          4   -1    0    0  501    0  0.00000000000E+00  0.00000000000E+00  0.23476412811E+03  0.23476412811E+03  0.00000000000E+00 0.  1.
         -4   -1    0    0    0  501 -0.00000000000E+00 -0.00000000000E+00 -0.13619075656E+03  0.13619075656E+03  0.00000000000E+00 0. -1.
         25    2    1    2    0    0  0.13840048657E+03 -0.28144028346E+02  0.37786446218E+02  0.19240962365E+03  0.12508743639E+03 0.  0.
          5    1    3    3  502    0 -0.48052079885E+01  0.32073256994E+02  0.12246667808E+02  0.34917575952E+02  0.41800000000E+01 0.  1.
         -5    1    3    3    0  502  0.14320569455E+03 -0.60217285340E+02  0.25539778409E+02  0.15749204770E+03  0.41800000000E+01 0.  1.
        -11    1    1    2    0    0 -0.96835260579E+02  0.11522634630E+02  0.83468109999E+02  0.12836184864E+03  0.00000000000E+00 0.  1.
         11    1    1    2    0    0 -0.41565225987E+02  0.16621393716E+02 -0.22681184661E+02  0.50183412380E+02  0.00000000000E+00 0. -1.
</event>
<event>
 7    1  0.2666594E-009  0.1694717E+03  0.7561462E-02  0.1178400E+00
          1   -1    0    0  501    0  0.00000000000E+00  0.00000000000E+00  0.30321733768E+03  0.30321733768E+03  0.00000000000E+00 0. -1.
         -1   -1    0    0    0  501 -0.00000000000E+00 -0.00000000000E+00 -0.16817738799E+03  0.16817738799E+03  0.00000000000E+00 0.  1.
         25    2    1    2    0    0  0.13281143391E+03  0.36897854183E+02 -0.77715507015E+02  0.20170992383E+03  0.12508742830E+03 0.  0.
          5    1    3    3  502    0 -0.23758541501E+02  0.83600408162E+01 -0.25640023688E+01  0.25659405388E+02  0.41800000000E+01 0.  1.
         -5    1    3    3    0  502  0.15656997541E+03  0.28537813366E+02 -0.75151504646E+02  0.17605051844E+03  0.41800000000E+01 0.  1.
        -11    1    1    2    0    0 -0.10312821606E+02  0.17390740460E+02  0.74338463428E+02  0.77038946567E+02  0.00000000000E+00 0. -1.
         11    1    1    2    0    0 -0.12249861231E+03 -0.54288594642E+02  0.13841699328E+03  0.19264585527E+03  0.00000000000E+00 0.  1.
</event>
<event>
 7    1  0.2666594E-009  0.1227152E+03  0.7561462E-02  0.1238684E+00
          1   -1    0    0  501    0  0.00000000000E+00  0.00000000000E+00  0.32685006993E+02  0.32685006993E+02  0.00000000000E+00 0. -1.
         -1   -1    0    0    0  501 -0.00000000000E+00 -0.00000000000E+00 -0.60468402704E+03  0.60468402704E+03  0.00000000000E+00 0.  1.
         25    2    1    2    0    0 -0.54015836059E+02  0.69787033052E+02 -0.34456653281E+03  0.37704281596E+03  0.12508896436E+03 0.  0.
          5    1    3    3  502    0  0.34961853949E+02  0.25924556899E+02 -0.51202599043E+02  0.67331956980E+02  0.41800000000E+01 0.  1.
         -5    1    3    3    0  502 -0.88977690008E+02  0.43862476153E+02 -0.29336393377E+03  0.30971085898E+03  0.41800000000E+01 0. -1.
        -11    1    1    2    0    0  0.21800988985E+02 -0.66560345867E+02 -0.67928949307E+02  0.97570000085E+02  0.00000000000E+00 0. -1.
         11    1    1    2    0    0  0.32214847074E+02 -0.32266871854E+01 -0.15950353793E+03  0.16275621799E+03  0.00000000000E+00 0.  1.
</event>
<event>
 7    1  0.2666594E-009  0.1520683E+03  0.7561462E-02  0.1197954E+00
          2   -1    0    0  501    0  0.00000000000E+00  0.00000000000E+00  0.95963821296E+03  0.95963821296E+03  0.00000000000E+00 0. -1.
         -2   -1    0    0    0  501 -0.00000000000E+00 -0.00000000000E+00 -0.27393810712E+02  0.27393810712E+02  0.00000000000E+00 0.  1.
         25    2    1    2    0    0  0.70818952487E+02  0.94807344471E+02  0.55099864539E+03  0.57727864740E+03  0.12508945966E+03 0.  0.
          5    1    3    3  502    0  0.70491069304E+02  0.11449947697E+03  0.34501382646E+03  0.37031221142E+03  0.41800000000E+01 0.  1.
         -5    1    3    3    0  502  0.32788318251E+00 -0.19692132503E+02  0.20598481893E+03  0.20696643597E+03  0.41800000000E+01 0.  1.
        -11    1    1    2    0    0 -0.88004718073E+02 -0.49384188464E+02  0.23844616319E+03  0.25892122588E+03  0.00000000000E+00 0.  1.
         11    1    1    2    0    0  0.17185765586E+02 -0.45423156007E+02  0.14279959366E+03  0.15083215039E+03  0.00000000000E+00 0. -1.
</event>
<event>
 7    1  0.2666594E-009  0.1141113E+03  0.7561462E-02  0.1253140E+00
          2   -1    0    0  501    0  0.00000000000E+00  0.00000000000E+00  0.49497240985E+02  0.49497240985E+02  0.00000000000E+00 0.  1.
         -2   -1    0    0    0  501 -0.00000000000E+00 -0.00000000000E+00 -0.29093992929E+03  0.29093992929E+03  0.00000000000E+00 0. -1.
         25    2    1    2    0    0  0.12567868247E+02  0.44498414031E+02 -0.10550793420E+03  0.17005229456E+03  0.12509116093E+03 0.  0.
          5    1    3    3  502    0  0.57921504330E+02 -0.69086198346E+01 -0.23356980021E+02  0.62973411910E+02  0.41800000000E+01 0. -1.
         -5    1    3    3    0  502 -0.45353636083E+02  0.51407033865E+02 -0.82150954183E+02  0.10707888265E+03  0.41800000000E+01 0. -1.
        -11    1    1    2    0    0  0.35275413847E+02  0.64398144819E+00 -0.33521711588E+02  0.48666977325E+02  0.00000000000E+00 0.  1.
         11    1    1    2    0    0 -0.47843282094E+02 -0.45142395479E+02 -0.10241304251E+03  0.12171789839E+03  0.00000000000E+00 0. -1.
</event>
<event>
 7    1  0.2666594E-009  0.1252086E+03  0.7561462E-02  0.1234744E+00
         -1   -1    0    0    0  501 -0.00000000000E+00  0.00000000000E+00  0.65323566985E+02  0.65323566985E+02  0.00000000000E+00 0.  1.
          1   -1    0    0  501    0  0.00000000000E+00 -0.00000000000E+00 -0.36438019213E+03  0.36438019213E+03  0.00000000000E+00 0. -1.
         25    2    1    2    0    0  0.95625702717E+02  0.46643452632E+02 -0.19726659197E+03  0.25667538365E+03  0.12509299570E+03 0.  0.
          5    1    3    3  502    0  0.21753135033E+01 -0.22989933274E+02  0.42492751734E+01  0.23849481342E+02  0.41800000000E+01 0. -1.
         -5    1    3    3    0  502  0.93450389214E+02  0.69633385907E+02 -0.20151586714E+03  0.23282590231E+03  0.41800000000E+01 0. -1.
        -11    1    1    2    0    0 -0.76839971945E+02 -0.49395753109E+02 -0.26113543680E+02  0.95006520183E+02  0.00000000000E+00 0.  1.
         11    1    1    2    0    0 -0.18785730772E+02  0.27523004766E+01 -0.75676489498E+02  0.78021855279E+02  0.00000000000E+00 0. -1.
</event>
<event>
 7    1  0.2666594E-009  0.8880977E+02  0.7561462E-02  0.1305760E+00
         -2   -1    0    0    0  501 -0.00000000000E+00  0.00000000000E+00  0.16897619969E+03  0.16897619969E+03  0.00000000000E+00 0.  1.
          2   -1    0    0  501    0  0.00000000000E+00 -0.00000000000E+00 -0.74269727385E+02  0.74269727385E+02  0.00000000000E+00 0. -1.
         25    2    1    2    0    0  0.29913211373E+02  0.25918466415E+01  0.58063074286E+02  0.14113828603E+03  0.12508867776E+03 0.  0.
          5    1    3    3  502    0 -0.14950822043E+02  0.42121276665E+02 -0.14356433327E+02  0.47130760714E+02  0.41800000000E+01 0.  1.
         -5    1    3    3    0  502  0.44864033416E+02 -0.39529430023E+02  0.72419507613E+02  0.94007525312E+02  0.41800000000E+01 0.  1.
        -11    1    1    2    0    0 -0.13246683062E+02  0.31867002476E+02  0.50699738064E+02  0.61330611433E+02  0.00000000000E+00 0.  1.
         11    1    1    2    0    0 -0.16666528311E+02 -0.34458849117E+02 -0.14056340049E+02  0.40777029612E+02  0.00000000000E+00 0. -1.
</event>
<event>
 7    1  0.2739164E-009  0.1634208E+03  0.7561462E-02  0.1184888E+00
          2   -1    0    0  501    0  0.00000000000E+00  0.00000000000E+00  0.71244080625E+03  0.71244080625E+03  0.00000000000E+00 0.  1.
         -2   -1    0    0    0  501 -0.00000000000E+00 -0.00000000000E+00 -0.79708813807E+02  0.79708813807E+02  0.00000000000E+00 0. -1.
         25    2    1    2    0    0  0.61828056690E+02  0.13553854983E+03  0.76377353179E+02  0.20898682873E+03  0.12509431409E+03 0.  0.
          5    1    3    3  502    0 -0.57322984173E+01  0.15738901827E+02 -0.30303286072E+02  0.34875977729E+02  0.41800000000E+01 0. -1.
         -5    1    3    3    0  502  0.67560355108E+02  0.11979964801E+03  0.10668063925E+03  0.17411085100E+03  0.41800000000E+01 0. -1.
        -11    1    1    2    0    0 -0.38817100028E+02 -0.46652717195E+01  0.87412935029E+02  0.95757784149E+02  0.00000000000E+00 0. -1.
         11    1    1    2    0    0 -0.23010956663E+02 -0.13087327811E+03  0.46894170424E+03  0.48740500718E+03  0.00000000000E+00 0.  1.
</event>
<event>
 7    1  0.3678288E-009  0.1480204E+03  0.7561462E-02  0.1202927E+00
         -3   -1    0    0    0  501 -0.00000000000E+00  0.00000000000E+00  0.83478412789E+02  0.83478412789E+02  0.00000000000E+00 0.  1.
          3   -1    0    0  501    0  0.00000000000E+00 -0.00000000000E+00 -0.31397221333E+03  0.31397221333E+03  0.00000000000E+00 0. -1.
         25    2    1    2    0    0 -0.11764591494E+03  0.96522126973E+00 -0.94857024846E+02  0.19617884404E+03  0.12508713255E+03 0.  0.
          5    1    3    3  502    0 -0.76996932629E+01 -0.49783287030E+02 -0.27073247204E+02  0.57341904904E+02  0.41800000000E+01 0.  1.
         -5    1    3    3    0  502 -0.10994622168E+03  0.50748508299E+02 -0.67783777642E+02  0.13883693913E+03  0.41800000000E+01 0.  1.
        -11    1    1    2    0    0  0.11188342434E+03  0.95979077876E+01 -0.65273486514E+02  0.12988706062E+03  0.00000000000E+00 0.  1.
         11    1    1    2    0    0  0.57624906025E+01 -0.10563129057E+02 -0.70363289176E+02  0.71384721454E+02  0.00000000000E+00 0. -1.
</event>
<event>
 7    1  0.2666594E-009  0.7541235E+02  0.7561462E-02  0.1342599E+00
          4   -1    0    0  501    0  0.00000000000E+00  0.00000000000E+00  0.96682805010E+02  0.96682805010E+02  0.00000000000E+00 0. -1.
         -4   -1    0    0    0  501 -0.00000000000E+00 -0.00000000000E+00 -0.16665437404E+03  0.16665437404E+03  0.00000000000E+00 0.  1.
         25    2    1    2    0    0 -0.20722483737E+02 -0.62755631725E+02 -0.44799045243E+02  0.14840281349E+03  0.12509496373E+03 0.  0.
          5    1    3    3  502    0 -0.10730025681E+02  0.30911223452E+01 -0.74436756845E+02  0.75385619703E+02  0.41800000000E+01 0. -1.
         -5    1    3    3    0  502 -0.99924580558E+01 -0.65846754070E+02  0.29637711601E+02  0.73017193787E+02  0.41800000000E+01 0. -1.
        -11    1    1    2    0    0  0.16944935826E+02  0.10836854382E+02  0.31884580219E+02  0.37698736302E+02  0.00000000000E+00 0. -1.
         11    1    1    2    0    0  0.37775479111E+01  0.51918777343E+02 -0.57057104004E+02  0.77235629255E+02  0.00000000000E+00 0.  1.
</event>
<event>
 7    1  0.2666594E-009  0.2440872E+03  0.7561462E-02  0.1117100E+00
          1   -1    0    0  501    0  0.00000000000E+00  0.00000000000E+00  0.10880377821E+04  0.10880377821E+04  0.00000000000E+00 0. -1.
         -1   -1    0    0    0  501 -0.00000000000E+00 -0.00000000000E+00 -0.70294158156E+02  0.70294158156E+02  0.00000000000E+00 0.  1.
         25    2    1    2    0    0  0.22794292965E+03  0.24495981471E+02  0.29266223915E+03  0.39223972655E+03  0.12507111806E+03 0.  0.
          5    1    3    3  502    0  0.14042562310E+03  0.70728781997E+02  0.21483553064E+03  0.26625869723E+03  0.41800000000E+01 0.  1.
         -5    1    3    3    0  502  0.87517306554E+02 -0.46232800527E+02  0.77826708515E+02  0.12598102932E+03  0.41800000000E+01 0.  1.
        -11    1    1    2    0    0 -0.70540725291E+02  0.83315476597E+01  0.11491227632E+03  0.13509344862E+03  0.00000000000E+00 0.  1.
         11    1    1    2    0    0 -0.15740220436E+03 -0.32827529130E+02  0.61016910852E+03  0.63099876513E+03  0.00000000000E+00 0. -1.
</event>
<event>
 7    1  0.2666594E-009  0.1996109E+03  0.7561462E-02  0.1150068E+00
         -2   -1    0    0    0  501 -0.00000000000E+00  0.00000000000E+00  0.95572217030E+02  0.95572217030E+02  0.00000000000E+00 0.  1.
          2   -1    0    0  501    0  0.00000000000E+00 -0.00000000000E+00 -0.90280914119E+03  0.90280914119E+03  0.00000000000E+00 0. -1.
         25    2    1    2    0    0 -0.13367906304E+02  0.18539106451E+03 -0.75133963449E+03  0.78403240895E+03  0.12508806584E+03 0.  0.
          5    1    3    3  502    0 -0.45783601742E+02  0.75197084423E+02 -0.17054108458E+03  0.19196998105E+03  0.41800000000E+01 0. -1.
         -5    1    3    3    0  502  0.32415695438E+02  0.11019398009E+03 -0.58079854991E+03  0.59206242791E+03  0.41800000000E+01 0. -1.
        -11    1    1    2    0    0 -0.17237484449E+02 -0.14202388767E+03 -0.87157757089E+01  0.14333136532E+03  0.00000000000E+00 0. -1.
         11    1    1    2    0    0  0.30605390752E+02 -0.43367176841E+02 -0.47181513964E+02  0.71017583951E+02  0.00000000000E+00 0.  1.
</event>
<event>
 7    1  0.2666594E-009  0.8759311E+02  0.7561462E-02  0.1308787E+00
          2   -1    0    0  501    0  0.00000000000E+00  0.00000000000E+00  0.12113843354E+03  0.12113843354E+03  0.00000000000E+00 0. -1.
         -2   -1    0    0    0  501 -0.00000000000E+00 -0.00000000000E+00 -0.12737033383E+03  0.12737033383E+03  0.00000000000E+00 0.  1.
         25    2    1    2    0    0  0.54554689532E+02 -0.11736291186E+02  0.16637956509E+02  0.13798817431E+03  0.12509980005E+03 0.  0.
          5    1    3    3  502    0  0.37205232863E+02  0.20382585142E+02 -0.47653535377E+02  0.63937555188E+02  0.41800000000E+01 0. -1.
         -5    1    3    3    0  502  0.17349456669E+02 -0.32118876328E+02  0.64291491886E+02  0.74050619121E+02  0.41800000000E+01 0. -1.
        -11    1    1    2    0    0  0.20263046266E+02  0.31303812028E+01 -0.28376143870E+02  0.35008511413E+02  0.00000000000E+00 0.  1.
         11    1    1    2    0    0 -0.74817735797E+02  0.86059099832E+01  0.55062870703E+01  0.75512081641E+02  0.00000000000E+00 0. -1.
</event>
<event>
 7    1  0.2666594E-009  0.1619874E+03  0.7561462E-02  0.1186471E+00
         -1   -1    0    0    0  501 -0.00000000000E+00  0.00000000000E+00  0.11021493144E+03  0.11021493144E+03  0.00000000000E+00 0.  1.
          1   -1    0    0  501    0  0.00000000000E+00 -0.00000000000E+00 -0.27508537001E+03  0.27508537001E+03  0.00000000000E+00 0. -1.
         25    2    1    2    0    0  0.60265195843E+02 -0.12191749141E+03 -0.98226880427E+02  0.20926696048E+03  0.12509345374E+03 0.  0.
          5    1    3    3  502    0 -0.66255223942E+01 -0.11714599726E+03 -0.57968831075E+02  0.13093868793E+03  0.41800000000E+01 0. -1.
         -5    1    3    3    0  502  0.66890718238E+02 -0.47714941506E+01 -0.40258049352E+02  0.78328272548E+02  0.41800000000E+01 0. -1.
        -11    1    1    2    0    0 -0.29076842046E+02  0.90707920576E+02  0.10145760823E+01  0.95259744715E+02  0.00000000000E+00 0.  1.
         11    1    1    2    0    0 -0.31188353798E+02  0.31209570832E+02 -0.67658134225E+02  0.80773596248E+02  0.00000000000E+00 0. -1.
</event>
<event>
 7    1  0.2666594E-009  0.1533241E+03  0.7561462E-02  0.1196447E+00
          3   -1    0    0  501    0  0.00000000000E+00  0.00000000000E+00  0.76070408356E+02  0.76070408356E+02  0.00000000000E+00 0. -1.
         -3   -1    0    0    0  501 -0.00000000000E+00 -0.00000000000E+00 -0.42539440624E+03  0.42539440624E+03  0.00000000000E+00 0.  1.
         25    2    1    2    0    0  0.14033207172E+03 -0.31839537715E+00 -0.13255226261E+03  0.23002092021E+03  0.12508528963E+03 0.  0.
          5    1    3    3  502    0  0.78750966999E+02 -0.41192526519E+02 -0.12795622634E+03  0.15584866795E+03  0.41800000000E+01 0. -1.
         -5    1    3    3    0  502  0.61581104721E+02  0.40874131141E+02 -0.45960362682E+01  0.74172252255E+02  0.41800000000E+01 0. -1.
        -11    1    1    2    0    0 -0.13288227405E+03  0.77705090158E+01 -0.22262965947E+03  0.25938782709E+03  0.00000000000E+00 0.  1.
         11    1    1    2    0    0 -0.74497976739E+01 -0.74521136386E+01  0.58579241859E+01  0.12056067304E+02  0.00000000000E+00 0. -1.
</event>
<event>
 7    1  0.2666594E-009  0.8457302E+02  0.7561462E-02  0.1316553E+00
         -3   -1    0    0    0  501 -0.00000000000E+00  0.00000000000E+00  0.81204520996E+02  0.81204520996E+02  0.00000000000E+00 0.  1.
          3   -1    0    0  501    0  0.00000000000E+00 -0.00000000000E+00 -0.18429000618E+03  0.18429000618E+03  0.00000000000E+00 0. -1.
         25    2    1    2    0    0  0.35108501880E+02 -0.37695095557E+02 -0.33514794891E+02  0.13937809216E+03  0.12509789753E+03 0.  0.
          5    1    3    3  502    0 -0.79206046888E+01 -0.66117400649E+01  0.43972565068E+02  0.45359783553E+02  0.41800000000E+01 0.  1.
         -5    1    3    3    0  502  0.43029106569E+02 -0.31083355492E+02 -0.77487359958E+02  0.94018308611E+02  0.41800000000E+01 0.  1.
        -11    1    1    2    0    0 -0.49470931085E+02 -0.13757507909E+02 -0.39756746876E+02  0.64940287714E+02  0.00000000000E+00 0.  1.
         11    1    1    2    0    0  0.14362429204E+02  0.51452603466E+02 -0.29813943414E+02  0.61176147296E+02  0.00000000000E+00 0. -1.
</event>
<event>
 7    1  0.2666594E-009  0.7847895E+02  0.7561462E-02  0.1333424E+00
         -1   -1    0    0    0  501 -0.00000000000E+00  0.00000000000E+00  0.49245846488E+02  0.49245846488E+02  0.00000000000E+00 0.  1.
          1   -1    0    0  501    0  0.00000000000E+00 -0.00000000000E+00 -0.27858091954E+03  0.27858091954E+03  0.00000000000E+00 0. -1.
         25    2    1    2    0    0  0.53420526798E+01 -0.36210916356E+02 -0.16751273053E+03  0.21224387345E+03  0.12508868428E+03 0.  0.
          5    1    3    3  502    0 -0.44102911530E+02 -0.14492931012E+02 -0.12819652957E+02  0.48341780653E+02  0.41800000000E+01 0.  1.
         -5    1    3    3    0  502  0.49444964210E+02 -0.21717985344E+02 -0.15469307757E+03  0.16390209279E+03  0.41800000000E+01 0.  1.
        -11    1    1    2    0    0 -0.21495151473E+02  0.33498257963E+02 -0.81067509702E+02  0.90311217203E+02  0.00000000000E+00 0. -1.
         11    1    1    2    0    0  0.16153098793E+02  0.27126583931E+01  0.19245167185E+02  0.25271675373E+02  0.00000000000E+00 0.  1.
</event>
<event>
 7    1  0.2666594E-009  0.1489663E+03  0.7561462E-02  0.1201749E+00
          1   -1    0    0  501    0  0.00000000000E+00  0.00000000000E+00  0.93241492158E+03  0.93241492158E+03  0.00000000000E+00 0. -1.
         -1   -1    0    0    0  501 -0.00000000000E+00 -0.00000000000E+00 -0.38751224953E+02  0.38751224953E+02  0.00000000000E+00 0.  1.
         25    2    1    2    0    0  0.12514634141E+03 -0.79229151449E+02  0.32782616004E+03  0.38086187785E+03  0.12508762364E+03 0.  0.
          5    1    3    3  502    0  0.76073815689E+02 -0.36162497192E+02  0.29662045136E+03  0.30837658180E+03  0.41800000000E+01 0. -1.
         -5    1    3    3    0  502  0.49072525724E+02 -0.43066654257E+02  0.31205708676E+02  0.72485296052E+02  0.41800000000E+01 0. -1.
        -11    1    1    2    0    0 -0.78652394961E+02  0.47463892866E+02  0.47209566594E+03  0.48095045292E+03  0.00000000000E+00 0. -1.
         11    1    1    2    0    0 -0.46493946452E+02  0.31765258582E+02  0.93741870641E+02  0.10935381576E+03  0.00000000000E+00 0.  1.
</event>
<event>
 7    1  0.2666594E-009  0.1244623E+03  0.7561462E-02  0.1235912E+00
         -1   -1    0    0    0  501 -0.00000000000E+00  0.00000000000E+00  0.67079887324E+02  0.67079887324E+02  0.00000000000E+00 0.  1.
          1   -1    0    0  501    0  0.00000000000E+00 -0.00000000000E+00 -0.53443539723E+03  0.53443539723E+03  0.00000000000E+00 0. -1.
         25    2    1    2    0    0  0.45405054433E+02  0.43881818505E+02 -0.20601223277E+02  0.14163262438E+03  0.12509259340E+03 0.  0.
          5    1    3    3  502    0  0.85368354720E+02  0.73160379647E+01 -0.11616865878E+02  0.86566184922E+02  0.41800000000E+01 0.  1.
         -5    1    3    3    0  502 -0.39963300288E+02  0.36565780541E+02 -0.89843573990E+01  0.55066439455E+02  0.41800000000E+01 0.  1.
        -11    1    1    2    0    0  0.23799944880E+02 -0.29889301676E+02 -0.14131504224E+03  0.14638903269E+03  0.00000000000E+00 0.  1.
         11    1    1    2    0    0 -0.69204999313E+02 -0.13992516830E+02 -0.30543924439E+03  0.31349362748E+03  0.00000000000E+00 0. -1.
</event>
<event>
 7    1  0.2666594E-009  0.1314660E+03  0.7561462E-02  0.1225297E+00
          2   -1    0    0  501    0  0.00000000000E+00  0.00000000000E+00  0.79784630298E+03  0.79784630298E+03  0.00000000000E+00 0. -1.
         -2   -1    0    0    0  501 -0.00000000000E+00 -0.00000000000E+00 -0.28875421111E+02  0.28875421111E+02  0.00000000000E+00 0.  1.
         25    2    1    2    0    0 -0.52980305564E+02  0.54263275861E+02  0.61463259361E+03  0.63180046010E+03  0.12508869001E+03 0.  0.
          5    1    3    3  502    0  0.34925524912E+02 -0.10750763482E+02  0.14540333543E+03  0.14998324427E+03  0.41800000000E+01 0. -1.
         -5    1    3    3    0  502 -0.87905830476E+02  0.65014039343E+02  0.46922925817E+03  0.48181721583E+03  0.41800000000E+01 0. -1.
        -11    1    1    2    0    0  0.53841438259E+02  0.80294374940E+01  0.91273319069E+02  0.10627413191E+03  0.00000000000E+00 0. -1.
         11    1    1    2    0    0 -0.86113269527E+00 -0.62292713355E+02  0.63064969195E+02  0.88647132082E+02  0.00000000000E+00 0.  1.
</event>
<event>
 7    1  0.2666594E-009  0.1239461E+03  0.7561462E-02  0.1236726E+00
         -2   -1    0    0    0  501 -0.00000000000E+00  0.00000000000E+00  0.58128039228E+02  0.58128039228E+02  0.00000000000E+00 0.  1.
          2   -1    0    0  501    0  0.00000000000E+00 -0.00000000000E+00 -0.33093561382E+03  0.33093561382E+03  0.00000000000E+00 0. -1.
         25    2    1    2    0    0  0.17294465782E+02 -0.83080736195E+02 -0.15147907439E+03  0.21399714793E+03  0.12508941630E+03 0.  0.
          5    1    3    3  502    0  0.20786648620E+02  0.13386580773E+02  0.90292072845E+01  0.26651159258E+02  0.41800000000E+01 0.  1.
         -5    1    3    3    0  502 -0.34921828381E+01 -0.96467316968E+02 -0.16050828168E+03  0.18734598867E+03  0.41800000000E+01 0.  1.
        -11    1    1    2    0    0 -0.53636094971E+02  0.68591846920E+02 -0.82761337338E+02  0.12012955967E+03  0.00000000000E+00 0.  1.
         11    1    1    2    0    0  0.36341629190E+02  0.14488889275E+02 -0.38567162866E+02  0.54936945457E+02  0.00000000000E+00 0. -1.
</event>
<event>
 7    1  0.2666594E-009  0.8728603E+02  0.7561462E-02  0.1309560E+00
          2   -1    0    0  501    0  0.00000000000E+00  0.00000000000E+00  0.79055340914E+02  0.79055340914E+02  0.00000000000E+00 0. -1.
         -2   -1    0    0    0  501 -0.00000000000E+00 -0.00000000000E+00 -0.16658470151E+03  0.16658470151E+03  0.00000000000E+00 0.  1.
         25    2    1    2    0    0  0.72772391249E+01  0.36760721411E+02 -0.63331647938E+02  0.14513532927E+03  0.12509619229E+03 0.  0.
          5    1    3    3  502    0 -0.26848630603E+02  0.68549324291E+02 -0.64976529139E+02  0.98281639002E+02  0.41800000000E+01 0.  1.
         -5    1    3    3    0  502  0.34125869728E+02 -0.31788602880E+02  0.16448812015E+01  0.46853690270E+02  0.41800000000E+01 0.  1.
        -11    1    1    2    0    0  0.10064881194E+02 -0.35184062314E+02  0.27614051590E+02  0.45844911600E+02  0.00000000000E+00 0. -1.
         11    1    1    2    0    0 -0.17342120319E+02 -0.15766590968E+01 -0.51811764249E+02  0.54659801552E+02  0.00000000000E+00 0.  1.
</event>
<event>
 7    1  0.2666594E-009  0.1036520E+03  0.7561462E-02  0.1272798E+00
          3   -1    0    0  501    0  0.00000000000E+00  0.00000000000E+00  0.10088256322E+03  0.10088256322E+03  0.00000000000E+00 0. -1.
         -3   -1    0    0    0  501 -0.00000000000E+00 -0.00000000000E+00 -0.12997161819E+03  0.12997161819E+03  0.00000000000E+00 0.  1.
         25    2    1    2    0    0  0.36778931143E+01  0.37019520980E+02 -0.34986481893E+02  0.13511398336E+03  0.12509101787E+03 0.  0.
          5    1    3    3  502    0 -0.34348707385E+02  0.60395428236E+02 -0.52290037521E+02  0.87058381991E+02  0.41800000000E+01 0.  1.
         -5    1    3    3    0  502  0.38026600499E+02 -0.23375907256E+02  0.17303555628E+02  0.48055601369E+02  0.41800000000E+01 0.  1.
        -11    1    1    2    0    0  0.39215286337E+02 -0.30062914315E+02  0.14387911623E+02  0.51464837516E+02  0.00000000000E+00 0. -1.
         11    1    1    2    0    0 -0.42893179452E+02 -0.69566066644E+01 -0.84904846974E+01  0.44275360531E+02  0.00000000000E+00 0.  1.
</event>
<event>
 7    1  0.2666594E-009  0.5529964E+02  0.7561462E-02  0.1418687E+00
          1   -1    0    0  501    0  0.00000000000E+00  0.00000000000E+00  0.29933366064E+03  0.29933366064E+03  0.00000000000E+00 0. -1.
         -1   -1    0    0    0  501 -0.00000000000E+00 -0.00000000000E+00 -0.50075453735E+02  0.50075453735E+02  0.00000000000E+00 0.  1.
         25    2    1    2    0    0  0.20455563738E+01 -0.28398613097E+02  0.70277266505E+02  0.14627735655E+03  0.12508998891E+03 0.  0.
          5    1    3    3  502    0 -0.14817216174E+02 -0.24286868509E+02 -0.31671028724E+02  0.42777661665E+02  0.41800000000E+01 0.  1.
         -5    1    3    3    0  502  0.16862772548E+02 -0.41117445880E+01  0.10194829523E+03  0.10349969489E+03  0.41800000000E+01 0.  1.
        -11    1    1    2    0    0 -0.19440373402E+02  0.39030590175E+02  0.17740399498E+03  0.18268413320E+03  0.00000000000E+00 0. -1.
         11    1    1    2    0    0  0.17394817028E+02 -0.10631977079E+02  0.15769454212E+01  0.20447624628E+02  0.00000000000E+00 0.  1.
</event>
<event>
 7    1  0.2666594E-009  0.1192421E+03  0.7561462E-02  0.1244353E+00
          2   -1    0    0  501    0  0.00000000000E+00  0.00000000000E+00  0.65164336371E+03  0.65164336371E+03  0.00000000000E+00 0. -1.
         -2   -1    0    0    0  501 -0.00000000000E+00 -0.00000000000E+00 -0.23721797390E+02  0.23721797390E+02  0.00000000000E+00 0.  1.
         25    2    1    2    0    0  0.69034114700E+00 -0.59538775370E+02  0.38142267788E+03  0.40580326252E+03  0.12509071238E+03 0.  0.
          5    1    3    3  502    0 -0.56279065152E+02 -0.13885814347E+01  0.13820159239E+03  0.14928634858E+03  0.41800000000E+01 0. -1.
         -5    1    3    3    0  502  0.56969406299E+02 -0.58150193935E+02  0.24322108549E+03  0.25651691394E+03  0.41800000000E+01 0. -1.
        -11    1    1    2    0    0 -0.27984735346E+02 -0.67882390109E+01  0.30409408543E+02  0.41880278523E+02  0.00000000000E+00 0.  1.
         11    1    1    2    0    0  0.27294394199E+02  0.66327014380E+02  0.21608947990E+03  0.22768162006E+03  0.00000000000E+00 0. -1.
</event>
<event>
 7    1  0.2666594E-009  0.1394068E+03  0.7561462E-02  0.1214129E+00
          1   -1    0    0  501    0  0.00000000000E+00  0.00000000000E+00  0.14834644913E+03  0.14834644913E+03  0.00000000000E+00 0. -1.
         -1   -1    0    0    0  501 -0.00000000000E+00 -0.00000000000E+00 -0.16788894614E+03  0.16788894614E+03  0.00000000000E+00 0.  1.
         25    2    1    2    0    0 -0.10002520210E+03 -0.55407190006E+02 -0.77575423544E+01  0.16965501702E+03  0.12509055751E+03 0.  0.
          5    1    3    3  502    0 -0.90472827097E+02 -0.15675837063E+02  0.45366896799E+02  0.10250215625E+03  0.41800000000E+01 0.  1.
         -5    1    3    3    0  502 -0.95523750071E+01 -0.39731352942E+02 -0.53124439153E+02  0.67152860775E+02  0.41800000000E+01 0.  1.
        -11    1    1    2    0    0  0.59805135858E+02 -0.17709475328E+02 -0.51677624093E+00  0.62374248284E+02  0.00000000000E+00 0. -1.
         11    1    1    2    0    0  0.40220066246E+02  0.73116665333E+02 -0.11268178410E+02  0.84206129961E+02  0.00000000000E+00 0.  1.
</event>
<event>
 7    1  0.2666594E-009  0.1114194E+03  0.7561462E-02  0.1257964E+00
          1   -1    0    0  501    0  0.00000000000E+00  0.00000000000E+00  0.18887591874E+03  0.18887591874E+03  0.00000000000E+00 0. -1.
         -1   -1    0    0    0  501 -0.00000000000E+00 -0.00000000000E+00 -0.82336259896E+02  0.82336259896E+02  0.00000000000E+00 0.  1.
         25    2    1    2    0    0  0.56962609292E+02  0.20135045579E+02  0.82901924976E+02  0.16177217743E+03  0.12508936528E+03 0.  0.
          5    1    3    3  502    0  0.28517900781E+02  0.67291855423E+02  0.15846889734E+02  0.74900339021E+02  0.41800000000E+01 0.  1.
         -5    1    3    3    0  502  0.28444708511E+02 -0.47156809843E+02  0.67055035242E+02  0.86871838407E+02  0.41800000000E+01 0.  1.
        -11    1    1    2    0    0  0.16955990055E+02  0.24041298782E+01  0.27129474902E+02  0.32082609739E+02  0.00000000000E+00 0. -1.
         11    1    1    2    0    0 -0.73918599347E+02 -0.22539175458E+02 -0.34917410325E+01  0.77357391470E+02  0.00000000000E+00 0.  1.
</event>
<event>
 7    1  0.2666594E-009  0.1248390E+03  0.7561462E-02  0.1235321E+00
          2   -1    0    0  501    0  0.00000000000E+00  0.00000000000E+00  0.18455908895E+03  0.18455908895E+03  0.00000000000E+00 0. -1.
         -2   -1    0    0    0  501 -0.00000000000E+00 -0.00000000000E+00 -0.11121988935E+03  0.11121988935E+03  0.00000000000E+00 0.  1.
         25    2    1    2    0    0 -0.73045171590E+02  0.30886028453E+02 -0.39778931779E+01  0.14816495464E+03  0.12508991287E+03 0.  0.
          5    1    3    3  502    0 -0.37436582059E+02  0.64698905979E+02  0.37516649278E+02  0.83740178434E+02  0.41800000000E+01 0.  1.
         -5    1    3    3    0  502 -0.35608589531E+02 -0.33812877526E+02 -0.41494542456E+02  0.64424776201E+02  0.41800000000E+01 0.  1.
        -11    1    1    2    0    0  0.81502469605E+02  0.11498412139E+02  0.54766202478E+02  0.98864568816E+02  0.00000000000E+00 0.  1.
         11    1    1    2    0    0 -0.84572980146E+01 -0.42384440592E+02  0.22550890300E+02  0.48749454842E+02  0.00000000000E+00 0. -1.
</event>
<event>
 7    1  0.2666594E-009  0.1685292E+03  0.7561462E-02  0.1179390E+00
          1   -1    0    0  501    0  0.00000000000E+00  0.00000000000E+00  0.26407087125E+03  0.26407087125E+03  0.00000000000E+00 0. -1.
         -1   -1    0    0    0  501 -0.00000000000E+00 -0.00000000000E+00 -0.15060800941E+03  0.15060800941E+03  0.00000000000E+00 0.  1.
         25    2    1    2    0    0 -0.28117803167E+02  0.14456657535E+03 -0.22210509360E+02  0.19450258080E+03  0.12509133323E+03 0.  0.
          5    1    3    3  502    0 -0.66067696157E+02  0.12932326923E+03  0.47169752475E+01  0.14535876545E+03  0.41800000000E+01 0. -1.
         -5    1    3    3    0  502  0.37949892990E+02  0.15243306124E+02 -0.26927484607E+02  0.49143815346E+02  0.41800000000E+01 0. -1.
        -11    1    1    2    0    0  0.34668387793E+02 -0.10538753033E+03  0.14173633082E+03  0.17999337803E+03  0.00000000000E+00 0. -1.
         11    1    1    2    0    0 -0.65505846261E+01 -0.39179045018E+02 -0.60629596106E+01  0.40182921829E+02  0.00000000000E+00 0.  1.
</event>
<event>
 7    1  0.2666594E-009  0.9216314E+02  0.7561462E-02  0.1297696E+00
          1   -1    0    0  501    0  0.00000000000E+00  0.00000000000E+00  0.50883377635E+03  0.50883377635E+03  0.00000000000E+00 0. -1.
         -1   -1    0    0    0  501 -0.00000000000E+00 -0.00000000000E+00 -0.59640533705E+02  0.59640533705E+02  0.00000000000E+00 0.  1.
         25    2    1    2    0    0 -0.23053251021E+02 -0.44591674993E+01  0.45729967565E+03  0.47468069700E+03  0.12508970461E+03 0.  0.
          5    1    3    3  502    0 -0.69660548420E+02  0.10452730213E+02  0.34450391875E+03  0.35165647159E+03  0.41800000000E+01 0.  1.
         -5    1    3    3    0  502  0.46607297399E+02 -0.14911897712E+02  0.11279575690E+03  0.12302422541E+03  0.41800000000E+01 0.  1.
        -11    1    1    2    0    0 -0.12954972187E+02  0.21274107512E+02 -0.37039830769E+02  0.44635949841E+02  0.00000000000E+00 0.  1.
         11    1    1    2    0    0  0.36008223209E+02 -0.16814940013E+02  0.28933397767E+02  0.49157663214E+02  0.00000000000E+00 0. -1.
</event>
<event>
 7    1  0.2666594E-009  0.1186754E+03  0.7561462E-02  0.1245298E+00
         -1   -1    0    0    0  501 -0.00000000000E+00  0.00000000000E+00  0.97269034843E+02  0.97269034843E+02  0.00000000000E+00 0.  1.
          1   -1    0    0  501    0  0.00000000000E+00 -0.00000000000E+00 -0.26180679959E+03  0.26180679959E+03  0.00000000000E+00 0. -1.
         25    2    1    2    0    0 -0.24883609789E+02 -0.11211128215E+03 -0.11454922360E+03  0.20483104117E+03  0.12508436024E+03 0.  0.
          5    1    3    3  502    0 -0.26861786297E+01 -0.59873084350E+02  0.16206490579E+02  0.62226397310E+02  0.41800000000E+01 0. -1.
         -5    1    3    3    0  502 -0.22197431159E+02 -0.52238197804E+02 -0.13075571418E+03  0.14260464386E+03  0.41800000000E+01 0. -1.
        -11    1    1    2    0    0  0.22312306509E+02  0.26215320089E+02 -0.58513054393E+02  0.67888581982E+02  0.00000000000E+00 0. -1.
         11    1    1    2    0    0  0.25713032792E+01  0.85895962065E+02  0.85245132527E+01  0.86356211275E+02  0.00000000000E+00 0.  1.
</event>
<event>
 7    1  0.2666594E-009  0.1010981E+03  0.7561462E-02  0.1278004E+00
         -3   -1    0    0    0  501 -0.00000000000E+00  0.00000000000E+00  0.87294095130E+02  0.87294095130E+02  0.00000000000E+00 0.  1.
          3   -1    0    0  501    0  0.00000000000E+00 -0.00000000000E+00 -0.16599942370E+03  0.16599942370E+03  0.00000000000E+00 0. -1.
         25    2    1    2    0    0 -0.46350424562E+02 -0.11372930418E+02 -0.18848723609E+02  0.13520400835E+03  0.12508854500E+03 0.  0.
          5    1    3    3  502    0  0.16904348246E+02  0.42442257151E+02 -0.24218770172E+02  0.51876038884E+02  0.41800000000E+01 0.  1.
         -5    1    3    3    0  502 -0.63254772808E+02 -0.53815187569E+02  0.53700465636E+01  0.83327969471E+02  0.41800000000E+01 0.  1.
        -11    1    1    2    0    0  0.39443223660E+02 -0.17736868065E+02 -0.73443411142E+02  0.85230857215E+02  0.00000000000E+00 0. -1.
         11    1    1    2    0    0  0.69072009026E+01  0.29109798483E+02  0.13586806179E+02  0.32858653262E+02  0.00000000000E+00 0.  1.
</event>
<event>
 7    1  0.2666594E-009  0.8872468E+02  0.7561462E-02  0.1305970E+00
          1   -1    0    0  501    0  0.00000000000E+00  0.00000000000E+00  0.36780603067E+03  0.36780603067E+03  0.00000000000E+00 0. -1.
         -1   -1    0    0    0  501 -0.00000000000E+00 -0.00000000000E+00 -0.45479131443E+02  0.45479131443E+02  0.00000000000E+00 0.  1.
         25    2    1    2    0    0 -0.19955312597E+02  0.64459620745E+02  0.21111544571E+03  0.25450147717E+03  0.12509201917E+03 0.  0.
          5    1    3    3  502    0 -0.88523573014E+01  0.82576983646E+02  0.21672521407E+03  0.23213059530E+03  0.41800000000E+01 0.  1.
         -5    1    3    3    0  502 -0.11102955295E+02 -0.18117362901E+02 -0.56097683649E+01  0.22370881875E+02  0.41800000000E+01 0.  1.
        -11    1    1    2    0    0 -0.54332297136E+01 -0.25948255676E+02 -0.10584338178E+02  0.28545755768E+02  0.00000000000E+00 0.  1.
         11    1    1    2    0    0  0.25388542310E+02 -0.38511365070E+02  0.12179579169E+03  0.13023792917E+03  0.00000000000E+00 0. -1.
</event>
<event>
 7    1  0.2666594E-009  0.1429572E+03  0.7561462E-02  0.1209404E+00
          2   -1    0    0  501    0  0.00000000000E+00  0.00000000000E+00  0.32144099363E+03  0.32144099363E+03  0.00000000000E+00 0.  1.
         -2   -1    0    0    0  501 -0.00000000000E+00 -0.00000000000E+00 -0.78187403581E+02  0.78187403581E+02  0.00000000000E+00 0. -1.
         25    2    1    2    0    0 -0.91108588397E+01 -0.11358003036E+03  0.15182441344E+03  0.22733353435E+03  0.12508577967E+03 0.  0.
          5    1    3    3  502    0  0.38671383988E+02 -0.97570225235E+02  0.56114759145E+02  0.11908720916E+03  0.41800000000E+01 0. -1.
         -5    1    3    3    0  502 -0.47782242828E+02 -0.16009805124E+02  0.95709654300E+02  0.10824632518E+03  0.41800000000E+01 0. -1.
        -11    1    1    2    0    0  0.35392642029E+02  0.81403893598E+02  0.95702041220E+02  0.13053012563E+03  0.00000000000E+00 0.  1.
         11    1    1    2    0    0 -0.26281783189E+02  0.32176136761E+02 -0.42728646156E+01  0.41764737237E+02  0.00000000000E+00 0. -1.
</event>
<event>
 7    1  0.2666594E-009  0.1240881E+03  0.7561462E-02  0.1236501E+00
          2   -1    0    0  501    0  0.00000000000E+00  0.00000000000E+00  0.52701198961E+03  0.52701198961E+03  0.00000000000E+00 0. -1.
         -2   -1    0    0    0  501 -0.00000000000E+00 -0.00000000000E+00 -0.64027014511E+02  0.64027014511E+02  0.00000000000E+00 0.  1.
         25    2    1    2    0    0  0.78933294139E+02  0.52212123255E+02  0.41555791447E+03  0.44417632497E+03  0.12509059378E+03 0.  0.
          5    1    3    3  502    0  0.77539941222E+02  0.74883303909E+02  0.19872870120E+03  0.22612058900E+03  0.41800000000E+01 0. -1.
         -5    1    3    3    0  502  0.13933529169E+01 -0.22671180654E+02  0.21682921327E+03  0.21805573598E+03  0.41800000000E+01 0. -1.
        -11    1    1    2    0    0 -0.64866497053E+02 -0.69399150057E+02  0.67812964991E+02  0.11671547751E+03  0.00000000000E+00 0. -1.
         11    1    1    2    0    0 -0.14066797086E+02  0.17187026802E+02 -0.20385904357E+02  0.30147201645E+02  0.00000000000E+00 0.  1.
</event>
<event>
 7    1  0.2703805E-009  0.1955046E+03  0.7561462E-02  0.1153588E+00
          1   -1    0    0  501    0  0.00000000000E+00  0.00000000000E+00  0.38721713026E+03  0.38721713026E+03  0.00000000000E+00 0. -1.
         -1   -1    0    0    0  501 -0.00000000000E+00 -0.00000000000E+00 -0.16487528231E+03  0.16487528231E+03  0.00000000000E+00 0.  1.
         25    2    1    2    0    0 -0.35551950788E+01 -0.19044260118E+03  0.25108533913E+03  0.33907401847E+03  0.12508524581E+03 0.  0.
          5    1    3    3  502    0 -0.30064405786E+02 -0.99050941936E+02  0.21230309738E+03  0.23623089373E+03  0.41800000000E+01 0. -1.
         -5    1    3    3    0  502  0.26509210708E+02 -0.91391659247E+02  0.38782241754E+02  0.10284312475E+03  0.41800000000E+01 0. -1.
        -11    1    1    2    0    0  0.14599404086E+02  0.10887528245E+03 -0.59764808782E+02  0.12505519621E+03  0.00000000000E+00 0.  1.
         11    1    1    2    0    0 -0.11044209007E+02  0.81567318729E+02  0.31021317596E+02  0.87963197887E+02  0.00000000000E+00 0. -1.
</event>
<event>
 7    1  0.2666594E-009  0.1098064E+03  0.7561462E-02  0.1260929E+00
          3   -1    0    0  501    0  0.00000000000E+00  0.00000000000E+00  0.41467207573E+02  0.41467207573E+02  0.00000000000E+00 0. -1.
         -3   -1    0    0    0  501 -0.00000000000E+00 -0.00000000000E+00 -0.33808595409E+03  0.33808595409E+03  0.00000000000E+00 0.  1.
         25    2    1    2    0    0  0.29864266669E+02 -0.67541168882E+01 -0.10318054627E+03  0.16501050357E+03  0.12507896962E+03 0.  0.
          5    1    3    3  502    0 -0.48469450442E+02 -0.14386969687E+01 -0.51843087669E+02  0.71109321570E+02  0.41800000000E+01 0.  1.
         -5    1    3    3    0  502  0.78333717111E+02 -0.53154199195E+01 -0.51337458599E+02  0.93901181998E+02  0.41800000000E+01 0.  1.
        -11    1    1    2    0    0 -0.51220046178E+02  0.31107496778E+02 -0.11493061963E+03  0.12961565034E+03  0.00000000000E+00 0. -1.
         11    1    1    2    0    0  0.21355779509E+02 -0.24353379890E+02 -0.78507580621E+02  0.84927007751E+02  0.00000000000E+00 0.  1.
</event>
<event>
 7    1  0.2666594E-009  0.1698164E+03  0.7561462E-02  0.1178039E+00
         -1   -1    0    0    0  501 -0.00000000000E+00  0.00000000000E+00  0.22072992244E+02  0.22072992244E+02  0.00000000000E+00 0.  1.
          1   -1    0    0  501    0  0.00000000000E+00 -0.00000000000E+00 -0.13700518592E+04  0.13700518592E+04  0.00000000000E+00 0. -1.
         25    2    1    2    0    0 -0.12760689461E+03 -0.29269604196E+02 -0.84606917274E+03  0.86522866529E+03  0.12508944361E+03 0.  0.
          5    1    3    3  502    0 -0.14643818551E+03 -0.58611650066E+00 -0.68774492053E+03  0.70317496672E+03  0.41800000000E+01 0.  1.
         -5    1    3    3    0  502  0.18831290897E+02 -0.28683487695E+02 -0.15832425221E+03  0.16205369857E+03  0.41800000000E+01 0.  1.
        -11    1    1    2    0    0  0.91100384298E+02 -0.23796259263E+02 -0.33529982566E+03  0.34826931399E+03  0.00000000000E+00 0. -1.
         11    1    1    2    0    0  0.36506510317E+02  0.53065863459E+02 -0.16660986856E+03  0.17862687217E+03  0.00000000000E+00 0.  1.
</event>
<event>
 7    1  0.2666594E-009  0.1307390E+03  0.7561462E-02  0.1226363E+00
          1   -1    0    0  501    0  0.00000000000E+00  0.00000000000E+00  0.15439153442E+03  0.15439153442E+03  0.00000000000E+00 0. -1.
         -1   -1    0    0    0  501 -0.00000000000E+00 -0.00000000000E+00 -0.16555374840E+03  0.16555374840E+03  0.00000000000E+00 0.  1.
         25    2    1    2    0    0 -0.74446303379E+01 -0.10916657343E+03 -0.49063731195E+02  0.17328781126E+03  0.12509457437E+03 0.  0.
          5    1    3    3  502    0  0.30554604726E+02 -0.14136513082E+02  0.28896579321E+02  0.44563545287E+02  0.41800000000E+01 0. -1.
         -5    1    3    3    0  502 -0.37999235064E+02 -0.95030060348E+02 -0.77960310516E+02  0.12872426598E+03  0.41800000000E+01 0. -1.
        -11    1    1    2    0    0  0.28849813491E+02  0.95412911688E+02  0.57016703944E+02  0.11483396703E+03  0.00000000000E+00 0. -1.
         11    1    1    2    0    0 -0.21405183154E+02  0.13753661741E+02 -0.19115186724E+02  0.31823504531E+02  0.00000000000E+00 0.  1.
</event>
<event>
 7    1  0.2666594E-009  0.1870121E+03  0.7561462E-02  0.1161184E+00
         -3   -1    0    0    0  501 -0.00000000000E+00  0.00000000000E+00  0.26121141418E+03  0.26121141418E+03  0.00000000000E+00 0.  1.
          3   -1    0    0  501    0  0.00000000000E+00 -0.00000000000E+00 -0.14613381375E+03  0.14613381375E+03  0.00000000000E+00 0. -1.
         25    2    1    2    0    0  0.93929748795E+02  0.12601802746E+03  0.10255315202E+03  0.22553649727E+03  0.12508485783E+03 0.  0.
          5    1    3    3  502    0 -0.41023138004E+01 -0.20358907350E+02 -0.87936268163E+00  0.21202824475E+02  0.41800000000E+01 0.  1.
         -5    1    3    3    0  502  0.98032062595E+02  0.14637693481E+03  0.10343251470E+03  0.20433367279E+03  0.41800000000E+01 0.  1.
        -11    1    1    2    0    0 -0.11570932259E+02 -0.82807884065E+02  0.26604797532E+02  0.87743076014E+02  0.00000000000E+00 0.  1.
         11    1    1    2    0    0 -0.82358816536E+02 -0.43210143392E+02 -0.14080349113E+02  0.94065654647E+02  0.00000000000E+00 0. -1.
</event>
<event>
 7    1  0.2666594E-009  0.1062073E+03  0.7561462E-02  0.1267759E+00
         -3   -1    0    0    0  501 -0.00000000000E+00  0.00000000000E+00  0.68384759408E+02  0.68384759408E+02  0.00000000000E+00 0.  1.
          3   -1    0    0  501    0  0.00000000000E+00 -0.00000000000E+00 -0.22050513220E+03  0.22050513220E+03  0.00000000000E+00 0. -1.
         25    2    1    2    0    0  0.12189959322E+01 -0.32523545733E+02 -0.29251459097E+02  0.13252545850E+03  0.12509229518E+03 0.  0.
          5    1    3    3  502    0  0.55875776948E+02 -0.19860058964E+02 -0.44473895614E+02  0.74242334168E+02  0.41800000000E+01 0.  1.
         -5    1    3    3    0  502 -0.54656781015E+02 -0.12663486769E+02  0.15222436517E+02  0.58283124330E+02  0.41800000000E+01 0.  1.
        -11    1    1    2    0    0  0.38391972501E+02  0.41032427339E+02 -0.70680452132E+02  0.90295791482E+02  0.00000000000E+00 0.  1.
         11    1    1    2    0    0 -0.39610968433E+02 -0.85088816056E+01 -0.52188461565E+02  0.66068641630E+02  0.00000000000E+00 0. -1.
</event>
<event>
 7    1  0.2666594E-009  0.1130638E+03  0.7561462E-02  0.1254999E+00
          2   -1    0    0  501    0  0.00000000000E+00  0.00000000000E+00  0.13416755248E+03  0.13416755248E+03  0.00000000000E+00 0. -1.
         -2   -1    0    0    0  501 -0.00000000000E+00 -0.00000000000E+00 -0.12516823939E+03  0.12516823939E+03  0.00000000000E+00 0.  1.
         25    2    1    2    0    0  0.51296214504E+02  0.38963115309E+02  0.33491976346E+02  0.14463198250E+03  0.12508905590E+03 0.  0.
          5    1    3    3  502    0 -0.38716249810E+02  0.26166771089E+02  0.25163066409E+02  0.53238146284E+02  0.41800000000E+01 0.  1.
         -5    1    3    3    0  502  0.90012464315E+02  0.12796344219E+02  0.83289099373E+01  0.91393836215E+02  0.41800000000E+01 0.  1.
        -11    1    1    2    0    0 -0.64551242345E+02 -0.38005194514E+02 -0.47095889648E+02  0.88483221686E+02  0.00000000000E+00 0.  1.
         11    1    1    2    0    0  0.13255027840E+02 -0.95792079454E+00  0.22603226390E+02  0.26220587685E+02  0.00000000000E+00 0. -1.
</event>
<event>
 7    1  0.2898351E-009  0.2194161E+03  0.7561462E-02  0.1134319E+00
         -2   -1    0    0    0  501 -0.00000000000E+00  0.00000000000E+00  0.36775645750E+02  0.36775645750E+02  0.00000000000E+00 0.  1.
          2   -1    0    0  501    0  0.00000000000E+00 -0.00000000000E+00 -0.19054373900E+04  0.19054373900E+04  0.00000000000E+00 0. -1.
         25    2    1    2    0    0  0.10479212988E+01  0.21262515875E+03 -0.13757463634E+04  0.13976891450E+04  0.12508530389E+03 0.  0.
          5    1    3    3  502    0  0.76243365671E+01  0.13313598068E+03 -0.47420300341E+03  0.49261473862E+03  0.41800000000E+01 0.  1.
         -5    1    3    3    0  502 -0.65764152683E+01  0.79489178061E+02 -0.90154335999E+03  0.90507440634E+03  0.41800000000E+01 0.  1.
        -11    1    1    2    0    0  0.34184212963E+02 -0.14841912667E+03 -0.38570078510E+03  0.41468288270E+03  0.00000000000E+00 0. -1.
         11    1    1    2    0    0 -0.35232134262E+02 -0.64206032078E+02 -0.10721459573E+03  0.12984100807E+03  0.00000000000E+00 0.  1.
</event>
<event>
 7    1  0.2666594E-009  0.8538353E+02  0.7561462E-02  0.1314433E+00
         -2   -1    0    0    0  501 -0.00000000000E+00  0.00000000000E+00  0.11750347116E+02  0.11750347116E+02  0.00000000000E+00 0.  1.
          2   -1    0    0  501    0  0.00000000000E+00 -0.00000000000E+00 -0.14696984937E+04  0.14696984937E+04  0.00000000000E+00 0. -1.
         25    2    1    2    0    0  0.39843700842E+02 -0.31695744955E+02 -0.10969398615E+04  0.11052243530E+04  0.12510663408E+03 0.  0.
          5    1    3    3  502    0  0.24303033782E+02 -0.53902747040E+02 -0.21970113461E+03  0.22755703579E+03  0.41800000000E+01 0. -1.
         -5    1    3    3    0  502  0.15540667059E+02  0.22207002085E+02 -0.87723872690E+03  0.87766731718E+03  0.41800000000E+01 0. -1.
        -11    1    1    2    0    0 -0.55288507683E+02  0.81196293151E+01 -0.32841381164E+03  0.33313417588E+03  0.00000000000E+00 0. -1.
         11    1    1    2    0    0  0.15444806841E+02  0.23576115640E+02 -0.32594473442E+02  0.43090311974E+02  0.00000000000E+00 0.  1.
</event>
<event>
 7    1  0.3490658E-009  0.1042285E+03  0.7561462E-02  0.1271647E+00
         -2   -1    0    0    0  501 -0.00000000000E+00  0.00000000000E+00  0.15368173763E+03  0.15368173763E+03  0.00000000000E+00 0.  1.
          2   -1    0    0  501    0  0.00000000000E+00 -0.00000000000E+00 -0.99486909937E+02  0.99486909937E+02  0.00000000000E+00 0. -1.
         25    2    1    2    0    0 -0.47928463470E+02  0.16351027440E+02 -0.14003405244E+01  0.13496106908E+03  0.12509210809E+03 0.  0.
          5    1    3    3  502    0  0.25698043633E+02 -0.31712661625E+02 -0.18962372270E+02  0.45200954813E+02  0.41800000000E+01 0. -1.
         -5    1    3    3    0  502 -0.73626507103E+02  0.48063689065E+02  0.17562031745E+02  0.89760114270E+02  0.41800000000E+01 0. -1.
        -11    1    1    2    0    0 -0.13401965874E+02 -0.11876565834E+02  0.53784825646E+02  0.56687502812E+02  0.00000000000E+00 0.  1.
         11    1    1    2    0    0  0.61330429344E+02 -0.44744616060E+01  0.18103425697E+01  0.61520075670E+02  0.00000000000E+00 0. -1.
</event>
<event>
 7    1  0.2666594E-009  0.1577746E+03  0.7561462E-02  0.1191232E+00
         -3   -1    0    0    0  501 -0.00000000000E+00  0.00000000000E+00  0.10087988259E+04  0.10087988259E+04  0.00000000000E+00 0. -1.
          3   -1    0    0  501    0  0.00000000000E+00 -0.00000000000E+00 -0.45015231157E+02  0.45015231157E+02  0.00000000000E+00 0.  1.
         25    2    1    2    0    0  0.93310951996E+02  0.76185945310E+02  0.84335098398E+03  0.86104552891E+03  0.12508912278E+03 0.  0.
          5    1    3    3  502    0  0.55699564502E+02 -0.22683391852E+02  0.19493496153E+03  0.20404433190E+03  0.41800000000E+01 0. -1.
         -5    1    3    3    0  502  0.37611387494E+02  0.98869337162E+02  0.64841602245E+03  0.65700119701E+03  0.41800000000E+01 0. -1.
        -11    1    1    2    0    0 -0.47098800770E+02  0.13078912913E+02  0.28690736921E+02  0.56679038295E+02  0.00000000000E+00 0.  1.
         11    1    1    2    0    0 -0.46212151226E+02 -0.89264858223E+02  0.91741873845E+02  0.13608948986E+03  0.00000000000E+00 0. -1.
</event>
<event>
 7    1  0.2666594E-009  0.1000055E+03  0.7561462E-02  0.1280284E+00
          2   -1    0    0  501    0  0.00000000000E+00  0.00000000000E+00  0.13269165747E+04  0.13269165747E+04  0.00000000000E+00 0. -1.
         -2   -1    0    0    0  501 -0.00000000000E+00 -0.00000000000E+00 -0.13683012623E+02  0.13683012623E+02  0.00000000000E+00 0.  1.
         25    2    1    2    0    0  0.32240209822E+02 -0.30682272040E+02  0.10459922157E+04  0.10543848623E+04  0.12508752759E+03 0.  0.
          5    1    3    3  502    0  0.68117867631E+02  0.42525024542E+00  0.33981351840E+03  0.34659908312E+03  0.41800000000E+01 0. -1.
         -5    1    3    3    0  502 -0.35877657809E+02 -0.31107522285E+02  0.70617869733E+03  0.70778577920E+03  0.41800000000E+01 0. -1.
        -11    1    1    2    0    0 -0.52406006439E+02  0.35579421007E+02  0.25357560450E+03  0.26136731224E+03  0.00000000000E+00 0. -1.
         11    1    1    2    0    0  0.20165796617E+02 -0.48971489672E+01  0.13665741850E+02  0.24847412773E+02  0.00000000000E+00 0.  1.
</event>
<event>
 7    1  0.2666594E-009  0.2431625E+03  0.7561462E-02  0.1117704E+00
         -1   -1    0    0    0  501 -0.00000000000E+00  0.00000000000E+00  0.67699176255E+03  0.67699176255E+03  0.00000000000E+00 0.  1.
          1   -1    0    0  501    0  0.00000000000E+00 -0.00000000000E+00 -0.23101745305E+03  0.23101745305E+03  0.00000000000E+00 0. -1.
         25    2    1    2    0    0 -0.14763799362E+03 -0.17652332820E+03 -0.12180793079E+03  0.28886389380E+03  0.12509082533E+03 0.  0.
          5    1    3    3  502    0  0.10248298027E+02  0.40872501638E+01  0.96858274384E+01  0.15265021438E+02  0.41800000000E+01 0.  1.
         -5    1    3    3    0  502 -0.15788629165E+03 -0.18061057836E+03 -0.13149375823E+03  0.27359887237E+03  0.41800000000E+01 0.  1.
        -11    1    1    2    0    0  0.67647183471E+02  0.47024834889E+02  0.11501626536E+03  0.14147868329E+03  0.00000000000E+00 0. -1.
         11    1    1    2    0    0  0.79990810152E+02  0.12949849331E+03  0.45276597493E+03  0.47766663850E+03  0.00000000000E+00 0.  1.
</event>
<event>
 7    1  0.2666594E-009  0.1930573E+03  0.7561462E-02  0.1155732E+00
         -2   -1    0    0    0  501 -0.00000000000E+00  0.00000000000E+00  0.86912065489E+02  0.86912065489E+02  0.00000000000E+00 0.  1.
          2   -1    0    0  501    0  0.00000000000E+00 -0.00000000000E+00 -0.45588170496E+03  0.45588170496E+03  0.00000000000E+00 0. -1.
         25    2    1    2    0    0  0.66301239969E+02  0.15099367146E+03 -0.21325818417E+03  0.29718723087E+03  0.12508498645E+03 0.  0.
          5    1    3    3  502    0  0.10322958619E+03  0.99352185974E+02 -0.14564529075E+03  0.20434585251E+03  0.41800000000E+01 0.  1.
         -5    1    3    3    0  502 -0.36928346222E+02  0.51641485482E+02 -0.67612893427E+02  0.92841378356E+02  0.41800000000E+01 0.  1.
        -11    1    1    2    0    0 -0.18068905552E+02 -0.12103693755E+03 -0.64942552475E+02  0.13854227052E+03  0.00000000000E+00 0.  1.
         11    1    1    2    0    0 -0.48232334416E+02 -0.29956733908E+02 -0.90768902824E+02  0.10706426906E+03  0.00000000000E+00 0. -1.
</event>
<event>
 7    1  0.2666594E-009  0.8460535E+02  0.7561462E-02  0.1316468E+00
          3   -1    0    0  501    0  0.00000000000E+00  0.00000000000E+00  0.11064406038E+03  0.11064406038E+03  0.00000000000E+00 0. -1.
         -3   -1    0    0    0  501 -0.00000000000E+00 -0.00000000000E+00 -0.15411340102E+03  0.15411340102E+03  0.00000000000E+00 0.  1.
         25    2    1    2    0    0 -0.88923752771E+01 -0.61185138467E+02  0.17728662712E+02  0.14065644933E+03  0.12508891138E+03 0.  0.
          5    1    3    3  502    0  0.15980981425E+02 -0.75132852121E+02 -0.31889199528E+02  0.83275030361E+02  0.41800000000E+01 0. -1.
         -5    1    3    3    0  502 -0.24873356702E+02  0.13947713654E+02  0.49617862240E+02  0.57381418971E+02  0.41800000000E+01 0. -1.
        -11    1    1    2    0    0 -0.17216286438E+01  0.37118154314E+02  0.17536972409E+02  0.41088523777E+02  0.00000000000E+00 0. -1.
         11    1    1    2    0    0  0.10614003921E+02  0.24066984153E+02 -0.78734975757E+02  0.83012488295E+02  0.00000000000E+00 0.  1.
</event>
<event>
 7    1  0.2666594E-009  0.1663863E+03  0.7561462E-02  0.1181670E+00
         -2   -1    0    0    0  501 -0.00000000000E+00  0.00000000000E+00  0.52626659936E+03  0.52626659936E+03  0.00000000000E+00 0.  1.
          2   -1    0    0  501    0  0.00000000000E+00 -0.00000000000E+00 -0.72933610031E+02  0.72933610031E+02  0.00000000000E+00 0. -1.
         25    2    1    2    0    0 -0.11665417178E+03 -0.97545971745E+02  0.31635993982E+03  0.37263111589E+03  0.12508766770E+03 0.  0.
          5    1    3    3  502    0 -0.10386618093E+03 -0.81511790518E+02  0.13081604432E+03  0.18591036923E+03  0.41800000000E+01 0.  1.
         -5    1    3    3    0  502 -0.12787990843E+02 -0.16034181227E+02  0.18554389550E+03  0.18672074666E+03  0.41800000000E+01 0.  1.
        -11    1    1    2    0    0  0.60824493129E+02  0.10703836184E+03  0.84129997255E+02  0.14911299846E+03  0.00000000000E+00 0.  1.
         11    1    1    2    0    0  0.55829678647E+02 -0.94923900984E+01  0.52843052254E+02  0.77456095042E+02  0.00000000000E+00 0. -1.
</event>
<event>
 7    1  0.2666594E-009  0.1558454E+03  0.7561462E-02  0.1193469E+00
          1   -1    0    0  501    0  0.00000000000E+00  0.00000000000E+00  0.55297472246E+03  0.55297472246E+03  0.00000000000E+00 0. -1.
         -1   -1    0    0    0  501 -0.00000000000E+00 -0.00000000000E+00 -0.47854293829E+02  0.47854293829E+02  0.00000000000E+00 0.  1.
         25    2    1    2    0    0  0.80464996274E+02 -0.29568526420E+02  0.18096501794E+03  0.23610224568E+03  0.12508804626E+03 0.  0.
          5    1    3    3  502    0  0.86334712779E+02  0.26809111124E+02  0.82749592324E+02  0.12262698928E+03  0.41800000000E+01 0.  1.
         -5    1    3    3    0  502 -0.58697165052E+01 -0.56377637543E+02  0.98215425614E+02  0.11347525640E+03  0.41800000000E+01 0.  1.
        -11    1    1    2    0    0 -0.23149119706E+02  0.82896890746E+02  0.20282677162E+03  0.22033264743E+03  0.00000000000E+00 0. -1.
         11    1    1    2    0    0 -0.57315876567E+02 -0.53328364327E+02  0.12132863907E+03  0.14439412317E+03  0.00000000000E+00 0.  1.
</event>
<event>
 7    1  0.2666594E-009  0.1232871E+03  0.7561462E-02  0.1237771E+00
          1   -1    0    0  501    0  0.00000000000E+00  0.00000000000E+00  0.63539592793E+03  0.63539592793E+03  0.00000000000E+00 0. -1.
         -1   -1    0    0    0  501 -0.00000000000E+00 -0.00000000000E+00 -0.24846005896E+02  0.24846005896E+02  0.00000000000E+00 0.  1.
         25    2    1    2    0    0  0.43688430838E+02  0.43175087046E+02  0.38783100263E+03  0.41210862639E+03  0.12509143141E+03 0.  0.
          5    1    3    3  502    0 -0.16329840641E+02 -0.35111628093E+02  0.14049813761E+03  0.14579673932E+03  0.41800000000E+01 0. -1.
         -5    1    3    3    0  502  0.60018271479E+02  0.78286715140E+02  0.24733286502E+03  0.26631188707E+03  0.41800000000E+01 0. -1.
        -11    1    1    2    0    0  0.89348511988E+01  0.22806924733E+02  0.40747545973E+02  0.47543137091E+02  0.00000000000E+00 0. -1.
         11    1    1    2    0    0 -0.52623282037E+02 -0.65982011779E+02  0.18197137343E+03  0.20059017035E+03  0.00000000000E+00 0.  1.
</event>
<event>
 7    1  0.2666594E-009  0.1642527E+03  0.7561462E-02  0.1183977E+00
         -2   -1    0    0    0  501 -0.00000000000E+00  0.00000000000E+00  0.75318268703E+03  0.75318268703E+03  0.00000000000E+00 0. -1.
          2   -1    0    0  501    0  0.00000000000E+00 -0.00000000000E+00 -0.49861998808E+02  0.49861998808E+02  0.00000000000E+00 0.  1.
         25    2    1    2    0    0  0.57292740551E+02  0.12602134594E+03  0.20246532821E+03  0.27532470143E+03  0.12509054456E+03 0.  0.
          5    1    3    3  502    0 -0.33432383974E+02  0.33098288581E+01  0.34134395976E+02  0.48076071531E+02  0.41800000000E+01 0.  1.
         -5    1    3    3    0  502  0.90725124525E+02  0.12271151708E+03  0.16833093223E+03  0.22724862990E+03  0.41800000000E+01 0.  1.
        -11    1    1    2    0    0 -0.39495875924E+02 -0.49005910503E+02  0.93136759470E+02  0.11240978358E+03  0.00000000000E+00 0.  1.
         11    1    1    2    0    0 -0.17796864628E+02 -0.77015435435E+02  0.40771860054E+03  0.41531020083E+03  0.00000000000E+00 0. -1.
</event>
<event>
 7    1  0.2666594E-009  0.1233027E+03  0.7561462E-02  0.1237746E+00
          1   -1    0    0  501    0  0.00000000000E+00  0.00000000000E+00  0.77455860590E+03  0.77455860590E+03  0.00000000000E+00 0. -1.
         -1   -1    0    0    0  501 -0.00000000000E+00 -0.00000000000E+00 -0.20511819602E+02  0.20511819602E+02  0.00000000000E+00 0.  1.
         25    2    1    2    0    0  0.36037701012E+02  0.56965218154E+02  0.47264019072E+03  0.49353822260E+03  0.12508986895E+03 0.  0.
          5    1    3    3  502    0 -0.14114266391E+01 -0.38232778932E+02  0.10208867265E+03  0.10910227767E+03  0.41800000000E+01 0. -1.
         -5    1    3    3    0  502  0.37449127651E+02  0.95197997086E+02  0.37055151807E+03  0.38443594493E+03  0.41800000000E+01 0. -1.
        -11    1    1    2    0    0  0.45916998589E+01 -0.64286905784E+02  0.20203311358E+03  0.21206430380E+03  0.00000000000E+00 0. -1.
         11    1    1    2    0    0 -0.40629400871E+02  0.73216876299E+01  0.79373482007E+02  0.89467899108E+02  0.00000000000E+00 0.  1.
</event>
<event>
 7    1  0.2666594E-009  0.9587309E+02  0.7561462E-02  0.1289222E+00
          1   -1    0    0  501    0  0.00000000000E+00  0.00000000000E+00  0.22732944722E+03  0.22732944722E+03  0.00000000000E+00 0. -1.
         -1   -1    0    0    0  501 -0.00000000000E+00 -0.00000000000E+00 -0.52724766583E+02  0.52724766583E+02  0.00000000000E+00 0.  1.
         25    2    1    2    0    0 -0.14200553446E+02 -0.83648880855E+01  0.12654629514E+03  0.17869955639E+03  0.12509172462E+03 0.  0.
          5    1    3    3  502    0 -0.63992903826E+02  0.19843421796E+02  0.53679273743E+02  0.85952253945E+02  0.41800000000E+01 0.  1.
         -5    1    3    3    0  502  0.49792350380E+02 -0.28208309882E+02  0.72867021398E+02  0.92747302441E+02  0.41800000000E+01 0.  1.
        -11    1    1    2    0    0  0.32067629106E+01 -0.28545057858E+02  0.55161745642E+02  0.62192618844E+02  0.00000000000E+00 0. -1.
         11    1    1    2    0    0  0.10993790536E+02  0.36909945943E+02 -0.71033601435E+01  0.39162038573E+02  0.00000000000E+00 0.  1.
</event>
<event>
 7    1  0.2666594E-009  0.7931912E+02  0.7561462E-02  0.1330995E+00
          1   -1    0    0  501    0  0.00000000000E+00  0.00000000000E+00  0.12094798528E+03  0.12094798528E+03  0.00000000000E+00 0. -1.
         -1   -1    0    0    0  501 -0.00000000000E+00 -0.00000000000E+00 -0.13796301273E+03  0.13796301273E+03  0.00000000000E+00 0.  1.
         25    2    1    2    0    0  0.15193947707E+02  0.41018429872E+02  0.44191257596E+02  0.13968722078E+03  0.12508511009E+03 0.  0.
          5    1    3    3  502    0  0.13343479804E+02  0.49612223264E+02  0.84083161392E+02  0.98624903448E+02  0.41800000000E+01 0. -1.
         -5    1    3    3    0  502  0.18504679030E+01 -0.85937933923E+01 -0.39891903796E+02  0.41062317333E+02  0.41800000000E+01 0. -1.
        -11    1    1    2    0    0  0.20311326677E+02 -0.55434871882E+02 -0.54446081126E+02  0.80311585478E+02  0.00000000000E+00 0.  1.
         11    1    1    2    0    0 -0.35505274385E+02  0.14416442010E+02 -0.67602039192E+01  0.38912191745E+02  0.00000000000E+00 0. -1.
</event>
<event>
 7    1  0.2666594E-009  0.1227187E+03  0.7561462E-02  0.1238678E+00
          2   -1    0    0  501    0  0.00000000000E+00  0.00000000000E+00  0.29197752161E+03  0.29197752161E+03  0.00000000000E+00 0. -1.
         -2   -1    0    0    0  501 -0.00000000000E+00 -0.00000000000E+00 -0.75862071883E+02  0.75862071883E+02  0.00000000000E+00 0.  1.
         25    2    1    2    0    0  0.78887390970E+02 -0.53304436200E+02  0.16025637373E+03  0.22448618325E+03  0.12508939913E+03 0.  0.
          5    1    3    3  502    0 -0.87683492532E+01  0.13702159799E+02 -0.11461850580E+02  0.20334196579E+02  0.41800000000E+01 0.  1.
         -5    1    3    3    0  502  0.87655740223E+02 -0.67006595998E+02  0.17171822431E+03  0.20415198667E+03  0.41800000000E+01 0.  1.
        -11    1    1    2    0    0 -0.62283115552E+02 -0.12066286479E+00  0.60990743959E+02  0.87172655638E+02  0.00000000000E+00 0. -1.
         11    1    1    2    0    0 -0.16604275418E+02  0.53425099064E+02 -0.51316679605E+01  0.56180754607E+02  0.00000000000E+00 0.  1.
</event>
<event>
 7    1  0.2666594E-009  0.1138461E+03  0.7561462E-02  0.1253609E+00
          2   -1    0    0  501    0  0.00000000000E+00  0.00000000000E+00  0.43548831615E+02  0.43548831615E+02  0.00000000000E+00 0. -1.
         -2   -1    0    0    0  501 -0.00000000000E+00 -0.00000000000E+00 -0.42767030209E+03  0.42767030209E+03  0.00000000000E+00 0.  1.
         25    2    1    2    0    0 -0.69716874416E+02 -0.43223981700E+02 -0.28020766539E+03  0.31763641778E+03  0.12509117870E+03 0.  0.
          5    1    3    3  502    0 -0.80409459511E+02 -0.88044241074E+00 -0.25416818387E+03  0.26661844356E+03  0.41800000000E+01 0. -1.
         -5    1    3    3    0  502  0.10692585095E+02 -0.42343539289E+02 -0.26039481520E+02  0.51017974219E+02  0.41800000000E+01 0. -1.
        -11    1    1    2    0    0  0.24735330575E+02  0.51894022560E+02 -0.87949637980E+02  0.10507123763E+03  0.00000000000E+00 0.  1.
         11    1    1    2    0    0  0.44981543840E+02 -0.86700408597E+01 -0.15964167107E+02  0.48511478293E+02  0.00000000000E+00 0. -1.
</event>
<event>
 7    1  0.2666594E-009  0.1830729E+03  0.7561462E-02  0.1164862E+00
         -2   -1    0    0    0  501 -0.00000000000E+00  0.00000000000E+00  0.27125966960E+02  0.27125966960E+02  0.00000000000E+00 0.  1.
          2   -1    0    0  501    0  0.00000000000E+00 -0.00000000000E+00 -0.13753488094E+04  0.13753488094E+04  0.00000000000E+00 0. -1.
         25    2    1    2    0    0 -0.12799783970E+03  0.94166897777E+02 -0.64103230305E+03  0.67217841882E+03  0.12510220454E+03 0.  0.
          5    1    3    3  502    0 -0.13632471696E+03  0.48358930377E+02 -0.37274539399E+03  0.39984949136E+03  0.41800000000E+01 0. -1.
         -5    1    3    3    0  502  0.83268772581E+01  0.45807967400E+02 -0.26828690905E+03  0.27232892746E+03  0.41800000000E+01 0. -1.
        -11    1    1    2    0    0  0.13654721992E+03 -0.80321568568E+02 -0.68307206365E+03  0.70120192654E+03  0.00000000000E+00 0. -1.
         11    1    1    2    0    0 -0.85493802141E+01 -0.13845329209E+02 -0.24118475769E+02  0.29094431020E+02  0.00000000000E+00 0.  1.
</event>
<event>
 7    1  0.2666594E-009  0.4147021E+03  0.7561462E-02  0.1038805E+00
          1   -1    0    0  501    0  0.00000000000E+00  0.00000000000E+00  0.51282030602E+03  0.51282030602E+03  0.00000000000E+00 0. -1.
         -1   -1    0    0    0  501 -0.00000000000E+00 -0.00000000000E+00 -0.34499026524E+03  0.34499026524E+03  0.00000000000E+00 0.  1.
         25    2    1    2    0    0 -0.25929783882E+03 -0.31213752343E+03  0.10639257740E+03  0.43775465421E+03  0.12507819156E+03 0.  0.
          5    1    3    3  502    0 -0.23839662796E+03 -0.22943453680E+03  0.11854745439E+03  0.35148844966E+03  0.41800000000E+01 0. -1.
         -5    1    3    3    0  502 -0.20901210863E+02 -0.82702986630E+02 -0.12154876990E+02  0.86266204552E+02  0.41800000000E+01 0. -1.
        -11    1    1    2    0    0  0.20205404419E+03  0.18619124008E+03  0.19303654516E+02  0.27543719018E+03  0.00000000000E+00 0.  1.
         11    1    1    2    0    0  0.57243794629E+02  0.12594628335E+03  0.42133808866E+02  0.14461872688E+03  0.00000000000E+00 0. -1.
</event>
<event>
 7    1  0.2666594E-009  0.1492574E+03  0.7561462E-02  0.1201389E+00
         -2   -1    0    0    0  501 -0.00000000000E+00  0.00000000000E+00  0.11746587236E+03  0.11746587236E+03  0.00000000000E+00 0.  1.
          2   -1    0    0  501    0  0.00000000000E+00 -0.00000000000E+00 -0.22574125439E+03  0.22574125439E+03  0.00000000000E+00 0. -1.
         25    2    1    2    0    0  0.56017078865E+02  0.10590269147E+03 -0.85015572718E+02  0.19294673248E+03  0.12508997076E+03 0.  0.
          5    1    3    3  502    0 -0.40153192675E+02  0.25178747204E+02 -0.23479226370E+02  0.53056523290E+02  0.41800000000E+01 0.  1.
         -5    1    3    3    0  502  0.96170271539E+02  0.80723944268E+02 -0.61536346348E+02  0.13989020919E+03  0.41800000000E+01 0.  1.
        -11    1    1    2    0    0 -0.53114758837E+02 -0.63412574300E+02 -0.53066431085E+02  0.98277048662E+02  0.00000000000E+00 0. -1.
         11    1    1    2    0    0 -0.29023200282E+01 -0.42490117172E+02  0.29806621769E+02  0.51983345603E+02  0.00000000000E+00 0.  1.
</event>
<event>
 7    1  0.2666594E-009  0.1551667E+03  0.7561462E-02  0.1194264E+00
          2   -1    0    0  501    0  0.00000000000E+00  0.00000000000E+00  0.15443339496E+03  0.15443339496E+03  0.00000000000E+00 0. -1.
         -2   -1    0    0    0  501 -0.00000000000E+00 -0.00000000000E+00 -0.21262812220E+03  0.21262812220E+03  0.00000000000E+00 0.  1.
         25    2    1    2    0    0 -0.11874254632E+03  0.13066988815E+01  0.52979574157E+02  0.18044031930E+03  0.12510145396E+03 0.  0.
          5    1    3    3  502    0 -0.75665074131E+02  0.54905323761E+02  0.60045803845E+02  0.11118798937E+03  0.41800000000E+01 0.  1.
         -5    1    3    3    0  502 -0.43077472186E+02 -0.53598624880E+02 -0.70662296879E+01  0.69252329931E+02  0.41800000000E+01 0.  1.
        -11    1    1    2    0    0  0.12953683912E+03 -0.15026144424E+02 -0.10696857474E+03  0.16866491540E+03  0.00000000000E+00 0.  1.
         11    1    1    2    0    0 -0.10794292808E+02  0.13719445542E+02 -0.42057266613E+01  0.17956282465E+02  0.00000000000E+00 0. -1.
</event>
<event>
 7    1  0.2666594E-009  0.1099859E+03  0.7561462E-02  0.1260596E+00
          1   -1    0    0  501    0  0.00000000000E+00  0.00000000000E+00  0.11295615852E+03  0.11295615852E+03  0.00000000000E+00 0. -1.
         -1   -1    0    0    0  501 -0.00000000000E+00 -0.00000000000E+00 -0.12625870431E+03  0.12625870431E+03  0.00000000000E+00 0.  1.
         25    2    1    2    0    0 -0.43449158137E+02 -0.21239367903E+02  0.14786459862E+01  0.13412029061E+03  0.12508847216E+03 0.  0.
          5    1    3    3  502    0  0.56283740274E+01 -0.55917878020E+02  0.33844432778E+02  0.65737399603E+02  0.41800000000E+01 0.  1.
         -5    1    3    3    0  502 -0.49077532164E+02  0.34678510117E+02 -0.32365786792E+02  0.68382891003E+02  0.41800000000E+01 0.  1.
        -11    1    1    2    0    0  0.38567089829E+01 -0.34661905804E+02 -0.10660871894E+02  0.36468837487E+02  0.00000000000E+00 0.  1.
         11    1    1    2    0    0  0.39592449154E+02  0.55901273707E+02 -0.41203198870E+01  0.68625734736E+02  0.00000000000E+00 0. -1.
</event>
<event>
 7    1  0.2666594E-009  0.8047721E+02  0.7561462E-02  0.1327703E+00
          3   -1    0    0  501    0  0.00000000000E+00  0.00000000000E+00  0.25148424828E+03  0.25148424828E+03  0.00000000000E+00 0. -1.
         -3   -1    0    0    0  501 -0.00000000000E+00 -0.00000000000E+00 -0.48247537769E+02  0.48247537769E+02  0.00000000000E+00 0.  1.
         25    2    1    2    0    0 -0.17430313251E+02  0.17038148737E+02  0.11390910503E+03  0.17092976390E+03  0.12509030996E+03 0.  0.
          5    1    3    3  502    0 -0.39717507576E+02  0.47703173440E+02  0.11715934622E+03  0.13265314912E+03  0.41800000000E+01 0. -1.
         -5    1    3    3    0  502  0.22287194325E+02 -0.30665024703E+02 -0.32502411955E+01  0.38276614777E+02  0.41800000000E+01 0. -1.
        -11    1    1    2    0    0  0.27233278048E+02  0.12143574456E+02  0.93126952622E+02  0.97784186546E+02  0.00000000000E+00 0. -1.
         11    1    1    2    0    0 -0.98029647975E+01 -0.29181723193E+02 -0.37993471327E+01  0.31017835611E+02  0.00000000000E+00 0.  1.
</event>
<event>
 7    1  0.2666594E-009  0.1560039E+03  0.7561462E-02  0.1193284E+00
          2   -1    0    0  501    0  0.00000000000E+00  0.00000000000E+00  0.10953922315E+03  0.10953922315E+03  0.00000000000E+00 0. -1.
         -2   -1    0    0    0  501 -0.00000000000E+00 -0.00000000000E+00 -0.42066297214E+03  0.42066297214E+03  0.00000000000E+00 0.  1.
         25    2    1    2    0    0  0.10535874943E+03 -0.78163481861E+02  0.22823668484E+01  0.18128101813E+03  0.12509037676E+03 0.  0.
          5    1    3    3  502    0  0.10512832946E+03 -0.99901428193E+02 -0.23849946783E+02  0.14703249087E+03  0.41800000000E+01 0. -1.
         -5    1    3    3    0  502  0.23041997857E+00  0.21737946332E+02  0.26132313631E+02  0.34248527265E+02  0.41800000000E+01 0. -1.
        -11    1    1    2    0    0 -0.93622541654E+02  0.88732975617E+02 -0.22705303069E+03  0.26113559698E+03  0.00000000000E+00 0. -1.
         11    1    1    2    0    0 -0.11736207780E+02 -0.10569493757E+02 -0.86353085153E+02  0.87785580175E+02  0.00000000000E+00 0.  1.
</event>
<event>
 7    1  0.2666594E-009  0.1848991E+03  0.7561462E-02  0.1163144E+00
         -2   -1    0    0    0  501 -0.00000000000E+00  0.00000000000E+00  0.39625445968E+02  0.39625445968E+02  0.00000000000E+00 0. -1.
          2   -1    0    0  501    0  0.00000000000E+00 -0.00000000000E+00 -0.88381480405E+03  0.88381480405E+03  0.00000000000E+00 0.  1.
         25    2    1    2    0    0 -0.88227442798E+02  0.12123749085E+03 -0.37937059812E+03  0.42667549816E+03  0.12508924480E+03 0.  0.
          5    1    3    3  502    0  0.22260266273E+02 -0.90485766798E+01 -0.47090940662E+02  0.53032304182E+02  0.41800000000E+01 0. -1.
         -5    1    3    3    0  502 -0.11048770907E+03  0.13028606753E+03 -0.33227965745E+03  0.37364319398E+03  0.41800000000E+01 0. -1.
        -11    1    1    2    0    0  0.25592764906E+02  0.11270216671E+02 -0.92567088002E+02  0.96698878900E+02  0.00000000000E+00 0.  1.
         11    1    1    2    0    0  0.62634677892E+02 -0.13250770752E+03 -0.37225167196E+03  0.40006587296E+03  0.00000000000E+00 0. -1.
</event>
<event>
 7    1  0.2666594E-009  0.1029789E+03  0.7561462E-02  0.1274154E+00
          2   -1    0    0  501    0  0.00000000000E+00  0.00000000000E+00  0.54939210375E+03  0.54939210375E+03  0.00000000000E+00 0. -1.
         -2   -1    0    0    0  501 -0.00000000000E+00 -0.00000000000E+00 -0.23673965536E+02  0.23673965536E+02  0.00000000000E+00 0.  1.
         25    2    1    2    0    0 -0.33631605711E+02  0.75027638869E+00  0.26032432073E+03  0.29077049685E+03  0.12508829705E+03 0.  0.
          5    1    3    3  502    0 -0.39051364748E+02 -0.48524999990E+02  0.21354492267E+03  0.22248278834E+03  0.41800000000E+01 0. -1.
         -5    1    3    3    0  502  0.54197590368E+01  0.49275276379E+02  0.46779398061E+02  0.68287708507E+02  0.41800000000E+01 0. -1.
        -11    1    1    2    0    0  0.12712024573E+02  0.43240642003E+02  0.96298005703E+02  0.10632334923E+03  0.00000000000E+00 0. -1.
         11    1    1    2    0    0  0.20919581138E+02 -0.43990918391E+02  0.16909581179E+03  0.17597222320E+03  0.00000000000E+00 0.  1.
</event>
<event>
 7    1  0.2666594E-009  0.1164191E+03  0.7561462E-02  0.1249124E+00
          2   -1    0    0  501    0  0.00000000000E+00  0.00000000000E+00  0.14360924012E+03  0.14360924012E+03  0.00000000000E+00 0. -1.
         -2   -1    0    0    0  501 -0.00000000000E+00 -0.00000000000E+00 -0.12945873572E+03  0.12945873572E+03  0.00000000000E+00 0.  1.
         25    2    1    2    0    0  0.49533538263E+02  0.34678789633E+02  0.60644922931E+02  0.15159485973E+03  0.12508798886E+03 0.  0.
          5    1    3    3  502    0 -0.38276468800E+02  0.21601591847E+02  0.26926934581E+00  0.44150444393E+02  0.41800000000E+01 0.  1.
         -5    1    3    3    0  502  0.87810007063E+02  0.13077197786E+02  0.60375653585E+02  0.10744441534E+03  0.41800000000E+01 0.  1.
        -11    1    1    2    0    0  0.21244862788E+02 -0.16041003042E+02  0.10593304768E+02  0.28650935053E+02  0.00000000000E+00 0. -1.
         11    1    1    2    0    0 -0.70778401051E+02 -0.18637786591E+02 -0.57087723296E+02  0.92822181054E+02  0.00000000000E+00 0.  1.
</event>
<event>
 7    1  0.3528101E-009  0.9917679E+02  0.7561462E-02  0.1282037E+00
         -1   -1    0    0    0  501 -0.00000000000E+00  0.00000000000E+00  0.10041417258E+02  0.10041417258E+02  0.00000000000E+00 0.  1.
          1   -1    0    0  501    0  0.00000000000E+00 -0.00000000000E+00 -0.15904986368E+04  0.15904986368E+04  0.00000000000E+00 0. -1.
         25    2    1    2    0    0  0.17363193448E+02  0.57584709314E+02 -0.10249834078E+04  0.10343385048E+04  0.12509067548E+03 0.  0.
          5    1    3    3  502    0  0.40100211675E+02  0.18046429468E+02 -0.11482241064E+03  0.12302584679E+03  0.41800000000E+01 0.  1.
         -5    1    3    3    0  502 -0.22737018227E+02  0.39538279846E+02 -0.91016099714E+03  0.91131265803E+03  0.41800000000E+01 0.  1.
        -11    1    1    2    0    0 -0.39338681669E+02  0.71805587571E+01 -0.16447773007E+03  0.16926906389E+03  0.00000000000E+00 0. -1.
         11    1    1    2    0    0  0.21975488221E+02 -0.64765268072E+02 -0.39099608165E+03  0.39693248532E+03  0.00000000000E+00 0.  1.
</event>
<event>
 7    1  0.2666594E-009  0.1308728E+03  0.7561462E-02  0.1226166E+00
         -2   -1    0    0    0  501 -0.00000000000E+00  0.00000000000E+00  0.28128839720E+02  0.28128839720E+02  0.00000000000E+00 0.  1.
          2   -1    0    0  501    0  0.00000000000E+00 -0.00000000000E+00 -0.70933845969E+03  0.70933845969E+03  0.00000000000E+00 0. -1.
         25    2    1    2    0    0 -0.72121373034E+02 -0.23554876357E+02 -0.24209688222E+03  0.28286990061E+03  0.12509258826E+03 0.  0.
          5    1    3    3  502    0 -0.89422759154E+02  0.25743191362E+02 -0.16824054245E+03  0.19230573128E+03  0.41800000000E+01 0. -1.
         -5    1    3    3    0  502  0.17301386121E+02 -0.49298067718E+02 -0.73856339767E+02  0.90564169329E+02  0.41800000000E+01 0. -1.
        -11    1    1    2    0    0 -0.28567104648E+01 -0.26099358535E+02 -0.13214307168E+03  0.13472612480E+03  0.00000000000E+00 0. -1.
         11    1    1    2    0    0  0.74978083499E+02  0.49654234891E+02 -0.30696966606E+03  0.31987127400E+03  0.00000000000E+00 0.  1.
</event>
<event>
 7    1  0.2666594E-009  0.1249239E+03  0.7561462E-02  0.1235188E+00
         -2   -1    0    0    0  501 -0.00000000000E+00  0.00000000000E+00  0.21850324372E+03  0.21850324372E+03  0.00000000000E+00 0.  1.
          2   -1    0    0  501    0  0.00000000000E+00 -0.00000000000E+00 -0.24992264649E+03  0.24992264649E+03  0.00000000000E+00 0. -1.
         25    2    1    2    0    0 -0.22239751616E+02 -0.71752567935E+02  0.17728188951E+03  0.22960663823E+03  0.12508917784E+03 0.  0.
          5    1    3    3  502    0 -0.65373742314E+02 -0.24153898408E+02  0.46630732759E+02  0.83958529227E+02  0.41800000000E+01 0.  1.
         -5    1    3    3    0  502  0.43133990698E+02 -0.47598669527E+02  0.13065115675E+03  0.14564810900E+03  0.41800000000E+01 0.  1.
        -11    1    1    2    0    0 -0.16870647332E+02  0.74562256325E+02 -0.12787416429E+03  0.14898305509E+03  0.00000000000E+00 0.  1.
         11    1    1    2    0    0  0.39110398948E+02 -0.28096883897E+01 -0.80827127985E+02  0.89836196898E+02  0.00000000000E+00 0. -1.
</event>
<event>
 7    1  0.2666594E-009  0.1032804E+03  0.7561462E-02  0.1273545E+00
         -3   -1    0    0    0  501 -0.00000000000E+00  0.00000000000E+00  0.11030640149E+03  0.11030640149E+03  0.00000000000E+00 0.  1.
          3   -1    0    0  501    0  0.00000000000E+00 -0.00000000000E+00 -0.11055385732E+03  0.11055385732E+03  0.00000000000E+00 0. -1.
         25    2    1    2    0    0  0.67955878151E+01  0.15483846933E+02 -0.13504383626E+02  0.12696009552E+03  0.12510222999E+03 0.  0.
          5    1    3    3  502    0  0.55977742112E+02  0.32382877953E+02  0.16369924468E+02  0.66840146795E+02  0.41800000000E+01 0.  1.
         -5    1    3    3    0  502 -0.49182154297E+02 -0.16899031020E+02 -0.29874308095E+02  0.60119948726E+02  0.41800000000E+01 0.  1.
        -11    1    1    2    0    0 -0.47465050304E+02 -0.10477493183E+02  0.19647549011E+02  0.52428380158E+02  0.00000000000E+00 0.  1.
         11    1    1    2    0    0  0.40669462489E+02 -0.50063537503E+01 -0.63906212176E+01  0.41471783137E+02  0.00000000000E+00 0. -1.
</event>
<event>
 7    1  0.2666594E-009  0.2430369E+03  0.7561462E-02  0.1117786E+00
          1   -1    0    0  501    0  0.00000000000E+00  0.00000000000E+00  0.17917935891E+04  0.17917935891E+04  0.00000000000E+00 0. -1.
         -1   -1    0    0    0  501 -0.00000000000E+00 -0.00000000000E+00 -0.38606286858E+02  0.38606286858E+02  0.00000000000E+00 0.  1.
         25    2    1    2    0    0  0.26141650827E+02  0.24070568824E+03  0.95676474295E+03  0.99482137303E+03  0.12509267212E+03 0.  0.
          5    1    3    3  502    0  0.13455238162E+02  0.20909463380E+03  0.58369389513E+03  0.62017549526E+03  0.41800000000E+01 0.  1.
         -5    1    3    3    0  502  0.12686412665E+02  0.31611054444E+02  0.37307084782E+03  0.37464587776E+03  0.41800000000E+01 0.  1.
        -11    1    1    2    0    0 -0.16607172212E+02 -0.17624579248E+03  0.45967537722E+03  0.49258484544E+03  0.00000000000E+00 0.  1.
         11    1    1    2    0    0 -0.95344786156E+01 -0.64459895767E+02  0.33674718204E+03  0.34299365746E+03  0.00000000000E+00 0. -1.
</event>
<event>
 7    1  0.2666594E-009  0.1453021E+03  0.7561462E-02  0.1206367E+00
          1   -1    0    0  501    0  0.00000000000E+00  0.00000000000E+00  0.20345118137E+02  0.20345118137E+02  0.00000000000E+00 0. -1.
         -1   -1    0    0    0  501 -0.00000000000E+00 -0.00000000000E+00 -0.11844788029E+04  0.11844788029E+04  0.00000000000E+00 0.  1.
         25    2    1    2    0    0  0.26272699852E+02 -0.10302585865E+03 -0.73599019364E+03  0.75407874326E+03  0.12509437876E+03 0.  0.
          5    1    3    3  502    0 -0.47904764997E+02 -0.63079296834E+02 -0.32726763524E+03  0.33674239661E+03  0.41800000000E+01 0.  1.
         -5    1    3    3    0  502  0.74177464849E+02 -0.39946561811E+02 -0.40872255840E+03  0.41733634665E+03  0.41800000000E+01 0.  1.
        -11    1    1    2    0    0  0.51526693410E+01  0.94132422607E+02 -0.38645160203E+03  0.39778424265E+03  0.00000000000E+00 0.  1.
         11    1    1    2    0    0 -0.31425369193E+02  0.88934360383E+01 -0.41691889088E+02  0.52960935124E+02  0.00000000000E+00 0. -1.
</event>
<event>
 7    1  0.2666594E-009  0.8273416E+02  0.7561462E-02  0.1321467E+00
          2   -1    0    0  501    0  0.00000000000E+00  0.00000000000E+00  0.21528823115E+03  0.21528823115E+03  0.00000000000E+00 0. -1.
         -2   -1    0    0    0  501 -0.00000000000E+00 -0.00000000000E+00 -0.55744346068E+02  0.55744346068E+02  0.00000000000E+00 0.  1.
         25    2    1    2    0    0  0.20873009399E+02  0.28155225473E+01  0.10799359910E+03  0.16658911578E+03  0.12508279803E+03 0.  0.
          5    1    3    3  502    0  0.20312799969E+02 -0.57389055798E+02  0.78466566632E+02  0.99401147111E+02  0.41800000000E+01 0.  1.
         -5    1    3    3    0  502  0.56020942968E+00  0.60204578346E+02  0.29527032464E+02  0.67187968674E+02  0.41800000000E+01 0.  1.
        -11    1    1    2    0    0 -0.22207916528E+01 -0.19163986515E+02  0.70587867292E+02  0.73176753847E+02  0.00000000000E+00 0. -1.
         11    1    1    2    0    0 -0.18652217746E+02  0.16348463968E+02 -0.19037581310E+02  0.31266707583E+02  0.00000000000E+00 0.  1.
</event>
<event>
 7    1  0.2666594E-009  0.7260366E+02  0.7561462E-02  0.1351456E+00
         -1   -1    0    0    0  501 -0.00000000000E+00  0.00000000000E+00  0.83108228218E+02  0.83108228218E+02  0.00000000000E+00 0. -1.
          1   -1    0    0  501    0  0.00000000000E+00 -0.00000000000E+00 -0.16918833045E+03  0.16918833045E+03  0.00000000000E+00 0.  1.
         25    2    1    2    0    0  0.10661018560E+02 -0.27713980187E+02 -0.91042389212E+01  0.12888728708E+03  0.12508926249E+03 0.  0.
          5    1    3    3  502    0  0.27759382807E+02 -0.19963983356E+02 -0.62923134396E+02  0.71735188070E+02  0.41800000000E+01 0.  1.
         -5    1    3    3    0  502 -0.17098364247E+02 -0.77499968307E+01  0.53818895475E+02  0.57152099007E+02  0.41800000000E+01 0.  1.
        -11    1    1    2    0    0 -0.47741331901E+02  0.26104892532E+02 -0.25873001482E+02  0.60250414036E+02  0.00000000000E+00 0. -1.
         11    1    1    2    0    0  0.37080313341E+02  0.16090876549E+01 -0.51102861829E+02  0.63158857555E+02  0.00000000000E+00 0.  1.
</event>
<event>
 7    1  0.2666594E-009  0.1132983E+03  0.7561462E-02  0.1254581E+00
         -2   -1    0    0    0  501 -0.00000000000E+00  0.00000000000E+00  0.42684822735E+02  0.42684822735E+02  0.00000000000E+00 0.  1.
          2   -1    0    0  501    0  0.00000000000E+00 -0.00000000000E+00 -0.36583578520E+03  0.36583578520E+03  0.00000000000E+00 0. -1.
         25    2    1    2    0    0 -0.48514055792E+02 -0.38003349689E+02 -0.15015349609E+03  0.20491732636E+03  0.12508864880E+03 0.  0.
          5    1    3    3  502    0 -0.51720169109E+02 -0.74249450821E+02 -0.62879249700E+02  0.11026889535E+03  0.41800000000E+01 0. -1.
         -5    1    3    3    0  502  0.32061133172E+01  0.36246101132E+02 -0.87274246388E+02  0.94648431009E+02  0.41800000000E+01 0. -1.
        -11    1    1    2    0    0  0.18050282388E+02 -0.24160599510E+02 -0.21498308698E+02  0.37036799806E+02  0.00000000000E+00 0. -1.
         11    1    1    2    0    0  0.30463773404E+02  0.62163949199E+02 -0.15149915768E+03  0.16656648176E+03  0.00000000000E+00 0.  1.
</event>
<event>
 7    1  0.2666594E-009  0.9660384E+02  0.7561462E-02  0.1287604E+00
          2   -1    0    0  501    0  0.00000000000E+00  0.00000000000E+00  0.64554071980E+03  0.64554071980E+03  0.00000000000E+00 0.  1.
         -2   -1    0    0    0  501 -0.00000000000E+00 -0.00000000000E+00 -0.24204732269E+02  0.24204732269E+02  0.00000000000E+00 0. -1.
         25    2    1    2    0    0 -0.38021237020E+02  0.22241152875E+02  0.23085733830E+03  0.26623921250E+03  0.12509166352E+03 0.  0.
          5    1    3    3  502    0 -0.21752039939E+01  0.48676669822E+02  0.21221151453E+03  0.21777361868E+03  0.41800000000E+01 0.  1.
         -5    1    3    3    0  502 -0.35846033026E+02 -0.26435516947E+02  0.18645823775E+02  0.48465593819E+02  0.41800000000E+01 0.  1.
        -11    1    1    2    0    0 -0.19165028336E+02  0.20583500502E+02  0.15103879921E+03  0.15363494938E+03  0.00000000000E+00 0. -1.
         11    1    1    2    0    0  0.57186265356E+02 -0.42824653377E+02  0.23943985002E+03  0.24987129019E+03  0.00000000000E+00 0.  1.
</event>
<event>
 7    1  0.2666594E-009  0.3063747E+03  0.7561462E-02  0.1082097E+00
          1   -1    0    0  501    0  0.00000000000E+00  0.00000000000E+00  0.43088113375E+03  0.43088113375E+03  0.00000000000E+00 0. -1.
         -1   -1    0    0    0  501 -0.00000000000E+00 -0.00000000000E+00 -0.23788094059E+03  0.23788094059E+03  0.00000000000E+00 0.  1.
         25    2    1    2    0    0  0.13850811645E+03  0.26658055891E+03  0.12458853765E+03  0.34844981443E+03  0.12508108072E+03 0.  0.
          5    1    3    3  502    0  0.10119794146E+03  0.25275248639E+03  0.13925923244E+03  0.30583565677E+03  0.41800000000E+01 0. -1.
         -5    1    3    3    0  502  0.37310174993E+02  0.13828072519E+02 -0.14670694792E+02  0.42614157663E+02  0.41800000000E+01 0. -1.
        -11    1    1    2    0    0 -0.28645652773E+02 -0.59148604877E+02 -0.21206793920E+02  0.69056925721E+02  0.00000000000E+00 0. -1.
         11    1    1    2    0    0 -0.10986246368E+03 -0.20743195403E+03  0.89618449423E+02  0.25125533418E+03  0.00000000000E+00 0.  1.
</event>
<event>
 7    1  0.2666594E-009  0.1278836E+03  0.7561462E-02  0.1230630E+00
          1   -1    0    0  501    0  0.00000000000E+00  0.00000000000E+00  0.20716465534E+03  0.20716465534E+03  0.00000000000E+00 0. -1.
         -1   -1    0    0    0  501 -0.00000000000E+00 -0.00000000000E+00 -0.11139039864E+03  0.11139039864E+03  0.00000000000E+00 0.  1.
         25    2    1    2    0    0 -0.88061773214E+02 -0.47047932688E+02  0.90934805375E+02  0.18407889339E+03  0.12509003274E+03 0.  0.
          5    1    3    3  502    0 -0.50549783724E+02 -0.70119007528E+02  0.41155646335E+01  0.86639287414E+02  0.41800000000E+01 0. -1.
         -5    1    3    3    0  502 -0.37511989489E+02  0.23071074840E+02  0.86819240741E+02  0.97439605975E+02  0.41800000000E+01 0. -1.
        -11    1    1    2    0    0  0.58237310318E+01  0.42208672463E+02  0.25352147291E+02  0.49580432092E+02  0.00000000000E+00 0. -1.
         11    1    1    2    0    0  0.82238042182E+02  0.48392602253E+01 -0.20512695960E+02  0.84895728497E+02  0.00000000000E+00 0.  1.
</event>
<event>
 7    1  0.2666594E-009  0.1216707E+03  0.7561462E-02  0.1240366E+00
         -2   -1    0    0    0  501 -0.00000000000E+00  0.00000000000E+00  0.19729417913E+02  0.19729417913E+02  0.00000000000E+00 0.  1.
          2   -1    0    0  501    0  0.00000000000E+00 -0.00000000000E+00 -0.88605721742E+03  0.88605721742E+03  0.00000000000E+00 0. -1.
         25    2    1    2    0    0  0.56430605443E+02  0.38245371183E+02 -0.59451622195E+03  0.61134553649E+03  0.12508679058E+03 0.  0.
          5    1    3    3  502    0 -0.29811277905E+01  0.71690476099E+02 -0.35898402101E+03  0.36610846921E+03  0.41800000000E+01 0.  1.
         -5    1    3    3    0  502  0.59411733234E+02 -0.33445104916E+02 -0.23553220094E+03  0.24523706728E+03  0.41800000000E+01 0.  1.
        -11    1    1    2    0    0  0.87104800054E+01 -0.36996022236E+02 -0.47363589462E+02  0.60727981442E+02  0.00000000000E+00 0.  1.
         11    1    1    2    0    0 -0.65141085449E+02 -0.12493489466E+01 -0.22444798809E+03  0.23371311740E+03  0.00000000000E+00 0. -1.
</event>
<event>
 7    1  0.2666594E-009  0.1347209E+03  0.7561462E-02  0.1220614E+00
          1   -1    0    0  501    0  0.00000000000E+00  0.00000000000E+00  0.25678009258E+03  0.25678009258E+03  0.00000000000E+00 0. -1.
         -1   -1    0    0    0  501 -0.00000000000E+00 -0.00000000000E+00 -0.75529561348E+02  0.75529561348E+02  0.00000000000E+00 0.  1.
         25    2    1    2    0    0 -0.66737780514E+02  0.51532260188E+02  0.79587785919E+02  0.17055769677E+03  0.12508479953E+03 0.  0.
          5    1    3    3  502    0 -0.86759658513E+02  0.73707613144E+02  0.39896887144E+02  0.12070329152E+03  0.41800000000E+01 0.  1.
         -5    1    3    3    0  502  0.20021877999E+02 -0.22175352957E+02  0.39690898775E+02  0.49854405251E+02  0.41800000000E+01 0.  1.
        -11    1    1    2    0    0 -0.68118368445E+01 -0.51355479848E+02  0.35303203275E+02  0.62690530331E+02  0.00000000000E+00 0. -1.
         11    1    1    2    0    0  0.73549617358E+02 -0.17678033936E+00  0.66359542034E+02  0.99061426821E+02  0.00000000000E+00 0.  1.
</event>
<event>
 7    1  0.2666594E-009  0.1705556E+03  0.7561462E-02  0.1177270E+00
          2   -1    0    0  501    0  0.00000000000E+00  0.00000000000E+00  0.72919911127E+03  0.72919911127E+03  0.00000000000E+00 0. -1.
         -2   -1    0    0    0  501 -0.00000000000E+00 -0.00000000000E+00 -0.49015526620E+02  0.49015526620E+02  0.00000000000E+00 0.  1.
         25    2    1    2    0    0 -0.47695331148E+02  0.14528983196E+03  0.30108568436E+03  0.36011713726E+03  0.12509110017E+03 0.  0.
          5    1    3    3  502    0 -0.54946993662E+02  0.44762268218E+02  0.21850927289E+03  0.22975336234E+03  0.41800000000E+01 0. -1.
         -5    1    3    3    0  502  0.72516625137E+01  0.10052756374E+03  0.82576411469E+02  0.13036377492E+03  0.41800000000E+01 0. -1.
        -11    1    1    2    0    0 -0.13795938212E+02 -0.73195364210E+02  0.11036189602E+03  0.13314517395E+03  0.00000000000E+00 0.  1.
         11    1    1    2    0    0  0.61491269360E+02 -0.72094467747E+02  0.26873600427E+03  0.28495232668E+03  0.00000000000E+00 0. -1.
</event>
<event>
 7    1  0.2666594E-009  0.1551020E+03  0.7561462E-02  0.1194340E+00
         -2   -1    0    0    0  501 -0.00000000000E+00  0.00000000000E+00  0.11298489023E+03  0.11298489023E+03  0.00000000000E+00 0.  1.
          2   -1    0    0  501    0  0.00000000000E+00 -0.00000000000E+00 -0.33606640238E+03  0.33606640238E+03  0.00000000000E+00 0. -1.
         25    2    1    2    0    0 -0.37947126433E+02  0.14177306100E+03 -0.38795825558E+02  0.19670156326E+03  0.12508718431E+03 0.  0.
          5    1    3    3  502    0 -0.23610113031E+02  0.74318520689E+01 -0.55104197868E+02  0.60552579509E+02  0.41800000000E+01 0. -1.
         -5    1    3    3    0  502 -0.14337013402E+02  0.13434120893E+03  0.16308372310E+02  0.13614898375E+03  0.41800000000E+01 0. -1.
        -11    1    1    2    0    0  0.80034633412E+01 -0.88174773724E+02 -0.43262943344E+02  0.98542013444E+02  0.00000000000E+00 0.  1.
         11    1    1    2    0    0  0.29943663091E+02 -0.53598287271E+02 -0.14102274325E+03  0.15380771590E+03  0.00000000000E+00 0. -1.
</event>
<event>
 7    1  0.2666594E-009  0.1043078E+03  0.7561462E-02  0.1271490E+00
         -2   -1    0    0    0  501 -0.00000000000E+00  0.00000000000E+00  0.38458461052E+02  0.38458461052E+02  0.00000000000E+00 0.  1.
          2   -1    0    0  501    0  0.00000000000E+00 -0.00000000000E+00 -0.34731304618E+03  0.34731304618E+03  0.00000000000E+00 0. -1.
         25    2    1    2    0    0  0.22600561056E+01  0.75438447949E+01 -0.11122144184E+03  0.16757049433E+03  0.12509054320E+03 0.  0.
          5    1    3    3  502    0  0.52717813221E+02  0.29963117677E+02 -0.89287189926E+02  0.10801217958E+03  0.41800000000E+01 0.  1.
         -5    1    3    3    0  502 -0.50457757115E+02 -0.22419272882E+02 -0.21934251914E+02  0.59558314757E+02  0.41800000000E+01 0.  1.
        -11    1    1    2    0    0 -0.30391495688E+02 -0.39531417488E+02 -0.10431757171E+03  0.11562236698E+03  0.00000000000E+00 0. -1.
         11    1    1    2    0    0  0.28131439582E+02  0.31987572693E+02 -0.93315571573E+02  0.10257864592E+03  0.00000000000E+00 0.  1.
</event>
<event>
 7    1  0.2666594E-009  0.1875490E+03  0.7561462E-02  0.1160691E+00
         -1   -1    0    0    0  501 -0.00000000000E+00  0.00000000000E+00  0.72070049907E+02  0.72070049907E+02  0.00000000000E+00 0.  1.
          1   -1    0    0  501    0  0.00000000000E+00 -0.00000000000E+00 -0.60333901349E+03  0.60333901349E+03  0.00000000000E+00 0. -1.
         25    2    1    2    0    0 -0.11835452658E+03 -0.10574872799E+03 -0.14676197449E+03  0.24975591003E+03  0.12509336516E+03 0.  0.
          5    1    3    3  502    0 -0.12108869115E+03 -0.30558597958E+02 -0.75220913971E+02  0.14584909096E+03  0.41800000000E+01 0.  1.
         -5    1    3    3    0  502  0.27341645759E+01 -0.75190130032E+02 -0.71541060514E+02  0.10390681907E+03  0.41800000000E+01 0.  1.
        -11    1    1    2    0    0  0.65361915878E+02  0.11078135739E+02 -0.89870248171E+02  0.11167616865E+03  0.00000000000E+00 0.  1.
         11    1    1    2    0    0  0.52992610701E+02  0.94670592251E+02 -0.29463674093E+03  0.31397698472E+03  0.00000000000E+00 0. -1.
</event>
<event>
 7    1  0.2666594E-009  0.2672607E+03  0.7561462E-02  0.1102858E+00
          1   -1    0    0  501    0  0.00000000000E+00  0.00000000000E+00  0.49390502364E+03  0.49390502364E+03  0.00000000000E+00 0. -1.
         -1   -1    0    0    0  501 -0.00000000000E+00 -0.00000000000E+00 -0.22003905521E+03  0.22003905521E+03  0.00000000000E+00 0.  1.
         25    2    1    2    0    0 -0.21668487508E+03 -0.14166841631E+03  0.32654041784E+03  0.43508441799E+03  0.12509009164E+03 0.  0.
          5    1    3    3  502    0 -0.32522236648E+01  0.10616399951E+02 -0.45711865404E+01  0.12714285394E+02  0.41800000000E+01 0. -1.
         -5    1    3    3    0  502 -0.21343265141E+03 -0.15228481626E+03  0.33111160438E+03  0.42237013260E+03  0.41800000000E+01 0. -1.
        -11    1    1    2    0    0  0.65625843175E+02  0.58917155071E+02  0.22363193744E+02  0.90984036449E+02  0.00000000000E+00 0. -1.
         11    1    1    2    0    0  0.15105903190E+03  0.82751261241E+02 -0.75037643154E+02  0.18787562441E+03  0.00000000000E+00 0.  1.
</event>
<event>
 7    1  0.2666594E-009  0.1232064E+03  0.7561462E-02  0.1237899E+00
          2   -1    0    0  501    0  0.00000000000E+00  0.00000000000E+00  0.10958495772E+03  0.10958495772E+03  0.00000000000E+00 0. -1.
         -2   -1    0    0    0  501 -0.00000000000E+00 -0.00000000000E+00 -0.23991276349E+03  0.23991276349E+03  0.00000000000E+00 0.  1.
         25    2    1    2    0    0 -0.73535569801E+02  0.83498937780E+02 -0.19041389615E+02  0.16849306219E+03  0.12509110620E+03 0.  0.
          5    1    3    3  502    0 -0.14569159089E+02  0.71030261622E+02 -0.61073742588E+02  0.94894851791E+02  0.41800000000E+01 0. -1.
         -5    1    3    3    0  502 -0.58966410712E+02  0.12468676158E+02  0.42032352973E+02  0.73598210398E+02  0.41800000000E+01 0. -1.
        -11    1    1    2    0    0  0.40272304970E+02 -0.29402687844E+02  0.33263180855E+01  0.49974403369E+02  0.00000000000E+00 0.  1.
         11    1    1    2    0    0  0.33263264831E+02 -0.54096249936E+02 -0.11461273424E+03  0.13103025565E+03  0.00000000000E+00 0. -1.
</event>
<event>
 7    1  0.2666594E-009  0.3553397E+03  0.7561462E-02  0.1060445E+00
         -2   -1    0    0    0  501 -0.00000000000E+00  0.00000000000E+00  0.77441744109E+02  0.77441744109E+02  0.00000000000E+00 0.  1.
          2   -1    0    0  501    0  0.00000000000E+00 -0.00000000000E+00 -0.17686179589E+04  0.17686179589E+04  0.00000000000E+00 0. -1.
         25    2    1    2    0    0  0.11731977594E+03  0.32108453787E+03 -0.63187331559E+03  0.72922654713E+03  0.12509300460E+03 0.  0.
          5    1    3    3  502    0  0.11882283497E+03  0.14343211519E+03 -0.32510495851E+03  0.37470300803E+03  0.41800000000E+01 0.  1.
         -5    1    3    3    0  502 -0.15030590352E+01  0.17765242268E+03 -0.30676835707E+03  0.35452353910E+03  0.41800000000E+01 0.  1.
        -11    1    1    2    0    0 -0.10771788499E+03 -0.21824107518E+03 -0.63247238832E+03  0.67768254487E+03  0.00000000000E+00 0.  1.
         11    1    1    2    0    0 -0.96018909503E+01 -0.10284346269E+03 -0.42683051091E+03  0.43915061104E+03  0.00000000000E+00 0. -1.
</event>
<event>
 7    1  0.2666594E-009  0.9655081E+02  0.7561462E-02  0.1287721E+00
          2   -1    0    0  501    0  0.00000000000E+00  0.00000000000E+00  0.23468183952E+03  0.23468183952E+03  0.00000000000E+00 0. -1.
         -2   -1    0    0    0  501 -0.00000000000E+00 -0.00000000000E+00 -0.14350203493E+03  0.14350203493E+03  0.00000000000E+00 0.  1.
         25    2    1    2    0    0 -0.60056962645E+02 -0.46767830290E+02 -0.82253114993E+02  0.16793961217E+03  0.12507625553E+03 0.  0.
          5    1    3    3  502    0 -0.51017869722E+01  0.18135604452E+02 -0.80493589014E+02  0.82774504840E+02  0.41800000000E+01 0.  1.
         -5    1    3    3    0  502 -0.54955175673E+02 -0.64903434742E+02 -0.17595259787E+01  0.85165107328E+02  0.41800000000E+01 0.  1.
        -11    1    1    2    0    0 -0.66325095333E+01  0.11350518103E+02 -0.68228755615E+01  0.14811349528E+02  0.00000000000E+00 0.  1.
         11    1    1    2    0    0  0.66689472178E+02  0.35417312187E+02  0.18025579515E+03  0.19543291275E+03  0.00000000000E+00 0. -1.
</event>
<event>
 7    1  0.2666594E-009  0.1236242E+03  0.7561462E-02  0.1237235E+00
          1   -1    0    0  501    0  0.00000000000E+00  0.00000000000E+00  0.11880525261E+03  0.11880525261E+03  0.00000000000E+00 0. -1.
         -1   -1    0    0    0  501 -0.00000000000E+00 -0.00000000000E+00 -0.20147558949E+03  0.20147558949E+03  0.00000000000E+00 0.  1.
         25    2    1    2    0    0 -0.23428226215E+02  0.10095545404E+03 -0.59887073599E+02  0.17312920982E+03  0.12508547567E+03 0.  0.
          5    1    3    3  502    0  0.53586536770E+01  0.10541895777E+03  0.84638811358E+00  0.10564118799E+03  0.41800000000E+01 0. -1.
         -5    1    3    3    0  502 -0.28786879892E+02 -0.44635037281E+01 -0.60733461712E+02  0.67488021834E+02  0.41800000000E+01 0. -1.
        -11    1    1    2    0    0  0.16300108801E+02 -0.66458459389E+01 -0.46435831431E+02  0.49660318725E+02  0.00000000000E+00 0.  1.
         11    1    1    2    0    0  0.71281174146E+01 -0.94309608102E+02  0.23652568148E+02  0.97491313553E+02  0.00000000000E+00 0. -1.
</event>
<event>
 7    1  0.2666594E-009  0.9366833E+02  0.7561462E-02  0.1294204E+00
          2   -1    0    0  501    0  0.00000000000E+00  0.00000000000E+00  0.79437942629E+02  0.79437942629E+02  0.00000000000E+00 0. -1.
         -2   -1    0    0    0  501 -0.00000000000E+00 -0.00000000000E+00 -0.16366030805E+03  0.16366030805E+03  0.00000000000E+00 0.  1.
         25    2    1    2    0    0  0.17978434728E+02 -0.30735451472E+02 -0.62146352130E+02  0.14414407882E+03  0.12508978489E+03 0.  0.
          5    1    3    3  502    0 -0.84344550316E+01 -0.74981554359E+02 -0.22059481087E+02  0.78723990191E+02  0.41800000000E+01 0.  1.
         -5    1    3    3    0  502  0.26412889759E+02  0.44246102887E+02 -0.40086871043E+02  0.65420088629E+02  0.41800000000E+01 0.  1.
        -11    1    1    2    0    0 -0.32069335110E+02  0.75668143060E+01 -0.50096142504E+02  0.59961007554E+02  0.00000000000E+00 0.  1.
         11    1    1    2    0    0  0.14090900383E+02  0.23168637166E+02  0.28020129211E+02  0.38993164307E+02  0.00000000000E+00 0. -1.
</event>
<event>
 7    1  0.2666594E-009  0.9839232E+02  0.7561462E-02  0.1283713E+00
          2   -1    0    0  501    0  0.00000000000E+00  0.00000000000E+00  0.25311669629E+03  0.25311669629E+03  0.00000000000E+00 0.  1.
         -2   -1    0    0    0  501 -0.00000000000E+00 -0.00000000000E+00 -0.59932123307E+02  0.59932123307E+02  0.00000000000E+00 0. -1.
         25    2    1    2    0    0  0.42776480245E+02  0.20836613395E+02  0.65735077695E+02  0.14910261148E+03  0.12508595681E+03 0.  0.
          5    1    3    3  502    0  0.11942887928E+02  0.71169744568E+02  0.22130020671E+02  0.75597455835E+02  0.41800000000E+01 0. -1.
         -5    1    3    3    0  502  0.30833592317E+02 -0.50333131172E+02  0.43605057024E+02  0.73505155648E+02  0.41800000000E+01 0. -1.
        -11    1    1    2    0    0 -0.33159969031E+02 -0.34994195537E+02  0.13637386903E+03  0.14464442409E+03  0.00000000000E+00 0.  1.
         11    1    1    2    0    0 -0.96165112141E+01  0.14157582142E+02 -0.89243737341E+01  0.19301784026E+02  0.00000000000E+00 0. -1.
</event>
<event>
 7    1  0.2666594E-009  0.1270756E+03  0.7561462E-02  0.1231861E+00
          2   -1    0    0  501    0  0.00000000000E+00  0.00000000000E+00  0.37362842771E+03  0.37362842771E+03  0.00000000000E+00 0. -1.
         -2   -1    0    0    0  501 -0.00000000000E+00 -0.00000000000E+00 -0.50891597807E+02  0.50891597807E+02  0.00000000000E+00 0.  1.
         25    2    1    2    0    0  0.42998838669E+02 -0.55742157755E+02  0.10358764674E+03  0.17701019758E+03  0.12508445632E+03 0.  0.
          5    1    3    3  502    0 -0.44305740814E+02 -0.22728462846E+02  0.39749842937E+02  0.63852205177E+02  0.41800000000E+01 0.  1.
         -5    1    3    3    0  502  0.87304579483E+02 -0.33013694909E+02  0.63837803804E+02  0.11315799240E+03  0.41800000000E+01 0.  1.
        -11    1    1    2    0    0 -0.27691129287E+02 -0.19562589320E+02  0.10127374409E+03  0.10679824335E+03  0.00000000000E+00 0. -1.
         11    1    1    2    0    0 -0.15307709382E+02  0.75304747075E+02  0.11787543907E+03  0.14071158458E+03  0.00000000000E+00 0.  1.
</event>
<event>
 7    1  0.2666594E-009  0.1328929E+03  0.7561462E-02  0.1223225E+00
         -1   -1    0    0    0  501 -0.00000000000E+00  0.00000000000E+00  0.19544328728E+03  0.19544328728E+03  0.00000000000E+00 0.  1.
          1   -1    0    0  501    0  0.00000000000E+00 -0.00000000000E+00 -0.11166331383E+03  0.11166331383E+03  0.00000000000E+00 0. -1.
         25    2    1    2    0    0  0.13694141094E+02 -0.89267009460E+02 -0.27649356099E+00  0.15428337236E+03  0.12508858486E+03 0.  0.
          5    1    3    3  502    0  0.40049715914E+02  0.17737262182E+02 -0.32227590933E+00  0.44001891735E+02  0.41800000000E+01 0. -1.
         -5    1    3    3    0  502 -0.26355574819E+02 -0.10700427164E+03  0.45782348340E-01  0.11028148063E+03  0.41800000000E+01 0. -1.
        -11    1    1    2    0    0 -0.35794792228E+02  0.25318915365E+02 -0.13490773469E+01  0.43864959085E+02  0.00000000000E+00 0. -1.
         11    1    1    2    0    0  0.22100651133E+02  0.63948094095E+02  0.85405544363E+02  0.10895826966E+03  0.00000000000E+00 0.  1.
</event>
<event>
 7    1  0.2666594E-009  0.8650661E+02  0.7561462E-02  0.1311539E+00
          1   -1    0    0  501    0  0.00000000000E+00  0.00000000000E+00  0.95714648920E+02  0.95714648920E+02  0.00000000000E+00 0. -1.
         -1   -1    0    0    0  501 -0.00000000000E+00 -0.00000000000E+00 -0.15538495345E+03  0.15538495345E+03  0.00000000000E+00 0.  1.
         25    2    1    2    0    0 -0.51114206750E+02  0.32751576049E+01 -0.39536801843E+02  0.14083331364E+03  0.12508986666E+03 0.  0.
          5    1    3    3  502    0  0.72708913141E+01 -0.24040330229E+02  0.34308044025E+02  0.42723736059E+02  0.41800000000E+01 0. -1.
         -5    1    3    3    0  502 -0.58385098064E+02  0.27315487834E+02 -0.73844845868E+02  0.98109577579E+02  0.41800000000E+01 0. -1.
        -11    1    1    2    0    0 -0.15699196972E+02  0.24921561002E+01 -0.37723614248E+02  0.40935885229E+02  0.00000000000E+00 0.  1.
         11    1    1    2    0    0  0.66813403722E+02 -0.57673137051E+01  0.17590111566E+02  0.69330403498E+02  0.00000000000E+00 0. -1.
</event>
<event>
 7    1  0.2666594E-009  0.1358758E+03  0.7561462E-02  0.1218989E+00
         -2   -1    0    0    0  501 -0.00000000000E+00  0.00000000000E+00  0.11623134251E+02  0.11623134251E+02  0.00000000000E+00 0.  1.
          2   -1    0    0  501    0  0.00000000000E+00 -0.00000000000E+00 -0.16841163015E+04  0.16841163015E+04  0.00000000000E+00 0. -1.
         25    2    1    2    0    0 -0.21083309240E+01 -0.88548134065E+02 -0.10895819665E+04  0.11003112162E+04  0.12510273267E+03 0.  0.
          5    1    3    3  502    0 -0.60768512669E+02 -0.30912983263E+02 -0.59688646433E+03  0.60078228034E+03  0.41800000000E+01 0. -1.
         -5    1    3    3    0  502  0.58660181745E+02 -0.57635150801E+02 -0.49269550218E+03  0.49952893590E+03  0.41800000000E+01 0. -1.
        -11    1    1    2    0    0 -0.17286183355E+02  0.98009545054E+02 -0.49517670687E+03  0.50507885927E+03  0.00000000000E+00 0.  1.
         11    1    1    2    0    0  0.19394514279E+02 -0.94614109894E+01 -0.87734493824E+02  0.90349360201E+02  0.00000000000E+00 0. -1.
</event>
<event>
 7    1  0.2666594E-009  0.1570067E+03  0.7561462E-02  0.1192118E+00
          2   -1    0    0  501    0  0.00000000000E+00  0.00000000000E+00  0.18683869405E+03  0.18683869405E+03  0.00000000000E+00 0.  1.
         -2   -1    0    0    0  501 -0.00000000000E+00 -0.00000000000E+00 -0.16539699657E+03  0.16539699657E+03  0.00000000000E+00 0. -1.
         25    2    1    2    0    0  0.12503505616E+03 -0.42417840870E+02  0.51542723543E+02  0.18904399019E+03  0.12509172387E+03 0.  0.
          5    1    3    3  502    0  0.45147019088E+02  0.23286210442E+02 -0.28309060323E+02  0.58304169882E+02  0.41800000000E+01 0. -1.
         -5    1    3    3    0  502  0.79888037077E+02 -0.65704051313E+02  0.79851783865E+02  0.13073982030E+03  0.41800000000E+01 0. -1.
        -11    1    1    2    0    0 -0.72302927864E+02 -0.22651640398E+02 -0.22779680664E+02  0.79118417840E+02  0.00000000000E+00 0.  1.
         11    1    1    2    0    0 -0.52732128301E+02  0.65069481268E+02 -0.73213454073E+01  0.84073282595E+02  0.00000000000E+00 0. -1.
</event>
<event>
 7    1  0.2666594E-009  0.8431688E+02  0.7561462E-02  0.1317229E+00
         -2   -1    0    0    0  501 -0.00000000000E+00  0.00000000000E+00  0.95268957253E+03  0.95268957253E+03  0.00000000000E+00 0.  1.
          2   -1    0    0  501    0  0.00000000000E+00 -0.00000000000E+00 -0.26596223714E+02  0.26596223714E+02  0.00000000000E+00 0. -1.
         25    2    1    2    0    0  0.50973344992E+02 -0.60378975016E+01  0.83788694459E+03  0.84872682177E+03  0.12509175820E+03 0.  0.
          5    1    3    3  502    0  0.63772746429E+02  0.31910668491E+02  0.73141668237E+03  0.73489665233E+03  0.41800000000E+01 0.  1.
         -5    1    3    3    0  502 -0.12799401438E+02 -0.37948565992E+02  0.10647026222E+03  0.11383016944E+03  0.41800000000E+01 0.  1.
        -11    1    1    2    0    0 -0.46364819423E+02 -0.33398290241E+01  0.10267744857E+03  0.11270984599E+03  0.00000000000E+00 0.  1.
         11    1    1    2    0    0 -0.46085255685E+01  0.93777265258E+01 -0.14471044354E+02  0.17849128478E+02  0.00000000000E+00 0. -1.
</event>
<event>
 7    1  0.2666594E-009  0.1197019E+03  0.7561462E-02  0.1243590E+00
          2   -1    0    0  501    0  0.00000000000E+00  0.00000000000E+00  0.77874844592E+03  0.77874844592E+03  0.00000000000E+00 0.  1.
         -2   -1    0    0    0  501 -0.00000000000E+00 -0.00000000000E+00 -0.24754913544E+02  0.24754913544E+02  0.00000000000E+00 0. -1.
         25    2    1    2    0    0  0.19611077246E+02  0.81470592341E+02  0.35312825052E+03  0.38388645127E+03  0.12508874605E+03 0.  0.
          5    1    3    3  502    0  0.36901100367E+02  0.88934052887E+02  0.35156154547E+03  0.36453250833E+03  0.41800000000E+01 0.  1.
         -5    1    3    3    0  502 -0.17290023121E+02 -0.74634605463E+01  0.15667050481E+01  0.19353942946E+02  0.41800000000E+01 0.  1.
        -11    1    1    2    0    0 -0.26893566397E+02 -0.10014475261E+03  0.34605725542E+03  0.36125871535E+03  0.00000000000E+00 0. -1.
         11    1    1    2    0    0  0.72824891509E+01  0.18674160265E+02  0.54808026431E+02  0.58358192836E+02  0.00000000000E+00 0.  1.
</event>
<event>
 7    1  0.2666594E-009  0.8842129E+02  0.7561462E-02  0.1306720E+00
          1   -1    0    0  501    0  0.00000000000E+00  0.00000000000E+00  0.25626872014E+02  0.25626872014E+02  0.00000000000E+00 0. -1.
         -1   -1    0    0    0  501 -0.00000000000E+00 -0.00000000000E+00 -0.51528388998E+03  0.51528388998E+03  0.00000000000E+00 0.  1.
         25    2    1    2    0    0 -0.25973002668E+01 -0.33990076769E+02 -0.31993641199E+03  0.34520857560E+03  0.12509029406E+03 0.  0.
          5    1    3    3  502    0  0.52634382873E+02 -0.99093004704E+01 -0.70908255574E+02  0.88960809376E+02  0.41800000000E+01 0.  1.
         -5    1    3    3    0  502 -0.55231683140E+02 -0.24080776299E+02 -0.24902815641E+03  0.25624776623E+03  0.41800000000E+01 0.  1.
        -11    1    1    2    0    0  0.18825251753E+02  0.40946551468E+02 -0.17208510780E+03  0.17788843276E+03  0.00000000000E+00 0.  1.
         11    1    1    2    0    0 -0.16227951487E+02 -0.69564746981E+01  0.23645018243E+01  0.17813753635E+02  0.00000000000E+00 0. -1.
</event>
<event>
 7    1  0.2666594E-009  0.1019019E+03  0.7561462E-02  0.1276347E+00
         -2   -1    0    0    0  501 -0.00000000000E+00  0.00000000000E+00  0.10986709538E+03  0.10986709538E+03  0.00000000000E+00 0.  1.
          2   -1    0    0  501    0  0.00000000000E+00 -0.00000000000E+00 -0.14051896161E+03  0.14051896161E+03  0.00000000000E+00 0. -1.
         25    2    1    2    0    0 -0.28227208010E+02 -0.46687890709E+02  0.14367866386E+02  0.13722749906E+03  0.12509363094E+03 0.  0.
          5    1    3    3  502    0 -0.50448407732E+01  0.33025018325E+02 -0.28129436082E+02  0.43872996571E+02  0.41800000000E+01 0. -1.
         -5    1    3    3    0  502 -0.23182367237E+02 -0.79712909034E+02  0.42497302467E+02  0.93354502486E+02  0.41800000000E+01 0. -1.
        -11    1    1    2    0    0  0.42620609005E+02  0.55622137367E+02 -0.58678328515E+02  0.91397399933E+02  0.00000000000E+00 0. -1.
         11    1    1    2    0    0 -0.14393400996E+02 -0.89342466581E+01  0.13658595894E+02  0.21761157997E+02  0.00000000000E+00 0.  1.
</event>
<event>
 7    1  0.2666594E-009  0.9936707E+02  0.7561462E-02  0.1281633E+00
          2   -1    0    0  501    0  0.00000000000E+00  0.00000000000E+00  0.18052889900E+04  0.18052889900E+04  0.00000000000E+00 0.  1.
         -2   -1    0    0    0  501 -0.00000000000E+00 -0.00000000000E+00 -0.10068065138E+02  0.10068065138E+02  0.00000000000E+00 0. -1.
         25    2    1    2    0    0 -0.22921970550E+02 -0.19875836616E+02  0.14846300820E+04  0.14901990826E+04  0.12508541000E+03 0.  0.
          5    1    3    3  502    0 -0.68258670430E+02 -0.16153332653E+02  0.11875823967E+04  0.11896594460E+04  0.41800000000E+01 0. -1.
         -5    1    3    3    0  502  0.45336699881E+02 -0.37225039625E+01  0.29704768532E+03  0.30053963656E+03  0.41800000000E+01 0. -1.
        -11    1    1    2    0    0  0.51766809889E+01  0.48679339331E+02  0.25815541680E+03  0.26275596154E+03  0.00000000000E+00 0.  1.
         11    1    1    2    0    0  0.17745289561E+02 -0.28803502715E+02  0.52435426098E+02  0.62402011028E+02  0.00000000000E+00 0. -1.
</event>
<event>
 7    1  0.2666594E-009  0.9408395E+02  0.7561462E-02  0.1293253E+00
          1   -1    0    0  501    0  0.00000000000E+00  0.00000000000E+00  0.75625763609E+02  0.75625763609E+02  0.00000000000E+00 0. -1.
         -1   -1    0    0    0  501 -0.00000000000E+00 -0.00000000000E+00 -0.17354089993E+03  0.17354089993E+03  0.00000000000E+00 0.  1.
         25    2    1    2    0    0 -0.13841793891E+01 -0.37295919744E+02 -0.57086021331E+02  0.14247181921E+03  0.12508598585E+03 0.  0.
          5    1    3    3  502    0  0.44975207151E+02 -0.56740820118E+02 -0.56645289413E+02  0.92024187791E+02  0.41800000000E+01 0.  1.
         -5    1    3    3    0  502 -0.46359386540E+02  0.19444900374E+02 -0.44073191777E+00  0.50447631417E+02  0.41800000000E+01 0.  1.
        -11    1    1    2    0    0 -0.25032778331E+02  0.27071299537E+02 -0.61446098945E+02  0.71659739918E+02  0.00000000000E+00 0.  1.
         11    1    1    2    0    0  0.26416957720E+02  0.10224620207E+02  0.20616983958E+02  0.35035104410E+02  0.00000000000E+00 0. -1.
</event>
<event>
 7    1  0.2666594E-009  0.1881540E+03  0.7561462E-02  0.1160137E+00
          2   -1    0    0  501    0  0.00000000000E+00  0.00000000000E+00  0.61422075164E+03  0.61422075164E+03  0.00000000000E+00 0. -1.
         -2   -1    0    0    0  501 -0.00000000000E+00 -0.00000000000E+00 -0.75149923873E+02  0.75149923873E+02  0.00000000000E+00 0.  1.
         25    2    1    2    0    0 -0.41923792596E+02  0.17008656870E+03  0.17900669735E+03  0.27996029194E+03  0.12508925663E+03 0.  0.
          5    1    3    3  502    0 -0.62870464873E+02  0.12717329202E+03  0.18331109582E+03  0.23183220615E+03  0.41800000000E+01 0.  1.
         -5    1    3    3    0  502  0.20946672276E+02  0.42913276688E+02 -0.43043984687E+01  0.48128085789E+02  0.41800000000E+01 0.  1.
        -11    1    1    2    0    0  0.17601941054E+02 -0.15855475927E+03  0.34086171167E+03  0.37634578049E+03  0.00000000000E+00 0. -1.
         11    1    1    2    0    0  0.24321851542E+02 -0.11531809436E+02  0.19202418747E+02  0.33064603083E+02  0.00000000000E+00 0.  1.
</event>
<event>
 7    1  0.2666594E-009  0.1097288E+03  0.7561462E-02  0.1261073E+00
         -1   -1    0    0    0  501 -0.00000000000E+00  0.00000000000E+00  0.38564514668E+02  0.38564514668E+02  0.00000000000E+00 0.  1.
          1   -1    0    0  501    0  0.00000000000E+00 -0.00000000000E+00 -0.45541903634E+03  0.45541903634E+03  0.00000000000E+00 0. -1.
         25    2    1    2    0    0 -0.51245017457E+02 -0.52804076610E+02 -0.19736387077E+03  0.24497799344E+03  0.12508955778E+03 0.  0.
          5    1    3    3  502    0 -0.23887034605E+02 -0.90727025756E+02 -0.10178021182E+03  0.13848706634E+03  0.41800000000E+01 0. -1.
         -5    1    3    3    0  502 -0.27357982852E+02  0.37922949147E+02 -0.95583658948E+02  0.10649092710E+03  0.41800000000E+01 0. -1.
        -11    1    1    2    0    0  0.27524238239E+02  0.93103627109E+01 -0.57772090206E+01  0.29625034827E+02  0.00000000000E+00 0.  1.
         11    1    1    2    0    0  0.23720779218E+02  0.43493713899E+02 -0.21371344188E+03  0.21938052273E+03  0.00000000000E+00 0. -1.
</event>
<event>
 7    1  0.2666594E-009  0.8602795E+02  0.7561462E-02  0.1312766E+00
         -1   -1    0    0    0  501 -0.00000000000E+00  0.00000000000E+00  0.48149039876E+03  0.48149039876E+03  0.00000000000E+00 0.  1.
          1   -1    0    0  501    0  0.00000000000E+00 -0.00000000000E+00 -0.24883435910E+02  0.24883435910E+02  0.00000000000E+00 0. -1.
         25    2    1    2    0    0  0.10198727921E+02 -0.55635810792E+01  0.23631371781E+03  0.26763143806E+03  0.12508975149E+03 0.  0.
          5    1    3    3  502    0  0.20348718738E+02  0.45338692725E+02  0.38288121576E+02  0.62873842463E+02  0.41800000000E+01 0.  1.
         -5    1    3    3    0  502 -0.10149990817E+02 -0.50902273804E+02  0.19802559624E+03  0.20475759560E+03  0.41800000000E+01 0.  1.
        -11    1    1    2    0    0 -0.32298761972E+02 -0.18676600647E+02  0.19148399632E+03  0.19508497196E+03  0.00000000000E+00 0.  1.
         11    1    1    2    0    0  0.22100034051E+02  0.24240181726E+02  0.28809248718E+02  0.43657424648E+02  0.00000000000E+00 0. -1.
</event>
<event>
 7    1  0.2666594E-009  0.2188085E+03  0.7561462E-02  0.1134774E+00
          2   -1    0    0  501    0  0.00000000000E+00  0.00000000000E+00  0.18243562597E+03  0.18243562597E+03  0.00000000000E+00 0. -1.
         -2   -1    0    0    0  501 -0.00000000000E+00 -0.00000000000E+00 -0.27740147018E+03  0.27740147018E+03  0.00000000000E+00 0.  1.
         25    2    1    2    0    0 -0.14936923396E+03 -0.11823055471E+03  0.10038768116E+01  0.22789684759E+03  0.12508530391E+03 0.  0.
          5    1    3    3  502    0  0.19862253232E+02 -0.30474234386E+02 -0.59356736719E+01  0.37093027469E+02  0.41800000000E+01 0.  1.
         -5    1    3    3    0  502 -0.16923148719E+03 -0.87756320319E+02  0.69395504836E+01  0.19080382012E+03  0.41800000000E+01 0.  1.
        -11    1    1    2    0    0  0.13328899336E+03  0.53497865096E+02 -0.74962149312E+02  0.16201018842E+03  0.00000000000E+00 0.  1.
         11    1    1    2    0    0  0.16080240598E+02  0.64732689610E+02 -0.21007571704E+02  0.69930060136E+02  0.00000000000E+00 0. -1.
</event>
<event>
 7    1  0.2666594E-009  0.2291557E+03  0.7561462E-02  0.1127235E+00
         -1   -1    0    0    0  501 -0.00000000000E+00  0.00000000000E+00  0.21758573730E+03  0.21758573730E+03  0.00000000000E+00 0.  1.
          1   -1    0    0  501    0  0.00000000000E+00 -0.00000000000E+00 -0.26811087113E+03  0.26811087113E+03  0.00000000000E+00 0. -1.
         25    2    1    2    0    0 -0.11531578165E+03 -0.17730648069E+03  0.14203835318E+02  0.24613790322E+03  0.12508717310E+03 0.  0.
          5    1    3    3  502    0 -0.98024015545E+02 -0.72818829379E+02 -0.38043238465E+02  0.12796894127E+03  0.41800000000E+01 0.  1.
         -5    1    3    3    0  502 -0.17291766102E+02 -0.10448765131E+03  0.52247073783E+02  0.11816896196E+03  0.41800000000E+01 0.  1.
        -11    1    1    2    0    0  0.11738684764E+03  0.10408614971E+03 -0.51502636474E+02  0.16512455942E+03  0.00000000000E+00 0.  1.
         11    1    1    2    0    0 -0.20710659979E+01  0.73220330977E+02 -0.13226332671E+02  0.74434145785E+02  0.00000000000E+00 0. -1.
</event>
<event>
 7    1  0.2666594E-009  0.1377448E+03  0.7561462E-02  0.1216396E+00
          2   -1    0    0  501    0  0.00000000000E+00  0.00000000000E+00  0.47357288874E+03  0.47357288874E+03  0.00000000000E+00 0.  1.
         -2   -1    0    0    0  501 -0.00000000000E+00 -0.00000000000E+00 -0.51391361836E+02  0.51391361836E+02  0.00000000000E+00 0. -1.
         25    2    1    2    0    0 -0.28140428383E+02 -0.10490321001E+03  0.27235672929E+03  0.31878321917E+03  0.12509190884E+03 0.  0.
          5    1    3    3  502    0 -0.54019421474E+02 -0.88291285042E+02  0.26815137531E+03  0.28746492202E+03  0.41800000000E+01 0. -1.
         -5    1    3    3    0  502  0.25878993090E+02 -0.16611924970E+02  0.42053539789E+01  0.31318297155E+02  0.41800000000E+01 0. -1.
        -11    1    1    2    0    0  0.40863654316E+02  0.11661768703E+03  0.12366801681E+03  0.17482362985E+03  0.00000000000E+00 0. -1.
         11    1    1    2    0    0 -0.12723225933E+02 -0.11714477021E+02  0.26156780808E+02  0.31357401555E+02  0.00000000000E+00 0.  1.
</event>
<event>
 7    1  0.2666594E-009  0.8042517E+02  0.7561462E-02  0.1327849E+00
         -2   -1    0    0    0  501 -0.00000000000E+00  0.00000000000E+00  0.88040417909E+02  0.88040417909E+02  0.00000000000E+00 0. -1.
          2   -1    0    0  501    0  0.00000000000E+00 -0.00000000000E+00 -0.14328599322E+03  0.14328599322E+03  0.00000000000E+00 0.  1.
         25    2    1    2    0    0  0.21534135215E+02  0.36005996396E+01 -0.89011464278E+01  0.12729150330E+03  0.12508882087E+03 0.  0.
          5    1    3    3  502    0 -0.37234389713E+02  0.42147668352E+02 -0.73194290740E+01  0.56867144880E+02  0.41800000000E+01 0. -1.
         -5    1    3    3    0  502  0.58768524927E+02 -0.38547068713E+02 -0.15817173537E+01  0.70424358416E+02  0.41800000000E+01 0. -1.
        -11    1    1    2    0    0 -0.80598789945E+01 -0.14586000067E+02  0.25308917712E+02  0.30302712141E+02  0.00000000000E+00 0. -1.
         11    1    1    2    0    0 -0.13474256220E+02  0.10985400427E+02 -0.71653346593E+02  0.73732195690E+02  0.00000000000E+00 0.  1.
</event>
<event>
 7    1  0.2666594E-009  0.1103996E+03  0.7561462E-02  0.1259832E+00
          1   -1    0    0  501    0  0.00000000000E+00  0.00000000000E+00  0.12134216443E+04  0.12134216443E+04  0.00000000000E+00 0. -1.
         -1   -1    0    0    0  501 -0.00000000000E+00 -0.00000000000E+00 -0.13255691713E+02  0.13255691713E+02  0.00000000000E+00 0.  1.
         25    2    1    2    0    0 -0.24013502667E+02  0.86508862386E+01  0.95584123707E+03  0.96432955461E+03  0.12509010054E+03 0.  0.
          5    1    3    3  502    0  0.33554108500E+02 -0.39393896442E+02  0.34367059660E+03  0.34756971767E+03  0.41800000000E+01 0.  1.
         -5    1    3    3    0  502 -0.57567611167E+02  0.48044782680E+02  0.61217064047E+03  0.61675983693E+03  0.41800000000E+01 0.  1.
        -11    1    1    2    0    0  0.52112936391E+02  0.17924181599E+02  0.16757305503E+03  0.17640227663E+03  0.00000000000E+00 0. -1.
         11    1    1    2    0    0 -0.28099433724E+02 -0.26575067838E+02  0.76751660499E+02  0.85945504801E+02  0.00000000000E+00 0.  1.
</event>
<event>
 7    1  0.2666594E-009  0.9340725E+02  0.7561462E-02  0.1294804E+00
         -1   -1    0    0    0  501 -0.00000000000E+00  0.00000000000E+00  0.77307485773E+02  0.77307485773E+02  0.00000000000E+00 0.  1.
          1   -1    0    0  501    0  0.00000000000E+00 -0.00000000000E+00 -0.20759254105E+03  0.20759254105E+03  0.00000000000E+00 0. -1.
         25    2    1    2    0    0  0.20379294134E+02 -0.44179156231E+02 -0.27104743027E+02  0.13692666996E+03  0.12508849818E+03 0.  0.
          5    1    3    3  502    0  0.23016092569E+02 -0.60520702573E+02  0.34160309869E+02  0.73327315016E+02  0.41800000000E+01 0. -1.
         -5    1    3    3    0  502 -0.26367984348E+01  0.16341546343E+02 -0.61265052896E+02  0.63599354943E+02  0.41800000000E+01 0. -1.
        -11    1    1    2    0    0 -0.52636173802E+02  0.49393237540E+02 -0.60253693121E+02  0.94025348932E+02  0.00000000000E+00 0. -1.
         11    1    1    2    0    0  0.32256879667E+02 -0.52140813098E+01 -0.42926619130E+02  0.53948007931E+02  0.00000000000E+00 0.  1.
</event>
<event>
 7    1  0.2666594E-009  0.7419494E+02  0.7561462E-02  0.1346382E+00
         -1   -1    0    0    0  501 -0.00000000000E+00  0.00000000000E+00  0.14159520892E+03  0.14159520892E+03  0.00000000000E+00 0.  1.
          1   -1    0    0  501    0  0.00000000000E+00 -0.00000000000E+00 -0.86220769960E+02  0.86220769960E+02  0.00000000000E+00 0. -1.
         25    2    1    2    0    0 -0.14731990823E+02  0.97901506998E+01  0.44133173082E+02  0.13380522660E+03  0.12507287114E+03 0.  0.
          5    1    3    3  502    0  0.31098971123E+02 -0.16318888688E+02  0.67312828937E+02  0.76039078587E+02  0.41800000000E+01 0. -1.
         -5    1    3    3    0  502 -0.45830961946E+02  0.26109039388E+02 -0.23179655855E+02  0.57766148012E+02  0.41800000000E+01 0. -1.
        -11    1    1    2    0    0  0.16002898642E+02  0.22601506295E+02 -0.30476200946E+02  0.41179116987E+02  0.00000000000E+00 0. -1.
         11    1    1    2    0    0 -0.12709078191E+01 -0.32391656995E+02  0.41717466823E+02  0.52831635293E+02  0.00000000000E+00 0.  1.
</event>
<event>
 7    1  0.2666594E-009  0.1115964E+03  0.7561462E-02  0.1257642E+00
          2   -1    0    0  501    0  0.00000000000E+00  0.00000000000E+00  0.67528744151E+03  0.67528744151E+03  0.00000000000E+00 0. -1.
         -2   -1    0    0    0  501 -0.00000000000E+00 -0.00000000000E+00 -0.23253749318E+02  0.23253749318E+02  0.00000000000E+00 0.  1.
         25    2    1    2    0    0 -0.39185141168E+02  0.52028848656E+02  0.37480057285E+03  0.40045706887E+03  0.12509163930E+03 0.  0.
          5    1    3    3  502    0 -0.28870777795E+02  0.90495989047E+02  0.20467379472E+03  0.22568092628E+03  0.41800000000E+01 0.  1.
         -5    1    3    3    0  502 -0.10314363373E+02 -0.38467140390E+02  0.17012677813E+03  0.17477614259E+03  0.41800000000E+01 0.  1.
        -11    1    1    2    0    0 -0.77894629046E+01 -0.38360932052E+02  0.40408287686E+02  0.56258924216E+02  0.00000000000E+00 0.  1.
         11    1    1    2    0    0  0.46974604073E+02 -0.13667916605E+02  0.23682483165E+03  0.24182519773E+03  0.00000000000E+00 0. -1.
</event>
<event>
 7    1  0.2666594E-009  0.1410274E+03  0.7561462E-02  0.1211953E+00
         -2   -1    0    0    0  501 -0.00000000000E+00  0.00000000000E+00  0.30038241589E+02  0.30038241589E+02  0.00000000000E+00 0.  1.
          2   -1    0    0  501    0  0.00000000000E+00 -0.00000000000E+00 -0.82782958328E+03  0.82782958328E+03  0.00000000000E+00 0. -1.
         25    2    1    2    0    0  0.25981778101E+02 -0.90042094963E+02 -0.41241085260E+03  0.44103632049E+03  0.12509073903E+03 0.  0.
          5    1    3    3  502    0  0.45311685640E+02  0.14872688754E+02 -0.15909232062E+03  0.16613905203E+03  0.41800000000E+01 0.  1.
         -5    1    3    3    0  502 -0.19329907539E+02 -0.10491478372E+03 -0.25331853198E+03  0.27489726847E+03  0.41800000000E+01 0.  1.
        -11    1    1    2    0    0  0.31860278474E+02  0.38223866732E+02 -0.43035945173E+02  0.65789314553E+02  0.00000000000E+00 0.  1.
         11    1    1    2    0    0 -0.57842056575E+02  0.51818228231E+02 -0.34234454392E+03  0.35104218982E+03  0.00000000000E+00 0. -1.
</event>
<event>
 7    1  0.2666594E-009  0.9430438E+02  0.7561462E-02  0.1292751E+00
          1   -1    0    0  501    0  0.00000000000E+00  0.00000000000E+00  0.10705300966E+03  0.10705300966E+03  0.00000000000E+00 0. -1.
         -1   -1    0    0    0  501 -0.00000000000E+00 -0.00000000000E+00 -0.18400632011E+03  0.18400632011E+03  0.00000000000E+00 0.  1.
         25    2    1    2    0    0  0.40477369189E+02  0.68760870759E+02 -0.80862225740E+02  0.16897542091E+03  0.12509004179E+03 0.  0.
          5    1    3    3  502    0  0.45828251553E+02  0.37213822799E+02  0.20475073689E+02  0.62624262792E+02  0.41800000000E+01 0.  1.
         -5    1    3    3    0  502 -0.53508823637E+01  0.31547047960E+02 -0.10133729943E+03  0.10635115812E+03  0.41800000000E+01 0.  1.
        -11    1    1    2    0    0 -0.32668968488E+02 -0.51547701679E+01 -0.34158731354E+02  0.47546315160E+02  0.00000000000E+00 0.  1.
         11    1    1    2    0    0 -0.78084007012E+01 -0.63606100591E+02  0.38067646647E+02  0.74537593704E+02  0.00000000000E+00 0. -1.
</event>
<event>
 7    1  0.2666594E-009  0.2103366E+03  0.7561462E-02  0.1141300E+00
         -4   -1    0    0    0  501 -0.00000000000E+00  0.00000000000E+00  0.14324807854E+03  0.14324807854E+03  0.00000000000E+00 0. -1.
          4   -1    0    0  501    0  0.00000000000E+00 -0.00000000000E+00 -0.36886356448E+03  0.36886356448E+03  0.00000000000E+00 0.  1.
         25    2    1    2    0    0 -0.10272119165E+03  0.16112788086E+03 -0.18881095735E+03  0.29633291028E+03  0.12509907631E+03 0.  0.
          5    1    3    3  502    0 -0.15738790718E+02  0.10324920654E+03 -0.15401049099E+03  0.18613116858E+03  0.41800000000E+01 0.  1.
         -5    1    3    3    0  502 -0.86982400935E+02  0.57878674321E+02 -0.34800466358E+02  0.11020174169E+03  0.41800000000E+01 0.  1.
        -11    1    1    2    0    0 -0.15868628495E+02 -0.35175273928E+02  0.14000429229E+01  0.38614419410E+02  0.00000000000E+00 0.  1.
         11    1    1    2    0    0  0.11858982015E+03 -0.12595260693E+03 -0.38204571513E+02  0.17716431333E+03  0.00000000000E+00 0. -1.
</event>
<event>
 7    1  0.2666594E-009  0.2912909E+03  0.7561462E-02  0.1089677E+00
         -2   -1    0    0    0  501 -0.00000000000E+00  0.00000000000E+00  0.15946711152E+03  0.15946711152E+03  0.00000000000E+00 0.  1.
          2   -1    0    0  501    0  0.00000000000E+00 -0.00000000000E+00 -0.55707119239E+03  0.55707119239E+03  0.00000000000E+00 0. -1.
         25    2    1    2    0    0  0.88025234799E+02  0.26247735826E+03 -0.22765001820E+03  0.37962439173E+03  0.12508933787E+03 0.  0.
          5    1    3    3  502    0  0.11710331927E+03  0.17864000940E+03 -0.14429695442E+03  0.25780714458E+03  0.41800000000E+01 0. -1.
         -5    1    3    3    0  502 -0.29078084473E+02  0.83837348852E+02 -0.83353063787E+02  0.12181724714E+03  0.41800000000E+01 0. -1.
        -11    1    1    2    0    0 -0.11610133566E+02 -0.98665108031E+02 -0.18417030706E+02  0.10103853604E+03  0.00000000000E+00 0.  1.
         11    1    1    2    0    0 -0.76415101233E+02 -0.16381225023E+03 -0.15153703196E+03  0.23587537615E+03  0.00000000000E+00 0. -1.
</event>
<event>
 7    1  0.2666594E-009  0.8473681E+02  0.7561462E-02  0.1316122E+00
          1   -1    0    0  501    0  0.00000000000E+00  0.00000000000E+00  0.10573340658E+03  0.10573340658E+03  0.00000000000E+00 0. -1.
         -1   -1    0    0    0  501 -0.00000000000E+00 -0.00000000000E+00 -0.14822975062E+03  0.14822975062E+03  0.00000000000E+00 0.  1.
         25    2    1    2    0    0 -0.28490795762E+02  0.54925083829E+02 -0.18986143603E+02  0.14084370516E+03  0.12509190764E+03 0.  0.
          5    1    3    3  502    0 -0.13527437907E+02  0.37811325981E+02 -0.72258261359E+02  0.82773284841E+02  0.41800000000E+01 0. -1.
         -5    1    3    3    0  502 -0.14963357855E+02  0.17113757848E+02  0.53272117756E+02  0.58070420321E+02  0.41800000000E+01 0. -1.
        -11    1    1    2    0    0 -0.25495981576E+02 -0.44075054170E+02 -0.27571260281E+02  0.57903625708E+02  0.00000000000E+00 0.  1.
         11    1    1    2    0    0  0.53986777338E+02 -0.10850029659E+02  0.40610598450E+01  0.55215826336E+02  0.00000000000E+00 0. -1.
</event>
<event>
 7    1  0.2666594E-009  0.9194194E+02  0.7561462E-02  0.1298216E+00
          1   -1    0    0  501    0  0.00000000000E+00  0.00000000000E+00  0.86837280467E+02  0.86837280467E+02  0.00000000000E+00 0. -1.
         -1   -1    0    0    0  501 -0.00000000000E+00 -0.00000000000E+00 -0.14583293563E+03  0.14583293563E+03  0.00000000000E+00 0.  1.
         25    2    1    2    0    0 -0.27174607350E+02 -0.51069493746E+01 -0.43630740971E+02  0.13533496000E+03  0.12508944649E+03 0.  0.
          5    1    3    3  502    0 -0.61690282633E+02  0.44612819226E+01 -0.67842520015E+02  0.91900347822E+02  0.41800000000E+01 0. -1.
         -5    1    3    3    0  502  0.34515675283E+02 -0.95682312971E+01  0.24211779044E+02  0.43434612176E+02  0.41800000000E+01 0. -1.
        -11    1    1    2    0    0  0.43418935392E+02 -0.26092496368E+02 -0.30404294026E+02  0.59079974717E+02  0.00000000000E+00 0.  1.
         11    1    1    2    0    0 -0.16244328042E+02  0.31199445743E+02  0.15039379831E+02  0.38255281386E+02  0.00000000000E+00 0. -1.
</event>
<event>
 7    1  0.2666594E-009  0.9775844E+02  0.7561462E-02  0.1285082E+00
         -2   -1    0    0    0  501 -0.00000000000E+00  0.00000000000E+00  0.73095382105E+02  0.73095382105E+02  0.00000000000E+00 0.  1.
          2   -1    0    0  501    0  0.00000000000E+00 -0.00000000000E+00 -0.19086254021E+03  0.19086254021E+03  0.00000000000E+00 0. -1.
         25    2    1    2    0    0  0.22011576169E+02 -0.27904667997E+02 -0.80390114893E+02  0.15288374255E+03  0.12509071981E+03 0.  0.
          5    1    3    3  502    0 -0.18045138909E+02  0.31878401330E+02 -0.71248776454E+02  0.80222939711E+02  0.41800000000E+01 0. -1.
         -5    1    3    3    0  502  0.40056715077E+02 -0.59783069327E+02 -0.91413384389E+01  0.72660802840E+02  0.41800000000E+01 0. -1.
        -11    1    1    2    0    0 -0.50536962857E+02  0.28526164696E+02  0.68576181819E+01  0.58435893201E+02  0.00000000000E+00 0.  1.
         11    1    1    2    0    0  0.28525386688E+02 -0.62149669946E+00 -0.44234661394E+02  0.52638286565E+02  0.00000000000E+00 0. -1.
</event>
<event>
 7    1  0.2666594E-009  0.1166580E+03  0.7561462E-02  0.1248714E+00
          1   -1    0    0  501    0  0.00000000000E+00  0.00000000000E+00  0.47573850346E+03  0.47573850346E+03  0.00000000000E+00 0. -1.
         -1   -1    0    0    0  501 -0.00000000000E+00 -0.00000000000E+00 -0.51706933414E+02  0.51706933414E+02  0.00000000000E+00 0.  1.
         25    2    1    2    0    0  0.10099944114E+03 -0.26587483514E+02  0.15320568344E+03  0.22366816294E+03  0.12509070424E+03 0.  0.
          5    1    3    3  502    0  0.92157507429E+02 -0.46492478081E+02  0.16784895577E+03  0.19709211311E+03  0.41800000000E+01 0. -1.
         -5    1    3    3    0  502  0.88419337096E+01  0.19904994567E+02 -0.14643272333E+02  0.26576049839E+02  0.41800000000E+01 0. -1.
        -11    1    1    2    0    0 -0.32218655710E+02  0.21768217609E+02  0.20154386593E+02  0.43796077137E+02  0.00000000000E+00 0.  1.
         11    1    1    2    0    0 -0.68780785428E+02  0.48192659053E+01  0.25067150001E+03  0.25998119679E+03  0.00000000000E+00 0. -1.
</event>
<event>
 7    1  0.2666594E-009  0.1417346E+03  0.7561462E-02  0.1211014E+00
          1   -1    0    0  501    0  0.00000000000E+00  0.00000000000E+00  0.28416497790E+03  0.28416497790E+03  0.00000000000E+00 0. -1.
         -1   -1    0    0    0  501 -0.00000000000E+00 -0.00000000000E+00 -0.91137027491E+02  0.91137027491E+02  0.00000000000E+00 0.  1.
         25    2    1    2    0    0  0.43080556282E+02 -0.93402732232E+02  0.31916438453E+02  0.16506756609E+03  0.12509451472E+03 0.  0.
          5    1    3    3  502    0  0.69144168971E+02 -0.74743599691E+01  0.28007729445E+02  0.75091194346E+02  0.41800000000E+01 0. -1.
         -5    1    3    3    0  502 -0.26063612689E+02 -0.85928372263E+02  0.39087090081E+01  0.89976371744E+02  0.41800000000E+01 0. -1.
        -11    1    1    2    0    0 -0.15510982314E+01  0.80361369136E+02  0.60471277227E+02  0.10058394964E+03  0.00000000000E+00 0.  1.
         11    1    1    2    0    0 -0.41529458050E+02  0.13041363096E+02  0.10064023472E+03  0.10965048966E+03  0.00000000000E+00 0. -1.
</event>
<event>
 7    1  0.2666594E-009  0.8792947E+02  0.7561462E-02  0.1307945E+00
         -1   -1    0    0    0  501 -0.00000000000E+00  0.00000000000E+00  0.44694589209E+03  0.44694589209E+03  0.00000000000E+00 0.  1.
          1   -1    0    0  501    0  0.00000000000E+00 -0.00000000000E+00 -0.30973579405E+02  0.30973579405E+02  0.00000000000E+00 0. -1.
         25    2    1    2    0    0  0.57093326946E+01  0.85886144649E+01  0.32952558174E+03  0.35262055684E+03  0.12509111602E+03 0.  0.
          5    1    3    3  502    0  0.37443726459E+02  0.37717985735E+02  0.28712651855E+03  0.29203388358E+03  0.41800000000E+01 0. -1.
         -5    1    3    3    0  502 -0.31734393764E+02 -0.29129371270E+02  0.42399063189E+02  0.60586673266E+02  0.41800000000E+01 0. -1.
        -11    1    1    2    0    0  0.22287633593E+02 -0.34531426056E+02  0.14010544513E+02  0.43421807357E+02  0.00000000000E+00 0. -1.
         11    1    1    2    0    0 -0.27996966287E+02  0.25942811591E+02  0.72436186425E+02  0.81877107291E+02  0.00000000000E+00 0.  1.
</event>
<event>
 7    1  0.2666594E-009  0.1624439E+03  0.7561462E-02  0.1185965E+00
         -4   -1    0    0    0  501 -0.00000000000E+00  0.00000000000E+00  0.33946565540E+02  0.33946565540E+02  0.00000000000E+00 0.  1.
          4   -1    0    0  501    0  0.00000000000E+00 -0.00000000000E+00 -0.10095162581E+04  0.10095162581E+04  0.00000000000E+00 0. -1.
         25    2    1    2    0    0  0.13491678659E+03 -0.47290980961E+02 -0.64020974418E+03  0.66779858858E+03  0.12508981648E+03 0.  0.
          5    1    3    3  502    0  0.85226459693E+02 -0.83273105020E+02 -0.31464042893E+03  0.33647292813E+03  0.41800000000E+01 0.  1.
         -5    1    3    3    0  502  0.49690326900E+02  0.35982124058E+02 -0.32556931525E+03  0.33132566045E+03  0.41800000000E+01 0.  1.
        -11    1    1    2    0    0 -0.10174449645E+03  0.43935543902E+02 -0.32057588334E+03  0.33919193911E+03  0.00000000000E+00 0. -1.
         11    1    1    2    0    0 -0.33172290138E+02  0.33554370597E+01 -0.14784065001E+02  0.36472295908E+02  0.00000000000E+00 0.  1.
</event>
<event>
 7    1  0.2666594E-009  0.1300697E+03  0.7561462E-02  0.1227352E+00
         -4   -1    0    0    0  501 -0.00000000000E+00  0.00000000000E+00  0.13991897686E+03  0.13991897686E+03  0.00000000000E+00 0.  1.
          4   -1    0    0  501    0  0.00000000000E+00 -0.00000000000E+00 -0.36239093964E+03  0.36239093964E+03  0.00000000000E+00 0. -1.
         25    2    1    2    0    0 -0.34823125998E+02  0.91578503138E+02  0.75043026666E+02  0.17572387644E+03  0.12509257595E+03 0.  0.
          5    1    3    3  502    0 -0.54864381315E+02  0.26383415067E+02 -0.14853905532E+02  0.62803629172E+02  0.41800000000E+01 0. -1.
         -5    1    3    3    0  502  0.20041255317E+02  0.65195088071E+02  0.89896932198E+02  0.11292024726E+03  0.41800000000E+01 0. -1.
        -11    1    1    2    0    0 -0.29168766345E+02 -0.24699846096E+02 -0.54734419823E+02  0.66758939781E+02  0.00000000000E+00 0.  1.
         11    1    1    2    0    0  0.63991892343E+02 -0.66878657042E+02 -0.24278056962E+03  0.25982710028E+03  0.00000000000E+00 0. -1.
</event>
<event>
 7    1  0.2666594E-009  0.3232122E+03  0.7561462E-02  0.1074180E+00
         -3   -1    0    0    0  501 -0.00000000000E+00  0.00000000000E+00  0.17142544228E+03  0.17142544228E+03  0.00000000000E+00 0.  1.
          3   -1    0    0  501    0  0.00000000000E+00 -0.00000000000E+00 -0.63108152346E+03  0.63108152346E+03  0.00000000000E+00 0. -1.
         25    2    1    2    0    0  0.12916389281E+03  0.28172033893E+03 -0.20806268321E+03  0.39368251846E+03  0.12508470979E+03 0.  0.
          5    1    3    3  502    0  0.99233583707E+02  0.87337479241E+02 -0.50240159780E+02  0.14148033598E+03  0.41800000000E+01 0. -1.
         -5    1    3    3    0  502  0.29930309105E+02  0.19438285969E+03 -0.15782252343E+03  0.25220218247E+03  0.41800000000E+01 0. -1.
        -11    1    1    2    0    0 -0.94311822490E+02 -0.12327874712E+03 -0.15821539211E+03  0.22164042874E+03  0.00000000000E+00 0.  1.
         11    1    1    2    0    0 -0.34852070321E+02 -0.15844159180E+03 -0.93378005860E+02  0.18718401854E+03  0.00000000000E+00 0. -1.
</event>
<event>
 7    1  0.2666594E-009  0.1772316E+03  0.7561462E-02  0.1170510E+00
         -2   -1    0    0    0  501 -0.00000000000E+00  0.00000000000E+00  0.95030072504E+02  0.95030072504E+02  0.00000000000E+00 0.  1.
          2   -1    0    0  501    0  0.00000000000E+00 -0.00000000000E+00 -0.38976300281E+03  0.38976300281E+03  0.00000000000E+00 0. -1.
         25    2    1    2    0    0  0.96149866552E+02  0.11798766957E+03 -0.20694197136E+03  0.28572414837E+03  0.12508965761E+03 0.  0.
          5    1    3    3  502    0  0.10342503450E+03  0.61338619104E+02 -0.19192453668E+03  0.22652078080E+03  0.41800000000E+01 0.  1.
         -5    1    3    3    0  502 -0.72751679434E+01  0.56649050462E+02 -0.15017434678E+02  0.59203367566E+02  0.41800000000E+01 0.  1.
        -11    1    1    2    0    0 -0.25006809538E+01 -0.72893945151E+02 -0.50186814459E+02  0.88535286697E+02  0.00000000000E+00 0. -1.
         11    1    1    2    0    0 -0.93649185599E+02 -0.45093724414E+02 -0.37604144490E+02  0.11053364025E+03  0.00000000000E+00 0.  1.
</event>
<event>
 7    1  0.2666594E-009  0.1563159E+03  0.7561462E-02  0.1192920E+00
          2   -1    0    0  501    0  0.00000000000E+00  0.00000000000E+00  0.23706925452E+03  0.23706925452E+03  0.00000000000E+00 0. -1.
         -2   -1    0    0    0  501 -0.00000000000E+00 -0.00000000000E+00 -0.12733530363E+03  0.12733530363E+03  0.00000000000E+00 0.  1.
         25    2    1    2    0    0 -0.95052750361E+02  0.91197112116E+02  0.22717913615E+02  0.18307285022E+03  0.12509047237E+03 0.  0.
          5    1    3    3  502    0  0.19031093916E+02  0.45708684040E+02  0.33165515425E+02  0.59740188698E+02  0.41800000000E+01 0. -1.
         -5    1    3    3    0  502 -0.11408384428E+03  0.45488428076E+02 -0.10447601810E+02  0.12333266152E+03  0.41800000000E+01 0. -1.
        -11    1    1    2    0    0  0.26309602418E+02 -0.58056042406E+02  0.83350957885E+02  0.10492893509E+03  0.00000000000E+00 0. -1.
         11    1    1    2    0    0  0.68743147943E+02 -0.33141069710E+02  0.36650793950E+01  0.76402772840E+02  0.00000000000E+00 0.  1.
</event>
<event>
 7    1  0.2666594E-009  0.1017944E+03  0.7561462E-02  0.1276567E+00
          1   -1    0    0  501    0  0.00000000000E+00  0.00000000000E+00  0.95760427765E+02  0.95760427765E+02  0.00000000000E+00 0. -1.
         -1   -1    0    0    0  501 -0.00000000000E+00 -0.00000000000E+00 -0.16212732430E+03  0.16212732430E+03  0.00000000000E+00 0.  1.
         25    2    1    2    0    0  0.29230252204E+02 -0.17706648115E+02 -0.85442596489E+02  0.15528069742E+03  0.12507487624E+03 0.  0.
          5    1    3    3  502    0  0.59518785249E+02  0.23788235407E+02 -0.11667573903E+02  0.65283769975E+02  0.41800000000E+01 0. -1.
         -5    1    3    3    0  502 -0.30288533045E+02 -0.41494883522E+02 -0.73775022586E+02  0.89996927448E+02  0.41800000000E+01 0. -1.
        -11    1    1    2    0    0  0.74346656613E+01  0.42762903640E+02  0.34658075823E+02  0.55543878159E+02  0.00000000000E+00 0. -1.
         11    1    1    2    0    0 -0.36664917865E+02 -0.25056255525E+02 -0.15582375869E+02  0.47063176483E+02  0.00000000000E+00 0.  1.
</event>
<event>
 7    1  0.3510788E-009  0.2640131E+03  0.7561462E-02  0.1104756E+00
         -2   -1    0    0    0  501 -0.00000000000E+00  0.00000000000E+00  0.61075646504E+02  0.61075646504E+02  0.00000000000E+00 0.  1.
          2   -1    0    0  501    0  0.00000000000E+00 -0.00000000000E+00 -0.11983432322E+04  0.11983432322E+04  0.00000000000E+00 0. -1.
         25    2    1    2    0    0  0.14886769739E+03 -0.19204030650E+03 -0.47593564986E+03  0.54882097182E+03  0.12509454683E+03 0.  0.
          5    1    3    3  502    0  0.40104169356E+02 -0.14684638683E+03 -0.30887011271E+03  0.34436960471E+03  0.41800000000E+01 0. -1.
         -5    1    3    3    0  502  0.10876352804E+03 -0.45193919669E+02 -0.16706553716E+03  0.20445136710E+03  0.41800000000E+01 0. -1.
        -11    1    1    2    0    0 -0.74953397132E+02  0.31790812114E+02 -0.25256876307E+03  0.26536700540E+03  0.00000000000E+00 0. -1.
         11    1    1    2    0    0 -0.73914300261E+02  0.16024949439E+03 -0.40876317281E+03  0.44523090153E+03  0.00000000000E+00 0.  1.
</event>
<event>
 7    1  0.2666594E-009  0.1330224E+03  0.7561462E-02  0.1223039E+00
         -2   -1    0    0    0  501 -0.00000000000E+00  0.00000000000E+00  0.36645665350E+02  0.36645665350E+02  0.00000000000E+00 0.  1.
          2   -1    0    0  501    0  0.00000000000E+00 -0.00000000000E+00 -0.71065394727E+03  0.71065394727E+03  0.00000000000E+00 0. -1.
         25    2    1    2    0    0 -0.39342606434E+02  0.87973246466E+02 -0.51940790522E+03  0.54288039342E+03  0.12508963497E+03 0.  0.
          5    1    3    3  502    0 -0.63465942627E+01 -0.30695087662E+02 -0.68727051934E+02  0.75652810475E+02  0.41800000000E+01 0. -1.
         -5    1    3    3    0  502 -0.32996012171E+02  0.11866833413E+03 -0.45068085329E+03  0.46722758294E+03  0.41800000000E+01 0. -1.
        -11    1    1    2    0    0  0.51582139553E+02 -0.52258090536E+02 -0.39695195785E+02  0.83470555981E+02  0.00000000000E+00 0.  1.
         11    1    1    2    0    0 -0.12239533120E+02 -0.35715155930E+02 -0.11490518092E+03  0.12094866322E+03  0.00000000000E+00 0. -1.
</event>
<event>
 7    1  0.2666594E-009  0.2377631E+03  0.7561462E-02  0.1121292E+00
         -1   -1    0    0    0  501 -0.00000000000E+00  0.00000000000E+00  0.12246004451E+03  0.12246004451E+03  0.00000000000E+00 0.  1.
          1   -1    0    0  501    0  0.00000000000E+00 -0.00000000000E+00 -0.56567654966E+03  0.56567654966E+03  0.00000000000E+00 0. -1.
         25    2    1    2    0    0  0.21630209331E+03  0.91401586149E+02 -0.28791771205E+03  0.39202666219E+03  0.12508976551E+03 0.  0.
          5    1    3    3  502    0  0.13216174574E+03  0.46377599441E+02 -0.75616064022E+02  0.15922584685E+03  0.41800000000E+01 0.  1.
         -5    1    3    3    0  502  0.84140347570E+02  0.45023986708E+02 -0.21230164803E+03  0.23280081534E+03  0.41800000000E+01 0.  1.
        -11    1    1    2    0    0 -0.29804095164E+02 -0.32966176956E+02 -0.69892181730E+02  0.82824935730E+02  0.00000000000E+00 0. -1.
         11    1    1    2    0    0 -0.18649799815E+03 -0.58435409193E+02 -0.85406611372E+02  0.21328499625E+03  0.00000000000E+00 0.  1.
</event>
<event>
 7    1  0.2666594E-009  0.1008050E+03  0.7561462E-02  0.1278612E+00
         -1   -1    0    0    0  501 -0.00000000000E+00  0.00000000000E+00  0.41844419523E+02  0.41844419523E+02  0.00000000000E+00 0.  1.
          1   -1    0    0  501    0  0.00000000000E+00 -0.00000000000E+00 -0.59798548946E+03  0.59798548946E+03  0.00000000000E+00 0. -1.
         25    2    1    2    0    0 -0.39860448964E+02 -0.44393635237E+01 -0.51548433463E+03  0.53195982045E+03  0.12509431634E+03 0.  0.
          5    1    3    3  502    0  0.16551263710E+02  0.30754022388E+02 -0.37316820966E+03  0.37482227699E+03  0.41800000000E+01 0. -1.
         -5    1    3    3    0  502 -0.56411712673E+02 -0.35193385911E+02 -0.14231612497E+03  0.15713754346E+03  0.41800000000E+01 0. -1.
        -11    1    1    2    0    0  0.24528415242E+02 -0.43250213649E+02 -0.17842149090E+02  0.52825812053E+02  0.00000000000E+00 0. -1.
         11    1    1    2    0    0  0.15332033721E+02  0.47689577172E+02 -0.22814586213E+02  0.55044276478E+02  0.00000000000E+00 0.  1.
</event>
<event>
 7    1  0.2666594E-009  0.9792949E+02  0.7561462E-02  0.1284711E+00
         -1   -1    0    0    0  501 -0.00000000000E+00  0.00000000000E+00  0.58153424000E+02  0.58153424000E+02  0.00000000000E+00 0.  1.
          1   -1    0    0  501    0  0.00000000000E+00 -0.00000000000E+00 -0.32702294669E+03  0.32702294669E+03  0.00000000000E+00 0. -1.
         25    2    1    2    0    0 -0.52314428340E+02 -0.55915324261E+02 -0.19862072681E+03  0.24690337365E+03  0.12509100648E+03 0.  0.
          5    1    3    3  502    0 -0.17940991077E+02 -0.26734096527E+02  0.95679652169E+01  0.33846852680E+02  0.41800000000E+01 0. -1.
         -5    1    3    3    0  502 -0.34373437264E+02 -0.29181227734E+02 -0.20818869202E+03  0.21305652097E+03  0.41800000000E+01 0. -1.
        -11    1    1    2    0    0  0.49789365023E+02 -0.11128826171E+02 -0.21612625785E+02  0.55407014309E+02  0.00000000000E+00 0.  1.
         11    1    1    2    0    0  0.25250633175E+01  0.67044150431E+02 -0.48636170094E+02  0.82865982726E+02  0.00000000000E+00 0. -1.
</event>
<event>
 7    1  0.2666594E-009  0.9455442E+02  0.7561462E-02  0.1292183E+00
          3   -1    0    0  501    0  0.00000000000E+00  0.00000000000E+00  0.65289266466E+02  0.65289266466E+02  0.00000000000E+00 0. -1.
         -3   -1    0    0    0  501 -0.00000000000E+00 -0.00000000000E+00 -0.35609531701E+03  0.35609531701E+03  0.00000000000E+00 0.  1.
         25    2    1    2    0    0 -0.42932547587E+02 -0.11328530779E+02 -0.28850508956E+03  0.31757613056E+03  0.12509145753E+03 0.  0.
          5    1    3    3  502    0  0.20230495692E+02 -0.37478355447E+02 -0.35924406738E+02  0.55874282836E+02  0.41800000000E+01 0. -1.
         -5    1    3    3    0  502 -0.63163043279E+02  0.26149824668E+02 -0.25258068282E+03  0.26170184772E+03  0.41800000000E+01 0. -1.
        -11    1    1    2    0    0  0.44273220751E+02 -0.18487608369E+02 -0.35111707363E+02  0.59453694022E+02  0.00000000000E+00 0.  1.
         11    1    1    2    0    0 -0.13406731641E+01  0.29816139147E+02  0.32810746383E+02  0.44354758892E+02  0.00000000000E+00 0. -1.
</event>
<event>
 7    1  0.2666594E-009  0.1054081E+03  0.7561462E-02  0.1269318E+00
          2   -1    0    0  501    0  0.00000000000E+00  0.00000000000E+00  0.11968911233E+04  0.11968911233E+04  0.00000000000E+00 0.  1.
         -2   -1    0    0    0  501 -0.00000000000E+00 -0.00000000000E+00 -0.10677324850E+02  0.10677324850E+02  0.00000000000E+00 0. -1.
         25    2    1    2    0    0  0.17051379502E+02 -0.21174117237E+02  0.77036705988E+03  0.78093004675E+03  0.12508892107E+03 0.  0.
          5    1    3    3  502    0 -0.17979912131E+02  0.40653007944E+02  0.15032804413E+03  0.15681816715E+03  0.41800000000E+01 0. -1.
         -5    1    3    3    0  502  0.35031291633E+02 -0.61827125181E+02  0.62003901575E+03  0.62411187960E+03  0.41800000000E+01 0. -1.
        -11    1    1    2    0    0 -0.25438832926E+02 -0.32154011407E+02  0.16119284233E+03  0.16632542526E+03  0.00000000000E+00 0. -1.
         11    1    1    2    0    0  0.83874534247E+01  0.53328128644E+02  0.25465389623E+03  0.26031297613E+03  0.00000000000E+00 0.  1.
</event>
<event>
 7    1  0.2666594E-009  0.1301183E+03  0.7561462E-02  0.1227280E+00
          2   -1    0    0  501    0  0.00000000000E+00  0.00000000000E+00  0.57053127681E+03  0.57053127681E+03  0.00000000000E+00 0. -1.
         -2   -1    0    0    0  501 -0.00000000000E+00 -0.00000000000E+00 -0.40629493569E+02  0.40629493569E+02  0.00000000000E+00 0.  1.
         25    2    1    2    0    0  0.84469032032E+02  0.62665977217E+02  0.30046029280E+03  0.34203363121E+03  0.12509426547E+03 0.  0.
          5    1    3    3  502    0  0.24954239766E+02 -0.15352890344E+02  0.41688274678E+01  0.29887737397E+02  0.41800000000E+01 0.  1.
         -5    1    3    3    0  502  0.59514792265E+02  0.78018867561E+02  0.29629146533E+03  0.31214589381E+03  0.41800000000E+01 0.  1.
        -11    1    1    2    0    0  0.15869549616E+02 -0.12744850335E+02  0.98972893795E+01  0.22632502119E+02  0.00000000000E+00 0. -1.
         11    1    1    2    0    0 -0.10033858165E+03 -0.49921126881E+02  0.21954420106E+03  0.24649463705E+03  0.00000000000E+00 0.  1.
</event>
<event>
 7    1  0.2666594E-009  0.9818979E+02  0.7561462E-02  0.1284149E+00
         -2   -1    0    0    0  501 -0.00000000000E+00  0.00000000000E+00  0.13251591769E+02  0.13251591769E+02  0.00000000000E+00 0.  1.
          2   -1    0    0  501    0  0.00000000000E+00 -0.00000000000E+00 -0.13225479248E+04  0.13225479248E+04  0.00000000000E+00 0. -1.
         25    2    1    2    0    0  0.33542462600E+02  0.68058335936E+02 -0.74404886985E+03  0.75829618310E+03  0.12508935481E+03 0.  0.
          5    1    3    3  502    0  0.12284032506E+02  0.43611200031E+02 -0.70200659344E+02  0.83656674540E+02  0.41800000000E+01 0. -1.
         -5    1    3    3    0  502  0.21258430094E+02  0.24447135905E+02 -0.67384821051E+03  0.67463950856E+03  0.41800000000E+01 0. -1.
        -11    1    1    2    0    0 -0.30952956076E+02  0.15498413805E+02 -0.17815936384E+03  0.18149117125E+03  0.00000000000E+00 0. -1.
         11    1    1    2    0    0 -0.25895065240E+01 -0.83556749741E+02 -0.38708809937E+03  0.39601216224E+03  0.00000000000E+00 0.  1.
</event>
<event>
 7    1  0.2666594E-009  0.1117595E+03  0.7561462E-02  0.1257346E+00
          1   -1    0    0  501    0  0.00000000000E+00  0.00000000000E+00  0.22248399900E+03  0.22248399900E+03  0.00000000000E+00 0. -1.
         -1   -1    0    0    0  501 -0.00000000000E+00 -0.00000000000E+00 -0.99888010010E+02  0.99888010010E+02  0.00000000000E+00 0.  1.
         25    2    1    2    0    0  0.89889727588E+02  0.42275383082E+02  0.90533694653E+02  0.18360599702E+03  0.12508973233E+03 0.  0.
          5    1    3    3  502    0  0.40962291911E+02  0.59112360253E+02  0.10713607633E+03  0.12910380221E+03  0.41800000000E+01 0.  1.
         -5    1    3    3    0  502  0.48927435677E+02 -0.16836977171E+02 -0.16602381677E+02  0.54502194814E+02  0.41800000000E+01 0.  1.
        -11    1    1    2    0    0 -0.32778094500E+02 -0.11827654818E+02 -0.32282628398E+02  0.47502263039E+02  0.00000000000E+00 0.  1.
         11    1    1    2    0    0 -0.57111633088E+02 -0.30447728264E+02  0.64344922738E+02  0.91263748951E+02  0.00000000000E+00 0. -1.
</event>
<event>
 7    1  0.2666594E-009  0.1214511E+03  0.7561462E-02  0.1240722E+00
          2   -1    0    0  501    0  0.00000000000E+00  0.00000000000E+00  0.73341024962E+03  0.73341024962E+03  0.00000000000E+00 0. -1.
         -2   -1    0    0    0  501 -0.00000000000E+00 -0.00000000000E+00 -0.39707922847E+02  0.39707922847E+02  0.00000000000E+00 0.  1.
         25    2    1    2    0    0  0.13248509682E+02 -0.66972487645E+02  0.11573297135E+03  0.18358136642E+03  0.12508860991E+03 0.  0.
          5    1    3    3  502    0 -0.47049640996E+02 -0.25302356213E+02  0.91924676875E+02  0.10640252143E+03  0.41800000000E+01 0. -1.
         -5    1    3    3    0  502  0.60298150678E+02 -0.41670131432E+02  0.23808294479E+02  0.77178844995E+02  0.41800000000E+01 0. -1.
        -11    1    1    2    0    0 -0.30210763842E+02  0.85560938448E+02  0.46934860194E+03  0.47803919775E+03  0.00000000000E+00 0.  1.
         11    1    1    2    0    0  0.16962254161E+02 -0.18588450803E+02  0.10862075348E+03  0.11149760830E+03  0.00000000000E+00 0. -1.
</event>
<event>
 7    1  0.2666594E-009  0.8692776E+02  0.7561462E-02  0.1310467E+00
          4   -1    0    0  501    0  0.00000000000E+00  0.00000000000E+00  0.61429018419E+02  0.61429018419E+02  0.00000000000E+00 0. -1.
         -4   -1    0    0    0  501 -0.00000000000E+00 -0.00000000000E+00 -0.22851054122E+03  0.22851054122E+03  0.00000000000E+00 0.  1.
         25    2    1    2    0    0  0.39168675801E+02 -0.30658805194E+02 -0.10227934022E+03  0.16906728523E+03  0.12509410857E+03 0.  0.
          5    1    3    3  502    0  0.12606519250E+02 -0.40943236530E+02  0.17062660614E+02  0.46302048900E+02  0.41800000000E+01 0.  1.
         -5    1    3    3    0  502  0.26562156551E+02  0.10284431337E+02 -0.11934200083E+03  0.12276523633E+03  0.41800000000E+01 0.  1.
        -11    1    1    2    0    0 -0.33745104121E+02 -0.27549603273E+02 -0.28506540751E+02  0.52060883186E+02  0.00000000000E+00 0. -1.
         11    1    1    2    0    0 -0.54235716803E+01  0.58208408466E+02 -0.36295641830E+02  0.68811391221E+02  0.00000000000E+00 0.  1.
</event>
<event>
 7    1  0.2666594E-009  0.1334946E+03  0.7561462E-02  0.1222361E+00
          2   -1    0    0  501    0  0.00000000000E+00  0.00000000000E+00  0.57049867488E+03  0.57049867488E+03  0.00000000000E+00 0. -1.
         -2   -1    0    0    0  501 -0.00000000000E+00 -0.00000000000E+00 -0.49144539055E+02  0.49144539055E+02  0.00000000000E+00 0.  1.
         25    2    1    2    0    0 -0.87538568402E+02 -0.90462522561E+02  0.30016062503E+03  0.34869774719E+03  0.12508896486E+03 0.  0.
          5    1    3    3  502    0 -0.86617681194E+02 -0.98738323765E+02  0.30904443116E+03  0.33582407910E+03  0.41800000000E+01 0. -1.
         -5    1    3    3    0  502 -0.92088720792E+00  0.82758012042E+01 -0.88838061242E+01  0.12873668089E+02  0.41800000000E+01 0. -1.
        -11    1    1    2    0    0  0.35563598104E+02  0.43714343980E+02  0.18259147971E+03  0.19108993129E+03  0.00000000000E+00 0.  1.
         11    1    1    2    0    0  0.51974970298E+02  0.46748178581E+02  0.38602031081E+02  0.79855535448E+02  0.00000000000E+00 0. -1.
</event>
<event>
 7    1  0.3436610E-009  0.1309536E+03  0.7561462E-02  0.1226048E+00
         -4   -1    0    0    0  501 -0.00000000000E+00  0.00000000000E+00  0.14613186192E+03  0.14613186192E+03  0.00000000000E+00 0.  1.
          4   -1    0    0  501    0  0.00000000000E+00 -0.00000000000E+00 -0.13074298599E+03  0.13074298599E+03  0.00000000000E+00 0. -1.
         25    2    1    2    0    0 -0.57367013314E+02 -0.57988580593E+02 -0.17036099219E+02  0.15031130633E+03  0.12509840303E+03 0.  0.
          5    1    3    3  502    0  0.33182835495E+02  0.11038516417E+02 -0.72274082948E+01  0.35953542897E+02  0.41800000000E+01 0. -1.
         -5    1    3    3    0  502 -0.90549848809E+02 -0.69027097010E+02 -0.98086909241E+01  0.11435776344E+03  0.41800000000E+01 0. -1.
        -11    1    1    2    0    0 -0.12887579614E+02  0.37375493460E+02 -0.11510529526E+02  0.41176565054E+02  0.00000000000E+00 0. -1.
         11    1    1    2    0    0  0.70254592928E+02  0.20613087133E+02  0.43935504679E+02  0.85386976524E+02  0.00000000000E+00 0.  1.
</event>
<event>
 7    1  0.3261868E-009  0.1231345E+03  0.7561462E-02  0.1238014E+00
          2   -1    0    0  501    0  0.00000000000E+00  0.00000000000E+00  0.16277337461E+04  0.16277337461E+04  0.00000000000E+00 0. -1.
         -2   -1    0    0    0  501 -0.00000000000E+00 -0.00000000000E+00 -0.11179992178E+02  0.11179992178E+02  0.00000000000E+00 0.  1.
         25    2    1    2    0    0  0.62609371890E+02 -0.33935507104E+02  0.11074233204E+04  0.11167387922E+04  0.12509023680E+03 0.  0.
          5    1    3    3  502    0  0.56118032373E+02  0.35491072469E+02  0.72008230787E+03  0.72314926004E+03  0.41800000000E+01 0.  1.
         -5    1    3    3    0  502  0.64913395177E+01 -0.69426579573E+02  0.38734101254E+03  0.39358953217E+03  0.41800000000E+01 0.  1.
        -11    1    1    2    0    0 -0.17992848425E+02  0.56919204525E+02  0.35762507176E+03  0.36257306904E+03  0.00000000000E+00 0.  1.
         11    1    1    2    0    0 -0.44616523466E+02 -0.22983697421E+02  0.15150536173E+03  0.15960187701E+03  0.00000000000E+00 0. -1.
</event>
<event>
 7    1  0.2666594E-009  0.1922324E+03  0.7561462E-02  0.1156463E+00
          1   -1    0    0  501    0  0.00000000000E+00  0.00000000000E+00  0.38078201105E+02  0.38078201105E+02  0.00000000000E+00 0. -1.
         -1   -1    0    0    0  501 -0.00000000000E+00 -0.00000000000E+00 -0.10481531909E+04  0.10481531909E+04  0.00000000000E+00 0.  1.
         25    2    1    2    0    0 -0.15430711110E+03  0.55603374517E+02 -0.43466721609E+03  0.48112915767E+03  0.12508899961E+03 0.  0.
          5    1    3    3  502    0 -0.94046105774E+02  0.94166960775E+02 -0.25441048471E+03  0.28714848709E+03  0.41800000000E+01 0. -1.
         -5    1    3    3    0  502 -0.60261005325E+02 -0.38563586257E+02 -0.18025673138E+03  0.19398067058E+03  0.41800000000E+01 0. -1.
        -11    1    1    2    0    0  0.87275293209E+02  0.74845515092E+01 -0.19593046345E+03  0.21461999400E+03  0.00000000000E+00 0. -1.
         11    1    1    2    0    0  0.67031817890E+02 -0.63087926027E+02 -0.37947731028E+03  0.39048224036E+03  0.00000000000E+00 0.  1.
</event>
<event>
 7    1  0.2666594E-009  0.1203361E+03  0.7561462E-02  0.1242544E+00
         -2   -1    0    0    0  501 -0.00000000000E+00  0.00000000000E+00  0.36308589384E+03  0.36308589384E+03  0.00000000000E+00 0.  1.
          2   -1    0    0  501    0  0.00000000000E+00 -0.00000000000E+00 -0.64282634074E+02  0.64282634074E+02  0.00000000000E+00 0. -1.
         25    2    1    2    0    0 -0.64753922100E+02 -0.83351980499E+02  0.13383609136E+03  0.21142494213E+03  0.12509110169E+03 0.  0.
          5    1    3    3  502    0 -0.44202697382E+01  0.12207867074E+02  0.88567032610E+02  0.89611173792E+02  0.41800000000E+01 0. -1.
         -5    1    3    3    0  502 -0.60333652362E+02 -0.95559847573E+02  0.45269058751E+02  0.12181376833E+03  0.41800000000E+01 0. -1.
        -11    1    1    2    0    0  0.26230780582E+01  0.35301944939E+02  0.25006851153E+01  0.35487480624E+02  0.00000000000E+00 0. -1.
         11    1    1    2    0    0  0.62130844042E+02  0.48050035560E+02  0.16246648329E+03  0.18045610516E+03  0.00000000000E+00 0.  1.
</event>
<event>
 7    1  0.2666594E-009  0.9597770E+02  0.7561462E-02  0.1288989E+00
          4   -1    0    0  501    0  0.00000000000E+00  0.00000000000E+00  0.61364558364E+02  0.61364558364E+02  0.00000000000E+00 0. -1.
         -4   -1    0    0    0  501 -0.00000000000E+00 -0.00000000000E+00 -0.19782120739E+03  0.19782120739E+03  0.00000000000E+00 0.  1.
         25    2    1    2    0    0 -0.28545475593E+01 -0.48213104681E+01 -0.59092980378E+02  0.13845952283E+03  0.12509062977E+03 0.  0.
          5    1    3    3  502    0 -0.48747126756E+02  0.15589637189E+02 -0.70076250161E+02  0.86876190014E+02  0.41800000000E+01 0.  1.
         -5    1    3    3    0  502  0.45892579197E+02 -0.20410947657E+02  0.10983269783E+02  0.51583332819E+02  0.41800000000E+01 0.  1.
        -11    1    1    2    0    0  0.21628983132E+02 -0.37845711121E+02 -0.23602803375E+02  0.49570183465E+02  0.00000000000E+00 0. -1.
         11    1    1    2    0    0 -0.18774435573E+02  0.42667021589E+02 -0.53760865269E+02  0.71156059453E+02  0.00000000000E+00 0.  1.
</event>
<event>
 7    1  0.2666594E-009  0.7598391E+02  0.7561462E-02  0.1340851E+00
         -4   -1    0    0    0  501 -0.00000000000E+00  0.00000000000E+00  0.10637983504E+03  0.10637983504E+03  0.00000000000E+00 0.  1.
          4   -1    0    0  501    0  0.00000000000E+00 -0.00000000000E+00 -0.13859135840E+03  0.13859135840E+03  0.00000000000E+00 0. -1.
         25    2    1    2    0    0 -0.24071019314E+02 -0.47965596445E+02 -0.26053854130E+02  0.13858724188E+03  0.12508999913E+03 0.  0.
          5    1    3    3  502    0 -0.37797093674E+02 -0.55852448722E+02 -0.66591183667E+02  0.94868195201E+02  0.41800000000E+01 0.  1.
         -5    1    3    3    0  502  0.13726074361E+02  0.78868522774E+01  0.40537329537E+02  0.43719046675E+02  0.41800000000E+01 0.  1.
        -11    1    1    2    0    0  0.33339663036E+02  0.20737029741E+02  0.37374942896E+02  0.54207415456E+02  0.00000000000E+00 0.  1.
         11    1    1    2    0    0 -0.92686437227E+01  0.27228566704E+02 -0.43532612127E+02  0.52176536104E+02  0.00000000000E+00 0. -1.
</event>
<event>
 7    1  0.2666594E-009  0.9573196E+02  0.7561462E-02  0.1289536E+00
         -2   -1    0    0    0  501 -0.00000000000E+00  0.00000000000E+00  0.18956123457E+02  0.18956123457E+02  0.00000000000E+00 0.  1.
          2   -1    0    0  501    0  0.00000000000E+00 -0.00000000000E+00 -0.96439701032E+03  0.96439701032E+03  0.00000000000E+00 0. -1.
         25    2    1    2    0    0  0.30065928388E+02 -0.32266087056E+02 -0.76047308102E+03  0.77195028674E+03  0.12507149087E+03 0.  0.
          5    1    3    3  502    0  0.47152413900E+02  0.28933350690E+02 -0.52823914373E+03  0.53114457005E+03  0.41800000000E+01 0.  1.
         -5    1    3    3    0  502 -0.17086485512E+02 -0.61199437746E+02 -0.23223393728E+03  0.24080571670E+03  0.41800000000E+01 0.  1.
        -11    1    1    2    0    0  0.16538499471E+02  0.15818983128E+02 -0.32877312477E+01  0.23120799482E+02  0.00000000000E+00 0.  1.
         11    1    1    2    0    0 -0.46604427860E+02  0.16447103928E+02 -0.18168007460E+03  0.18828204755E+03  0.00000000000E+00 0. -1.
</event>
<event>
 7    1  0.2666594E-009  0.1196154E+03  0.7561462E-02  0.1243733E+00
          1   -1    0    0  501    0  0.00000000000E+00  0.00000000000E+00  0.17320666301E+03  0.17320666301E+03  0.00000000000E+00 0. -1.
         -1   -1    0    0    0  501 -0.00000000000E+00 -0.00000000000E+00 -0.12913829171E+03  0.12913829171E+03  0.00000000000E+00 0.  1.
         25    2    1    2    0    0 -0.44271662285E+02  0.91387798282E+02  0.15317921327E+01  0.16112593201E+03  0.12509000688E+03 0.  0.
          5    1    3    3  502    0  0.90717353318E+01  0.78152724029E+02  0.45174617378E+02  0.90820499395E+02  0.41800000000E+01 0.  1.
         -5    1    3    3    0  502 -0.53343397616E+02  0.13235074253E+02 -0.43642825245E+02  0.70305432614E+02  0.41800000000E+01 0.  1.
        -11    1    1    2    0    0  0.15394626069E+02 -0.85791537598E+01  0.50182414398E+02  0.53187132898E+02  0.00000000000E+00 0. -1.
         11    1    1    2    0    0  0.28877036215E+02 -0.82808644522E+02 -0.76458352334E+01  0.88031889816E+02  0.00000000000E+00 0.  1.
</event>
<event>
 7    1  0.2666594E-009  0.9510206E+02  0.7561462E-02  0.1290946E+00
         -1   -1    0    0    0  501 -0.00000000000E+00  0.00000000000E+00  0.41976306337E+03  0.41976306337E+03  0.00000000000E+00 0.  1.
          1   -1    0    0  501    0  0.00000000000E+00 -0.00000000000E+00 -0.37160505263E+02  0.37160505263E+02  0.00000000000E+00 0. -1.
         25    2    1    2    0    0 -0.40564067062E+01 -0.61576273654E+02  0.21551521596E+03  0.25671379839E+03  0.12508826508E+03 0.  0.
          5    1    3    3  502    0 -0.10362455749E+02 -0.76598306716E+02  0.54137064494E+02  0.94461501327E+02  0.41800000000E+01 0.  1.
         -5    1    3    3    0  502  0.63060490427E+01  0.15022033062E+02  0.16137815147E+03  0.16225229706E+03  0.41800000000E+01 0.  1.
        -11    1    1    2    0    0  0.31443434492E+02  0.33392791482E+01  0.14859902940E+02  0.34937903103E+02  0.00000000000E+00 0. -1.
         11    1    1    2    0    0 -0.27387027785E+02  0.58236994506E+02  0.15222743921E+03  0.16527186714E+03  0.00000000000E+00 0.  1.
</event>
<event>
 7    1  0.2666594E-009  0.1052927E+03  0.7561462E-02  0.1269544E+00
         -4   -1    0    0    0  501 -0.00000000000E+00  0.00000000000E+00  0.63972647402E+03  0.63972647402E+03  0.00000000000E+00 0. -1.
          4   -1    0    0  501    0  0.00000000000E+00 -0.00000000000E+00 -0.33132137882E+02  0.33132137882E+02  0.00000000000E+00 0.  1.
         25    2    1    2    0    0  0.89502566044E+02 -0.28708820830E+02  0.28065109171E+03  0.32132174900E+03  0.12509086849E+03 0.  0.
          5    1    3    3  502    0  0.68527473367E+02  0.12649913555E+02  0.26203787652E+03  0.27117772042E+03  0.41800000000E+01 0. -1.
         -5    1    3    3    0  502  0.20975092677E+02 -0.41358734385E+02  0.18613215191E+02  0.50144028582E+02  0.41800000000E+01 0. -1.
        -11    1    1    2    0    0 -0.64982722439E+02  0.17800901089E+02  0.31570333739E+03  0.32281298539E+03  0.00000000000E+00 0. -1.
         11    1    1    2    0    0 -0.24519843605E+02  0.10907919740E+02  0.10239907038E+02  0.28723877517E+02  0.00000000000E+00 0.  1.
</event>
<event>
 7    1  0.2666594E-009  0.1072014E+03  0.7561462E-02  0.1265842E+00
          1   -1    0    0  501    0  0.00000000000E+00  0.00000000000E+00  0.21079614009E+03  0.21079614009E+03  0.00000000000E+00 0. -1.
         -1   -1    0    0    0  501 -0.00000000000E+00 -0.00000000000E+00 -0.65671472502E+02  0.65671472502E+02  0.00000000000E+00 0.  1.
         25    2    1    2    0    0  0.41511381882E+02 -0.19103971279E+02  0.80437803710E+02  0.15558241146E+03  0.12508992744E+03 0.  0.
          5    1    3    3  502    0 -0.33625412199E+02  0.25930456173E+02  0.11950368318E+02  0.44309599477E+02  0.41800000000E+01 0. -1.
         -5    1    3    3    0  502  0.75136794080E+02 -0.45034427451E+02  0.68487435391E+02  0.11127281198E+03  0.41800000000E+01 0. -1.
        -11    1    1    2    0    0 -0.61345166897E+02  0.97795898977E+01  0.74390729296E+02  0.96916719328E+02  0.00000000000E+00 0. -1.
         11    1    1    2    0    0  0.19833785015E+02  0.93243813809E+01 -0.97038654132E+01  0.23968481807E+02  0.00000000000E+00 0.  1.
</event>
<event>
 7    1  0.2666594E-009  0.1091548E+03  0.7561462E-02  0.1262143E+00
         -1   -1    0    0    0  501 -0.00000000000E+00  0.00000000000E+00  0.27230432724E+02  0.27230432724E+02  0.00000000000E+00 0.  1.
          1   -1    0    0  501    0  0.00000000000E+00 -0.00000000000E+00 -0.56038644824E+03  0.56038644824E+03  0.00000000000E+00 0. -1.
         25    2    1    2    0    0 -0.46546747169E+02  0.50644817396E+02 -0.39311086935E+03  0.41822868925E+03  0.12509030224E+03 0.  0.
          5    1    3    3  502    0  0.33213881540E+02  0.19783246217E+02 -0.23707867741E+03  0.24024635364E+03  0.41800000000E+01 0. -1.
         -5    1    3    3    0  502 -0.79760628709E+02  0.30861571179E+02 -0.15603219194E+03  0.17798233561E+03  0.41800000000E+01 0. -1.
        -11    1    1    2    0    0  0.23748524737E+02  0.12377563752E+02 -0.54428069896E+02  0.60659799738E+02  0.00000000000E+00 0.  1.
         11    1    1    2    0    0  0.22798222432E+02 -0.63022381147E+02 -0.85617076271E+02  0.10872839197E+03  0.00000000000E+00 0. -1.
</event>
<event>
 7    1  0.2666594E-009  0.1380341E+03  0.7561462E-02  0.1215999E+00
         -2   -1    0    0    0  501 -0.00000000000E+00  0.00000000000E+00  0.29423588089E+02  0.29423588089E+02  0.00000000000E+00 0.  1.
          2   -1    0    0  501    0  0.00000000000E+00 -0.00000000000E+00 -0.74718291979E+03  0.74718291979E+03  0.00000000000E+00 0. -1.
         25    2    1    2    0    0  0.89901585327E+02 -0.13885619349E+02 -0.48312571557E+03  0.50728057723E+03  0.12509205216E+03 0.  0.
          5    1    3    3  502    0  0.11381988916E+03 -0.27133257034E+02 -0.29931227531E+03  0.32139771523E+03  0.41800000000E+01 0. -1.
         -5    1    3    3    0  502 -0.23918303828E+02  0.13247637686E+02 -0.18381344027E+03  0.18588286200E+03  0.41800000000E+01 0. -1.
        -11    1    1    2    0    0 -0.30973288885E+02 -0.40601111483E+02 -0.76289215039E+02  0.91803263609E+02  0.00000000000E+00 0.  1.
         11    1    1    2    0    0 -0.58928296443E+02  0.54486730831E+02 -0.15834440109E+03  0.17752266705E+03  0.00000000000E+00 0. -1.
</event>
<event>
 7    1  0.2866976E-009  0.1368609E+03  0.7561462E-02  0.1217616E+00
         -1   -1    0    0    0  501 -0.00000000000E+00  0.00000000000E+00  0.61977238859E+02  0.61977238859E+02  0.00000000000E+00 0.  1.
          1   -1    0    0  501    0  0.00000000000E+00 -0.00000000000E+00 -0.42643231060E+03  0.42643231060E+03  0.00000000000E+00 0. -1.
         25    2    1    2    0    0  0.37050644397E+02 -0.11322089929E+03 -0.16613233587E+03  0.23966530993E+03  0.12509110871E+03 0.  0.
          5    1    3    3  502    0  0.43799795347E+01  0.15905691599E+02  0.92720673296E+01  0.19380889519E+02  0.41800000000E+01 0. -1.
         -5    1    3    3    0  502  0.32670664863E+02 -0.12912659089E+03 -0.17540440320E+03  0.22028442041E+03  0.41800000000E+01 0. -1.
        -11    1    1    2    0    0 -0.16638211857E+02  0.12867723948E+02  0.45222354764E+01  0.21514158759E+02  0.00000000000E+00 0.  1.
         11    1    1    2    0    0 -0.20412432540E+02  0.10035317534E+03 -0.20284497136E+03  0.22723008077E+03  0.00000000000E+00 0. -1.
</event>
<event>
 7    1  0.2666594E-009  0.1139415E+03  0.7561462E-02  0.1253440E+00
          3   -1    0    0  501    0  0.00000000000E+00  0.00000000000E+00  0.48069020539E+02  0.48069020539E+02  0.00000000000E+00 0. -1.
         -3   -1    0    0    0  501 -0.00000000000E+00 -0.00000000000E+00 -0.34828733629E+03  0.34828733629E+03  0.00000000000E+00 0.  1.
         25    2    1    2    0    0  0.44110942988E+02 -0.62583396182E+01 -0.83043206908E+02  0.15661242887E+03  0.12508531711E+03 0.  0.
          5    1    3    3  502    0  0.65581220139E+02 -0.49785574296E+02 -0.40127335723E+02  0.91690650096E+02  0.41800000000E+01 0. -1.
         -5    1    3    3    0  502 -0.21470277150E+02  0.43527234678E+02 -0.42915871185E+02  0.64921778774E+02  0.41800000000E+01 0. -1.
        -11    1    1    2    0    0  0.16628008520E+02  0.27704240750E+02 -0.11052358840E+03  0.11514981205E+03  0.00000000000E+00 0.  1.
         11    1    1    2    0    0 -0.60738951509E+02 -0.21445901132E+02 -0.10665152044E+03  0.12459411590E+03  0.00000000000E+00 0. -1.
</event>
<event>
 7    1  0.2666594E-009  0.3703841E+03  0.7561462E-02  0.1054546E+00
         -1   -1    0    0    0  501 -0.00000000000E+00  0.00000000000E+00  0.57252604046E+03  0.57252604046E+03  0.00000000000E+00 0.  1.
          1   -1    0    0  501    0  0.00000000000E+00 -0.00000000000E+00 -0.27002216329E+03  0.27002216329E+03  0.00000000000E+00 0. -1.
         25    2    1    2    0    0  0.30101835040E+03 -0.19793050816E+03  0.31843587954E+02  0.38268796556E+03  0.12509009376E+03 0.  0.
          5    1    3    3  502    0  0.31124386429E+03 -0.19495779244E+03  0.22599980142E+02  0.36798031930E+03  0.41800000000E+01 0. -1.
         -5    1    3    3    0  502 -0.10225513893E+02 -0.29727157133E+01  0.92436078121E+01  0.14707646259E+02  0.41800000000E+01 0. -1.
        -11    1    1    2    0    0 -0.19483497464E+02  0.32496547905E+01 -0.49942678568E+01  0.20374239645E+02  0.00000000000E+00 0. -1.
         11    1    1    2    0    0 -0.28153485293E+03  0.19468085337E+03  0.27565455707E+03  0.43948599855E+03  0.00000000000E+00 0.  1.
</event>
<event>
 7    1  0.2666594E-009  0.1153919E+03  0.7561462E-02  0.1250898E+00
         -3   -1    0    0    0  501 -0.00000000000E+00  0.00000000000E+00  0.27472318651E+03  0.27472318651E+03  0.00000000000E+00 0.  1.
          3   -1    0    0  501    0  0.00000000000E+00 -0.00000000000E+00 -0.13208960645E+03  0.13208960645E+03  0.00000000000E+00 0. -1.
         25    2    1    2    0    0 -0.83173771556E+01  0.53469484258E+02 -0.81443386318E+02  0.15877121428E+03  0.12508840394E+03 0.  0.
          5    1    3    3  502    0  0.55481223701E+02  0.39823979499E+02 -0.56727955434E+02  0.88879968802E+02  0.41800000000E+01 0. -1.
         -5    1    3    3    0  502 -0.63798600856E+02  0.13645504759E+02 -0.24715430884E+02  0.69891245483E+02  0.41800000000E+01 0. -1.
        -11    1    1    2    0    0 -0.36288864150E+02 -0.22893745179E+02  0.50663124088E+02  0.66390943448E+02  0.00000000000E+00 0. -1.
         11    1    1    2    0    0  0.44606241305E+02 -0.30575739079E+02  0.17341384229E+03  0.18165063524E+03  0.00000000000E+00 0.  1.
</event>
<event>
 7    1  0.2666594E-009  0.1260577E+03  0.7561462E-02  0.1233425E+00
          1   -1    0    0  501    0  0.00000000000E+00  0.00000000000E+00  0.12239066465E+03  0.12239066465E+03  0.00000000000E+00 0. -1.
         -1   -1    0    0    0  501 -0.00000000000E+00 -0.00000000000E+00 -0.20372926704E+03  0.20372926704E+03  0.00000000000E+00 0.  1.
         25    2    1    2    0    0 -0.11355622210E+03 -0.76219159085E+01 -0.50684554567E+02  0.17655039386E+03  0.12509199943E+03 0.  0.
          5    1    3    3  502    0 -0.10003207856E+03 -0.28992081660E+01  0.21833103846E+02  0.10251331120E+03  0.41800000000E+01 0.  1.
         -5    1    3    3    0  502 -0.13524143533E+02 -0.47227077425E+01 -0.72517658412E+02  0.74037082657E+02  0.41800000000E+01 0.  1.
        -11    1    1    2    0    0  0.10046917715E+03  0.35239631854E+02 -0.45267678916E+02  0.11569377669E+03  0.00000000000E+00 0.  1.
         11    1    1    2    0    0  0.13087044948E+02 -0.27617715945E+02  0.14613631096E+02  0.33875761147E+02  0.00000000000E+00 0. -1.
</event>
<event>
 7    1  0.3527329E-009  0.1262903E+03  0.7561462E-02  0.1233066E+00
          2   -1    0    0  501    0  0.00000000000E+00  0.00000000000E+00  0.60783926953E+03  0.60783926953E+03  0.00000000000E+00 0. -1.
         -2   -1    0    0    0  501 -0.00000000000E+00 -0.00000000000E+00 -0.32086005575E+02  0.32086005575E+02  0.00000000000E+00 0.  1.
         25    2    1    2    0    0 -0.24021543170E+02 -0.83884666947E+02  0.33206874042E+03  0.36541875236E+03  0.12509014481E+03 0.  0.
          5    1    3    3  502    0  0.32041354730E+02 -0.35288221297E+01  0.19017416216E+03  0.19293207445E+03  0.41800000000E+01 0. -1.
         -5    1    3    3    0  502 -0.56062897900E+02 -0.80355844817E+02  0.14189457826E+03  0.17248667791E+03  0.41800000000E+01 0. -1.
        -11    1    1    2    0    0  0.56267455723E+02  0.50799074067E+02  0.11460140375E+03  0.13740470967E+03  0.00000000000E+00 0.  1.
         11    1    1    2    0    0 -0.32245912552E+02  0.33085592880E+02  0.12908311979E+03  0.13710181307E+03  0.00000000000E+00 0. -1.
</event>
<event>
 7    1  0.2666594E-009  0.2274030E+03  0.7561462E-02  0.1128481E+00
         -1   -1    0    0    0  501 -0.00000000000E+00  0.00000000000E+00  0.38838904323E+03  0.38838904323E+03  0.00000000000E+00 0.  1.
          1   -1    0    0  501    0  0.00000000000E+00 -0.00000000000E+00 -0.15922276337E+03  0.15922276337E+03  0.00000000000E+00 0. -1.
         25    2    1    2    0    0  0.71842710623E+02 -0.19245248296E+03  0.21525084319E+03  0.32276906958E+03  0.12509042138E+03 0.  0.
          5    1    3    3  502    0  0.70362600098E+02 -0.29802229072E+02  0.53770287009E+02  0.93529591656E+02  0.41800000000E+01 0. -1.
         -5    1    3    3    0  502  0.14801105249E+01 -0.16265025389E+03  0.16148055618E+03  0.22923947793E+03  0.41800000000E+01 0. -1.
        -11    1    1    2    0    0 -0.34527874234E+02  0.21690038790E+02  0.28032243457E+02  0.49481699193E+02  0.00000000000E+00 0.  1.
         11    1    1    2    0    0 -0.37314836389E+02  0.17076244417E+03 -0.14116806783E+02  0.17536103782E+03  0.00000000000E+00 0. -1.
</event>
<event>
 7    1  0.2666594E-009  0.1403898E+03  0.7561462E-02  0.1212805E+00
         -1   -1    0    0    0  501 -0.00000000000E+00  0.00000000000E+00  0.21513706258E+02  0.21513706258E+02  0.00000000000E+00 0.  1.
          1   -1    0    0  501    0  0.00000000000E+00 -0.00000000000E+00 -0.98849661830E+03  0.98849661830E+03  0.00000000000E+00 0. -1.
         25    2    1    2    0    0 -0.73502360546E+02  0.61772624356E+02 -0.50045542515E+03  0.52471088155E+03  0.12508965798E+03 0.  0.
          5    1    3    3  502    0 -0.77251714135E+02 -0.92105581584E+01 -0.17504013065E+03  0.19159640252E+03  0.41800000000E+01 0. -1.
         -5    1    3    3    0  502  0.37493535894E+01  0.70983182515E+02 -0.32541529450E+03  0.33311447904E+03  0.41800000000E+01 0. -1.
        -11    1    1    2    0    0  0.58327735104E+02  0.92334842239E+01 -0.16829526461E+03  0.17835548212E+03  0.00000000000E+00 0.  1.
         11    1    1    2    0    0  0.15174625442E+02 -0.71006108580E+02 -0.29823222229E+03  0.30694396088E+03  0.00000000000E+00 0. -1.
</event>
<event>
 7    1  0.2666594E-009  0.2343566E+03  0.7561462E-02  0.1123610E+00
          3   -1    0    0  501    0  0.00000000000E+00  0.00000000000E+00  0.16324095485E+03  0.16324095485E+03  0.00000000000E+00 0. -1.
         -3   -1    0    0    0  501 -0.00000000000E+00 -0.00000000000E+00 -0.34707308271E+03  0.34707308271E+03  0.00000000000E+00 0.  1.
         25    2    1    2    0    0 -0.18662988906E+03 -0.95796769510E+02 -0.12396512527E+03  0.27390471365E+03  0.12509477743E+03 0.  0.
          5    1    3    3  502    0 -0.15695920463E+03 -0.15156602076E+02 -0.88306893977E+02  0.18078023794E+03  0.41800000000E+01 0. -1.
         -5    1    3    3    0  502 -0.29670684428E+02 -0.80640167434E+02 -0.35658231293E+02  0.93124475715E+02  0.41800000000E+01 0. -1.
        -11    1    1    2    0    0  0.14825433650E+03  0.10937538094E+03 -0.31786166261E+02  0.18695636553E+03  0.00000000000E+00 0.  1.
         11    1    1    2    0    0  0.38375552560E+02 -0.13578611430E+02 -0.28080836336E+02  0.49452958374E+02  0.00000000000E+00 0. -1.
</event>
<event>
 7    1  0.2666594E-009  0.1105008E+03  0.7561462E-02  0.1259645E+00
         -2   -1    0    0    0  501 -0.00000000000E+00  0.00000000000E+00  0.31419690052E+02  0.31419690052E+02  0.00000000000E+00 0. -1.
          2   -1    0    0  501    0  0.00000000000E+00 -0.00000000000E+00 -0.61452920425E+03  0.61452920425E+03  0.00000000000E+00 0.  1.
         25    2    1    2    0    0 -0.48998129176E+02  0.32555501449E+02 -0.45014811766E+03  0.47089619165E+03  0.12509683504E+03 0.  0.
          5    1    3    3  502    0 -0.82556172143E+02  0.40462509384E+00 -0.19960056023E+03  0.21604060110E+03  0.41800000000E+01 0. -1.
         -5    1    3    3    0  502  0.33558042967E+02  0.32150876355E+02 -0.25054755743E+03  0.25485559055E+03  0.41800000000E+01 0. -1.
        -11    1    1    2    0    0  0.22519529337E+02  0.21720091350E+02 -0.10298375300E+03  0.10763152397E+03  0.00000000000E+00 0.  1.
         11    1    1    2    0    0  0.26478599839E+02 -0.54275592799E+02 -0.29977643535E+02  0.67421178683E+02  0.00000000000E+00 0. -1.
</event>
<event>
 7    1  0.2666594E-009  0.9680287E+02  0.7561462E-02  0.1287166E+00
         -1   -1    0    0    0  501 -0.00000000000E+00  0.00000000000E+00  0.16041944751E+03  0.16041944751E+03  0.00000000000E+00 0.  1.
          1   -1    0    0  501    0  0.00000000000E+00 -0.00000000000E+00 -0.90838100710E+02  0.90838100710E+02  0.00000000000E+00 0. -1.
         25    2    1    2    0    0  0.21280671928E+02  0.31697210895E+02  0.16712246741E+01  0.13078644428E+03  0.12507885848E+03 0.  0.
          5    1    3    3  502    0 -0.23250094814E+02 -0.39883787148E+02  0.15563148593E+01  0.46380792383E+02  0.41800000000E+01 0. -1.
         -5    1    3    3    0  502  0.44530766742E+02  0.71580998043E+02  0.11490981479E+00  0.84405651895E+02  0.41800000000E+01 0. -1.
        -11    1    1    2    0    0 -0.16761740737E+02  0.10909817538E+02 -0.16422695430E+02  0.25878272671E+02  0.00000000000E+00 0. -1.
         11    1    1    2    0    0 -0.45189311915E+01 -0.42607028433E+02  0.84332817551E+02  0.94592831267E+02  0.00000000000E+00 0.  1.
</event>
<event>
 7    1  0.2666594E-009  0.9569519E+02  0.7561462E-02  0.1289618E+00
         -2   -1    0    0    0  501 -0.00000000000E+00  0.00000000000E+00  0.27843598003E+02  0.27843598003E+02  0.00000000000E+00 0.  1.
          2   -1    0    0  501    0  0.00000000000E+00 -0.00000000000E+00 -0.54104373080E+03  0.54104373080E+03  0.00000000000E+00 0. -1.
         25    2    1    2    0    0  0.40839792318E+02  0.32313985402E+02 -0.33352803086E+03  0.36000108498E+03  0.12509097301E+03 0.  0.
          5    1    3    3  502    0  0.29888432643E+01  0.69957316929E+02 -0.25834726652E+03  0.26770084403E+03  0.41800000000E+01 0.  1.
         -5    1    3    3    0  502  0.37850949054E+02 -0.37643331527E+02 -0.75180764337E+02  0.92300240948E+02  0.41800000000E+01 0.  1.
        -11    1    1    2    0    0 -0.65776892313E+01 -0.32779756742E+02 -0.17003614062E+03  0.17329185661E+03  0.00000000000E+00 0. -1.
         11    1    1    2    0    0 -0.34262103087E+02  0.46577134018E+00 -0.96359613139E+01  0.35594387216E+02  0.00000000000E+00 0.  1.
</event>
<event>
 7    1  0.2666594E-009  0.1106169E+03  0.7561462E-02  0.1259432E+00
         -1   -1    0    0    0  501 -0.00000000000E+00  0.00000000000E+00  0.50039130118E+02  0.50039130118E+02  0.00000000000E+00 0.  1.
          1   -1    0    0  501    0  0.00000000000E+00 -0.00000000000E+00 -0.50481132362E+03  0.50481132362E+03  0.00000000000E+00 0. -1.
         25    2    1    2    0    0  0.36376159847E+02 -0.68010617297E+02 -0.39477215181E+03  0.42123725070E+03  0.12508837064E+03 0.  0.
          5    1    3    3  502    0 -0.71697975133E+01 -0.92024328730E+02 -0.20231937619E+03  0.22241961572E+03  0.41800000000E+01 0.  1.
         -5    1    3    3    0  502  0.43545957360E+02  0.24013711433E+02 -0.19245277561E+03  0.19881763498E+03  0.41800000000E+01 0.  1.
        -11    1    1    2    0    0 -0.65784042429E+01  0.29580851055E+02 -0.76482485852E+02  0.82267082078E+02  0.00000000000E+00 0. -1.
         11    1    1    2    0    0 -0.29797755604E+02  0.38429766242E+02  0.16482444151E+02  0.51346120960E+02  0.00000000000E+00 0.  1.
</event>
<event>
 7    1  0.2666594E-009  0.1130596E+03  0.7561462E-02  0.1255007E+00
         -2   -1    0    0    0  501 -0.00000000000E+00  0.00000000000E+00  0.15598733538E+02  0.15598733538E+02  0.00000000000E+00 0. -1.
          2   -1    0    0  501    0  0.00000000000E+00 -0.00000000000E+00 -0.92012284957E+03  0.92012284957E+03  0.00000000000E+00 0.  1.
         25    2    1    2    0    0 -0.21827329654E+02 -0.39382934547E+02 -0.62435498914E+03  0.63835245770E+03  0.12508900809E+03 0.  0.
          5    1    3    3  502    0 -0.44303022699E+02 -0.75213960042E+02 -0.35116712246E+03  0.36187804286E+03  0.41800000000E+01 0. -1.
         -5    1    3    3    0  502  0.22475693046E+02  0.35831025494E+02 -0.27318786667E+03  0.27647441484E+03  0.41800000000E+01 0. -1.
        -11    1    1    2    0    0  0.53477076055E+02  0.13035315191E+02 -0.12052510920E+03  0.13249912850E+03  0.00000000000E+00 0.  1.
         11    1    1    2    0    0 -0.31649746401E+02  0.26347619357E+02 -0.15964401770E+03  0.16486999691E+03  0.00000000000E+00 0. -1.
</event>
<event>
 7    1  0.2666594E-009  0.1324659E+03  0.7561462E-02  0.1223842E+00
         -1   -1    0    0    0  501 -0.00000000000E+00  0.00000000000E+00  0.56730270608E+02  0.56730270608E+02  0.00000000000E+00 0.  1.
          1   -1    0    0  501    0  0.00000000000E+00 -0.00000000000E+00 -0.35778092667E+03  0.35778092667E+03  0.00000000000E+00 0. -1.
         25    2    1    2    0    0  0.80325445734E+02  0.50023792369E+02 -0.15937897424E+03  0.22361753343E+03  0.12509431159E+03 0.  0.
          5    1    3    3  502    0 -0.15303032103E+01  0.71742568491E+02 -0.78507169283E+02  0.10644334639E+03  0.41800000000E+01 0.  1.
         -5    1    3    3    0  502  0.81855748944E+02 -0.21718776122E+02 -0.80871804955E+02  0.11717418704E+03  0.41800000000E+01 0.  1.
        -11    1    1    2    0    0 -0.10580667361E+02  0.11234671330E+02  0.59264857399E+01  0.16531533350E+02  0.00000000000E+00 0.  1.
         11    1    1    2    0    0 -0.69744778373E+02 -0.61258463699E+02 -0.14759816757E+03  0.17436213051E+03  0.00000000000E+00 0. -1.
</event>
<event>
 7    1  0.2666594E-009  0.9826327E+02  0.7561462E-02  0.1283991E+00
          2   -1    0    0  501    0  0.00000000000E+00  0.00000000000E+00  0.11970721722E+03  0.11970721722E+03  0.00000000000E+00 0. -1.
         -2   -1    0    0    0  501 -0.00000000000E+00 -0.00000000000E+00 -0.15927791008E+03  0.15927791008E+03  0.00000000000E+00 0.  1.
         25    2    1    2    0    0  0.34590658041E+02  0.51646011782E+02  0.36824772684E+02  0.14445795897E+03  0.12509282102E+03 0.  0.
          5    1    3    3  502    0  0.45613939834E+02 -0.21558871282E+02  0.47651298466E+02  0.69523629678E+02  0.41800000000E+01 0. -1.
         -5    1    3    3    0  502 -0.11023281793E+02  0.73204883064E+02 -0.10826525782E+02  0.74934329292E+02  0.41800000000E+01 0. -1.
        -11    1    1    2    0    0 -0.40535737555E+02 -0.33273573257E+02  0.32794990220E+01  0.52545521315E+02  0.00000000000E+00 0. -1.
         11    1    1    2    0    0  0.59450795143E+01 -0.18372438526E+02 -0.79674964572E+02  0.81981647015E+02  0.00000000000E+00 0.  1.
</event>
<event>
 7    1  0.2666594E-009  0.1169320E+03  0.7561462E-02  0.1248246E+00
          3   -1    0    0  501    0  0.00000000000E+00  0.00000000000E+00  0.83144881817E+02  0.83144881817E+02  0.00000000000E+00 0. -1.
         -3   -1    0    0    0  501 -0.00000000000E+00 -0.00000000000E+00 -0.18820647992E+03  0.18820647992E+03  0.00000000000E+00 0.  1.
         25    2    1    2    0    0 -0.65996394569E+01 -0.65489161698E+02 -0.86906904400E+02  0.16592777196E+03  0.12508728926E+03 0.  0.
          5    1    3    3  502    0  0.37996644750E+02 -0.79712168362E+02 -0.32878080311E+02  0.94319750647E+02  0.41800000000E+01 0. -1.
         -5    1    3    3    0  502 -0.44596284206E+02  0.14223006664E+02 -0.54028824089E+02  0.71608021310E+02  0.41800000000E+01 0. -1.
        -11    1    1    2    0    0 -0.23141407855E+01 -0.16162650186E+02 -0.16582581168E+02  0.23271624499E+02  0.00000000000E+00 0. -1.
         11    1    1    2    0    0  0.89137802423E+01  0.81651811884E+02 -0.15721125376E+01  0.82151965284E+02  0.00000000000E+00 0.  1.
</event>
<event>
 7    1  0.2666594E-009  0.1223666E+03  0.7561462E-02  0.1239243E+00
         -2   -1    0    0    0  501 -0.00000000000E+00  0.00000000000E+00  0.12834816493E+03  0.12834816493E+03  0.00000000000E+00 0. -1.
          2   -1    0    0  501    0  0.00000000000E+00 -0.00000000000E+00 -0.17690581288E+03  0.17690581288E+03  0.00000000000E+00 0.  1.
         25    2    1    2    0    0  0.89202044124E+01  0.10340887600E+03 -0.27169675846E+01  0.16256182341E+03  0.12508396714E+03 0.  0.
          5    1    3    3  502    0  0.33911968505E+02  0.59570252690E+02  0.53389003010E+02  0.86985600278E+02  0.41800000000E+01 0.  1.
         -5    1    3    3    0  502 -0.24991764093E+02  0.43838623314E+02 -0.56105970595E+02  0.75576223132E+02  0.41800000000E+01 0.  1.
        -11    1    1    2    0    0 -0.38439345520E+02 -0.39972354824E+02 -0.47030895347E+02  0.72713668256E+02  0.00000000000E+00 0.  1.
         11    1    1    2    0    0  0.29519141108E+02 -0.63436521180E+02  0.11902149793E+01  0.69978486143E+02  0.00000000000E+00 0. -1.
</event>
<event>
 7    1  0.2666594E-009  0.1082355E+03  0.7561462E-02  0.1263873E+00
         -1   -1    0    0    0  501 -0.00000000000E+00  0.00000000000E+00  0.83383575783E+02  0.83383575783E+02  0.00000000000E+00 0.  1.
          1   -1    0    0  501    0  0.00000000000E+00 -0.00000000000E+00 -0.15765142898E+03  0.15765142898E+03  0.00000000000E+00 0. -1.
         25    2    1    2    0    0  0.26092648343E+02  0.18187541870E+02 -0.20905623817E+02  0.13075147786E+03  0.12508913173E+03 0.  0.
          5    1    3    3  502    0  0.43294521386E+02 -0.44913920453E+02 -0.18365503426E+02  0.65164713984E+02  0.41800000000E+01 0.  1.
         -5    1    3    3    0  502 -0.17201873044E+02  0.63101462324E+02 -0.25401203907E+01  0.65586763872E+02  0.41800000000E+01 0.  1.
        -11    1    1    2    0    0  0.11745333530E+02 -0.42061225124E+02 -0.42946438182E+01  0.43881015077E+02  0.00000000000E+00 0.  1.
         11    1    1    2    0    0 -0.37837981873E+02  0.23873683254E+02 -0.49067585557E+02  0.66402511826E+02  0.00000000000E+00 0. -1.
</event>
<event>
 7    1  0.2666594E-009  0.1055725E+03  0.7561462E-02  0.1268996E+00
          2   -1    0    0  501    0  0.00000000000E+00  0.00000000000E+00  0.24384160593E+03  0.24384160593E+03  0.00000000000E+00 0. -1.
         -2   -1    0    0    0  501 -0.00000000000E+00 -0.00000000000E+00 -0.79040560918E+02  0.79040560918E+02  0.00000000000E+00 0.  1.
         25    2    1    2    0    0  0.36051712462E+02 -0.17849599219E+02  0.18901368100E+01  0.13141337018E+03  0.12509023576E+03 0.  0.
          5    1    3    3  502    0 -0.40155936283E+02 -0.18453854644E+02  0.25909395337E+02  0.51398571349E+02  0.41800000000E+01 0. -1.
         -5    1    3    3    0  502  0.76207648745E+02  0.60425542568E+00 -0.24019258527E+02  0.80014798831E+02  0.41800000000E+01 0. -1.
        -11    1    1    2    0    0 -0.61257589430E+02  0.33455985412E+01  0.65212484850E+02  0.89534091120E+02  0.00000000000E+00 0.  1.
         11    1    1    2    0    0  0.25205876968E+02  0.14504000678E+02  0.97698423350E+02  0.10193470554E+03  0.00000000000E+00 0. -1.
</event>
<event>
 7    1  0.2666594E-009  0.5788817E+02  0.7561462E-02  0.1406914E+00
         -2   -1    0    0    0  501 -0.00000000000E+00  0.00000000000E+00  0.11612886499E+03  0.11612886499E+03  0.00000000000E+00 0. -1.
          2   -1    0    0  501    0  0.00000000000E+00 -0.00000000000E+00 -0.10951070543E+03  0.10951070543E+03  0.00000000000E+00 0.  1.
         25    2    1    2    0    0 -0.18803807409E+02  0.24354450005E+02  0.98917493782E+01  0.12918575808E+03  0.12507753986E+03 0.  0.
          5    1    3    3  502    0  0.32290128251E+01  0.18482107174E+02  0.65859320726E+02  0.68607123069E+02  0.41800000000E+01 0. -1.
         -5    1    3    3    0  502 -0.22032820234E+02  0.58723428305E+01 -0.55967571347E+02  0.60578635015E+02  0.41800000000E+01 0. -1.
        -11    1    1    2    0    0  0.23381495937E+02 -0.45811013441E+02  0.27761567157E+02  0.58446966694E+02  0.00000000000E+00 0. -1.
         11    1    1    2    0    0 -0.45776885281E+01  0.21456563436E+02 -0.31035156976E+02  0.38006845637E+02  0.00000000000E+00 0.  1.
</event>
<event>
 7    1  0.2666594E-009  0.2275961E+03  0.7561462E-02  0.1128343E+00
         -1   -1    0    0    0  501 -0.00000000000E+00  0.00000000000E+00  0.16189164255E+03  0.16189164255E+03  0.00000000000E+00 0.  1.
          1   -1    0    0  501    0  0.00000000000E+00 -0.00000000000E+00 -0.34312842320E+03  0.34312842320E+03  0.00000000000E+00 0. -1.
         25    2    1    2    0    0 -0.36181278684E+02 -0.20016902707E+03 -0.42466841363E+02  0.24255209786E+03  0.12510540850E+03 0.  0.
          5    1    3    3  502    0 -0.73701982944E+02 -0.16545480159E+03 -0.91769991793E+01  0.18140827813E+03  0.41800000000E+01 0.  1.
         -5    1    3    3    0  502  0.37520704260E+02 -0.34714225483E+02 -0.33289842183E+02  0.61143819734E+02  0.41800000000E+01 0.  1.
        -11    1    1    2    0    0 -0.14577780268E+02 -0.16075171178E+01 -0.77337018797E+01  0.16580287501E+02  0.00000000000E+00 0. -1.
         11    1    1    2    0    0  0.50759058952E+02  0.20177654419E+03 -0.13103623741E+03  0.24588768039E+03  0.00000000000E+00 0.  1.
</event>
<event>
 7    1  0.2666594E-009  0.1210716E+03  0.7561462E-02  0.1241340E+00
          1   -1    0    0  501    0  0.00000000000E+00  0.00000000000E+00  0.53782637121E+03  0.53782637121E+03  0.00000000000E+00 0. -1.
         -1   -1    0    0    0  501 -0.00000000000E+00 -0.00000000000E+00 -0.36532799324E+02  0.36532799324E+02  0.00000000000E+00 0.  1.
         25    2    1    2    0    0 -0.39735340541E+02  0.50631276260E+02  0.15213098739E+03  0.20720215820E+03  0.12508586497E+03 0.  0.
          5    1    3    3  502    0  0.38831947897E+02 -0.10052577878E+02  0.33277391416E+02  0.52286056257E+02  0.41800000000E+01 0.  1.
         -5    1    3    3    0  502 -0.78567288438E+02  0.60683854137E+02  0.11885359597E+03  0.15491610194E+03  0.41800000000E+01 0.  1.
        -11    1    1    2    0    0 -0.10039903752E+02 -0.51699262456E+02  0.25765539262E+03  0.26298272709E+03  0.00000000000E+00 0. -1.
         11    1    1    2    0    0  0.49775244293E+02  0.10679861966E+01  0.91507191879E+02  0.10417428524E+03  0.00000000000E+00 0.  1.
</event>
<event>
 7    1  0.2666594E-009  0.1067603E+03  0.7561462E-02  0.1266690E+00
          1   -1    0    0  501    0  0.00000000000E+00  0.00000000000E+00  0.12215477210E+04  0.12215477210E+04  0.00000000000E+00 0. -1.
         -1   -1    0    0    0  501 -0.00000000000E+00 -0.00000000000E+00 -0.16523399518E+02  0.16523399518E+02  0.00000000000E+00 0.  1.
         25    2    1    2    0    0 -0.44721645397E+02 -0.67516447679E+02  0.85589689063E+03  0.86877222315E+03  0.12508873673E+03 0.  0.
          5    1    3    3  502    0 -0.27884539621E+02 -0.70152508067E+02  0.21992646275E+03  0.23255976298E+03  0.41800000000E+01 0. -1.
         -5    1    3    3    0  502 -0.16837105776E+02  0.26360603875E+01  0.63597042788E+03  0.63621246017E+03  0.41800000000E+01 0. -1.
        -11    1    1    2    0    0  0.49808542055E+02 -0.27801766928E+01  0.14182999826E+03  0.15034749300E+03  0.00000000000E+00 0.  1.
         11    1    1    2    0    0 -0.50868966582E+01  0.70296624372E+02  0.20729743260E+03  0.21895140437E+03  0.00000000000E+00 0. -1.
</event>
<event>
 7    1  0.2666594E-009  0.1073349E+03  0.7561462E-02  0.1265586E+00
         -1   -1    0    0    0  501 -0.00000000000E+00  0.00000000000E+00  0.27128834810E+02  0.27128834810E+02  0.00000000000E+00 0.  1.
          1   -1    0    0  501    0  0.00000000000E+00 -0.00000000000E+00 -0.58024642652E+03  0.58024642652E+03  0.00000000000E+00 0. -1.
         25    2    1    2    0    0  0.47987833954E+01  0.66095039234E+02 -0.34888791927E+03  0.37651226818E+03  0.12508847006E+03 0.  0.
          5    1    3    3  502    0  0.24002833857E+02 -0.12829532238E+02 -0.23475009582E+03  0.23635949911E+03  0.41800000000E+01 0.  1.
         -5    1    3    3    0  502 -0.19204050461E+02  0.78924571472E+02 -0.11413782346E+03  0.14015276908E+03  0.41800000000E+01 0.  1.
        -11    1    1    2    0    0 -0.36041638202E+02 -0.65253199849E+02 -0.16197495490E+03  0.17830554054E+03  0.00000000000E+00 0.  1.
         11    1    1    2    0    0  0.31242854807E+02 -0.84183938474E+00 -0.42254717538E+02  0.52557452604E+02  0.00000000000E+00 0. -1.
</event>
<event>
 7    1  0.2666594E-009  0.1046992E+03  0.7561462E-02  0.1270713E+00
         -1   -1    0    0    0  501 -0.00000000000E+00  0.00000000000E+00  0.22429087928E+03  0.22429087928E+03  0.00000000000E+00 0.  1.
          1   -1    0    0  501    0  0.00000000000E+00 -0.00000000000E+00 -0.53425421366E+02  0.53425421366E+02  0.00000000000E+00 0. -1.
         25    2    1    2    0    0  0.14657338774E+02 -0.17174314897E+01  0.10559660797E+03  0.16436467933E+03  0.12508923632E+03 0.  0.
          5    1    3    3  502    0  0.60353469025E+02  0.23806857887E+02  0.28266912266E+02  0.70892865896E+02  0.41800000000E+01 0.  1.
         -5    1    3    3    0  502 -0.45696130251E+02 -0.25524289377E+02  0.77329695705E+02  0.93471813431E+02  0.41800000000E+01 0.  1.
        -11    1    1    2    0    0  0.18107393778E+02  0.38543353473E+02  0.37694870555E+02  0.56871531302E+02  0.00000000000E+00 0.  1.
         11    1    1    2    0    0 -0.32764732552E+02 -0.36825921984E+02  0.27573979385E+02  0.56480090016E+02  0.00000000000E+00 0. -1.
</event>
<event>
 7    1  0.2666594E-009  0.1037958E+03  0.7561462E-02  0.1272510E+00
         -2   -1    0    0    0  501 -0.00000000000E+00  0.00000000000E+00  0.95969939249E+01  0.95969939249E+01  0.00000000000E+00 0.  1.
          2   -1    0    0  501    0  0.00000000000E+00 -0.00000000000E+00 -0.20009113502E+04  0.20009113502E+04  0.00000000000E+00 0. -1.
         25    2    1    2    0    0 -0.19960452743E+02 -0.41910229744E+02 -0.16684299040E+04  0.16737570142E+04  0.12509720625E+03 0.  0.
          5    1    3    3  502    0 -0.68249496044E+02 -0.39337927824E+02 -0.12572096765E+04  0.12596821462E+04  0.41800000000E+01 0.  1.
         -5    1    3    3    0  502  0.48289043301E+02 -0.25723019203E+01 -0.41122022750E+03  0.41407486804E+03  0.41800000000E+01 0.  1.
        -11    1    1    2    0    0  0.43911780436E+02  0.22507521648E+02 -0.27772795784E+03  0.28207738576E+03  0.00000000000E+00 0. -1.
         11    1    1    2    0    0 -0.23951327693E+02  0.19402708096E+02 -0.45156494416E+02  0.54673944138E+02  0.00000000000E+00 0.  1.
</event>
<event>
 7    1  0.2666594E-009  0.1225527E+03  0.7561462E-02  0.1238944E+00
         -1   -1    0    0    0  501 -0.00000000000E+00  0.00000000000E+00  0.22805565238E+02  0.22805565238E+02  0.00000000000E+00 0.  1.
          1   -1    0    0  501    0  0.00000000000E+00 -0.00000000000E+00 -0.85124643878E+03  0.85124643878E+03  0.00000000000E+00 0. -1.
         25    2    1    2    0    0  0.54370076846E+02 -0.67213214419E+02 -0.45622852941E+03  0.48090112564E+03  0.12509076763E+03 0.  0.
          5    1    3    3  502    0 -0.24729838985E+02 -0.20254145365E+01 -0.24278084704E+03  0.24408129656E+03  0.41800000000E+01 0. -1.
         -5    1    3    3    0  502  0.79099915830E+02 -0.65187799882E+02 -0.21344768237E+03  0.23681982908E+03  0.41800000000E+01 0. -1.
        -11    1    1    2    0    0 -0.61143051585E+00  0.63465875846E+02 -0.27265207233E+03  0.27994185787E+03  0.00000000000E+00 0. -1.
         11    1    1    2    0    0 -0.53758646330E+02  0.37473385728E+01 -0.99560271801E+02  0.11320902050E+03  0.00000000000E+00 0.  1.
</event>
<event>
 7    1  0.2666594E-009  0.1379197E+03  0.7561462E-02  0.1216156E+00
         -1   -1    0    0    0  501 -0.00000000000E+00  0.00000000000E+00  0.61063469091E+03  0.61063469091E+03  0.00000000000E+00 0.  1.
          1   -1    0    0  501    0  0.00000000000E+00 -0.00000000000E+00 -0.66742482855E+02  0.66742482855E+02  0.00000000000E+00 0. -1.
         25    2    1    2    0    0 -0.69995135458E+02  0.94625757043E+02  0.79023871574E+02  0.18906621815E+03  0.12509160516E+03 0.  0.
          5    1    3    3  502    0  0.26743639265E+02  0.33747227988E+02 -0.96705827812E+01  0.44329338021E+02  0.41800000000E+01 0. -1.
         -5    1    3    3    0  502 -0.96738774723E+02  0.60878529055E+02  0.88694454355E+02  0.14473688012E+03  0.41800000000E+01 0. -1.
        -11    1    1    2    0    0  0.14865823495E+02 -0.13276852708E+02  0.88212064806E+01  0.21796357718E+02  0.00000000000E+00 0. -1.
         11    1    1    2    0    0  0.55129311964E+02 -0.81348904336E+02  0.45604713000E+03  0.46651459790E+03  0.00000000000E+00 0.  1.
</event>
<event>
 7    1  0.2666594E-009  0.9984048E+02  0.7561462E-02  0.1280632E+00
         -2   -1    0    0    0  501 -0.00000000000E+00  0.00000000000E+00  0.42825628627E+03  0.42825628627E+03  0.00000000000E+00 0. -1.
          2   -1    0    0  501    0  0.00000000000E+00 -0.00000000000E+00 -0.44915755416E+02  0.44915755416E+02  0.00000000000E+00 0.  1.
         25    2    1    2    0    0  0.38330774899E+02 -0.73169742769E+02  0.22112651103E+03  0.26714722605E+03  0.12509055498E+03 0.  0.
          5    1    3    3  502    0  0.11955360550E+02 -0.11634550949E+02  0.19404706388E+03  0.19480767136E+03  0.41800000000E+01 0.  1.
         -5    1    3    3    0  502  0.26375414349E+02 -0.61535191820E+02  0.27079447146E+02  0.72339554686E+02  0.41800000000E+01 0.  1.
        -11    1    1    2    0    0  0.10939064914E+02  0.64445017299E+02  0.13271664051E+03  0.14794096817E+03  0.00000000000E+00 0. -1.
         11    1    1    2    0    0 -0.49269839813E+02  0.87247254702E+01  0.29497379322E+02  0.58083847467E+02  0.00000000000E+00 0.  1.
</event>
<event>
 7    1  0.2666594E-009  0.1514553E+03  0.7561462E-02  0.1198696E+00
         -2   -1    0    0    0  501 -0.00000000000E+00  0.00000000000E+00  0.51499231834E+02  0.51499231834E+02  0.00000000000E+00 0.  1.
          2   -1    0    0  501    0  0.00000000000E+00 -0.00000000000E+00 -0.63616265050E+03  0.63616265050E+03  0.00000000000E+00 0. -1.
         25    2    1    2    0    0  0.94772968705E+02  0.10610665070E+03 -0.36973533548E+03  0.41544222362E+03  0.12508991147E+03 0.  0.
          5    1    3    3  502    0  0.34116520953E+02  0.45176193069E+02 -0.29809949165E+03  0.30345610019E+03  0.41800000000E+01 0. -1.
         -5    1    3    3    0  502  0.60656447752E+02  0.60930457626E+02 -0.71635843826E+02  0.11198612343E+03  0.41800000000E+01 0. -1.
        -11    1    1    2    0    0 -0.44007664807E+02 -0.99598653059E+02 -0.17959924258E+03  0.21002965073E+03  0.00000000000E+00 0. -1.
         11    1    1    2    0    0 -0.50765303898E+02 -0.65079976363E+01 -0.35328840612E+02  0.62190007976E+02  0.00000000000E+00 0.  1.
</event>
<event>
 7    1  0.2666594E-009  0.1041092E+03  0.7561462E-02  0.1271885E+00
         -2   -1    0    0    0  501 -0.00000000000E+00  0.00000000000E+00  0.87361196895E+03  0.87361196895E+03  0.00000000000E+00 0.  1.
          2   -1    0    0  501    0  0.00000000000E+00 -0.00000000000E+00 -0.12940697655E+02  0.12940697655E+02  0.00000000000E+00 0. -1.
         25    2    1    2    0    0 -0.11060625441E+02 -0.65673567019E+01  0.48764694940E+03  0.50360023001E+03  0.12509267286E+03 0.  0.
          5    1    3    3  502    0 -0.68057839028E+02 -0.39025406243E+01  0.24971382771E+03  0.25888523988E+03  0.41800000000E+01 0.  1.
         -5    1    3    3    0  502  0.56997213587E+02 -0.26648160776E+01  0.23793312169E+03  0.24471499014E+03  0.41800000000E+01 0.  1.
        -11    1    1    2    0    0 -0.21092964944E+02 -0.28288725812E+02  0.10514913165E+03  0.11091215021E+03  0.00000000000E+00 0.  1.
         11    1    1    2    0    0  0.32153590385E+02  0.34856082514E+02  0.26787519025E+03  0.27204028638E+03  0.00000000000E+00 0. -1.
</event>
<event>
 7    1  0.2666594E-009  0.1055387E+03  0.7561462E-02  0.1269062E+00
          2   -1    0    0  501    0  0.00000000000E+00  0.00000000000E+00  0.11000239674E+04  0.11000239674E+04  0.00000000000E+00 0. -1.
         -2   -1    0    0    0  501 -0.00000000000E+00 -0.00000000000E+00 -0.11265634693E+02  0.11265634693E+02  0.00000000000E+00 0.  1.
         25    2    1    2    0    0  0.10499098910E+02 -0.23391312997E+02  0.62768212081E+03  0.64053786744E+03  0.12508609130E+03 0.  0.
          5    1    3    3  502    0  0.75813341259E+00 -0.69087386343E+02  0.49481937173E+03  0.49963719313E+03  0.41800000000E+01 0. -1.
         -5    1    3    3    0  502  0.97409654979E+01  0.45696073346E+02  0.13286274908E+03  0.14090067431E+03  0.41800000000E+01 0. -1.
        -11    1    1    2    0    0 -0.96421768928E+01  0.58772657064E+02  0.29074157244E+03  0.29677914135E+03  0.00000000000E+00 0.  1.
         11    1    1    2    0    0 -0.85692201762E+00 -0.35381344067E+02  0.17033463946E+03  0.17397259331E+03  0.00000000000E+00 0. -1.
</event>
<event>
 7    1  0.2666594E-009  0.1268662E+03  0.7561462E-02  0.1232181E+00
         -2   -1    0    0    0  501 -0.00000000000E+00  0.00000000000E+00  0.31587625828E+02  0.31587625828E+02  0.00000000000E+00 0.  1.
          2   -1    0    0  501    0  0.00000000000E+00 -0.00000000000E+00 -0.66820800743E+03  0.66820800743E+03  0.00000000000E+00 0. -1.
         25    2    1    2    0    0 -0.35103616741E+02 -0.78744195661E+02 -0.40926992068E+03  0.43655746667E+03  0.12509053314E+03 0.  0.
          5    1    3    3  502    0 -0.40643581001E+01 -0.10441239961E+03 -0.22828205532E+03  0.25109487725E+03  0.41800000000E+01 0. -1.
         -5    1    3    3    0  502 -0.31039258641E+02  0.25668203947E+02 -0.18098786536E+03  0.18546258943E+03  0.41800000000E+01 0. -1.
        -11    1    1    2    0    0  0.54181309359E+02  0.67362898061E+02 -0.22483437568E+03  0.24088144554E+03  0.00000000000E+00 0. -1.
         11    1    1    2    0    0 -0.19077692618E+02  0.11381297600E+02 -0.25160852434E+01  0.22356721040E+02  0.00000000000E+00 0.  1.
</event>
<event>
 7    1  0.2666594E-009  0.1451781E+03  0.7561462E-02  0.1206527E+00
          1   -1    0    0  501    0  0.00000000000E+00  0.00000000000E+00  0.15992452296E+03  0.15992452296E+03  0.00000000000E+00 0. -1.
         -1   -1    0    0    0  501 -0.00000000000E+00 -0.00000000000E+00 -0.13891628767E+03  0.13891628767E+03  0.00000000000E+00 0.  1.
         25    2    1    2    0    0  0.99244323735E+02  0.31061436529E+02  0.43725955930E+01  0.16273066391E+03  0.12509156946E+03 0.  0.
          5    1    3    3  502    0  0.64372680119E+02  0.79780638558E+02  0.38413220420E+01  0.10266947156E+03  0.41800000000E+01 0.  1.
         -5    1    3    3    0  502  0.34871643616E+02 -0.48719202030E+02  0.53127355103E+00  0.60061192350E+02  0.41800000000E+01 0.  1.
        -11    1    1    2    0    0 -0.53379336499E+02  0.21848719170E+02 -0.14508325603E+02  0.59474461799E+02  0.00000000000E+00 0.  1.
         11    1    1    2    0    0 -0.45864987235E+02 -0.52910155699E+02  0.31143965297E+02  0.76635684930E+02  0.00000000000E+00 0. -1.
</event>
<event>
 7    1  0.2666594E-009  0.1120454E+03  0.7561462E-02  0.1256828E+00
         -2   -1    0    0    0  501 -0.00000000000E+00  0.00000000000E+00  0.99804867200E+02  0.99804867200E+02  0.00000000000E+00 0.  1.
          2   -1    0    0  501    0  0.00000000000E+00 -0.00000000000E+00 -0.17452164056E+03  0.17452164056E+03  0.00000000000E+00 0. -1.
         25    2    1    2    0    0  0.65920105384E+01  0.73497831237E+02 -0.43344491440E+02  0.15156440614E+03  0.12509052111E+03 0.  0.
          5    1    3    3  502    0  0.72764458194E+01  0.91968247498E+02 -0.72075293363E+02  0.11714702525E+03  0.41800000000E+01 0. -1.
         -5    1    3    3    0  502 -0.68443528103E+00 -0.18470416260E+02  0.28730801923E+02  0.34417380894E+02  0.41800000000E+01 0. -1.
        -11    1    1    2    0    0 -0.75615149923E+01  0.18916176926E+02  0.85448654400E+01  0.22091015908E+02  0.00000000000E+00 0.  1.
         11    1    1    2    0    0  0.96950445387E+00 -0.92414008163E+02 -0.39917147356E+02  0.10067108570E+03  0.00000000000E+00 0. -1.
</event>
<event>
 7    1  0.2666594E-009  0.8156890E+02  0.7561462E-02  0.1324657E+00
         -1   -1    0    0    0  501 -0.00000000000E+00  0.00000000000E+00  0.32183392115E+02  0.32183392115E+02  0.00000000000E+00 0.  1.
          1   -1    0    0  501    0  0.00000000000E+00 -0.00000000000E+00 -0.70379448054E+03  0.70379448054E+03  0.00000000000E+00 0. -1.
         25    2    1    2    0    0 -0.38354066709E+02  0.44938227539E+02 -0.57344546678E+03  0.58989634309E+03  0.12509002153E+03 0.  0.
          5    1    3    3  502    0  0.13283075390E+02  0.31646251415E+01 -0.44504584107E+03  0.44527489037E+03  0.41800000000E+01 0. -1.
         -5    1    3    3    0  502 -0.51637142100E+02  0.41773602398E+02 -0.12839962572E+03  0.14462145272E+03  0.41800000000E+01 0. -1.
        -11    1    1    2    0    0  0.47197802382E+02 -0.12697673949E+02 -0.74993290666E+01  0.49447986915E+02  0.00000000000E+00 0.  1.
         11    1    1    2    0    0 -0.88437356730E+01 -0.32240553590E+02 -0.90666292578E+02  0.96633542656E+02  0.00000000000E+00 0. -1.
</event>
<event>
 7    1  0.2666594E-009  0.1271273E+03  0.7561462E-02  0.1231782E+00
          2   -1    0    0  501    0  0.00000000000E+00  0.00000000000E+00  0.26494297114E+03  0.26494297114E+03  0.00000000000E+00 0. -1.
         -2   -1    0    0    0  501 -0.00000000000E+00 -0.00000000000E+00 -0.77434390686E+02  0.77434390686E+02  0.00000000000E+00 0.  1.
         25    2    1    2    0    0 -0.34778345943E+02  0.84819582122E+02  0.12394281182E+03  0.19852588258E+03  0.12508721196E+03 0.  0.
          5    1    3    3  502    0 -0.75294714086E+02  0.36847557702E+02  0.10151216590E+03  0.13171647089E+03  0.41800000000E+01 0. -1.
         -5    1    3    3    0  502  0.40516368143E+02  0.47972024420E+02  0.22430645916E+02  0.66809411692E+02  0.41800000000E+01 0. -1.
        -11    1    1    2    0    0  0.50149413619E+02 -0.60004962779E+02  0.49364114403E+01  0.78357688852E+02  0.00000000000E+00 0.  1.
         11    1    1    2    0    0 -0.15371067675E+02 -0.24814619343E+02  0.58629357199E+02  0.65493790394E+02  0.00000000000E+00 0. -1.
</event>
<event>
 7    1  0.2666594E-009  0.1103426E+03  0.7561462E-02  0.1259937E+00
          2   -1    0    0  501    0  0.00000000000E+00  0.00000000000E+00  0.65898506534E+03  0.65898506534E+03  0.00000000000E+00 0. -1.
         -2   -1    0    0    0  501 -0.00000000000E+00 -0.00000000000E+00 -0.18619477401E+02  0.18619477401E+02  0.00000000000E+00 0.  1.
         25    2    1    2    0    0 -0.76084757429E+01 -0.28771312568E+02  0.37946624041E+03  0.40065837835E+03  0.12508729431E+03 0.  0.
          5    1    3    3  502    0 -0.18991151505E+02 -0.76686431256E+02  0.22868761970E+03  0.24198547969E+03  0.41800000000E+01 0. -1.
         -5    1    3    3    0  502  0.11382675762E+02  0.47915118688E+02  0.15077862071E+03  0.15867289866E+03  0.41800000000E+01 0. -1.
        -11    1    1    2    0    0 -0.31455994756E+02 -0.13815539160E+02  0.11486635148E+03  0.11989423436E+03  0.00000000000E+00 0.  1.
         11    1    1    2    0    0  0.39064470499E+02  0.42586851728E+02  0.14603299605E+03  0.15705193004E+03  0.00000000000E+00 0. -1.
</event>
<event>
 7    1  0.2666594E-009  0.1198577E+03  0.7561462E-02  0.1243332E+00
          1   -1    0    0  501    0  0.00000000000E+00  0.00000000000E+00  0.44512643722E+03  0.44512643722E+03  0.00000000000E+00 0. -1.
         -1   -1    0    0    0  501 -0.00000000000E+00 -0.00000000000E+00 -0.37435551530E+02  0.37435551530E+02  0.00000000000E+00 0.  1.
         25    2    1    2    0    0  0.31203339804E+02  0.50655994064E+02  0.29091863726E+03  0.32220936210E+03  0.12508213849E+03 0.  0.
          5    1    3    3  502    0  0.36839441843E+02 -0.30862869582E+02  0.16610261459E+03  0.17296592776E+03  0.41800000000E+01 0. -1.
         -5    1    3    3    0  502 -0.56361020390E+01  0.81518863646E+02  0.12481602268E+03  0.14924343434E+03  0.41800000000E+01 0. -1.
        -11    1    1    2    0    0 -0.54707480205E+02 -0.62727079915E+02  0.83953918402E+02  0.11821952191E+03  0.00000000000E+00 0.  1.
         11    1    1    2    0    0  0.23504140401E+02  0.12071085851E+02  0.32818330030E+02  0.42133104746E+02  0.00000000000E+00 0. -1.
</event>
<event>
 7    1  0.2666594E-009  0.1193073E+03  0.7561462E-02  0.1244244E+00
          2   -1    0    0  501    0  0.00000000000E+00  0.00000000000E+00  0.33106466346E+03  0.33106466346E+03  0.00000000000E+00 0. -1.
         -2   -1    0    0    0  501 -0.00000000000E+00 -0.00000000000E+00 -0.60465342975E+02  0.60465342975E+02  0.00000000000E+00 0.  1.
         25    2    1    2    0    0  0.39977756024E+02  0.10485379011E+02  0.10442947816E+03  0.16810982947E+03  0.12508890721E+03 0.  0.
          5    1    3    3  502    0  0.68026075016E+01  0.64135019052E+02  0.32476345193E+02  0.72330916866E+02  0.41800000000E+01 0. -1.
         -5    1    3    3    0  502  0.33175148523E+02 -0.53649640041E+02  0.71953132971E+02  0.95778912608E+02  0.41800000000E+01 0. -1.
        -11    1    1    2    0    0  0.33591826246E+02 -0.15565746922E+02  0.14056153806E+03  0.14535559587E+03  0.00000000000E+00 0. -1.
         11    1    1    2    0    0 -0.73569582271E+02  0.50803679113E+01  0.25608304253E+02  0.78064581087E+02  0.00000000000E+00 0.  1.
</event>
<event>
 7    1  0.2666594E-009  0.1059890E+03  0.7561462E-02  0.1268183E+00
          2   -1    0    0  501    0  0.00000000000E+00  0.00000000000E+00  0.17424295696E+03  0.17424295696E+03  0.00000000000E+00 0. -1.
         -2   -1    0    0    0  501 -0.00000000000E+00 -0.00000000000E+00 -0.12710727717E+03  0.12710727717E+03  0.00000000000E+00 0.  1.
         25    2    1    2    0    0 -0.87782546560E+02 -0.54820680063E+02  0.50732739019E+02  0.17010381863E+03  0.12510162214E+03 0.  0.
          5    1    3    3  502    0 -0.32157665604E+02 -0.24600577031E+02  0.87694359153E+02  0.96680281726E+02  0.41800000000E+01 0.  1.
         -5    1    3    3    0  502 -0.55624880955E+02 -0.30220103032E+02 -0.36961620134E+02  0.73423536904E+02  0.41800000000E+01 0.  1.
        -11    1    1    2    0    0  0.80528406805E+02  0.37058109302E+02 -0.34292396766E+02  0.95047862909E+02  0.00000000000E+00 0.  1.
         11    1    1    2    0    0  0.72541397546E+01  0.17762570761E+02  0.30695337529E+02  0.36198552590E+02  0.00000000000E+00 0. -1.
</event>
<event>
 7    1  0.2666594E-009  0.8757938E+02  0.7561462E-02  0.1308822E+00
          1   -1    0    0  501    0  0.00000000000E+00  0.00000000000E+00  0.29466181580E+03  0.29466181580E+03  0.00000000000E+00 0. -1.
         -1   -1    0    0    0  501 -0.00000000000E+00 -0.00000000000E+00 -0.52631698836E+02  0.52631698836E+02  0.00000000000E+00 0.  1.
         25    2    1    2    0    0 -0.54523406174E+02 -0.15452263676E+02  0.96485772116E+02  0.16783540171E+03  0.12509054150E+03 0.  0.
          5    1    3    3  502    0 -0.58081997539E+01  0.13965755913E+02 -0.27323624433E+02  0.31509210951E+02  0.41800000000E+01 0.  1.
         -5    1    3    3    0  502 -0.48715206420E+02 -0.29418019589E+02  0.12380939655E+03  0.13632619076E+03  0.41800000000E+01 0.  1.
        -11    1    1    2    0    0  0.62474037032E+02  0.41611658697E+02  0.12265280794E+03  0.14379932802E+03  0.00000000000E+00 0. -1.
         11    1    1    2    0    0 -0.79506308587E+01 -0.26159395021E+02  0.22891536899E+02  0.35658784900E+02  0.00000000000E+00 0.  1.
</event>
<event>
 7    1  0.2666594E-009  0.1231846E+03  0.7561462E-02  0.1237934E+00
          1   -1    0    0  501    0  0.00000000000E+00  0.00000000000E+00  0.17162737884E+03  0.17162737884E+03  0.00000000000E+00 0. -1.
         -1   -1    0    0    0  501 -0.00000000000E+00 -0.00000000000E+00 -0.13904056639E+03  0.13904056639E+03  0.00000000000E+00 0.  1.
         25    2    1    2    0    0 -0.10996724823E+03  0.21480565330E+01  0.16296834619E+02  0.16736294949E+03  0.12508940887E+03 0.  0.
          5    1    3    3  502    0 -0.21389224669E+02 -0.89324168959E+01  0.62477591048E+02  0.66769819430E+02  0.41800000000E+01 0. -1.
         -5    1    3    3    0  502 -0.88578023565E+02  0.11080473429E+02 -0.46180756428E+02  0.10059313006E+03  0.41800000000E+01 0. -1.
        -11    1    1    2    0    0 -0.45968878945E+01 -0.17288691751E+02 -0.15261620345E+02  0.23514831412E+02  0.00000000000E+00 0.  1.
         11    1    1    2    0    0  0.11456413613E+03  0.15140635217E+02  0.31551598178E+02  0.11979016433E+03  0.00000000000E+00 0. -1.
</event>
<event>
 7    1  0.2666594E-009  0.7951645E+02  0.7561462E-02  0.1330429E+00
         -3   -1    0    0    0  501 -0.00000000000E+00  0.00000000000E+00  0.36878605344E+03  0.36878605344E+03  0.00000000000E+00 0.  1.
          3   -1    0    0  501    0  0.00000000000E+00 -0.00000000000E+00 -0.43218496894E+02  0.43218496894E+02  0.00000000000E+00 0. -1.
         25    2    1    2    0    0 -0.11564112679E+02 -0.50145941725E+02  0.24455302926E+03  0.27946706704E+03  0.12508922122E+03 0.  0.
          5    1    3    3  502    0  0.22759190585E+02 -0.21487423686E+01  0.20933765654E+03  0.21062365654E+03  0.41800000000E+01 0.  1.
         -5    1    3    3    0  502 -0.34323303264E+02 -0.47997199356E+02  0.35215372724E+02  0.68843410498E+02  0.41800000000E+01 0.  1.
        -11    1    1    2    0    0 -0.23195791556E+02  0.20017083991E+02  0.80932049771E+02  0.86537420100E+02  0.00000000000E+00 0.  1.
         11    1    1    2    0    0  0.34759904235E+02  0.30128857734E+02  0.82477507807E-01  0.46000063189E+02  0.00000000000E+00 0. -1.
</event>
<event>
 7    1  0.2666594E-009  0.1523199E+03  0.7561462E-02  0.1197651E+00
          2   -1    0    0  501    0  0.00000000000E+00  0.00000000000E+00  0.10558723662E+04  0.10558723662E+04  0.00000000000E+00 0. -1.
         -2   -1    0    0    0  501 -0.00000000000E+00 -0.00000000000E+00 -0.26446158919E+02  0.26446158919E+02  0.00000000000E+00 0.  1.
         25    2    1    2    0    0  0.30322806327E+02  0.11362256042E+03  0.70185818733E+03  0.72255106448E+03  0.12508224031E+03 0.  0.
          5    1    3    3  502    0  0.49591490309E+02  0.10207879651E+02  0.10699399163E+03  0.11844282740E+03  0.41800000000E+01 0. -1.
         -5    1    3    3    0  502 -0.19268683983E+02  0.10341468077E+03  0.59486419569E+03  0.60410823707E+03  0.41800000000E+01 0. -1.
        -11    1    1    2    0    0 -0.56850641388E+02 -0.10708058052E+03  0.25964400411E+03  0.28655410487E+03  0.00000000000E+00 0. -1.
         11    1    1    2    0    0  0.26527835061E+02 -0.65419799071E+01  0.67924015834E+02  0.73213355757E+02  0.00000000000E+00 0.  1.
</event>
<event>
 7    1  0.2666594E-009  0.1055184E+03  0.7561462E-02  0.1269102E+00
         -4   -1    0    0    0  501 -0.00000000000E+00  0.00000000000E+00  0.21118520479E+03  0.21118520479E+03  0.00000000000E+00 0.  1.
          4   -1    0    0  501    0  0.00000000000E+00 -0.00000000000E+00 -0.63574307736E+02  0.63574307736E+02  0.00000000000E+00 0. -1.
         25    2    1    2    0    0  0.11221307295E+02 -0.23219270406E+02  0.11951804786E+03  0.17492181035E+03  0.12509206097E+03 0.  0.
          5    1    3    3  502    0 -0.56687905368E+02 -0.12250040697E+02  0.45901278584E+02  0.74080914463E+02  0.41800000000E+01 0.  1.
         -5    1    3    3    0  502  0.67909212663E+02 -0.10969229709E+02  0.73616769272E+02  0.10084089589E+03  0.41800000000E+01 0.  1.
        -11    1    1    2    0    0  0.32321035801E+02 -0.40856620973E+01  0.35189496469E+02  0.47954589475E+02  0.00000000000E+00 0.  1.
         11    1    1    2    0    0 -0.43542343096E+02  0.27304932503E+02 -0.70966472697E+01  0.51883112703E+02  0.00000000000E+00 0. -1.
</event>
<event>
 7    1  0.2666594E-009  0.1688831E+03  0.7561462E-02  0.1179018E+00
          2   -1    0    0  501    0  0.00000000000E+00  0.00000000000E+00  0.45276618444E+03  0.45276618444E+03  0.00000000000E+00 0. -1.
         -2   -1    0    0    0  501 -0.00000000000E+00 -0.00000000000E+00 -0.14756547042E+03  0.14756547042E+03  0.00000000000E+00 0.  1.
         25    2    1    2    0    0 -0.46194521642E+02 -0.13879460935E+03  0.36917493282E+03  0.41633520319E+03  0.12508794098E+03 0.  0.
          5    1    3    3  502    0 -0.35656640588E+02  0.10496315346E+02  0.40296964083E+02  0.54980781808E+02  0.41800000000E+01 0.  1.
         -5    1    3    3    0  502 -0.10537881054E+02 -0.14929092469E+03  0.32887796874E+03  0.36135442138E+03  0.41800000000E+01 0.  1.
        -11    1    1    2    0    0  0.51815416220E+02  0.11408171385E+03 -0.84714069490E+02  0.15124796978E+03  0.00000000000E+00 0.  1.
         11    1    1    2    0    0 -0.56208945775E+01  0.24712895497E+02  0.20739850689E+02  0.32748481893E+02  0.00000000000E+00 0. -1.
</event>
<event>
 7    1  0.2666594E-009  0.1022013E+03  0.7561462E-02  0.1275734E+00
          2   -1    0    0  501    0  0.00000000000E+00  0.00000000000E+00  0.26698180548E+03  0.26698180548E+03  0.00000000000E+00 0. -1.
         -2   -1    0    0    0  501 -0.00000000000E+00 -0.00000000000E+00 -0.56619662242E+02  0.56619662242E+02  0.00000000000E+00 0.  1.
         25    2    1    2    0    0  0.32642253530E+02  0.32770762731E+02  0.16659491673E+03  0.21340248341E+03  0.12508922432E+03 0.  0.
          5    1    3    3  502    0 -0.36097049699E+02  0.46208110827E+02  0.10355939448E+03  0.11908067471E+03  0.41800000000E+01 0. -1.
         -5    1    3    3    0  502  0.68739303229E+02 -0.13437348095E+02  0.63035522249E+02  0.94321808705E+02  0.41800000000E+01 0. -1.
        -11    1    1    2    0    0  0.72682240030E+00 -0.41062492091E+02  0.59572064492E+02  0.72356667940E+02  0.00000000000E+00 0. -1.
         11    1    1    2    0    0 -0.33369075930E+02  0.82917293596E+01 -0.15804837988E+02  0.37842316368E+02  0.00000000000E+00 0.  1.
</event>
<event>
 7    1  0.2666594E-009  0.1649007E+03  0.7561462E-02  0.1183272E+00
          2   -1    0    0  501    0  0.00000000000E+00  0.00000000000E+00  0.36930655180E+03  0.36930655180E+03  0.00000000000E+00 0. -1.
         -2   -1    0    0    0  501 -0.00000000000E+00 -0.00000000000E+00 -0.93089622813E+02  0.93089622813E+02  0.00000000000E+00 0.  1.
         25    2    1    2    0    0 -0.14615468496E+03  0.21299132047E+01  0.17819789657E+03  0.26223929806E+03  0.12509688500E+03 0.  0.
          5    1    3    3  502    0 -0.71209251241E+02 -0.44949510285E+02  0.29842527248E+02  0.89438608943E+02  0.41800000000E+01 0.  1.
         -5    1    3    3    0  502 -0.74945433722E+02  0.47079423490E+02  0.14835536932E+03  0.17280068912E+03  0.41800000000E+01 0.  1.
        -11    1    1    2    0    0  0.35373892420E+02  0.24397120737E+02 -0.89493499410E+01  0.43893309622E+02  0.00000000000E+00 0. -1.
         11    1    1    2    0    0  0.11078079254E+03 -0.26527033942E+02  0.10696838235E+03  0.15626356693E+03  0.00000000000E+00 0.  1.
</event>
<event>
 7    1  0.2666594E-009  0.1139558E+03  0.7561462E-02  0.1253415E+00
          2   -1    0    0  501    0  0.00000000000E+00  0.00000000000E+00  0.86000496184E+03  0.86000496184E+03  0.00000000000E+00 0. -1.
         -2   -1    0    0    0  501 -0.00000000000E+00 -0.00000000000E+00 -0.16001467584E+02  0.16001467584E+02  0.00000000000E+00 0.  1.
         25    2    1    2    0    0  0.21095049457E+02  0.41373446992E+02  0.52984153389E+03  0.54638480334E+03  0.12509012372E+03 0.  0.
          5    1    3    3  502    0  0.49114764164E+02  0.74659262598E+02  0.37158661487E+03  0.38220459220E+03  0.41800000000E+01 0.  1.
         -5    1    3    3    0  502 -0.28019714707E+02 -0.33285815606E+02  0.15825491902E+03  0.16418021113E+03  0.41800000000E+01 0.  1.
        -11    1    1    2    0    0 -0.84260669602E+01  0.25406514355E+02  0.14250653739E+03  0.14499863025E+03  0.00000000000E+00 0. -1.
         11    1    1    2    0    0 -0.12668982496E+02 -0.66779961348E+02  0.17165542298E+03  0.18462299584E+03  0.00000000000E+00 0.  1.
</event>
<event>
 7    1  0.2666594E-009  0.1108563E+03  0.7561462E-02  0.1258992E+00
          1   -1    0    0  501    0  0.00000000000E+00  0.00000000000E+00  0.58024804123E+03  0.58024804123E+03  0.00000000000E+00 0. -1.
         -1   -1    0    0    0  501 -0.00000000000E+00 -0.00000000000E+00 -0.35081288938E+02  0.35081288938E+02  0.00000000000E+00 0.  1.
         25    2    1    2    0    0  0.71140826040E+02 -0.47653264464E+02  0.38422723178E+03  0.41304965186E+03  0.12509036138E+03 0.  0.
          5    1    3    3  502    0  0.12895380739E+02  0.10276706371E+02  0.27885772386E+03  0.27937609793E+03  0.41800000000E+01 0. -1.
         -5    1    3    3    0  502  0.58245445301E+02 -0.57929970835E+02  0.10536950792E+03  0.13367355393E+03  0.41800000000E+01 0. -1.
        -11    1    1    2    0    0 -0.16670970627E+01 -0.23174150559E+02  0.27548796579E+02  0.36038266602E+02  0.00000000000E+00 0. -1.
         11    1    1    2    0    0 -0.69473728978E+02  0.70827415023E+02  0.13339072393E+03  0.16624141171E+03  0.00000000000E+00 0.  1.
</event>
<event>
 7    1  0.2666594E-009  0.1638833E+03  0.7561462E-02  0.1184381E+00
          1   -1    0    0  501    0  0.00000000000E+00  0.00000000000E+00  0.26588748810E+02  0.26588748810E+02  0.00000000000E+00 0. -1.
         -1   -1    0    0    0  501 -0.00000000000E+00 -0.00000000000E+00 -0.13353559741E+04  0.13353559741E+04  0.00000000000E+00 0.  1.
         25    2    1    2    0    0  0.14323853885E+03 -0.55717164853E+02 -0.61846463712E+03  0.64943620161E+03  0.12508873302E+03 0.  0.
          5    1    3    3  502    0  0.27492615174E+02 -0.44674408725E+02 -0.38507777106E+03  0.38865667220E+03  0.41800000000E+01 0.  1.
         -5    1    3    3    0  502  0.11574592368E+03 -0.11042756127E+02 -0.23338686606E+03  0.26077952941E+03  0.41800000000E+01 0.  1.
        -11    1    1    2    0    0 -0.12606270947E+03  0.62031153613E+02 -0.67235147637E+03  0.68687420865E+03  0.00000000000E+00 0.  1.
         11    1    1    2    0    0 -0.17175829381E+02 -0.63139887599E+01 -0.17951111751E+02  0.25634312592E+02  0.00000000000E+00 0. -1.
</event>
<event>
 7    1  0.2666594E-009  0.1185552E+03  0.7561462E-02  0.1245500E+00
         -1   -1    0    0    0  501 -0.00000000000E+00  0.00000000000E+00  0.58338664132E+03  0.58338664132E+03  0.00000000000E+00 0.  1.
          1   -1    0    0  501    0  0.00000000000E+00 -0.00000000000E+00 -0.44587221065E+02  0.44587221065E+02  0.00000000000E+00 0. -1.
         25    2    1    2    0    0 -0.56285108915E+02  0.67716950603E+02  0.45159111120E+03  0.47679779559E+03  0.12509199529E+03 0.  0.
          5    1    3    3  502    0 -0.12135385591E+02 -0.30826660657E+02  0.20309960682E+03  0.20582631825E+03  0.41800000000E+01 0.  1.
         -5    1    3    3    0  502 -0.44149723323E+02  0.98543611259E+02  0.24849150437E+03  0.27097147735E+03  0.41800000000E+01 0.  1.
        -11    1    1    2    0    0  0.35645042292E+02 -0.14329621741E+02  0.85701084232E+02  0.93917958548E+02  0.00000000000E+00 0.  1.
         11    1    1    2    0    0  0.20640066622E+02 -0.53387328862E+02  0.15072248274E+01  0.57258108245E+02  0.00000000000E+00 0. -1.
</event>
<event>
 7    1  0.2666594E-009  0.1110857E+03  0.7561462E-02  0.1258573E+00
         -1   -1    0    0    0  501 -0.00000000000E+00  0.00000000000E+00  0.90809216683E+02  0.90809216683E+02  0.00000000000E+00 0. -1.
          1   -1    0    0  501    0  0.00000000000E+00 -0.00000000000E+00 -0.37290079594E+03  0.37290079594E+03  0.00000000000E+00 0.  1.
         25    2    1    2    0    0 -0.54204251814E+02  0.39039568932E+02  0.17659644730E+02  0.14290797494E+03  0.12509451384E+03 0.  0.
          5    1    3    3  502    0  0.23405769219E+02  0.54096784375E+02 -0.81251732745E+01  0.59647153773E+02  0.41800000000E+01 0.  1.
         -5    1    3    3    0  502 -0.77610021033E+02 -0.15057215444E+02  0.25784818005E+02  0.83260821166E+02  0.41800000000E+01 0.  1.
        -11    1    1    2    0    0  0.17882254380E+02 -0.43771760922E+02 -0.26856394061E+03  0.27269457690E+03  0.00000000000E+00 0.  1.
         11    1    1    2    0    0  0.36321997435E+02  0.47321919905E+01 -0.31187283381E+02  0.48107460787E+02  0.00000000000E+00 0. -1.
</event>
<event>
 7    1  0.2666594E-009  0.1342694E+03  0.7561462E-02  0.1221255E+00
         -1   -1    0    0    0  501 -0.00000000000E+00  0.00000000000E+00  0.12347580413E+03  0.12347580413E+03  0.00000000000E+00 0.  1.
          1   -1    0    0  501    0  0.00000000000E+00 -0.00000000000E+00 -0.29863131410E+03  0.29863131410E+03  0.00000000000E+00 0. -1.
         25    2    1    2    0    0 -0.70850945978E+01 -0.10635102254E+03 -0.22128055636E+03  0.27563301443E+03  0.12509090877E+03 0.  0.
          5    1    3    3  502    0  0.10796936900E+02 -0.11163855356E+03 -0.92500078716E+02  0.14544235095E+03  0.41800000000E+01 0. -1.
         -5    1    3    3    0  502 -0.17882031498E+02  0.52875310135E+01 -0.12878047765E+03  0.13019066348E+03  0.41800000000E+01 0. -1.
        -11    1    1    2    0    0  0.21034852342E+02 -0.76180192434E+01  0.16775519285E+02  0.27962783794E+02  0.00000000000E+00 0.  1.
         11    1    1    2    0    0 -0.13949757744E+02  0.11396904179E+03  0.29349527107E+02  0.11851132000E+03  0.00000000000E+00 0. -1.
</event>
<event>
 7    1  0.2666594E-009  0.1747954E+03  0.7561462E-02  0.1172937E+00
         -1   -1    0    0    0  501 -0.00000000000E+00  0.00000000000E+00  0.25225493896E+02  0.25225493896E+02  0.00000000000E+00 0.  1.
          1   -1    0    0  501    0  0.00000000000E+00 -0.00000000000E+00 -0.13709089515E+04  0.13709089515E+04  0.00000000000E+00 0. -1.
         25    2    1    2    0    0 -0.44543460816E+02  0.14264158638E+03 -0.77572309839E+03  0.79982849736E+03  0.12509419550E+03 0.  0.
          5    1    3    3  502    0 -0.65156587449E+02  0.38512790780E+02 -0.47234499397E+03  0.47838883941E+03  0.41800000000E+01 0. -1.
         -5    1    3    3    0  502  0.20613126632E+02  0.10412879560E+03 -0.30337810441E+03  0.32143965794E+03  0.41800000000E+01 0. -1.
        -11    1    1    2    0    0  0.42991435392E+02 -0.24654934281E+02 -0.97998932054E+02  0.10981766700E+03  0.00000000000E+00 0.  1.
         11    1    1    2    0    0  0.15520254244E+01 -0.11798665210E+03 -0.47196142715E+03  0.48648828103E+03  0.00000000000E+00 0. -1.
</event>
<event>
 7    1  0.2666594E-009  0.8673401E+02  0.7561462E-02  0.1310959E+00
          2   -1    0    0  501    0  0.00000000000E+00  0.00000000000E+00  0.27819074254E+03  0.27819074254E+03  0.00000000000E+00 0.  1.
         -2   -1    0    0    0  501 -0.00000000000E+00 -0.00000000000E+00 -0.60202704661E+02  0.60202704661E+02  0.00000000000E+00 0. -1.
         25    2    1    2    0    0  0.10485489902E+02  0.57551521105E+02  0.82984649007E+02  0.16111027215E+03  0.12509174530E+03 0.  0.
          5    1    3    3  502    0  0.27293961949E+02  0.50592470973E+02 -0.16450142882E+02  0.59938619260E+02  0.41800000000E+01 0.  1.
         -5    1    3    3    0  502 -0.16808472047E+02  0.69590501319E+01  0.99434791889E+02  0.10117165289E+03  0.41800000000E+01 0.  1.
        -11    1    1    2    0    0 -0.14068515789E+01 -0.76311007903E+02  0.13649939241E+03  0.15638872493E+03  0.00000000000E+00 0.  1.
         11    1    1    2    0    0 -0.90786383229E+01  0.18759486798E+02 -0.14960035418E+01  0.20894450108E+02  0.00000000000E+00 0. -1.
</event>
<event>
 7    1  0.2666594E-009  0.1133903E+03  0.7561462E-02  0.1254417E+00
          1   -1    0    0  501    0  0.00000000000E+00  0.00000000000E+00  0.74675910702E+02  0.74675910702E+02  0.00000000000E+00 0. -1.
         -1   -1    0    0    0  501 -0.00000000000E+00 -0.00000000000E+00 -0.34211471618E+03  0.34211471618E+03  0.00000000000E+00 0.  1.
         25    2    1    2    0    0 -0.77902975415E+01 -0.52549678430E+02 -0.58124882832E+01  0.13602226957E+03  0.12508443293E+03 0.  0.
          5    1    3    3  502    0  0.53189185128E+02 -0.52359463732E+02 -0.44074282618E+01  0.74883246996E+02  0.41800000000E+01 0.  1.
         -5    1    3    3    0  502 -0.60979482669E+02 -0.19021469810E+00 -0.14050600214E+01  0.61139022579E+02  0.41800000000E+01 0.  1.
        -11    1    1    2    0    0  0.35751674621E+02  0.54987837392E+01 -0.47196612842E+02  0.59463763121E+02  0.00000000000E+00 0.  1.
         11    1    1    2    0    0 -0.27961377079E+02  0.47050894691E+02 -0.21442970436E+03  0.22130459419E+03  0.00000000000E+00 0. -1.
</event>
<event>
 7    1  0.2666594E-009  0.1357133E+03  0.7561462E-02  0.1219216E+00
          2   -1    0    0  501    0  0.00000000000E+00  0.00000000000E+00  0.24202016724E+03  0.24202016724E+03  0.00000000000E+00 0. -1.
         -2   -1    0    0    0  501 -0.00000000000E+00 -0.00000000000E+00 -0.10295014274E+03  0.10295014274E+03  0.00000000000E+00 0.  1.
         25    2    1    2    0    0  0.53803135772E+02  0.96123478619E+02  0.50572469969E+02  0.17418024750E+03  0.12508670329E+03 0.  0.
          5    1    3    3  502    0 -0.10246071298E+02  0.74615987761E+02 -0.18289560543E+02  0.77617704369E+02  0.41800000000E+01 0.  1.
         -5    1    3    3    0  502  0.64049207070E+02  0.21507490858E+02  0.68862030512E+02  0.96562543129E+02  0.41800000000E+01 0.  1.
        -11    1    1    2    0    0 -0.64232481280E+02 -0.98511309196E+02  0.44872702969E+02  0.12587235265E+03  0.00000000000E+00 0.  1.
         11    1    1    2    0    0  0.10429345508E+02  0.23878305767E+01  0.43624851563E+02  0.44917709831E+02  0.00000000000E+00 0. -1.
</event>
<event>
 7    1  0.2666594E-009  0.7820230E+02  0.7561462E-02  0.1334232E+00
         -2   -1    0    0    0  501 -0.00000000000E+00  0.00000000000E+00  0.48794270676E+02  0.48794270676E+02  0.00000000000E+00 0.  1.
          2   -1    0    0  501    0  0.00000000000E+00 -0.00000000000E+00 -0.41777860558E+03  0.41777860558E+03  0.00000000000E+00 0. -1.
         25    2    1    2    0    0  0.57995135948E+01 -0.30991782842E+02 -0.59092203531E+02  0.14189365879E+03  0.12509115447E+03 0.  0.
          5    1    3    3  502    0  0.24444075438E+02 -0.13372492826E+01 -0.90999357468E+02  0.94327390080E+02  0.41800000000E+01 0.  1.
         -5    1    3    3    0  502 -0.18644561843E+02 -0.29654533559E+02  0.31907153937E+02  0.47566268713E+02  0.41800000000E+01 0.  1.
        -11    1    1    2    0    0  0.40456584958E+02  0.29396383563E+02 -0.14320769493E+03  0.15168825439E+03  0.00000000000E+00 0.  1.
         11    1    1    2    0    0 -0.46256098553E+02  0.15953992787E+01 -0.16668443644E+03  0.17299096307E+03  0.00000000000E+00 0. -1.
</event>
<event>
 7    1  0.2666594E-009  0.1621104E+03  0.7561462E-02  0.1186335E+00
         -2   -1    0    0    0  501 -0.00000000000E+00  0.00000000000E+00  0.10899032690E+03  0.10899032690E+03  0.00000000000E+00 0.  1.
          2   -1    0    0  501    0  0.00000000000E+00 -0.00000000000E+00 -0.28142841573E+03  0.28142841573E+03  0.00000000000E+00 0. -1.
         25    2    1    2    0    0 -0.33246352417E+01  0.12422537299E+03 -0.28104237581E+02  0.17855312747E+03  0.12509346372E+03 0.  0.
          5    1    3    3  502    0 -0.51540426708E+02  0.11622616946E+03 -0.18120906917E+02  0.12849427116E+03  0.41800000000E+01 0.  1.
         -5    1    3    3    0  502  0.48215791466E+02  0.79992035246E+01 -0.99833306643E+01  0.50058856308E+02  0.41800000000E+01 0.  1.
        -11    1    1    2    0    0  0.26494957264E+02 -0.12181377968E+03 -0.14120678896E+03  0.18836118742E+03  0.00000000000E+00 0. -1.
         11    1    1    2    0    0 -0.23170322022E+02 -0.24115933079E+01 -0.31270622897E+01  0.23504427742E+02  0.00000000000E+00 0.  1.
</event>
<event>
 7    1  0.2666594E-009  0.2785519E+03  0.7561462E-02  0.1096482E+00
         -1   -1    0    0    0  501 -0.00000000000E+00  0.00000000000E+00  0.10839820611E+03  0.10839820611E+03  0.00000000000E+00 0.  1.
          1   -1    0    0  501    0  0.00000000000E+00 -0.00000000000E+00 -0.77536666164E+03  0.77536666164E+03  0.00000000000E+00 0. -1.
         25    2    1    2    0    0  0.64036572857E+02 -0.26032983280E+03 -0.36967367576E+03  0.47347820228E+03  0.12510266573E+03 0.  0.
          5    1    3    3  502    0  0.23314896541E+01 -0.20126685498E+03 -0.30831495706E+03  0.36822461610E+03  0.41800000000E+01 0. -1.
         -5    1    3    3    0  502  0.61705083202E+02 -0.59062977816E+02 -0.61358718706E+02  0.10525358618E+03  0.41800000000E+01 0. -1.
        -11    1    1    2    0    0 -0.54337874001E+02  0.15058266000E+03 -0.11436619317E+03  0.19674188213E+03  0.00000000000E+00 0. -1.
         11    1    1    2    0    0 -0.96986988553E+01  0.10974717280E+03 -0.18292858659E+03  0.21354478334E+03  0.00000000000E+00 0.  1.
</event>
<event>
 7    1  0.2666594E-009  0.1553209E+03  0.7561462E-02  0.1194083E+00
         -1   -1    0    0    0  501 -0.00000000000E+00  0.00000000000E+00  0.27160617659E+03  0.27160617659E+03  0.00000000000E+00 0.  1.
          1   -1    0    0  501    0  0.00000000000E+00 -0.00000000000E+00 -0.15138935802E+03  0.15138935802E+03  0.00000000000E+00 0. -1.
         25    2    1    2    0    0  0.51368070774E+02  0.13489291671E+03  0.15716247999E+03  0.24735469936E+03  0.12509805957E+03 0.  0.
          5    1    3    3  502    0  0.38372588471E+02  0.71266144976E+02  0.16298047778E+03  0.18202040408E+03  0.41800000000E+01 0.  1.
         -5    1    3    3    0  502  0.12995482303E+02  0.63626771734E+02 -0.58179977885E+01  0.65334295281E+02  0.41800000000E+01 0.  1.
        -11    1    1    2    0    0  0.89022555429E+01 -0.87221342125E+02 -0.44689339602E+02  0.98407061484E+02  0.00000000000E+00 0.  1.
         11    1    1    2    0    0 -0.60270326317E+02 -0.47671574584E+02  0.77436781841E+01  0.77233773762E+02  0.00000000000E+00 0. -1.
</event>
<event>
 7    1  0.2666594E-009  0.9001502E+02  0.7561462E-02  0.1302815E+00
          1   -1    0    0  501    0  0.00000000000E+00  0.00000000000E+00  0.74046846556E+03  0.74046846556E+03  0.00000000000E+00 0. -1.
         -1   -1    0    0    0  501 -0.00000000000E+00 -0.00000000000E+00 -0.18122273881E+02  0.18122273881E+02  0.00000000000E+00 0.  1.
         25    2    1    2    0    0  0.16306223092E+01  0.23781229405E+02  0.29993300862E+03  0.32584599770E+03  0.12509036236E+03 0.  0.
          5    1    3    3  502    0  0.16686188166E+02 -0.27499486522E+02  0.14687725641E+02  0.35606913921E+02  0.41800000000E+01 0.  1.
         -5    1    3    3    0  502 -0.15055565857E+02  0.51280715928E+02  0.28524528298E+03  0.29023908378E+03  0.41800000000E+01 0.  1.
        -11    1    1    2    0    0 -0.39277476971E+02  0.12980390313E+02  0.18278633026E+03  0.18740878651E+03  0.00000000000E+00 0.  1.
         11    1    1    2    0    0  0.37646854662E+02 -0.36761619718E+02  0.23962685280E+03  0.24533595523E+03  0.00000000000E+00 0. -1.
</event>
<event>
 7    1  0.2666594E-009  0.1515631E+03  0.7561462E-02  0.1198565E+00
         -2   -1    0    0    0  501 -0.00000000000E+00  0.00000000000E+00  0.10984950838E+03  0.10984950838E+03  0.00000000000E+00 0.  1.
          2   -1    0    0  501    0  0.00000000000E+00 -0.00000000000E+00 -0.31030508779E+03  0.31030508779E+03  0.00000000000E+00 0. -1.
         25    2    1    2    0    0 -0.57903462593E+02  0.11327022220E+03 -0.14242411965E+02  0.17897316607E+03  0.12508234750E+03 0.  0.
          5    1    3    3  502    0  0.36980459914E+02  0.45703366100E+02 -0.20089413499E+02  0.62268844722E+02  0.41800000000E+01 0. -1.
         -5    1    3    3    0  502 -0.94883922507E+02  0.67566856098E+02  0.58470015341E+01  0.11670432134E+03  0.41800000000E+01 0. -1.
        -11    1    1    2    0    0  0.40200499369E+02 -0.67630005736E+02 -0.42631045756E+02  0.89483539758E+02  0.00000000000E+00 0.  1.
         11    1    1    2    0    0  0.17702963225E+02 -0.45640216462E+02 -0.14358212169E+03  0.15169789034E+03  0.00000000000E+00 0. -1.
</event>
<event>
 7    1  0.2666594E-009  0.1280241E+03  0.7561462E-02  0.1230417E+00
          2   -1    0    0  501    0  0.00000000000E+00  0.00000000000E+00  0.10253375589E+03  0.10253375589E+03  0.00000000000E+00 0. -1.
         -2   -1    0    0    0  501 -0.00000000000E+00 -0.00000000000E+00 -0.26746380343E+03  0.26746380343E+03  0.00000000000E+00 0.  1.
         25    2    1    2    0    0 -0.27968273358E+02 -0.11718375186E+03 -0.44784331671E+02  0.17935251988E+03  0.12508970386E+03 0.  0.
          5    1    3    3  502    0  0.39636431701E+01 -0.26873164635E+01  0.35362876297E+02  0.35929619493E+02  0.41800000000E+01 0. -1.
         -5    1    3    3    0  502 -0.31931916528E+02 -0.11449643539E+03 -0.80147207968E+02  0.14342290039E+03  0.41800000000E+01 0. -1.
        -11    1    1    2    0    0 -0.10547869009E+02  0.41468919168E+01 -0.51854466235E+02  0.53078620195E+02  0.00000000000E+00 0.  1.
         11    1    1    2    0    0  0.38516142367E+02  0.11303685994E+03 -0.68291249629E+02  0.13756641925E+03  0.00000000000E+00 0. -1.
</event>
<event>
 7    1  0.2666594E-009  0.9924086E+02  0.7561462E-02  0.1281900E+00
          1   -1    0    0  501    0  0.00000000000E+00  0.00000000000E+00  0.96431993900E+02  0.96431993900E+02  0.00000000000E+00 0.  1.
         -1   -1    0    0    0  501 -0.00000000000E+00 -0.00000000000E+00 -0.15176613309E+03  0.15176613309E+03  0.00000000000E+00 0. -1.
         25    2    1    2    0    0 -0.16521048361E+02 -0.50838744664E+01  0.20521936019E+02  0.12793339293E+03  0.12508801841E+03 0.  0.
          5    1    3    3  502    0  0.17167443304E+02 -0.56477360672E+02  0.28754318800E+02  0.65792831127E+02  0.41800000000E+01 0.  1.
         -5    1    3    3    0  502 -0.33688491665E+02  0.51393486205E+02 -0.82323827813E+01  0.62140561804E+02  0.41800000000E+01 0.  1.
        -11    1    1    2    0    0  0.30960597438E+02 -0.27918377433E+02 -0.73080163732E+02  0.84135038618E+02  0.00000000000E+00 0. -1.
         11    1    1    2    0    0 -0.14439549077E+02  0.33002251900E+02 -0.27759114739E+01  0.36129695439E+02  0.00000000000E+00 0.  1.
</event>
<event>
 7    1  0.2666594E-009  0.1217992E+03  0.7561462E-02  0.1240158E+00
         -1   -1    0    0    0  501 -0.00000000000E+00  0.00000000000E+00  0.88978698571E+02  0.88978698571E+02  0.00000000000E+00 0.  1.
          1   -1    0    0  501    0  0.00000000000E+00 -0.00000000000E+00 -0.25880521448E+03  0.25880521448E+03  0.00000000000E+00 0. -1.
         25    2    1    2    0    0  0.52449417472E+02  0.80926919866E+02 -0.39248981504E+02  0.16275099760E+03  0.12508915588E+03 0.  0.
          5    1    3    3  502    0 -0.35177897611E+01 -0.69821499417E+01 -0.56366047947E+02  0.57058995993E+02  0.41800000000E+01 0.  1.
         -5    1    3    3    0  502  0.55967207233E+02  0.87909069808E+02  0.17117066443E+02  0.10569200161E+03  0.41800000000E+01 0.  1.
        -11    1    1    2    0    0  0.24922106266E+02 -0.19350782845E+02 -0.39892483467E+02  0.50862308389E+02  0.00000000000E+00 0.  1.
         11    1    1    2    0    0 -0.77371523738E+02 -0.61576137021E+02 -0.90685050937E+02  0.13417060706E+03  0.00000000000E+00 0. -1.
</event>
<event>
 7    1  0.2666594E-009  0.1692477E+03  0.7561462E-02  0.1178635E+00
          1   -1    0    0  501    0  0.00000000000E+00  0.00000000000E+00  0.95854199382E+03  0.95854199382E+03  0.00000000000E+00 0. -1.
         -1   -1    0    0    0  501 -0.00000000000E+00 -0.00000000000E+00 -0.41789763842E+02  0.41789763842E+02  0.00000000000E+00 0.  1.
         25    2    1    2    0    0 -0.96489781537E+02 -0.11695230427E+03  0.30289771637E+03  0.36108598889E+03  0.12509174783E+03 0.  0.
          5    1    3    3  502    0 -0.67107708880E+02 -0.25423525725E+02  0.22825987070E+03  0.23931118073E+03  0.41800000000E+01 0.  1.
         -5    1    3    3    0  502 -0.29382072657E+02 -0.91528778541E+02  0.74637845670E+02  0.12177480815E+03  0.41800000000E+01 0.  1.
        -11    1    1    2    0    0  0.40932996930E+02  0.20737207877E-01  0.24350717420E+03  0.24692358039E+03  0.00000000000E+00 0. -1.
         11    1    1    2    0    0  0.55556784606E+02  0.11693156706E+03  0.37034733940E+03  0.39232218838E+03  0.00000000000E+00 0.  1.
</event>
<event>
 7    1  0.2666594E-009  0.1252074E+03  0.7561462E-02  0.1234746E+00
         -1   -1    0    0    0  501 -0.00000000000E+00  0.00000000000E+00  0.24450750760E+02  0.24450750760E+02  0.00000000000E+00 0.  1.
          1   -1    0    0  501    0  0.00000000000E+00 -0.00000000000E+00 -0.78558736486E+03  0.78558736486E+03  0.00000000000E+00 0. -1.
         25    2    1    2    0    0 -0.86181651804E+02  0.64887996022E+01 -0.46456806570E+03  0.48881571023E+03  0.12509168347E+03 0.  0.
          5    1    3    3  502    0 -0.89345262910E+02  0.53807154656E+02 -0.32511584761E+03  0.34146093871E+03  0.41800000000E+01 0. -1.
         -5    1    3    3    0  502  0.31636111058E+01 -0.47318355054E+02 -0.13945221809E+03  0.14735477152E+03  0.41800000000E+01 0. -1.
        -11    1    1    2    0    0  0.53674244337E+02  0.19188709835E+02 -0.25932759681E+03  0.26551823583E+03  0.00000000000E+00 0.  1.
         11    1    1    2    0    0  0.32507407468E+02 -0.25677509437E+02 -0.37240951590E+02  0.55704169561E+02  0.00000000000E+00 0. -1.
</event>
<event>
 7    1  0.2666594E-009  0.1056542E+03  0.7561462E-02  0.1268836E+00
          3   -1    0    0  501    0  0.00000000000E+00  0.00000000000E+00  0.13213838323E+03  0.13213838323E+03  0.00000000000E+00 0. -1.
         -3   -1    0    0    0  501 -0.00000000000E+00 -0.00000000000E+00 -0.10459729252E+03  0.10459729252E+03  0.00000000000E+00 0.  1.
         25    2    1    2    0    0  0.39936249604E+02 -0.82163645721E+01 -0.25380907879E+01  0.13158873406E+03  0.12508693117E+03 0.  0.
          5    1    3    3  502    0  0.79960773731E+02 -0.25490217953E+02  0.13187421439E+02  0.85057962773E+02  0.41800000000E+01 0. -1.
         -5    1    3    3    0  502 -0.40024524126E+02  0.17273853381E+02 -0.15725512227E+02  0.46530771291E+02  0.41800000000E+01 0. -1.
        -11    1    1    2    0    0 -0.52393825759E+02 -0.17229832538E+02 -0.10011648339E+02  0.56055447633E+02  0.00000000000E+00 0.  1.
         11    1    1    2    0    0  0.12457576154E+02  0.25446197110E+02  0.40090829843E+02  0.49091494054E+02  0.00000000000E+00 0. -1.
</event>
<event>
 7    1  0.2666594E-009  0.1035908E+03  0.7561462E-02  0.1272921E+00
          4   -1    0    0  501    0  0.00000000000E+00  0.00000000000E+00  0.90138489692E+03  0.90138489692E+03  0.00000000000E+00 0. -1.
         -4   -1    0    0    0  501 -0.00000000000E+00 -0.00000000000E+00 -0.14166485840E+02  0.14166485840E+02  0.00000000000E+00 0.  1.
         25    2    1    2    0    0 -0.48478172860E+01  0.57480602449E+01  0.64723394124E+03  0.65925385377E+03  0.12508927810E+03 0.  0.
          5    1    3    3  502    0 -0.56818371575E+02  0.27088270400E+02  0.43998338771E+03  0.44448279562E+03  0.41800000000E+01 0.  1.
         -5    1    3    3    0  502  0.51970554289E+02 -0.21340210155E+02  0.20725055352E+03  0.21477105815E+03  0.41800000000E+01 0.  1.
        -11    1    1    2    0    0  0.40477379123E+02 -0.24686037519E+02  0.10099843615E+03  0.11157285859E+03  0.00000000000E+00 0.  1.
         11    1    1    2    0    0 -0.35629561837E+02  0.18937977274E+02  0.13898603369E+03  0.14472467040E+03  0.00000000000E+00 0. -1.
</event>
<event>
 7    1  0.2666594E-009  0.1071914E+03  0.7561462E-02  0.1265861E+00
          2   -1    0    0  501    0  0.00000000000E+00  0.00000000000E+00  0.17815135524E+03  0.17815135524E+03  0.00000000000E+00 0. -1.
         -2   -1    0    0    0  501 -0.00000000000E+00 -0.00000000000E+00 -0.13379548944E+03  0.13379548944E+03  0.00000000000E+00 0.  1.
         25    2    1    2    0    0 -0.76663500835E+02 -0.57598469176E+02 -0.30340178229E+02  0.16051170967E+03  0.12509439042E+03 0.  0.
          5    1    3    3  502    0 -0.47856994566E+02 -0.71570056182E+02  0.30664422509E+02  0.91489584537E+02  0.41800000000E+01 0.  1.
         -5    1    3    3    0  502 -0.28806506268E+02  0.13971587007E+02 -0.61004600738E+02  0.69022125135E+02  0.41800000000E+01 0.  1.
        -11    1    1    2    0    0  0.22215522369E+02  0.16010736999E+02  0.78175824859E+02  0.82833161993E+02  0.00000000000E+00 0. -1.
         11    1    1    2    0    0  0.54447978466E+02  0.41587732177E+02 -0.34797808372E+01  0.68601973014E+02  0.00000000000E+00 0.  1.
</event>
<event>
 7    1  0.2666594E-009  0.9883927E+02  0.7561462E-02  0.1282756E+00
          2   -1    0    0  501    0  0.00000000000E+00  0.00000000000E+00  0.32991128120E+03  0.32991128120E+03  0.00000000000E+00 0. -1.
         -2   -1    0    0    0  501 -0.00000000000E+00 -0.00000000000E+00 -0.53951198375E+02  0.53951198375E+02  0.00000000000E+00 0.  1.
         25    2    1    2    0    0 -0.31779814540E+02  0.57761891984E+02  0.93661413410E+02  0.16961797927E+03  0.12510557842E+03 0.  0.
          5    1    3    3  502    0 -0.56378713288E+02  0.52197479854E+02  0.47362847117E+01  0.77091121460E+02  0.41800000000E+01 0.  1.
         -5    1    3    3    0  502  0.24598898748E+02  0.55644121302E+01  0.88925128698E+02  0.92526857809E+02  0.41800000000E+01 0.  1.
        -11    1    1    2    0    0 -0.13733404686E+02 -0.46216561053E+02  0.34823644851E+02  0.59474895212E+02  0.00000000000E+00 0.  1.
         11    1    1    2    0    0  0.45513219226E+02 -0.11545330931E+02  0.14747502457E+03  0.15476960509E+03  0.00000000000E+00 0. -1.
</event>
<event>
 7    1  0.2666594E-009  0.9882332E+02  0.7561462E-02  0.1282790E+00
          2   -1    0    0  501    0  0.00000000000E+00  0.00000000000E+00  0.27621896637E+03  0.27621896637E+03  0.00000000000E+00 0. -1.
         -2   -1    0    0    0  501 -0.00000000000E+00 -0.00000000000E+00 -0.48497240890E+02  0.48497240890E+02  0.00000000000E+00 0.  1.
         25    2    1    2    0    0 -0.12626938133E+02  0.30349956136E+02  0.98201688935E+02  0.16239140403E+03  0.12508731746E+03 0.  0.
          5    1    3    3  502    0 -0.34957048492E+02 -0.35020388510E+02  0.10643296823E+02  0.50785578838E+02  0.41800000000E+01 0. -1.
         -5    1    3    3    0  502  0.22330110359E+02  0.65370344646E+02  0.87558392113E+02  0.11160582519E+03  0.41800000000E+01 0. -1.
        -11    1    1    2    0    0  0.26127090853E+02  0.15912546843E+02  0.80333070634E+01  0.31628595382E+02  0.00000000000E+00 0.  1.
         11    1    1    2    0    0 -0.13500152719E+02 -0.46262502979E+02  0.12148672948E+03  0.13069620784E+03  0.00000000000E+00 0. -1.
</event>
<event>
 7    1  0.2666594E-009  0.9225763E+02  0.7561462E-02  0.1297475E+00
          2   -1    0    0  501    0  0.00000000000E+00  0.00000000000E+00  0.17926653933E+03  0.17926653933E+03  0.00000000000E+00 0. -1.
         -2   -1    0    0    0  501 -0.00000000000E+00 -0.00000000000E+00 -0.68108601811E+02  0.68108601811E+02  0.00000000000E+00 0.  1.
         25    2    1    2    0    0 -0.45411961087E+01 -0.26683826417E+02  0.52275755405E+02  0.13825046032E+03  0.12509111128E+03 0.  0.
          5    1    3    3  502    0  0.22602903047E+02  0.31106815115E+02  0.62454470021E+02  0.73461271418E+02  0.41800000000E+01 0.  1.
         -5    1    3    3    0  502 -0.27144099155E+02 -0.57790641532E+02 -0.10178714616E+02  0.64789188904E+02  0.41800000000E+01 0.  1.
        -11    1    1    2    0    0  0.39744184928E+02  0.39343682621E+01  0.41014731094E+01  0.40148494005E+02  0.00000000000E+00 0.  1.
         11    1    1    2    0    0 -0.35202988819E+02  0.22749458155E+02  0.54780709000E+02  0.68976186809E+02  0.00000000000E+00 0. -1.
</event>
<event>
 7    1  0.2666594E-009  0.9266066E+02  0.7561462E-02  0.1296533E+00
          1   -1    0    0  501    0  0.00000000000E+00  0.00000000000E+00  0.11448249167E+03  0.11448249167E+03  0.00000000000E+00 0. -1.
         -1   -1    0    0    0  501 -0.00000000000E+00 -0.00000000000E+00 -0.11286653454E+03  0.11286653454E+03  0.00000000000E+00 0.  1.
         25    2    1    2    0    0 -0.10533962299E+02 -0.26323223066E+02 -0.14577364970E+02  0.12908877315E+03  0.12509010892E+03 0.  0.
          5    1    3    3  502    0 -0.66083104200E+02 -0.29410394971E+02 -0.71482637522E+01  0.72804656909E+02  0.41800000000E+01 0. -1.
         -5    1    3    3    0  502  0.55549141901E+02  0.30871719049E+01 -0.74291012179E+01  0.56284116243E+02  0.41800000000E+01 0. -1.
        -11    1    1    2    0    0 -0.19583824548E+02  0.51141655466E+01  0.46400025406E+02  0.50622556542E+02  0.00000000000E+00 0. -1.
         11    1    1    2    0    0  0.30117786847E+02  0.21209057519E+02 -0.30206703298E+02  0.47637696518E+02  0.00000000000E+00 0.  1.
</event>
<event>
 7    1  0.2666594E-009  0.8912844E+02  0.7561462E-02  0.1304976E+00
          2   -1    0    0  501    0  0.00000000000E+00  0.00000000000E+00  0.17835889961E+03  0.17835889961E+03  0.00000000000E+00 0. -1.
         -2   -1    0    0    0  501 -0.00000000000E+00 -0.00000000000E+00 -0.77571950436E+02  0.77571950436E+02  0.00000000000E+00 0.  1.
         25    2    1    2    0    0 -0.49221738626E+01 -0.26861520426E+02  0.35895468037E+02  0.13297203233E+03  0.12508919890E+03 0.  0.
          5    1    3    3  502    0 -0.13293848021E+02  0.45581342993E+02 -0.71348603802E+01  0.48195060503E+02  0.41800000000E+01 0. -1.
         -5    1    3    3    0  502  0.83716741583E+01 -0.72442863419E+02  0.43030328417E+02  0.84776971827E+02  0.41800000000E+01 0. -1.
        -11    1    1    2    0    0 -0.26452343989E+01  0.41226815749E+02  0.86541882508E+02  0.95896532940E+02  0.00000000000E+00 0. -1.
         11    1    1    2    0    0  0.75674082615E+01 -0.14365295323E+02 -0.21650401374E+02  0.27062284774E+02  0.00000000000E+00 0.  1.
</event>
<event>
 7    1  0.2666594E-009  0.1092989E+03  0.7561462E-02  0.1261874E+00
         -2   -1    0    0    0  501 -0.00000000000E+00  0.00000000000E+00  0.30412420491E+02  0.30412420491E+02  0.00000000000E+00 0.  1.
          2   -1    0    0  501    0  0.00000000000E+00 -0.00000000000E+00 -0.48786235036E+03  0.48786235036E+03  0.00000000000E+00 0. -1.
         25    2    1    2    0    0 -0.43059534746E+02  0.23991169942E+02 -0.32943121099E+03  0.35581355181E+03  0.12509460864E+03 0.  0.
          5    1    3    3  502    0  0.36762056320E+02 -0.20693788284E+02 -0.11880120720E+03  0.12613834029E+03  0.41800000000E+01 0. -1.
         -5    1    3    3    0  502 -0.79821591066E+02  0.44684958227E+02 -0.21063000379E+03  0.22967521152E+03  0.41800000000E+01 0. -1.
        -11    1    1    2    0    0  0.62104499924E+02 -0.18931208484E+02 -0.12711353826E+03  0.14273475812E+03  0.00000000000E+00 0. -1.
         11    1    1    2    0    0 -0.19044965178E+02 -0.50599614586E+01 -0.90518061925E+00  0.19726460923E+02  0.00000000000E+00 0.  1.
</event>
<event>
 7    1  0.2666594E-009  0.1019383E+03  0.7561462E-02  0.1276272E+00
         -2   -1    0    0    0  501 -0.00000000000E+00  0.00000000000E+00  0.19208761387E+03  0.19208761387E+03  0.00000000000E+00 0. -1.
          2   -1    0    0  501    0  0.00000000000E+00 -0.00000000000E+00 -0.95325453432E+02  0.95325453432E+02  0.00000000000E+00 0.  1.
         25    2    1    2    0    0  0.40413259471E+02 -0.67536600135E+02  0.34223117893E+02  0.15169894107E+03  0.12508766136E+03 0.  0.
          5    1    3    3  502    0 -0.62985956633E+01 -0.39904747270E+01 -0.41447988008E+02  0.42320258811E+02  0.41800000000E+01 0.  1.
         -5    1    3    3    0  502  0.46711855134E+02 -0.63546125408E+02  0.75671105902E+02  0.10937868226E+03  0.41800000000E+01 0.  1.
        -11    1    1    2    0    0  0.26287315838E+02  0.29711060787E+02  0.38684284496E+02  0.55409782295E+02  0.00000000000E+00 0. -1.
         11    1    1    2    0    0 -0.66700575309E+02  0.37825539349E+02  0.23854758052E+02  0.80304343938E+02  0.00000000000E+00 0.  1.
</event>
<event>
 7    1  0.2666594E-009  0.1761550E+03  0.7561462E-02  0.1171577E+00
          2   -1    0    0  501    0  0.00000000000E+00  0.00000000000E+00  0.24088715624E+03  0.24088715624E+03  0.00000000000E+00 0.  1.
         -2   -1    0    0    0  501 -0.00000000000E+00 -0.00000000000E+00 -0.16950272568E+03  0.16950272568E+03  0.00000000000E+00 0. -1.
         25    2    1    2    0    0  0.16488648402E+03 -0.36142300283E+02  0.59892825492E+02  0.21846796830E+03  0.12508910482E+03 0.  0.
          5    1    3    3  502    0  0.16564315822E+03 -0.30710539081E+02  0.87592493048E+02  0.18992290624E+03  0.41800000000E+01 0.  1.
         -5    1    3    3    0  502 -0.75667419285E+00 -0.54317612025E+01 -0.27699667556E+02  0.28545062065E+02  0.41800000000E+01 0.  1.
        -11    1    1    2    0    0 -0.13071606485E+03  0.52333771636E+01 -0.24947778716E+02  0.13317833724E+03  0.00000000000E+00 0. -1.
         11    1    1    2    0    0 -0.34170419174E+02  0.30908923119E+02  0.36439383788E+02  0.58743576379E+02  0.00000000000E+00 0.  1.
</event>
<event>
 7    1  0.2666594E-009  0.1101502E+03  0.7561462E-02  0.1260292E+00
         -1   -1    0    0    0  501 -0.00000000000E+00  0.00000000000E+00  0.20511132026E+02  0.20511132026E+02  0.00000000000E+00 0.  1.
          1   -1    0    0  501    0  0.00000000000E+00 -0.00000000000E+00 -0.76133222627E+03  0.76133222627E+03  0.00000000000E+00 0. -1.
         25    2    1    2    0    0  0.54299952088E+02 -0.33188853672E+02 -0.44785555053E+03  0.46933131315E+03  0.12508917844E+03 0.  0.
          5    1    3    3  502    0  0.85260367439E+01 -0.74882976023E+02 -0.29140375027E+03  0.30102121432E+03  0.41800000000E+01 0.  1.
         -5    1    3    3    0  502  0.45773915344E+02  0.41694122351E+02 -0.15645180026E+03  0.16831009883E+03  0.41800000000E+01 0.  1.
        -11    1    1    2    0    0  0.91515490399E+00 -0.11616895124E+02 -0.64874142686E+00  0.11670930822E+02  0.00000000000E+00 0.  1.
         11    1    1    2    0    0 -0.55215106992E+02  0.44805748796E+02 -0.29231680229E+03  0.30084111433E+03  0.00000000000E+00 0. -1.
</event>
<event>
 7    1  0.2666594E-009  0.2703497E+03  0.7561462E-02  0.1101080E+00
         -1   -1    0    0    0  501 -0.00000000000E+00  0.00000000000E+00  0.86656002037E+02  0.86656002037E+02  0.00000000000E+00 0.  1.
          1   -1    0    0  501    0  0.00000000000E+00 -0.00000000000E+00 -0.95831969404E+03  0.95831969404E+03  0.00000000000E+00 0. -1.
         25    2    1    2    0    0  0.23914048690E+03 -0.10304916231E+03 -0.54513897877E+03  0.61695359945E+03  0.12509170787E+03 0.  0.
          5    1    3    3  502    0  0.69678837723E+02 -0.84727207092E+02 -0.14391489164E+03  0.18100499574E+03  0.41800000000E+01 0. -1.
         -5    1    3    3    0  502  0.16946164917E+03 -0.18321955223E+02 -0.40122408713E+03  0.43594860371E+03  0.41800000000E+01 0. -1.
        -11    1    1    2    0    0 -0.81244809021E+02  0.33264279408E+02 -0.18508031885E+03  0.20484617571E+03  0.00000000000E+00 0. -1.
         11    1    1    2    0    0 -0.15789567788E+03  0.69784882907E+02 -0.14144439438E+03  0.22317592092E+03  0.00000000000E+00 0.  1.
</event>
<event>
 7    1  0.2666594E-009  0.1449826E+03  0.7561462E-02  0.1206777E+00
          1   -1    0    0  501    0  0.00000000000E+00  0.00000000000E+00  0.52019078314E+02  0.52019078314E+02  0.00000000000E+00 0. -1.
         -1   -1    0    0    0  501 -0.00000000000E+00 -0.00000000000E+00 -0.46901171261E+03  0.46901171261E+03  0.00000000000E+00 0.  1.
         25    2    1    2    0    0  0.10176214195E+03 -0.39411157366E+02 -0.18351733562E+03  0.24745418944E+03  0.12508473345E+03 0.  0.
          5    1    3    3  502    0  0.96586905943E+02  0.25929664770E+02 -0.10447014444E+03  0.14468193182E+03  0.41800000000E+01 0.  1.
         -5    1    3    3    0  502  0.51752360037E+01 -0.65340822136E+02 -0.79047191171E+02  0.10277225762E+03  0.41800000000E+01 0.  1.
        -11    1    1    2    0    0 -0.10535980314E+03  0.23591394391E+02 -0.23360864239E+03  0.25735236507E+03  0.00000000000E+00 0.  1.
         11    1    1    2    0    0  0.35976611940E+01  0.15819762975E+02  0.13334370794E+00  0.16224236414E+02  0.00000000000E+00 0. -1.
</event>
<event>
 7    1  0.2666594E-009  0.9599540E+02  0.7561462E-02  0.1288950E+00
         -2   -1    0    0    0  501 -0.00000000000E+00  0.00000000000E+00  0.20113825253E+02  0.20113825253E+02  0.00000000000E+00 0.  1.
          2   -1    0    0  501    0  0.00000000000E+00 -0.00000000000E+00 -0.78344144042E+03  0.78344144042E+03  0.00000000000E+00 0. -1.
         25    2    1    2    0    0 -0.29360299756E+02  0.58954110031E+02 -0.45510361778E+03  0.47655535980E+03  0.12509234087E+03 0.  0.
          5    1    3    3  502    0 -0.69526242975E+01  0.75821564628E+02 -0.43539604287E+03  0.44202311613E+03  0.41800000000E+01 0. -1.
         -5    1    3    3    0  502 -0.22407675459E+02 -0.16867454597E+02 -0.19707574916E+02  0.34532243673E+02  0.41800000000E+01 0. -1.
        -11    1    1    2    0    0  0.40482852530E+02 -0.16880854370E+02 -0.56423008081E+02  0.71465938979E+02  0.00000000000E+00 0.  1.
         11    1    1    2    0    0 -0.11122552774E+02 -0.42073255662E+02 -0.25180098930E+03  0.25553396689E+03  0.00000000000E+00 0. -1.
</event>
<event>
 7    1  0.2666594E-009  0.1345992E+03  0.7561462E-02  0.1220787E+00
          3   -1    0    0  501    0  0.00000000000E+00  0.00000000000E+00  0.28383622951E+03  0.28383622951E+03  0.00000000000E+00 0. -1.
         -3   -1    0    0    0  501 -0.00000000000E+00 -0.00000000000E+00 -0.89781551317E+02  0.89781551317E+02  0.00000000000E+00 0.  1.
         25    2    1    2    0    0  0.97049260036E+02 -0.20896993899E+01  0.27030271573E+02  0.16061927367E+03  0.12507993355E+03 0.  0.
          5    1    3    3  502    0  0.46334914076E+02 -0.63337745419E+02  0.16443569245E+02  0.80289835140E+02  0.41800000000E+01 0.  1.
         -5    1    3    3    0  502  0.50714345959E+02  0.61248046029E+02  0.10586702327E+02  0.80329438530E+02  0.41800000000E+01 0.  1.
        -11    1    1    2    0    0 -0.83725606726E+02  0.22419117457E+02  0.65597271503E+02  0.10869956797E+03  0.00000000000E+00 0.  1.
         11    1    1    2    0    0 -0.13323653310E+02 -0.20329418067E+02  0.10142713512E+03  0.10429893918E+03  0.00000000000E+00 0. -1.
</event>
<event>
 7    1  0.2666594E-009  0.1409881E+03  0.7561462E-02  0.1212006E+00
         -2   -1    0    0    0  501 -0.00000000000E+00  0.00000000000E+00  0.25527582152E+02  0.25527582152E+02  0.00000000000E+00 0.  1.
          2   -1    0    0  501    0  0.00000000000E+00 -0.00000000000E+00 -0.12687822121E+04  0.12687822121E+04  0.00000000000E+00 0. -1.
         25    2    1    2    0    0  0.98914351058E+02 -0.40584187542E+02 -0.99738831410E+03  0.10108720046E+04  0.12509050926E+03 0.  0.
          5    1    3    3  502    0  0.56722717063E+02  0.25593212746E+02 -0.19707373339E+03  0.20670754210E+03  0.41800000000E+01 0. -1.
         -5    1    3    3    0  502  0.42191633995E+02 -0.66177400288E+02 -0.80031458071E+03  0.80416446252E+03  0.41800000000E+01 0. -1.
        -11    1    1    2    0    0 -0.26324227436E+02  0.60297385455E+02 -0.11621550629E+03  0.13354693387E+03  0.00000000000E+00 0. -1.
         11    1    1    2    0    0 -0.72590123622E+02 -0.19713197913E+02 -0.12965080951E+03  0.14989085571E+03  0.00000000000E+00 0.  1.
</event>
<event>
 7    1  0.2666594E-009  0.1029312E+03  0.7561462E-02  0.1274250E+00
          2   -1    0    0  501    0  0.00000000000E+00  0.00000000000E+00  0.28868387570E+03  0.28868387570E+03  0.00000000000E+00 0. -1.
         -2   -1    0    0    0  501 -0.00000000000E+00 -0.00000000000E+00 -0.69154587052E+02  0.69154587052E+02  0.00000000000E+00 0.  1.
         25    2    1    2    0    0 -0.42198525722E+02  0.57105827678E+02  0.18978677843E+03  0.23813350115E+03  0.12508697764E+03 0.  0.
          5    1    3    3  502    0 -0.52956965988E+02  0.20782708624E+02  0.19166617880E+03  0.19997439266E+03  0.41800000000E+01 0.  1.
         -5    1    3    3    0  502  0.10758440266E+02  0.36323119055E+02 -0.18794003723E+01  0.38159108488E+02  0.41800000000E+01 0.  1.
        -11    1    1    2    0    0  0.47315162431E+02  0.57322316391E+01  0.30625974205E+02  0.56652743724E+02  0.00000000000E+00 0. -1.
         11    1    1    2    0    0 -0.51166367090E+01 -0.62838059317E+02 -0.88346399186E+00  0.63052217872E+02  0.00000000000E+00 0.  1.
</event>
<event>
 7    1  0.2666594E-009  0.1962568E+03  0.7561462E-02  0.1152936E+00
          2   -1    0    0  501    0  0.00000000000E+00  0.00000000000E+00  0.11618780857E+03  0.11618780857E+03  0.00000000000E+00 0. -1.
         -2   -1    0    0    0  501 -0.00000000000E+00 -0.00000000000E+00 -0.34758630742E+03  0.34758630742E+03  0.00000000000E+00 0.  1.
         25    2    1    2    0    0  0.48619969983E+02  0.16236128436E+03 -0.13450180421E+03  0.24992806430E+03  0.12509282093E+03 0.  0.
          5    1    3    3  502    0  0.38519206422E+02 -0.34182403028E+01 -0.50549778640E+02  0.63782177375E+02  0.41800000000E+01 0. -1.
         -5    1    3    3    0  502  0.10100763561E+02  0.16577952466E+03 -0.83952025572E+02  0.18614588692E+03  0.41800000000E+01 0. -1.
        -11    1    1    2    0    0 -0.22185486705E+02 -0.15933377907E+03 -0.68252546888E+02  0.17475084873E+03  0.00000000000E+00 0. -1.
         11    1    1    2    0    0 -0.26434483278E+02 -0.30275052833E+01 -0.28644147753E+02  0.39095202965E+02  0.00000000000E+00 0.  1.
</event>
<event>
 7    1  0.2666594E-009  0.1012045E+03  0.7561462E-02  0.1277783E+00
         -1   -1    0    0    0  501 -0.00000000000E+00  0.00000000000E+00  0.44183078224E+03  0.44183078224E+03  0.00000000000E+00 0.  1.
          1   -1    0    0  501    0  0.00000000000E+00 -0.00000000000E+00 -0.28365826500E+02  0.28365826500E+02  0.00000000000E+00 0. -1.
         25    2    1    2    0    0 -0.89151389296E+01  0.16049029252E+02  0.28858576117E+03  0.31506540538E+03  0.12508963616E+03 0.  0.
          5    1    3    3  502    0  0.50089459806E+02 -0.16156447211E+01  0.20545015504E+03  0.21151549092E+03  0.41800000000E+01 0. -1.
         -5    1    3    3    0  502 -0.59004598735E+02  0.17664673973E+02  0.83135606125E+02  0.10354991446E+03  0.41800000000E+01 0. -1.
        -11    1    1    2    0    0 -0.35743869124E+02 -0.26529665890E+02  0.76161014032E+02  0.88215346797E+02  0.00000000000E+00 0. -1.
         11    1    1    2    0    0  0.44659008054E+02  0.10480636638E+02  0.48718180541E+02  0.66915856565E+02  0.00000000000E+00 0.  1.
</event>
<event>
 7    1  0.2666594E-009  0.1103224E+03  0.7561462E-02  0.1259974E+00
          1   -1    0    0  501    0  0.00000000000E+00  0.00000000000E+00  0.10344824632E+04  0.10344824632E+04  0.00000000000E+00 0. -1.
         -1   -1    0    0    0  501 -0.00000000000E+00 -0.00000000000E+00 -0.18529961673E+02  0.18529961673E+02  0.00000000000E+00 0.  1.
         25    2    1    2    0    0  0.33213765175E+02 -0.47459565864E+02  0.78686952338E+03  0.79885335779E+03  0.12508987103E+03 0.  0.
          5    1    3    3  502    0 -0.32637213640E+02 -0.55145325402E+02  0.26001140601E+03  0.26782381949E+03  0.41800000000E+01 0.  1.
         -5    1    3    3    0  502  0.65850978816E+02  0.76857595389E+01  0.52685811737E+03  0.53102953830E+03  0.41800000000E+01 0.  1.
        -11    1    1    2    0    0 -0.53887920264E+02  0.42774618743E+02  0.22101695800E+03  0.23147801555E+03  0.00000000000E+00 0. -1.
         11    1    1    2    0    0  0.20674155088E+02  0.46849471204E+01  0.80660201578E+01  0.22681051548E+02  0.00000000000E+00 0.  1.
</event>
<event>
 7    1  0.2666594E-009  0.1598715E+03  0.7561462E-02  0.1188842E+00
         -1   -1    0    0    0  501 -0.00000000000E+00  0.00000000000E+00  0.15727134054E+02  0.15727134054E+02  0.00000000000E+00 0.  1.
          1   -1    0    0  501    0  0.00000000000E+00 -0.00000000000E+00 -0.20652405963E+04  0.20652405963E+04  0.00000000000E+00 0. -1.
         25    2    1    2    0    0  0.79939843058E+00  0.13312499332E+03 -0.14704480740E+04  0.14817519548E+04  0.12509362142E+03 0.  0.
          5    1    3    3  502    0  0.54632134472E+02  0.10454415494E+03 -0.10981034652E+04  0.11044287406E+04  0.41800000000E+01 0.  1.
         -5    1    3    3    0  502 -0.53832736042E+02  0.28580838384E+02 -0.37234460884E+03  0.37732321413E+03  0.41800000000E+01 0.  1.
        -11    1    1    2    0    0 -0.23034876054E+02 -0.69815842068E+02 -0.17814008141E+03  0.19271415600E+03  0.00000000000E+00 0.  1.
         11    1    1    2    0    0  0.22235477623E+02 -0.63309151253E+02 -0.40092530681E+03  0.40650161960E+03  0.00000000000E+00 0. -1.
</event>
<event>
 7    1  0.2666594E-009  0.1054735E+03  0.7561462E-02  0.1269190E+00
          4   -1    0    0  501    0  0.00000000000E+00  0.00000000000E+00  0.27558688557E+03  0.27558688557E+03  0.00000000000E+00 0. -1.
         -4   -1    0    0    0  501 -0.00000000000E+00 -0.00000000000E+00 -0.75840084676E+02  0.75840084676E+02  0.00000000000E+00 0.  1.
         25    2    1    2    0    0 -0.25983846159E+02 -0.91401429190E+02  0.11492084084E+03  0.19463785491E+03  0.12509082055E+03 0.  0.
          5    1    3    3  502    0 -0.31095908381E+02 -0.83875896233E+02  0.14081328692E+03  0.16687712743E+03  0.41800000000E+01 0.  1.
         -5    1    3    3    0  502  0.51120622218E+01 -0.75255329562E+01 -0.25892446076E+02  0.27760727480E+02  0.41800000000E+01 0.  1.
        -11    1    1    2    0    0 -0.15929907559E+02  0.49970656312E+02 -0.12587320376E+01  0.52463443019E+02  0.00000000000E+00 0.  1.
         11    1    1    2    0    0  0.41913753719E+02  0.41430772877E+02  0.86084692093E+02  0.10432567232E+03  0.00000000000E+00 0. -1.
</event>
<event>
 7    1  0.3921800E-009  0.1541645E+03  0.7561462E-02  0.1195447E+00
          2   -1    0    0  501    0  0.00000000000E+00  0.00000000000E+00  0.20262382414E+04  0.20262382414E+04  0.00000000000E+00 0.  1.
         -2   -1    0    0    0  501 -0.00000000000E+00 -0.00000000000E+00 -0.21212159777E+02  0.21212159777E+02  0.00000000000E+00 0. -1.
         25    2    1    2    0    0  0.14624469635E+03  0.15858626306E+02  0.15258010647E+04  0.15379714619E+04  0.12509325070E+03 0.  0.
          5    1    3    3  502    0  0.65724923726E+02  0.39943251552E+02  0.31616627452E+03  0.32541329796E+03  0.41800000000E+01 0. -1.
         -5    1    3    3    0  502  0.80519772622E+02 -0.24084625246E+02  0.12096347901E+04  0.12125581639E+04  0.41800000000E+01 0. -1.
        -11    1    1    2    0    0 -0.62371148341E+02 -0.87556095090E+01  0.81800493682E+02  0.10323827590E+03  0.00000000000E+00 0. -1.
         11    1    1    2    0    0 -0.83873548007E+02 -0.71030167968E+01  0.39742452325E+03  0.40624066338E+03  0.00000000000E+00 0.  1.
</event>
<event>
 7    1  0.2666594E-009  0.1002783E+03  0.7561462E-02  0.1279712E+00
          1   -1    0    0  501    0  0.00000000000E+00  0.00000000000E+00  0.34103671538E+03  0.34103671538E+03  0.00000000000E+00 0. -1.
         -1   -1    0    0    0  501 -0.00000000000E+00 -0.00000000000E+00 -0.59202267685E+02  0.59202267685E+02  0.00000000000E+00 0.  1.
         25    2    1    2    0    0 -0.19379936114E+02  0.34584711377E+01  0.27929535761E+02  0.12966999562E+03  0.12508679326E+03 0.  0.
          5    1    3    3  502    0 -0.68703793668E+02 -0.14479845623E+02  0.58041486230E+00  0.70339792970E+02  0.41800000000E+01 0.  1.
         -5    1    3    3    0  502  0.49323857554E+02  0.17938316761E+02  0.27349120898E+02  0.59330202647E+02  0.41800000000E+01 0.  1.
        -11    1    1    2    0    0  0.45534402544E+02  0.12128121494E+02  0.71439487804E+02  0.85580801373E+02  0.00000000000E+00 0.  1.
         11    1    1    2    0    0 -0.26154466430E+02 -0.15586592632E+02  0.18246542413E+03  0.18498818607E+03  0.00000000000E+00 0. -1.
</event>
<event>
 7    1  0.2666594E-009  0.1105728E+03  0.7561462E-02  0.1259513E+00
          2   -1    0    0  501    0  0.00000000000E+00  0.00000000000E+00  0.57504507989E+03  0.57504507989E+03  0.00000000000E+00 0.  1.
         -2   -1    0    0    0  501 -0.00000000000E+00 -0.00000000000E+00 -0.32600819212E+02  0.32600819212E+02  0.00000000000E+00 0. -1.
         25    2    1    2    0    0 -0.56445173223E+02  0.25989936979E+02  0.41804225327E+03  0.44075856862E+03  0.12508899185E+03 0.  0.
          5    1    3    3  502    0  0.27817985913E+02  0.33809473012E+02  0.23469565016E+03  0.23878115798E+03  0.41800000000E+01 0.  1.
         -5    1    3    3    0  502 -0.84263159137E+02 -0.78195360323E+01  0.18334660312E+03  0.20197741063E+03  0.41800000000E+01 0.  1.
        -11    1    1    2    0    0 -0.32344419857E+01  0.18004375703E+02  0.76406263578E+02  0.78565490346E+02  0.00000000000E+00 0.  1.
         11    1    1    2    0    0  0.59679615209E+02 -0.43994312682E+02  0.47995743823E+02  0.88321840136E+02  0.00000000000E+00 0. -1.
</event>
<event>
 7    1  0.2666594E-009  0.1076638E+03  0.7561462E-02  0.1264958E+00
         -4   -1    0    0    0  501 -0.00000000000E+00  0.00000000000E+00  0.19893876258E+03  0.19893876258E+03  0.00000000000E+00 0.  1.
          4   -1    0    0  501    0  0.00000000000E+00 -0.00000000000E+00 -0.68055644138E+02  0.68055644138E+02  0.00000000000E+00 0. -1.
         25    2    1    2    0    0  0.31578207091E+02  0.19485779959E+02  0.89793257509E+02  0.15838663559E+03  0.12508644394E+03 0.  0.
          5    1    3    3  502    0  0.68813678405E+02 -0.23882839459E+02  0.45911450446E+02  0.86203515232E+02  0.41800000000E+01 0. -1.
         -5    1    3    3    0  502 -0.37235471314E+02  0.43368619417E+02  0.43881807062E+02  0.72183120362E+02  0.41800000000E+01 0. -1.
        -11    1    1    2    0    0 -0.56822759034E+02 -0.18617227835E+02  0.53706218789E+02  0.80372788014E+02  0.00000000000E+00 0.  1.
         11    1    1    2    0    0  0.25244551942E+02 -0.86855212404E+00 -0.12616357857E+02  0.28234983108E+02  0.00000000000E+00 0. -1.
</event>
<event>
 7    1  0.2666594E-009  0.1214412E+03  0.7561462E-02  0.1240738E+00
         -1   -1    0    0    0  501 -0.00000000000E+00  0.00000000000E+00  0.35381152473E+03  0.35381152473E+03  0.00000000000E+00 0.  1.
          1   -1    0    0  501    0  0.00000000000E+00 -0.00000000000E+00 -0.44885564647E+02  0.44885564647E+02  0.00000000000E+00 0. -1.
         25    2    1    2    0    0 -0.65097911482E+02  0.63216406837E+01  0.17054553726E+03  0.22138299033E+03  0.12508775683E+03 0.  0.
          5    1    3    3  502    0  0.35841606661E+02  0.12129715355E+02  0.63811260602E+02  0.74304105824E+02  0.41800000000E+01 0.  1.
         -5    1    3    3    0  502 -0.10093951814E+03 -0.58080746715E+01  0.10673427666E+03  0.14707888451E+03  0.41800000000E+01 0.  1.
        -11    1    1    2    0    0  0.73084757497E+02 -0.29720304728E+02  0.73286238185E+02  0.10768264019E+03  0.00000000000E+00 0. -1.
         11    1    1    2    0    0 -0.79868460155E+01  0.23398664045E+02  0.65094184631E+02  0.69631458847E+02  0.00000000000E+00 0.  1.
</event>
<event>
 7    1  0.2666594E-009  0.1800145E+03  0.7561462E-02  0.1167789E+00
         -1   -1    0    0    0  501 -0.00000000000E+00  0.00000000000E+00  0.30283318891E+02  0.30283318891E+02  0.00000000000E+00 0.  1.
          1   -1    0    0  501    0  0.00000000000E+00 -0.00000000000E+00 -0.12742922662E+04  0.12742922662E+04  0.00000000000E+00 0. -1.
         25    2    1    2    0    0  0.15802727166E+03  0.38181068051E+02 -0.71152609445E+03  0.74050524026E+03  0.12509282643E+03 0.  0.
          5    1    3    3  502    0  0.75926168926E+02 -0.37793071379E+02 -0.41399775238E+03  0.42261650553E+03  0.41800000000E+01 0.  1.
         -5    1    3    3    0  502  0.82101102737E+02  0.75974139430E+02 -0.29752834208E+03  0.31788873474E+03  0.41800000000E+01 0.  1.
        -11    1    1    2    0    0 -0.80585500567E+02 -0.26665046500E+02 -0.13895531914E+03  0.16283005965E+03  0.00000000000E+00 0.  1.
         11    1    1    2    0    0 -0.77441771095E+02 -0.11516021551E+02 -0.39352753373E+03  0.40124028520E+03  0.00000000000E+00 0. -1.
</event>
<event>
 7    1  0.2666594E-009  0.1260179E+03  0.7561462E-02  0.1233487E+00
         -2   -1    0    0    0  501 -0.00000000000E+00  0.00000000000E+00  0.14332681095E+03  0.14332681095E+03  0.00000000000E+00 0. -1.
          2   -1    0    0  501    0  0.00000000000E+00 -0.00000000000E+00 -0.14030802800E+03  0.14030802800E+03  0.00000000000E+00 0.  1.
         25    2    1    2    0    0  0.77658825788E+02  0.36777113679E+02 -0.26485673743E+02  0.15405579160E+03  0.12509295223E+03 0.  0.
          5    1    3    3  502    0  0.22858755984E+02 -0.41601497033E+02 -0.33225564434E+02  0.58091460754E+02  0.41800000000E+01 0.  1.
         -5    1    3    3    0  502  0.54800069803E+02  0.78378610712E+02  0.67398906908E+01  0.95964330843E+02  0.41800000000E+01 0.  1.
        -11    1    1    2    0    0 -0.14075747887E+02 -0.42544605828E+02 -0.19722241756E+02  0.48960565596E+02  0.00000000000E+00 0.  1.
         11    1    1    2    0    0 -0.63583077901E+02  0.57674921487E+01  0.49226698449E+02  0.80618481760E+02  0.00000000000E+00 0. -1.
</event>
<event>
 7    1  0.2666594E-009  0.3062999E+03  0.7561462E-02  0.1082133E+00
         -1   -1    0    0    0  501 -0.00000000000E+00  0.00000000000E+00  0.40354568636E+03  0.40354568636E+03  0.00000000000E+00 0.  1.
          1   -1    0    0  501    0  0.00000000000E+00 -0.00000000000E+00 -0.32822586816E+03  0.32822586816E+03  0.00000000000E+00 0. -1.
         25    2    1    2    0    0 -0.13656331651E+03 -0.26212272894E+03  0.22042859297E+03  0.38935081116E+03  0.12508966828E+03 0.  0.
          5    1    3    3  502    0 -0.13804735858E+03 -0.19664193473E+03  0.11801647872E+03  0.26771343888E+03  0.41800000000E+01 0. -1.
         -5    1    3    3    0  502  0.14840420670E+01 -0.65480794211E+02  0.10241211425E+03  0.12163737229E+03  0.41800000000E+01 0. -1.
        -11    1    1    2    0    0  0.59989579835E+02  0.19770574567E+03 -0.73172489738E+02  0.21918148830E+03  0.00000000000E+00 0.  1.
         11    1    1    2    0    0  0.76573736678E+02  0.64416983271E+02 -0.71936285027E+02  0.12323925505E+03  0.00000000000E+00 0. -1.
</event>
<event>
 7    1  0.2666594E-009  0.4314542E+03  0.7561462E-02  0.1033402E+00
          2   -1    0    0  501    0  0.00000000000E+00  0.00000000000E+00  0.15290182559E+03  0.15290182559E+03  0.00000000000E+00 0.  1.
         -2   -1    0    0    0  501 -0.00000000000E+00 -0.00000000000E+00 -0.13688797697E+04  0.13688797697E+04  0.00000000000E+00 0. -1.
         25    2    1    2    0    0 -0.79473871138E+02 -0.41698544217E+03 -0.82903378057E+03  0.93975159792E+03  0.12507238418E+03 0.  0.
          5    1    3    3  502    0 -0.25198609956E+02 -0.33550580195E+03 -0.55860651887E+03  0.65211795590E+03  0.41800000000E+01 0. -1.
         -5    1    3    3    0  502 -0.54275261182E+02 -0.81479640217E+02 -0.27042726171E+03  0.28763364202E+03  0.41800000000E+01 0. -1.
        -11    1    1    2    0    0 -0.88533847337E+01  0.22309340959E+02 -0.50618044473E+02  0.56020313651E+02  0.00000000000E+00 0. -1.
         11    1    1    2    0    0  0.88327255872E+02  0.39467610121E+03 -0.33632611903E+03  0.52600968369E+03  0.00000000000E+00 0.  1.
</event>
<event>
 7    1  0.2666594E-009  0.8851967E+02  0.7561462E-02  0.1306477E+00
          1   -1    0    0  501    0  0.00000000000E+00  0.00000000000E+00  0.92007573597E+02  0.92007573597E+02  0.00000000000E+00 0. -1.
         -1   -1    0    0    0  501 -0.00000000000E+00 -0.00000000000E+00 -0.13903574104E+03  0.13903574104E+03  0.00000000000E+00 0.  1.
         25    2    1    2    0    0 -0.34584978798E+02  0.17767636447E+02 -0.62819762738E+02  0.14528018593E+03  0.12509276626E+03 0.  0.
          5    1    3    3  502    0 -0.42190548071E+02  0.48749428855E+02  0.10274037742E+02  0.65418479130E+02  0.41800000000E+01 0. -1.
         -5    1    3    3    0  502  0.76055692729E+01 -0.30981792407E+02 -0.73093800480E+02  0.79861706802E+02  0.41800000000E+01 0. -1.
        -11    1    1    2    0    0  0.50971445719E+02 -0.30594672908E+02 -0.31330755419E+00  0.59449309926E+02  0.00000000000E+00 0.  1.
         11    1    1    2    0    0 -0.16386466922E+02  0.12827036461E+02  0.16104902854E+02  0.26313818774E+02  0.00000000000E+00 0. -1.
</event>
<event>
 7    1  0.2666594E-009  0.8519602E+02  0.7561462E-02  0.1314921E+00
          1   -1    0    0  501    0  0.00000000000E+00  0.00000000000E+00  0.70819369879E+03  0.70819369879E+03  0.00000000000E+00 0. -1.
         -1   -1    0    0    0  501 -0.00000000000E+00 -0.00000000000E+00 -0.19855609826E+02  0.19855609826E+02  0.00000000000E+00 0.  1.
         25    2    1    2    0    0  0.16899154662E+02 -0.36137373468E+02  0.47007342066E+03  0.48806452229E+03  0.12508583420E+03 0.  0.
          5    1    3    3  502    0 -0.17044999893E+02 -0.33252548049E+02  0.44234798067E+03  0.44394309587E+03  0.41800000000E+01 0.  1.
         -5    1    3    3    0  502  0.33944154555E+02 -0.28848254188E+01  0.27725439989E+02  0.44121426413E+02  0.41800000000E+01 0.  1.
        -11    1    1    2    0    0  0.10273652210E+02 -0.27455837164E+02  0.48446434229E+02  0.56625329258E+02  0.00000000000E+00 0.  1.
         11    1    1    2    0    0 -0.27172806872E+02  0.63593210632E+02  0.16981823408E+03  0.18335945707E+03  0.00000000000E+00 0. -1.
</event>
<event>
 7    1  0.2666594E-009  0.1473698E+03  0.7561462E-02  0.1203743E+00
         -2   -1    0    0    0  501 -0.00000000000E+00  0.00000000000E+00  0.46777002002E+02  0.46777002002E+02  0.00000000000E+00 0. -1.
          2   -1    0    0  501    0  0.00000000000E+00 -0.00000000000E+00 -0.64707976506E+03  0.64707976506E+03  0.00000000000E+00 0.  1.
         25    2    1    2    0    0  0.88435535108E+02  0.10069856289E+03 -0.27843589865E+03  0.33336885993E+03  0.12508877917E+03 0.  0.
          5    1    3    3  502    0  0.72335426207E+02  0.81963722488E+02 -0.85587329300E+02  0.13889970851E+03  0.41800000000E+01 0.  1.
         -5    1    3    3    0  502  0.16100108901E+02  0.18734840399E+02 -0.19284856935E+03  0.19446915141E+03  0.41800000000E+01 0.  1.
        -11    1    1    2    0    0  0.22355602276E+01 -0.61443466061E+02 -0.96621774467E+02  0.11452538824E+03  0.00000000000E+00 0. -1.
         11    1    1    2    0    0 -0.90671095335E+02 -0.39255096825E+02 -0.22524508995E+03  0.24596251890E+03  0.00000000000E+00 0.  1.
</event>
<event>
 7    1  0.2666594E-009  0.8209402E+02  0.7561462E-02  0.1323212E+00
          1   -1    0    0  501    0  0.00000000000E+00  0.00000000000E+00  0.36131043239E+03  0.36131043239E+03  0.00000000000E+00 0. -1.
         -1   -1    0    0    0  501 -0.00000000000E+00 -0.00000000000E+00 -0.44679443388E+02  0.44679443388E+02  0.00000000000E+00 0.  1.
         25    2    1    2    0    0 -0.55489207331E+02  0.11454129723E+02  0.23748382496E+03  0.27432937188E+03  0.12509111855E+03 0.  0.
          5    1    3    3  502    0 -0.60510310531E+02  0.16868082030E+02  0.35713336244E+02  0.72380554416E+02  0.41800000000E+01 0. -1.
         -5    1    3    3    0  502  0.50211032006E+01 -0.54139523068E+01  0.20177048872E+03  0.20194881746E+03  0.41800000000E+01 0. -1.
        -11    1    1    2    0    0  0.56851201201E+02  0.20745677039E+02  0.78892723485E+02  0.99430900693E+02  0.00000000000E+00 0. -1.
         11    1    1    2    0    0 -0.13619938703E+01 -0.32199806762E+02  0.25444055496E+00  0.32229603206E+02  0.00000000000E+00 0.  1.
</event>
<event>
 7    1  0.2666594E-009  0.8509967E+02  0.7561462E-02  0.1315172E+00
          1   -1    0    0  501    0  0.00000000000E+00  0.00000000000E+00  0.18714602632E+03  0.18714602632E+03  0.00000000000E+00 0. -1.
         -1   -1    0    0    0  501 -0.00000000000E+00 -0.00000000000E+00 -0.91987137412E+02  0.91987137412E+02  0.00000000000E+00 0.  1.
         25    2    1    2    0    0 -0.22136744423E+02  0.15515006331E+02  0.12587403029E+03  0.17950907147E+03  0.12509390218E+03 0.  0.
          5    1    3    3  502    0  0.41850406536E+02  0.21232084081E+02  0.11874000198E+02  0.48587263787E+02  0.41800000000E+01 0.  1.
         -5    1    3    3    0  502 -0.63987150959E+02 -0.57170777504E+01  0.11400003009E+03  0.13092180768E+03  0.41800000000E+01 0.  1.
        -11    1    1    2    0    0  0.36255005153E+02 -0.22792047682E+02 -0.55552333025E+02  0.70142458901E+02  0.00000000000E+00 0.  1.
         11    1    1    2    0    0 -0.14118260730E+02  0.72770413515E+01  0.24837191637E+02  0.29481633355E+02  0.00000000000E+00 0. -1.
</event>
<event>
 7    1  0.2666594E-009  0.1303655E+03  0.7561462E-02  0.1226914E+00
         -2   -1    0    0    0  501 -0.00000000000E+00  0.00000000000E+00  0.31737835183E+02  0.31737835183E+02  0.00000000000E+00 0.  1.
          2   -1    0    0  501    0  0.00000000000E+00 -0.00000000000E+00 -0.62036976547E+03  0.62036976547E+03  0.00000000000E+00 0. -1.
         25    2    1    2    0    0 -0.78923468565E+02  0.39310616032E+02 -0.34469940753E+03  0.37714466763E+03  0.12508469267E+03 0.  0.
          5    1    3    3  502    0 -0.69794131335E+02 -0.32081396403E+02 -0.13476188697E+03  0.15517304967E+03  0.41800000000E+01 0. -1.
         -5    1    3    3    0  502 -0.91293372300E+01  0.71392012434E+02 -0.20993752056E+03  0.22197161795E+03  0.41800000000E+01 0. -1.
        -11    1    1    2    0    0  0.64042502000E+01 -0.38659339918E+02 -0.30836384125E+02  0.49864231363E+02  0.00000000000E+00 0. -1.
         11    1    1    2    0    0  0.72519218365E+02 -0.65127611319E+00 -0.21309613863E+03  0.22509870167E+03  0.00000000000E+00 0.  1.
</event>
<event>
 7    1  0.2666594E-009  0.1254812E+03  0.7561462E-02  0.1234319E+00
          2   -1    0    0  501    0  0.00000000000E+00  0.00000000000E+00  0.31921338053E+03  0.31921338053E+03  0.00000000000E+00 0. -1.
         -2   -1    0    0    0  501 -0.00000000000E+00 -0.00000000000E+00 -0.63532044715E+02  0.63532044715E+02  0.00000000000E+00 0.  1.
         25    2    1    2    0    0 -0.56828066463E+02  0.69761386453E+02  0.16415725153E+03  0.22514409327E+03  0.12508468861E+03 0.  0.
          5    1    3    3  502    0  0.29931967710E+02  0.47519617664E+02  0.30072395111E+02  0.63842447491E+02  0.41800000000E+01 0.  1.
         -5    1    3    3    0  502 -0.86760034173E+02  0.22241768789E+02  0.13408485642E+03  0.16130164578E+03  0.41800000000E+01 0.  1.
        -11    1    1    2    0    0 -0.92632646608E+01 -0.20681545315E+02 -0.11754136395E+02  0.25528300202E+02  0.00000000000E+00 0.  1.
         11    1    1    2    0    0  0.66091331124E+02 -0.49079841138E+02  0.10327822067E+03  0.13207303177E+03  0.00000000000E+00 0. -1.
</event>
<event>
 7    1  0.2666594E-009  0.8175060E+02  0.7561462E-02  0.1324156E+00
          1   -1    0    0  501    0  0.00000000000E+00  0.00000000000E+00  0.58608277813E+03  0.58608277813E+03  0.00000000000E+00 0. -1.
         -1   -1    0    0    0  501 -0.00000000000E+00 -0.00000000000E+00 -0.22042336361E+02  0.22042336361E+02  0.00000000000E+00 0.  1.
         25    2    1    2    0    0 -0.18661674403E+02 -0.17984593332E+02  0.40073131571E+03  0.42059491756E+03  0.12507115414E+03 0.  0.
          5    1    3    3  502    0 -0.38317416737E+02 -0.41023090413E+02  0.76777185272E+02  0.95201507083E+02  0.41800000000E+01 0.  1.
         -5    1    3    3    0  502  0.19655742334E+02  0.23038497082E+02  0.32395413044E+03  0.32539341048E+03  0.41800000000E+01 0.  1.
        -11    1    1    2    0    0 -0.12409670946E+02  0.37801890399E+02  0.13589307477E+03  0.14159770698E+03  0.00000000000E+00 0. -1.
         11    1    1    2    0    0  0.31071345350E+02 -0.19817297067E+02  0.27416051283E+02  0.45932489948E+02  0.00000000000E+00 0.  1.
</event>
<event>
 7    1  0.2666594E-009  0.2964030E+03  0.7561462E-02  0.1087053E+00
          1   -1    0    0  501    0  0.00000000000E+00  0.00000000000E+00  0.15352813552E+04  0.15352813552E+04  0.00000000000E+00 0. -1.
         -1   -1    0    0    0  501 -0.00000000000E+00 -0.00000000000E+00 -0.90731116980E+02  0.90731116980E+02  0.00000000000E+00 0.  1.
         25    2    1    2    0    0 -0.92150052948E+02  0.26041496159E+03  0.12227085027E+04  0.12597505941E+04  0.12509153531E+03 0.  0.
          5    1    3    3  502    0 -0.12145132079E+03  0.19460094898E+03  0.98278993598E+03  0.10092142901E+04  0.41800000000E+01 0. -1.
         -5    1    3    3    0  502  0.29301267842E+02  0.65814012609E+02  0.23991856672E+03  0.25053630398E+03  0.41800000000E+01 0. -1.
        -11    1    1    2    0    0  0.10177555663E+03 -0.15541561901E+03  0.14831198268E+03  0.23771563425E+03  0.00000000000E+00 0.  1.
         11    1    1    2    0    0 -0.96255036852E+01 -0.10499934257E+03  0.73529752874E+02  0.12854624389E+03  0.00000000000E+00 0. -1.
</event>
<event>
 7    1  0.2666594E-009  0.8795805E+02  0.7561462E-02  0.1307873E+00
         -2   -1    0    0    0  501 -0.00000000000E+00  0.00000000000E+00  0.97180396628E+02  0.97180396628E+02  0.00000000000E+00 0.  1.
          2   -1    0    0  501    0  0.00000000000E+00 -0.00000000000E+00 -0.13237332739E+03  0.13237332739E+03  0.00000000000E+00 0. -1.
         25    2    1    2    0    0 -0.13141763314E+02  0.25205779618E+02  0.14115492221E+01  0.12828951391E+03  0.12509264423E+03 0.  0.
          5    1    3    3  502    0  0.41402312703E+02 -0.38962685074E+01  0.37866748757E+02  0.56397654799E+02  0.41800000000E+01 0.  1.
         -5    1    3    3    0  502 -0.54544076018E+02  0.29102048126E+02 -0.36455199535E+02  0.71891859114E+02  0.41800000000E+01 0.  1.
        -11    1    1    2    0    0  0.14629081687E+02 -0.47557564364E+02 -0.53608033066E+02  0.73140639650E+02  0.00000000000E+00 0. -1.
         11    1    1    2    0    0 -0.14873183729E+01  0.22351784745E+02  0.17003553087E+02  0.28123570450E+02  0.00000000000E+00 0.  1.
</event>
<event>
 7    1  0.2666594E-009  0.1265010E+03  0.7561462E-02  0.1232742E+00
          1   -1    0    0  501    0  0.00000000000E+00  0.00000000000E+00  0.21300023288E+03  0.21300023288E+03  0.00000000000E+00 0. -1.
         -1   -1    0    0    0  501 -0.00000000000E+00 -0.00000000000E+00 -0.80671241299E+02  0.80671241299E+02  0.00000000000E+00 0.  1.
         25    2    1    2    0    0 -0.43473552948E+00  0.74670246297E+02  0.78401666502E+02  0.16543870734E+03  0.12508920776E+03 0.  0.
          5    1    3    3  502    0 -0.37371915253E+02 -0.20901620635E+02  0.26151790935E+02  0.50348052236E+02  0.41800000000E+01 0. -1.
         -5    1    3    3    0  502  0.36937179723E+02  0.95571866931E+02  0.52249875567E+02  0.11509065510E+03  0.41800000000E+01 0. -1.
        -11    1    1    2    0    0 -0.98278519520E+01  0.14585811381E+02  0.30786774924E+02  0.35456425058E+02  0.00000000000E+00 0. -1.
         11    1    1    2    0    0  0.10262587482E+02 -0.89256057678E+02  0.23140550158E+02  0.92776341788E+02  0.00000000000E+00 0.  1.
</event>
<event>
 7    1  0.2666594E-009  0.1027840E+03  0.7561462E-02  0.1274548E+00
          2   -1    0    0  501    0  0.00000000000E+00  0.00000000000E+00  0.33052264986E+03  0.33052264986E+03  0.00000000000E+00 0. -1.
         -2   -1    0    0    0  501 -0.00000000000E+00 -0.00000000000E+00 -0.41520419473E+02  0.41520419473E+02  0.00000000000E+00 0.  1.
         25    2    1    2    0    0  0.43670045216E+02  0.33270317258E+01  0.15568112085E+03  0.20445437412E+03  0.12508732038E+03 0.  0.
          5    1    3    3  502    0  0.68446741938E+02 -0.18294381650E+02  0.15591092080E+03  0.17130478250E+03  0.41800000000E+01 0. -1.
         -5    1    3    3    0  502 -0.24776696721E+02  0.21621413376E+02 -0.22979995260E+00  0.33149591624E+02  0.41800000000E+01 0. -1.
        -11    1    1    2    0    0  0.12117756972E+02  0.32810756591E+02  0.49518536149E+02  0.60625664569E+02  0.00000000000E+00 0. -1.
         11    1    1    2    0    0 -0.55787802189E+02 -0.36137788317E+02  0.83802573390E+02  0.10696303064E+03  0.00000000000E+00 0.  1.
</event>
<event>
 7    1  0.2666594E-009  0.1533740E+03  0.7561462E-02  0.1196387E+00
          1   -1    0    0  501    0  0.00000000000E+00  0.00000000000E+00  0.10397219802E+04  0.10397219802E+04  0.00000000000E+00 0. -1.
         -1   -1    0    0    0  501 -0.00000000000E+00 -0.00000000000E+00 -0.34296520722E+02  0.34296520722E+02  0.00000000000E+00 0.  1.
         25    2    1    2    0    0 -0.35140331607E+02 -0.14605345341E+03  0.62996714975E+03  0.65960072945E+03  0.12509219948E+03 0.  0.
          5    1    3    3  502    0  0.77415120568E+01 -0.28263443390E+02  0.36766561514E+03  0.36885529709E+03  0.41800000000E+01 0. -1.
         -5    1    3    3    0  502 -0.42881843664E+02 -0.11779001002E+03  0.26230153461E+03  0.29074543236E+03  0.41800000000E+01 0. -1.
        -11    1    1    2    0    0  0.50865586053E+01  0.66323448554E+02  0.27384463363E+03  0.28180765830E+03  0.00000000000E+00 0. -1.
         11    1    1    2    0    0  0.30053773001E+02  0.79730004851E+02  0.10161367608E+03  0.13261011316E+03  0.00000000000E+00 0.  1.
</event>
<event>
 7    1  0.2666594E-009  0.1139089E+03  0.7561462E-02  0.1253498E+00
         -2   -1    0    0    0  501 -0.00000000000E+00  0.00000000000E+00  0.35332930261E+03  0.35332930261E+03  0.00000000000E+00 0.  1.
          2   -1    0    0  501    0  0.00000000000E+00 -0.00000000000E+00 -0.59799035312E+02  0.59799035312E+02  0.00000000000E+00 0. -1.
         25    2    1    2    0    0  0.61325865347E+02 -0.72131737575E+02  0.13537005213E+03  0.20721086731E+03  0.12508974055E+03 0.  0.
          5    1    3    3  502    0  0.19155977219E+02 -0.14314762737E+02 -0.22957044499E+02  0.33412006638E+02  0.41800000000E+01 0. -1.
         -5    1    3    3    0  502  0.42169888128E+02 -0.57816974838E+02  0.15832709663E+03  0.17379886067E+03  0.41800000000E+01 0. -1.
        -11    1    1    2    0    0 -0.24692884860E+02  0.88393346672E+02  0.10940070654E+03  0.14279928883E+03  0.00000000000E+00 0.  1.
         11    1    1    2    0    0 -0.36632980487E+02 -0.16261609097E+02  0.48759508628E+02  0.63118181781E+02  0.00000000000E+00 0. -1.
</event>
<event>
 7    1  0.2666594E-009  0.9811009E+02  0.7561462E-02  0.1284321E+00
         -1   -1    0    0    0  501 -0.00000000000E+00  0.00000000000E+00  0.11701915890E+03  0.11701915890E+03  0.00000000000E+00 0.  1.
          1   -1    0    0  501    0  0.00000000000E+00 -0.00000000000E+00 -0.15451088626E+03  0.15451088626E+03  0.00000000000E+00 0. -1.
         25    2    1    2    0    0 -0.68069101750E+02 -0.19288290865E+02  0.14376917265E+02  0.14443007761E+03  0.12509160960E+03 0.  0.
          5    1    3    3  502    0 -0.26655983056E+01  0.37361902525E+02  0.39136378414E+02  0.54333651542E+02  0.41800000000E+01 0.  1.
         -5    1    3    3    0  502 -0.65403503445E+02 -0.56650193390E+02 -0.24759461148E+02  0.90096426069E+02  0.41800000000E+01 0.  1.
        -11    1    1    2    0    0  0.37779365270E+02  0.17289427605E+02 -0.77129831591E+02  0.87608308215E+02  0.00000000000E+00 0. -1.
         11    1    1    2    0    0  0.30289736481E+02  0.19988632608E+01  0.25261186962E+02  0.39491659336E+02  0.00000000000E+00 0.  1.
</event>
<event>
 7    1  0.2666594E-009  0.1027786E+03  0.7561462E-02  0.1274559E+00
          2   -1    0    0  501    0  0.00000000000E+00  0.00000000000E+00  0.10861994587E+03  0.10861994587E+03  0.00000000000E+00 0. -1.
         -2   -1    0    0    0  501 -0.00000000000E+00 -0.00000000000E+00 -0.15659267521E+03  0.15659267521E+03  0.00000000000E+00 0.  1.
         25    2    1    2    0    0 -0.22014334127E+02 -0.62623988669E+02 -0.56194123159E+02  0.15234780663E+03  0.12508269202E+03 0.  0.
          5    1    3    3  502    0 -0.19617670912E+02  0.33096711714E+02 -0.39061715875E+02  0.54986683709E+02  0.41800000000E+01 0. -1.
         -5    1    3    3    0  502 -0.23966632149E+01 -0.95720700383E+02 -0.17132407284E+02  0.97361122917E+02  0.41800000000E+01 0. -1.
        -11    1    1    2    0    0  0.21889356925E+02  0.24356724911E+02  0.47715684481E+02  0.57872105029E+02  0.00000000000E+00 0. -1.
         11    1    1    2    0    0  0.12497720184E+00  0.38267263758E+02 -0.39494290666E+02  0.54992709426E+02  0.00000000000E+00 0.  1.
</event>
<event>
 7    1  0.2666594E-009  0.1747936E+03  0.7561462E-02  0.1172939E+00
          2   -1    0    0  501    0  0.00000000000E+00  0.00000000000E+00  0.38396976735E+03  0.38396976735E+03  0.00000000000E+00 0. -1.
         -2   -1    0    0    0  501 -0.00000000000E+00 -0.00000000000E+00 -0.10991904507E+03  0.10991904507E+03  0.00000000000E+00 0.  1.
         25    2    1    2    0    0 -0.11085261731E+03  0.13330047885E+03  0.16174566007E+03  0.26807439772E+03  0.12507958959E+03 0.  0.
          5    1    3    3  502    0 -0.64935697278E+02  0.72128608458E+02  0.94522960068E+01  0.97601225601E+02  0.41800000000E+01 0. -1.
         -5    1    3    3    0  502 -0.45916920035E+02  0.61171870388E+02  0.15229336407E+03  0.17047317212E+03  0.41800000000E+01 0. -1.
        -11    1    1    2    0    0  0.57529323645E+02 -0.46500892609E+02  0.98242993174E+02  0.12297821677E+03  0.00000000000E+00 0.  1.
         11    1    1    2    0    0  0.53323293668E+02 -0.86799586237E+02  0.14062069031E+02  0.10283619793E+03  0.00000000000E+00 0. -1.
</event>
<event>
 7    1  0.2666594E-009  0.9244018E+02  0.7561462E-02  0.1297048E+00
         -3   -1    0    0    0  501 -0.00000000000E+00  0.00000000000E+00  0.50674984447E+02  0.50674984447E+02  0.00000000000E+00 0.  1.
          3   -1    0    0  501    0  0.00000000000E+00 -0.00000000000E+00 -0.33255111801E+03  0.33255111801E+03  0.00000000000E+00 0. -1.
         25    2    1    2    0    0 -0.31614128128E+02 -0.22379955558E+01 -0.24018103207E+03  0.27264774484E+03  0.12508158490E+03 0.  0.
          5    1    3    3  502    0 -0.26620901964E+02  0.39186677159E+02 -0.25604716935E+02  0.54012424658E+02  0.41800000000E+01 0. -1.
         -5    1    3    3    0  502 -0.49932261639E+01 -0.41424672714E+02 -0.21457631513E+03  0.21863532019E+03  0.41800000000E+01 0. -1.
        -11    1    1    2    0    0  0.57719352208E+01 -0.42948722424E+02  0.85941533719E+00  0.43343356916E+02  0.00000000000E+00 0.  1.
         11    1    1    2    0    0  0.25842192907E+02  0.45186717980E+02 -0.42554516837E+02  0.67235000701E+02  0.00000000000E+00 0. -1.
</event>
<event>
 7    1  0.2666594E-009  0.7167283E+02  0.7561462E-02  0.1354495E+00
         -2   -1    0    0    0  501 -0.00000000000E+00  0.00000000000E+00  0.22414940679E+03  0.22414940679E+03  0.00000000000E+00 0. -1.
          2   -1    0    0  501    0  0.00000000000E+00 -0.00000000000E+00 -0.10336121574E+03  0.10336121574E+03  0.00000000000E+00 0.  1.
         25    2    1    2    0    0  0.46967717030E+01 -0.48307499297E+01 -0.49145382798E+02  0.13456516018E+03  0.12508844021E+03 0.  0.
          5    1    3    3  502    0  0.44815538820E+02 -0.36377735393E+01 -0.74348641691E+02  0.86987693597E+02  0.41800000000E+01 0. -1.
         -5    1    3    3    0  502 -0.40118767117E+02 -0.11929763904E+01  0.25203258893E+02  0.47577466584E+02  0.41800000000E+01 0. -1.
        -11    1    1    2    0    0  0.14642895252E+02 -0.20978885792E+02  0.65497090714E+01  0.26408837902E+02  0.00000000000E+00 0.  1.
         11    1    1    2    0    0 -0.19339666955E+02  0.25809635721E+02  0.16338386478E+03  0.16653662445E+03  0.00000000000E+00 0. -1.
</event>
<event>
 7    1  0.2666594E-009  0.6993000E+02  0.7561462E-02  0.1360331E+00
          2   -1    0    0  501    0  0.00000000000E+00  0.00000000000E+00  0.21538650293E+03  0.21538650293E+03  0.00000000000E+00 0. -1.
         -2   -1    0    0    0  501 -0.00000000000E+00 -0.00000000000E+00 -0.89263734274E+02  0.89263734274E+02  0.00000000000E+00 0.  1.
         25    2    1    2    0    0  0.10302151275E+01  0.31463739305E+02 -0.19061409671E+02  0.13039175639E+03  0.12509054545E+03 0.  0.
          5    1    3    3  502    0  0.14828966556E+02  0.39175408053E+02 -0.67342453224E+02  0.79417184862E+02  0.41800000000E+01 0. -1.
         -5    1    3    3    0  502 -0.13798751429E+02 -0.77116687480E+01  0.48281043553E+02  0.50974571528E+02  0.41800000000E+01 0. -1.
        -11    1    1    2    0    0 -0.24501123233E+02 -0.47182566357E+02  0.43408310810E+02  0.68635129891E+02  0.00000000000E+00 0.  1.
         11    1    1    2    0    0  0.23470908106E+02  0.15718827053E+02  0.10177586752E+03  0.10562335092E+03  0.00000000000E+00 0. -1.
</event>
<event>
 7    1  0.2666594E-009  0.1167785E+03  0.7561462E-02  0.1248508E+00
          1   -1    0    0  501    0  0.00000000000E+00  0.00000000000E+00  0.10102025068E+04  0.10102025068E+04  0.00000000000E+00 0. -1.
         -1   -1    0    0    0  501 -0.00000000000E+00 -0.00000000000E+00 -0.14384720591E+02  0.14384720591E+02  0.00000000000E+00 0.  1.
         25    2    1    2    0    0  0.37183718398E+02  0.22250579739E+02  0.43662892999E+03  0.45625663650E+03  0.12509028194E+03 0.  0.
          5    1    3    3  502    0 -0.27956013059E+02  0.53077745346E+02  0.20533074020E+03  0.21395553507E+03  0.41800000000E+01 0.  1.
         -5    1    3    3    0  502  0.65139731457E+02 -0.30827165607E+02  0.23129818980E+03  0.24230110143E+03  0.41800000000E+01 0.  1.
        -11    1    1    2    0    0 -0.67104727746E+02 -0.23987373033E+02  0.41263203895E+03  0.41874053795E+03  0.00000000000E+00 0.  1.
         11    1    1    2    0    0  0.29921009348E+02  0.17367932936E+01  0.14655681724E+03  0.14959005292E+03  0.00000000000E+00 0. -1.
</event>
<event>
 7    1  0.2666594E-009  0.1214145E+03  0.7561462E-02  0.1240782E+00
         -2   -1    0    0    0  501 -0.00000000000E+00  0.00000000000E+00  0.15227745795E+03  0.15227745795E+03  0.00000000000E+00 0.  1.
          2   -1    0    0  501    0  0.00000000000E+00 -0.00000000000E+00 -0.25230785352E+03  0.25230785352E+03  0.00000000000E+00 0. -1.
         25    2    1    2    0    0 -0.18885741957E+02  0.11674886824E+03 -0.16650343529E+03  0.23949647794E+03  0.12509276356E+03 0.  0.
          5    1    3    3  502    0  0.21034479760E+01  0.73746910022E+02 -0.85346592389E+01  0.74386450645E+02  0.41800000000E+01 0. -1.
         -5    1    3    3    0  502 -0.20989189933E+02  0.43001958216E+02 -0.15796877605E+03  0.16511002729E+03  0.41800000000E+01 0. -1.
        -11    1    1    2    0    0  0.21184567337E+02 -0.52535030816E+02 -0.17559962086E+02  0.59304870159E+02  0.00000000000E+00 0. -1.
         11    1    1    2    0    0 -0.22988253804E+01 -0.64213837423E+02  0.84033001812E+02  0.10578396338E+03  0.00000000000E+00 0.  1.
</event>
<event>
 7    1  0.2666594E-009  0.1165233E+03  0.7561462E-02  0.1248945E+00
          1   -1    0    0  501    0  0.00000000000E+00  0.00000000000E+00  0.91395080106E+03  0.91395080106E+03  0.00000000000E+00 0. -1.
         -1   -1    0    0    0  501 -0.00000000000E+00 -0.00000000000E+00 -0.21562658328E+02  0.21562658328E+02  0.00000000000E+00 0.  1.
         25    2    1    2    0    0  0.81223919536E+02 -0.47077537429E+01  0.60516936792E+03  0.62329480723E+03  0.12508782838E+03 0.  0.
          5    1    3    3  502    0 -0.15057847895E+02  0.38926883137E+02  0.13480281888E+03  0.14117830354E+03  0.41800000000E+01 0. -1.
         -5    1    3    3    0  502  0.96281767431E+02 -0.43634636880E+02  0.47036654904E+03  0.48211650369E+03  0.41800000000E+01 0. -1.
        -11    1    1    2    0    0 -0.44288382801E+02  0.15347068475E+02  0.26219902382E+03  0.26635562967E+03  0.00000000000E+00 0. -1.
         11    1    1    2    0    0 -0.36935536735E+02 -0.10639314732E+02  0.25019750988E+02  0.45863022484E+02  0.00000000000E+00 0.  1.
</event>
<event>
 7    1  0.2666594E-009  0.1264092E+03  0.7561462E-02  0.1232883E+00
         -1   -1    0    0    0  501 -0.00000000000E+00  0.00000000000E+00  0.45807775756E+03  0.45807775756E+03  0.00000000000E+00 0.  1.
          1   -1    0    0  501    0  0.00000000000E+00 -0.00000000000E+00 -0.56894549288E+02  0.56894549288E+02  0.00000000000E+00 0. -1.
         25    2    1    2    0    0 -0.44199176295E+02 -0.10977139200E+03  0.21469227670E+03  0.27521569200E+03  0.12509027845E+03 0.  0.
          5    1    3    3  502    0 -0.15067020538E+02 -0.82649141835E+02  0.21934844023E+03  0.23492361819E+03  0.41800000000E+01 0.  1.
         -5    1    3    3    0  502 -0.29132155757E+02 -0.27122250162E+02 -0.46561635291E+01  0.40292073807E+02  0.41800000000E+01 0.  1.
        -11    1    1    2    0    0  0.55507723048E+02  0.86014519429E+02  0.18728141745E+03  0.21343367634E+03  0.00000000000E+00 0.  1.
         11    1    1    2    0    0 -0.11308546753E+02  0.23756872568E+02 -0.79048588515E+00  0.26322938510E+02  0.00000000000E+00 0. -1.
</event>
<event>
 7    1  0.2666594E-009  0.1775374E+03  0.7561462E-02  0.1170208E+00
          1   -1    0    0  501    0  0.00000000000E+00  0.00000000000E+00  0.43768847177E+03  0.43768847177E+03  0.00000000000E+00 0. -1.
         -1   -1    0    0    0  501 -0.00000000000E+00 -0.00000000000E+00 -0.86168887188E+02  0.86168887188E+02  0.00000000000E+00 0.  1.
         25    2    1    2    0    0  0.13475006449E+02  0.14706241128E+03  0.10055814256E+03  0.21810125540E+03  0.12508912408E+03 0.  0.
          5    1    3    3  502    0 -0.30503278218E+02 -0.76225712510E+01  0.88594302193E+01  0.32931982606E+02  0.41800000000E+01 0.  1.
         -5    1    3    3    0  502  0.43978284667E+02  0.15468498253E+03  0.91698712346E+02  0.18516927280E+03  0.41800000000E+01 0.  1.
        -11    1    1    2    0    0  0.27763842245E+02 -0.54984933623E+02  0.44587746787E+02  0.76041048292E+02  0.00000000000E+00 0.  1.
         11    1    1    2    0    0 -0.41238848694E+02 -0.92077477654E+02  0.20637369523E+03  0.22971505527E+03  0.00000000000E+00 0. -1.
</event>
<event>
 7    1  0.2666594E-009  0.1076052E+03  0.7561462E-02  0.1265070E+00
          2   -1    0    0  501    0  0.00000000000E+00  0.00000000000E+00  0.72281495533E+03  0.72281495533E+03  0.00000000000E+00 0. -1.
         -2   -1    0    0    0  501 -0.00000000000E+00 -0.00000000000E+00 -0.17125662727E+02  0.17125662727E+02  0.00000000000E+00 0.  1.
         25    2    1    2    0    0 -0.15957503805E+02 -0.15591876377E+02  0.41605821380E+03  0.43502748034E+03  0.12508686118E+03 0.  0.
          5    1    3    3  502    0 -0.62496227695E+02  0.17781378874E+02  0.27762603578E+03  0.28515898032E+03  0.41800000000E+01 0.  1.
         -5    1    3    3    0  502  0.46538723889E+02 -0.33373255250E+02  0.13843217802E+03  0.14986850002E+03  0.41800000000E+01 0.  1.
        -11    1    1    2    0    0 -0.27396930076E+02  0.35607320239E+02  0.17626457848E+03  0.18190017773E+03  0.00000000000E+00 0. -1.
         11    1    1    2    0    0  0.43354433881E+02 -0.20015443862E+02  0.11336650032E+03  0.12301295998E+03  0.00000000000E+00 0.  1.
</event>
<event>
 7    1  0.2666594E-009  0.1056846E+03  0.7561462E-02  0.1268777E+00
         -1   -1    0    0    0  501 -0.00000000000E+00  0.00000000000E+00  0.54450361286E+02  0.54450361286E+02  0.00000000000E+00 0.  1.
          1   -1    0    0  501    0  0.00000000000E+00 -0.00000000000E+00 -0.32039446362E+03  0.32039446362E+03  0.00000000000E+00 0. -1.
         25    2    1    2    0    0  0.23165353760E+02  0.38562634174E+02 -0.23276302774E+03  0.26805266531E+03  0.12509953609E+03 0.  0.
          5    1    3    3  502    0 -0.41295758411E+02  0.41247139390E+00 -0.28239608888E+02  0.50204160241E+02  0.41800000000E+01 0. -1.
         -5    1    3    3    0  502  0.64461112171E+02  0.38150162780E+02 -0.20452341885E+03  0.21784850507E+03  0.41800000000E+01 0. -1.
        -11    1    1    2    0    0  0.16643765362E+02  0.18741197333E+02  0.73237771325E+01  0.26112930023E+02  0.00000000000E+00 0.  1.
         11    1    1    2    0    0 -0.39809119123E+02 -0.57303831507E+02 -0.40504851728E+02  0.80679229571E+02  0.00000000000E+00 0. -1.
</event>
<event>
 7    1  0.2666594E-009  0.1483515E+03  0.7561462E-02  0.1202513E+00
         -2   -1    0    0    0  501 -0.00000000000E+00  0.00000000000E+00  0.62971456879E+02  0.62971456879E+02  0.00000000000E+00 0.  1.
          2   -1    0    0  501    0  0.00000000000E+00 -0.00000000000E+00 -0.41936344351E+03  0.41936344351E+03  0.00000000000E+00 0. -1.
         25    2    1    2    0    0 -0.11256194861E+03 -0.36928515543E+02 -0.15596098193E+03  0.23238943405E+03  0.12508842328E+03 0.  0.
          5    1    3    3  502    0 -0.61752887832E+02 -0.66201314943E+02 -0.33631217540E+02  0.96667287378E+02  0.41800000000E+01 0. -1.
         -5    1    3    3    0  502 -0.50809060774E+02  0.29272799400E+02 -0.12232976439E+03  0.13572214668E+03  0.41800000000E+01 0. -1.
        -11    1    1    2    0    0  0.83909035339E+02 -0.17557955886E+02 -0.95871153900E+02  0.12860904391E+03  0.00000000000E+00 0. -1.
         11    1    1    2    0    0  0.28652913267E+02  0.54486471430E+02 -0.10455985080E+03  0.12133642242E+03  0.00000000000E+00 0.  1.
</event>
<event>
 7    1  0.2666594E-009  0.8224749E+02  0.7561462E-02  0.1322792E+00
          1   -1    0    0  501    0  0.00000000000E+00  0.00000000000E+00  0.13026240276E+03  0.13026240276E+03  0.00000000000E+00 0. -1.
         -1   -1    0    0    0  501 -0.00000000000E+00 -0.00000000000E+00 -0.15629112767E+03  0.15629112767E+03  0.00000000000E+00 0.  1.
         25    2    1    2    0    0 -0.38632049395E+02  0.46247545752E+01 -0.98502139545E+02  0.16390384874E+03  0.12509187240E+03 0.  0.
          5    1    3    3  502    0 -0.48649427446E+01 -0.40098493076E+02 -0.99745874243E+02  0.10769525822E+03  0.41800000000E+01 0. -1.
         -5    1    3    3    0  502 -0.33767106650E+02  0.44723247652E+02  0.12437346980E+01  0.56208590518E+02  0.41800000000E+01 0. -1.
        -11    1    1    2    0    0 -0.22230736823E+01  0.19911441710E+02 -0.13633880032E+02  0.24234072136E+02  0.00000000000E+00 0.  1.
         11    1    1    2    0    0  0.40855123077E+02 -0.24536196286E+02  0.86107294665E+02  0.98415609556E+02  0.00000000000E+00 0. -1.
</event>
<event>
 7    1  0.3265975E-009  0.1048630E+03  0.7561462E-02  0.1270390E+00
          1   -1    0    0  501    0  0.00000000000E+00  0.00000000000E+00  0.16100700423E+04  0.16100700423E+04  0.00000000000E+00 0. -1.
         -1   -1    0    0    0  501 -0.00000000000E+00 -0.00000000000E+00 -0.99118289543E+01  0.99118289543E+01  0.00000000000E+00 0.  1.
         25    2    1    2    0    0  0.38764923390E+02  0.44556631240E+02  0.10601575595E+04  0.10691441222E+04  0.12508833041E+03 0.  0.
          5    1    3    3  502    0  0.61534207243E+02  0.15001126850E+02  0.96137340705E+03  0.96346654983E+03  0.41800000000E+01 0. -1.
         -5    1    3    3    0  502 -0.22769283853E+02  0.29555504390E+02  0.98784152487E+02  0.10567757241E+03  0.41800000000E+01 0. -1.
        -11    1    1    2    0    0 -0.68548116465E+02 -0.37363939457E+02  0.39221258127E+03  0.39990701062E+03  0.00000000000E+00 0.  1.
         11    1    1    2    0    0  0.29783193075E+02 -0.71926917833E+01  0.14778807251E+03  0.15093073835E+03  0.00000000000E+00 0. -1.
</event>
<event>
 7    1  0.2666594E-009  0.6851336E+02  0.7561462E-02  0.1365223E+00
         -2   -1    0    0    0  501 -0.00000000000E+00  0.00000000000E+00  0.10683641995E+03  0.10683641995E+03  0.00000000000E+00 0.  1.
          2   -1    0    0  501    0  0.00000000000E+00 -0.00000000000E+00 -0.12947008230E+03  0.12947008230E+03  0.00000000000E+00 0. -1.
         25    2    1    2    0    0 -0.94082860415E+01 -0.81363601877E+01 -0.55863974209E+02  0.13755526942E+03  0.12508378124E+03 0.  0.
          5    1    3    3  502    0  0.21373642935E+02  0.16686071603E+02  0.31376599966E+02  0.41679983485E+02  0.41800000000E+01 0. -1.
         -5    1    3    3    0  502 -0.30781928977E+02 -0.24822431791E+02 -0.87240574175E+02  0.95875285939E+02  0.41800000000E+01 0. -1.
        -11    1    1    2    0    0  0.24540790931E+02 -0.23987826215E+02  0.49061351021E+02  0.59872217180E+02  0.00000000000E+00 0.  1.
         11    1    1    2    0    0 -0.15132504889E+02  0.32124186403E+02 -0.15831039168E+02  0.38879015644E+02  0.00000000000E+00 0. -1.
</event>
<event>
 7    1  0.2666594E-009  0.7498331E+02  0.7561462E-02  0.1343923E+00
         -1   -1    0    0    0  501 -0.00000000000E+00  0.00000000000E+00  0.24721906799E+02  0.24721906799E+02  0.00000000000E+00 0.  1.
          1   -1    0    0  501    0  0.00000000000E+00 -0.00000000000E+00 -0.65026976994E+03  0.65026976994E+03  0.00000000000E+00 0. -1.
         25    2    1    2    0    0 -0.20757477680E+02  0.39989672270E+02 -0.47037189447E+03  0.48880195313E+03  0.12509030139E+03 0.  0.
          5    1    3    3  502    0 -0.31468852932E+02  0.37171263880E+02 -0.56295395312E+02  0.74556257260E+02  0.41800000000E+01 0. -1.
         -5    1    3    3    0  502  0.10711375252E+02  0.28184083901E+01 -0.41407649916E+03  0.41424569587E+03  0.41800000000E+01 0. -1.
        -11    1    1    2    0    0 -0.22716511598E+01 -0.59207814148E+02 -0.52304831992E+02  0.79034935977E+02  0.00000000000E+00 0.  1.
         11    1    1    2    0    0  0.23029128840E+02  0.19218141878E+02 -0.10287113667E+03  0.10715478763E+03  0.00000000000E+00 0. -1.
</event>
<event>
 7    1  0.2666594E-009  0.1027954E+03  0.7561462E-02  0.1274525E+00
          2   -1    0    0  501    0  0.00000000000E+00  0.00000000000E+00  0.16539704702E+03  0.16539704702E+03  0.00000000000E+00 0. -1.
         -2   -1    0    0    0  501 -0.00000000000E+00 -0.00000000000E+00 -0.13433007700E+03  0.13433007700E+03  0.00000000000E+00 0.  1.
         25    2    1    2    0    0  0.16242092769E+02  0.34418338820E+02 -0.74641869149E+02  0.15055265848E+03  0.12508503796E+03 0.  0.
          5    1    3    3  502    0 -0.86605174204E+01 -0.38029876825E+02 -0.61153699341E+02  0.72653447519E+02  0.41800000000E+01 0.  1.
         -5    1    3    3    0  502  0.24902610190E+02  0.72448215645E+02 -0.13488169808E+02  0.77899210966E+02  0.41800000000E+01 0.  1.
        -11    1    1    2    0    0  0.58313341049E+01 -0.57446952201E+02  0.26011908305E+02  0.63330688835E+02  0.00000000000E+00 0.  1.
         11    1    1    2    0    0 -0.22073426874E+02  0.23028613381E+02  0.79696930866E+02  0.85843776697E+02  0.00000000000E+00 0. -1.
</event>
<event>
 7    1  0.2666594E-009  0.2068682E+03  0.7561462E-02  0.1144070E+00
         -2   -1    0    0    0  501 -0.00000000000E+00  0.00000000000E+00  0.96557151736E+02  0.96557151736E+02  0.00000000000E+00 0.  1.
          2   -1    0    0  501    0  0.00000000000E+00 -0.00000000000E+00 -0.67243830081E+03  0.67243830081E+03  0.00000000000E+00 0. -1.
         25    2    1    2    0    0  0.19914938793E+03  0.25833569001E+02 -0.12684904806E+03  0.26845013932E+03  0.12508774644E+03 0.  0.
          5    1    3    3  502    0  0.38962496996E+02  0.98627313002E+01  0.24665561146E+02  0.47341440066E+02  0.41800000000E+01 0.  1.
         -5    1    3    3    0  502  0.16018689093E+03  0.15970837701E+02 -0.15151460921E+03  0.22110869926E+03  0.41800000000E+01 0.  1.
        -11    1    1    2    0    0 -0.13365492240E+03 -0.49684158107E+02 -0.22926910011E+03  0.26999347050E+03  0.00000000000E+00 0. -1.
         11    1    1    2    0    0 -0.65494465529E+02  0.23850589106E+02 -0.21976300090E+03  0.23055184272E+03  0.00000000000E+00 0.  1.
</event>
<event>
 7    1  0.2666594E-009  0.1243902E+03  0.7561462E-02  0.1236025E+00
          2   -1    0    0  501    0  0.00000000000E+00  0.00000000000E+00  0.29783159642E+03  0.29783159642E+03  0.00000000000E+00 0. -1.
         -2   -1    0    0    0  501 -0.00000000000E+00 -0.00000000000E+00 -0.80657314656E+02  0.80657314656E+02  0.00000000000E+00 0.  1.
         25    2    1    2    0    0  0.92161710543E+02  0.47899945122E+02  0.71896114377E+02  0.17777624020E+03  0.12508858735E+03 0.  0.
          5    1    3    3  502    0 -0.21669169336E+02  0.99113542014E+01  0.50243364648E+02  0.55764289048E+02  0.41800000000E+01 0. -1.
         -5    1    3    3    0  502  0.11383087988E+03  0.37988590921E+02  0.21652749728E+02  0.12201195116E+03  0.41800000000E+01 0. -1.
        -11    1    1    2    0    0 -0.53500459245E+02 -0.34192615996E+02  0.16561417017E+02  0.65617944662E+02  0.00000000000E+00 0.  1.
         11    1    1    2    0    0 -0.38661251298E+02 -0.13707329126E+02  0.12871675037E+03  0.13509472621E+03  0.00000000000E+00 0. -1.
</event>
<event>
 7    1  0.2666594E-009  0.5618210E+02  0.7561462E-02  0.1414590E+00
         -2   -1    0    0    0  501 -0.00000000000E+00  0.00000000000E+00  0.20715511525E+03  0.20715511525E+03  0.00000000000E+00 0.  1.
          2   -1    0    0  501    0  0.00000000000E+00 -0.00000000000E+00 -0.58728504386E+02  0.58728504386E+02  0.00000000000E+00 0. -1.
         25    2    1    2    0    0  0.14258168734E+02  0.13296483583E+01  0.64810763492E+02  0.14160725913E+03  0.12508843845E+03 0.  0.
          5    1    3    3  502    0 -0.10743106135E+02 -0.60328954770E+01  0.98192325119E+02  0.99050569254E+02  0.41800000000E+01 0.  1.
         -5    1    3    3    0  502  0.25001274868E+02  0.73625438353E+01 -0.33381561627E+02  0.42556689878E+02  0.41800000000E+01 0.  1.
        -11    1    1    2    0    0 -0.18102801563E+02  0.33413465352E+02  0.51152902822E+01  0.38344977324E+02  0.00000000000E+00 0. -1.
         11    1    1    2    0    0  0.38446328291E+01 -0.34743113711E+02  0.78500557092E+02  0.85931383182E+02  0.00000000000E+00 0.  1.
</event>
<event>
 7    1  0.2666594E-009  0.8115350E+02  0.7561462E-02  0.1325809E+00
          2   -1    0    0  501    0  0.00000000000E+00  0.00000000000E+00  0.20572177917E+03  0.20572177917E+03  0.00000000000E+00 0. -1.
         -2   -1    0    0    0  501 -0.00000000000E+00 -0.00000000000E+00 -0.15236970256E+03  0.15236970256E+03  0.00000000000E+00 0.  1.
         25    2    1    2    0    0 -0.63557453256E+02  0.32342501244E+02 -0.92212160777E+02  0.17098486015E+03  0.12508857884E+03 0.  0.
          5    1    3    3  502    0 -0.21157006945E+02  0.36295024106E+02  0.23004455565E+02  0.48079362450E+02  0.41800000000E+01 0.  1.
         -5    1    3    3    0  502 -0.42400446311E+02 -0.39525228619E+01 -0.11521661634E+03  0.12290549770E+03  0.41800000000E+01 0.  1.
        -11    1    1    2    0    0  0.30053211827E+02 -0.31851231958E+02  0.67539110109E+01  0.44309274789E+02  0.00000000000E+00 0.  1.
         11    1    1    2    0    0  0.33504241429E+02 -0.49126928622E+00  0.13881032638E+03  0.14279734679E+03  0.00000000000E+00 0. -1.
</event>
<event>
 7    1  0.2666594E-009  0.2100168E+03  0.7561462E-02  0.1141553E+00
          2   -1    0    0  501    0  0.00000000000E+00  0.00000000000E+00  0.13469052497E+04  0.13469052497E+04  0.00000000000E+00 0. -1.
         -2   -1    0    0    0  501 -0.00000000000E+00 -0.00000000000E+00 -0.41618457805E+02  0.41618457805E+02  0.00000000000E+00 0.  1.
         25    2    1    2    0    0 -0.31294244787E+02 -0.20021205845E+03  0.51342370566E+03  0.56596415702E+03  0.12508927768E+03 0.  0.
          5    1    3    3  502    0 -0.27522015397E+02 -0.13432632141E+03  0.18145704796E+03  0.22747561322E+03  0.41800000000E+01 0. -1.
         -5    1    3    3    0  502 -0.37722293897E+01 -0.65885737041E+02  0.33196665769E+03  0.33848854379E+03  0.41800000000E+01 0. -1.
        -11    1    1    2    0    0  0.57116318028E+02  0.13462857545E+03  0.43876185739E+03  0.46249226438E+03  0.00000000000E+00 0.  1.
         11    1    1    2    0    0 -0.25822073241E+02  0.65583482999E+02  0.35310122884E+03  0.36006728610E+03  0.00000000000E+00 0. -1.
</event>
<event>
 7    1  0.2850335E-009  0.1450106E+03  0.7561462E-02  0.1206742E+00
         -2   -1    0    0    0  501 -0.00000000000E+00  0.00000000000E+00  0.41019407090E+02  0.41019407090E+02  0.00000000000E+00 0.  1.
          2   -1    0    0  501    0  0.00000000000E+00 -0.00000000000E+00 -0.64822334452E+03  0.64822334452E+03  0.00000000000E+00 0. -1.
         25    2    1    2    0    0 -0.35682154425E+02  0.11570778400E+03 -0.34436487220E+03  0.38587054568E+03  0.12508958947E+03 0.  0.
          5    1    3    3  502    0  0.40270302442E+02  0.67980879476E+02 -0.20851999684E+03  0.22302726003E+03  0.41800000000E+01 0. -1.
         -5    1    3    3    0  502 -0.75952456867E+02  0.47726904529E+02 -0.13584487535E+03  0.16284328565E+03  0.41800000000E+01 0. -1.
        -11    1    1    2    0    0  0.25226326127E+02 -0.84411984455E+02 -0.25452979506E+03  0.26934581345E+03  0.00000000000E+00 0. -1.
         11    1    1    2    0    0  0.10455828298E+02 -0.31295799549E+02 -0.83092701771E+01  0.34026392487E+02  0.00000000000E+00 0.  1.
</event>
<event>
 7    1  0.2666594E-009  0.1904880E+03  0.7561462E-02  0.1158022E+00
          2   -1    0    0  501    0  0.00000000000E+00  0.00000000000E+00  0.93908876325E+02  0.93908876325E+02  0.00000000000E+00 0. -1.
         -2   -1    0    0    0  501 -0.00000000000E+00 -0.00000000000E+00 -0.46979564185E+03  0.46979564185E+03  0.00000000000E+00 0.  1.
         25    2    1    2    0    0 -0.60414020526E+02 -0.16859366109E+03 -0.19931545653E+03  0.29571551988E+03  0.12508933230E+03 0.  0.
          5    1    3    3  502    0 -0.73468739166E+02 -0.16140768237E+03 -0.21148170599E+03  0.27602912877E+03  0.41800000000E+01 0.  1.
         -5    1    3    3    0  502  0.13054718640E+02 -0.71859787139E+01  0.12166249463E+02  0.19686391108E+02  0.41800000000E+01 0.  1.
        -11    1    1    2    0    0  0.38412173826E+02  0.32703249474E+02 -0.92025181100E+01  0.51280444262E+02  0.00000000000E+00 0. -1.
         11    1    1    2    0    0  0.22001846700E+02  0.13589041161E+03 -0.16736879089E+03  0.21670855403E+03  0.00000000000E+00 0.  1.
</event>
<event>
 7    1  0.2666594E-009  0.1377212E+03  0.7561462E-02  0.1216429E+00
         -1   -1    0    0    0  501 -0.00000000000E+00  0.00000000000E+00  0.36966359179E+02  0.36966359179E+02  0.00000000000E+00 0.  1.
          1   -1    0    0  501    0  0.00000000000E+00 -0.00000000000E+00 -0.86889061722E+03  0.86889061722E+03  0.00000000000E+00 0. -1.
         25    2    1    2    0    0 -0.53414057060E+02  0.10047381319E+03 -0.65365589668E+03  0.67517536687E+03  0.12509075163E+03 0.  0.
          5    1    3    3  502    0 -0.40807174673E+02  0.11130647186E+03 -0.64529088847E+03  0.65610377177E+03  0.41800000000E+01 0. -1.
         -5    1    3    3    0  502 -0.12606882386E+02 -0.10832658677E+02 -0.83650082041E+01  0.19071595103E+02  0.41800000000E+01 0. -1.
        -11    1    1    2    0    0  0.59100554447E+02 -0.25297293055E+02 -0.11714445283E+03  0.13362504032E+03  0.00000000000E+00 0. -1.
         11    1    1    2    0    0 -0.56864973880E+01 -0.75176520132E+02 -0.61123908538E+02  0.97056569210E+02  0.00000000000E+00 0.  1.
</event>
<event>
 7    1  0.2666594E-009  0.1100314E+03  0.7561462E-02  0.1260512E+00
          1   -1    0    0  501    0  0.00000000000E+00  0.00000000000E+00  0.39316153427E+03  0.39316153427E+03  0.00000000000E+00 0. -1.
         -1   -1    0    0    0  501 -0.00000000000E+00 -0.00000000000E+00 -0.72163264270E+02  0.72163264270E+02  0.00000000000E+00 0.  1.
         25    2    1    2    0    0  0.31178237000E+02 -0.10472609450E+03  0.11018505679E+03  0.19931312992E+03  0.12508133230E+03 0.  0.
          5    1    3    3  502    0  0.19767313773E+02 -0.74402069822E+02 -0.72330482879E+01  0.77435160458E+02  0.41800000000E+01 0. -1.
         -5    1    3    3    0  502  0.11410923227E+02 -0.30324024678E+02  0.11741810508E+03  0.12187796947E+03  0.41800000000E+01 0. -1.
        -11    1    1    2    0    0 -0.85770079099E+01  0.55147752303E+02  0.84566292343E+01  0.56447800903E+02  0.00000000000E+00 0.  1.
         11    1    1    2    0    0 -0.22601229090E+02  0.49578342197E+02  0.20235658398E+03  0.20956386771E+03  0.00000000000E+00 0. -1.
</event>
<event>
 7    1  0.2666594E-009  0.1756024E+03  0.7561462E-02  0.1172128E+00
         -2   -1    0    0    0  501 -0.00000000000E+00  0.00000000000E+00  0.85502228117E+02  0.85502228117E+02  0.00000000000E+00 0.  1.
          2   -1    0    0  501    0  0.00000000000E+00 -0.00000000000E+00 -0.48780756761E+03  0.48780756761E+03  0.00000000000E+00 0. -1.
         25    2    1    2    0    0 -0.97241241024E+02 -0.12378874703E+03 -0.31041717411E+03  0.36984494989E+03  0.12508777771E+03 0.  0.
          5    1    3    3  502    0  0.53265260445E+01 -0.68766462096E+02 -0.19064332681E+03  0.20277955677E+03  0.41800000000E+01 0. -1.
         -5    1    3    3    0  502 -0.10256776707E+03 -0.55022284936E+02 -0.11977384730E+03  0.16706539312E+03  0.41800000000E+01 0. -1.
        -11    1    1    2    0    0  0.70594943195E+02  0.48177627864E+02 -0.88782392856E+02  0.12323572174E+03  0.00000000000E+00 0. -1.
         11    1    1    2    0    0  0.26646297829E+02  0.75611119168E+02 -0.31057725272E+01  0.80229124093E+02  0.00000000000E+00 0.  1.
</event>
<event>
 7    1  0.2666594E-009  0.1061411E+03  0.7561462E-02  0.1267887E+00
          2   -1    0    0  501    0  0.00000000000E+00  0.00000000000E+00  0.21181825161E+04  0.21181825161E+04  0.00000000000E+00 0. -1.
         -2   -1    0    0    0  501 -0.00000000000E+00 -0.00000000000E+00 -0.18388007374E+02  0.18388007374E+02  0.00000000000E+00 0.  1.
         25    2    1    2    0    0 -0.59012755682E+02 -0.30528498180E+02  0.19139509761E+04  0.19191847910E+04  0.12508968307E+03 0.  0.
          5    1    3    3  502    0 -0.47797998088E+02  0.44184954727E+02  0.78858298497E+03  0.79127590348E+03  0.41800000000E+01 0.  1.
         -5    1    3    3    0  502 -0.11214757594E+02 -0.74713452906E+02  0.11253679911E+04  0.11279088876E+04  0.41800000000E+01 0.  1.
        -11    1    1    2    0    0  0.30596870992E+02  0.12984744484E+01  0.17143442160E+03  0.17414825713E+03  0.00000000000E+00 0. -1.
         11    1    1    2    0    0  0.28415884689E+02  0.29230023731E+02  0.14409111055E+02  0.43237475312E+02  0.00000000000E+00 0.  1.
</event>
<event>
 7    1  0.2666594E-009  0.1185368E+03  0.7561462E-02  0.1245531E+00
          1   -1    0    0  501    0  0.00000000000E+00  0.00000000000E+00  0.75681745211E+03  0.75681745211E+03  0.00000000000E+00 0. -1.
         -1   -1    0    0    0  501 -0.00000000000E+00 -0.00000000000E+00 -0.21382457597E+02  0.21382457597E+02  0.00000000000E+00 0.  1.
         25    2    1    2    0    0  0.62162456928E+02 -0.14256070818E+02  0.42359261395E+03  0.44625843335E+03  0.12509388531E+03 0.  0.
          5    1    3    3  502    0 -0.89981863173E+01  0.35218597055E+02  0.24483860578E+03  0.24755753314E+03  0.41800000000E+01 0. -1.
         -5    1    3    3    0  502  0.71160643245E+02 -0.49474667873E+02  0.17875400817E+03  0.19870090021E+03  0.41800000000E+01 0. -1.
        -11    1    1    2    0    0  0.10950249593E+02 -0.27442206770E+02  0.84826040863E+02  0.89824494917E+02  0.00000000000E+00 0. -1.
         11    1    1    2    0    0 -0.73112706521E+02  0.41698277587E+02  0.22701633970E+03  0.24211698143E+03  0.00000000000E+00 0.  1.
</event>
<event>
 7    1  0.2666594E-009  0.1052132E+03  0.7561462E-02  0.1269700E+00
          2   -1    0    0  501    0  0.00000000000E+00  0.00000000000E+00  0.35289332430E+03  0.35289332430E+03  0.00000000000E+00 0. -1.
         -2   -1    0    0    0  501 -0.00000000000E+00 -0.00000000000E+00 -0.56742870231E+02  0.56742870231E+02  0.00000000000E+00 0.  1.
         25    2    1    2    0    0  0.21298303558E+02 -0.59303499858E+02  0.25488873732E+03  0.29083750368E+03  0.12509061637E+03 0.  0.
          5    1    3    3  502    0  0.53542260517E+02 -0.68013294856E+02  0.23777809345E+03  0.25307800391E+03  0.41800000000E+01 0.  1.
         -5    1    3    3    0  502 -0.32243956959E+02  0.87097949976E+01  0.17110643873E+02  0.37759499772E+02  0.41800000000E+01 0.  1.
        -11    1    1    2    0    0 -0.12490692957E+02 -0.12554620604E+02  0.42871032483E+02  0.46384925732E+02  0.00000000000E+00 0. -1.
         11    1    1    2    0    0 -0.88076106010E+01  0.71858120463E+02 -0.16093157382E+01  0.72413765114E+02  0.00000000000E+00 0.  1.
</event>
<event>
 7    1  0.2666594E-009  0.1580660E+03  0.7561462E-02  0.1190898E+00
         -3   -1    0    0    0  501 -0.00000000000E+00  0.00000000000E+00  0.50982010261E+03  0.50982010261E+03  0.00000000000E+00 0.  1.
          3   -1    0    0  501    0  0.00000000000E+00 -0.00000000000E+00 -0.64043319794E+02  0.64043319794E+02  0.00000000000E+00 0. -1.
         25    2    1    2    0    0  0.19982374895E+02 -0.13957393952E+03  0.19556486290E+03  0.27161365554E+03  0.12509269513E+03 0.  0.
          5    1    3    3  502    0  0.14341118932E+02  0.11606284863E+02  0.77191621637E+02  0.79475734609E+02  0.41800000000E+01 0. -1.
         -5    1    3    3    0  502  0.56412559631E+01 -0.15118022438E+03  0.11837324127E+03  0.19213792094E+03  0.41800000000E+01 0. -1.
        -11    1    1    2    0    0 -0.30998441352E+02  0.93726866762E+02  0.84453897608E+02  0.12991570244E+03  0.00000000000E+00 0. -1.
         11    1    1    2    0    0  0.11016066457E+02  0.45847072759E+02  0.16575802231E+03  0.17233406442E+03  0.00000000000E+00 0.  1.
</event>
<event>
 7    1  0.2666594E-009  0.1476115E+03  0.7561462E-02  0.1203439E+00
         -1   -1    0    0    0  501 -0.00000000000E+00  0.00000000000E+00  0.28556833507E+02  0.28556833507E+02  0.00000000000E+00 0.  1.
          1   -1    0    0  501    0  0.00000000000E+00 -0.00000000000E+00 -0.77094175749E+03  0.77094175749E+03  0.00000000000E+00 0. -1.
         25    2    1    2    0    0 -0.47655529787E+02  0.89557361868E+02 -0.38122255832E+03  0.41384564773E+03  0.12508401413E+03 0.  0.
          5    1    3    3  502    0  0.40250613701E+02  0.47850377241E+02 -0.12733871112E+03  0.14192388895E+03  0.41800000000E+01 0.  1.
         -5    1    3    3    0  502 -0.87906143488E+02  0.41706984628E+02 -0.25388384720E+03  0.27192175878E+03  0.41800000000E+01 0.  1.
        -11    1    1    2    0    0  0.72765742421E+02 -0.49911729466E+02 -0.22967326831E+03  0.24604033041E+03  0.00000000000E+00 0.  1.
         11    1    1    2    0    0 -0.25110212634E+02 -0.39645632402E+02 -0.13148909734E+03  0.13961261285E+03  0.00000000000E+00 0. -1.
</event>
<event>
 7    1  0.2666594E-009  0.1677472E+03  0.7561462E-02  0.1180218E+00
         -1   -1    0    0    0  501 -0.00000000000E+00  0.00000000000E+00  0.66079153671E+02  0.66079153671E+02  0.00000000000E+00 0.  1.
          1   -1    0    0  501    0  0.00000000000E+00 -0.00000000000E+00 -0.50216204104E+03  0.50216204104E+03  0.00000000000E+00 0. -1.
         25    2    1    2    0    0 -0.23606264146E+02 -0.12445649619E+03 -0.11895827706E+03  0.21411678465E+03  0.12509296797E+03 0.  0.
          5    1    3    3  502    0 -0.40739926096E+02 -0.14515041848E+03 -0.10203685268E+03  0.18209167271E+03  0.41800000000E+01 0. -1.
         -5    1    3    3    0  502  0.17133661950E+02  0.20693922295E+02 -0.16921424384E+02  0.32025111943E+02  0.41800000000E+01 0. -1.
        -11    1    1    2    0    0  0.59713615063E+02  0.86406948062E+02 -0.20527436781E+03  0.23058500077E+03  0.00000000000E+00 0.  1.
         11    1    1    2    0    0 -0.36107350917E+02  0.38049548127E+02 -0.11185024249E+03  0.12353940929E+03  0.00000000000E+00 0. -1.
</event>
<event>
 7    1  0.2666594E-009  0.1252447E+03  0.7561462E-02  0.1234687E+00
          2   -1    0    0  501    0  0.00000000000E+00  0.00000000000E+00  0.57531461136E+03  0.57531461136E+03  0.00000000000E+00 0.  1.
         -2   -1    0    0    0  501 -0.00000000000E+00 -0.00000000000E+00 -0.40001660092E+02  0.40001660092E+02  0.00000000000E+00 0. -1.
         25    2    1    2    0    0  0.10057188507E+03 -0.14588475721E+02  0.34461306012E+03  0.38043931852E+03  0.12509350975E+03 0.  0.
          5    1    3    3  502    0  0.73853355628E+02  0.19403827096E+02  0.32298502912E+03  0.33191509167E+03  0.41800000000E+01 0.  1.
         -5    1    3    3    0  502  0.26718529446E+02 -0.33992302817E+02  0.21628031001E+02  0.48524226851E+02  0.41800000000E+01 0.  1.
        -11    1    1    2    0    0 -0.90616731814E+02  0.43124428014E+02  0.17258455064E+03  0.19964101657E+03  0.00000000000E+00 0. -1.
         11    1    1    2    0    0 -0.99551532590E+01 -0.28535952293E+02  0.18115340509E+02  0.35235936364E+02  0.00000000000E+00 0.  1.
</event>
<event>
 7    1  0.2666594E-009  0.8341415E+02  0.7561462E-02  0.1319633E+00
          2   -1    0    0  501    0  0.00000000000E+00  0.00000000000E+00  0.16140417454E+03  0.16140417454E+03  0.00000000000E+00 0. -1.
         -2   -1    0    0    0  501 -0.00000000000E+00 -0.00000000000E+00 -0.12377484414E+03  0.12377484414E+03  0.00000000000E+00 0.  1.
         25    2    1    2    0    0  0.36039246129E+02  0.33929527850E+02 -0.54780459586E+02  0.14525917915E+03  0.12509712328E+03 0.  0.
          5    1    3    3  502    0 -0.36999914328E+01  0.57980457615E+02  0.16080595518E+02  0.60427488398E+02  0.41800000000E+01 0.  1.
         -5    1    3    3    0  502  0.39739237562E+02 -0.24050929765E+02 -0.70861055104E+02  0.84831690747E+02  0.41800000000E+01 0.  1.
        -11    1    1    2    0    0 -0.21133129833E+02 -0.40476223334E+02 -0.43029208956E+00  0.45663103084E+02  0.00000000000E+00 0.  1.
         11    1    1    2    0    0 -0.14906116296E+02  0.65466954841E+01  0.92840082083E+02  0.94256736448E+02  0.00000000000E+00 0. -1.
</event>
<event>
 7    1  0.2666594E-009  0.1682770E+03  0.7561462E-02  0.1179657E+00
         -2   -1    0    0    0  501 -0.00000000000E+00  0.00000000000E+00  0.44667669899E+02  0.44667669899E+02  0.00000000000E+00 0.  1.
          2   -1    0    0  501    0  0.00000000000E+00 -0.00000000000E+00 -0.85230680033E+03  0.85230680033E+03  0.00000000000E+00 0. -1.
         25    2    1    2    0    0  0.32918833106E+02  0.14221713816E+03 -0.25537084113E+03  0.31964484371E+03  0.12509674517E+03 0.  0.
          5    1    3    3  502    0  0.65126793851E+02  0.86721336387E+02 -0.85990220214E+02  0.13846977950E+03  0.41800000000E+01 0.  1.
         -5    1    3    3    0  502 -0.32207960745E+02  0.55495801770E+02 -0.16938062091E+03  0.18117506421E+03  0.41800000000E+01 0.  1.
        -11    1    1    2    0    0  0.23179871783E+02 -0.27103304448E+02 -0.72959544876E+02  0.81209548432E+02  0.00000000000E+00 0.  1.
         11    1    1    2    0    0 -0.56098704889E+02 -0.11511383371E+03 -0.47930874443E+03  0.49612007809E+03  0.00000000000E+00 0. -1.
</event>
<event>
 7    1  0.2666594E-009  0.7726613E+02  0.7561462E-02  0.1336994E+00
          1   -1    0    0  501    0  0.00000000000E+00  0.00000000000E+00  0.56963025972E+03  0.56963025972E+03  0.00000000000E+00 0. -1.
         -1   -1    0    0    0  501 -0.00000000000E+00 -0.00000000000E+00 -0.21008377238E+02  0.21008377238E+02  0.00000000000E+00 0.  1.
         25    2    1    2    0    0  0.45960771413E+01 -0.16093777168E+02  0.37165470146E+03  0.39250232688E+03  0.12510286127E+03 0.  0.
          5    1    3    3  502    0 -0.22586820970E+02  0.17774842740E+02  0.14082769135E+02  0.32278573427E+02  0.41800000000E+01 0.  1.
         -5    1    3    3    0  502  0.27182898111E+02 -0.33868619908E+02  0.35757193233E+03  0.36022375346E+03  0.41800000000E+01 0.  1.
        -11    1    1    2    0    0  0.24957940004E+02 -0.22257884556E+02  0.11340968678E+03  0.11823734287E+03  0.00000000000E+00 0. -1.
         11    1    1    2    0    0 -0.29554017145E+02  0.38351661724E+02  0.63557494242E+02  0.79898967207E+02  0.00000000000E+00 0.  1.
</event>
<event>
 7    1  0.2666594E-009  0.1532503E+03  0.7561462E-02  0.1196535E+00
          2   -1    0    0  501    0  0.00000000000E+00  0.00000000000E+00  0.15959442167E+03  0.15959442167E+03  0.00000000000E+00 0. -1.
         -2   -1    0    0    0  501 -0.00000000000E+00 -0.00000000000E+00 -0.16378926730E+03  0.16378926730E+03  0.00000000000E+00 0.  1.
         25    2    1    2    0    0 -0.11960211599E+03 -0.42251248538E+01 -0.76789960671E+01  0.17328820348E+03  0.12508923477E+03 0.  0.
          5    1    3    3  502    0 -0.44349954993E+02  0.47438839976E+02  0.33350284042E+02  0.73123702668E+02  0.41800000000E+01 0.  1.
         -5    1    3    3    0  502 -0.75252160994E+02 -0.51663964830E+02 -0.41029280109E+02  0.10016450081E+03  0.41800000000E+01 0.  1.
        -11    1    1    2    0    0  0.35219890424E+02  0.44332870073E+02  0.67522249158E+00  0.56624199560E+02  0.00000000000E+00 0.  1.
         11    1    1    2    0    0  0.84382225563E+02 -0.40107745219E+02  0.28089279388E+01  0.93471285932E+02  0.00000000000E+00 0. -1.
</event>
<event>
 7    1  0.2666594E-009  0.1068397E+03  0.7561462E-02  0.1266537E+00
         -2   -1    0    0    0  501 -0.00000000000E+00  0.00000000000E+00  0.46298117723E+02  0.46298117723E+02  0.00000000000E+00 0.  1.
          2   -1    0    0  501    0  0.00000000000E+00 -0.00000000000E+00 -0.26758884419E+03  0.26758884419E+03  0.00000000000E+00 0. -1.
         25    2    1    2    0    0 -0.18919546241E+02 -0.13525153739E+02 -0.14139282253E+03  0.19020812933E+03  0.12508526367E+03 0.  0.
          5    1    3    3  502    0 -0.69614228347E+02  0.10761354565E+02 -0.85018581634E+02  0.11048791411E+03  0.41800000000E+01 0. -1.
         -5    1    3    3    0  502  0.50694682106E+02 -0.24286508304E+02 -0.56374240894E+02  0.79720215227E+02  0.41800000000E+01 0. -1.
        -11    1    1    2    0    0  0.50988623821E+02 -0.21878548190E+01 -0.21829827911E+02  0.55508268344E+02  0.00000000000E+00 0.  1.
         11    1    1    2    0    0 -0.32069077580E+02  0.15713008558E+02 -0.58068076028E+02  0.68170564237E+02  0.00000000000E+00 0. -1.
</event>
<event>
 7    1  0.2666594E-009  0.7281704E+02  0.7561462E-02  0.1350767E+00
          2   -1    0    0  501    0  0.00000000000E+00  0.00000000000E+00  0.28082718892E+03  0.28082718892E+03  0.00000000000E+00 0. -1.
         -2   -1    0    0    0  501 -0.00000000000E+00 -0.00000000000E+00 -0.55173345709E+02  0.55173345709E+02  0.00000000000E+00 0.  1.
         25    2    1    2    0    0  0.33131729442E+02 -0.11230222980E+02  0.56261538258E+02  0.14154870125E+03  0.12508734841E+03 0.  0.
          5    1    3    3  502    0 -0.22628036708E+02  0.56703414883E+01  0.76219426955E+02  0.79818884126E+02  0.41800000000E+01 0.  1.
         -5    1    3    3    0  502  0.55759766150E+02 -0.16900564468E+02 -0.19957888697E+02  0.61729817120E+02  0.41800000000E+01 0.  1.
        -11    1    1    2    0    0  0.47144526229E+01 -0.16139855611E+02 -0.18858104542E+01  0.16919730605E+02  0.00000000000E+00 0.  1.
         11    1    1    2    0    0 -0.37846182065E+02  0.27370078591E+02  0.17127811540E+03  0.17753210277E+03  0.00000000000E+00 0. -1.
</event>
<event>
 7    1  0.2666594E-009  0.7483704E+02  0.7561462E-02  0.1344376E+00
          1   -1    0    0  501    0  0.00000000000E+00  0.00000000000E+00  0.74476221816E+03  0.74476221816E+03  0.00000000000E+00 0. -1.
         -1   -1    0    0    0  501 -0.00000000000E+00 -0.00000000000E+00 -0.21750982716E+02  0.21750982716E+02  0.00000000000E+00 0.  1.
         25    2    1    2    0    0 -0.56613170514E+02 -0.22641708127E+02  0.49488048943E+03  0.51407420159E+03  0.12509151811E+03 0.  0.
          5    1    3    3  502    0 -0.67800217845E+01  0.20324860010E+02  0.38718333483E+03  0.38779824110E+03  0.41800000000E+01 0. -1.
         -5    1    3    3    0  502 -0.49833148729E+02 -0.42966568137E+02  0.10769715460E+03  0.12627596050E+03  0.41800000000E+01 0. -1.
        -11    1    1    2    0    0  0.14958588120E+02  0.11284974445E+02 -0.14875439281E+01  0.18796882553E+02  0.00000000000E+00 0.  1.
         11    1    1    2    0    0  0.41654582394E+02  0.11356733682E+02  0.22961828994E+03  0.23364211673E+03  0.00000000000E+00 0. -1.
</event>
<event>
 7    1  0.2830105E-009  0.7602239E+02  0.7561462E-02  0.1340734E+00
         -2   -1    0    0    0  501 -0.00000000000E+00  0.00000000000E+00  0.15572348855E+02  0.15572348855E+02  0.00000000000E+00 0.  1.
          2   -1    0    0  501    0  0.00000000000E+00 -0.00000000000E+00 -0.90906070201E+03  0.90906070201E+03  0.00000000000E+00 0. -1.
         25    2    1    2    0    0  0.15221091912E+02 -0.45354808736E+02 -0.55658287132E+03  0.57246825523E+03  0.12508665110E+03 0.  0.
          5    1    3    3  502    0  0.34759612813E+02 -0.41643194645E+02 -0.54752039328E+03  0.55021672076E+03  0.41800000000E+01 0.  1.
         -5    1    3    3    0  502 -0.19538520901E+02 -0.37116140908E+01 -0.90624780399E+01  0.22251534473E+02  0.41800000000E+01 0.  1.
        -11    1    1    2    0    0 -0.37474084592E+02  0.39197327613E+02 -0.31722339446E+03  0.32182513808E+03  0.00000000000E+00 0. -1.
         11    1    1    2    0    0  0.22252992679E+02  0.61574811233E+01 -0.19682087372E+02  0.30339657551E+02  0.00000000000E+00 0.  1.
</event>
<event>
 7    1  0.2666594E-009  0.2129261E+03  0.7561462E-02  0.1139270E+00
         -2   -1    0    0    0  501 -0.00000000000E+00  0.00000000000E+00  0.32826585672E+03  0.32826585672E+03  0.00000000000E+00 0.  1.
          2   -1    0    0  501    0  0.00000000000E+00 -0.00000000000E+00 -0.16119339425E+03  0.16119339425E+03  0.00000000000E+00 0. -1.
         25    2    1    2    0    0  0.12860125923E+03 -0.15588858649E+03  0.68560410301E+02  0.24736000543E+03  0.12508759791E+03 0.  0.
          5    1    3    3  502    0  0.41498941846E+02 -0.19275638660E+02 -0.32573259880E+02  0.56322305344E+02  0.41800000000E+01 0. -1.
         -5    1    3    3    0  502  0.87102317389E+02 -0.13661294783E+03  0.10113367018E+03  0.19103770009E+03  0.41800000000E+01 0. -1.
        -11    1    1    2    0    0 -0.11212501634E+03  0.74093409201E+02  0.40108049315E+02  0.14025158893E+03  0.00000000000E+00 0.  1.
         11    1    1    2    0    0 -0.16476242890E+02  0.81795177293E+02  0.58404002851E+02  0.10184765661E+03  0.00000000000E+00 0. -1.
</event>
<event>
 7    1  0.2666594E-009  0.4126213E+03  0.7561462E-02  0.1039495E+00
          2   -1    0    0  501    0  0.00000000000E+00  0.00000000000E+00  0.19833627308E+04  0.19833627308E+04  0.00000000000E+00 0. -1.
         -2   -1    0    0    0  501 -0.00000000000E+00 -0.00000000000E+00 -0.87062354123E+02  0.87062354123E+02  0.00000000000E+00 0.  1.
         25    2    1    2    0    0 -0.26970600940E+03 -0.29476629504E+03  0.87467768832E+03  0.96970990222E+03  0.12509091022E+03 0.  0.
          5    1    3    3  502    0 -0.19123106926E+03 -0.12206280114E+03  0.42868510720E+03  0.48503303270E+03  0.41800000000E+01 0.  1.
         -5    1    3    3    0  502 -0.78474940137E+02 -0.17270349390E+03  0.44599258112E+03  0.48467686952E+03  0.41800000000E+01 0.  1.
        -11    1    1    2    0    0  0.64644185447E+02  0.13130040483E+03  0.32781046464E+03  0.35899633389E+03  0.00000000000E+00 0. -1.
         11    1    1    2    0    0  0.20506182395E+03  0.16346589021E+03  0.69381222371E+03  0.74171884881E+03  0.00000000000E+00 0.  1.
</event>
<event>
 7    1  0.2666594E-009  0.1369759E+03  0.7561462E-02  0.1217457E+00
          2   -1    0    0  501    0  0.00000000000E+00  0.00000000000E+00  0.35941169188E+03  0.35941169188E+03  0.00000000000E+00 0. -1.
         -2   -1    0    0    0  501 -0.00000000000E+00 -0.00000000000E+00 -0.86323680290E+02  0.86323680290E+02  0.00000000000E+00 0.  1.
         25    2    1    2    0    0  0.83723223607E+02  0.69142452262E+02  0.25346005239E+03  0.30278797879E+03  0.12509318553E+03 0.  0.
          5    1    3    3  502    0  0.70904043041E+02  0.88590849872E+01  0.22242276189E+03  0.23365620924E+03  0.41800000000E+01 0.  1.
         -5    1    3    3    0  502  0.12819180566E+02  0.60283367274E+02  0.31037290499E+02  0.69131769555E+02  0.41800000000E+01 0.  1.
        -11    1    1    2    0    0  0.33791471851E+01 -0.51649421308E+02 -0.88905437496E+00  0.51767477964E+02  0.00000000000E+00 0.  1.
         11    1    1    2    0    0 -0.87102370792E+02 -0.17493030954E+02  0.20517013577E+02  0.91179915418E+02  0.00000000000E+00 0. -1.
</event>
<event>
 7    1  0.2666594E-009  0.8507987E+02  0.7561462E-02  0.1315224E+00
         -2   -1    0    0    0  501 -0.00000000000E+00  0.00000000000E+00  0.97862326360E+02  0.97862326360E+02  0.00000000000E+00 0.  1.
          2   -1    0    0  501    0  0.00000000000E+00 -0.00000000000E+00 -0.16430713923E+03  0.16430713923E+03  0.00000000000E+00 0. -1.
         25    2    1    2    0    0 -0.23168378926E+02  0.27663967876E+02 -0.98743504310E+02  0.16339644077E+03  0.12508416492E+03 0.  0.
          5    1    3    3  502    0  0.38772037396E+02  0.16589059442E+02  0.42913664454E+01  0.42595257987E+02  0.41800000000E+01 0. -1.
         -5    1    3    3    0  502 -0.61940416322E+02  0.11074908435E+02 -0.10303487076E+03  0.12080118279E+03  0.41800000000E+01 0. -1.
        -11    1    1    2    0    0 -0.12881826490E+02 -0.25542758353E+02 -0.20223484473E+02  0.35033744908E+02  0.00000000000E+00 0. -1.
         11    1    1    2    0    0  0.36050205416E+02 -0.21212095227E+01  0.52522175915E+02  0.63739279908E+02  0.00000000000E+00 0.  1.
</event>
<event>
 7    1  0.2666594E-009  0.2556187E+03  0.7561462E-02  0.1109805E+00
          1   -1    0    0  501    0  0.00000000000E+00  0.00000000000E+00  0.11721375222E+04  0.11721375222E+04  0.00000000000E+00 0. -1.
         -1   -1    0    0    0  501 -0.00000000000E+00 -0.00000000000E+00 -0.71696535478E+02  0.71696535478E+02  0.00000000000E+00 0.  1.
         25    2    1    2    0    0 -0.22102706891E+03 -0.11368436989E+03  0.78045395724E+03  0.82857226376E+03  0.12508603341E+03 0.  0.
          5    1    3    3  502    0 -0.16271178354E+03 -0.73325444523E+02  0.35641846483E+03  0.39862681770E+03  0.41800000000E+01 0. -1.
         -5    1    3    3    0  502 -0.58315285365E+02 -0.40358925366E+02  0.42403549242E+03  0.42994544607E+03  0.41800000000E+01 0. -1.
        -11    1    1    2    0    0  0.52230152406E+02  0.69962333916E+02  0.78546714097E+02  0.11744063727E+03  0.00000000000E+00 0.  1.
         11    1    1    2    0    0  0.16879691650E+03  0.43722035973E+02  0.24144031535E+03  0.29782115661E+03  0.00000000000E+00 0. -1.
</event>
<event>
 7    1  0.2674176E-009  0.1318708E+03  0.7561462E-02  0.1224706E+00
         -3   -1    0    0    0  501 -0.00000000000E+00  0.00000000000E+00  0.79536367418E+02  0.79536367418E+02  0.00000000000E+00 0.  1.
          3   -1    0    0  501    0  0.00000000000E+00 -0.00000000000E+00 -0.36352485906E+03  0.36352485906E+03  0.00000000000E+00 0. -1.
         25    2    1    2    0    0  0.10039193902E+03 -0.47049969510E+02 -0.24166118862E+03  0.29383911404E+03  0.12509617821E+03 0.  0.
          5    1    3    3  502    0 -0.11444330195E+01  0.17081484985E+02 -0.12541551715E+03  0.12664758662E+03  0.41800000000E+01 0. -1.
         -5    1    3    3    0  502  0.10153637204E+03 -0.64131454495E+02 -0.11624567148E+03  0.16719152742E+03  0.41800000000E+01 0. -1.
        -11    1    1    2    0    0  0.66457206061E+01  0.11287472048E+02  0.17208854024E+02  0.21626772400E+02  0.00000000000E+00 0.  1.
         11    1    1    2    0    0 -0.10703765963E+03  0.35762497462E+02 -0.59536157042E+02  0.12759534004E+03  0.00000000000E+00 0. -1.
</event>
<event>
 7    1  0.2666594E-009  0.1339609E+03  0.7561462E-02  0.1221694E+00
          1   -1    0    0  501    0  0.00000000000E+00  0.00000000000E+00  0.38891539844E+03  0.38891539844E+03  0.00000000000E+00 0. -1.
         -1   -1    0    0    0  501 -0.00000000000E+00 -0.00000000000E+00 -0.53987456925E+02  0.53987456925E+02  0.00000000000E+00 0.  1.
         25    2    1    2    0    0  0.91918552479E+02  0.26039078504E+02  0.16149633610E+03  0.22551136514E+03  0.12508898966E+03 0.  0.
          5    1    3    3  502    0  0.10513127401E+02  0.63778586119E+02  0.89024924345E+02  0.11009606464E+03  0.41800000000E+01 0. -1.
         -5    1    3    3    0  502  0.81405425078E+02 -0.37739507615E+02  0.72471411758E+02  0.11541530050E+03  0.41800000000E+01 0. -1.
        -11    1    1    2    0    0 -0.18505034198E+02  0.19538917257E+02  0.40131531617E+01  0.27208656280E+02  0.00000000000E+00 0.  1.
         11    1    1    2    0    0 -0.73413518281E+02 -0.45577995761E+02  0.16941845225E+03  0.19018283395E+03  0.00000000000E+00 0. -1.
</event>
<event>
 7    1  0.3243620E-009  0.3095241E+03  0.7561462E-02  0.1080574E+00
          2   -1    0    0  501    0  0.00000000000E+00  0.00000000000E+00  0.12593865237E+04  0.12593865237E+04  0.00000000000E+00 0. -1.
         -2   -1    0    0    0  501 -0.00000000000E+00 -0.00000000000E+00 -0.80348983724E+02  0.80348983724E+02  0.00000000000E+00 0.  1.
         25    2    1    2    0    0  0.15578294902E+03  0.25489294123E+03  0.58170400910E+03  0.66578299403E+03  0.12509477303E+03 0.  0.
          5    1    3    3  502    0  0.13181920622E+03  0.25459461786E+03  0.57151661725E+03  0.63940866335E+03  0.41800000000E+01 0. -1.
         -5    1    3    3    0  502  0.23963742806E+02  0.29832336470E+00  0.10187391853E+02  0.26374330681E+02  0.41800000000E+01 0. -1.
        -11    1    1    2    0    0 -0.10845520234E+03 -0.10557757953E+03  0.23922828836E+03  0.28308890859E+03  0.00000000000E+00 0. -1.
         11    1    1    2    0    0 -0.47327746686E+02 -0.14931536169E+03  0.35810524247E+03  0.39086360476E+03  0.00000000000E+00 0.  1.
</event>
<event>
 7    1  0.2666594E-009  0.1435654E+03  0.7561462E-02  0.1208610E+00
         -3   -1    0    0    0  501 -0.00000000000E+00  0.00000000000E+00  0.68178815849E+03  0.68178815849E+03  0.00000000000E+00 0.  1.
          3   -1    0    0  501    0  0.00000000000E+00 -0.00000000000E+00 -0.36990124767E+02  0.36990124767E+02  0.00000000000E+00 0. -1.
         25    2    1    2    0    0 -0.10473972946E+03 -0.48660563530E+02  0.37012706540E+03  0.40740258833E+03  0.12507822780E+03 0.  0.
          5    1    3    3  502    0 -0.11341430306E+02 -0.60502384682E+02  0.23289322655E+03  0.24092715490E+03  0.41800000000E+01 0. -1.
         -5    1    3    3    0  502 -0.93398299154E+02  0.11841821152E+02  0.13723383884E+03  0.16647543343E+03  0.41800000000E+01 0. -1.
        -11    1    1    2    0    0  0.17566295607E+02 -0.15121610133E+02  0.12304829989E+03  0.12521230746E+03  0.00000000000E+00 0.  1.
         11    1    1    2    0    0  0.87173433852E+02  0.63782173664E+02  0.15162266844E+03  0.18616338746E+03  0.00000000000E+00 0. -1.
</event>
<event>
 7    1  0.2666594E-009  0.1757082E+03  0.7561462E-02  0.1172023E+00
         -2   -1    0    0    0  501 -0.00000000000E+00  0.00000000000E+00  0.18570574410E+03  0.18570574410E+03  0.00000000000E+00 0.  1.
          2   -1    0    0  501    0  0.00000000000E+00 -0.00000000000E+00 -0.21451560344E+03  0.21451560344E+03  0.00000000000E+00 0. -1.
         25    2    1    2    0    0 -0.10095462672E+03 -0.12859514337E+03 -0.49535552867E+02  0.21172957008E+03  0.12508833795E+03 0.  0.
          5    1    3    3  502    0 -0.64246482285E+02 -0.10433844374E+03 -0.89775760455E+02  0.15195815507E+03  0.41800000000E+01 0.  1.
         -5    1    3    3    0  502 -0.36708144435E+02 -0.24256699636E+02  0.40240207588E+02  0.59771415007E+02  0.41800000000E+01 0.  1.
        -11    1    1    2    0    0  0.27928837347E+01  0.70492247813E+02  0.23589894600E+02  0.74387097863E+02  0.00000000000E+00 0.  1.
         11    1    1    2    0    0  0.98161742986E+02  0.58102895559E+02 -0.28642010667E+01  0.11410467960E+03  0.00000000000E+00 0. -1.
</event>
<event>
 7    1  0.2666594E-009  0.1152088E+03  0.7561462E-02  0.1251217E+00
         -2   -1    0    0    0  501 -0.00000000000E+00  0.00000000000E+00  0.18616097942E+02  0.18616097942E+02  0.00000000000E+00 0.  1.
          2   -1    0    0  501    0  0.00000000000E+00 -0.00000000000E+00 -0.79559390662E+03  0.79559390662E+03  0.00000000000E+00 0. -1.
         25    2    1    2    0    0  0.41998576644E+02  0.36698619141E+02 -0.53019914346E+03  0.54760345180E+03  0.12509092541E+03 0.  0.
          5    1    3    3  502    0  0.28020286429E+02  0.81848844503E+02 -0.39299783137E+03  0.40242904674E+03  0.41800000000E+01 0. -1.
         -5    1    3    3    0  502  0.13978290215E+02 -0.45150225363E+02 -0.13720131209E+03  0.14517440507E+03  0.41800000000E+01 0. -1.
        -11    1    1    2    0    0 -0.60089307926E+02 -0.46315576824E+02 -0.22111083798E+03  0.23376454020E+03  0.00000000000E+00 0. -1.
         11    1    1    2    0    0  0.18090731282E+02  0.96169576836E+01 -0.25667827237E+02  0.32842012552E+02  0.00000000000E+00 0.  1.
</event>
<event>
 7    1  0.2666594E-009  0.2171324E+03  0.7561462E-02  0.1136039E+00
          2   -1    0    0  501    0  0.00000000000E+00  0.00000000000E+00  0.83044129884E+03  0.83044129884E+03  0.00000000000E+00 0. -1.
         -2   -1    0    0    0  501 -0.00000000000E+00 -0.00000000000E+00 -0.66849285280E+02  0.66849285280E+02  0.00000000000E+00 0.  1.
         25    2    1    2    0    0  0.15753749501E+03  0.12669780978E+03  0.49729788173E+03  0.55120126914E+03  0.12508900267E+03 0.  0.
          5    1    3    3  502    0  0.17467100551E+02  0.82931770765E+02  0.12575411741E+03  0.15170480760E+03  0.41800000000E+01 0. -1.
         -5    1    3    3    0  502  0.14007039446E+03  0.43766039011E+02  0.37154376431E+03  0.39949646153E+03  0.41800000000E+01 0. -1.
        -11    1    1    2    0    0 -0.16895779687E+02 -0.86316044601E+01 -0.39314840268E+01  0.19375978258E+02  0.00000000000E+00 0.  1.
         11    1    1    2    0    0 -0.14064171533E+03 -0.11806620532E+03  0.27022561586E+03  0.32671333673E+03  0.00000000000E+00 0. -1.
</event>
<event>
 7    1  0.2666594E-009  0.1565507E+03  0.7561462E-02  0.1192647E+00
         -2   -1    0    0    0  501 -0.00000000000E+00  0.00000000000E+00  0.75734154738E+02  0.75734154738E+02  0.00000000000E+00 0.  1.
          2   -1    0    0  501    0  0.00000000000E+00 -0.00000000000E+00 -0.38069121502E+03  0.38069121502E+03  0.00000000000E+00 0. -1.
         25    2    1    2    0    0 -0.10914021203E+03 -0.39599293432E+02 -0.24085423044E+03  0.29519065101E+03  0.12508824965E+03 0.  0.
          5    1    3    3  502    0 -0.12311494149E+03 -0.63172446235E+02 -0.17085461039E+03  0.21990183509E+03  0.41800000000E+01 0. -1.
         -5    1    3    3    0  502  0.13974729460E+02  0.23573152803E+02 -0.69999620043E+02  0.75288815921E+02  0.41800000000E+01 0. -1.
        -11    1    1    2    0    0  0.10847253180E+03  0.61725082968E+02 -0.47394864474E+02  0.13350112060E+03  0.00000000000E+00 0. -1.
         11    1    1    2    0    0  0.66768023467E+00 -0.22125789537E+02 -0.16707965369E+02  0.27733598149E+02  0.00000000000E+00 0.  1.
</event>
<event>
 7    1  0.2666594E-009  0.1065898E+03  0.7561462E-02  0.1267019E+00
          2   -1    0    0  501    0  0.00000000000E+00  0.00000000000E+00  0.55232434693E+02  0.55232434693E+02  0.00000000000E+00 0. -1.
         -2   -1    0    0    0  501 -0.00000000000E+00 -0.00000000000E+00 -0.30165734688E+03  0.30165734688E+03  0.00000000000E+00 0.  1.
         25    2    1    2    0    0  0.49150770499E+02 -0.14163221462E+02 -0.20187016160E+03  0.24293087671E+03  0.12508978228E+03 0.  0.
          5    1    3    3  502    0 -0.42109771708E+02  0.13174595067E+01 -0.58118108463E+02  0.71903793392E+02  0.41800000000E+01 0.  1.
         -5    1    3    3    0  502  0.91260542207E+02 -0.15480680969E+02 -0.14375205313E+03  0.17102708332E+03  0.41800000000E+01 0.  1.
        -11    1    1    2    0    0 -0.22846958946E+02 -0.23153720731E+02 -0.57883708932E+02  0.66397304738E+02  0.00000000000E+00 0.  1.
         11    1    1    2    0    0 -0.26303811552E+02  0.37316942193E+02  0.13328958337E+02  0.47561600132E+02  0.00000000000E+00 0. -1.
</event>
<event>
 7    1  0.2666594E-009  0.1052309E+03  0.7561462E-02  0.1269665E+00
          1   -1    0    0  501    0  0.00000000000E+00  0.00000000000E+00  0.12540835725E+03  0.12540835725E+03  0.00000000000E+00 0. -1.
         -1   -1    0    0    0  501 -0.00000000000E+00 -0.00000000000E+00 -0.17075512764E+03  0.17075512764E+03  0.00000000000E+00 0.  1.
         25    2    1    2    0    0  0.59310370442E+02  0.25712776030E+02 -0.98716937585E+02  0.17196800083E+03  0.12509633348E+03 0.  0.
          5    1    3    3  502    0  0.14278623989E+02 -0.28839158933E+02 -0.95689949545E+02  0.10104263969E+03  0.41800000000E+01 0.  1.
         -5    1    3    3    0  502  0.45031746453E+02  0.54551934963E+02 -0.30269880393E+01  0.70925361144E+02  0.41800000000E+01 0.  1.
        -11    1    1    2    0    0 -0.74758086763E+02 -0.41129969063E+02  0.26020044097E+02  0.89204756523E+02  0.00000000000E+00 0.  1.
         11    1    1    2    0    0  0.15447716321E+02  0.15417193033E+02  0.27350123090E+02  0.34990727537E+02  0.00000000000E+00 0. -1.
</event>
<event>
 7    1  0.2666594E-009  0.2845823E+03  0.7561462E-02  0.1093212E+00
          1   -1    0    0  501    0  0.00000000000E+00  0.00000000000E+00  0.16227851278E+04  0.16227851278E+04  0.00000000000E+00 0. -1.
         -1   -1    0    0    0  501 -0.00000000000E+00 -0.00000000000E+00 -0.62099391461E+02  0.62099391461E+02  0.00000000000E+00 0.  1.
         25    2    1    2    0    0  0.23272811533E+03  0.13670069857E+03  0.11307813518E+04  0.11692574141E+04  0.12508788235E+03 0.  0.
          5    1    3    3  502    0  0.16065703344E+03  0.13898045409E+03  0.67095176313E+03  0.70378973413E+03  0.41800000000E+01 0.  1.
         -5    1    3    3    0  502  0.72071081886E+02 -0.22797555244E+01  0.45982958867E+03  0.46546768002E+03  0.41800000000E+01 0.  1.
        -11    1    1    2    0    0 -0.15898586439E+03 -0.13827817239E+03  0.30912073867E+03  0.37410291246E+03  0.00000000000E+00 0. -1.
         11    1    1    2    0    0 -0.73742250936E+02  0.15774738224E+01  0.12078364587E+03  0.14152419265E+03  0.00000000000E+00 0.  1.
</event>
<event>
 7    1  0.2666594E-009  0.1205952E+03  0.7561462E-02  0.1242118E+00
         -2   -1    0    0    0  501 -0.00000000000E+00  0.00000000000E+00  0.36575093544E+03  0.36575093544E+03  0.00000000000E+00 0.  1.
          2   -1    0    0  501    0  0.00000000000E+00 -0.00000000000E+00 -0.62486236989E+02  0.62486236989E+02  0.00000000000E+00 0. -1.
         25    2    1    2    0    0 -0.34290358943E+02  0.71083614469E+02  0.26134301546E+03  0.30029393011E+03  0.12509022251E+03 0.  0.
          5    1    3    3  502    0 -0.54600230478E+02 -0.43952258623E+01  0.17652966326E+03  0.18488022498E+03  0.41800000000E+01 0.  1.
         -5    1    3    3    0  502  0.20309871535E+02  0.75478840331E+02  0.84813352202E+02  0.11541370513E+03  0.41800000000E+01 0.  1.
        -11    1    1    2    0    0 -0.18115122171E+02  0.18069654009E+01 -0.13299220574E+02  0.22545333067E+02  0.00000000000E+00 0. -1.
         11    1    1    2    0    0  0.52405481115E+02 -0.72890579869E+02  0.55220903566E+02  0.10539790925E+03  0.00000000000E+00 0.  1.
</event>
<event>
 7    1  0.2666594E-009  0.9365341E+02  0.7561462E-02  0.1294238E+00
          1   -1    0    0  501    0  0.00000000000E+00  0.00000000000E+00  0.87698484953E+03  0.87698484953E+03  0.00000000000E+00 0. -1.
         -1   -1    0    0    0  501 -0.00000000000E+00 -0.00000000000E+00 -0.23788172234E+02  0.23788172234E+02  0.00000000000E+00 0.  1.
         25    2    1    2    0    0 -0.46512976024E+02  0.70663112901E+02  0.60831900210E+03  0.62678158068E+03  0.12508560709E+03 0.  0.
          5    1    3    3  502    0 -0.30761246375E+02  0.52132563756E+02  0.94068538861E+02  0.11193936254E+03  0.41800000000E+01 0. -1.
         -5    1    3    3    0  502 -0.15751729650E+02  0.18530549145E+02  0.51425046324E+03  0.51484221814E+03  0.41800000000E+01 0. -1.
        -11    1    1    2    0    0  0.47173655474E+02 -0.19920931351E+02  0.46310818891E+02  0.69042662340E+02  0.00000000000E+00 0.  1.
         11    1    1    2    0    0 -0.66067944962E+00 -0.50742181550E+02  0.19856685631E+03  0.20494877875E+03  0.00000000000E+00 0. -1.
</event>
<event>
 7    1  0.2666594E-009  0.1027006E+03  0.7561462E-02  0.1274717E+00
         -2   -1    0    0    0  501 -0.00000000000E+00  0.00000000000E+00  0.49958069991E+02  0.49958069991E+02  0.00000000000E+00 0.  1.
          2   -1    0    0  501    0  0.00000000000E+00 -0.00000000000E+00 -0.33808950038E+03  0.33808950038E+03  0.00000000000E+00 0. -1.
         25    2    1    2    0    0  0.14161244613E+02 -0.30947941075E+02 -0.25318975345E+03  0.28444802902E+03  0.12508922437E+03 0.  0.
          5    1    3    3  502    0 -0.46027244423E+02 -0.27792596244E+02 -0.54081511538E+02  0.76375506056E+02  0.41800000000E+01 0.  1.
         -5    1    3    3    0  502  0.60188489036E+02 -0.31553448315E+01 -0.19910824192E+03  0.20807252296E+03  0.41800000000E+01 0.  1.
        -11    1    1    2    0    0 -0.44663540278E+02 -0.37930933655E+01 -0.35791129066E+02  0.57360476874E+02  0.00000000000E+00 0. -1.
         11    1    1    2    0    0  0.30502295664E+02  0.34741034441E+02  0.84945212987E+00  0.46239064477E+02  0.00000000000E+00 0.  1.
</event>
<event>
 7    1  0.2666594E-009  0.1165723E+03  0.7561462E-02  0.1248861E+00
         -2   -1    0    0    0  501 -0.00000000000E+00  0.00000000000E+00  0.38991406003E+02  0.38991406003E+02  0.00000000000E+00 0.  1.
          2   -1    0    0  501    0  0.00000000000E+00 -0.00000000000E+00 -0.51570181160E+03  0.51570181160E+03  0.00000000000E+00 0. -1.
         25    2    1    2    0    0  0.81125755267E+02 -0.30494732430E+02 -0.19712013280E+03  0.24902952057E+03  0.12509212000E+03 0.  0.
          5    1    3    3  502    0  0.82890256795E+02 -0.48871946776E+02 -0.20653447359E+03  0.22788861980E+03  0.41800000000E+01 0. -1.
         -5    1    3    3    0  502 -0.17645015283E+01  0.18377214346E+02  0.94143407921E+01  0.21140900768E+02  0.41800000000E+01 0. -1.
        -11    1    1    2    0    0  0.16334649993E+02  0.27265731430E+01 -0.15051019250E+02  0.22378296896E+02  0.00000000000E+00 0.  1.
         11    1    1    2    0    0 -0.97460405260E+02  0.27768159287E+02 -0.26453925355E+03  0.28328540014E+03  0.00000000000E+00 0. -1.
</event>
<event>
 7    1  0.2666594E-009  0.2799971E+03  0.7561462E-02  0.1095691E+00
         -1   -1    0    0    0  501 -0.00000000000E+00  0.00000000000E+00  0.20959443441E+03  0.20959443441E+03  0.00000000000E+00 0.  1.
          1   -1    0    0  501    0  0.00000000000E+00 -0.00000000000E+00 -0.46921699999E+03  0.46921699999E+03  0.00000000000E+00 0. -1.
         25    2    1    2    0    0 -0.64587026576E+02 -0.25114432303E+03 -0.28321865013E+03  0.40386558979E+03  0.12509858449E+03 0.  0.
          5    1    3    3  502    0  0.36811854389E+02 -0.56772194056E+02 -0.80526401600E+02  0.10526237883E+03  0.41800000000E+01 0.  1.
         -5    1    3    3    0  502 -0.10139888097E+03 -0.19437212897E+03 -0.20269224853E+03  0.29860321096E+03  0.41800000000E+01 0.  1.
        -11    1    1    2    0    0  0.22255637855E+02  0.21809385112E+03  0.28249702157E+02  0.22103910737E+03  0.00000000000E+00 0.  1.
         11    1    1    2    0    0  0.42331388722E+02  0.33050471901E+02 -0.46536176124E+01  0.53906737249E+02  0.00000000000E+00 0. -1.
</event>
<event>
 7    1  0.2666594E-009  0.1182140E+03  0.7561462E-02  0.1246073E+00
          2   -1    0    0  501    0  0.00000000000E+00  0.00000000000E+00  0.22807273820E+03  0.22807273820E+03  0.00000000000E+00 0. -1.
         -2   -1    0    0    0  501 -0.00000000000E+00 -0.00000000000E+00 -0.11335530919E+03  0.11335530919E+03  0.00000000000E+00 0.  1.
         25    2    1    2    0    0  0.88792905864E+02  0.11321313914E+02  0.14466743139E+03  0.21115594923E+03  0.12508323992E+03 0.  0.
          5    1    3    3  502    0  0.94094050139E+02  0.46798691618E+02  0.64876590021E+02  0.12357286167E+03  0.41800000000E+01 0.  1.
         -5    1    3    3    0  502 -0.53011442749E+01 -0.35477377704E+02  0.79790841371E+02  0.87583087558E+02  0.41800000000E+01 0.  1.
        -11    1    1    2    0    0 -0.61892137327E+02 -0.22712922267E+02  0.22977648054E+02  0.69817517937E+02  0.00000000000E+00 0. -1.
         11    1    1    2    0    0 -0.26900768537E+02  0.11391608353E+02 -0.52927650439E+02  0.60454580222E+02  0.00000000000E+00 0.  1.
</event>
<event>
 7    1  0.2666594E-009  0.9559896E+02  0.7561462E-02  0.1289833E+00
          1   -1    0    0  501    0  0.00000000000E+00  0.00000000000E+00  0.14886830874E+03  0.14886830874E+03  0.00000000000E+00 0. -1.
         -1   -1    0    0    0  501 -0.00000000000E+00 -0.00000000000E+00 -0.11735696624E+03  0.11735696624E+03  0.00000000000E+00 0.  1.
         25    2    1    2    0    0  0.11860334992E+02  0.57605205100E+02  0.64942211413E+02  0.15272364344E+03  0.12509193915E+03 0.  0.
          5    1    3    3  502    0  0.37897068986E+02  0.49826844552E+02  0.93810946312E+02  0.11285773489E+03  0.41800000000E+01 0.  1.
         -5    1    3    3    0  502 -0.26036733994E+02  0.77783605484E+01 -0.28868734899E+02  0.39865908551E+02  0.41800000000E+01 0.  1.
        -11    1    1    2    0    0 -0.46982871756E+02 -0.39858982830E+02  0.38937962079E+00  0.61613962437E+02  0.00000000000E+00 0. -1.
         11    1    1    2    0    0  0.35122536764E+02 -0.17746222270E+02 -0.33820248533E+02  0.51887669098E+02  0.00000000000E+00 0.  1.
</event>
<event>
 7    1  0.2666594E-009  0.1123571E+03  0.7561462E-02  0.1256266E+00
         -1   -1    0    0    0  501 -0.00000000000E+00  0.00000000000E+00  0.73685005817E+02  0.73685005817E+02  0.00000000000E+00 0.  1.
          1   -1    0    0  501    0  0.00000000000E+00 -0.00000000000E+00 -0.28259561582E+03  0.28259561582E+03  0.00000000000E+00 0. -1.
         25    2    1    2    0    0 -0.42137298168E+02  0.37952711156E+02 -0.19354428381E+02  0.13870433335E+03  0.12509331721E+03 0.  0.
          5    1    3    3  502    0  0.35843939707E+02  0.41659855091E+02  0.83798129122E+01  0.55749665509E+02  0.41800000000E+01 0.  1.
         -5    1    3    3    0  502 -0.77981237874E+02 -0.37071439346E+01 -0.27734241293E+02  0.82954667841E+02  0.41800000000E+01 0.  1.
        -11    1    1    2    0    0  0.31678226716E+02 -0.59532379430E+02 -0.76390290793E+02  0.10189745225E+03  0.00000000000E+00 0.  1.
         11    1    1    2    0    0  0.10459071451E+02  0.21579668274E+02 -0.11316589083E+03  0.11567883603E+03  0.00000000000E+00 0. -1.
</event>
<event>
 7    1  0.2666594E-009  0.1010772E+03  0.7561462E-02  0.1278047E+00
         -2   -1    0    0    0  501 -0.00000000000E+00  0.00000000000E+00  0.91091309583E+02  0.91091309583E+02  0.00000000000E+00 0.  1.
          2   -1    0    0  501    0  0.00000000000E+00 -0.00000000000E+00 -0.12336665120E+03  0.12336665120E+03  0.00000000000E+00 0. -1.
         25    2    1    2    0    0 -0.19016228139E+02 -0.17290317126E+02 -0.41777069985E+02  0.13436356093E+03  0.12509065085E+03 0.  0.
          5    1    3    3  502    0 -0.69442052241E+02 -0.14364739577E+00 -0.54980035461E+01  0.69784809930E+02  0.41800000000E+01 0.  1.
         -5    1    3    3    0  502  0.50425824102E+02 -0.17146669730E+02 -0.36279066439E+02  0.64578751001E+02  0.41800000000E+01 0.  1.
        -11    1    1    2    0    0  0.47084847935E+02  0.19592494349E+02  0.24256098424E+01  0.51056168314E+02  0.00000000000E+00 0.  1.
         11    1    1    2    0    0 -0.28068619796E+02 -0.23021772229E+01  0.70761185285E+01  0.29038231534E+02  0.00000000000E+00 0. -1.
</event>
<event>
 7    1  0.2666594E-009  0.1291617E+03  0.7561462E-02  0.1228705E+00
          1   -1    0    0  501    0  0.00000000000E+00  0.00000000000E+00  0.14431000914E+03  0.14431000914E+03  0.00000000000E+00 0. -1.
         -1   -1    0    0    0  501 -0.00000000000E+00 -0.00000000000E+00 -0.17711759589E+03  0.17711759589E+03  0.00000000000E+00 0.  1.
         25    2    1    2    0    0 -0.85608271754E+02 -0.74992457761E+02  0.10456439282E+02  0.16943898075E+03  0.12509031202E+03 0.  0.
          5    1    3    3  502    0 -0.57813184359E+02 -0.63974583423E+02  0.64344876577E+02  0.10767008476E+03  0.41800000000E+01 0. -1.
         -5    1    3    3    0  502 -0.27795087394E+02 -0.11017874338E+02 -0.53888437295E+02  0.61768895994E+02  0.41800000000E+01 0. -1.
        -11    1    1    2    0    0  0.87685520494E+02  0.90586033553E+02 -0.48975910943E+02  0.13525243004E+03  0.00000000000E+00 0.  1.
         11    1    1    2    0    0 -0.20772487399E+01 -0.15593575791E+02  0.57118849054E+01  0.16736194235E+02  0.00000000000E+00 0. -1.
</event>
<event>
 7    1  0.2777428E-009  0.9804244E+02  0.7561462E-02  0.1284467E+00
          1   -1    0    0  501    0  0.00000000000E+00  0.00000000000E+00  0.85689861497E+02  0.85689861497E+02  0.00000000000E+00 0. -1.
         -1   -1    0    0    0  501 -0.00000000000E+00 -0.00000000000E+00 -0.18829078729E+03  0.18829078729E+03  0.00000000000E+00 0.  1.
         25    2    1    2    0    0  0.21440479209E+02  0.23094480882E+02  0.50469786208E+01  0.12909848139E+03  0.12509155331E+03 0.  0.
          5    1    3    3  502    0 -0.49587802626E+02 -0.50869023307E+01  0.14262892168E+02  0.52016624627E+02  0.41800000000E+01 0. -1.
         -5    1    3    3    0  502  0.71028281835E+02  0.28181383213E+02 -0.92159135469E+01  0.77081856767E+02  0.41800000000E+01 0. -1.
        -11    1    1    2    0    0  0.21296640940E+02 -0.75655152097E+00 -0.91619726882E+02  0.94065368970E+02  0.00000000000E+00 0.  1.
         11    1    1    2    0    0 -0.42737120149E+02 -0.22337929361E+02 -0.16028177529E+02  0.50816798420E+02  0.00000000000E+00 0. -1.
</event>
<event>
 7    1  0.2666594E-009  0.1140240E+03  0.7561462E-02  0.1253294E+00
         -1   -1    0    0    0  501 -0.00000000000E+00  0.00000000000E+00  0.14733658923E+02  0.14733658923E+02  0.00000000000E+00 0.  1.
          1   -1    0    0  501    0  0.00000000000E+00 -0.00000000000E+00 -0.10028835995E+04  0.10028835995E+04  0.00000000000E+00 0. -1.
         25    2    1    2    0    0  0.38319589898E+02 -0.17971725806E+02 -0.73237157609E+03  0.74418221516E+03  0.12509064713E+03 0.  0.
          5    1    3    3  502    0 -0.45417993351E+02 -0.13671462934E+02 -0.29658855478E+03  0.30038632832E+03  0.41800000000E+01 0. -1.
         -5    1    3    3    0  502  0.83737583249E+02 -0.43002628724E+01 -0.43578302131E+03  0.44379588683E+03  0.41800000000E+01 0. -1.
        -11    1    1    2    0    0 -0.64791681459E+02  0.55622009418E+00 -0.16368528932E+03  0.17604302118E+03  0.00000000000E+00 0.  1.
         11    1    1    2    0    0  0.26472091561E+02  0.17415505712E+02 -0.92093075137E+02  0.97392022050E+02  0.00000000000E+00 0. -1.
</event>
<event>
 7    1  0.2666594E-009  0.1095891E+03  0.7561462E-02  0.1261333E+00
         -2   -1    0    0    0  501 -0.00000000000E+00  0.00000000000E+00  0.18305310784E+02  0.18305310784E+02  0.00000000000E+00 0.  1.
          2   -1    0    0  501    0  0.00000000000E+00 -0.00000000000E+00 -0.95638490788E+03  0.95638490788E+03  0.00000000000E+00 0. -1.
         25    2    1    2    0    0 -0.49568303245E+02  0.25479254531E+02 -0.70967943343E+03  0.72276857745E+03  0.12507321545E+03 0.  0.
          5    1    3    3  502    0 -0.38082661670E+02 -0.35791020875E+02 -0.52900488527E+03  0.53159658326E+03  0.41800000000E+01 0. -1.
         -5    1    3    3    0  502 -0.11485641575E+02  0.61270275405E+02 -0.18067454816E+03  0.19117199419E+03  0.41800000000E+01 0. -1.
        -11    1    1    2    0    0  0.13302796229E+02  0.32932626829E+02 -0.10238051566E+03  0.10836647214E+03  0.00000000000E+00 0.  1.
         11    1    1    2    0    0  0.36265507016E+02 -0.58411881359E+02 -0.12601964801E+03  0.14355516907E+03  0.00000000000E+00 0. -1.
</event>
<event>
 7    1  0.2666594E-009  0.1033606E+03  0.7561462E-02  0.1273384E+00
          2   -1    0    0  501    0  0.00000000000E+00  0.00000000000E+00  0.60121119413E+02  0.60121119413E+02  0.00000000000E+00 0. -1.
         -2   -1    0    0    0  501 -0.00000000000E+00 -0.00000000000E+00 -0.23126821932E+03  0.23126821932E+03  0.00000000000E+00 0.  1.
         25    2    1    2    0    0 -0.19569619653E+01  0.31690743532E+02 -0.51742359043E+02  0.13904146192E+03  0.12508846265E+03 0.  0.
          5    1    3    3  502    0  0.11211190802E+02 -0.46684164871E+02 -0.29110509123E+02  0.56302719209E+02  0.41800000000E+01 0.  1.
         -5    1    3    3    0  502 -0.13168152767E+02  0.78374908403E+02 -0.22631849919E+02  0.82738742710E+02  0.41800000000E+01 0.  1.
        -11    1    1    2    0    0  0.20409018607E+02  0.17198602350E+02 -0.58159758952E+01  0.27315664717E+02  0.00000000000E+00 0. -1.
         11    1    1    2    0    0 -0.18452056642E+02 -0.48889345881E+02 -0.11358876497E+03  0.12503221210E+03  0.00000000000E+00 0.  1.
</event>
<event>
 7    1  0.2666594E-009  0.1671213E+03  0.7561462E-02  0.1180884E+00
          2   -1    0    0  501    0  0.00000000000E+00  0.00000000000E+00  0.82158500893E+02  0.82158500893E+02  0.00000000000E+00 0.  1.
         -2   -1    0    0    0  501 -0.00000000000E+00 -0.00000000000E+00 -0.38520599720E+03  0.38520599720E+03  0.00000000000E+00 0. -1.
         25    2    1    2    0    0 -0.12174645411E+03  0.36434399605E+02 -0.81557167535E+02  0.19607916298E+03  0.12508318039E+03 0.  0.
          5    1    3    3  502    0  0.75695739132E+01 -0.30895769894E+02 -0.99177717972E+01  0.33580971457E+02  0.41800000000E+01 0.  1.
         -5    1    3    3    0  502 -0.12931602802E+03  0.67330169499E+02 -0.71639395737E+02  0.16249819153E+03  0.41800000000E+01 0.  1.
        -11    1    1    2    0    0  0.11226735088E+02  0.26742075266E+02 -0.34446020161E+02  0.45030061906E+02  0.00000000000E+00 0.  1.
         11    1    1    2    0    0  0.11051971902E+03 -0.63176474871E+02 -0.18704430861E+03  0.22625527320E+03  0.00000000000E+00 0. -1.
</event>
<event>
 7    1  0.2666594E-009  0.1293333E+03  0.7561462E-02  0.1228448E+00
         -2   -1    0    0    0  501 -0.00000000000E+00  0.00000000000E+00  0.51918780057E+03  0.51918780057E+03  0.00000000000E+00 0.  1.
          2   -1    0    0  501    0  0.00000000000E+00 -0.00000000000E+00 -0.43135170012E+02  0.43135170012E+02  0.00000000000E+00 0. -1.
         25    2    1    2    0    0  0.69547008302E+02 -0.76103358984E+02  0.26195267032E+03  0.30805048574E+03  0.12508953858E+03 0.  0.
          5    1    3    3  502    0  0.72521889809E+02 -0.10096944884E+03  0.25152956035E+03  0.28060443017E+03  0.41800000000E+01 0. -1.
         -5    1    3    3    0  502 -0.29748815067E+01  0.24866089857E+02  0.10423109967E+02  0.27446055566E+02  0.41800000000E+01 0. -1.
        -11    1    1    2    0    0 -0.18880958420E+02  0.46556404807E+02  0.17900726074E+03  0.18592361017E+03  0.00000000000E+00 0.  1.
         11    1    1    2    0    0 -0.50666049882E+02  0.29546954177E+02  0.35092699497E+02  0.68348874678E+02  0.00000000000E+00 0. -1.
</event>
<event>
 7    1  0.2666594E-009  0.1141558E+03  0.7561462E-02  0.1253062E+00
         -2   -1    0    0    0  501 -0.00000000000E+00  0.00000000000E+00  0.26025701196E+02  0.26025701196E+02  0.00000000000E+00 0.  1.
          2   -1    0    0  501    0  0.00000000000E+00 -0.00000000000E+00 -0.51828787229E+03  0.51828787229E+03  0.00000000000E+00 0. -1.
         25    2    1    2    0    0  0.17273541437E+02  0.39017781875E+02 -0.29360897782E+03  0.32198854232E+03  0.12509846918E+03 0.  0.
          5    1    3    3  502    0  0.68178956612E+02  0.42032552294E+02 -0.16153410519E+03  0.18034923099E+03  0.41800000000E+01 0.  1.
         -5    1    3    3    0  502 -0.50905415175E+02 -0.30147704191E+01 -0.13207487263E+03  0.14163931133E+03  0.41800000000E+01 0.  1.
        -11    1    1    2    0    0  0.18322864462E+02  0.20560543941E+02 -0.82959215958E+02  0.87411068187E+02  0.00000000000E+00 0.  1.
         11    1    1    2    0    0 -0.35596405899E+02 -0.59578325816E+02 -0.11569397731E+03  0.13491396298E+03  0.00000000000E+00 0. -1.
</event>
<event>
 7    1  0.2666594E-009  0.1587804E+03  0.7561462E-02  0.1190081E+00
         -1   -1    0    0    0  501 -0.00000000000E+00  0.00000000000E+00  0.51661280479E+02  0.51661280479E+02  0.00000000000E+00 0.  1.
          1   -1    0    0  501    0  0.00000000000E+00 -0.00000000000E+00 -0.62545292422E+03  0.62545292422E+03  0.00000000000E+00 0. -1.
         25    2    1    2    0    0  0.87414078560E+01  0.13230652521E+03 -0.20755799972E+03  0.27624172913E+03  0.12509093029E+03 0.  0.
          5    1    3    3  502    0 -0.37672350523E+02  0.39741152513E+02 -0.14532921282E+03  0.15535963986E+03  0.41800000000E+01 0. -1.
         -5    1    3    3    0  502  0.46413758379E+02  0.92565372693E+02 -0.62228786902E+02  0.12088208928E+03  0.41800000000E+01 0. -1.
        -11    1    1    2    0    0 -0.26677373533E+02 -0.12253633318E+01 -0.33785118464E+02  0.43065276077E+02  0.00000000000E+00 0.  1.
         11    1    1    2    0    0  0.17935965677E+02 -0.13108116187E+03 -0.33244852555E+03  0.35780719949E+03  0.00000000000E+00 0. -1.
</event>
<event>
 7    1  0.2666594E-009  0.1466097E+03  0.7561462E-02  0.1204702E+00
          2   -1    0    0  501    0  0.00000000000E+00  0.00000000000E+00  0.99407258732E+03  0.99407258732E+03  0.00000000000E+00 0. -1.
         -2   -1    0    0    0  501 -0.00000000000E+00 -0.00000000000E+00 -0.29285002244E+02  0.29285002244E+02  0.00000000000E+00 0.  1.
         25    2    1    2    0    0 -0.11367163346E+03  0.66205926659E+02  0.58184545072E+03  0.60950509909E+03  0.12509145578E+03 0.  0.
          5    1    3    3  502    0 -0.10864112833E+03  0.77870464236E+02  0.31356757184E+03  0.34089411622E+03  0.41800000000E+01 0.  1.
         -5    1    3    3    0  502 -0.50305051348E+01 -0.11664537577E+02  0.26827787888E+03  0.26861098286E+03  0.41800000000E+01 0.  1.
        -11    1    1    2    0    0  0.68638243845E+02 -0.73419764400E+02  0.18309243543E+03  0.20886481330E+03  0.00000000000E+00 0.  1.
         11    1    1    2    0    0  0.45033389616E+02  0.72138377407E+01  0.19984969893E+03  0.20498767718E+03  0.00000000000E+00 0. -1.
</event>
<event>
 7    1  0.2666594E-009  0.7967709E+02  0.7561462E-02  0.1329970E+00
          1   -1    0    0  501    0  0.00000000000E+00  0.00000000000E+00  0.11683153999E+03  0.11683153999E+03  0.00000000000E+00 0. -1.
         -1   -1    0    0    0  501 -0.00000000000E+00 -0.00000000000E+00 -0.13260571713E+03  0.13260571713E+03  0.00000000000E+00 0.  1.
         25    2    1    2    0    0  0.51672793464E+02  0.67451826078E+00  0.22829810416E+02  0.13726261169E+03  0.12509712932E+03 0.  0.
          5    1    3    3  502    0  0.24121693099E+02 -0.39913223649E+02  0.59615193009E+02  0.75804783078E+02  0.41800000000E+01 0. -1.
         -5    1    3    3    0  502  0.27551100365E+02  0.40587741909E+02 -0.36785382594E+02  0.61457828608E+02  0.41800000000E+01 0. -1.
        -11    1    1    2    0    0 -0.45059417019E+02 -0.15023829778E+02 -0.65542957169E+02  0.80944090321E+02  0.00000000000E+00 0.  1.
         11    1    1    2    0    0 -0.66133764451E+01  0.14349311518E+02  0.26938969615E+02  0.31230555117E+02  0.00000000000E+00 0. -1.
</event>
<event>
 7    1  0.2666594E-009  0.1412336E+03  0.7561462E-02  0.1211679E+00
          2   -1    0    0  501    0  0.00000000000E+00  0.00000000000E+00  0.58269926260E+03  0.58269926260E+03  0.00000000000E+00 0. -1.
         -2   -1    0    0    0  501 -0.00000000000E+00 -0.00000000000E+00 -0.47777692542E+02  0.47777692542E+02  0.00000000000E+00 0.  1.
         25    2    1    2    0    0  0.35620361019E+02  0.12347483023E+03  0.29995225682E+03  0.34947723235E+03  0.12509250873E+03 0.  0.
          5    1    3    3  502    0  0.47267116671E+02  0.11461153990E+03  0.30815612422E+03  0.33218617475E+03  0.41800000000E+01 0. -1.
         -5    1    3    3    0  502 -0.11646755652E+02  0.88632903268E+01 -0.82038674038E+01  0.17291057603E+02  0.41800000000E+01 0. -1.
        -11    1    1    2    0    0 -0.46450232349E+02 -0.47426447259E+02  0.16190220821E+03  0.17498347638E+03  0.00000000000E+00 0. -1.
         11    1    1    2    0    0  0.10829871330E+02 -0.76048382968E+02  0.73067105032E+02  0.10601624641E+03  0.00000000000E+00 0.  1.
</event>
<event>
 7    1  0.2666594E-009  0.9511787E+02  0.7561462E-02  0.1290911E+00
         -2   -1    0    0    0  501 -0.00000000000E+00  0.00000000000E+00  0.56347526497E+02  0.56347526497E+02  0.00000000000E+00 0.  1.
          2   -1    0    0  501    0  0.00000000000E+00 -0.00000000000E+00 -0.28904370085E+03  0.28904370085E+03  0.00000000000E+00 0. -1.
         25    2    1    2    0    0 -0.45303548842E+02  0.21896210891E+01 -0.61416726168E+02  0.14654756833E+03  0.12508784734E+03 0.  0.
          5    1    3    3  502    0 -0.29445926645E+02  0.38933834126E+02 -0.86299982268E+02  0.99237419229E+02  0.41800000000E+01 0.  1.
         -5    1    3    3    0  502 -0.15857622196E+02 -0.36744213037E+02  0.24883256101E+02  0.47310149097E+02  0.41800000000E+01 0.  1.
        -11    1    1    2    0    0  0.65008998479E+02  0.23057974469E+02 -0.11649231199E+03  0.13538204764E+03  0.00000000000E+00 0. -1.
         11    1    1    2    0    0 -0.19705449638E+02 -0.25247595558E+02 -0.54787136192E+02  0.63461611380E+02  0.00000000000E+00 0.  1.
</event>
<event>
 7    1  0.2666594E-009  0.2174969E+03  0.7561462E-02  0.1135763E+00
         -2   -1    0    0    0  501 -0.00000000000E+00  0.00000000000E+00  0.85489308200E+02  0.85489308200E+02  0.00000000000E+00 0. -1.
          2   -1    0    0  501    0  0.00000000000E+00 -0.00000000000E+00 -0.18417945490E+04  0.18417945490E+04  0.00000000000E+00 0.  1.
         25    2    1    2    0    0 -0.14724488154E+03 -0.14146035908E+03 -0.16716863723E+04  0.16887504253E+04  0.12510229125E+03 0.  0.
          5    1    3    3  502    0 -0.13047194581E+03 -0.53983656498E+02 -0.12350516858E+04  0.12431038987E+04  0.41800000000E+01 0.  1.
         -5    1    3    3    0  502 -0.16772935732E+02 -0.87476702583E+02 -0.43663468646E+03  0.44564652662E+03  0.41800000000E+01 0.  1.
        -11    1    1    2    0    0  0.84763028219E+01  0.12646581973E+02  0.17674419830E+02  0.23327427236E+02  0.00000000000E+00 0. -1.
         11    1    1    2    0    0  0.13876857872E+03  0.12881377711E+03 -0.10229328835E+03  0.21520600469E+03  0.00000000000E+00 0.  1.
</event>
<event>
 7    1  0.2666594E-009  0.8849309E+02  0.7561462E-02  0.1306542E+00
          1   -1    0    0  501    0  0.00000000000E+00  0.00000000000E+00  0.75603926887E+03  0.75603926887E+03  0.00000000000E+00 0. -1.
         -1   -1    0    0    0  501 -0.00000000000E+00 -0.00000000000E+00 -0.20838402746E+02  0.20838402746E+02  0.00000000000E+00 0.  1.
         25    2    1    2    0    0 -0.39054840409E+02 -0.90933672417E+01  0.67067138260E+03  0.68341504346E+03  0.12509215921E+03 0.  0.
          5    1    3    3  502    0 -0.53826850941E+02 -0.57773874402E+02  0.45205943712E+03  0.45892304097E+03  0.41800000000E+01 0.  1.
         -5    1    3    3    0  502  0.14772010532E+02  0.48680507161E+02  0.21861194548E+03  0.22449200248E+03  0.41800000000E+01 0.  1.
        -11    1    1    2    0    0  0.73617951012E+01  0.12996102542E+02 -0.59568900107E+01  0.16080399466E+02  0.00000000000E+00 0.  1.
         11    1    1    2    0    0  0.31693045308E+02 -0.39027352999E+01  0.70486373538E+02  0.77382228698E+02  0.00000000000E+00 0. -1.
</event>
<event>
 7    1  0.2666594E-009  0.1550250E+03  0.7561462E-02  0.1194431E+00
         -1   -1    0    0    0  501 -0.00000000000E+00  0.00000000000E+00  0.46800735667E+02  0.46800735667E+02  0.00000000000E+00 0.  1.
          1   -1    0    0  501    0  0.00000000000E+00 -0.00000000000E+00 -0.60281676376E+03  0.60281676376E+03  0.00000000000E+00 0. -1.
         25    2    1    2    0    0 -0.12352391705E+03 -0.15623149835E+02 -0.24739501581E+03  0.30389921462E+03  0.12509275722E+03 0.  0.
          5    1    3    3  502    0 -0.11789396465E+02 -0.43621382910E+02 -0.13690825490E+03  0.14423299753E+03  0.41800000000E+01 0. -1.
         -5    1    3    3    0  502 -0.11173452059E+03  0.27998233075E+02 -0.11048676091E+03  0.15966621710E+03  0.41800000000E+01 0. -1.
        -11    1    1    2    0    0  0.12745670197E+01  0.26631270772E+02 -0.24465890074E+02  0.36186031574E+02  0.00000000000E+00 0.  1.
         11    1    1    2    0    0  0.12224935003E+03 -0.11008120936E+02 -0.28415512222E+03  0.30953225323E+03  0.00000000000E+00 0. -1.
</event>
<event>
 7    1  0.2666594E-009  0.1096600E+03  0.7561462E-02  0.1261201E+00
          3   -1    0    0  501    0  0.00000000000E+00  0.00000000000E+00  0.13169003909E+03  0.13169003909E+03  0.00000000000E+00 0. -1.
         -3   -1    0    0    0  501 -0.00000000000E+00 -0.00000000000E+00 -0.15353134546E+03  0.15353134546E+03  0.00000000000E+00 0.  1.
         25    2    1    2    0    0 -0.23073309527E+02  0.83820797144E+02  0.14967918783E+02  0.15307012654E+03  0.12509245141E+03 0.  0.
          5    1    3    3  502    0 -0.14844585776E+02  0.63103516424E+01  0.60466098011E+02  0.62720042039E+02  0.41800000000E+01 0.  1.
         -5    1    3    3    0  502 -0.82287237507E+01  0.77510445501E+02 -0.45498179227E+02  0.90350084501E+02  0.41800000000E+01 0.  1.
        -11    1    1    2    0    0  0.11875760690E+02 -0.10230268013E+03 -0.39644843606E+02  0.11035662952E+03  0.00000000000E+00 0.  1.
         11    1    1    2    0    0  0.11197548838E+02  0.18481882989E+02  0.28356184582E+01  0.21794628486E+02  0.00000000000E+00 0. -1.
</event>
<event>
 7    1  0.2666594E-009  0.1100871E+03  0.7561462E-02  0.1260409E+00
          2   -1    0    0  501    0  0.00000000000E+00  0.00000000000E+00  0.83661217891E+03  0.83661217891E+03  0.00000000000E+00 0. -1.
         -2   -1    0    0    0  501 -0.00000000000E+00 -0.00000000000E+00 -0.14893018199E+02  0.14893018199E+02  0.00000000000E+00 0.  1.
         25    2    1    2    0    0  0.85161704011E+01  0.34108810454E+02  0.51330564494E+03  0.52949701230E+03  0.12509382398E+03 0.  0.
          5    1    3    3  502    0 -0.48275579003E+02  0.51186631073E+02  0.28060793219E+03  0.28932488095E+03  0.41800000000E+01 0. -1.
         -5    1    3    3    0  502  0.56791749404E+02 -0.17077820619E+02  0.23269771275E+03  0.24017213135E+03  0.41800000000E+01 0. -1.
        -11    1    1    2    0    0  0.15774914807E+02 -0.55606528574E+02  0.22996561737E+03  0.23711836523E+03  0.00000000000E+00 0. -1.
         11    1    1    2    0    0 -0.24291085208E+02  0.21497718119E+02  0.78447898400E+02  0.84889819580E+02  0.00000000000E+00 0.  1.
</event>
<event>
 7    1  0.2666594E-009  0.2931286E+03  0.7561462E-02  0.1088727E+00
          1   -1    0    0  501    0  0.00000000000E+00  0.00000000000E+00  0.16875331808E+03  0.16875331808E+03  0.00000000000E+00 0. -1.
         -1   -1    0    0    0  501 -0.00000000000E+00 -0.00000000000E+00 -0.57785185529E+03  0.57785185529E+03  0.00000000000E+00 0.  1.
         25    2    1    2    0    0  0.28162359371E+03  0.71516233415E+02 -0.24817436908E+03  0.40207655515E+03  0.12509443853E+03 0.  0.
          5    1    3    3  502    0  0.25561858697E+03  0.47621727067E+02 -0.25680799658E+03  0.36548120390E+03  0.41800000000E+01 0.  1.
         -5    1    3    3    0  502  0.26005006741E+02  0.23894506348E+02  0.86336274998E+01  0.36595351248E+02  0.41800000000E+01 0.  1.
        -11    1    1    2    0    0 -0.10695476082E+02 -0.41025503599E+01 -0.37615333120E+02  0.39320953877E+02  0.00000000000E+00 0.  1.
         11    1    1    2    0    0 -0.27092811763E+03 -0.67413683055E+02 -0.12330883500E+03  0.30520766435E+03  0.00000000000E+00 0. -1.
</event>
<event>
 7    1  0.2666594E-009  0.6029237E+02  0.7561462E-02  0.1396609E+00
          2   -1    0    0  501    0  0.00000000000E+00  0.00000000000E+00  0.23981955402E+02  0.23981955402E+02  0.00000000000E+00 0. -1.
         -2   -1    0    0    0  501 -0.00000000000E+00 -0.00000000000E+00 -0.49939200463E+03  0.49939200463E+03  0.00000000000E+00 0.  1.
         25    2    1    2    0    0 -0.11802543055E+02  0.13644882395E+02 -0.25562298710E+03  0.28515850728E+03  0.12508708927E+03 0.  0.
          5    1    3    3  502    0 -0.14333643160E+02 -0.78534929596E+01 -0.26173666378E+03  0.26227978238E+03  0.41800000000E+01 0. -1.
         -5    1    3    3    0  502  0.25311001053E+01  0.21498375354E+02  0.61136766775E+01  0.22878724902E+02  0.41800000000E+01 0. -1.
        -11    1    1    2    0    0  0.42748818953E+02  0.85368441237E+01 -0.61305666010E+02  0.75224490124E+02  0.00000000000E+00 0. -1.
         11    1    1    2    0    0 -0.30946275898E+02 -0.22181726519E+02 -0.15848139612E+03  0.16299096263E+03  0.00000000000E+00 0.  1.
</event>
<event>
 7    1  0.2666594E-009  0.1179366E+03  0.7561462E-02  0.1246540E+00
         -2   -1    0    0    0  501 -0.00000000000E+00  0.00000000000E+00  0.12649179663E+03  0.12649179663E+03  0.00000000000E+00 0. -1.
          2   -1    0    0  501    0  0.00000000000E+00 -0.00000000000E+00 -0.13221206972E+03  0.13221206972E+03  0.00000000000E+00 0.  1.
         25    2    1    2    0    0  0.48441982091E+02  0.26001214913E+02  0.35006343940E+02  0.14105843637E+03  0.12509736028E+03 0.  0.
          5    1    3    3  502    0  0.45757141645E+02 -0.39625088151E+02  0.43559176478E+02  0.74690949103E+02  0.41800000000E+01 0. -1.
         -5    1    3    3    0  502  0.26848404462E+01  0.65626303064E+02 -0.85528325373E+01  0.66367487269E+02  0.41800000000E+01 0. -1.
        -11    1    1    2    0    0 -0.23169764193E+02  0.35784541088E+02 -0.23607657835E+02  0.48730820454E+02  0.00000000000E+00 0. -1.
         11    1    1    2    0    0 -0.25272217898E+02 -0.61785756001E+02 -0.17118959196E+02  0.68914609525E+02  0.00000000000E+00 0.  1.
</event>
<event>
 7    1  0.2666594E-009  0.1099003E+03  0.7561462E-02  0.1260755E+00
          2   -1    0    0  501    0  0.00000000000E+00  0.00000000000E+00  0.51856648426E+03  0.51856648426E+03  0.00000000000E+00 0. -1.
         -2   -1    0    0    0  501 -0.00000000000E+00 -0.00000000000E+00 -0.25628644277E+02  0.25628644277E+02  0.00000000000E+00 0.  1.
         25    2    1    2    0    0 -0.25625388610E+02 -0.17952574400E+02  0.32086401591E+03  0.34580262382E+03  0.12508709951E+03 0.  0.
          5    1    3    3  502    0  0.29287347268E+02 -0.50250670514E+02  0.98617084913E+02  0.11456736199E+03  0.41800000000E+01 0.  1.
         -5    1    3    3    0  502 -0.54912735878E+02  0.32298096113E+02  0.22224693100E+03  0.23123526183E+03  0.41800000000E+01 0.  1.
        -11    1    1    2    0    0  0.60781528844E+02  0.12762216171E+02  0.94716455518E+02  0.11326285956E+03  0.00000000000E+00 0.  1.
         11    1    1    2    0    0 -0.35156140234E+02  0.51903582295E+01  0.77357368554E+02  0.85129645156E+02  0.00000000000E+00 0. -1.
</event>
<event>
 7    1  0.2666594E-009  0.1009201E+03  0.7561462E-02  0.1278373E+00
         -1   -1    0    0    0  501 -0.00000000000E+00  0.00000000000E+00  0.61704593327E+02  0.61704593327E+02  0.00000000000E+00 0.  1.
          1   -1    0    0  501    0  0.00000000000E+00 -0.00000000000E+00 -0.22224267786E+03  0.22224267786E+03  0.00000000000E+00 0. -1.
         25    2    1    2    0    0  0.38090629943E+02  0.28033498534E+01 -0.67815767740E+02  0.14732874734E+03  0.12509207241E+03 0.  0.
          5    1    3    3  502    0  0.56034821818E+02  0.35270365177E+02 -0.83662053208E+02  0.10677411420E+03  0.41800000000E+01 0.  1.
         -5    1    3    3    0  502 -0.17944191875E+02 -0.32467015324E+02  0.15846285468E+02  0.40554633141E+02  0.41800000000E+01 0.  1.
        -11    1    1    2    0    0  0.18953886595E+02  0.27634223560E+02 -0.45708157819E+02  0.56675707495E+02  0.00000000000E+00 0. -1.
         11    1    1    2    0    0 -0.57044516538E+02 -0.30437573414E+02 -0.47014158975E+02  0.79942816353E+02  0.00000000000E+00 0.  1.
</event>
<event>
 7    1  0.2666594E-009  0.1049239E+03  0.7561462E-02  0.1270270E+00
         -1   -1    0    0    0  501 -0.00000000000E+00  0.00000000000E+00  0.23962748890E+03  0.23962748890E+03  0.00000000000E+00 0.  1.
          1   -1    0    0  501    0  0.00000000000E+00 -0.00000000000E+00 -0.52261745683E+02  0.52261745683E+02  0.00000000000E+00 0. -1.
         25    2    1    2    0    0  0.10632680061E+01 -0.20390125847E+02  0.13520701798E+03  0.18532456648E+03  0.12508944582E+03 0.  0.
          5    1    3    3  502    0  0.57380885264E+02  0.96004346350E+01  0.89094655942E+02  0.10648973874E+03  0.41800000000E+01 0. -1.
         -5    1    3    3    0  502 -0.56317617258E+02 -0.29990560482E+02  0.46112362043E+02  0.78834827740E+02  0.41800000000E+01 0. -1.
        -11    1    1    2    0    0 -0.30905010526E+02 -0.20404280202E+02  0.40134712369E+02  0.54609975857E+02  0.00000000000E+00 0.  1.
         11    1    1    2    0    0  0.29841742520E+02  0.40794406048E+02  0.12024012865E+02  0.51954692251E+02  0.00000000000E+00 0. -1.
</event>
<event>
 7    1  0.2666594E-009  0.1398316E+03  0.7561462E-02  0.1213556E+00
         -1   -1    0    0    0  501 -0.00000000000E+00  0.00000000000E+00  0.17099937012E+02  0.17099937012E+02  0.00000000000E+00 0.  1.
          1   -1    0    0  501    0  0.00000000000E+00 -0.00000000000E+00 -0.11732578604E+04  0.11732578604E+04  0.00000000000E+00 0. -1.
         25    2    1    2    0    0 -0.16753956073E+02 -0.89229454063E+02 -0.62578969418E+03  0.64459479924E+03  0.12508846212E+03 0.  0.
          5    1    3    3  502    0 -0.15906488546E+02 -0.12116524848E+03 -0.50285383601E+03  0.51750699185E+03  0.41800000000E+01 0.  1.
         -5    1    3    3    0  502 -0.84746752751E+00  0.31935794417E+02 -0.12293585816E+03  0.12708780740E+03  0.41800000000E+01 0.  1.
        -11    1    1    2    0    0 -0.29041005899E+02  0.69461809180E+02 -0.25374516992E+03  0.26467892666E+03  0.00000000000E+00 0.  1.
         11    1    1    2    0    0  0.45794961973E+02  0.19767644883E+02 -0.27662305925E+03  0.28108407147E+03  0.00000000000E+00 0. -1.
</event>
<event>
 7    1  0.2666594E-009  0.9690975E+02  0.7561462E-02  0.1286932E+00
          1   -1    0    0  501    0  0.00000000000E+00  0.00000000000E+00  0.86595985145E+02  0.86595985145E+02  0.00000000000E+00 0. -1.
         -1   -1    0    0    0  501 -0.00000000000E+00 -0.00000000000E+00 -0.19139399795E+03  0.19139399795E+03  0.00000000000E+00 0.  1.
         25    2    1    2    0    0  0.27538341262E+01  0.50961758022E+02 -0.11020962301E+03  0.17435040713E+03  0.12508884475E+03 0.  0.
          5    1    3    3  502    0  0.11135834845E+02 -0.39886769258E+02 -0.20758236450E+02  0.46511697024E+02  0.41800000000E+01 0.  1.
         -5    1    3    3    0  502 -0.83820007184E+01  0.90848527279E+02 -0.89451386556E+02  0.12783871011E+03  0.41800000000E+01 0.  1.
        -11    1    1    2    0    0 -0.14863451669E+02 -0.44956820691E+02 -0.36382748710E+02  0.59713836971E+02  0.00000000000E+00 0.  1.
         11    1    1    2    0    0  0.12109617543E+02 -0.60049373308E+01  0.41794358910E+02  0.43925738993E+02  0.00000000000E+00 0. -1.
</event>
<event>
 7    1  0.2666594E-009  0.9264096E+02  0.7561462E-02  0.1296579E+00
         -1   -1    0    0    0  501 -0.00000000000E+00  0.00000000000E+00  0.21563239122E+03  0.21563239122E+03  0.00000000000E+00 0.  1.
          1   -1    0    0  501    0  0.00000000000E+00 -0.00000000000E+00 -0.86220821636E+02  0.86220821636E+02  0.00000000000E+00 0. -1.
         25    2    1    2    0    0 -0.13718367712E+02 -0.50312001394E+02  0.14234924064E+03  0.19654489999E+03  0.12508836999E+03 0.  0.
          5    1    3    3  502    0  0.12761193546E+02 -0.68229068505E+02  0.14826574011E+03  0.16376280390E+03  0.41800000000E+01 0. -1.
         -5    1    3    3    0  502 -0.26479561258E+02  0.17917067111E+02 -0.59164994754E+01  0.32782096094E+02  0.41800000000E+01 0. -1.
        -11    1    1    2    0    0  0.25458454183E+02  0.61945158683E+02 -0.36695686399E+02  0.76366936393E+02  0.00000000000E+00 0.  1.
         11    1    1    2    0    0 -0.11740086471E+02 -0.11633157289E+02  0.23758015353E+02  0.28941376476E+02  0.00000000000E+00 0. -1.
</event>
<event>
 7    1  0.2666594E-009  0.3517143E+03  0.7561462E-02  0.1061914E+00
          2   -1    0    0  501    0  0.00000000000E+00  0.00000000000E+00  0.43968191075E+03  0.43968191075E+03  0.00000000000E+00 0. -1.
         -2   -1    0    0    0  501 -0.00000000000E+00 -0.00000000000E+00 -0.33086855884E+03  0.33086855884E+03  0.00000000000E+00 0.  1.
         25    2    1    2    0    0  0.34877272005E+03  0.41266069778E+02  0.15567955250E+03  0.40401604107E+03  0.12509012595E+03 0.  0.
          5    1    3    3  502    0  0.11631953743E+03  0.25462469487E+02  0.11849793684E+03  0.16804108300E+03  0.41800000000E+01 0.  1.
         -5    1    3    3    0  502  0.23245318262E+03  0.15803600291E+02  0.37181615655E+02  0.23597495807E+03  0.41800000000E+01 0.  1.
        -11    1    1    2    0    0 -0.93895576110E+02 -0.84977639128E+01 -0.55522718159E+02  0.10941372600E+03  0.00000000000E+00 0.  1.
         11    1    1    2    0    0 -0.25487714394E+03 -0.32768305866E+02  0.86565175765E+01  0.25712070253E+03  0.00000000000E+00 0. -1.
</event>
<event>
 7    1  0.2666594E-009  0.1100015E+03  0.7561462E-02  0.1260567E+00
          4   -1    0    0  501    0  0.00000000000E+00  0.00000000000E+00  0.29871929846E+03  0.29871929846E+03  0.00000000000E+00 0.  1.
         -4   -1    0    0    0  501 -0.00000000000E+00 -0.00000000000E+00 -0.44227396534E+02  0.44227396534E+02  0.00000000000E+00 0. -1.
         25    2    1    2    0    0 -0.17827761747E+02  0.27189332021E+02  0.17857720023E+03  0.22044201707E+03  0.12509107716E+03 0.  0.
          5    1    3    3  502    0 -0.14506997287E+02  0.75787925619E+02  0.13176403094E+03  0.15275305198E+03  0.41800000000E+01 0. -1.
         -5    1    3    3    0  502 -0.33207644600E+01 -0.48598593598E+02  0.46813169288E+02  0.67688965091E+02  0.41800000000E+01 0. -1.
        -11    1    1    2    0    0  0.31195370793E+02  0.24989959008E+02  0.45817441410E+02  0.60802032429E+02  0.00000000000E+00 0.  1.
         11    1    1    2    0    0 -0.13367609046E+02 -0.52179291029E+02  0.30097260285E+02  0.61702645491E+02  0.00000000000E+00 0. -1.
</event>
<event>
 7    1  0.2666594E-009  0.1368009E+03  0.7561462E-02  0.1217700E+00
          2   -1    0    0  501    0  0.00000000000E+00  0.00000000000E+00  0.22069974580E+03  0.22069974580E+03  0.00000000000E+00 0. -1.
         -2   -1    0    0    0  501 -0.00000000000E+00 -0.00000000000E+00 -0.14004488225E+03  0.14004488225E+03  0.00000000000E+00 0.  1.
         25    2    1    2    0    0  0.84593238372E+02  0.70781998554E+02 -0.43193407028E+02  0.17228162658E+03  0.12509668720E+03 0.  0.
          5    1    3    3  502    0 -0.19305352577E+02  0.24103510258E+02  0.24566449794E+02  0.39681969462E+02  0.41800000000E+01 0.  1.
         -5    1    3    3    0  502  0.10389859095E+03  0.46678488296E+02 -0.67759856822E+02  0.13259965712E+03  0.41800000000E+01 0.  1.
        -11    1    1    2    0    0  0.80720460513E+01 -0.22637051715E+02  0.63402069449E+02  0.67804250960E+02  0.00000000000E+00 0. -1.
         11    1    1    2    0    0 -0.92665284423E+02 -0.48144946840E+02  0.60446201134E+02  0.12065875051E+03  0.00000000000E+00 0.  1.
</event>
<event>
 7    1  0.2666594E-009  0.7274714E+02  0.7561462E-02  0.1350993E+00
          2   -1    0    0  501    0  0.00000000000E+00  0.00000000000E+00  0.37616513981E+03  0.37616513981E+03  0.00000000000E+00 0. -1.
         -2   -1    0    0    0  501 -0.00000000000E+00 -0.00000000000E+00 -0.54361945027E+02  0.54361945027E+02  0.00000000000E+00 0.  1.
         25    2    1    2    0    0 -0.28855894327E+02 -0.16087935063E+02  0.30642830095E+03  0.33262095439E+03  0.12508761484E+03 0.  0.
          5    1    3    3  502    0  0.47093866883E+01  0.40950043059E+02  0.38327157301E+02  0.56440479590E+02  0.41800000000E+01 0. -1.
         -5    1    3    3    0  502 -0.33565281016E+02 -0.57037978121E+02  0.26810114365E+03  0.27618047480E+03  0.41800000000E+01 0. -1.
        -11    1    1    2    0    0  0.11682045105E+02 -0.30121342960E+01 -0.37354002061E+02  0.39253848229E+02  0.00000000000E+00 0.  1.
         11    1    1    2    0    0  0.17173849222E+02  0.19100069358E+02  0.52728895894E+02  0.58652282213E+02  0.00000000000E+00 0. -1.
</event>
<event>
 7    1  0.2666594E-009  0.7993303E+02  0.7561462E-02  0.1329242E+00
         -1   -1    0    0    0  501 -0.00000000000E+00  0.00000000000E+00  0.14790324703E+03  0.14790324703E+03  0.00000000000E+00 0.  1.
          1   -1    0    0  501    0  0.00000000000E+00 -0.00000000000E+00 -0.11093932132E+03  0.11093932132E+03  0.00000000000E+00 0. -1.
         25    2    1    2    0    0 -0.80848251971E+00 -0.50625047514E+02 -0.22906874781E+02  0.13687959204E+03  0.12509096180E+03 0.  0.
          5    1    3    3  502    0 -0.12643186618E+02  0.21056801618E+02 -0.52662807844E+02  0.58258757215E+02  0.41800000000E+01 0.  1.
         -5    1    3    3    0  502  0.11834704098E+02 -0.71681849132E+02  0.29755933063E+02  0.78620834824E+02  0.41800000000E+01 0.  1.
        -11    1    1    2    0    0 -0.14813447295E+02  0.41553021040E+02  0.82170880820E+02  0.93263848478E+02  0.00000000000E+00 0.  1.
         11    1    1    2    0    0  0.15621929815E+02  0.90720264742E+01 -0.22300080328E+02  0.28699127829E+02  0.00000000000E+00 0. -1.
</event>
<event>
 7    1  0.2666594E-009  0.1139496E+03  0.7561462E-02  0.1253426E+00
          1   -1    0    0  501    0  0.00000000000E+00  0.00000000000E+00  0.10733959573E+04  0.10733959573E+04  0.00000000000E+00 0.  1.
         -1   -1    0    0    0  501 -0.00000000000E+00 -0.00000000000E+00 -0.39731251239E+02  0.39731251239E+02  0.00000000000E+00 0. -1.
         25    2    1    2    0    0  0.53560793334E+02  0.82306617703E+02  0.92935870920E+03  0.94286756717E+03  0.12509396851E+03 0.  0.
          5    1    3    3  502    0  0.66890944675E+02  0.30896116597E+02  0.23151092843E+03  0.24298919910E+03  0.41800000000E+01 0. -1.
         -5    1    3    3    0  502 -0.13330151342E+02  0.51410501106E+02  0.69784778077E+03  0.69987836806E+03  0.41800000000E+01 0. -1.
        -11    1    1    2    0    0 -0.42164608789E+01 -0.24326746983E+02 -0.14883700119E+02  0.28828695606E+02  0.00000000000E+00 0. -1.
         11    1    1    2    0    0 -0.49344332455E+02 -0.57979870720E+02  0.11918969701E+03  0.14143094579E+03  0.00000000000E+00 0.  1.
</event>
<event>
 7    1  0.2666594E-009  0.8493217E+02  0.7561462E-02  0.1315610E+00
          1   -1    0    0  501    0  0.00000000000E+00  0.00000000000E+00  0.26374044281E+03  0.26374044281E+03  0.00000000000E+00 0. -1.
         -1   -1    0    0    0  501 -0.00000000000E+00 -0.00000000000E+00 -0.64023890705E+02  0.64023890705E+02  0.00000000000E+00 0.  1.
         25    2    1    2    0    0  0.48365371730E+02  0.11639947966E+02  0.16579560049E+03  0.21356476414E+03  0.12508808805E+03 0.  0.
          5    1    3    3  502    0 -0.27149281572E+02 -0.16706940247E+02  0.35744885771E+01  0.32348952238E+02  0.41800000000E+01 0.  1.
         -5    1    3    3    0  502  0.75514653302E+02  0.28346888212E+02  0.16222111191E+03  0.18121581191E+03  0.41800000000E+01 0.  1.
        -11    1    1    2    0    0 -0.33762197554E+02  0.57380707525E+01  0.66320000853E+02  0.74640163135E+02  0.00000000000E+00 0. -1.
         11    1    1    2    0    0 -0.14603174176E+02 -0.17378018718E+02 -0.32399049235E+02  0.39559406238E+02  0.00000000000E+00 0.  1.
</event>
<event>
 7    1  0.2666594E-009  0.1102784E+03  0.7561462E-02  0.1260055E+00
          2   -1    0    0  501    0  0.00000000000E+00  0.00000000000E+00  0.46002031339E+03  0.46002031339E+03  0.00000000000E+00 0. -1.
         -2   -1    0    0    0  501 -0.00000000000E+00 -0.00000000000E+00 -0.28706427037E+02  0.28706427037E+02  0.00000000000E+00 0.  1.
         25    2    1    2    0    0  0.32981348416E+02  0.42616986175E+01  0.20585538433E+03  0.24316630589E+03  0.12508989425E+03 0.  0.
          5    1    3    3  502    0  0.57959073620E+02 -0.41572400328E+02  0.15249614454E+03  0.16840446901E+03  0.41800000000E+01 0. -1.
         -5    1    3    3    0  502 -0.24977725204E+02  0.45834098945E+02  0.53359239791E+02  0.74761836879E+02  0.41800000000E+01 0. -1.
        -11    1    1    2    0    0 -0.22162014848E+01 -0.45354709606E+02  0.92737330338E+02  0.10325780198E+03  0.00000000000E+00 0.  1.
         11    1    1    2    0    0 -0.30765146931E+02  0.41093010989E+02  0.13272117169E+03  0.14230263256E+03  0.00000000000E+00 0. -1.
</event>
<event>
 7    1  0.2666594E-009  0.2536399E+03  0.7561462E-02  0.1111026E+00
          1   -1    0    0  501    0  0.00000000000E+00  0.00000000000E+00  0.70065062202E+03  0.70065062202E+03  0.00000000000E+00 0. -1.
         -1   -1    0    0    0  501 -0.00000000000E+00 -0.00000000000E+00 -0.96910808060E+02  0.96910808060E+02  0.00000000000E+00 0.  1.
         25    2    1    2    0    0 -0.21011267851E+03  0.10741608155E+03  0.33513648910E+03  0.42854393013E+03  0.12509149242E+03 0.  0.
          5    1    3    3  502    0 -0.50365246937E+02  0.76844438712E+02  0.63006630058E+02  0.11148557616E+03  0.41800000000E+01 0.  1.
         -5    1    3    3    0  502 -0.15974743157E+03  0.30571642841E+02  0.27212985904E+03  0.31705835397E+03  0.41800000000E+01 0.  1.
        -11    1    1    2    0    0  0.37494091786E+02  0.15629488698E+02  0.51396886024E+02  0.65511279401E+02  0.00000000000E+00 0.  1.
         11    1    1    2    0    0  0.17261858673E+03 -0.12304557025E+03  0.21720643884E+03  0.30350622055E+03  0.00000000000E+00 0. -1.
</event>
<event>
 7    1  0.2666594E-009  0.1085072E+03  0.7561462E-02  0.1263360E+00
          2   -1    0    0  501    0  0.00000000000E+00  0.00000000000E+00  0.58407832633E+03  0.58407832633E+03  0.00000000000E+00 0. -1.
         -2   -1    0    0    0  501 -0.00000000000E+00 -0.00000000000E+00 -0.25000799410E+02  0.25000799410E+02  0.00000000000E+00 0.  1.
         25    2    1    2    0    0 -0.19807695448E+01  0.51042683216E+02  0.36065541004E+03  0.38513541669E+03  0.12509070885E+03 0.  0.
          5    1    3    3  502    0  0.43575016251E+02 -0.25066895496E+01  0.25106457673E+03  0.25486459076E+03  0.41800000000E+01 0.  1.
         -5    1    3    3    0  502 -0.45555785796E+02  0.53549372765E+02  0.10959083331E+03  0.13027082593E+03  0.41800000000E+01 0.  1.
        -11    1    1    2    0    0 -0.35055887673E+02 -0.55281404622E+02  0.14140608180E+03  0.15582242755E+03  0.00000000000E+00 0. -1.
         11    1    1    2    0    0  0.37036657218E+02  0.42387214058E+01  0.57016035075E+02  0.68121281497E+02  0.00000000000E+00 0.  1.
</event>
<event>
 7    1  0.2666594E-009  0.7653097E+02  0.7561462E-02  0.1339195E+00
         -1   -1    0    0    0  501 -0.00000000000E+00  0.00000000000E+00  0.47108470203E+02  0.47108470203E+02  0.00000000000E+00 0.  1.
          1   -1    0    0  501    0  0.00000000000E+00 -0.00000000000E+00 -0.53316889835E+03  0.53316889835E+03  0.00000000000E+00 0. -1.
         25    2    1    2    0    0 -0.44938616524E+01 -0.29558291435E+02 -0.46408978006E+03  0.48158059423E+03  0.12508659958E+03 0.  0.
          5    1    3    3  502    0  0.10817242820E+02 -0.37402296620E+02 -0.36209698155E+02  0.53334408922E+02  0.41800000000E+01 0. -1.
         -5    1    3    3    0  502 -0.15311104472E+02  0.78440051843E+01 -0.42788008190E+03  0.42824618530E+03  0.41800000000E+01 0. -1.
        -11    1    1    2    0    0  0.47260569916E+02  0.67795544781E+01 -0.11939708689E+02  0.49214636759E+02  0.00000000000E+00 0.  1.
         11    1    1    2    0    0 -0.42766708264E+02  0.22778736957E+02 -0.10030939400E+02  0.49482137568E+02  0.00000000000E+00 0. -1.
</event>
<event>
 7    1  0.2666594E-009  0.6510317E+02  0.7561462E-02  0.1377584E+00
          1   -1    0    0  501    0  0.00000000000E+00  0.00000000000E+00  0.11524465608E+03  0.11524465608E+03  0.00000000000E+00 0. -1.
         -1   -1    0    0    0  501 -0.00000000000E+00 -0.00000000000E+00 -0.14706965083E+03  0.14706965083E+03  0.00000000000E+00 0.  1.
         25    2    1    2    0    0  0.13862885787E+02  0.19963757195E+02  0.50845125618E+02  0.13720113193E+03  0.12509273600E+03 0.  0.
          5    1    3    3  502    0 -0.26055143677E+02  0.62206522548E+01 -0.33315185876E+02  0.42952776819E+02  0.41800000000E+01 0.  1.
         -5    1    3    3    0  502  0.39918029464E+02  0.13743104941E+02  0.84160311494E+02  0.94248355108E+02  0.41800000000E+01 0.  1.
        -11    1    1    2    0    0  0.18877168118E+02  0.49663545517E+01  0.11281047113E+02  0.22544936852E+02  0.00000000000E+00 0. -1.
         11    1    1    2    0    0 -0.32740053905E+02 -0.24930111747E+02 -0.93951167486E+02  0.10256823813E+03  0.00000000000E+00 0.  1.
</event>
<event>
 7    1  0.2666594E-009  0.1078069E+03  0.7561462E-02  0.1264686E+00
         -2   -1    0    0    0  501 -0.00000000000E+00  0.00000000000E+00  0.10481879583E+02  0.10481879583E+02  0.00000000000E+00 0.  1.
          2   -1    0    0  501    0  0.00000000000E+00 -0.00000000000E+00 -0.17468370680E+04  0.17468370680E+04  0.00000000000E+00 0. -1.
         25    2    1    2    0    0  0.51414623211E+02 -0.73353694310E+01 -0.13893064939E+04  0.13958927269E+04  0.12508676902E+03 0.  0.
          5    1    3    3  502    0  0.85697117910E+02 -0.14117124390E+02 -0.12126969631E+04  0.12158103002E+04  0.41800000000E+01 0. -1.
         -5    1    3    3    0  502 -0.34282494699E+02  0.67817549594E+01 -0.17660953079E+03  0.18008242670E+03  0.41800000000E+01 0. -1.
        -11    1    1    2    0    0 -0.26101857263E+02  0.42657501648E+02 -0.25200624828E+03  0.25692045184E+03  0.00000000000E+00 0.  1.
         11    1    1    2    0    0 -0.25312765947E+02 -0.35322132217E+02 -0.95042446259E+02  0.10450576891E+03  0.00000000000E+00 0. -1.
</event>
<event>
 7    1  0.2666594E-009  0.1357594E+03  0.7561462E-02  0.1219152E+00
         -3   -1    0    0    0  501 -0.00000000000E+00  0.00000000000E+00  0.15700868799E+02  0.15700868799E+02  0.00000000000E+00 0.  1.
          3   -1    0    0  501    0  0.00000000000E+00 -0.00000000000E+00 -0.18435996376E+04  0.18435996376E+04  0.00000000000E+00 0. -1.
         25    2    1    2    0    0 -0.11183652647E+03 -0.13567150874E+02 -0.12419715814E+04  0.12533297885E+04  0.12510265219E+03 0.  0.
          5    1    3    3  502    0 -0.10266114247E+03 -0.34701662531E+01 -0.12311153977E+04  0.12354003185E+04  0.41800000000E+01 0.  1.
         -5    1    3    3    0  502 -0.91753839935E+01 -0.10096984621E+02 -0.10856183744E+02  0.17929470024E+02  0.41800000000E+01 0.  1.
        -11    1    1    2    0    0  0.34615296951E+02  0.56373370712E+02 -0.26277909584E+03  0.27097791223E+03  0.00000000000E+00 0.  1.
         11    1    1    2    0    0  0.77221229516E+02 -0.42806219838E+02 -0.32314809157E+03  0.33499280563E+03  0.00000000000E+00 0. -1.
</event>
<event>
 7    1  0.2666594E-009  0.1454563E+03  0.7561462E-02  0.1206170E+00
          3   -1    0    0  501    0  0.00000000000E+00  0.00000000000E+00  0.71919597016E+03  0.71919597016E+03  0.00000000000E+00 0. -1.
         -3   -1    0    0    0  501 -0.00000000000E+00 -0.00000000000E+00 -0.40680998378E+02  0.40680998378E+02  0.00000000000E+00 0.  1.
         25    2    1    2    0    0 -0.18285560932E+02 -0.12713926411E+03  0.30632489884E+03  0.35493818475E+03  0.12508963638E+03 0.  0.
          5    1    3    3  502    0 -0.36755584164E+02 -0.76873322491E+02  0.28440242805E+03  0.29692203381E+03  0.41800000000E+01 0. -1.
         -5    1    3    3    0  502  0.18470023232E+02 -0.50265941619E+02  0.21922470786E+02  0.58016150945E+02  0.41800000000E+01 0. -1.
        -11    1    1    2    0    0  0.38059996804E+02  0.20109946894E+02  0.16943099413E+03  0.17481371540E+03  0.00000000000E+00 0.  1.
         11    1    1    2    0    0 -0.19774435873E+02  0.10702931722E+03  0.20275907881E+03  0.23012506839E+03  0.00000000000E+00 0. -1.
</event>
<event>
 7    1  0.2666594E-009  0.1519163E+03  0.7561462E-02  0.1198138E+00
         -1   -1    0    0    0  501 -0.00000000000E+00  0.00000000000E+00  0.26210451139E+03  0.26210451139E+03  0.00000000000E+00 0.  1.
          1   -1    0    0  501    0  0.00000000000E+00 -0.00000000000E+00 -0.13201809799E+03  0.13201809799E+03  0.00000000000E+00 0. -1.
         25    2    1    2    0    0  0.12008949103E+03  0.66257087104E+01  0.87216483831E+01  0.17374640293E+03  0.12508540886E+03 0.  0.
          5    1    3    3  502    0  0.10487792215E+03 -0.32424310020E+01 -0.46963551315E+02  0.11503451423E+03  0.41800000000E+01 0.  1.
         -5    1    3    3    0  502  0.15211568877E+02  0.98681397124E+01  0.55685199698E+02  0.58711888698E+02  0.41800000000E+01 0.  1.
        -11    1    1    2    0    0 -0.13076341601E+03 -0.46615545642E+02  0.11090509621E+03  0.17768517222E+03  0.00000000000E+00 0.  1.
         11    1    1    2    0    0  0.10673924980E+02  0.39989836932E+02  0.10459668814E+02  0.42691034235E+02  0.00000000000E+00 0. -1.
</event>
<event>
 7    1  0.2666594E-009  0.7088404E+02  0.7561462E-02  0.1357112E+00
          2   -1    0    0  501    0  0.00000000000E+00  0.00000000000E+00  0.36950728404E+03  0.36950728404E+03  0.00000000000E+00 0. -1.
         -2   -1    0    0    0  501 -0.00000000000E+00 -0.00000000000E+00 -0.49972646240E+02  0.49972646240E+02  0.00000000000E+00 0.  1.
         25    2    1    2    0    0  0.49570355816E+02 -0.24331774962E+01  0.27335089773E+03  0.30468246702E+03  0.12509017503E+03 0.  0.
          5    1    3    3  502    0  0.22788515063E+02 -0.34214123991E+02  0.16558363566E+02  0.44514879571E+02  0.41800000000E+01 0. -1.
         -5    1    3    3    0  502  0.26781840753E+02  0.31780946495E+02  0.25679253417E+03  0.26016758745E+03  0.41800000000E+01 0. -1.
        -11    1    1    2    0    0 -0.12365875923E+02 -0.13408607849E+02  0.66914700435E+02  0.69356202218E+02  0.00000000000E+00 0. -1.
         11    1    1    2    0    0 -0.37204479893E+02  0.15841785346E+02 -0.20730960371E+02  0.45441261040E+02  0.00000000000E+00 0.  1.
</event>
<event>
 7    1  0.2666594E-009  0.1493534E+03  0.7561462E-02  0.1201270E+00
         -1   -1    0    0    0  501 -0.00000000000E+00  0.00000000000E+00  0.19442824166E+02  0.19442824166E+02  0.00000000000E+00 0.  1.
          1   -1    0    0  501    0  0.00000000000E+00 -0.00000000000E+00 -0.14886127959E+04  0.14886127959E+04  0.00000000000E+00 0. -1.
         25    2    1    2    0    0  0.95619719288E+02 -0.50784891343E+02 -0.11179853094E+04  0.11301599307E+04  0.12509229037E+03 0.  0.
          5    1    3    3  502    0  0.24541620334E+02  0.41783961934E+02 -0.33623828581E+03  0.33973791053E+03  0.41800000000E+01 0.  1.
         -5    1    3    3    0  502  0.71078098955E+02 -0.92568853277E+02 -0.78174702357E+03  0.79042202019E+03  0.41800000000E+01 0.  1.
        -11    1    1    2    0    0 -0.42825532105E+02  0.65698687898E+02 -0.14872882471E+03  0.16813865437E+03  0.00000000000E+00 0.  1.
         11    1    1    2    0    0 -0.52794187183E+02 -0.14913796555E+02 -0.20245583761E+03  0.20975703494E+03  0.00000000000E+00 0. -1.
</event>
<event>
 7    1  0.2666594E-009  0.1237635E+03  0.7561462E-02  0.1237014E+00
          1   -1    0    0  501    0  0.00000000000E+00  0.00000000000E+00  0.16466600596E+04  0.16466600596E+04  0.00000000000E+00 0. -1.
         -1   -1    0    0    0  501 -0.00000000000E+00 -0.00000000000E+00 -0.20380005174E+02  0.20380005174E+02  0.00000000000E+00 0.  1.
         25    2    1    2    0    0 -0.97937961775E+02 -0.53433319824E+02  0.10204329305E+04  0.10341068631E+04  0.12508666831E+03 0.  0.
          5    1    3    3  502    0 -0.49107111691E+02 -0.17327601439E+02  0.11143649593E+03  0.12307444583E+03  0.41800000000E+01 0. -1.
         -5    1    3    3    0  502 -0.48830850084E+02 -0.36105718385E+02  0.90899643457E+03  0.91103241725E+03  0.41800000000E+01 0. -1.
        -11    1    1    2    0    0  0.16238251591E+02 -0.19163370950E+02  0.98217497675E+01  0.26970027241E+02  0.00000000000E+00 0.  1.
         11    1    1    2    0    0  0.81699710184E+02  0.72596690774E+02  0.59602537414E+03  0.60596317444E+03  0.00000000000E+00 0. -1.
</event>
<event>
 7    1  0.2666594E-009  0.1238473E+03  0.7561462E-02  0.1236882E+00
         -1   -1    0    0    0  501 -0.00000000000E+00  0.00000000000E+00  0.24714543710E+03  0.24714543710E+03  0.00000000000E+00 0.  1.
          1   -1    0    0  501    0  0.00000000000E+00 -0.00000000000E+00 -0.91127711089E+02  0.91127711089E+02  0.00000000000E+00 0. -1.
         25    2    1    2    0    0  0.32718977638E+02 -0.83390391881E+02  0.14391130131E+03  0.21067113098E+03  0.12508946331E+03 0.  0.
          5    1    3    3  502    0  0.39947092409E+02  0.69039078006E+01  0.10380444889E+03  0.11151802610E+03  0.41800000000E+01 0. -1.
         -5    1    3    3    0  502 -0.72281147710E+01 -0.90294299682E+02  0.40106852413E+02  0.99153104886E+02  0.41800000000E+01 0. -1.
        -11    1    1    2    0    0  0.23562855973E+02  0.16109911280E+02 -0.19272937605E+02  0.34441015475E+02  0.00000000000E+00 0.  1.
         11    1    1    2    0    0 -0.56281833611E+02  0.67280480602E+02  0.31379362314E+02  0.93161001733E+02  0.00000000000E+00 0. -1.
</event>
<event>
 7    1  0.2666594E-009  0.9870421E+02  0.7561462E-02  0.1283045E+00
         -1   -1    0    0    0  501 -0.00000000000E+00  0.00000000000E+00  0.35836058682E+03  0.35836058682E+03  0.00000000000E+00 0.  1.
          1   -1    0    0  501    0  0.00000000000E+00 -0.00000000000E+00 -0.33992360100E+02  0.33992360100E+02  0.00000000000E+00 0. -1.
         25    2    1    2    0    0  0.11303593098E+02  0.25321038941E+02  0.22944529076E+03  0.26279586253E+03  0.12509035807E+03 0.  0.
          5    1    3    3  502    0  0.48416718287E+02  0.52768379064E+02  0.85692059000E+02  0.11175545541E+03  0.41800000000E+01 0.  1.
         -5    1    3    3    0  502 -0.37113125189E+02 -0.27447340123E+02  0.14375323176E+03  0.15104040712E+03  0.41800000000E+01 0.  1.
        -11    1    1    2    0    0 -0.39460231709E+02  0.27602405655E+01  0.19072528009E+02  0.43914577753E+02  0.00000000000E+00 0. -1.
         11    1    1    2    0    0  0.28156638611E+02 -0.28081279506E+02  0.75850407951E+02  0.85642506636E+02  0.00000000000E+00 0.  1.
</event>
<event>
 7    1  0.2666594E-009  0.9341536E+02  0.7561462E-02  0.1294786E+00
          1   -1    0    0  501    0  0.00000000000E+00  0.00000000000E+00  0.26394083140E+02  0.26394083140E+02  0.00000000000E+00 0. -1.
         -1   -1    0    0    0  501 -0.00000000000E+00 -0.00000000000E+00 -0.15252343951E+04  0.15252343951E+04  0.00000000000E+00 0.  1.
         25    2    1    2    0    0 -0.45303666199E+02  0.53850501506E+02 -0.13735545635E+04  0.13810328526E+04  0.12508917776E+03 0.  0.
          5    1    3    3  502    0 -0.22030910931E+02  0.22249606574E+02 -0.69065130531E+02  0.75946498829E+02  0.41800000000E+01 0. -1.
         -5    1    3    3    0  502 -0.23272755268E+02  0.31600894932E+02 -0.13044894329E+04  0.13050863538E+04  0.41800000000E+01 0. -1.
        -11    1    1    2    0    0  0.73558950316E+02 -0.32807680706E+02 -0.88291653428E+02  0.11951016337E+03  0.00000000000E+00 0. -1.
         11    1    1    2    0    0 -0.28255284116E+02 -0.21042820799E+02 -0.36994095075E+02  0.51085462297E+02  0.00000000000E+00 0.  1.
</event>
<event>
 7    1  0.2666594E-009  0.8845658E+02  0.7561462E-02  0.1306633E+00
          1   -1    0    0  501    0  0.00000000000E+00  0.00000000000E+00  0.48476522633E+02  0.48476522633E+02  0.00000000000E+00 0. -1.
         -1   -1    0    0    0  501 -0.00000000000E+00 -0.00000000000E+00 -0.57976510022E+03  0.57976510022E+03  0.00000000000E+00 0.  1.
         25    2    1    2    0    0 -0.12153383388E+02 -0.14388821301E+02 -0.51957578658E+03  0.53475351795E+03  0.12509030362E+03 0.  0.
          5    1    3    3  502    0 -0.16381253348E+02  0.41014947268E+02 -0.40419395585E+03  0.40662119682E+03  0.41800000000E+01 0.  1.
         -5    1    3    3    0  502  0.42278699596E+01 -0.55403768569E+02 -0.11538183073E+03  0.12813232113E+03  0.41800000000E+01 0.  1.
        -11    1    1    2    0    0  0.16646324650E+01 -0.30593963338E+02 -0.30860464363E+02  0.43487122860E+02  0.00000000000E+00 0.  1.
         11    1    1    2    0    0  0.10488750923E+02  0.44982784639E+02  0.19147673355E+02  0.50000982038E+02  0.00000000000E+00 0. -1.
</event>
<event>
 7    1  0.2666594E-009  0.1087509E+03  0.7561462E-02  0.1262901E+00
          1   -1    0    0  501    0  0.00000000000E+00  0.00000000000E+00  0.61549234050E+03  0.61549234050E+03  0.00000000000E+00 0. -1.
         -1   -1    0    0    0  501 -0.00000000000E+00 -0.00000000000E+00 -0.34221350002E+02  0.34221350002E+02  0.00000000000E+00 0.  1.
         25    2    1    2    0    0 -0.71803507905E+02 -0.12992765390E+01  0.17624560278E+03  0.22774546673E+03  0.12509217902E+03 0.  0.
          5    1    3    3  502    0  0.16407158701E+02  0.95199722151E+01  0.12201281685E+03  0.12354928006E+03  0.41800000000E+01 0. -1.
         -5    1    3    3    0  502 -0.88210666606E+02 -0.10819248754E+02  0.54232785922E+02  0.10419618666E+03  0.41800000000E+01 0. -1.
        -11    1    1    2    0    0  0.44374478299E+01  0.33955159645E+02  0.61606741364E+02  0.70484284711E+02  0.00000000000E+00 0.  1.
         11    1    1    2    0    0  0.67366060075E+02 -0.32655883106E+02  0.34341864636E+03  0.35148393906E+03  0.00000000000E+00 0. -1.
</event>
<event>
 7    1  0.2666594E-009  0.6794124E+02  0.7561462E-02  0.1367237E+00
          1   -1    0    0  501    0  0.00000000000E+00  0.00000000000E+00  0.93920039148E+02  0.93920039148E+02  0.00000000000E+00 0. -1.
         -1   -1    0    0    0  501 -0.00000000000E+00 -0.00000000000E+00 -0.16797352216E+03  0.16797352216E+03  0.00000000000E+00 0.  1.
         25    2    1    2    0    0 -0.69783857841E+01 -0.22820416303E+02 -0.96934811730E+02  0.16005222195E+03  0.12510350418E+03 0.  0.
          5    1    3    3  502    0  0.58878209923E+01 -0.49826381938E+02 -0.11452190762E+03  0.12510025779E+03  0.41800000000E+01 0. -1.
         -5    1    3    3    0  502 -0.12866206776E+02  0.27005965635E+02  0.17587095893E+02  0.34951964160E+02  0.41800000000E+01 0. -1.
        -11    1    1    2    0    0  0.28648622030E+02  0.14593381094E+02  0.54115434279E+02  0.62945933492E+02  0.00000000000E+00 0. -1.
         11    1    1    2    0    0 -0.21670236246E+02  0.82270352089E+01 -0.31234105557E+02  0.38895405863E+02  0.00000000000E+00 0.  1.
</event>
<event>
 7    1  0.2666594E-009  0.8652562E+02  0.7561462E-02  0.1311490E+00
          1   -1    0    0  501    0  0.00000000000E+00  0.00000000000E+00  0.27965038990E+03  0.27965038990E+03  0.00000000000E+00 0. -1.
         -1   -1    0    0    0  501 -0.00000000000E+00 -0.00000000000E+00 -0.50566787561E+02  0.50566787561E+02  0.00000000000E+00 0.  1.
         25    2    1    2    0    0  0.41429148981E+02 -0.24099383194E+02  0.12798779763E+03  0.18527295178E+03  0.12509210872E+03 0.  0.
          5    1    3    3  502    0 -0.16610177533E+02 -0.39549836075E+02 -0.80058318044E+00  0.43106854033E+02  0.41800000000E+01 0. -1.
         -5    1    3    3    0  502  0.58039326513E+02  0.15450452881E+02  0.12878838081E+03  0.14216609775E+03  0.41800000000E+01 0. -1.
        -11    1    1    2    0    0 -0.48947638853E+02  0.49787518911E+01  0.82928907440E+01  0.49894201632E+02  0.00000000000E+00 0.  1.
         11    1    1    2    0    0  0.75184898720E+01  0.19120631303E+02  0.92802913958E+02  0.95050024043E+02  0.00000000000E+00 0. -1.
</event>
<event>
 7    1  0.2666594E-009  0.2543433E+03  0.7561462E-02  0.1110590E+00
         -1   -1    0    0    0  501 -0.00000000000E+00  0.00000000000E+00  0.14948570783E+04  0.14948570783E+04  0.00000000000E+00 0.  1.
          1   -1    0    0  501    0  0.00000000000E+00 -0.00000000000E+00 -0.98338790748E+02  0.98338790748E+02  0.00000000000E+00 0. -1.
         25    2    1    2    0    0  0.23039850996E+03  0.65806259086E+01  0.13009138806E+04  0.13270830977E+04  0.12508335460E+03 0.  0.
          5    1    3    3  502    0  0.18740177377E+03 -0.47159064837E+02  0.96261027559E+03  0.98182453487E+03  0.41800000000E+01 0. -1.
         -5    1    3    3    0  502  0.42996736189E+02  0.53739690746E+02  0.33830360499E+03  0.34525856287E+03  0.41800000000E+01 0. -1.
        -11    1    1    2    0    0 -0.70803066679E+02 -0.42879627327E+02  0.47879692298E+02  0.95625318956E+02  0.00000000000E+00 0.  1.
         11    1    1    2    0    0 -0.15959544328E+03  0.36299001419E+02  0.47724714680E+02  0.17048745236E+03  0.00000000000E+00 0. -1.
</event>
<event>
 7    1  0.2666594E-009  0.1048374E+03  0.7561462E-02  0.1270440E+00
          2   -1    0    0  501    0  0.00000000000E+00  0.00000000000E+00  0.21035083506E+03  0.21035083506E+03  0.00000000000E+00 0. -1.
         -2   -1    0    0    0  501 -0.00000000000E+00 -0.00000000000E+00 -0.19516668125E+03  0.19516668125E+03  0.00000000000E+00 0.  1.
         25    2    1    2    0    0  0.18794101060E+02 -0.41325829440E+02  0.17352492800E+03  0.21867697265E+03  0.12509066837E+03 0.  0.
          5    1    3    3  502    0 -0.89718926314E+01  0.33745038180E+02  0.99919702634E+01  0.36558642329E+02  0.41800000000E+01 0.  1.
         -5    1    3    3    0  502  0.27765993691E+02 -0.75070867620E+02  0.16353295774E+03  0.18211833032E+03  0.41800000000E+01 0.  1.
        -11    1    1    2    0    0 -0.51789648122E+02  0.26678323011E+02 -0.12405605736E+03  0.13705402562E+03  0.00000000000E+00 0.  1.
         11    1    1    2    0    0  0.32995547062E+02  0.14647506430E+02 -0.34284716841E+02  0.49786518048E+02  0.00000000000E+00 0. -1.
</event>
<event>
 7    1  0.2666594E-009  0.1072538E+03  0.7561462E-02  0.1265742E+00
         -1   -1    0    0    0  501 -0.00000000000E+00  0.00000000000E+00  0.28114697029E+02  0.28114697029E+02  0.00000000000E+00 0.  1.
          1   -1    0    0  501    0  0.00000000000E+00 -0.00000000000E+00 -0.71295575538E+03  0.71295575538E+03  0.00000000000E+00 0. -1.
         25    2    1    2    0    0  0.17848591885E+02  0.58363654994E+01 -0.60505306876E+03  0.61813427927E+03  0.12509250893E+03 0.  0.
          5    1    3    3  502    0  0.33398770154E+02  0.59329557299E+02 -0.27164645671E+03  0.28007988871E+03  0.41800000000E+01 0.  1.
         -5    1    3    3    0  502 -0.15550178269E+02 -0.53493191799E+02 -0.33340661205E+03  0.33805439056E+03  0.41800000000E+01 0.  1.
        -11    1    1    2    0    0 -0.50058194684E+02 -0.21661112963E+02 -0.32220559747E+02  0.63349752487E+02  0.00000000000E+00 0. -1.
         11    1    1    2    0    0  0.32209602799E+02  0.15824747463E+02 -0.47567429840E+02  0.59586420654E+02  0.00000000000E+00 0.  1.
</event>
<event>
 7    1  0.2666594E-009  0.1539826E+03  0.7561462E-02  0.1195663E+00
          2   -1    0    0  501    0  0.00000000000E+00  0.00000000000E+00  0.10318201451E+03  0.10318201451E+03  0.00000000000E+00 0. -1.
         -2   -1    0    0    0  501 -0.00000000000E+00 -0.00000000000E+00 -0.30702891107E+03  0.30702891107E+03  0.00000000000E+00 0.  1.
         25    2    1    2    0    0 -0.81514274320E+02 -0.78186053649E+02 -0.12031028568E+02  0.16896862043E+03  0.12509201869E+03 0.  0.
          5    1    3    3  502    0 -0.80811046252E+02 -0.10898261526E+03 -0.29289730613E+00  0.13573943353E+03  0.41800000000E+01 0.  1.
         -5    1    3    3    0  502 -0.70322806868E+00  0.30796561613E+02 -0.11738131262E+02  0.33229186906E+02  0.41800000000E+01 0.  1.
        -11    1    1    2    0    0  0.61802974846E+01  0.64225983641E+02 -0.11991423119E+03  0.13617120068E+03  0.00000000000E+00 0.  1.
         11    1    1    2    0    0  0.75333976836E+02  0.13960070008E+02 -0.71901636794E+02  0.10507110447E+03  0.00000000000E+00 0. -1.
</event>
<event>
 7    1  0.2666594E-009  0.1015091E+03  0.7561462E-02  0.1277154E+00
          2   -1    0    0  501    0  0.00000000000E+00  0.00000000000E+00  0.36067603833E+03  0.36067603833E+03  0.00000000000E+00 0. -1.
         -2   -1    0    0    0  501 -0.00000000000E+00 -0.00000000000E+00 -0.33832148273E+02  0.33832148273E+02  0.00000000000E+00 0.  1.
         25    2    1    2    0    0  0.14604465024E+02 -0.71094493374E+01  0.21023065487E+03  0.24516764815E+03  0.12508562182E+03 0.  0.
          5    1    3    3  502    0  0.64284588129E+02  0.73505710369E+01  0.68926797898E+02  0.94630412839E+02  0.41800000000E+01 0.  1.
         -5    1    3    3    0  502 -0.49680123105E+02 -0.14460020374E+02  0.14130385697E+03  0.15053723532E+03  0.41800000000E+01 0.  1.
        -11    1    1    2    0    0  0.35321063703E+02 -0.25699289484E+01  0.21348125392E+02  0.41351233762E+02  0.00000000000E+00 0.  1.
         11    1    1    2    0    0 -0.49925528727E+02  0.96793782858E+01  0.95265109799E+02  0.10798930469E+03  0.00000000000E+00 0. -1.
</event>
<event>
 7    1  0.3221119E-009  0.1188186E+03  0.7561462E-02  0.1245059E+00
          1   -1    0    0  501    0  0.00000000000E+00  0.00000000000E+00  0.17758002030E+04  0.17758002030E+04  0.00000000000E+00 0. -1.
         -1   -1    0    0    0  501 -0.00000000000E+00 -0.00000000000E+00 -0.12207147193E+02  0.12207147193E+02  0.00000000000E+00 0.  1.
         25    2    1    2    0    0 -0.49600732045E+02  0.57643780811E+02  0.13319089698E+04  0.13399298494E+04  0.12508980583E+03 0.  0.
          5    1    3    3  502    0  0.17789623630E+01  0.65306933854E+02  0.31728055367E+03  0.32396385980E+03  0.41800000000E+01 0.  1.
         -5    1    3    3    0  502 -0.51379694408E+02 -0.76631530424E+01  0.10146284161E+04  0.10159659896E+04  0.41800000000E+01 0.  1.
        -11    1    1    2    0    0 -0.27560749715E+02 -0.20922600495E+02  0.11947936347E+03  0.12438918133E+03  0.00000000000E+00 0.  1.
         11    1    1    2    0    0  0.77161481760E+02 -0.36721180316E+02  0.31220472251E+03  0.32368831938E+03  0.00000000000E+00 0. -1.
</event>
<event>
 7    1  0.2666594E-009  0.1369791E+03  0.7561462E-02  0.1217453E+00
          1   -1    0    0  501    0  0.00000000000E+00  0.00000000000E+00  0.38985523143E+02  0.38985523143E+02  0.00000000000E+00 0. -1.
         -1   -1    0    0    0  501 -0.00000000000E+00 -0.00000000000E+00 -0.67768663982E+03  0.67768663982E+03  0.00000000000E+00 0.  1.
         25    2    1    2    0    0  0.89691550597E+02 -0.74008759838E+02 -0.27205096771E+03  0.32121815218E+03  0.12508997354E+03 0.  0.
          5    1    3    3  502    0  0.12396974813E+02  0.81564461835E+01 -0.16476060708E+03  0.16548033914E+03  0.41800000000E+01 0.  1.
         -5    1    3    3    0  502  0.77294575784E+02 -0.82165206022E+02 -0.10729036063E+03  0.15573781304E+03  0.41800000000E+01 0.  1.
        -11    1    1    2    0    0 -0.84183367191E+02  0.93258180112E+02 -0.33718405768E+03  0.35982914865E+03  0.00000000000E+00 0.  1.
         11    1    1    2    0    0 -0.55081834060E+01 -0.19249420274E+02 -0.29466091291E+02  0.35624862123E+02  0.00000000000E+00 0. -1.
</event>
<event>
 7    1  0.2666594E-009  0.9853494E+02  0.7561462E-02  0.1283407E+00
         -2   -1    0    0    0  501 -0.00000000000E+00  0.00000000000E+00  0.29081977906E+02  0.29081977906E+02  0.00000000000E+00 0.  1.
          2   -1    0    0  501    0  0.00000000000E+00 -0.00000000000E+00 -0.41316599777E+03  0.41316599777E+03  0.00000000000E+00 0. -1.
         25    2    1    2    0    0  0.10947447244E+02  0.12525289331E+01 -0.18896893225E+03  0.22688849758E+03  0.12509083719E+03 0.  0.
          5    1    3    3  502    0 -0.32214868536E+02 -0.48588400763E+02 -0.74100136366E+02  0.94376549275E+02  0.41800000000E+01 0.  1.
         -5    1    3    3    0  502  0.43162315781E+02  0.49840929696E+02 -0.11486879588E+03  0.13251194831E+03  0.41800000000E+01 0.  1.
        -11    1    1    2    0    0  0.71761776264E+00 -0.35947174298E+02 -0.16218817489E+03  0.16612561028E+03  0.00000000000E+00 0. -1.
         11    1    1    2    0    0 -0.11665065007E+02  0.34694645365E+02 -0.32926912722E+02  0.49233867815E+02  0.00000000000E+00 0.  1.
</event>
<event>
 7    1  0.2666594E-009  0.1536168E+03  0.7561462E-02  0.1196098E+00
         -2   -1    0    0    0  501 -0.00000000000E+00  0.00000000000E+00  0.43975901281E+02  0.43975901281E+02  0.00000000000E+00 0.  1.
          2   -1    0    0  501    0  0.00000000000E+00 -0.00000000000E+00 -0.64841810491E+03  0.64841810491E+03  0.00000000000E+00 0. -1.
         25    2    1    2    0    0  0.60666177336E+02  0.10731388585E+03 -0.40126209581E+03  0.43801244369E+03  0.12508787361E+03 0.  0.
          5    1    3    3  502    0  0.58330292218E+02  0.12787845947E+03 -0.26378762764E+03  0.29892592441E+03  0.41800000000E+01 0. -1.
         -5    1    3    3    0  502  0.23358851181E+01 -0.20564573621E+02 -0.13747446817E+03  0.13908651928E+03  0.41800000000E+01 0. -1.
        -11    1    1    2    0    0  0.16247086628E+02 -0.40444010663E+02 -0.10128145016E+03  0.11026158882E+03  0.00000000000E+00 0. -1.
         11    1    1    2    0    0 -0.76913263964E+02 -0.66869875190E+02 -0.10189865767E+03  0.14411997369E+03  0.00000000000E+00 0.  1.
</event>
<event>
 7    1  0.2666594E-009  0.1055478E+03  0.7561462E-02  0.1269044E+00
          2   -1    0    0  501    0  0.00000000000E+00  0.00000000000E+00  0.24753393406E+02  0.24753393406E+02  0.00000000000E+00 0. -1.
         -2   -1    0    0    0  501 -0.00000000000E+00 -0.00000000000E+00 -0.63433723117E+03  0.63433723117E+03  0.00000000000E+00 0.  1.
         25    2    1    2    0    0 -0.23019527029E+02  0.50264847109E+02 -0.24534394789E+03  0.28088837505E+03  0.12509265763E+03 0.  0.
          5    1    3    3  502    0  0.22485042621E+02  0.58700181991E+02 -0.21811390394E+03  0.22702959279E+03  0.41800000000E+01 0. -1.
         -5    1    3    3    0  502 -0.45504569650E+02 -0.84353348821E+01 -0.27230043948E+02  0.53858782264E+02  0.41800000000E+01 0. -1.
        -11    1    1    2    0    0  0.49255787641E+02 -0.52605383785E+01 -0.18895608147E+03  0.19534125679E+03  0.00000000000E+00 0.  1.
         11    1    1    2    0    0 -0.26236260612E+02 -0.45004308731E+02 -0.17528380841E+03  0.18286099274E+03  0.00000000000E+00 0. -1.
</event>
<event>
 7    1  0.2666594E-009  0.7599481E+02  0.7561462E-02  0.1340818E+00
          2   -1    0    0  501    0  0.00000000000E+00  0.00000000000E+00  0.35745118547E+03  0.35745118547E+03  0.00000000000E+00 0. -1.
         -2   -1    0    0    0  501 -0.00000000000E+00 -0.00000000000E+00 -0.57380145987E+02  0.57380145987E+02  0.00000000000E+00 0.  1.
         25    2    1    2    0    0 -0.22685789743E+02 -0.65745695765E+02  0.72646767649E+02  0.16050531813E+03  0.12508901922E+03 0.  0.
          5    1    3    3  502    0 -0.11584914950E+02 -0.67288983325E+02  0.10539059176E+03  0.12564500294E+03  0.41800000000E+01 0. -1.
         -5    1    3    3    0  502 -0.11100874792E+02  0.15432875603E+01 -0.32743824112E+02  0.34860315190E+02  0.41800000000E+01 0. -1.
        -11    1    1    2    0    0  0.10138569921E+02  0.91689154116E+01 -0.51748344023E+01  0.14616378517E+02  0.00000000000E+00 0.  1.
         11    1    1    2    0    0  0.12547219822E+02  0.56576780354E+02  0.23259910624E+03  0.23970963482E+03  0.00000000000E+00 0. -1.
</event>
<event>
 7    1  0.2666594E-009  0.1622641E+03  0.7561462E-02  0.1186164E+00
         -2   -1    0    0    0  501 -0.00000000000E+00  0.00000000000E+00  0.22293704802E+02  0.22293704802E+02  0.00000000000E+00 0.  1.
          2   -1    0    0  501    0  0.00000000000E+00 -0.00000000000E+00 -0.14307910729E+04  0.14307910729E+04  0.00000000000E+00 0. -1.
         25    2    1    2    0    0  0.14192544169E+03 -0.14984123243E+02 -0.74461613760E+03  0.76842078087E+03  0.12509975678E+03 0.  0.
          5    1    3    3  502    0  0.10055864917E+03  0.21835612594E+02 -0.65459259710E+03  0.66264453252E+03  0.41800000000E+01 0.  1.
         -5    1    3    3    0  502  0.41366792521E+02 -0.36819735837E+02 -0.90023540506E+02  0.10577624835E+03  0.41800000000E+01 0.  1.
        -11    1    1    2    0    0 -0.24474085096E+02  0.39075711119E+02 -0.14710576641E+03  0.15416224749E+03  0.00000000000E+00 0.  1.
         11    1    1    2    0    0 -0.11745135659E+03 -0.24091587876E+02 -0.51677546413E+03  0.53050174938E+03  0.00000000000E+00 0. -1.
</event>
<event>
 7    1  0.2666594E-009  0.1213404E+03  0.7561462E-02  0.1240902E+00
         -2   -1    0    0    0  501 -0.00000000000E+00  0.00000000000E+00  0.20868410944E+02  0.20868410944E+02  0.00000000000E+00 0.  1.
          2   -1    0    0  501    0  0.00000000000E+00 -0.00000000000E+00 -0.10871708928E+04  0.10871708928E+04  0.00000000000E+00 0. -1.
         25    2    1    2    0    0  0.77381071382E+02  0.31579424384E+02 -0.81713986205E+03  0.83087280029E+03  0.12508783261E+03 0.  0.
          5    1    3    3  502    0  0.63262701631E+02 -0.41547115104E+02 -0.42192506026E+03  0.42868002177E+03  0.41800000000E+01 0.  1.
         -5    1    3    3    0  502  0.14118369751E+02  0.73126539488E+02 -0.39521480179E+03  0.40219277852E+03  0.41800000000E+01 0.  1.
        -11    1    1    2    0    0 -0.23318562505E+01 -0.15318380390E+02  0.95695038101E+00  0.15524370692E+02  0.00000000000E+00 0.  1.
         11    1    1    2    0    0 -0.75049215132E+02 -0.16261043994E+02 -0.25011957021E+03  0.26164213278E+03  0.00000000000E+00 0. -1.
</event>
<event>
 7    1  0.2666594E-009  0.1371274E+03  0.7561462E-02  0.1217247E+00
         -1   -1    0    0    0  501 -0.00000000000E+00  0.00000000000E+00  0.14831234888E+03  0.14831234888E+03  0.00000000000E+00 0.  1.
          1   -1    0    0  501    0  0.00000000000E+00 -0.00000000000E+00 -0.18492441442E+03  0.18492441442E+03  0.00000000000E+00 0. -1.
         25    2    1    2    0    0 -0.45862764058E+02 -0.80907472481E+02 -0.10452417787E+03  0.18767367324E+03  0.12508673645E+03 0.  0.
          5    1    3    3  502    0 -0.22500470780E+02  0.32079937065E+02 -0.36251351112E+02  0.53544620691E+02  0.41800000000E+01 0.  1.
         -5    1    3    3    0  502 -0.23362293277E+02 -0.11298740955E+03 -0.68272826762E+02  0.13412905255E+03  0.41800000000E+01 0.  1.
        -11    1    1    2    0    0  0.60658595435E+02  0.32581776531E+02  0.65394563839E+02  0.94960446196E+02  0.00000000000E+00 0.  1.
         11    1    1    2    0    0 -0.14795831377E+02  0.48325695950E+02  0.25175484932E+01  0.50602643860E+02  0.00000000000E+00 0. -1.
</event>
<event>
 7    1  0.2666594E-009  0.1003050E+03  0.7561462E-02  0.1279656E+00
         -1   -1    0    0    0  501 -0.00000000000E+00  0.00000000000E+00  0.20748642610E+02  0.20748642610E+02  0.00000000000E+00 0.  1.
          1   -1    0    0  501    0  0.00000000000E+00 -0.00000000000E+00 -0.76218004289E+03  0.76218004289E+03  0.00000000000E+00 0. -1.
         25    2    1    2    0    0 -0.21099146828E+02  0.60634787461E+02 -0.43177653197E+03  0.45409290027E+03  0.12509051551E+03 0.  0.
          5    1    3    3  502    0 -0.37661671857E+02 -0.27669517923E+01 -0.33497237897E+03  0.33712019314E+03  0.41800000000E+01 0.  1.
         -5    1    3    3    0  502  0.16562525028E+02  0.63401739254E+02 -0.96804152996E+02  0.11697270713E+03  0.41800000000E+01 0.  1.
        -11    1    1    2    0    0  0.16685799055E+02 -0.77625799772E+02 -0.29636838913E+03  0.30681982132E+03  0.00000000000E+00 0. -1.
         11    1    1    2    0    0  0.44133477731E+01  0.16991012310E+02 -0.13286479188E+02  0.22015963915E+02  0.00000000000E+00 0.  1.
</event>
<event>
 7    1  0.2666594E-009  0.1422660E+03  0.7561462E-02  0.1210312E+00
         -1   -1    0    0    0  501 -0.00000000000E+00  0.00000000000E+00  0.17698357652E+03  0.17698357652E+03  0.00000000000E+00 0.  1.
          1   -1    0    0  501    0  0.00000000000E+00 -0.00000000000E+00 -0.17659113768E+03  0.17659113768E+03  0.00000000000E+00 0. -1.
         25    2    1    2    0    0  0.56712274624E+02 -0.10272231481E+03 -0.73571913307E+02  0.18662956431E+03  0.12509840844E+03 0.  0.
          5    1    3    3  502    0 -0.36133050002E+02 -0.19175033919E+02 -0.39683469208E+02  0.57144810408E+02  0.41800000000E+01 0. -1.
         -5    1    3    3    0  502  0.92845324625E+02 -0.83547280889E+02 -0.33888444099E+02  0.12948475390E+03  0.41800000000E+01 0. -1.
        -11    1    1    2    0    0 -0.36854939183E+02  0.50085993697E+02  0.89130725938E+02  0.10867925107E+03  0.00000000000E+00 0.  1.
         11    1    1    2    0    0 -0.19857335440E+02  0.52636321111E+02 -0.15166373793E+02  0.58265898816E+02  0.00000000000E+00 0. -1.
</event>
<event>
 7    1  0.2666594E-009  0.1846341E+03  0.7561462E-02  0.1163392E+00
         -2   -1    0    0    0  501 -0.00000000000E+00  0.00000000000E+00  0.62405612993E+03  0.62405612993E+03  0.00000000000E+00 0.  1.
          2   -1    0    0  501    0  0.00000000000E+00 -0.00000000000E+00 -0.99944427190E+02  0.99944427190E+02  0.00000000000E+00 0. -1.
         25    2    1    2    0    0  0.97344535679E+02 -0.14147728071E+03  0.47977676717E+03  0.52471451284E+03  0.12509114308E+03 0.  0.
          5    1    3    3  502    0  0.25508107212E+02  0.79529980409E+01  0.14340573823E+02  0.30611079186E+02  0.41800000000E+01 0. -1.
         -5    1    3    3    0  502  0.71836428467E+02 -0.14943027875E+03  0.46543619335E+03  0.49410343365E+03  0.41800000000E+01 0. -1.
        -11    1    1    2    0    0 -0.26483775739E+02  0.73702406025E+02 -0.21459451224E+02  0.81203097713E+02  0.00000000000E+00 0.  1.
         11    1    1    2    0    0 -0.70860759939E+02  0.67774874687E+02  0.65794386788E+02  0.11808294657E+03  0.00000000000E+00 0. -1.
</event>
<event>
 7    1  0.2666594E-009  0.1461743E+03  0.7561462E-02  0.1205254E+00
          3   -1    0    0  501    0  0.00000000000E+00  0.00000000000E+00  0.19671987070E+02  0.19671987070E+02  0.00000000000E+00 0. -1.
         -3   -1    0    0    0  501 -0.00000000000E+00 -0.00000000000E+00 -0.11526263535E+04  0.11526263535E+04  0.00000000000E+00 0.  1.
         25    2    1    2    0    0  0.72593598708E+02 -0.68803262097E+02 -0.72518854030E+03  0.74266222265E+03  0.12508012838E+03 0.  0.
          5    1    3    3  502    0 -0.23653240997E+02  0.18357558547E+02 -0.13934597147E+03  0.14258768506E+03  0.41800000000E+01 0.  1.
         -5    1    3    3    0  502  0.96246839705E+02 -0.87160820644E+02 -0.58584256884E+03  0.60007453759E+03  0.41800000000E+01 0.  1.
        -11    1    1    2    0    0  0.74258555761E+01  0.49278605412E+02 -0.11143073736E+03  0.12206692226E+03  0.00000000000E+00 0.  1.
         11    1    1    2    0    0 -0.80019454284E+02  0.19524656685E+02 -0.29633508880E+03  0.30756919569E+03  0.00000000000E+00 0. -1.
</event>
<event>
 7    1  0.2666594E-009  0.8511530E+02  0.7561462E-02  0.1315131E+00
          2   -1    0    0  501    0  0.00000000000E+00  0.00000000000E+00  0.15613239841E+04  0.15613239841E+04  0.00000000000E+00 0. -1.
         -2   -1    0    0    0  501 -0.00000000000E+00 -0.00000000000E+00 -0.35303822401E+02  0.35303822401E+02  0.00000000000E+00 0.  1.
         25    2    1    2    0    0 -0.15021300300E+02  0.59853680053E+02  0.14628697084E+04  0.14695041740E+04  0.12508649515E+03 0.  0.
          5    1    3    3  502    0 -0.79444409559E+01  0.20541280108E+02  0.38371285056E+02  0.44439692252E+02  0.41800000000E+01 0.  1.
         -5    1    3    3    0  502 -0.70768593445E+01  0.39312399945E+02  0.14244984233E+04  0.14250644817E+04  0.41800000000E+01 0.  1.
        -11    1    1    2    0    0 -0.36035133708E+02 -0.37209241390E+02  0.44352439146E+02  0.68192355616E+02  0.00000000000E+00 0.  1.
         11    1    1    2    0    0  0.51056434009E+02 -0.22644438663E+02  0.18798014162E+02  0.58931276861E+02  0.00000000000E+00 0. -1.
</event>
<event>
 7    1  0.2666594E-009  0.1087648E+03  0.7561462E-02  0.1262875E+00
          1   -1    0    0  501    0  0.00000000000E+00  0.00000000000E+00  0.19892272243E+04  0.19892272243E+04  0.00000000000E+00 0. -1.
         -1   -1    0    0    0  501 -0.00000000000E+00 -0.00000000000E+00 -0.14337462210E+02  0.14337462210E+02  0.00000000000E+00 0.  1.
         25    2    1    2    0    0 -0.28744164161E+02 -0.96747874861E+01  0.17881894668E+04  0.17928156084E+04  0.12508560233E+03 0.  0.
          5    1    3    3  502    0 -0.18430995696E+02  0.56991314031E+02  0.72653226738E+03  0.72900913535E+03  0.41800000000E+01 0.  1.
         -5    1    3    3    0  502 -0.10313168465E+02 -0.66666101518E+02  0.10616571994E+04  0.10638064730E+04  0.41800000000E+01 0.  1.
        -11    1    1    2    0    0  0.57451158258E+01 -0.37223224067E+02  0.12151176196E+03  0.12721510548E+03  0.00000000000E+00 0. -1.
         11    1    1    2    0    0  0.22999048335E+02  0.46898011553E+02  0.65188533278E+02  0.83533972627E+02  0.00000000000E+00 0.  1.
</event>
<event>
 7    1  0.2666594E-009  0.1032313E+03  0.7561462E-02  0.1273644E+00
         -1   -1    0    0    0  501 -0.00000000000E+00  0.00000000000E+00  0.21690010689E+02  0.21690010689E+02  0.00000000000E+00 0. -1.
          1   -1    0    0  501    0  0.00000000000E+00 -0.00000000000E+00 -0.11538599298E+04  0.11538599298E+04  0.00000000000E+00 0.  1.
         25    2    1    2    0    0 -0.14616094773E+01  0.30759365172E+02 -0.10178102021E+04  0.10259303423E+04  0.12508870883E+03 0.  0.
          5    1    3    3  502    0 -0.54086728368E+02  0.37603524096E+02 -0.36241464819E+03  0.36837650418E+03  0.41800000000E+01 0. -1.
         -5    1    3    3    0  502  0.52625118891E+02 -0.68441589233E+01 -0.65539555387E+03  0.65755383816E+03  0.41800000000E+01 0. -1.
        -11    1    1    2    0    0  0.11079797185E+02  0.26729747693E+02 -0.10996439383E+02  0.30954208058E+02  0.00000000000E+00 0. -1.
         11    1    1    2    0    0 -0.96181877072E+01 -0.57489112866E+02 -0.10336327762E+03  0.11866539004E+03  0.00000000000E+00 0.  1.
</event>
<event>
 7    1  0.2666594E-009  0.1249815E+03  0.7561462E-02  0.1235098E+00
         -1   -1    0    0    0  501 -0.00000000000E+00  0.00000000000E+00  0.66971939412E+02  0.66971939412E+02  0.00000000000E+00 0.  1.
          1   -1    0    0  501    0  0.00000000000E+00 -0.00000000000E+00 -0.37818249701E+03  0.37818249701E+03  0.00000000000E+00 0. -1.
         25    2    1    2    0    0 -0.77113342322E+02  0.86392654496E+02 -0.18106058336E+03  0.24867666557E+03  0.12508793241E+03 0.  0.
          5    1    3    3  502    0 -0.31244035694E+02 -0.97530736366E+00 -0.13690414575E+03  0.14048970964E+03  0.41800000000E+01 0. -1.
         -5    1    3    3    0  502 -0.45869306629E+02  0.87367961860E+02 -0.44156437612E+02  0.10818695593E+03  0.41800000000E+01 0. -1.
        -11    1    1    2    0    0  0.17406851677E+02 -0.39189252711E+01  0.12089465347E+02  0.21552531938E+02  0.00000000000E+00 0.  1.
         11    1    1    2    0    0  0.59706490645E+02 -0.82473729225E+02 -0.14223943958E+03  0.17492523891E+03  0.00000000000E+00 0. -1.
</event>
<event>
 7    1  0.2666594E-009  0.1848633E+03  0.7561462E-02  0.1163178E+00
         -3   -1    0    0    0  501 -0.00000000000E+00  0.00000000000E+00  0.19402910299E+03  0.19402910299E+03  0.00000000000E+00 0.  1.
          3   -1    0    0  501    0  0.00000000000E+00 -0.00000000000E+00 -0.25084150285E+03  0.25084150285E+03  0.00000000000E+00 0. -1.
         25    2    1    2    0    0  0.12919848038E+03  0.82489387366E+02 -0.14631623768E+03  0.24607495479E+03  0.12509074949E+03 0.  0.
          5    1    3    3  502    0  0.10034042475E+03 -0.85148718480E+01 -0.59958877455E+02  0.11727422252E+03  0.41800000000E+01 0. -1.
         -5    1    3    3    0  502  0.28858055626E+02  0.91004259214E+02 -0.86357360224E+02  0.12880073227E+03  0.41800000000E+01 0. -1.
        -11    1    1    2    0    0 -0.23786549000E+02 -0.61440345368E+02  0.55228625535E+02  0.85970442774E+02  0.00000000000E+00 0.  1.
         11    1    1    2    0    0 -0.10541193138E+03 -0.21049041998E+02  0.34275212282E+02  0.11282520828E+03  0.00000000000E+00 0. -1.
</event>
<event>
 7    1  0.2666594E-009  0.2061812E+03  0.7561462E-02  0.1144626E+00
          3   -1    0    0  501    0  0.00000000000E+00  0.00000000000E+00  0.63478568320E+03  0.63478568320E+03  0.00000000000E+00 0. -1.
         -3   -1    0    0    0  501 -0.00000000000E+00 -0.00000000000E+00 -0.13556681324E+03  0.13556681324E+03  0.00000000000E+00 0.  1.
         25    2    1    2    0    0 -0.93951527827E+02 -0.15308121359E+03 -0.13738439636E+02  0.21931779215E+03  0.12510316421E+03 0.  0.
          5    1    3    3  502    0 -0.12355952974E+03 -0.12969780719E+03 -0.21828981625E+02  0.18050610909E+03  0.41800000000E+01 0.  1.
         -5    1    3    3    0  502  0.29608001916E+02 -0.23383406403E+02  0.80905419889E+01  0.38811683063E+02  0.41800000000E+01 0.  1.
        -11    1    1    2    0    0 -0.71270401251E+00  0.67814454461E+02  0.24692280956E+03  0.25606675313E+03  0.00000000000E+00 0.  1.
         11    1    1    2    0    0  0.94664231840E+02  0.85266759129E+02  0.26603450003E+03  0.29496795116E+03  0.00000000000E+00 0. -1.
</event>
<event>
 7    1  0.2666594E-009  0.1137404E+03  0.7561462E-02  0.1253796E+00
          4   -1    0    0  501    0  0.00000000000E+00  0.00000000000E+00  0.15419267208E+03  0.15419267208E+03  0.00000000000E+00 0. -1.
         -4   -1    0    0    0  501 -0.00000000000E+00 -0.00000000000E+00 -0.99810736583E+02  0.99810736583E+02  0.00000000000E+00 0.  1.
         25    2    1    2    0    0  0.26473772870E+02 -0.23844577514E+02 -0.18150194044E+02  0.13131003843E+03  0.12507386666E+03 0.  0.
          5    1    3    3  502    0  0.74919477467E+02 -0.85346398592E+00 -0.19401635232E+02  0.77508401831E+02  0.41800000000E+01 0. -1.
         -5    1    3    3    0  502 -0.48445704598E+02 -0.22991113528E+02  0.12514411872E+01  0.53801636595E+02  0.41800000000E+01 0. -1.
        -11    1    1    2    0    0 -0.12342374235E+02 -0.35533717864E+02  0.32388814374E+02  0.49638841682E+02  0.00000000000E+00 0.  1.
         11    1    1    2    0    0 -0.14131398635E+02  0.59378295378E+02  0.40143315163E+02  0.73054528550E+02  0.00000000000E+00 0. -1.
</event>
<event>
 7    1  0.2666594E-009  0.1068941E+03  0.7561462E-02  0.1266432E+00
          2   -1    0    0  501    0  0.00000000000E+00  0.00000000000E+00  0.90106890836E+03  0.90106890836E+03  0.00000000000E+00 0. -1.
         -2   -1    0    0    0  501 -0.00000000000E+00 -0.00000000000E+00 -0.19062879201E+02  0.19062879201E+02  0.00000000000E+00 0.  1.
         25    2    1    2    0    0  0.64613815404E+01  0.35572126634E+02  0.70933617055E+03  0.72118876731E+03  0.12509320364E+03 0.  0.
          5    1    3    3  502    0 -0.55751384053E+02  0.33661721518E+02  0.43363852745E+03  0.43852157668E+03  0.41800000000E+01 0. -1.
         -5    1    3    3    0  502  0.62212765593E+02  0.19104051158E+01  0.27569764310E+03  0.28266719064E+03  0.41800000000E+01 0. -1.
        -11    1    1    2    0    0 -0.34829330169E+02 -0.44405322763E+02  0.59787151488E+02  0.82215682280E+02  0.00000000000E+00 0.  1.
         11    1    1    2    0    0  0.28367948629E+02  0.88331961287E+01  0.11288270712E+03  0.11672733797E+03  0.00000000000E+00 0. -1.
</event>
<event>
 7    1  0.2666594E-009  0.1277050E+03  0.7561462E-02  0.1230901E+00
          1   -1    0    0  501    0  0.00000000000E+00  0.00000000000E+00  0.25841700098E+03  0.25841700098E+03  0.00000000000E+00 0. -1.
         -1   -1    0    0    0  501 -0.00000000000E+00 -0.00000000000E+00 -0.71810102469E+02  0.71810102469E+02  0.00000000000E+00 0.  1.
         25    2    1    2    0    0 -0.66640869489E+02  0.28218549480E+02  0.60910519494E+02  0.15683680943E+03  0.12510156428E+03 0.  0.
          5    1    3    3  502    0 -0.74861505322E+02  0.64275661891E+02  0.18613038865E+02  0.10049638454E+03  0.41800000000E+01 0. -1.
         -5    1    3    3    0  502  0.82206358329E+01 -0.36057112411E+02  0.42297480629E+02  0.56340424887E+02  0.41800000000E+01 0. -1.
        -11    1    1    2    0    0 -0.22782596573E+02  0.62076215352E+01  0.24950384410E+02  0.34352626595E+02  0.00000000000E+00 0. -1.
         11    1    1    2    0    0  0.89423466062E+02 -0.34426171015E+02  0.10074599461E+03  0.13903766742E+03  0.00000000000E+00 0.  1.
</event>
<event>
 7    1  0.2666594E-009  0.2075105E+03  0.7561462E-02  0.1143553E+00
         -2   -1    0    0    0  501 -0.00000000000E+00  0.00000000000E+00  0.16913425326E+02  0.16913425326E+02  0.00000000000E+00 0.  1.
          2   -1    0    0  501    0  0.00000000000E+00 -0.00000000000E+00 -0.29359022243E+04  0.29359022243E+04  0.00000000000E+00 0. -1.
         25    2    1    2    0    0  0.64699218554E+02  0.17011079464E+03 -0.19622903588E+04  0.19746783178E+04  0.12508930802E+03 0.  0.
          5    1    3    3  502    0  0.97008387288E+02  0.13700930865E+03 -0.17031724543E+04  0.17114309976E+04  0.41800000000E+01 0. -1.
         -5    1    3    3    0  502 -0.32309168734E+02  0.33101485993E+02 -0.25911790448E+03  0.26324732018E+03  0.41800000000E+01 0. -1.
        -11    1    1    2    0    0  0.15193990780E+02 -0.74589516709E+02 -0.28485368651E+03  0.29484924296E+03  0.00000000000E+00 0.  1.
         11    1    1    2    0    0 -0.79893209334E+02 -0.95521277931E+02 -0.67184475368E+03  0.68328808894E+03  0.00000000000E+00 0. -1.
</event>
<event>
 7    1  0.2666594E-009  0.1015487E+03  0.7561462E-02  0.1277073E+00
          2   -1    0    0  501    0  0.00000000000E+00  0.00000000000E+00  0.43187412023E+02  0.43187412023E+02  0.00000000000E+00 0. -1.
         -2   -1    0    0    0  501 -0.00000000000E+00 -0.00000000000E+00 -0.33911499617E+03  0.33911499617E+03  0.00000000000E+00 0.  1.
         25    2    1    2    0    0 -0.37289517454E+02  0.16254441340E+02 -0.22126991594E+03  0.25741602881E+03  0.12509165124E+03 0.  0.
          5    1    3    3  502    0 -0.59472196685E+02 -0.37595021412E+02 -0.94920133571E+02  0.11822703570E+03  0.41800000000E+01 0.  1.
         -5    1    3    3    0  502  0.22182679231E+02  0.53849462752E+02 -0.12634978237E+03  0.13918899311E+03  0.41800000000E+01 0.  1.
        -11    1    1    2    0    0 -0.15709353854E+02 -0.14217070569E+02  0.11201645816E+02  0.23966346469E+02  0.00000000000E+00 0. -1.
         11    1    1    2    0    0  0.52998871308E+02 -0.20373707703E+01 -0.85859314016E+02  0.10092003291E+03  0.00000000000E+00 0.  1.
</event>
<event>
 7    1  0.2666594E-009  0.1384917E+03  0.7561462E-02  0.1215373E+00
         -1   -1    0    0    0  501 -0.00000000000E+00  0.00000000000E+00  0.56385952036E+03  0.56385952036E+03  0.00000000000E+00 0.  1.
          1   -1    0    0  501    0  0.00000000000E+00 -0.00000000000E+00 -0.41597201019E+02  0.41597201019E+02  0.00000000000E+00 0. -1.
         25    2    1    2    0    0  0.97147508782E+02  0.31129882182E+02  0.21277516389E+03  0.26707176619E+03  0.12508936766E+03 0.  0.
          5    1    3    3  502    0  0.11506408228E+03  0.46647948116E+02  0.20838576844E+03  0.24260641991E+03  0.41800000000E+01 0.  1.
         -5    1    3    3    0  502 -0.17916573498E+02 -0.15518065934E+02  0.43893954545E+01  0.24465346282E+02  0.41800000000E+01 0.  1.
        -11    1    1    2    0    0 -0.41296332839E+02 -0.54298787055E+02  0.10558104435E+03  0.12570243557E+03  0.00000000000E+00 0. -1.
         11    1    1    2    0    0 -0.55851175944E+02  0.23168904873E+02  0.20390611110E+03  0.21268251961E+03  0.00000000000E+00 0.  1.
</event>
<event>
 7    1  0.2666594E-009  0.9984352E+02  0.7561462E-02  0.1280625E+00
         -2   -1    0    0    0  501 -0.00000000000E+00  0.00000000000E+00  0.20454936455E+03  0.20454936455E+03  0.00000000000E+00 0.  1.
          2   -1    0    0  501    0  0.00000000000E+00 -0.00000000000E+00 -0.61511049022E+02  0.61511049022E+02  0.00000000000E+00 0. -1.
         25    2    1    2    0    0  0.75771266259E+00  0.31155155877E+02  0.90383132786E+02  0.15744259511E+03  0.12509133542E+03 0.  0.
          5    1    3    3  502    0  0.16072015187E+02  0.67411256038E+02  0.13153461589E+02  0.70661680312E+02  0.41800000000E+01 0.  1.
         -5    1    3    3    0  502 -0.15314302524E+02 -0.36256100161E+02  0.77229671197E+02  0.86780914802E+02  0.41800000000E+01 0.  1.
        -11    1    1    2    0    0  0.39275627122E+02 -0.31965734949E+02  0.13041162396E+02  0.52292016726E+02  0.00000000000E+00 0.  1.
         11    1    1    2    0    0 -0.40033339785E+02  0.81057907246E+00  0.39614020349E+02  0.56325801734E+02  0.00000000000E+00 0. -1.
</event>
<event>
 7    1  0.2666594E-009  0.8928351E+02  0.7561462E-02  0.1304596E+00
         -3   -1    0    0    0  501 -0.00000000000E+00  0.00000000000E+00  0.15149383694E+03  0.15149383694E+03  0.00000000000E+00 0.  1.
          3   -1    0    0  501    0  0.00000000000E+00 -0.00000000000E+00 -0.13117329114E+03  0.13117329114E+03  0.00000000000E+00 0. -1.
         25    2    1    2    0    0  0.17702643304E+02 -0.49763075596E+02  0.83459281957E+02  0.15938195333E+03  0.12508960000E+03 0.  0.
          5    1    3    3  502    0 -0.25727070558E+02  0.13375208617E+02  0.76975482750E+02  0.82361858342E+02  0.41800000000E+01 0.  1.
         -5    1    3    3    0  502  0.43429713862E+02 -0.63138284213E+02  0.64837992075E+01  0.77020094986E+02  0.41800000000E+01 0.  1.
        -11    1    1    2    0    0 -0.27840159412E+02  0.54602999277E+02 -0.22111866137E+01  0.61330672199E+02  0.00000000000E+00 0.  1.
         11    1    1    2    0    0  0.10137516108E+02 -0.48399236810E+01 -0.60927549537E+02  0.61954502553E+02  0.00000000000E+00 0. -1.
</event>
<event>
 7    1  0.2666594E-009  0.1013876E+03  0.7561462E-02  0.1277405E+00
          1   -1    0    0  501    0  0.00000000000E+00  0.00000000000E+00  0.53872617828E+02  0.53872617828E+02  0.00000000000E+00 0. -1.
         -1   -1    0    0    0  501 -0.00000000000E+00 -0.00000000000E+00 -0.26250793242E+03  0.26250793242E+03  0.00000000000E+00 0.  1.
         25    2    1    2    0    0  0.33755473468E+02 -0.19663123867E+02 -0.77225765270E+02  0.15211033781E+03  0.12509062962E+03 0.  0.
          5    1    3    3  502    0 -0.39598521385E+02  0.79477845161E+01  0.19132361305E+01  0.40649022708E+02  0.41800000000E+01 0. -1.
         -5    1    3    3    0  502  0.73353994854E+02 -0.27610908383E+02 -0.79139001400E+02  0.11146131511E+03  0.41800000000E+01 0. -1.
        -11    1    1    2    0    0  0.13496451427E+01 -0.26027287091E+02 -0.67251032475E+01  0.26915947485E+02  0.00000000000E+00 0. -1.
         11    1    1    2    0    0 -0.35105118611E+02  0.45690410958E+02 -0.12468444607E+03  0.13735426494E+03  0.00000000000E+00 0.  1.
</event>
<event>
 7    1  0.3308846E-009  0.9866614E+02  0.7561462E-02  0.1283126E+00
          2   -1    0    0  501    0  0.00000000000E+00  0.00000000000E+00  0.24551722214E+03  0.24551722214E+03  0.00000000000E+00 0. -1.
         -2   -1    0    0    0  501 -0.00000000000E+00 -0.00000000000E+00 -0.74615127487E+02  0.74615127487E+02  0.00000000000E+00 0.  1.
         25    2    1    2    0    0 -0.39976544291E+02 -0.55401483198E+02  0.14583456934E+03  0.20391941538E+03  0.12509179798E+03 0.  0.
          5    1    3    3  502    0  0.37350766571E+02 -0.15042476205E+02  0.94052790323E+02  0.10239509569E+03  0.41800000000E+01 0. -1.
         -5    1    3    3    0  502 -0.77327310862E+02 -0.40359006992E+02  0.51781779016E+02  0.10152431969E+03  0.41800000000E+01 0. -1.
        -11    1    1    2    0    0  0.24837462755E+02  0.23409923733E+02 -0.33472682034E+02  0.47805277197E+02  0.00000000000E+00 0.  1.
         11    1    1    2    0    0  0.15139081535E+02  0.31991559464E+02  0.58540207343E+02  0.68407657046E+02  0.00000000000E+00 0. -1.
</event>
<event>
 7    1  0.2666594E-009  0.1343309E+03  0.7561462E-02  0.1221167E+00
          1   -1    0    0  501    0  0.00000000000E+00  0.00000000000E+00  0.57582760883E+03  0.57582760883E+03  0.00000000000E+00 0. -1.
         -1   -1    0    0    0  501 -0.00000000000E+00 -0.00000000000E+00 -0.42020534245E+02  0.42020534245E+02  0.00000000000E+00 0.  1.
         25    2    1    2    0    0 -0.22134314186E+02 -0.10230934863E+03  0.36318010524E+03  0.39812627016E+03  0.12509039718E+03 0.  0.
          5    1    3    3  502    0 -0.72961107851E+02 -0.71022870776E+02  0.25293397591E+03  0.27269147402E+03  0.41800000000E+01 0. -1.
         -5    1    3    3    0  502  0.50826793664E+02 -0.31286477858E+02  0.11024612933E+03  0.12543479614E+03  0.41800000000E+01 0. -1.
        -11    1    1    2    0    0  0.77707430459E+01  0.80092920411E+02  0.17527242652E+03  0.19286182579E+03  0.00000000000E+00 0. -1.
         11    1    1    2    0    0  0.14363571140E+02  0.22216428223E+02 -0.46454571837E+01  0.26860047121E+02  0.00000000000E+00 0.  1.
</event>
<event>
 7    1  0.2666594E-009  0.2249329E+03  0.7561462E-02  0.1130258E+00
         -2   -1    0    0    0  501 -0.00000000000E+00  0.00000000000E+00  0.51540090345E+02  0.51540090345E+02  0.00000000000E+00 0.  1.
          2   -1    0    0  501    0  0.00000000000E+00 -0.00000000000E+00 -0.13301682087E+04  0.13301682087E+04  0.00000000000E+00 0. -1.
         25    2    1    2    0    0  0.43851096905E+02 -0.19280737849E+03 -0.30719288260E+03  0.38615106363E+03  0.12509025909E+03 0.  0.
          5    1    3    3  502    0 -0.42869852354E+02 -0.58074435157E+02 -0.76723097546E+02  0.10542471416E+03  0.41800000000E+01 0.  1.
         -5    1    3    3    0  502  0.86720949259E+02 -0.13473294333E+03 -0.23046978505E+03  0.28072634946E+03  0.41800000000E+01 0.  1.
        -11    1    1    2    0    0 -0.36316400409E+02  0.14970540899E+02 -0.14998048287E+03  0.15503916690E+03  0.00000000000E+00 0.  1.
         11    1    1    2    0    0 -0.75346964961E+01  0.17783683759E+03 -0.82145475288E+03  0.84051806851E+03  0.00000000000E+00 0. -1.
</event>
<event>
 7    1  0.2666594E-009  0.1478857E+03  0.7561462E-02  0.1203095E+00
         -2   -1    0    0    0  501 -0.00000000000E+00  0.00000000000E+00  0.26644765783E+02  0.26644765783E+02  0.00000000000E+00 0.  1.
          2   -1    0    0  501    0  0.00000000000E+00 -0.00000000000E+00 -0.10934715902E+04  0.10934715902E+04  0.00000000000E+00 0. -1.
         25    2    1    2    0    0  0.11623912651E+03  0.49277225500E+01 -0.77604834046E+03  0.79462848234E+03  0.12509029234E+03 0.  0.
          5    1    3    3  502    0 -0.16665335363E+02 -0.27443052040E+02 -0.19586318445E+03  0.19852131858E+03  0.41800000000E+01 0. -1.
         -5    1    3    3    0  502  0.13290446187E+03  0.32370774590E+02 -0.58018515601E+03  0.59610716376E+03  0.41800000000E+01 0. -1.
        -11    1    1    2    0    0 -0.75947851892E+02  0.20787900475E+02 -0.92247721109E+02  0.12128419131E+03  0.00000000000E+00 0.  1.
         11    1    1    2    0    0 -0.40291274620E+02 -0.25715623025E+02 -0.19853076280E+03  0.20420368228E+03  0.00000000000E+00 0. -1.
</event>
<event>
 7    1  0.2666594E-009  0.1247436E+03  0.7561462E-02  0.1235471E+00
          1   -1    0    0  501    0  0.00000000000E+00  0.00000000000E+00  0.24451727228E+03  0.24451727228E+03  0.00000000000E+00 0. -1.
         -1   -1    0    0    0  501 -0.00000000000E+00 -0.00000000000E+00 -0.74792997401E+02  0.74792997401E+02  0.00000000000E+00 0.  1.
         25    2    1    2    0    0  0.37859797542E+02  0.70841797324E+02  0.93868631960E+02  0.17581557043E+03  0.12509144744E+03 0.  0.
          5    1    3    3  502    0  0.68398145655E+02  0.39713744225E+00  0.26125739943E+02  0.73338194242E+02  0.41800000000E+01 0.  1.
         -5    1    3    3    0  502 -0.30538348113E+02  0.70444659882E+02  0.67742892017E+02  0.10247737619E+03  0.41800000000E+01 0.  1.
        -11    1    1    2    0    0 -0.56881944807E+02 -0.48745550246E+02  0.15546253023E+02  0.76507321851E+02  0.00000000000E+00 0.  1.
         11    1    1    2    0    0  0.19022147265E+02 -0.22096247078E+02  0.60309389901E+02  0.66987377406E+02  0.00000000000E+00 0. -1.
</event>
<event>
 7    1  0.2666594E-009  0.9026155E+02  0.7561462E-02  0.1302220E+00
          1   -1    0    0  501    0  0.00000000000E+00  0.00000000000E+00  0.41966322023E+03  0.41966322023E+03  0.00000000000E+00 0. -1.
         -1   -1    0    0    0  501 -0.00000000000E+00 -0.00000000000E+00 -0.36830636598E+02  0.36830636598E+02  0.00000000000E+00 0.  1.
         25    2    1    2    0    0 -0.11642435513E+02  0.48080809553E+02  0.15464752264E+03  0.20496520840E+03  0.12509024680E+03 0.  0.
          5    1    3    3  502    0  0.49202261352E+02  0.31878740727E+02  0.31724538180E+02  0.66790982589E+02  0.41800000000E+01 0. -1.
         -5    1    3    3    0  502 -0.60844696865E+02  0.16202068826E+02  0.12292298446E+03  0.13817422581E+03  0.41800000000E+01 0. -1.
        -11    1    1    2    0    0 -0.97161834570E+01 -0.59095643606E+01 -0.58350939162E+01  0.12781842313E+02  0.00000000000E+00 0.  1.
         11    1    1    2    0    0  0.21358618970E+02 -0.42171245192E+02  0.23402015491E+03  0.23874680611E+03  0.00000000000E+00 0. -1.
</event>
<event>
 7    1  0.2666594E-009  0.1018891E+03  0.7561462E-02  0.1276373E+00
         -1   -1    0    0    0  501 -0.00000000000E+00  0.00000000000E+00  0.34007927943E+02  0.34007927943E+02  0.00000000000E+00 0.  1.
          1   -1    0    0  501    0  0.00000000000E+00 -0.00000000000E+00 -0.38922843640E+03  0.38922843640E+03  0.00000000000E+00 0. -1.
         25    2    1    2    0    0 -0.33017242085E+02 -0.13281143355E+02 -0.17271807408E+03  0.21620736757E+03  0.12509022998E+03 0.  0.
          5    1    3    3  502    0  0.26484176569E+01 -0.52598608369E+02 -0.14867510911E+03  0.15778272462E+03  0.41800000000E+01 0. -1.
         -5    1    3    3    0  502 -0.35665659741E+02  0.39317465014E+02 -0.24042964966E+02  0.58424642954E+02  0.41800000000E+01 0. -1.
        -11    1    1    2    0    0 -0.15200319090E+02  0.39846797402E+02 -0.82784884154E+02  0.93124400713E+02  0.00000000000E+00 0. -1.
         11    1    1    2    0    0  0.48217561175E+02 -0.26565654046E+02 -0.99717550227E+02  0.11390459606E+03  0.00000000000E+00 0.  1.
</event>
<event>
 7    1  0.2666594E-009  0.1509325E+03  0.7561462E-02  0.1199332E+00
         -1   -1    0    0    0  501 -0.00000000000E+00  0.00000000000E+00  0.37002754495E+02  0.37002754495E+02  0.00000000000E+00 0.  1.
          1   -1    0    0  501    0  0.00000000000E+00 -0.00000000000E+00 -0.75246444934E+03  0.75246444934E+03  0.00000000000E+00 0. -1.
         25    2    1    2    0    0 -0.43761566610E+02  0.11298862493E+03 -0.48102404955E+03  0.51157928196E+03  0.12509085263E+03 0.  0.
          5    1    3    3  502    0 -0.34926898693E+02 -0.11504633380E+02 -0.20913019930E+03  0.21237974833E+03  0.41800000000E+01 0. -1.
         -5    1    3    3    0  502 -0.88346679173E+01  0.12449325831E+03 -0.27189385024E+03  0.29919953363E+03  0.41800000000E+01 0. -1.
        -11    1    1    2    0    0  0.23689846285E+02  0.15066331704E+01 -0.11304249272E+02  0.26291915338E+02  0.00000000000E+00 0.  1.
         11    1    1    2    0    0  0.20071720325E+02 -0.11449525810E+03 -0.22313339603E+03  0.25159600654E+03  0.00000000000E+00 0. -1.
</event>
<event>
 7    1  0.2885544E-009  0.9392135E+02  0.7561462E-02  0.1293624E+00
         -2   -1    0    0    0  501 -0.00000000000E+00  0.00000000000E+00  0.24292655228E+02  0.24292655228E+02  0.00000000000E+00 0.  1.
          2   -1    0    0  501    0  0.00000000000E+00 -0.00000000000E+00 -0.75660086858E+03  0.75660086858E+03  0.00000000000E+00 0. -1.
         25    2    1    2    0    0 -0.52427926253E+02 -0.46036618101E+02 -0.28200316253E+03  0.31629095265E+03  0.12508447304E+03 0.  0.
          5    1    3    3  502    0 -0.55957289357E+02 -0.19925122095E+02 -0.28338824432E+03  0.28957658425E+03  0.41800000000E+01 0.  1.
         -5    1    3    3    0  502  0.35293631035E+01 -0.26111496006E+02  0.13850817981E+01  0.26714368403E+02  0.41800000000E+01 0.  1.
        -11    1    1    2    0    0  0.33311277820E+02  0.66029874893E+02 -0.40360399776E+03  0.41032398493E+03  0.00000000000E+00 0. -1.
         11    1    1    2    0    0  0.19116648433E+02 -0.19993256791E+02 -0.46701053067E+02  0.54278586219E+02  0.00000000000E+00 0.  1.
</event>
<event>
 7    1  0.2666594E-009  0.2722369E+03  0.7561462E-02  0.1100006E+00
         -1   -1    0    0    0  501 -0.00000000000E+00  0.00000000000E+00  0.47207547417E+02  0.47207547417E+02  0.00000000000E+00 0.  1.
          1   -1    0    0  501    0  0.00000000000E+00 -0.00000000000E+00 -0.18509176605E+04  0.18509176605E+04  0.00000000000E+00 0. -1.
         25    2    1    2    0    0  0.47233563401E+02 -0.25333242021E+03 -0.12562956593E+04  0.12885395549E+04  0.12508827450E+03 0.  0.
          5    1    3    3  502    0  0.77207805515E+02 -0.20774247453E+03 -0.11189421806E+04  0.11406870985E+04  0.41800000000E+01 0.  1.
         -5    1    3    3    0  502 -0.29974242114E+02 -0.45589945688E+02 -0.13735347872E+03  0.14785245637E+03  0.41800000000E+01 0.  1.
        -11    1    1    2    0    0  0.15004237417E+02  0.12011909803E+03 -0.25604112061E+03  0.28321507780E+03  0.00000000000E+00 0. -1.
         11    1    1    2    0    0 -0.62237800817E+02  0.13321332218E+03 -0.29137333319E+03  0.32637057519E+03  0.00000000000E+00 0.  1.
</event>
<event>
 7    1  0.2666594E-009  0.7555102E+02  0.7561462E-02  0.1342173E+00
         -1   -1    0    0    0  501 -0.00000000000E+00  0.00000000000E+00  0.42561554491E+02  0.42561554491E+02  0.00000000000E+00 0.  1.
          1   -1    0    0  501    0  0.00000000000E+00 -0.00000000000E+00 -0.35685209085E+03  0.35685209085E+03  0.00000000000E+00 0. -1.
         25    2    1    2    0    0  0.38408449171E+01 -0.42708069365E+02 -0.24488407685E+03  0.27830619310E+03  0.12508954691E+03 0.  0.
          5    1    3    3  502    0 -0.12998549489E+02 -0.69066656501E+02 -0.23487601671E+03  0.24520069526E+03  0.41800000000E+01 0.  1.
         -5    1    3    3    0  502  0.16839394406E+02  0.26358587135E+02 -0.10008060136E+02  0.33105497843E+02  0.41800000000E+01 0.  1.
        -11    1    1    2    0    0 -0.13919254648E+02  0.28560634714E+02  0.14855752627E+02  0.35073478460E+02  0.00000000000E+00 0.  1.
         11    1    1    2    0    0  0.10078409731E+02  0.14147434652E+02 -0.84262212137E+02  0.86033973778E+02  0.00000000000E+00 0. -1.
</event>
<event>
 7    1  0.2666594E-009  0.9146565E+02  0.7561462E-02  0.1299341E+00
          2   -1    0    0  501    0  0.00000000000E+00  0.00000000000E+00  0.64957184447E+02  0.64957184447E+02  0.00000000000E+00 0. -1.
         -2   -1    0    0    0  501 -0.00000000000E+00 -0.00000000000E+00 -0.24794326550E+03  0.24794326550E+03  0.00000000000E+00 0.  1.
         25    2    1    2    0    0  0.61549995804E+02 -0.27561449268E+02 -0.10524661677E+03  0.17683418111E+03  0.12508174046E+03 0.  0.
          5    1    3    3  502    0 -0.79715259391E+01 -0.19730653672E+02  0.22421496433E+02  0.31193586238E+02  0.41800000000E+01 0. -1.
         -5    1    3    3    0  502  0.69521521743E+02 -0.78307955961E+01 -0.12766811320E+03  0.14564059487E+03  0.41800000000E+01 0. -1.
        -11    1    1    2    0    0 -0.74076368574E+02  0.20885781783E+02 -0.89206386379E+02  0.11781894429E+03  0.00000000000E+00 0.  1.
         11    1    1    2    0    0  0.12526372770E+02  0.66756674850E+01  0.11466922094E+02  0.18247324556E+02  0.00000000000E+00 0. -1.
</event>
<event>
 7    1  0.2666594E-009  0.1675481E+03  0.7561462E-02  0.1180429E+00
         -1   -1    0    0    0  501 -0.00000000000E+00  0.00000000000E+00  0.14861997528E+03  0.14861997528E+03  0.00000000000E+00 0.  1.
          1   -1    0    0  501    0  0.00000000000E+00 -0.00000000000E+00 -0.22020748341E+03  0.22020748341E+03  0.00000000000E+00 0. -1.
         25    2    1    2    0    0 -0.11920207821E+03  0.78697516851E+02 -0.18964646576E+02  0.19081083359E+03  0.12508669708E+03 0.  0.
          5    1    3    3  502    0 -0.18955993022E+02  0.86625415889E+02 -0.15416793298E+02  0.90102398775E+02  0.41800000000E+01 0.  1.
         -5    1    3    3    0  502 -0.10024608519E+03 -0.79278990381E+01 -0.35478532776E+01  0.10070843481E+03  0.41800000000E+01 0.  1.
        -11    1    1    2    0    0  0.66523803423E+02 -0.26772731412E+02 -0.71932696838E+02  0.10157021435E+03  0.00000000000E+00 0. -1.
         11    1    1    2    0    0  0.52678274791E+02 -0.51924785439E+02  0.19309835279E+02  0.76446410749E+02  0.00000000000E+00 0.  1.
</event>
<event>
 7    1  0.2666594E-009  0.2220968E+03  0.7561462E-02  0.1132329E+00
         -1   -1    0    0    0  501 -0.00000000000E+00  0.00000000000E+00  0.16075470450E+03  0.16075470450E+03  0.00000000000E+00 0.  1.
          1   -1    0    0  501    0  0.00000000000E+00 -0.00000000000E+00 -0.31592023229E+03  0.31592023229E+03  0.00000000000E+00 0. -1.
         25    2    1    2    0    0  0.51707752042E+02  0.19157451754E+03 -0.69144668152E+02  0.24454700350E+03  0.12509102443E+03 0.  0.
          5    1    3    3  502    0  0.61463215940E+01  0.18162642957E+03 -0.76372886967E+02  0.19717055422E+03  0.41800000000E+01 0.  1.
         -5    1    3    3    0  502  0.45561430448E+02  0.99480879725E+01  0.72282188150E+01  0.47376449276E+02  0.41800000000E+01 0.  1.
        -11    1    1    2    0    0 -0.61024897144E+02 -0.66825391627E+02 -0.37071283749E+02  0.97795455499E+02  0.00000000000E+00 0.  1.
         11    1    1    2    0    0  0.93171451019E+01 -0.12474912592E+03 -0.48949575894E+02  0.13433247779E+03  0.00000000000E+00 0. -1.
</event>
<event>
 7    1  0.3011574E-009  0.1557759E+03  0.7561462E-02  0.1193550E+00
         -2   -1    0    0    0  501 -0.00000000000E+00  0.00000000000E+00  0.96062087203E+02  0.96062087203E+02  0.00000000000E+00 0.  1.
          2   -1    0    0  501    0  0.00000000000E+00 -0.00000000000E+00 -0.34188875590E+03  0.34188875590E+03  0.00000000000E+00 0. -1.
         25    2    1    2    0    0  0.16186563309E+02 -0.13603829109E+03 -0.18684534529E+03  0.26330041430E+03  0.12508998217E+03 0.  0.
          5    1    3    3  502    0  0.47746331907E+02 -0.22760266858E+02 -0.11176736788E+03  0.12372210345E+03  0.41800000000E+01 0. -1.
         -5    1    3    3    0  502 -0.31559768598E+02 -0.11327802423E+03 -0.75077977406E+02  0.13957831085E+03  0.41800000000E+01 0. -1.
        -11    1    1    2    0    0 -0.20844143294E+02  0.44178524593E+02 -0.66333450510E+02  0.82379287454E+02  0.00000000000E+00 0. -1.
         11    1    1    2    0    0  0.46575799846E+01  0.91859766500E+02  0.73521271049E+01  0.92271141348E+02  0.00000000000E+00 0.  1.
</event>
<event>
 7    1  0.2666594E-009  0.1373270E+03  0.7561462E-02  0.1216972E+00
          1   -1    0    0  501    0  0.00000000000E+00  0.00000000000E+00  0.75665991060E+02  0.75665991060E+02  0.00000000000E+00 0. -1.
         -1   -1    0    0    0  501 -0.00000000000E+00 -0.00000000000E+00 -0.31185353801E+03  0.31185353801E+03  0.00000000000E+00 0.  1.
         25    2    1    2    0    0 -0.80766040700E+02  0.42605332747E+02 -0.52725428037E+02  0.16360291365E+03  0.12509026694E+03 0.  0.
          5    1    3    3  502    0 -0.97837585639E+02  0.68533920581E+02 -0.56213287525E+02  0.13208519042E+03  0.41800000000E+01 0. -1.
         -5    1    3    3    0  502  0.17071544940E+02 -0.25928587834E+02  0.34878594886E+01  0.31517723228E+02  0.41800000000E+01 0. -1.
        -11    1    1    2    0    0 -0.17158360825E+02 -0.37839920196E+00 -0.88365019712E+01  0.19303789764E+02  0.00000000000E+00 0.  1.
         11    1    1    2    0    0  0.97924401525E+02 -0.42226933545E+02 -0.17462561694E+03  0.20461282565E+03  0.00000000000E+00 0. -1.
</event>
<event>
 7    1  0.2666594E-009  0.7843024E+02  0.7561462E-02  0.1333566E+00
         -1   -1    0    0    0  501 -0.00000000000E+00  0.00000000000E+00  0.13355068698E+03  0.13355068698E+03  0.00000000000E+00 0.  1.
          1   -1    0    0  501    0  0.00000000000E+00 -0.00000000000E+00 -0.13048482341E+03  0.13048482341E+03  0.00000000000E+00 0. -1.
         25    2    1    2    0    0  0.80792440910E+01  0.29384516393E+02 -0.50334655760E+02  0.13824206638E+03  0.12509423391E+03 0.  0.
          5    1    3    3  502    0 -0.40914484681E+02  0.34416342577E+02  0.15587431440E+02  0.55847292790E+02  0.41800000000E+01 0.  1.
         -5    1    3    3    0  502  0.48993728772E+02 -0.50318261839E+01 -0.65922087200E+02  0.82394773588E+02  0.41800000000E+01 0.  1.
        -11    1    1    2    0    0 -0.21900915160E+01 -0.40853119309E+02  0.83535842292E+02  0.93016185719E+02  0.00000000000E+00 0.  1.
         11    1    1    2    0    0 -0.58891525751E+01  0.11468602916E+02 -0.30135322965E+02  0.32777258291E+02  0.00000000000E+00 0. -1.
</event>
<event>
 7    1  0.2666594E-009  0.9840294E+02  0.7561462E-02  0.1283691E+00
          1   -1    0    0  501    0  0.00000000000E+00  0.00000000000E+00  0.11310958097E+04  0.11310958097E+04  0.00000000000E+00 0. -1.
         -1   -1    0    0    0  501 -0.00000000000E+00 -0.00000000000E+00 -0.11721919003E+02  0.11721919003E+02  0.00000000000E+00 0.  1.
         25    2    1    2    0    0 -0.24538469070E+02 -0.62446689374E+01  0.88045539099E+03  0.88965704609E+03  0.12508729663E+03 0.  0.
          5    1    3    3  502    0  0.46532834445E+02  0.16604539178E+02  0.45365671496E+03  0.45635830532E+03  0.41800000000E+01 0. -1.
         -5    1    3    3    0  502 -0.71071303515E+02 -0.22849208115E+02  0.42679867602E+03  0.43329874077E+03  0.41800000000E+01 0. -1.
        -11    1    1    2    0    0  0.77247429812E+01  0.36785928952E+02  0.18620597289E+03  0.18996194504E+03  0.00000000000E+00 0. -1.
         11    1    1    2    0    0  0.16813726089E+02 -0.30541260015E+02  0.52712526845E+02  0.63198737603E+02  0.00000000000E+00 0.  1.
</event>
<event>
 7    1  0.2666594E-009  0.1662179E+03  0.7561462E-02  0.1181850E+00
         -1   -1    0    0    0  501 -0.00000000000E+00  0.00000000000E+00  0.33855369736E+02  0.33855369736E+02  0.00000000000E+00 0.  1.
          1   -1    0    0  501    0  0.00000000000E+00 -0.00000000000E+00 -0.11035404189E+04  0.11035404189E+04  0.00000000000E+00 0. -1.
         25    2    1    2    0    0  0.14791910712E+03 -0.49557905896E+02 -0.46396014479E+03  0.50521369249E+03  0.12508321566E+03 0.  0.
          5    1    3    3  502    0  0.12303247930E+03 -0.45556684404E+02 -0.19512596205E+03  0.23516805890E+03  0.41800000000E+01 0. -1.
         -5    1    3    3    0  502  0.24886627814E+02 -0.40012214920E+01 -0.26883418273E+03  0.27004563359E+03  0.41800000000E+01 0. -1.
        -11    1    1    2    0    0 -0.11113417798E+03  0.72106283271E+02 -0.38158430859E+03  0.40392660988E+03  0.00000000000E+00 0.  1.
         11    1    1    2    0    0 -0.36784929140E+02 -0.22548377376E+02 -0.22414059582E+03  0.22825548630E+03  0.00000000000E+00 0. -1.
</event>
<event>
 7    1  0.2666594E-009  0.7308237E+02  0.7561462E-02  0.1349914E+00
          2   -1    0    0  501    0  0.00000000000E+00  0.00000000000E+00  0.81552319174E+03  0.81552319174E+03  0.00000000000E+00 0.  1.
         -2   -1    0    0    0  501 -0.00000000000E+00 -0.00000000000E+00 -0.20437537317E+02  0.20437537317E+02  0.00000000000E+00 0. -1.
         25    2    1    2    0    0  0.39689060553E+02 -0.41459815928E+02  0.57545797375E+03  0.59168715514E+03  0.12509065571E+03 0.  0.
          5    1    3    3  502    0  0.30462715004E+02 -0.27100615403E+02  0.44730516188E+02  0.60668870429E+02  0.41800000000E+01 0. -1.
         -5    1    3    3    0  502  0.92263455491E+01 -0.14359200525E+02  0.53072745756E+03  0.53101828471E+03  0.41800000000E+01 0. -1.
        -11    1    1    2    0    0 -0.20160681409E+02  0.58382482724E+02  0.20599870187E+03  0.21505913730E+03  0.00000000000E+00 0.  1.
         11    1    1    2    0    0 -0.19528379144E+02 -0.16922666796E+02  0.13628978805E+02  0.29214436615E+02  0.00000000000E+00 0. -1.
</event>
<event>
 7    1  0.2666594E-009  0.1141197E+03  0.7561462E-02  0.1253126E+00
         -2   -1    0    0    0  501 -0.00000000000E+00  0.00000000000E+00  0.20313567873E+02  0.20313567873E+02  0.00000000000E+00 0.  1.
          2   -1    0    0  501    0  0.00000000000E+00 -0.00000000000E+00 -0.11217359096E+04  0.11217359096E+04  0.00000000000E+00 0. -1.
         25    2    1    2    0    0 -0.77165407235E+02 -0.25890412180E+02 -0.85115179913E+03  0.86413659618E+03  0.12509139932E+03 0.  0.
          5    1    3    3  502    0 -0.85094680564E+02 -0.62169741619E+02 -0.50004448315E+03  0.51104612215E+03  0.41800000000E+01 0.  1.
         -5    1    3    3    0  502  0.79292733286E+01  0.36279329439E+02 -0.35110731598E+03  0.35309047403E+03  0.41800000000E+01 0.  1.
        -11    1    1    2    0    0  0.59096552601E+02  0.74179419051E+01 -0.24421446866E+03  0.25137250266E+03  0.00000000000E+00 0. -1.
         11    1    1    2    0    0  0.18068854634E+02  0.18472470275E+02 -0.60560739275E+01  0.26540378619E+02  0.00000000000E+00 0.  1.
</event>
<event>
 7    1  0.2666594E-009  0.1553852E+03  0.7561462E-02  0.1194008E+00
          2   -1    0    0  501    0  0.00000000000E+00  0.00000000000E+00  0.15884833435E+03  0.15884833435E+03  0.00000000000E+00 0. -1.
         -2   -1    0    0    0  501 -0.00000000000E+00 -0.00000000000E+00 -0.15524278676E+03  0.15524278676E+03  0.00000000000E+00 0.  1.
         25    2    1    2    0    0  0.54526438262E+02  0.10695290059E+03  0.98993770200E+01  0.17365986735E+03  0.12509075285E+03 0.  0.
          5    1    3    3  502    0 -0.33081282007E+02  0.69227783406E+02 -0.51162861295E+01  0.77009778589E+02  0.41800000000E+01 0.  1.
         -5    1    3    3    0  502  0.87607720269E+02  0.37725117183E+02  0.15015663150E+02  0.96650088759E+02  0.41800000000E+01 0.  1.
        -11    1    1    2    0    0 -0.14330540221E+02 -0.95624618533E+02 -0.14781457804E+02  0.97815763287E+02  0.00000000000E+00 0. -1.
         11    1    1    2    0    0 -0.40195898040E+02 -0.11328282056E+02  0.84876283740E+01  0.42615490482E+02  0.00000000000E+00 0.  1.
</event>
<event>
 7    1  0.2666594E-009  0.1220145E+03  0.7561462E-02  0.1239810E+00
         -2   -1    0    0    0  501 -0.00000000000E+00  0.00000000000E+00  0.11427545450E+03  0.11427545450E+03  0.00000000000E+00 0.  1.
          2   -1    0    0  501    0  0.00000000000E+00 -0.00000000000E+00 -0.33037326797E+03  0.33037326797E+03  0.00000000000E+00 0. -1.
         25    2    1    2    0    0 -0.51983444875E+02  0.53072363049E+02  0.48671253772E+02  0.15341302617E+03  0.12509081258E+03 0.  0.
          5    1    3    3  502    0 -0.90030928391E+02  0.15936643343E+02  0.23810209089E+02  0.94572422645E+02  0.41800000000E+01 0. -1.
         -5    1    3    3    0  502  0.38047483517E+02  0.37135719706E+02  0.24861044684E+02  0.58840603522E+02  0.41800000000E+01 0. -1.
        -11    1    1    2    0    0  0.25398190094E+02 -0.65184672129E+02 -0.24772329258E+03  0.25741200288E+03  0.00000000000E+00 0. -1.
         11    1    1    2    0    0  0.26585254781E+02  0.12112309080E+02 -0.17045774656E+02  0.33823693421E+02  0.00000000000E+00 0.  1.
</event>
<event>
 7    1  0.2666594E-009  0.9279345E+02  0.7561462E-02  0.1296225E+00
         -1   -1    0    0    0  501 -0.00000000000E+00  0.00000000000E+00  0.97032069073E+02  0.97032069073E+02  0.00000000000E+00 0.  1.
          1   -1    0    0  501    0  0.00000000000E+00 -0.00000000000E+00 -0.14950802002E+03  0.14950802002E+03  0.00000000000E+00 0. -1.
         25    2    1    2    0    0  0.14073219779E+02 -0.54338784960E+02 -0.20539202475E+02  0.13863906917E+03  0.12509266004E+03 0.  0.
          5    1    3    3  502    0  0.40745289561E+02 -0.30549252627E+02  0.42228587333E+02  0.66288471438E+02  0.41800000000E+01 0.  1.
         -5    1    3    3    0  502 -0.26672069783E+02 -0.23789532334E+02 -0.62767789808E+02  0.72350597735E+02  0.41800000000E+01 0.  1.
        -11    1    1    2    0    0  0.22986432100E+01  0.73367758234E+02 -0.37140122093E+02  0.82264818592E+02  0.00000000000E+00 0.  1.
         11    1    1    2    0    0 -0.16371862989E+02 -0.19028973274E+02  0.52033736202E+01  0.25636201330E+02  0.00000000000E+00 0. -1.
</event>
<event>
 7    1  0.2666594E-009  0.1135294E+03  0.7561462E-02  0.1254170E+00
         -3   -1    0    0    0  501 -0.00000000000E+00  0.00000000000E+00  0.24174979770E+03  0.24174979770E+03  0.00000000000E+00 0.  1.
          3   -1    0    0  501    0  0.00000000000E+00 -0.00000000000E+00 -0.76297155506E+02  0.76297155506E+02  0.00000000000E+00 0. -1.
         25    2    1    2    0    0 -0.36088939568E+02 -0.45118370579E+02  0.15957567764E+03  0.21083168655E+03  0.12509006450E+03 0.  0.
          5    1    3    3  502    0  0.28138818240E+02  0.15445195257E+02  0.97762844573E+02  0.10298249039E+03  0.41800000000E+01 0.  1.
         -5    1    3    3    0  502 -0.64227757808E+02 -0.60563565835E+02  0.61812833065E+02  0.10784919615E+03  0.41800000000E+01 0.  1.
        -11    1    1    2    0    0  0.55964605973E+02  0.59571369254E+02 -0.83431038423E+00  0.81740328054E+02  0.00000000000E+00 0.  1.
         11    1    1    2    0    0 -0.19875666405E+02 -0.14452998676E+02  0.67112749433E+01  0.25474938609E+02  0.00000000000E+00 0. -1.
</event>
<event>
 7    1  0.2666594E-009  0.9194296E+02  0.7561462E-02  0.1298214E+00
         -4   -1    0    0    0  501 -0.00000000000E+00  0.00000000000E+00  0.17401733062E+03  0.17401733062E+03  0.00000000000E+00 0.  1.
          4   -1    0    0  501    0  0.00000000000E+00 -0.00000000000E+00 -0.84229267617E+02  0.84229267617E+02  0.00000000000E+00 0. -1.
         25    2    1    2    0    0 -0.12876306314E+02 -0.49799330858E+02  0.60215068850E+02  0.14805291967E+03  0.12509212560E+03 0.  0.
          5    1    3    3  502    0  0.54321068322E+02 -0.24683954286E+02  0.10638693390E+02  0.60751380724E+02  0.41800000000E+01 0. -1.
         -5    1    3    3    0  502 -0.67197374636E+02 -0.25115376572E+02  0.49576375460E+02  0.87301538944E+02  0.41800000000E+01 0. -1.
        -11    1    1    2    0    0  0.49487026149E+01  0.35679304471E+02  0.63271427851E+02  0.72806428338E+02  0.00000000000E+00 0.  1.
         11    1    1    2    0    0  0.79276036993E+01  0.14120026387E+02 -0.33698433702E+02  0.37387250227E+02  0.00000000000E+00 0. -1.
</event>
<event>
 7    1  0.2666594E-009  0.1159819E+03  0.7561462E-02  0.1249877E+00
         -2   -1    0    0    0  501 -0.00000000000E+00  0.00000000000E+00  0.23631783014E+03  0.23631783014E+03  0.00000000000E+00 0.  1.
          2   -1    0    0  501    0  0.00000000000E+00 -0.00000000000E+00 -0.85910205512E+02  0.85910205512E+02  0.00000000000E+00 0. -1.
         25    2    1    2    0    0 -0.11270447720E+02  0.79129272409E+02  0.13201130797E+03  0.19866050170E+03  0.12510213731E+03 0.  0.
          5    1    3    3  502    0  0.42109085971E+02  0.31983612609E+02  0.11299907403E+03  0.12482944256E+03  0.41800000000E+01 0. -1.
         -5    1    3    3    0  502 -0.53379533691E+02  0.47145659799E+02  0.19012233943E+02  0.73831059145E+02  0.41800000000E+01 0. -1.
        -11    1    1    2    0    0 -0.12189980457E+02  0.97791228579E+01 -0.18739020142E+02  0.24400363589E+02  0.00000000000E+00 0. -1.
         11    1    1    2    0    0  0.23460428177E+02 -0.88908395266E+02  0.37135336798E+02  0.99167170365E+02  0.00000000000E+00 0.  1.
</event>
<event>
 7    1  0.2666594E-009  0.7925866E+02  0.7561462E-02  0.1331169E+00
         -2   -1    0    0    0  501 -0.00000000000E+00  0.00000000000E+00  0.85601280805E+03  0.85601280805E+03  0.00000000000E+00 0.  1.
          2   -1    0    0  501    0  0.00000000000E+00 -0.00000000000E+00 -0.16010674344E+02  0.16010674344E+02  0.00000000000E+00 0. -1.
         25    2    1    2    0    0  0.59461533407E+01 -0.28280548885E+02  0.59961641708E+03  0.61320279509E+03  0.12507067641E+03 0.  0.
          5    1    3    3  502    0  0.14296351762E+02 -0.53251351397E+02  0.11247396330E+03  0.12533138841E+03  0.41800000000E+01 0.  1.
         -5    1    3    3    0  502 -0.83501984218E+01  0.24970802511E+02  0.48714245377E+03  0.48787140669E+03  0.41800000000E+01 0.  1.
        -11    1    1    2    0    0  0.13873094919E+02 -0.20018112234E+02  0.17727744371E+02  0.30124085058E+02  0.00000000000E+00 0.  1.
         11    1    1    2    0    0 -0.19819248260E+02  0.48298661120E+02  0.22265797226E+03  0.22869660225E+03  0.00000000000E+00 0. -1.
</event>
<event>
 7    1  0.2666594E-009  0.1698927E+03  0.7561462E-02  0.1177960E+00
         -2   -1    0    0    0  501 -0.00000000000E+00  0.00000000000E+00  0.36567302016E+02  0.36567302016E+02  0.00000000000E+00 0.  1.
          2   -1    0    0  501    0  0.00000000000E+00 -0.00000000000E+00 -0.90336583371E+03  0.90336583371E+03  0.00000000000E+00 0. -1.
         25    2    1    2    0    0 -0.89327115374E+01  0.14503377743E+03 -0.49944258892E+03  0.53498182636E+03  0.12509222592E+03 0.  0.
          5    1    3    3  502    0  0.54813073486E+02  0.58292219295E+02 -0.26751234923E+03  0.27925397982E+03  0.41800000000E+01 0. -1.
         -5    1    3    3    0  502 -0.63745785024E+02  0.86741558138E+02 -0.23193023968E+03  0.25572784654E+03  0.41800000000E+01 0. -1.
        -11    1    1    2    0    0  0.26456423090E+02 -0.68784603020E+02 -0.87679959088E+02  0.11453837419E+03  0.00000000000E+00 0.  1.
         11    1    1    2    0    0 -0.17523711553E+02 -0.76249174413E+02 -0.27967598368E+03  0.29041293517E+03  0.00000000000E+00 0. -1.
</event>
<event>
 7    1  0.2666594E-009  0.7652640E+02  0.7561462E-02  0.1339208E+00
         -2   -1    0    0    0  501 -0.00000000000E+00  0.00000000000E+00  0.36810554925E+02  0.36810554925E+02  0.00000000000E+00 0. -1.
          2   -1    0    0  501    0  0.00000000000E+00 -0.00000000000E+00 -0.33353890862E+03  0.33353890862E+03  0.00000000000E+00 0.  1.
         25    2    1    2    0    0  0.31041922604E+02 -0.19316703377E+02 -0.18656976912E+03  0.22757994868E+03  0.12509044051E+03 0.  0.
          5    1    3    3  502    0  0.23951217255E+02  0.22130888595E+02  0.33207282456E+01  0.33044465105E+02  0.41800000000E+01 0. -1.
         -5    1    3    3    0  502  0.70907053487E+01 -0.41447591972E+02 -0.18989049736E+03  0.19453548358E+03  0.41800000000E+01 0. -1.
        -11    1    1    2    0    0 -0.29022350137E+02 -0.22083698072E+02 -0.15870023099E+02  0.39772404518E+02  0.00000000000E+00 0. -1.
         11    1    1    2    0    0 -0.20195724668E+01  0.41400401449E+02 -0.94288561483E+02  0.10299711035E+03  0.00000000000E+00 0.  1.
</event>
<event>
 7    1  0.2666594E-009  0.1052014E+03  0.7561462E-02  0.1269723E+00
         -1   -1    0    0    0  501 -0.00000000000E+00  0.00000000000E+00  0.78343399008E+02  0.78343399008E+02  0.00000000000E+00 0.  1.
          1   -1    0    0  501    0  0.00000000000E+00 -0.00000000000E+00 -0.21909438294E+03  0.21909438294E+03  0.00000000000E+00 0. -1.
         25    2    1    2    0    0 -0.16382144527E+02  0.37614364980E+02 -0.12105576190E+02  0.13220202897E+03  0.12509043280E+03 0.  0.
          5    1    3    3  502    0  0.23152413085E+02  0.65614356894E+02 -0.35519528775E+02  0.78232904757E+02  0.41800000000E+01 0. -1.
         -5    1    3    3    0  502 -0.39534557612E+02 -0.27999991915E+02  0.23413952585E+02  0.53969124214E+02  0.41800000000E+01 0. -1.
        -11    1    1    2    0    0  0.40574914091E+02  0.71393246828E+01 -0.21151042016E+02  0.46310476016E+02  0.00000000000E+00 0.  1.
         11    1    1    2    0    0 -0.24192769564E+02 -0.44753689662E+02 -0.10749436573E+03  0.11892527696E+03  0.00000000000E+00 0. -1.
</event>
<event>
 7    1  0.2666594E-009  0.1428817E+03  0.7561462E-02  0.1209503E+00
         -2   -1    0    0    0  501 -0.00000000000E+00  0.00000000000E+00  0.15597850141E+02  0.15597850141E+02  0.00000000000E+00 0. -1.
          2   -1    0    0  501    0  0.00000000000E+00 -0.00000000000E+00 -0.14945348027E+04  0.14945348027E+04  0.00000000000E+00 0.  1.
         25    2    1    2    0    0 -0.57219118729E+02  0.84800523030E+02 -0.10368588079E+04  0.10493753437E+04  0.12508904126E+03 0.  0.
          5    1    3    3  502    0 -0.85189115903E+02  0.97961847291E+02 -0.80105033373E+03  0.81151267308E+03  0.41800000000E+01 0.  1.
         -5    1    3    3    0  502  0.27969997173E+02 -0.13161324261E+02 -0.23580847415E+03  0.23786267063E+03  0.41800000000E+01 0.  1.
        -11    1    1    2    0    0  0.68208192444E+02 -0.41130499254E+02 -0.21551862002E+03  0.22976586139E+03  0.00000000000E+00 0.  1.
         11    1    1    2    0    0 -0.10989073714E+02 -0.43670023776E+02 -0.22655952467E+03  0.23099144775E+03  0.00000000000E+00 0. -1.
</event>
<event>
 7    1  0.2666594E-009  0.1247556E+03  0.7561462E-02  0.1235452E+00
         -3   -1    0    0    0  501 -0.00000000000E+00  0.00000000000E+00  0.12714823467E+03  0.12714823467E+03  0.00000000000E+00 0. -1.
          3   -1    0    0  501    0  0.00000000000E+00 -0.00000000000E+00 -0.18066480516E+03  0.18066480516E+03  0.00000000000E+00 0.  1.
         25    2    1    2    0    0  0.18714485338E+02  0.10197232398E+03 -0.10024930442E+02  0.16277734910E+03  0.12508948529E+03 0.  0.
          5    1    3    3  502    0  0.20309174156E+02  0.12745418185E+02 -0.56900539827E+02  0.61887414489E+02  0.41800000000E+01 0. -1.
         -5    1    3    3    0  502 -0.15946888178E+01  0.89226905795E+02  0.46875609384E+02  0.10088993461E+03  0.41800000000E+01 0. -1.
        -11    1    1    2    0    0 -0.25764000048E+01  0.16281108776E+02  0.33544263753E+01  0.16821549164E+02  0.00000000000E+00 0.  1.
         11    1    1    2    0    0 -0.16138085333E+02 -0.11825343276E+03 -0.46846066421E+02  0.12821414156E+03  0.00000000000E+00 0. -1.
</event>
<event>
 7    1  0.2666594E-009  0.9696322E+02  0.7561462E-02  0.1286815E+00
          4   -1    0    0  501    0  0.00000000000E+00  0.00000000000E+00  0.79650795279E+02  0.79650795279E+02  0.00000000000E+00 0. -1.
         -4   -1    0    0    0  501 -0.00000000000E+00 -0.00000000000E+00 -0.23899067007E+03  0.23899067007E+03  0.00000000000E+00 0.  1.
         25    2    1    2    0    0  0.79416520094E+01 -0.36027104132E+02 -0.17802226684E+03  0.22068389636E+03  0.12509369510E+03 0.  0.
          5    1    3    3  502    0 -0.47080282440E+02  0.20352811921E+02 -0.73818933628E+02  0.89986095091E+02  0.41800000000E+01 0.  1.
         -5    1    3    3    0  502  0.55021934449E+02 -0.56379916053E+02 -0.10420333321E+03  0.13069780127E+03  0.41800000000E+01 0.  1.
        -11    1    1    2    0    0  0.22218565016E+02  0.14925010911E+02 -0.27849546641E+02  0.38626646634E+02  0.00000000000E+00 0.  1.
         11    1    1    2    0    0 -0.30160217026E+02  0.21102093221E+02  0.46531938688E+02  0.59330922355E+02  0.00000000000E+00 0. -1.
</event>
<event>
 7    1  0.2666594E-009  0.2146221E+03  0.7561462E-02  0.1137957E+00
         -2   -1    0    0    0  501 -0.00000000000E+00  0.00000000000E+00  0.76286283572E+02  0.76286283572E+02  0.00000000000E+00 0.  1.
          2   -1    0    0  501    0  0.00000000000E+00 -0.00000000000E+00 -0.67753151751E+03  0.67753151751E+03  0.00000000000E+00 0. -1.
         25    2    1    2    0    0 -0.51692060095E+01  0.19622342912E+03 -0.25120675700E+03  0.34246501800E+03  0.12508836461E+03 0.  0.
          5    1    3    3  502    0  0.15464928660E+02 -0.14069349036E+02 -0.25937306020E+02  0.33575688292E+02  0.41800000000E+01 0.  1.
         -5    1    3    3    0  502 -0.20634134669E+02  0.21029277816E+03 -0.22526945098E+03  0.30888932970E+03  0.41800000000E+01 0.  1.
        -11    1    1    2    0    0 -0.28713630380E+01 -0.92554594882E+02 -0.81391425665E+02  0.12328488120E+03  0.00000000000E+00 0.  1.
         11    1    1    2    0    0  0.80405690475E+01 -0.10366883424E+03 -0.26864705127E+03  0.28806790189E+03  0.00000000000E+00 0. -1.
</event>
<event>
 7    1  0.2666594E-009  0.1273000E+03  0.7561462E-02  0.1231518E+00
         -2   -1    0    0    0  501 -0.00000000000E+00  0.00000000000E+00  0.78426737857E+02  0.78426737857E+02  0.00000000000E+00 0.  1.
          2   -1    0    0  501    0  0.00000000000E+00 -0.00000000000E+00 -0.22214894828E+03  0.22214894828E+03  0.00000000000E+00 0. -1.
         25    2    1    2    0    0  0.47975726191E+02  0.46847859594E+02 -0.11803711092E+03  0.18459870972E+03  0.12509009482E+03 0.  0.
          5    1    3    3  502    0  0.90133836151E+02  0.39870121817E+02 -0.88059165936E+02  0.13223321874E+03  0.41800000000E+01 0. -1.
         -5    1    3    3    0  502 -0.42158109960E+02  0.69777377774E+01 -0.29977944988E+02  0.52365490980E+02  0.41800000000E+01 0. -1.
        -11    1    1    2    0    0  0.99388562404E+01 -0.53779044040E+02 -0.14601364145E+02  0.56605355543E+02  0.00000000000E+00 0.  1.
         11    1    1    2    0    0 -0.57914582431E+02  0.69311844458E+01 -0.11083735357E+02  0.59371620876E+02  0.00000000000E+00 0. -1.
</event>
<event>
 7    1  0.2666594E-009  0.9038371E+02  0.7561462E-02  0.1301925E+00
         -1   -1    0    0    0  501 -0.00000000000E+00  0.00000000000E+00  0.45800243501E+03  0.45800243501E+03  0.00000000000E+00 0.  1.
          1   -1    0    0  501    0  0.00000000000E+00 -0.00000000000E+00 -0.40810705140E+02  0.40810705140E+02  0.00000000000E+00 0. -1.
         25    2    1    2    0    0 -0.72672806824E+02 -0.28141819261E+02  0.17357465725E+03  0.22770178576E+03  0.12508654106E+03 0.  0.
          5    1    3    3  502    0  0.34912936130E+01 -0.13762193297E+02 -0.16633339529E+02  0.22264938341E+02  0.41800000000E+01 0.  1.
         -5    1    3    3    0  502 -0.76164100437E+02 -0.14379625965E+02  0.19020799678E+03  0.20543684742E+03  0.41800000000E+01 0.  1.
        -11    1    1    2    0    0  0.33255549639E+02  0.35061671234E+02  0.21868439126E+03  0.22396007535E+03  0.00000000000E+00 0.  1.
         11    1    1    2    0    0  0.39417257185E+02 -0.69198519723E+01  0.24932681366E+02  0.47151279043E+02  0.00000000000E+00 0. -1.
</event>
<event>
 7    1  0.2666594E-009  0.1377308E+03  0.7561462E-02  0.1216415E+00
         -2   -1    0    0    0  501 -0.00000000000E+00  0.00000000000E+00  0.31385275431E+02  0.31385275431E+02  0.00000000000E+00 0.  1.
          2   -1    0    0  501    0  0.00000000000E+00 -0.00000000000E+00 -0.71698650019E+03  0.71698650019E+03  0.00000000000E+00 0. -1.
         25    2    1    2    0    0 -0.56483450409E+02 -0.84374677131E+02 -0.36414341537E+03  0.39819302245E+03  0.12509112622E+03 0.  0.
          5    1    3    3  502    0  0.26739216970E+02 -0.71484731916E+02 -0.15994390568E+03  0.17726978870E+03  0.41800000000E+01 0. -1.
         -5    1    3    3    0  502 -0.83222667379E+02 -0.12889945215E+02 -0.20419950969E+03  0.22092323375E+03  0.41800000000E+01 0. -1.
        -11    1    1    2    0    0  0.56967962193E+02  0.38337123001E+02 -0.84952045859E+02  0.10923339147E+03  0.00000000000E+00 0.  1.
         11    1    1    2    0    0 -0.48451178432E+00  0.46037554130E+02 -0.23650576353E+03  0.24094536170E+03  0.00000000000E+00 0. -1.
</event>
<event>
 7    1  0.2666594E-009  0.1096018E+03  0.7561462E-02  0.1261309E+00
         -3   -1    0    0    0  501 -0.00000000000E+00  0.00000000000E+00  0.45875848287E+02  0.45875848287E+02  0.00000000000E+00 0.  1.
          3   -1    0    0  501    0  0.00000000000E+00 -0.00000000000E+00 -0.29513013020E+03  0.29513013020E+03  0.00000000000E+00 0. -1.
         25    2    1    2    0    0  0.29766301142E+02  0.30541069962E+02 -0.12736909712E+03  0.18354572891E+03  0.12508940028E+03 0.  0.
          5    1    3    3  502    0  0.63534878445E+02 -0.23406836231E+02 -0.73907943177E+02  0.10032156910E+03  0.41800000000E+01 0.  1.
         -5    1    3    3    0  502 -0.33768577303E+02  0.53947906193E+02 -0.53461153945E+02  0.83224159815E+02  0.41800000000E+01 0.  1.
        -11    1    1    2    0    0 -0.54259866397E+02 -0.90731810177E+01 -0.36359877849E+02  0.65943130290E+02  0.00000000000E+00 0.  1.
         11    1    1    2    0    0  0.24493565255E+02 -0.21467888944E+02 -0.85525306941E+02  0.91517119284E+02  0.00000000000E+00 0. -1.
</event>
<event>
 7    1  0.2666594E-009  0.1218004E+03  0.7561462E-02  0.1240156E+00
          2   -1    0    0  501    0  0.00000000000E+00  0.00000000000E+00  0.42890955474E+03  0.42890955474E+03  0.00000000000E+00 0. -1.
         -2   -1    0    0    0  501 -0.00000000000E+00 -0.00000000000E+00 -0.41575863705E+02  0.41575863705E+02  0.00000000000E+00 0.  1.
         25    2    1    2    0    0 -0.67205949932E+02  0.94173639994E+00  0.15974611473E+03  0.21373481921E+03  0.12508487198E+03 0.  0.
          5    1    3    3  502    0 -0.88967233063E+02 -0.24705431859E+02  0.64692273289E+02  0.11281883507E+03  0.41800000000E+01 0. -1.
         -5    1    3    3    0  502  0.21761283131E+02  0.25647168259E+02  0.95053841445E+02  0.10091598415E+03  0.41800000000E+01 0. -1.
        -11    1    1    2    0    0  0.70022495886E+02 -0.38301102811E+02  0.13437768517E+03  0.15629295147E+03  0.00000000000E+00 0. -1.
         11    1    1    2    0    0 -0.28165459537E+01  0.37359366411E+02  0.93209891131E+02  0.10045764776E+03  0.00000000000E+00 0.  1.
</event>
<event>
 7    1  0.2666594E-009  0.1869912E+03  0.7561462E-02  0.1161203E+00
          2   -1    0    0  501    0  0.00000000000E+00  0.00000000000E+00  0.25057437293E+04  0.25057437293E+04  0.00000000000E+00 0. -1.
         -2   -1    0    0    0  501 -0.00000000000E+00 -0.00000000000E+00 -0.19063519847E+02  0.19063519847E+02  0.00000000000E+00 0.  1.
         25    2    1    2    0    0  0.17513039198E+03  0.11804078011E+02  0.16769066549E+04  0.16907018127E+04  0.12508676829E+03 0.  0.
          5    1    3    3  502    0  0.13519941868E+03  0.48395383770E+02  0.85356976643E+03  0.86557484629E+03  0.41800000000E+01 0.  1.
         -5    1    3    3    0  502  0.39930973298E+02 -0.36591305759E+02  0.82333688850E+03  0.82512696638E+03  0.41800000000E+01 0.  1.
        -11    1    1    2    0    0 -0.30299152833E+02  0.28286939955E+01  0.37800199780E+02  0.48527263220E+02  0.00000000000E+00 0.  1.
         11    1    1    2    0    0 -0.14483123914E+03 -0.14632772006E+02  0.77197335474E+03  0.78557817324E+03  0.00000000000E+00 0. -1.
</event>
<event>
 7    1  0.2666594E-009  0.1411972E+03  0.7561462E-02  0.1211727E+00
         -1   -1    0    0    0  501 -0.00000000000E+00  0.00000000000E+00  0.26692350174E+02  0.26692350174E+02  0.00000000000E+00 0.  1.
          1   -1    0    0  501    0  0.00000000000E+00 -0.00000000000E+00 -0.79684593984E+03  0.79684593984E+03  0.00000000000E+00 0. -1.
         25    2    1    2    0    0  0.90075005889E+02 -0.19695983124E+02 -0.33705205243E+03  0.37115249727E+03  0.12509457120E+03 0.  0.
          5    1    3    3  502    0  0.10715830872E+03  0.21022797726E+02 -0.21277825819E+03  0.23920058677E+03  0.41800000000E+01 0.  1.
         -5    1    3    3    0  502 -0.17083302832E+02 -0.40718780850E+02 -0.12427379424E+03  0.13195191050E+03  0.41800000000E+01 0.  1.
        -11    1    1    2    0    0 -0.31728457711E+02  0.52855900867E+02 -0.24619017966E+03  0.25379134313E+03  0.00000000000E+00 0. -1.
         11    1    1    2    0    0 -0.58346548178E+02 -0.33159917743E+02 -0.18691135758E+03  0.19859444962E+03  0.00000000000E+00 0.  1.
</event>
<event>
 7    1  0.2666594E-009  0.1181499E+03  0.7561462E-02  0.1246181E+00
         -1   -1    0    0    0  501 -0.00000000000E+00  0.00000000000E+00  0.37793453439E+02  0.37793453439E+02  0.00000000000E+00 0.  1.
          1   -1    0    0  501    0  0.00000000000E+00 -0.00000000000E+00 -0.69638612747E+03  0.69638612747E+03  0.00000000000E+00 0. -1.
         25    2    1    2    0    0  0.50181586501E+02  0.44467958021E+02 -0.12607624306E+03  0.18984048757E+03  0.12509436734E+03 0.  0.
          5    1    3    3  502    0  0.15507171918E+02  0.75365744856E+02 -0.12028512453E+03  0.14285115142E+03  0.41800000000E+01 0.  1.
         -5    1    3    3    0  502  0.34674414583E+02 -0.30897786835E+02 -0.57911185339E+01  0.46989336150E+02  0.41800000000E+01 0.  1.
        -11    1    1    2    0    0  0.25084598665E+02 -0.23752157318E+02 -0.14800668304E+03  0.15198480284E+03  0.00000000000E+00 0. -1.
         11    1    1    2    0    0 -0.75266185167E+02 -0.20715800703E+02 -0.38450974793E+03  0.39235429051E+03  0.00000000000E+00 0.  1.
</event>
<event>
 7    1  0.2666594E-009  0.8843788E+02  0.7561462E-02  0.1306679E+00
          2   -1    0    0  501    0  0.00000000000E+00  0.00000000000E+00  0.40443914116E+02  0.40443914116E+02  0.00000000000E+00 0. -1.
         -2   -1    0    0    0  501 -0.00000000000E+00 -0.00000000000E+00 -0.55859689392E+03  0.55859689392E+03  0.00000000000E+00 0.  1.
         25    2    1    2    0    0 -0.13585659741E+02 -0.37430901921E+02 -0.46774082563E+03  0.48581278856E+03  0.12508774122E+03 0.  0.
          5    1    3    3  502    0  0.52845184720E+02 -0.46507410636E+01 -0.13984798371E+03  0.14963012360E+03  0.41800000000E+01 0. -1.
         -5    1    3    3    0  502 -0.66430844462E+02 -0.32780160857E+02 -0.32789284192E+03  0.33618266497E+03  0.41800000000E+01 0. -1.
        -11    1    1    2    0    0 -0.57973862979E+01  0.26676364934E+02 -0.75183808204E+02  0.79986518552E+02  0.00000000000E+00 0.  1.
         11    1    1    2    0    0  0.19383046039E+02  0.10754536986E+02  0.24771654033E+02  0.33241500915E+02  0.00000000000E+00 0. -1.
</event>
<event>
 7    1  0.2666594E-009  0.1196726E+03  0.7561462E-02  0.1243638E+00
          4   -1    0    0  501    0  0.00000000000E+00  0.00000000000E+00  0.62192171273E+02  0.62192171273E+02  0.00000000000E+00 0. -1.
         -4   -1    0    0    0  501 -0.00000000000E+00 -0.00000000000E+00 -0.24226023722E+03  0.24226023722E+03  0.00000000000E+00 0.  1.
         25    2    1    2    0    0 -0.33748342025E+02 -0.39681940717E+02 -0.13043761178E+03  0.18808223467E+03  0.12508936574E+03 0.  0.
          5    1    3    3  502    0  0.34452978750E+02  0.22930797676E+02 -0.52553332185E+02  0.67023535795E+02  0.41800000000E+01 0. -1.
         -5    1    3    3    0  502 -0.68201320775E+02 -0.62612738393E+02 -0.77884279600E+02  0.12105869888E+03  0.41800000000E+01 0. -1.
        -11    1    1    2    0    0  0.15370888836E+02  0.68877733691E+02 -0.30058052220E+02  0.76706537695E+02  0.00000000000E+00 0. -1.
         11    1    1    2    0    0  0.18377453190E+02 -0.29195792973E+02 -0.19572401945E+02  0.39663636129E+02  0.00000000000E+00 0.  1.
</event>
<event>
 7    1  0.2666594E-009  0.1302089E+03  0.7561462E-02  0.1227146E+00
          3   -1    0    0  501    0  0.00000000000E+00  0.00000000000E+00  0.32484623367E+03  0.32484623367E+03  0.00000000000E+00 0. -1.
         -3   -1    0    0    0  501 -0.00000000000E+00 -0.00000000000E+00 -0.73590112432E+02  0.73590112432E+02  0.00000000000E+00 0.  1.
         25    2    1    2    0    0  0.47744118446E+02 -0.63935980996E+02  0.23709907884E+03  0.27969759244E+03  0.12508980581E+03 0.  0.
          5    1    3    3  502    0  0.49690587099E+02 -0.10005925999E+03  0.18431839578E+03  0.21557308129E+03  0.41800000000E+01 0. -1.
         -5    1    3    3    0  502 -0.19464686526E+01  0.36123278992E+02  0.52780683065E+02  0.64124511150E+02  0.41800000000E+01 0. -1.
        -11    1    1    2    0    0  0.34135261719E+01 -0.16516152365E+02  0.16188573236E+02  0.23377453952E+02  0.00000000000E+00 0. -1.
         11    1    1    2    0    0 -0.51157644618E+02  0.80452133361E+02 -0.20315308374E+01  0.95361299712E+02  0.00000000000E+00 0.  1.
</event>
<event>
 7    1  0.2666594E-009  0.7827867E+02  0.7561462E-02  0.1334009E+00
          2   -1    0    0  501    0  0.00000000000E+00  0.00000000000E+00  0.10816682653E+04  0.10816682653E+04  0.00000000000E+00 0. -1.
         -2   -1    0    0    0  501 -0.00000000000E+00 -0.00000000000E+00 -0.15710761102E+02  0.15710761102E+02  0.00000000000E+00 0.  1.
         25    2    1    2    0    0 -0.13556636556E+02 -0.47865600147E+02  0.76080917968E+03  0.77262685106E+03  0.12508694982E+03 0.  0.
          5    1    3    3  502    0 -0.29993149895E+01  0.17983681817E+02  0.15400845194E+02  0.24229468315E+02  0.41800000000E+01 0. -1.
         -5    1    3    3    0  502 -0.10557321566E+02 -0.65849281965E+02  0.74540833449E+03  0.74839738274E+03  0.41800000000E+01 0. -1.
        -11    1    1    2    0    0  0.28997240936E+02  0.47421060272E+02  0.30424281342E+03  0.30927865503E+03  0.00000000000E+00 0. -1.
         11    1    1    2    0    0 -0.15440604380E+02  0.44453987527E+00  0.90551105372E+00  0.15473520272E+02  0.00000000000E+00 0.  1.
</event>
<event>
 7    1  0.2666594E-009  0.7655978E+02  0.7561462E-02  0.1339108E+00
          3   -1    0    0  501    0  0.00000000000E+00  0.00000000000E+00  0.75408806440E+02  0.75408806440E+02  0.00000000000E+00 0. -1.
         -3   -1    0    0    0  501 -0.00000000000E+00 -0.00000000000E+00 -0.20343466524E+03  0.20343466524E+03  0.00000000000E+00 0.  1.
         25    2    1    2    0    0 -0.44508726241E+02 -0.41033537492E+02 -0.69831430029E+02  0.15552369348E+03  0.12508562149E+03 0.  0.
          5    1    3    3  502    0  0.14233513602E+01 -0.35962441361E+02  0.28956339669E+02  0.46381732662E+02  0.41800000000E+01 0. -1.
         -5    1    3    3    0  502 -0.45932077602E+02 -0.50710961304E+01 -0.98787769698E+02  0.10914196082E+03  0.41800000000E+01 0. -1.
        -11    1    1    2    0    0  0.70877326687E+01  0.30922352269E+02  0.18972131972E+02  0.36964437177E+02  0.00000000000E+00 0. -1.
         11    1    1    2    0    0  0.37420993573E+02  0.10111185223E+02 -0.77166560740E+02  0.86355341022E+02  0.00000000000E+00 0.  1.
</event>
<event>
 7    1  0.2666594E-009  0.8764489E+02  0.7561462E-02  0.1308657E+00
          3   -1    0    0  501    0  0.00000000000E+00  0.00000000000E+00  0.32756652610E+03  0.32756652610E+03  0.00000000000E+00 0. -1.
         -3   -1    0    0    0  501 -0.00000000000E+00 -0.00000000000E+00 -0.56589063020E+02  0.56589063020E+02  0.00000000000E+00 0.  1.
         25    2    1    2    0    0 -0.48076510584E+02 -0.99020861768E-01  0.57232708446E+02  0.14571993119E+03  0.12508938706E+03 0.  0.
          5    1    3    3  502    0 -0.23345822377E+02  0.57955211853E+02  0.34722019739E+01  0.62716525653E+02  0.41800000000E+01 0.  1.
         -5    1    3    3    0  502 -0.24730688207E+02 -0.58054232715E+02  0.53760506472E+02  0.83003405541E+02  0.41800000000E+01 0.  1.
        -11    1    1    2    0    0  0.38310866115E+02  0.47644540903E+01  0.22167930116E+03  0.22501585511E+03  0.00000000000E+00 0. -1.
         11    1    1    2    0    0  0.97656444687E+01 -0.46654332286E+01 -0.79345465290E+01  0.13419802820E+02  0.00000000000E+00 0.  1.
</event>
<event>
 7    1  0.2666594E-009  0.1046272E+03  0.7561462E-02  0.1270856E+00
          1   -1    0    0  501    0  0.00000000000E+00  0.00000000000E+00  0.30588324931E+03  0.30588324931E+03  0.00000000000E+00 0. -1.
         -1   -1    0    0    0  501 -0.00000000000E+00 -0.00000000000E+00 -0.50020765717E+02  0.50020765717E+02  0.00000000000E+00 0.  1.
         25    2    1    2    0    0  0.21564489039E+02 -0.35524772525E+02  0.82200417207E+02  0.15534741800E+03  0.12509546371E+03 0.  0.
          5    1    3    3  502    0 -0.10746198442E+02  0.33679861326E+02  0.69117577723E+02  0.77746548413E+02  0.41800000000E+01 0.  1.
         -5    1    3    3    0  502  0.32310687481E+02 -0.69204633851E+02  0.13082839484E+02  0.77600869588E+02  0.41800000000E+01 0.  1.
        -11    1    1    2    0    0 -0.37071017729E+02  0.58613463420E+02  0.98937828791E+02  0.12082422115E+03  0.00000000000E+00 0.  1.
         11    1    1    2    0    0  0.15506528690E+02 -0.23088690895E+02  0.74724237593E+02  0.79732375878E+02  0.00000000000E+00 0. -1.
</event>
<event>
 7    1  0.2666594E-009  0.1192612E+03  0.7561462E-02  0.1244321E+00
         -1   -1    0    0    0  501 -0.00000000000E+00  0.00000000000E+00  0.38756011908E+02  0.38756011908E+02  0.00000000000E+00 0.  1.
          1   -1    0    0  501    0  0.00000000000E+00 -0.00000000000E+00 -0.46839155639E+03  0.46839155639E+03  0.00000000000E+00 0. -1.
         25    2    1    2    0    0  0.57569909149E+02  0.44736498756E+02 -0.17650266192E+03  0.22828833715E+03  0.12508687563E+03 0.  0.
          5    1    3    3  502    0  0.69428668264E+01  0.76629174173E+02 -0.13468152037E+03  0.15516706501E+03  0.41800000000E+01 0.  1.
         -5    1    3    3    0  502  0.50627042323E+02 -0.31892675417E+02 -0.41821141554E+02  0.73121272148E+02  0.41800000000E+01 0.  1.
        -11    1    1    2    0    0 -0.41695539397E+02  0.11335729724E+02 -0.18121036064E+03  0.18629066422E+03  0.00000000000E+00 0. -1.
         11    1    1    2    0    0 -0.15874369752E+02 -0.56072228480E+02 -0.71922521919E+02  0.92568566917E+02  0.00000000000E+00 0.  1.
</event>
<event>
 7    1  0.2666594E-009  0.1189292E+03  0.7561462E-02  0.1244874E+00
          1   -1    0    0  501    0  0.00000000000E+00  0.00000000000E+00  0.54258242698E+03  0.54258242698E+03  0.00000000000E+00 0. -1.
         -1   -1    0    0    0  501 -0.00000000000E+00 -0.00000000000E+00 -0.36313086325E+02  0.36313086325E+02  0.00000000000E+00 0.  1.
         25    2    1    2    0    0  0.73451285577E+02 -0.15568255970E+02  0.17780970636E+03  0.23000170559E+03  0.12508809277E+03 0.  0.
          5    1    3    3  502    0  0.50264020992E+02  0.42742875277E+02  0.36945312353E+02  0.75735419046E+02  0.41800000000E+01 0.  1.
         -5    1    3    3    0  502  0.23187264585E+02 -0.58311131247E+02  0.14086439401E+03  0.15426628655E+03  0.41800000000E+01 0.  1.
        -11    1    1    2    0    0 -0.82529983442E+02  0.33251516692E+02  0.30703784236E+03  0.31967029604E+03  0.00000000000E+00 0. -1.
         11    1    1    2    0    0  0.90786978651E+01 -0.17683260722E+02  0.21421791935E+02  0.29223511671E+02  0.00000000000E+00 0.  1.
</event>
<event>
 7    1  0.2666594E-009  0.9331319E+02  0.7561462E-02  0.1295021E+00
         -1   -1    0    0    0  501 -0.00000000000E+00  0.00000000000E+00  0.81321280590E+02  0.81321280590E+02  0.00000000000E+00 0.  1.
          1   -1    0    0  501    0  0.00000000000E+00 -0.00000000000E+00 -0.15093170193E+03  0.15093170193E+03  0.00000000000E+00 0. -1.
         25    2    1    2    0    0 -0.10178546271E+02 -0.86909322668E+01 -0.52671842610E+02  0.13638662701E+03  0.12509138226E+03 0.  0.
          5    1    3    3  502    0 -0.53297700925E+02 -0.44457032378E+02 -0.31786474442E+02  0.76452109253E+02  0.41800000000E+01 0. -1.
         -5    1    3    3    0  502  0.43119154653E+02  0.35766100112E+02 -0.20885368169E+02  0.59934517757E+02  0.41800000000E+01 0. -1.
        -11    1    1    2    0    0  0.34960596350E+02  0.91249112745E+01  0.27213016297E+02  0.45233345652E+02  0.00000000000E+00 0.  1.
         11    1    1    2    0    0 -0.24782050078E+02 -0.43397900767E+00 -0.44151595026E+02  0.50633009857E+02  0.00000000000E+00 0. -1.
</event>
<event>
 7    1  0.3045763E-009  0.7330831E+02  0.7561462E-02  0.1349191E+00
          2   -1    0    0  501    0  0.00000000000E+00  0.00000000000E+00  0.73395466788E+02  0.73395466788E+02  0.00000000000E+00 0. -1.
         -2   -1    0    0    0  501 -0.00000000000E+00 -0.00000000000E+00 -0.26207222358E+03  0.26207222358E+03  0.00000000000E+00 0.  1.
         25    2    1    2    0    0 -0.43514006425E+01  0.50816980601E+02 -0.18856591173E+03  0.23195854396E+03  0.12508542219E+03 0.  0.
          5    1    3    3  502    0  0.25206670982E+02  0.59281647676E+02 -0.19023031089E+03  0.20088487647E+03  0.41800000000E+01 0. -1.
         -5    1    3    3    0  502 -0.29558071625E+02 -0.84646670749E+01  0.16643991580E+01  0.31073667492E+02  0.41800000000E+01 0. -1.
        -11    1    1    2    0    0  0.37449261629E+01 -0.33912571983E+02 -0.44460572530E+02  0.56043104127E+02  0.00000000000E+00 0.  1.
         11    1    1    2    0    0  0.60647447965E+00 -0.16904408618E+02  0.44349727475E+02  0.47466042273E+02  0.00000000000E+00 0. -1.
</event>
<event>
 7    1  0.2666594E-009  0.1033827E+03  0.7561462E-02  0.1273339E+00
         -1   -1    0    0    0  501 -0.00000000000E+00  0.00000000000E+00  0.12599386113E+02  0.12599386113E+02  0.00000000000E+00 0.  1.
          1   -1    0    0  501    0  0.00000000000E+00 -0.00000000000E+00 -0.12277542791E+04  0.12277542791E+04  0.00000000000E+00 0. -1.
         25    2    1    2    0    0  0.17908334149E+02  0.20668584720E+01 -0.96196542759E+03  0.97023177227E+03  0.12508887921E+03 0.  0.
          5    1    3    3  502    0 -0.51864726410E+02 -0.15530374742E+02 -0.41158771493E+03  0.41515426273E+03  0.41800000000E+01 0.  1.
         -5    1    3    3    0  502  0.69773060559E+02  0.17597233214E+02 -0.55037771266E+03  0.55507750954E+03  0.41800000000E+01 0.  1.
        -11    1    1    2    0    0 -0.29033479395E+02 -0.35086691289E+02 -0.69057538298E+02  0.82722200328E+02  0.00000000000E+00 0.  1.
         11    1    1    2    0    0  0.11125145246E+02  0.33019832817E+02 -0.18413192710E+03  0.18739969262E+03  0.00000000000E+00 0. -1.
</event>
<event>
 7    1  0.2666594E-009  0.1906947E+03  0.7561462E-02  0.1157836E+00
         -2   -1    0    0    0  501 -0.00000000000E+00  0.00000000000E+00  0.12657179628E+03  0.12657179628E+03  0.00000000000E+00 0.  1.
          2   -1    0    0  501    0  0.00000000000E+00 -0.00000000000E+00 -0.31597946890E+03  0.31597946890E+03  0.00000000000E+00 0. -1.
         25    2    1    2    0    0 -0.77060185732E+02  0.13934337704E+03 -0.38265907981E+02  0.20607509098E+03  0.12509122455E+03 0.  0.
          5    1    3    3  502    0 -0.10439294718E+03  0.14011621062E+03 -0.31454042390E+02  0.17758735620E+03  0.41800000000E+01 0.  1.
         -5    1    3    3    0  502  0.27332761448E+02 -0.77283358266E+00 -0.68118655916E+01  0.28487734781E+02  0.41800000000E+01 0.  1.
        -11    1    1    2    0    0  0.81830300238E+02 -0.65139541631E+02 -0.10875077764E+03  0.15088435823E+03  0.00000000000E+00 0.  1.
         11    1    1    2    0    0 -0.47701145062E+01 -0.74203835409E+02 -0.42390986995E+02  0.85591815965E+02  0.00000000000E+00 0. -1.
</event>
<event>
 7    1  0.2666594E-009  0.8667766E+02  0.7561462E-02  0.1311103E+00
         -1   -1    0    0    0  501 -0.00000000000E+00  0.00000000000E+00  0.14876002378E+02  0.14876002378E+02  0.00000000000E+00 0.  1.
          1   -1    0    0  501    0  0.00000000000E+00 -0.00000000000E+00 -0.12258806294E+04  0.12258806294E+04  0.00000000000E+00 0. -1.
         25    2    1    2    0    0  0.45944565438E+02 -0.52011789618E+02 -0.85218303740E+03  0.86410624887E+03  0.12509017052E+03 0.  0.
          5    1    3    3  502    0  0.23763680579E+02 -0.47518986103E+02 -0.11703358492E+03  0.12859665219E+03  0.41800000000E+01 0.  1.
         -5    1    3    3    0  502  0.22180884859E+02 -0.44928035152E+01 -0.73514945248E+03  0.73550959669E+03  0.41800000000E+01 0.  1.
        -11    1    1    2    0    0 -0.32957597482E+02 -0.94043522793E+01 -0.44749540652E+02  0.56366359312E+02  0.00000000000E+00 0.  1.
         11    1    1    2    0    0 -0.12986967956E+02  0.61416141897E+02 -0.31407204895E+03  0.32028402357E+03  0.00000000000E+00 0. -1.
</event>
<event>
 7    1  0.2666594E-009  0.1301732E+03  0.7561462E-02  0.1227199E+00
          2   -1    0    0  501    0  0.00000000000E+00  0.00000000000E+00  0.34159248904E+03  0.34159248904E+03  0.00000000000E+00 0. -1.
         -2   -1    0    0    0  501 -0.00000000000E+00 -0.00000000000E+00 -0.97378026696E+02  0.97378026696E+02  0.00000000000E+00 0.  1.
         25    2    1    2    0    0  0.62405050807E+02 -0.11340253371E+03  0.20988829912E+03  0.27650656862E+03  0.12509300286E+03 0.  0.
          5    1    3    3  502    0  0.54078615028E+02 -0.10490289925E+03  0.72571198434E+02  0.13861156560E+03  0.41800000000E+01 0. -1.
         -5    1    3    3    0  502  0.83264357793E+01 -0.84996344597E+01  0.13731710069E+03  0.13789500303E+03  0.41800000000E+01 0. -1.
        -11    1    1    2    0    0 -0.47885612686E+02  0.80322860801E+02  0.65967922263E+02  0.11444020551E+03  0.00000000000E+00 0. -1.
         11    1    1    2    0    0 -0.14519438121E+02  0.33079672909E+02 -0.31641759036E+02  0.48023741608E+02  0.00000000000E+00 0.  1.
</event>
<event>
 7    1  0.2666594E-009  0.4565973E+02  0.7561462E-02  0.1470265E+00
         -2   -1    0    0    0  501 -0.00000000000E+00  0.00000000000E+00  0.58480898288E+02  0.58480898288E+02  0.00000000000E+00 0.  1.
          2   -1    0    0  501    0  0.00000000000E+00 -0.00000000000E+00 -0.24988670514E+03  0.24988670514E+03  0.00000000000E+00 0. -1.
         25    2    1    2    0    0  0.21737911360E+02 -0.28366882043E+02 -0.15669154503E+03  0.20365727073E+03  0.12508727694E+03 0.  0.
          5    1    3    3  502    0  0.74689664726E+01 -0.20859895840E+02  0.17580304680E+02  0.28591261379E+02  0.41800000000E+01 0. -1.
         -5    1    3    3    0  502  0.14268944887E+02 -0.75069862035E+01 -0.17427184971E+03  0.17506600935E+03  0.41800000000E+01 0. -1.
        -11    1    1    2    0    0 -0.32711510617E+02  0.22121957938E+02  0.22953932096E+02  0.45676109166E+02  0.00000000000E+00 0.  1.
         11    1    1    2    0    0  0.10973599257E+02  0.62449241053E+01 -0.57668193919E+02  0.59034223529E+02  0.00000000000E+00 0. -1.
</event>
<event>
 7    1  0.2666594E-009  0.2780774E+03  0.7561462E-02  0.1096744E+00
          2   -1    0    0  501    0  0.00000000000E+00  0.00000000000E+00  0.15606971807E+04  0.15606971807E+04  0.00000000000E+00 0.  1.
         -2   -1    0    0    0  501 -0.00000000000E+00 -0.00000000000E+00 -0.13101467794E+03  0.13101467794E+03  0.00000000000E+00 0. -1.
         25    2    1    2    0    0 -0.30601186031E+02  0.26879211866E+03  0.13673728814E+04  0.13994785159E+04  0.12508350785E+03 0.  0.
          5    1    3    3  502    0 -0.28226787825E+02  0.20028919821E+03  0.70199044359E+03  0.73056181789E+03  0.41800000000E+01 0.  1.
         -5    1    3    3    0  502 -0.23743982057E+01  0.68502920444E+02  0.66538243785E+03  0.66891669801E+03  0.41800000000E+01 0.  1.
        -11    1    1    2    0    0  0.62173033007E+02 -0.20084325495E+03  0.52194287056E+02  0.21662812074E+03  0.00000000000E+00 0.  1.
         11    1    1    2    0    0 -0.31571846976E+02 -0.67948863707E+02  0.10115334223E+02  0.75605221955E+02  0.00000000000E+00 0. -1.
</event>
<event>
 7    1  0.2666594E-009  0.6781593E+02  0.7561462E-02  0.1367682E+00
          2   -1    0    0  501    0  0.00000000000E+00  0.00000000000E+00  0.25063439452E+03  0.25063439452E+03  0.00000000000E+00 0. -1.
         -2   -1    0    0    0  501 -0.00000000000E+00 -0.00000000000E+00 -0.48948299781E+02  0.48948299781E+02  0.00000000000E+00 0.  1.
         25    2    1    2    0    0 -0.20806999653E+02 -0.99326899735E+01  0.96495010071E+02  0.15965331507E+03  0.12508518889E+03 0.  0.
          5    1    3    3  502    0 -0.57733268776E+02 -0.21315571779E+02  0.10318356851E+03  0.12021566094E+03  0.41800000000E+01 0.  1.
         -5    1    3    3    0  502  0.36926269123E+02  0.11382881805E+02 -0.66885584386E+01  0.39437654134E+02  0.41800000000E+01 0.  1.
        -11    1    1    2    0    0  0.83393058520E+01  0.18269641345E+02  0.11831045423E+03  0.12000286412E+03  0.00000000000E+00 0. -1.
         11    1    1    2    0    0  0.12467693801E+02 -0.83369513717E+01 -0.13119369560E+02  0.19926515113E+02  0.00000000000E+00 0.  1.
</event>
<event>
 7    1  0.2666594E-009  0.8128643E+02  0.7561462E-02  0.1325440E+00
         -1   -1    0    0    0  501 -0.00000000000E+00  0.00000000000E+00  0.21919172300E+03  0.21919172300E+03  0.00000000000E+00 0.  1.
          1   -1    0    0  501    0  0.00000000000E+00 -0.00000000000E+00 -0.62353891528E+02  0.62353891528E+02  0.00000000000E+00 0. -1.
         25    2    1    2    0    0  0.32497870461E+02 -0.12682747721E+02  0.55556923855E+02  0.14124815596E+03  0.12508999201E+03 0.  0.
          5    1    3    3  502    0  0.45773001166E+02  0.52867074789E+01  0.89294340230E+02  0.10056872530E+03  0.41800000000E+01 0. -1.
         -5    1    3    3    0  502 -0.13275130704E+02 -0.17969455200E+02 -0.33737416375E+02  0.40679430663E+02  0.41800000000E+01 0. -1.
        -11    1    1    2    0    0  0.30098455346E+02  0.50115812925E+01  0.16670202435E+02  0.34769650710E+02  0.00000000000E+00 0. -1.
         11    1    1    2    0    0 -0.62596325807E+02  0.76711664282E+01  0.84610705184E+02  0.10552780785E+03  0.00000000000E+00 0.  1.
</event>
<event>
 7    1  0.2666594E-009  0.8035673E+02  0.7561462E-02  0.1328042E+00
         -3   -1    0    0    0  501 -0.00000000000E+00  0.00000000000E+00  0.43714725853E+03  0.43714725853E+03  0.00000000000E+00 0.  1.
          3   -1    0    0  501    0  0.00000000000E+00 -0.00000000000E+00 -0.27419802221E+02  0.27419802221E+02  0.00000000000E+00 0. -1.
         25    2    1    2    0    0  0.10565428026E+02 -0.10759574309E+02  0.26219411357E+03  0.29090264355E+03  0.12510474861E+03 0.  0.
          5    1    3    3  502    0 -0.28583034086E+02 -0.52195131635E+01  0.39541376415E+01  0.29619938550E+02  0.41800000000E+01 0.  1.
         -5    1    3    3    0  502  0.39148462112E+02 -0.55400611451E+01  0.25823997593E+03  0.26128270500E+03  0.41800000000E+01 0.  1.
        -11    1    1    2    0    0 -0.49583694013E+02  0.16291040019E+02  0.82509389415E+02  0.97630630637E+02  0.00000000000E+00 0. -1.
         11    1    1    2    0    0  0.39018265987E+02 -0.55314657108E+01  0.65023953323E+02  0.76033786564E+02  0.00000000000E+00 0.  1.
</event>
<event>
 7    1  0.2666594E-009  0.1090327E+03  0.7561462E-02  0.1262372E+00
          2   -1    0    0  501    0  0.00000000000E+00  0.00000000000E+00  0.25310075401E+03  0.25310075401E+03  0.00000000000E+00 0. -1.
         -2   -1    0    0    0  501 -0.00000000000E+00 -0.00000000000E+00 -0.47796917585E+02  0.47796917585E+02  0.00000000000E+00 0.  1.
         25    2    1    2    0    0  0.33956967540E+02  0.10060701408E+02  0.13304656318E+03  0.18602244816E+03  0.12509464373E+03 0.  0.
          5    1    3    3  502    0  0.57361893409E+02  0.53984893897E+02  0.93405460003E+02  0.12225713862E+03  0.41800000000E+01 0.  1.
         -5    1    3    3    0  502 -0.23404925869E+02 -0.43924192489E+02  0.39641103174E+02  0.63765309547E+02  0.41800000000E+01 0.  1.
        -11    1    1    2    0    0  0.10076371636E+02 -0.36507949650E+02  0.28496352505E+02  0.47396263134E+02  0.00000000000E+00 0.  1.
         11    1    1    2    0    0 -0.44033339177E+02  0.26447248242E+02  0.43760920746E+02  0.67478960300E+02  0.00000000000E+00 0. -1.
</event>
<event>
 7    1  0.2666594E-009  0.1865686E+03  0.7561462E-02  0.1161593E+00
          1   -1    0    0  501    0  0.00000000000E+00  0.00000000000E+00  0.26878001440E+03  0.26878001440E+03  0.00000000000E+00 0. -1.
         -1   -1    0    0    0  501 -0.00000000000E+00 -0.00000000000E+00 -0.14371491032E+03  0.14371491032E+03  0.00000000000E+00 0.  1.
         25    2    1    2    0    0  0.28539020057E+02 -0.15839385545E+03  0.97993502904E+02  0.22617043513E+03  0.12508896836E+03 0.  0.
          5    1    3    3  502    0  0.70953762117E+02 -0.14050657700E+03  0.72005110049E+02  0.17314370566E+03  0.41800000000E+01 0. -1.
         -5    1    3    3    0  502 -0.42414742061E+02 -0.17887278453E+02  0.25988392855E+02  0.53026729465E+02  0.41800000000E+01 0. -1.
        -11    1    1    2    0    0 -0.38988273582E+02  0.67413803309E+02  0.49193291418E+02  0.92112356793E+02  0.00000000000E+00 0.  1.
         11    1    1    2    0    0  0.10449253525E+02  0.90980052140E+02 -0.22121690246E+02  0.94212132796E+02  0.00000000000E+00 0. -1.
</event>
<event>
 7    1  0.2666594E-009  0.1059001E+03  0.7561462E-02  0.1268356E+00
          4   -1    0    0  501    0  0.00000000000E+00  0.00000000000E+00  0.47389204720E+02  0.47389204720E+02  0.00000000000E+00 0. -1.
         -4   -1    0    0    0  501 -0.00000000000E+00 -0.00000000000E+00 -0.43723744518E+03  0.43723744518E+03  0.00000000000E+00 0.  1.
         25    2    1    2    0    0 -0.41474803928E+02 -0.45346294845E+02 -0.33388043050E+03  0.36180064224E+03  0.12508843687E+03 0.  0.
          5    1    3    3  502    0 -0.68844705265E+02 -0.18376635669E+01 -0.27502515459E+03  0.28354766532E+03  0.41800000000E+01 0.  1.
         -5    1    3    3    0  502  0.27369901336E+02 -0.43508631278E+02 -0.58855275905E+02  0.78252976919E+02  0.41800000000E+01 0.  1.
        -11    1    1    2    0    0  0.10857336380E+02  0.57333563034E+02 -0.51138681529E+00  0.58354783179E+02  0.00000000000E+00 0. -1.
         11    1    1    2    0    0  0.30617467549E+02 -0.11987268188E+02 -0.55456423146E+02  0.64471224480E+02  0.00000000000E+00 0.  1.
</event>
<event>
 7    1  0.2666594E-009  0.1149363E+03  0.7561462E-02  0.1251692E+00
         -2   -1    0    0    0  501 -0.00000000000E+00  0.00000000000E+00  0.39436636640E+03  0.39436636640E+03  0.00000000000E+00 0.  1.
          2   -1    0    0  501    0  0.00000000000E+00 -0.00000000000E+00 -0.59515648626E+02  0.59515648626E+02  0.00000000000E+00 0. -1.
         25    2    1    2    0    0  0.87682321892E+02  0.61760052098E+02  0.19248253687E+03  0.25337659887E+03  0.12509068809E+03 0.  0.
          5    1    3    3  502    0  0.56277128051E+02  0.18011414203E+02  0.19031120577E+03  0.19931721859E+03  0.41800000000E+01 0. -1.
         -5    1    3    3    0  502  0.31405193841E+02  0.43748637895E+02  0.21713310992E+01  0.54059380283E+02  0.41800000000E+01 0. -1.
        -11    1    1    2    0    0 -0.57413523289E+02 -0.12429849879E+02  0.15036503575E+02  0.60637531811E+02  0.00000000000E+00 0. -1.
         11    1    1    2    0    0 -0.30268798603E+02 -0.49330202219E+02  0.12733167733E+03  0.13986788435E+03  0.00000000000E+00 0.  1.
</event>
<event>
 7    1  0.2666594E-009  0.3163329E+03  0.7561462E-02  0.1077349E+00
         -2   -1    0    0    0  501 -0.00000000000E+00  0.00000000000E+00  0.32434628854E+03  0.32434628854E+03  0.00000000000E+00 0.  1.
          2   -1    0    0  501    0  0.00000000000E+00 -0.00000000000E+00 -0.32296919313E+03  0.32296919313E+03  0.00000000000E+00 0. -1.
         25    2    1    2    0    0  0.21673352299E+03 -0.21032906077E+03  0.37028792875E+02  0.32898283394E+03  0.12508732842E+03 0.  0.
          5    1    3    3  502    0 -0.10982741199E+02  0.10907616294E+01 -0.89901663579E+01  0.14835964961E+02  0.41800000000E+01 0.  1.
         -5    1    3    3    0  502  0.22771626419E+03 -0.21141982240E+03  0.46018959233E+02  0.31414686898E+03  0.41800000000E+01 0.  1.
        -11    1    1    2    0    0 -0.14805862559E+03  0.95116707013E+02  0.11003937478E+02  0.17632252042E+03  0.00000000000E+00 0. -1.
         11    1    1    2    0    0 -0.68674897392E+02  0.11521235376E+03 -0.46655634941E+02  0.14201012732E+03  0.00000000000E+00 0.  1.
</event>
<event>
 7    1  0.2666594E-009  0.1242832E+03  0.7561462E-02  0.1236194E+00
          1   -1    0    0  501    0  0.00000000000E+00  0.00000000000E+00  0.29931902975E+03  0.29931902975E+03  0.00000000000E+00 0. -1.
         -1   -1    0    0    0  501 -0.00000000000E+00 -0.00000000000E+00 -0.67260911389E+02  0.67260911389E+02  0.00000000000E+00 0.  1.
         25    2    1    2    0    0 -0.74711516279E+02 -0.43711909201E+02  0.10748531776E+03  0.18625940197E+03  0.12508768772E+03 0.  0.
          5    1    3    3  502    0 -0.34324735740E+02 -0.79814359599E+02  0.30794229441E+02  0.92272837003E+02  0.41800000000E+01 0. -1.
         -5    1    3    3    0  502 -0.40386780539E+02  0.36102450397E+02  0.76691088318E+02  0.93986564967E+02  0.41800000000E+01 0. -1.
        -11    1    1    2    0    0  0.36461225942E+02  0.56220066737E+02  0.12297384888E+03  0.14004529414E+03  0.00000000000E+00 0. -1.
         11    1    1    2    0    0  0.38250290337E+02 -0.12508157536E+02  0.15989517219E+01  0.40275245032E+02  0.00000000000E+00 0.  1.
</event>
<event>
 7    1  0.2666594E-009  0.1186478E+03  0.7561462E-02  0.1245345E+00
         -4   -1    0    0    0  501 -0.00000000000E+00  0.00000000000E+00  0.17673116074E+03  0.17673116074E+03  0.00000000000E+00 0.  1.
          4   -1    0    0  501    0  0.00000000000E+00 -0.00000000000E+00 -0.10331022609E+03  0.10331022609E+03  0.00000000000E+00 0. -1.
         25    2    1    2    0    0  0.86439242106E+02  0.11431742017E+02  0.63529207024E+02  0.16517995185E+03  0.12508408791E+03 0.  0.
          5    1    3    3  502    0 -0.25819882681E+02  0.20044583814E+02  0.36776821348E+02  0.49380752024E+02  0.41800000000E+01 0.  1.
         -5    1    3    3    0  502  0.11225912479E+03 -0.86128417976E+01  0.26752385676E+02  0.11579919983E+03  0.41800000000E+01 0.  1.
        -11    1    1    2    0    0 -0.39544661214E+02  0.89474928781E+01  0.38804587043E+02  0.56121598649E+02  0.00000000000E+00 0.  1.
         11    1    1    2    0    0 -0.46894580891E+02 -0.20379234895E+02 -0.28912859414E+02  0.58739836324E+02  0.00000000000E+00 0. -1.
</event>
<event>
 7    1  0.2666594E-009  0.8396854E+02  0.7561462E-02  0.1318152E+00
          2   -1    0    0  501    0  0.00000000000E+00  0.00000000000E+00  0.18390730466E+03  0.18390730466E+03  0.00000000000E+00 0. -1.
         -2   -1    0    0    0  501 -0.00000000000E+00 -0.00000000000E+00 -0.65541153605E+02  0.65541153605E+02  0.00000000000E+00 0.  1.
         25    2    1    2    0    0  0.63775189507E+01  0.14879696531E+02  0.58885021621E+02  0.13921304562E+03  0.12510295034E+03 0.  0.
          5    1    3    3  502    0 -0.68273821737E+01  0.53288566624E+02  0.77457141361E+02  0.94357647427E+02  0.41800000000E+01 0. -1.
         -5    1    3    3    0  502  0.13204901124E+02 -0.38408870093E+02 -0.18572119740E+02  0.44855398194E+02  0.41800000000E+01 0. -1.
        -11    1    1    2    0    0  0.32582232998E+02 -0.91433641397E+01  0.62149257690E+02  0.70765339301E+02  0.00000000000E+00 0. -1.
         11    1    1    2    0    0 -0.38959751949E+02 -0.57363323916E+01 -0.26681282576E+01  0.39470073342E+02  0.00000000000E+00 0.  1.
</event>
<event>
 7    1  0.2666594E-009  0.8386129E+02  0.7561462E-02  0.1318438E+00
          2   -1    0    0  501    0  0.00000000000E+00  0.00000000000E+00  0.47583223695E+03  0.47583223695E+03  0.00000000000E+00 0. -1.
         -2   -1    0    0    0  501 -0.00000000000E+00 -0.00000000000E+00 -0.45541056104E+02  0.45541056104E+02  0.00000000000E+00 0.  1.
         25    2    1    2    0    0  0.85764999488E+01  0.82637695977E+01  0.40582677689E+03  0.42483552497E+03  0.12509198297E+03 0.  0.
          5    1    3    3  502    0  0.40054418533E+02  0.12901057451E+02  0.38330367792E+03  0.38562932414E+03  0.41800000000E+01 0. -1.
         -5    1    3    3    0  502 -0.31477918584E+02 -0.46372878530E+01  0.22523098965E+02  0.39206200836E+02  0.41800000000E+01 0. -1.
        -11    1    1    2    0    0 -0.23496154922E+02 -0.46609913910E+02  0.12227066769E+02  0.53610209220E+02  0.00000000000E+00 0. -1.
         11    1    1    2    0    0  0.14919654973E+02  0.38346144313E+02  0.12237337192E+02  0.42927558861E+02  0.00000000000E+00 0.  1.
</event>
<event>
 7    1  0.2666594E-009  0.1190963E+03  0.7561462E-02  0.1244595E+00
         -2   -1    0    0    0  501 -0.00000000000E+00  0.00000000000E+00  0.47951280187E+02  0.47951280187E+02  0.00000000000E+00 0.  1.
          2   -1    0    0  501    0  0.00000000000E+00 -0.00000000000E+00 -0.33693929985E+03  0.33693929985E+03  0.00000000000E+00 0. -1.
         25    2    1    2    0    0  0.60229143783E+02  0.18687135962E+01 -0.20150259713E+03  0.24469991500E+03  0.12507481721E+03 0.  0.
          5    1    3    3  502    0 -0.36188550757E+02 -0.13630859111E+02 -0.39101845724E+02  0.55152862709E+02  0.41800000000E+01 0.  1.
         -5    1    3    3    0  502  0.96417694540E+02  0.15499572707E+02 -0.16240075141E+03  0.18954705229E+03  0.41800000000E+01 0.  1.
        -11    1    1    2    0    0 -0.51313452283E+02 -0.38309251969E+02 -0.28060629418E+02  0.69914720159E+02  0.00000000000E+00 0.  1.
         11    1    1    2    0    0 -0.89156915005E+01  0.36440538373E+02 -0.59424793117E+02  0.70275944880E+02  0.00000000000E+00 0. -1.
</event>
<event>
 7    1  0.2666594E-009  0.1106156E+03  0.7561462E-02  0.1259434E+00
          3   -1    0    0  501    0  0.00000000000E+00  0.00000000000E+00  0.57821596217E+02  0.57821596217E+02  0.00000000000E+00 0. -1.
         -3   -1    0    0    0  501 -0.00000000000E+00 -0.00000000000E+00 -0.24608115865E+03  0.24608115865E+03  0.00000000000E+00 0.  1.
         25    2    1    2    0    0  0.44139171744E+02 -0.10567578000E+02 -0.12801653493E+03  0.18465593747E+03  0.12509852853E+03 0.  0.
          5    1    3    3  502    0 -0.29705354273E+02  0.26911406883E+02 -0.78070311674E+02  0.87858282807E+02  0.41800000000E+01 0. -1.
         -5    1    3    3    0  502  0.73844526017E+02 -0.37478984883E+02 -0.49946223260E+02  0.96797654664E+02  0.41800000000E+01 0. -1.
        -11    1    1    2    0    0 -0.24310042745E+02 -0.38251046285E+02 -0.46192240380E+02  0.64713551838E+02  0.00000000000E+00 0.  1.
         11    1    1    2    0    0 -0.19829128999E+02  0.48818624284E+02 -0.14050787121E+02  0.54533265560E+02  0.00000000000E+00 0. -1.
</event>
<event>
 7    1  0.2666594E-009  0.8526625E+02  0.7561462E-02  0.1314738E+00
         -2   -1    0    0    0  501 -0.00000000000E+00  0.00000000000E+00  0.54401995308E+02  0.54401995308E+02  0.00000000000E+00 0.  1.
          2   -1    0    0  501    0  0.00000000000E+00 -0.00000000000E+00 -0.44082174297E+03  0.44082174297E+03  0.00000000000E+00 0. -1.
         25    2    1    2    0    0 -0.59416403722E+02 -0.14297967762E+01 -0.35687171634E+03  0.38280203876E+03  0.12509046968E+03 0.  0.
          5    1    3    3  502    0 -0.30640610862E+02  0.43934271468E+02 -0.57794873414E+02  0.78909993260E+02  0.41800000000E+01 0.  1.
         -5    1    3    3    0  502 -0.28775792860E+02 -0.45364068244E+02 -0.29907684292E+03  0.30389204550E+03  0.41800000000E+01 0.  1.
        -11    1    1    2    0    0  0.45890227352E+02  0.99232704241E+01 -0.61101044733E+02  0.77056615094E+02  0.00000000000E+00 0. -1.
         11    1    1    2    0    0  0.13526176370E+02 -0.84934736479E+01  0.31553013406E+02  0.35365084430E+02  0.00000000000E+00 0.  1.
</event>
<event>
 7    1  0.2666594E-009  0.7354445E+02  0.7561462E-02  0.1348439E+00
         -3   -1    0    0    0  501 -0.00000000000E+00  0.00000000000E+00  0.32634854383E+02  0.32634854383E+02  0.00000000000E+00 0.  1.
          3   -1    0    0  501    0  0.00000000000E+00 -0.00000000000E+00 -0.48449587666E+03  0.48449587666E+03  0.00000000000E+00 0. -1.
         25    2    1    2    0    0 -0.51338471750E+02  0.29085775263E+02 -0.18633832144E+03  0.23205702262E+03  0.12508745223E+03 0.  0.
          5    1    3    3  502    0 -0.57974679217E+01  0.81349315444E+01  0.18334365990E+02  0.21293405594E+02  0.41800000000E+01 0. -1.
         -5    1    3    3    0  502 -0.45541003828E+02  0.20950843719E+02 -0.20467268743E+03  0.21076361703E+03  0.41800000000E+01 0. -1.
        -11    1    1    2    0    0  0.27777017999E+01  0.18061610469E+02 -0.10190929701E+02  0.20923490344E+02  0.00000000000E+00 0.  1.
         11    1    1    2    0    0  0.48560769950E+02 -0.47147385732E+02 -0.25533177113E+03  0.26415021807E+03  0.00000000000E+00 0. -1.
</event>
<event>
 7    1  0.2666594E-009  0.1440248E+03  0.7561462E-02  0.1208014E+00
          1   -1    0    0  501    0  0.00000000000E+00  0.00000000000E+00  0.62874930391E+03  0.62874930391E+03  0.00000000000E+00 0. -1.
         -1   -1    0    0    0  501 -0.00000000000E+00 -0.00000000000E+00 -0.36431093919E+02  0.36431093919E+02  0.00000000000E+00 0.  1.
         25    2    1    2    0    0 -0.45213123917E+02  0.94820648356E+02  0.30389185598E+03  0.34501092423E+03  0.12508835188E+03 0.  0.
          5    1    3    3  502    0 -0.20261842507E+02 -0.29137756966E+02  0.51471544581E+02  0.62660541367E+02  0.41800000000E+01 0. -1.
         -5    1    3    3    0  502 -0.24951281410E+02  0.12395840532E+03  0.25242031140E+03  0.28235038286E+03  0.41800000000E+01 0. -1.
        -11    1    1    2    0    0 -0.18728933478E+02 -0.21817240603E+02  0.13936659978E+03  0.14230184142E+03  0.00000000000E+00 0. -1.
         11    1    1    2    0    0  0.63942057395E+02 -0.73003407753E+02  0.14905975423E+03  0.17786763218E+03  0.00000000000E+00 0.  1.
</event>
<event>
 7    1  0.2666594E-009  0.1051611E+03  0.7561462E-02  0.1269802E+00
         -2   -1    0    0    0  501 -0.00000000000E+00  0.00000000000E+00  0.27697126769E+02  0.27697126769E+02  0.00000000000E+00 0.  1.
          2   -1    0    0  501    0  0.00000000000E+00 -0.00000000000E+00 -0.45080824493E+03  0.45080824493E+03  0.00000000000E+00 0. -1.
         25    2    1    2    0    0  0.94013586344E+01 -0.48152589689E+02 -0.27487049117E+03  0.30595479004E+03  0.12508992443E+03 0.  0.
          5    1    3    3  502    0  0.50547613919E+02  0.94891244038E+01 -0.18148358113E+03  0.18867662116E+03  0.41800000000E+01 0. -1.
         -5    1    3    3    0  502 -0.41146255284E+02 -0.57641714093E+02 -0.93386910042E+02  0.11727816887E+03  0.41800000000E+01 0. -1.
        -11    1    1    2    0    0 -0.12331007684E+01  0.67117533388E+02 -0.12092735123E+03  0.13831018798E+03  0.00000000000E+00 0.  1.
         11    1    1    2    0    0 -0.81682578660E+01 -0.18964943699E+02 -0.27313275761E+02  0.34240393673E+02  0.00000000000E+00 0. -1.
</event>
<event>
 7    1  0.2666594E-009  0.1044862E+03  0.7561462E-02  0.1271135E+00
          2   -1    0    0  501    0  0.00000000000E+00  0.00000000000E+00  0.21735141188E+03  0.21735141188E+03  0.00000000000E+00 0. -1.
         -2   -1    0    0    0  501 -0.00000000000E+00 -0.00000000000E+00 -0.88696432310E+02  0.88696432310E+02  0.00000000000E+00 0.  1.
         25    2    1    2    0    0  0.96752873653E+01  0.74673534429E+02  0.12156841694E+03  0.18998056261E+03  0.12507592191E+03 0.  0.
          5    1    3    3  502    0 -0.38842686743E+01 -0.92296107555E+01 -0.21177434961E+02  0.23795575416E+02  0.41800000000E+01 0.  1.
         -5    1    3    3    0  502  0.13559556040E+02  0.83903145185E+02  0.14274585190E+03  0.16618498719E+03  0.41800000000E+01 0.  1.
        -11    1    1    2    0    0  0.36634356682E+02 -0.21352078921E+02 -0.96506017536E+01  0.43487026548E+02  0.00000000000E+00 0. -1.
         11    1    1    2    0    0 -0.46309644047E+02 -0.53321455509E+02  0.16737164379E+02  0.72580255034E+02  0.00000000000E+00 0.  1.
</event>
<event>
 7    1  0.2666594E-009  0.1334698E+03  0.7561462E-02  0.1222396E+00
         -2   -1    0    0    0  501 -0.00000000000E+00  0.00000000000E+00  0.33053030115E+03  0.33053030115E+03  0.00000000000E+00 0. -1.
          2   -1    0    0  501    0  0.00000000000E+00 -0.00000000000E+00 -0.81744075273E+02  0.81744075273E+02  0.00000000000E+00 0.  1.
         25    2    1    2    0    0  0.12044884846E+02 -0.11969899831E+03  0.98759246931E+02  0.19968398787E+03  0.12508947482E+03 0.  0.
          5    1    3    3  502    0  0.22963915209E+02 -0.86402189541E+02 -0.54463179634E+01  0.89665012902E+02  0.41800000000E+01 0. -1.
         -5    1    3    3    0  502 -0.10919030364E+02 -0.33296808771E+02  0.10420556489E+03  0.11001897497E+03  0.41800000000E+01 0. -1.
        -11    1    1    2    0    0 -0.27721411767E+02  0.73042457778E+01  0.61064973931E+01  0.29310714545E+02  0.00000000000E+00 0.  1.
         11    1    1    2    0    0  0.15676526922E+02  0.11239475253E+03  0.14392048155E+03  0.18327967401E+03  0.00000000000E+00 0. -1.
</event>
<event>
 7    1  0.2666594E-009  0.1251750E+03  0.7561462E-02  0.1234796E+00
          1   -1    0    0  501    0  0.00000000000E+00  0.00000000000E+00  0.13196853677E+03  0.13196853677E+03  0.00000000000E+00 0. -1.
         -1   -1    0    0    0  501 -0.00000000000E+00 -0.00000000000E+00 -0.14520671556E+03  0.14520671556E+03  0.00000000000E+00 0.  1.
         25    2    1    2    0    0  0.73484113708E+02  0.33160467473E+02  0.22533597210E+02  0.15051554629E+03  0.12509050763E+03 0.  0.
          5    1    3    3  502    0  0.93051816384E+02  0.50578087602E+02 -0.12330226823E+02  0.10670656199E+03  0.41800000000E+01 0. -1.
         -5    1    3    3    0  502 -0.19567702675E+02 -0.17417620129E+02  0.34863824033E+02  0.43808984297E+02  0.41800000000E+01 0. -1.
        -11    1    1    2    0    0 -0.23976421345E+02  0.29472531975E+02 -0.26421345959E+02  0.46277277835E+02  0.00000000000E+00 0.  1.
         11    1    1    2    0    0 -0.49507692364E+02 -0.62632999448E+02 -0.93504300358E+01  0.80382428209E+02  0.00000000000E+00 0. -1.
</event>
<event>
 7    1  0.3232457E-009  0.1291443E+03  0.7561462E-02  0.1228731E+00
          1   -1    0    0  501    0  0.00000000000E+00  0.00000000000E+00  0.37561258491E+03  0.37561258491E+03  0.00000000000E+00 0. -1.
         -1   -1    0    0    0  501 -0.00000000000E+00 -0.00000000000E+00 -0.80916902638E+02  0.80916902638E+02  0.00000000000E+00 0.  1.
         25    2    1    2    0    0  0.83311823713E+02 -0.93743781697E+02  0.22559525702E+03  0.28682669715E+03  0.12509027792E+03 0.  0.
          5    1    3    3  502    0  0.20374000774E+02 -0.53626055468E+02  0.19953705785E+03  0.20766165652E+03  0.41800000000E+01 0. -1.
         -5    1    3    3    0  502  0.62937822938E+02 -0.40117726229E+02  0.26058199170E+02  0.79165040630E+02  0.41800000000E+01 0. -1.
        -11    1    1    2    0    0 -0.53023161658E+02  0.50520785003E+02 -0.10712374602E+02  0.74017297702E+02  0.00000000000E+00 0.  1.
         11    1    1    2    0    0 -0.30288662054E+02  0.43222996694E+02  0.79812799852E+02  0.95685492696E+02  0.00000000000E+00 0. -1.
</event>
<event>
 7    1  0.2666594E-009  0.1383676E+03  0.7561462E-02  0.1215543E+00
          2   -1    0    0  501    0  0.00000000000E+00  0.00000000000E+00  0.69266925876E+02  0.69266925876E+02  0.00000000000E+00 0. -1.
         -2   -1    0    0    0  501 -0.00000000000E+00 -0.00000000000E+00 -0.36943459693E+03  0.36943459693E+03  0.00000000000E+00 0.  1.
         25    2    1    2    0    0 -0.10812936430E+03 -0.76542638987E+01 -0.22038638473E+03  0.27562470987E+03  0.12509306510E+03 0.  0.
          5    1    3    3  502    0 -0.10789189911E+03 -0.47866435173E+02 -0.19471009974E+03  0.22773087812E+03  0.41800000000E+01 0. -1.
         -5    1    3    3    0  502 -0.23746518833E+00  0.40212171274E+02 -0.25676284987E+02  0.47893831743E+02  0.41800000000E+01 0. -1.
        -11    1    1    2    0    0  0.53928117980E+02  0.27428522878E+02  0.47984510005E+01  0.60692593520E+02  0.00000000000E+00 0. -1.
         11    1    1    2    0    0  0.54201246316E+02 -0.19774258979E+02 -0.84579737326E+02  0.10238421942E+03  0.00000000000E+00 0.  1.
</event>
<event>
 7    1  0.3476271E-009  0.1029804E+03  0.7561462E-02  0.1274150E+00
         -1   -1    0    0    0  501 -0.00000000000E+00  0.00000000000E+00  0.21071877849E+03  0.21071877849E+03  0.00000000000E+00 0.  1.
          1   -1    0    0  501    0  0.00000000000E+00 -0.00000000000E+00 -0.10501328498E+03  0.10501328498E+03  0.00000000000E+00 0. -1.
         25    2    1    2    0    0 -0.88469745846E+02 -0.44388859134E+02  0.80234371177E+02  0.17855491147E+03  0.12508811033E+03 0.  0.
          5    1    3    3  502    0 -0.11274742351E+02  0.47757947341E+01  0.85798866481E+02  0.86768922547E+02  0.41800000000E+01 0. -1.
         -5    1    3    3    0  502 -0.77195003495E+02 -0.49164653868E+02 -0.55644953047E+01  0.91785988923E+02  0.41800000000E+01 0. -1.
        -11    1    1    2    0    0  0.43951258818E+02  0.98037060239E+01  0.56955678095E+02  0.72606990509E+02  0.00000000000E+00 0.  1.
         11    1    1    2    0    0  0.44518487028E+02  0.34585153110E+02 -0.31484555766E+02  0.64570161489E+02  0.00000000000E+00 0. -1.
</event>
<event>
 7    1  0.2999424E-009  0.2708797E+03  0.7561462E-02  0.1100777E+00
         -1   -1    0    0    0  501 -0.00000000000E+00  0.00000000000E+00  0.50051856012E+02  0.50051856012E+02  0.00000000000E+00 0.  1.
          1   -1    0    0  501    0  0.00000000000E+00 -0.00000000000E+00 -0.16543472669E+04  0.16543472669E+04  0.00000000000E+00 0. -1.
         25    2    1    2    0    0  0.36531946922E+02 -0.25707298570E+03 -0.64462605240E+03  0.70612489458E+03  0.12509402942E+03 0.  0.
          5    1    3    3  502    0  0.10033840391E+02  0.31143449425E+01 -0.11373030326E+03  0.11429099429E+03  0.41800000000E+01 0. -1.
         -5    1    3    3    0  502  0.26498106531E+02 -0.26018733064E+03 -0.53089574914E+03  0.59183390029E+03  0.41800000000E+01 0. -1.
        -11    1    1    2    0    0  0.18767447212E+02  0.11331555519E+03 -0.30995958339E+03  0.33055646334E+03  0.00000000000E+00 0.  1.
         11    1    1    2    0    0 -0.55299394134E+02  0.14375743052E+03 -0.64970977514E+03  0.66771776503E+03  0.00000000000E+00 0. -1.
</event>
<event>
 7    1  0.2666594E-009  0.1339181E+03  0.7561462E-02  0.1221755E+00
         -2   -1    0    0    0  501 -0.00000000000E+00  0.00000000000E+00  0.17848161275E+02  0.17848161275E+02  0.00000000000E+00 0.  1.
          2   -1    0    0  501    0  0.00000000000E+00 -0.00000000000E+00 -0.22056175961E+04  0.22056175961E+04  0.00000000000E+00 0. -1.
         25    2    1    2    0    0 -0.57083700617E+02 -0.96685024774E+02 -0.18238120822E+04  0.18315408921E+04  0.12507991612E+03 0.  0.
          5    1    3    3  502    0  0.61572260362E+01  0.16982435980E+02 -0.69565459039E+03  0.69590164255E+03  0.41800000000E+01 0.  1.
         -5    1    3    3    0  502 -0.63240926653E+02 -0.11366746075E+03 -0.11281574918E+04  0.11356392496E+04  0.41800000000E+01 0.  1.
        -11    1    1    2    0    0  0.49010899767E+02  0.44038204320E+02 -0.30680943857E+03  0.31380481726E+03  0.00000000000E+00 0. -1.
         11    1    1    2    0    0  0.80728008507E+01  0.52646820454E+02 -0.57147913997E+02  0.78120047950E+02  0.00000000000E+00 0.  1.
</event>
<event>
 7    1  0.2666594E-009  0.1228829E+03  0.7561462E-02  0.1238415E+00
          4   -1    0    0  501    0  0.00000000000E+00  0.00000000000E+00  0.38232106825E+03  0.38232106825E+03  0.00000000000E+00 0. -1.
         -4   -1    0    0    0  501 -0.00000000000E+00 -0.00000000000E+00 -0.56515683861E+02  0.56515683861E+02  0.00000000000E+00 0.  1.
         25    2    1    2    0    0  0.52130149515E+02 -0.39360046518E+02  0.71421925884E+02  0.15816255742E+03  0.12509011681E+03 0.  0.
          5    1    3    3  502    0 -0.21788813787E+02 -0.50128008406E+02  0.12973289872E+00  0.54818417194E+02  0.41800000000E+01 0.  1.
         -5    1    3    3    0  502  0.73918963303E+02  0.10767961887E+02  0.71292192985E+02  0.10334414023E+03  0.41800000000E+01 0.  1.
        -11    1    1    2    0    0 -0.31103293383E+02 -0.30266683091E+02  0.68767702287E+02  0.81317180488E+02  0.00000000000E+00 0.  1.
         11    1    1    2    0    0 -0.21026856132E+02  0.69626729610E+02  0.18561575621E+03  0.19935701420E+03  0.00000000000E+00 0. -1.
</event>
<event>
 7    1  0.2666594E-009  0.7538842E+02  0.7561462E-02  0.1342672E+00
         -2   -1    0    0    0  501 -0.00000000000E+00  0.00000000000E+00  0.12160799042E+03  0.12160799042E+03  0.00000000000E+00 0.  1.
          2   -1    0    0  501    0  0.00000000000E+00 -0.00000000000E+00 -0.11555571422E+03  0.11555571422E+03  0.00000000000E+00 0. -1.
         25    2    1    2    0    0 -0.37590405075E+02  0.27365315980E+02  0.97220140440E+01  0.13382089899E+03  0.12510642021E+03 0.  0.
          5    1    3    3  502    0 -0.44892790102E+02  0.47467156213E+02  0.53743175928E+02  0.84701209442E+02  0.41800000000E+01 0. -1.
         -5    1    3    3    0  502  0.73023850270E+01 -0.20101840232E+02 -0.44021161884E+02  0.49119689550E+02  0.41800000000E+01 0. -1.
        -11    1    1    2    0    0  0.42666840124E+02 -0.78880969427E+01 -0.41785605624E+02  0.60238842593E+02  0.00000000000E+00 0. -1.
         11    1    1    2    0    0 -0.50764350493E+01 -0.19477219038E+02  0.38115867782E+02  0.43103963055E+02  0.00000000000E+00 0.  1.
</event>
<event>
 7    1  0.2666594E-009  0.1252098E+03  0.7561462E-02  0.1234742E+00
          3   -1    0    0  501    0  0.00000000000E+00  0.00000000000E+00  0.78435463089E+03  0.78435463089E+03  0.00000000000E+00 0. -1.
         -3   -1    0    0    0  501 -0.00000000000E+00 -0.00000000000E+00 -0.21246533685E+02  0.21246533685E+02  0.00000000000E+00 0.  1.
         25    2    1    2    0    0 -0.62923164734E+02  0.16590888440E+02  0.34448177072E+03  0.37222244130E+03  0.12508906110E+03 0.  0.
          5    1    3    3  502    0 -0.70919225104E+02  0.61788343606E+02  0.21248664934E+03  0.23241210046E+03  0.41800000000E+01 0.  1.
         -5    1    3    3    0  502  0.79960603696E+01 -0.45197455165E+02  0.13199512139E+03  0.13981034084E+03  0.41800000000E+01 0.  1.
        -11    1    1    2    0    0  0.55495609835E+02 -0.50760905472E+02  0.32055961090E+03  0.32926417415E+03  0.00000000000E+00 0.  1.
         11    1    1    2    0    0  0.74275548995E+01  0.34170017032E+02  0.98066715578E+02  0.10411454913E+03  0.00000000000E+00 0. -1.
</event>
<event>
 7    1  0.2666594E-009  0.1146061E+03  0.7561462E-02  0.1252270E+00
         -1   -1    0    0    0  501 -0.00000000000E+00  0.00000000000E+00  0.56287915014E+02  0.56287915014E+02  0.00000000000E+00 0.  1.
          1   -1    0    0  501    0  0.00000000000E+00 -0.00000000000E+00 -0.24728712227E+03  0.24728712227E+03  0.00000000000E+00 0. -1.
         25    2    1    2    0    0 -0.85705020531E+01 -0.39477561388E+02 -0.80949710479E+02  0.15437825736E+03  0.12509140403E+03 0.  0.
          5    1    3    3  502    0  0.45766062909E+02  0.19936364863E+02 -0.39060553712E+02  0.63523148650E+02  0.41800000000E+01 0.  1.
         -5    1    3    3    0  502 -0.54336564962E+02 -0.59413926250E+02 -0.41889156767E+02  0.90855108712E+02  0.41800000000E+01 0.  1.
        -11    1    1    2    0    0  0.44635602991E+02 -0.52064795575E+00 -0.65700036469E+02  0.79429861644E+02  0.00000000000E+00 0. -1.
         11    1    1    2    0    0 -0.36065100938E+02  0.39998209344E+02 -0.44349460308E+02  0.69766918277E+02  0.00000000000E+00 0.  1.
</event>
<event>
 7    1  0.2666594E-009  0.1367183E+03  0.7561462E-02  0.1217814E+00
         -1   -1    0    0    0  501 -0.00000000000E+00  0.00000000000E+00  0.13333608884E+03  0.13333608884E+03  0.00000000000E+00 0.  1.
          1   -1    0    0  501    0  0.00000000000E+00 -0.00000000000E+00 -0.14640122275E+03  0.14640122275E+03  0.00000000000E+00 0. -1.
         25    2    1    2    0    0 -0.51576316189E+02 -0.64053412395E+02 -0.33644166756E+02  0.15343499061E+03  0.12508960931E+03 0.  0.
          5    1    3    3  502    0 -0.79033633346E+02 -0.83942710007E+02 -0.22862897471E+02  0.11761325709E+03  0.41800000000E+01 0. -1.
         -5    1    3    3    0  502  0.27457317157E+02  0.19889297611E+02 -0.10781269285E+02  0.35821733519E+02  0.41800000000E+01 0. -1.
        -11    1    1    2    0    0  0.11125315828E+01 -0.23137647531E+02  0.91829798823E+01  0.24918177688E+02  0.00000000000E+00 0.  1.
         11    1    1    2    0    0  0.50463784606E+02  0.87191059926E+02  0.11396052961E+02  0.10138414329E+03  0.00000000000E+00 0. -1.
</event>
<event>
 7    1  0.2666594E-009  0.1468594E+03  0.7561462E-02  0.1204386E+00
          3   -1    0    0  501    0  0.00000000000E+00  0.00000000000E+00  0.33009776649E+03  0.33009776649E+03  0.00000000000E+00 0. -1.
         -3   -1    0    0    0  501 -0.00000000000E+00 -0.00000000000E+00 -0.82524869828E+02  0.82524869828E+02  0.00000000000E+00 0.  1.
         25    2    1    2    0    0  0.16078290986E+02 -0.11642636613E+03  0.17462847281E+03  0.24485752432E+03  0.12508594458E+03 0.  0.
          5    1    3    3  502    0  0.37129883348E+02 -0.17220722030E+02 -0.19470229970E+01  0.41187920598E+02  0.41800000000E+01 0. -1.
         -5    1    3    3    0  502 -0.21051592363E+02 -0.99205644100E+02  0.17657549581E+03  0.20366960373E+03  0.41800000000E+01 0. -1.
        -11    1    1    2    0    0  0.40018140363E+02  0.52809395001E+02  0.32245524964E+02  0.73688924803E+02  0.00000000000E+00 0.  1.
         11    1    1    2    0    0 -0.56096431348E+02  0.63616971129E+02  0.40698898889E+02  0.94076187191E+02  0.00000000000E+00 0. -1.
</event>
<event>
 7    1  0.2666594E-009  0.1403510E+03  0.7561462E-02  0.1212857E+00
          3   -1    0    0  501    0  0.00000000000E+00  0.00000000000E+00  0.69869138365E+03  0.69869138365E+03  0.00000000000E+00 0. -1.
         -3   -1    0    0    0  501 -0.00000000000E+00 -0.00000000000E+00 -0.44728460037E+02  0.44728460037E+02  0.00000000000E+00 0.  1.
         25    2    1    2    0    0 -0.15730355841E+02  0.89002672642E+02  0.12303295914E+03  0.19736497396E+03  0.12508758563E+03 0.  0.
          5    1    3    3  502    0 -0.52146298397E+02  0.10167209340E+03  0.80693296977E+02  0.13994760301E+03  0.41800000000E+01 0. -1.
         -5    1    3    3    0  502  0.36415942556E+02 -0.12669420756E+02  0.42339662163E+02  0.57417370948E+02  0.41800000000E+01 0. -1.
        -11    1    1    2    0    0 -0.26253726932E+02 -0.80591022393E+02  0.35999635502E+03  0.36983989333E+03  0.00000000000E+00 0. -1.
         11    1    1    2    0    0  0.41984082772E+02 -0.84116502491E+01  0.17093360945E+03  0.17621497639E+03  0.00000000000E+00 0.  1.
</event>
<event>
 7    1  0.2666594E-009  0.1465178E+03  0.7561462E-02  0.1204818E+00
         -1   -1    0    0    0  501 -0.00000000000E+00  0.00000000000E+00  0.96208857089E+02  0.96208857089E+02  0.00000000000E+00 0.  1.
          1   -1    0    0  501    0  0.00000000000E+00 -0.00000000000E+00 -0.28336534921E+03  0.28336534921E+03  0.00000000000E+00 0. -1.
         25    2    1    2    0    0 -0.10831256670E+03  0.26517197985E+01 -0.17113283487E+03  0.23806378597E+03  0.12509706351E+03 0.  0.
          5    1    3    3  502    0 -0.13368870437E+03  0.14421951700E+02 -0.15596800852E+03  0.20597124666E+03  0.41800000000E+01 0.  1.
         -5    1    3    3    0  502  0.25376137664E+02 -0.11770231901E+02 -0.15164826343E+02  0.32092539316E+02  0.41800000000E+01 0.  1.
        -11    1    1    2    0    0  0.44151580822E+02  0.34544365315E+02 -0.33512814643E+02  0.65312969688E+02  0.00000000000E+00 0.  1.
         11    1    1    2    0    0  0.64160985881E+02 -0.37196085113E+02  0.17489157395E+02  0.76197450635E+02  0.00000000000E+00 0. -1.
</event>
<event>
 7    1  0.2666594E-009  0.1005571E+03  0.7561462E-02  0.1279129E+00
         -1   -1    0    0    0  501 -0.00000000000E+00  0.00000000000E+00  0.19150791135E+03  0.19150791135E+03  0.00000000000E+00 0.  1.
          1   -1    0    0  501    0  0.00000000000E+00 -0.00000000000E+00 -0.63307408749E+02  0.63307408749E+02  0.00000000000E+00 0. -1.
         25    2    1    2    0    0 -0.12902547541E+02  0.54168689327E+01  0.87009521315E+02  0.15301232954E+03  0.12508516294E+03 0.  0.
          5    1    3    3  502    0 -0.61033442279E+02 -0.53664618379E+01  0.83138476677E+02  0.10336033424E+03  0.41800000000E+01 0.  1.
         -5    1    3    3    0  502  0.48130894738E+02  0.10783330771E+02  0.38710446379E+01  0.49651995301E+02  0.41800000000E+01 0.  1.
        -11    1    1    2    0    0 -0.37735841830E+02 -0.10871515984E+02  0.30593112479E+02  0.49780740749E+02  0.00000000000E+00 0.  1.
         11    1    1    2    0    0  0.50638389371E+02  0.54546470510E+01  0.10597868810E+02  0.52022249815E+02  0.00000000000E+00 0. -1.
</event>
<event>
 7    1  0.2666594E-009  0.1825927E+03  0.7561462E-02  0.1165317E+00
          1   -1    0    0  501    0  0.00000000000E+00  0.00000000000E+00  0.15530247059E+03  0.15530247059E+03  0.00000000000E+00 0. -1.
         -1   -1    0    0    0  501 -0.00000000000E+00 -0.00000000000E+00 -0.23377013209E+03  0.23377013209E+03  0.00000000000E+00 0.  1.
         25    2    1    2    0    0 -0.14780984331E+03  0.37202578873E+01  0.64556857201E+01  0.19377661510E+03  0.12508441383E+03 0.  0.
          5    1    3    3  502    0 -0.59749735613E+02 -0.58059241456E+02 -0.12872090755E+02  0.84404203359E+02  0.41800000000E+01 0. -1.
         -5    1    3    3    0  502 -0.88060107701E+02  0.61779499344E+02  0.19327776475E+02  0.10937241175E+03  0.41800000000E+01 0. -1.
        -11    1    1    2    0    0  0.99627233660E+02  0.41605884304E+02 -0.65795701011E+02  0.12643460589E+03  0.00000000000E+00 0. -1.
         11    1    1    2    0    0  0.48182609654E+02 -0.45326142191E+02 -0.19127646206E+02  0.68861381691E+02  0.00000000000E+00 0.  1.
</event>
<event>
 7    1  0.2666594E-009  0.1505787E+03  0.7561462E-02  0.1199764E+00
          2   -1    0    0  501    0  0.00000000000E+00  0.00000000000E+00  0.13537402603E+04  0.13537402603E+04  0.00000000000E+00 0. -1.
         -2   -1    0    0    0  501 -0.00000000000E+00 -0.00000000000E+00 -0.22230220357E+02  0.22230220357E+02  0.00000000000E+00 0.  1.
         25    2    1    2    0    0 -0.14353091715E+02 -0.12886030569E+03  0.55909173463E+03  0.58740192286E+03  0.12508581707E+03 0.  0.
          5    1    3    3  502    0 -0.19987324765E+02 -0.89586846668E+01  0.85021209915E+01  0.23864401178E+02  0.41800000000E+01 0. -1.
         -5    1    3    3    0  502  0.56342330498E+01 -0.11990162102E+03  0.55058961364E+03  0.56353752169E+03  0.41800000000E+01 0. -1.
        -11    1    1    2    0    0  0.76246758619E+01  0.14294221199E+03  0.69218150564E+03  0.70682801897E+03  0.00000000000E+00 0.  1.
         11    1    1    2    0    0  0.67284158533E+01 -0.14081906300E+02  0.80236799700E+02  0.81740538848E+02  0.00000000000E+00 0. -1.
</event>
<event>
 7    1  0.2666594E-009  0.1424642E+03  0.7561462E-02  0.1210051E+00
          1   -1    0    0  501    0  0.00000000000E+00  0.00000000000E+00  0.17745716069E+03  0.17745716069E+03  0.00000000000E+00 0. -1.
         -1   -1    0    0    0  501 -0.00000000000E+00 -0.00000000000E+00 -0.12773464830E+03  0.12773464830E+03  0.00000000000E+00 0.  1.
         25    2    1    2    0    0  0.76139894743E+02 -0.83000578900E+02  0.82397382476E+01  0.16852972640E+03  0.12509194908E+03 0.  0.
          5    1    3    3  502    0  0.79965371835E+02  0.30830886625E+01 -0.87253097081E+01  0.80607503112E+02  0.41800000000E+01 0. -1.
         -5    1    3    3    0  502 -0.38254770926E+01 -0.86083667562E+02  0.16965047956E+02  0.87922223289E+02  0.41800000000E+01 0. -1.
        -11    1    1    2    0    0 -0.39890716614E+02  0.68929458355E+02  0.53525119170E+02  0.95955603710E+02  0.00000000000E+00 0. -1.
         11    1    1    2    0    0 -0.36249178128E+02  0.14071120544E+02 -0.12042345028E+02  0.40706478871E+02  0.00000000000E+00 0.  1.
</event>
<event>
 7    1  0.2666594E-009  0.1321634E+03  0.7561462E-02  0.1224280E+00
          2   -1    0    0  501    0  0.00000000000E+00  0.00000000000E+00  0.16730843042E+03  0.16730843042E+03  0.00000000000E+00 0. -1.
         -2   -1    0    0    0  501 -0.00000000000E+00 -0.00000000000E+00 -0.13296419627E+03  0.13296419627E+03  0.00000000000E+00 0.  1.
         25    2    1    2    0    0 -0.98142344508E+02 -0.30319859630E+02 -0.98656996451E+01  0.16215706596E+03  0.12508544415E+03 0.  0.
          5    1    3    3  502    0 -0.77138218622E+02 -0.71553983960E+02  0.19642751394E+02  0.10711483312E+03  0.41800000000E+01 0.  1.
         -5    1    3    3    0  502 -0.21004125886E+02  0.41234124330E+02 -0.29508451039E+02  0.55042232841E+02  0.41800000000E+01 0.  1.
        -11    1    1    2    0    0  0.10042256916E+03  0.20513221030E+02  0.60459751441E+02  0.11899943772E+03  0.00000000000E+00 0. -1.
         11    1    1    2    0    0 -0.22802246510E+01  0.98066386007E+01 -0.16249817646E+02  0.19116123002E+02  0.00000000000E+00 0.  1.
</event>
<event>
 7    1  0.2666594E-009  0.1256605E+03  0.7561462E-02  0.1234041E+00
          1   -1    0    0  501    0  0.00000000000E+00  0.00000000000E+00  0.81976329065E+03  0.81976329065E+03  0.00000000000E+00 0. -1.
         -1   -1    0    0    0  501 -0.00000000000E+00 -0.00000000000E+00 -0.25484531685E+02  0.25484531685E+02  0.00000000000E+00 0.  1.
         25    2    1    2    0    0  0.91386415693E+02 -0.25924133678E+02  0.37061852430E+03  0.40252853596E+03  0.12509034344E+03 0.  0.
          5    1    3    3  502    0 -0.10654566425E+02 -0.48265863258E+02  0.85486895993E+02  0.98836203530E+02  0.41800000000E+01 0.  1.
         -5    1    3    3    0  502  0.10204098212E+03  0.22341729580E+02  0.28513162831E+03  0.30369233243E+03  0.41800000000E+01 0.  1.
        -11    1    1    2    0    0 -0.70861975943E+02  0.10800519767E+02  0.40456599557E+03  0.41086702914E+03  0.00000000000E+00 0. -1.
         11    1    1    2    0    0 -0.20524439750E+02  0.15123613911E+02  0.19094239094E+02  0.31852257241E+02  0.00000000000E+00 0.  1.
</event>
<event>
 7    1  0.2666594E-009  0.7655407E+02  0.7561462E-02  0.1339125E+00
          2   -1    0    0  501    0  0.00000000000E+00  0.00000000000E+00  0.13111002864E+03  0.13111002864E+03  0.00000000000E+00 0. -1.
         -2   -1    0    0    0  501 -0.00000000000E+00 -0.00000000000E+00 -0.11257880197E+03  0.11257880197E+03  0.00000000000E+00 0.  1.
         25    2    1    2    0    0 -0.46177791759E+02 -0.12064487079E+02  0.34827625183E+02  0.13834196361E+03  0.12509034783E+03 0.  0.
          5    1    3    3  502    0  0.63585318171E+01 -0.20567474887E+02 -0.40476260817E+02  0.46035334688E+02  0.41800000000E+01 0.  1.
         -5    1    3    3    0  502 -0.52536323576E+02  0.85029878081E+01  0.75303886000E+02  0.92306628924E+02  0.41800000000E+01 0.  1.
        -11    1    1    2    0    0  0.55756395498E+02  0.25486175554E+02  0.20810726903E+02  0.64741077668E+02  0.00000000000E+00 0. -1.
         11    1    1    2    0    0 -0.95786037392E+01 -0.13421688475E+02 -0.37107125414E+02  0.40605789336E+02  0.00000000000E+00 0.  1.
</event>
<event>
 7    1  0.2666594E-009  0.1777762E+03  0.7561462E-02  0.1169973E+00
          1   -1    0    0  501    0  0.00000000000E+00  0.00000000000E+00  0.40813216240E+03  0.40813216240E+03  0.00000000000E+00 0. -1.
         -1   -1    0    0    0  501 -0.00000000000E+00 -0.00000000000E+00 -0.98582258002E+02  0.98582258002E+02  0.00000000000E+00 0.  1.
         25    2    1    2    0    0  0.13936454478E+03  0.89503933119E+02  0.12175282936E+03  0.24063406441E+03  0.12509025187E+03 0.  0.
          5    1    3    3  502    0  0.14093110608E+03  0.52083019055E+02  0.47954149146E+02  0.15776973840E+03  0.41800000000E+01 0.  1.
         -5    1    3    3    0  502 -0.15665613046E+01  0.37420914063E+02  0.73798680214E+02  0.82864326010E+02  0.41800000000E+01 0.  1.
        -11    1    1    2    0    0 -0.61184531919E+02 -0.24577431813E+02  0.13793037906E+03  0.15288030144E+03  0.00000000000E+00 0. -1.
         11    1    1    2    0    0 -0.78180012860E+02 -0.64926501306E+02  0.49866695982E+02  0.11320005455E+03  0.00000000000E+00 0.  1.
</event>
<event>
 7    1  0.2666594E-009  0.1326082E+03  0.7561462E-02  0.1223636E+00
          1   -1    0    0  501    0  0.00000000000E+00  0.00000000000E+00  0.30336438594E+03  0.30336438594E+03  0.00000000000E+00 0. -1.
         -1   -1    0    0    0  501 -0.00000000000E+00 -0.00000000000E+00 -0.73412923494E+02  0.73412923494E+02  0.00000000000E+00 0.  1.
         25    2    1    2    0    0  0.89603203887E+02 -0.28365717760E+00  0.64266237021E+02  0.16675345461E+03  0.12509097008E+03 0.  0.
          5    1    3    3  502    0  0.59896864660E+02  0.54043267987E+02  0.49940654347E+01  0.80936532545E+02  0.41800000000E+01 0. -1.
         -5    1    3    3    0  502  0.29706339227E+02 -0.54326925165E+02  0.59272171586E+02  0.85816922064E+02  0.41800000000E+01 0. -1.
        -11    1    1    2    0    0 -0.10494761779E+03  0.78991840071E+01  0.11207805921E+03  0.15374619001E+03  0.00000000000E+00 0.  1.
         11    1    1    2    0    0  0.15344413902E+02 -0.76155268295E+01  0.53607166223E+02  0.56277664818E+02  0.00000000000E+00 0. -1.
</event>
<event>
 7    1  0.2666594E-009  0.9299569E+02  0.7561462E-02  0.1295755E+00
          2   -1    0    0  501    0  0.00000000000E+00  0.00000000000E+00  0.40256646946E+03  0.40256646946E+03  0.00000000000E+00 0. -1.
         -2   -1    0    0    0  501 -0.00000000000E+00 -0.00000000000E+00 -0.40875883525E+02  0.40875883525E+02  0.00000000000E+00 0.  1.
         25    2    1    2    0    0 -0.29836702872E+02 -0.42782001638E+02  0.13732414049E+03  0.19293641032E+03  0.12508401322E+03 0.  0.
          5    1    3    3  502    0 -0.45587662383E+02  0.90876670156E+01  0.15689036543E+01  0.46698549356E+02  0.41800000000E+01 0. -1.
         -5    1    3    3    0  502  0.15750959511E+02 -0.51869668653E+02  0.13575523683E+03  0.14623786096E+03  0.41800000000E+01 0. -1.
        -11    1    1    2    0    0 -0.15698575818E+02  0.35526140916E+02  0.25733753530E+02  0.46591609135E+02  0.00000000000E+00 0.  1.
         11    1    1    2    0    0  0.45535278690E+02  0.72558607222E+01  0.19863269192E+03  0.20391433353E+03  0.00000000000E+00 0. -1.
</event>
<event>
 7    1  0.2666594E-009  0.1023132E+03  0.7561462E-02  0.1275505E+00
         -1   -1    0    0    0  501 -0.00000000000E+00  0.00000000000E+00  0.69827271265E+03  0.69827271265E+03  0.00000000000E+00 0.  1.
          1   -1    0    0  501    0  0.00000000000E+00 -0.00000000000E+00 -0.25401682997E+02  0.25401682997E+02  0.00000000000E+00 0. -1.
         25    2    1    2    0    0  0.71775724506E+02 -0.16976694944E+02  0.31583344933E+03  0.34762202947E+03  0.12510133835E+03 0.  0.
          5    1    3    3  502    0  0.74021781326E+02 -0.24531186078E+02  0.32534227068E+03  0.33458342560E+03  0.41800000000E+01 0. -1.
         -5    1    3    3    0  502 -0.22460568203E+01  0.75544911331E+01 -0.95088213418E+01  0.13038603868E+02  0.41800000000E+01 0. -1.
        -11    1    1    2    0    0 -0.29275658788E+02 -0.38097393397E+02  0.12991944434E+03  0.13851908749E+03  0.00000000000E+00 0. -1.
         11    1    1    2    0    0 -0.42500065718E+02  0.55074088341E+02  0.22711813598E+03  0.23753327869E+03  0.00000000000E+00 0.  1.
</event>
<event>
 7    1  0.2666594E-009  0.1071654E+03  0.7561462E-02  0.1265911E+00
         -1   -1    0    0    0  501 -0.00000000000E+00  0.00000000000E+00  0.18963468145E+03  0.18963468145E+03  0.00000000000E+00 0.  1.
          1   -1    0    0  501    0  0.00000000000E+00 -0.00000000000E+00 -0.64250901748E+02  0.64250901748E+02  0.00000000000E+00 0. -1.
         25    2    1    2    0    0  0.93603505063E+01 -0.20303551515E+02  0.72179691676E+02  0.14613644375E+03  0.12508437926E+03 0.  0.
          5    1    3    3  502    0  0.60552867695E+01 -0.70136549213E+02  0.18943671635E+02  0.73021484019E+02  0.41800000000E+01 0. -1.
         -5    1    3    3    0  502  0.33050637368E+01  0.49832997698E+02  0.53236020042E+02  0.73114959726E+02  0.41800000000E+01 0. -1.
        -11    1    1    2    0    0 -0.34313848439E+02  0.46318623436E+02  0.32183668286E+02  0.66020024054E+02  0.00000000000E+00 0. -1.
         11    1    1    2    0    0  0.24953497933E+02 -0.26015071920E+02  0.21020419741E+02  0.41729115401E+02  0.00000000000E+00 0.  1.
</event>
<event>
 7    1  0.2666594E-009  0.1182211E+03  0.7561462E-02  0.1246061E+00
          2   -1    0    0  501    0  0.00000000000E+00  0.00000000000E+00  0.51622265995E+03  0.51622265995E+03  0.00000000000E+00 0. -1.
         -2   -1    0    0    0  501 -0.00000000000E+00 -0.00000000000E+00 -0.44136648482E+02  0.44136648482E+02  0.00000000000E+00 0.  1.
         25    2    1    2    0    0  0.17983926877E+02  0.60004223456E+02  0.93095187083E+02  0.16804168565E+03  0.12508943120E+03 0.  0.
          5    1    3    3  502    0 -0.53212942909E+02  0.14874005965E+02  0.39820928605E+02  0.68235123664E+02  0.41800000000E+01 0. -1.
         -5    1    3    3    0  502  0.71196869786E+02  0.45130217491E+02  0.53274258478E+02  0.99806561981E+02  0.41800000000E+01 0. -1.
        -11    1    1    2    0    0 -0.39653388154E+02 -0.63319479377E+02  0.33421224131E+03  0.34246104874E+03  0.00000000000E+00 0. -1.
         11    1    1    2    0    0  0.21669461277E+02  0.33152559204E+01  0.44778583079E+02  0.49856574054E+02  0.00000000000E+00 0.  1.
</event>
<event>
 7    1  0.2666594E-009  0.1154212E+03  0.7561462E-02  0.1250848E+00
         -1   -1    0    0    0  501 -0.00000000000E+00  0.00000000000E+00  0.11270829757E+03  0.11270829757E+03  0.00000000000E+00 0.  1.
          1   -1    0    0  501    0  0.00000000000E+00 -0.00000000000E+00 -0.15970348212E+03  0.15970348212E+03  0.00000000000E+00 0. -1.
         25    2    1    2    0    0 -0.74105701068E+02  0.90164588164E+01 -0.53353315069E+02  0.15513350303E+03  0.12508747369E+03 0.  0.
          5    1    3    3  502    0 -0.59733162398E+01 -0.48134413151E+02 -0.43993517918E+02  0.65616341372E+02  0.41800000000E+01 0. -1.
         -5    1    3    3    0  502 -0.68132384829E+02  0.57150871968E+02 -0.93597971517E+01  0.89517161661E+02  0.41800000000E+01 0. -1.
        -11    1    1    2    0    0  0.31579937361E+02 -0.31860395220E+02  0.38639353678E+02  0.59206223321E+02  0.00000000000E+00 0.  1.
         11    1    1    2    0    0  0.42525763707E+02  0.22843936404E+02 -0.32281223165E+02  0.58072053333E+02  0.00000000000E+00 0. -1.
</event>
<event>
 7    1  0.2666594E-009  0.9950938E+02  0.7561462E-02  0.1281331E+00
         -1   -1    0    0    0  501 -0.00000000000E+00  0.00000000000E+00  0.62044874145E+02  0.62044874145E+02  0.00000000000E+00 0.  1.
          1   -1    0    0  501    0  0.00000000000E+00 -0.00000000000E+00 -0.28914347781E+03  0.28914347781E+03  0.00000000000E+00 0. -1.
         25    2    1    2    0    0  0.24078815931E+02  0.67232631106E+02 -0.16704574626E+03  0.22057149780E+03  0.12508992060E+03 0.  0.
          5    1    3    3  502    0  0.24388371115E+01  0.60675290703E+02 -0.97982257970E+01  0.61651573031E+02  0.41800000000E+01 0.  1.
         -5    1    3    3    0  502  0.21639978820E+02  0.65573404023E+01 -0.15724752046E+03  0.15891992477E+03  0.41800000000E+01 0.  1.
        -11    1    1    2    0    0  0.50826985745E+01  0.21324071054E+02 -0.55221093355E+01  0.22606271754E+02  0.00000000000E+00 0.  1.
         11    1    1    2    0    0 -0.29161514506E+02 -0.88556702160E+02 -0.54530748066E+02  0.10801058240E+03  0.00000000000E+00 0. -1.
</event>
<event>
 7    1  0.2666594E-009  0.1381919E+03  0.7561462E-02  0.1215783E+00
          2   -1    0    0  501    0  0.00000000000E+00  0.00000000000E+00  0.71886276242E+03  0.71886276242E+03  0.00000000000E+00 0. -1.
         -2   -1    0    0    0  501 -0.00000000000E+00 -0.00000000000E+00 -0.35349934643E+02  0.35349934643E+02  0.00000000000E+00 0.  1.
         25    2    1    2    0    0  0.63071535385E+02  0.86788372543E+02  0.47329352495E+03  0.50116520869E+03  0.12509822322E+03 0.  0.
          5    1    3    3  502    0  0.73367375636E+02  0.11139304125E+02  0.33495753565E+03  0.34310476387E+03  0.41800000000E+01 0. -1.
         -5    1    3    3    0  502 -0.10295840251E+02  0.75649068418E+02  0.13833598930E+03  0.15806044482E+03  0.41800000000E+01 0. -1.
        -11    1    1    2    0    0 -0.10272116247E+02 -0.69180671784E+02  0.17159478091E+03  0.18530043323E+03  0.00000000000E+00 0. -1.
         11    1    1    2    0    0 -0.52799419137E+02 -0.17607700759E+02  0.38624521916E+02  0.67747055143E+02  0.00000000000E+00 0.  1.
</event>
<event>
 7    1  0.2671740E-009  0.9152248E+02  0.7561462E-02  0.1299206E+00
          1   -1    0    0  501    0  0.00000000000E+00  0.00000000000E+00  0.14089086915E+03  0.14089086915E+03  0.00000000000E+00 0. -1.
         -1   -1    0    0    0  501 -0.00000000000E+00 -0.00000000000E+00 -0.10633945339E+03  0.10633945339E+03  0.00000000000E+00 0.  1.
         25    2    1    2    0    0  0.79407229750E+00  0.35889967177E+02 -0.25550896853E+02  0.13262358755E+03  0.12508975718E+03 0.  0.
          5    1    3    3  502    0 -0.43791551236E+02  0.31227961728E+02 -0.56399029641E+02  0.78046194640E+02  0.41800000000E+01 0. -1.
         -5    1    3    3    0  502  0.44585623534E+02  0.46620054493E+01  0.30848132788E+02  0.54577392913E+02  0.41800000000E+01 0. -1.
        -11    1    1    2    0    0  0.23280623798E+02 -0.50713385403E+02  0.94471571412E+01  0.56595792083E+02  0.00000000000E+00 0.  1.
         11    1    1    2    0    0 -0.24074696095E+02  0.14823418226E+02  0.50655155470E+02  0.58010942896E+02  0.00000000000E+00 0. -1.
</event>
<event>
 7    1  0.2666594E-009  0.1186524E+03  0.7561462E-02  0.1245337E+00
         -2   -1    0    0    0  501 -0.00000000000E+00  0.00000000000E+00  0.17835167279E+03  0.17835167279E+03  0.00000000000E+00 0. -1.
          2   -1    0    0  501    0  0.00000000000E+00 -0.00000000000E+00 -0.19248040825E+03  0.19248040825E+03  0.00000000000E+00 0.  1.
         25    2    1    2    0    0 -0.16641224444E+02  0.67018240484E+02 -0.14084621171E+03  0.20063414175E+03  0.12509208039E+03 0.  0.
          5    1    3    3  502    0 -0.66052976163E+02  0.60385533953E+02 -0.10996051801E+03  0.14183862765E+03  0.41800000000E+01 0.  1.
         -5    1    3    3    0  502  0.49411751719E+02  0.66327065311E+01 -0.30885693693E+02  0.58795514104E+02  0.41800000000E+01 0.  1.
        -11    1    1    2    0    0  0.35744302170E+02 -0.93712369696E+01  0.94464679133E+02  0.10143495859E+03  0.00000000000E+00 0. -1.
         11    1    1    2    0    0 -0.19103077725E+02 -0.57647003514E+02  0.32252797122E+02  0.68762980702E+02  0.00000000000E+00 0.  1.
</event>
<event>
 7    1  0.2666594E-009  0.1043536E+03  0.7561462E-02  0.1271398E+00
         -2   -1    0    0    0  501 -0.00000000000E+00  0.00000000000E+00  0.35055384454E+03  0.35055384454E+03  0.00000000000E+00 0.  1.
          2   -1    0    0  501    0  0.00000000000E+00 -0.00000000000E+00 -0.36886705982E+02  0.36886705982E+02  0.00000000000E+00 0. -1.
         25    2    1    2    0    0 -0.44677627288E+01 -0.25568382724E+02  0.21120739616E+03  0.24683510392E+03  0.12508117857E+03 0.  0.
          5    1    3    3  502    0 -0.63572868476E+02 -0.14515637429E+02  0.13214017060E+03  0.14741339974E+03  0.41800000000E+01 0. -1.
         -5    1    3    3    0  502  0.59105105747E+02 -0.11052745294E+02  0.79067225564E+02  0.99421704182E+02  0.41800000000E+01 0. -1.
        -11    1    1    2    0    0  0.36348029974E+02  0.34361495692E+02  0.93984772947E+02  0.10646609420E+03  0.00000000000E+00 0.  1.
         11    1    1    2    0    0 -0.31880267245E+02 -0.87931129683E+01  0.84749694506E+01  0.34139352402E+02  0.00000000000E+00 0. -1.
</event>
<event>
 7    1  0.2666594E-009  0.1057633E+03  0.7561462E-02  0.1268623E+00
          2   -1    0    0  501    0  0.00000000000E+00  0.00000000000E+00  0.25874120124E+03  0.25874120124E+03  0.00000000000E+00 0. -1.
         -2   -1    0    0    0  501 -0.00000000000E+00 -0.00000000000E+00 -0.12127487399E+03  0.12127487399E+03  0.00000000000E+00 0.  1.
         25    2    1    2    0    0  0.89110646812E+02 -0.26490161310E+02 -0.38131033257E+02  0.16045460551E+03  0.12509703718E+03 0.  0.
          5    1    3    3  502    0  0.95112412379E+02 -0.29139762255E+02 -0.73808989987E+02  0.12393843688E+03  0.41800000000E+01 0. -1.
         -5    1    3    3    0  502 -0.60017655666E+01  0.26496009446E+01  0.35677956730E+02  0.36516168631E+02  0.41800000000E+01 0. -1.
        -11    1    1    2    0    0 -0.77646360742E+02  0.26055171717E+01  0.52788723323E+02  0.93927607051E+02  0.00000000000E+00 0.  1.
         11    1    1    2    0    0 -0.11464286070E+02  0.23884644139E+02  0.12280863718E+03  0.12563386266E+03  0.00000000000E+00 0. -1.
</event>
<event>
 7    1  0.2666594E-009  0.1621590E+03  0.7561462E-02  0.1186281E+00
          1   -1    0    0  501    0  0.00000000000E+00  0.00000000000E+00  0.66918569730E+03  0.66918569730E+03  0.00000000000E+00 0. -1.
         -1   -1    0    0    0  501 -0.00000000000E+00 -0.00000000000E+00 -0.56332196770E+02  0.56332196770E+02  0.00000000000E+00 0.  1.
         25    2    1    2    0    0 -0.12093587479E+03  0.49956357229E+02  0.14500066158E+03  0.23193317400E+03  0.12508669756E+03 0.  0.
          5    1    3    3  502    0 -0.69352905719E+02  0.87053814886E+02  0.62501194223E+02  0.12771869048E+03  0.41800000000E+01 0.  1.
         -5    1    3    3    0  502 -0.51582969071E+02 -0.37097457657E+02  0.82499467353E+02  0.10421448352E+03  0.41800000000E+01 0.  1.
        -11    1    1    2    0    0  0.26245330786E+02  0.18764119802E+02  0.17990195429E+03  0.18277205130E+03  0.00000000000E+00 0.  1.
         11    1    1    2    0    0  0.94690544005E+02 -0.68720477031E+02  0.28795088466E+03  0.31081266877E+03  0.00000000000E+00 0. -1.
</event>
<event>
 7    1  0.2666594E-009  0.1238217E+03  0.7561462E-02  0.1236922E+00
         -1   -1    0    0    0  501 -0.00000000000E+00  0.00000000000E+00  0.23056400116E+03  0.23056400116E+03  0.00000000000E+00 0.  1.
          1   -1    0    0  501    0  0.00000000000E+00 -0.00000000000E+00 -0.94928156615E+02  0.94928156615E+02  0.00000000000E+00 0. -1.
         25    2    1    2    0    0  0.14962885387E+01 -0.74096300429E+02 -0.96412891393E+01  0.14571664716E+03  0.12509151125E+03 0.  0.
          5    1    3    3  502    0  0.49589518786E+01  0.34347326004E+02  0.76160831419E+01  0.35774392095E+02  0.41800000000E+01 0.  1.
         -5    1    3    3    0  502 -0.34626633398E+01 -0.10844362643E+03 -0.17257372281E+02  0.10994225507E+03  0.41800000000E+01 0.  1.
        -11    1    1    2    0    0 -0.34398125192E+02  0.58114506654E+02  0.77794083567E+02  0.10301672844E+03  0.00000000000E+00 0. -1.
         11    1    1    2    0    0  0.32901836653E+02  0.15981793775E+02  0.67483050117E+02  0.76758782172E+02  0.00000000000E+00 0.  1.
</event>
<event>
 7    1  0.2666594E-009  0.1076392E+03  0.7561462E-02  0.1265005E+00
          1   -1    0    0  501    0  0.00000000000E+00  0.00000000000E+00  0.39373605504E+03  0.39373605504E+03  0.00000000000E+00 0. -1.
         -1   -1    0    0    0  501 -0.00000000000E+00 -0.00000000000E+00 -0.41060988398E+02  0.41060988398E+02  0.00000000000E+00 0.  1.
         25    2    1    2    0    0  0.35003675133E+02 -0.41352984738E+02  0.13182371586E+03  0.18963111885E+03  0.12508853885E+03 0.  0.
          5    1    3    3  502    0  0.81882546360E+01 -0.69472337402E+02  0.13321882140E+03  0.15052634305E+03  0.41800000000E+01 0. -1.
         -5    1    3    3    0  502  0.26815420497E+02  0.28119352664E+02 -0.13951055311E+01  0.39104775796E+02  0.41800000000E+01 0. -1.
        -11    1    1    2    0    0  0.31240553024E+02  0.16809141594E+02  0.64995754762E+02  0.74047062949E+02  0.00000000000E+00 0.  1.
         11    1    1    2    0    0 -0.66244228156E+02  0.24543843144E+02  0.15585559602E+03  0.17111886164E+03  0.00000000000E+00 0. -1.
</event>
<event>
 7    1  0.2666594E-009  0.1050457E+03  0.7561462E-02  0.1270030E+00
          1   -1    0    0  501    0  0.00000000000E+00  0.00000000000E+00  0.46332412920E+02  0.46332412920E+02  0.00000000000E+00 0. -1.
         -1   -1    0    0    0  501 -0.00000000000E+00 -0.00000000000E+00 -0.45873532645E+03  0.45873532645E+03  0.00000000000E+00 0.  1.
         25    2    1    2    0    0  0.12140215332E+02 -0.48964405528E+02 -0.37273935084E+03  0.39639295344E+03  0.12509137475E+03 0.  0.
          5    1    3    3  502    0  0.46786356906E+02  0.41185650050E+01 -0.55365541110E+02  0.72723732802E+02  0.41800000000E+01 0.  1.
         -5    1    3    3    0  502 -0.34646141574E+02 -0.53082970534E+02 -0.31737380973E+03  0.32366922064E+03  0.41800000000E+01 0.  1.
        -11    1    1    2    0    0  0.33389694443E+02  0.41515347560E+02 -0.31290599356E+02  0.61785899573E+02  0.00000000000E+00 0.  1.
         11    1    1    2    0    0 -0.45529909775E+02  0.74490579684E+01 -0.83729633346E+01  0.46888886356E+02  0.00000000000E+00 0. -1.
</event>
<event>
 7    1  0.2666594E-009  0.1097404E+03  0.7561462E-02  0.1261051E+00
          3   -1    0    0  501    0  0.00000000000E+00  0.00000000000E+00  0.33850549091E+02  0.33850549091E+02  0.00000000000E+00 0. -1.
         -3   -1    0    0    0  501 -0.00000000000E+00 -0.00000000000E+00 -0.41952277970E+03  0.41952277970E+03  0.00000000000E+00 0.  1.
         25    2    1    2    0    0  0.25247847482E+02 -0.16125534064E+02 -0.14084345006E+03  0.19074095195E+03  0.12509095360E+03 0.  0.
          5    1    3    3  502    0  0.32398573150E+02  0.49303594124E+02 -0.88965400157E+02  0.10683083244E+03  0.41800000000E+01 0. -1.
         -5    1    3    3    0  502 -0.71507256676E+01 -0.65429128188E+02 -0.51878049907E+02  0.83910119504E+02  0.41800000000E+01 0. -1.
        -11    1    1    2    0    0  0.25600646097E+02  0.32126365436E+02 -0.12215340647E+03  0.12887571978E+03  0.00000000000E+00 0.  1.
         11    1    1    2    0    0 -0.50848493579E+02 -0.16000831372E+02 -0.12267537407E+03  0.13375665705E+03  0.00000000000E+00 0. -1.
</event>
<event>
 7    1  0.2666594E-009  0.9684201E+02  0.7561462E-02  0.1287081E+00
         -1   -1    0    0    0  501 -0.00000000000E+00  0.00000000000E+00  0.21815871544E+03  0.21815871544E+03  0.00000000000E+00 0.  1.
          1   -1    0    0  501    0  0.00000000000E+00 -0.00000000000E+00 -0.69129919796E+02  0.69129919796E+02  0.00000000000E+00 0. -1.
         25    2    1    2    0    0 -0.15730353689E+02  0.52429369793E+02  0.63531822358E+02  0.15059685753E+03  0.12508732231E+03 0.  0.
          5    1    3    3  502    0 -0.27691472483E+02 -0.34795635748E+02  0.53499895518E+01  0.44984983090E+02  0.41800000000E+01 0. -1.
         -5    1    3    3    0  502  0.11961118794E+02  0.87225005541E+02  0.58181832806E+02  0.10561187444E+03  0.41800000000E+01 0. -1.
        -11    1    1    2    0    0  0.13554402727E+02 -0.67418312408E+01  0.89505910322E+02  0.90777101212E+02  0.00000000000E+00 0.  1.
         11    1    1    2    0    0  0.21759509621E+01 -0.45687538552E+02 -0.40089370334E+01  0.45914676496E+02  0.00000000000E+00 0. -1.
</event>
<event>
 7    1  0.2666594E-009  0.9995739E+02  0.7561462E-02  0.1280386E+00
          4   -1    0    0  501    0  0.00000000000E+00  0.00000000000E+00  0.14077467354E+03  0.14077467354E+03  0.00000000000E+00 0. -1.
         -4   -1    0    0    0  501 -0.00000000000E+00 -0.00000000000E+00 -0.98272850412E+02  0.98272850412E+02  0.00000000000E+00 0.  1.
         25    2    1    2    0    0 -0.12027651158E+02  0.35617581792E+02 -0.20924678681E+01  0.13063116755E+03  0.12508735743E+03 0.  0.
          5    1    3    3  502    0  0.59245718349E+01 -0.43380358629E+02 -0.18761247049E+02  0.47816449649E+02  0.41800000000E+01 0.  1.
         -5    1    3    3    0  502 -0.17952222993E+02  0.78997940421E+02  0.16668779181E+02  0.82814717898E+02  0.41800000000E+01 0.  1.
        -11    1    1    2    0    0  0.35305135698E+02 -0.39716181243E+01 -0.13735772665E+02  0.38090652500E+02  0.00000000000E+00 0.  1.
         11    1    1    2    0    0 -0.23277484541E+02 -0.31645963668E+02  0.58330063665E+02  0.70325703908E+02  0.00000000000E+00 0. -1.
</event>
<event>
 7    1  0.2666594E-009  0.1689345E+03  0.7561462E-02  0.1178964E+00
         -1   -1    0    0    0  501 -0.00000000000E+00  0.00000000000E+00  0.26250048128E+02  0.26250048128E+02  0.00000000000E+00 0.  1.
          1   -1    0    0  501    0  0.00000000000E+00 -0.00000000000E+00 -0.21227032826E+04  0.21227032826E+04  0.00000000000E+00 0. -1.
         25    2    1    2    0    0 -0.39894327419E+02  0.16177880225E+03 -0.16705296465E+04  0.16834730781E+04  0.12509343126E+03 0.  0.
          5    1    3    3  502    0 -0.25910194017E+02  0.90449359486E+02 -0.40318049930E+03  0.41403431283E+03  0.41800000000E+01 0.  1.
         -5    1    3    3    0  502 -0.13984133402E+02  0.71329442766E+02 -0.12673491472E+04  0.12694387653E+04  0.41800000000E+01 0.  1.
        -11    1    1    2    0    0  0.35177671388E+02 -0.64341050729E+02 -0.92280376616E+02  0.11786817756E+03  0.00000000000E+00 0.  1.
         11    1    1    2    0    0  0.47166560312E+01 -0.97437751523E+02 -0.33364321134E+03  0.34761207508E+03  0.00000000000E+00 0. -1.
</event>
<event>
 7    1  0.2666594E-009  0.1865962E+03  0.7561462E-02  0.1161568E+00
          2   -1    0    0  501    0  0.00000000000E+00  0.00000000000E+00  0.73534601528E+03  0.73534601528E+03  0.00000000000E+00 0. -1.
         -2   -1    0    0    0  501 -0.00000000000E+00 -0.00000000000E+00 -0.50783414842E+02  0.50783414842E+02  0.00000000000E+00 0.  1.
         25    2    1    2    0    0  0.42961456638E+02  0.15141260511E+03  0.30580698151E+03  0.36597912766E+03  0.12510534842E+03 0.  0.
          5    1    3    3  502    0  0.50951431565E+02  0.12708048137E+02  0.14020604714E+03  0.14977566866E+03  0.41800000000E+01 0.  1.
         -5    1    3    3    0  502 -0.79899749276E+01  0.13870455697E+03  0.16560093436E+03  0.21620345901E+03  0.41800000000E+01 0.  1.
        -11    1    1    2    0    0 -0.71448319973E+02 -0.11301434327E+03  0.26740680181E+03  0.29897073748E+03  0.00000000000E+00 0.  1.
         11    1    1    2    0    0  0.28486863335E+02 -0.38398261839E+02  0.11134881712E+03  0.12117956498E+03  0.00000000000E+00 0. -1.
</event>
<event>
 7    1  0.2666594E-009  0.2391378E+03  0.7561462E-02  0.1120369E+00
         -2   -1    0    0    0  501 -0.00000000000E+00  0.00000000000E+00  0.20530826693E+03  0.20530826693E+03  0.00000000000E+00 0.  1.
          2   -1    0    0  501    0  0.00000000000E+00 -0.00000000000E+00 -0.28634448522E+03  0.28634448522E+03  0.00000000000E+00 0. -1.
         25    2    1    2    0    0  0.20633136348E+03  0.64921545272E+02 -0.52154310076E+02  0.25525433251E+03  0.12508902274E+03 0.  0.
          5    1    3    3  502    0  0.12651603308E+03 -0.24879193327E+02 -0.17829520021E+02  0.13023304140E+03  0.41800000000E+01 0. -1.
         -5    1    3    3    0  502  0.79815330402E+02  0.89800738599E+02 -0.34324790055E+02  0.12502129112E+03  0.41800000000E+01 0. -1.
        -11    1    1    2    0    0 -0.59867848755E+02 -0.56543627933E+02 -0.35206688549E+02  0.89559209984E+02  0.00000000000E+00 0. -1.
         11    1    1    2    0    0 -0.14646351473E+03 -0.83779173389E+01  0.63247803311E+01  0.14683920965E+03  0.00000000000E+00 0.  1.
</event>
<event>
 7    1  0.2666594E-009  0.1400576E+03  0.7561462E-02  0.1213251E+00
          3   -1    0    0  501    0  0.00000000000E+00  0.00000000000E+00  0.57364961507E+02  0.57364961507E+02  0.00000000000E+00 0. -1.
         -3   -1    0    0    0  501 -0.00000000000E+00 -0.00000000000E+00 -0.37292355970E+03  0.37292355970E+03  0.00000000000E+00 0.  1.
         25    2    1    2    0    0 -0.71319448516E+02  0.65030569927E+02 -0.19700034160E+03  0.25252503172E+03  0.12507724930E+03 0.  0.
          5    1    3    3  502    0 -0.71628307214E+02  0.94554247057E+02 -0.18619048533E+03  0.22080645203E+03  0.41800000000E+01 0. -1.
         -5    1    3    3    0  502  0.30885869873E+00 -0.29523677131E+02 -0.10809856271E+02  0.31718579691E+02  0.41800000000E+01 0. -1.
        -11    1    1    2    0    0 -0.19590234314E+02  0.39692723637E+00 -0.10972692041E+02  0.22457399724E+02  0.00000000000E+00 0. -1.
         11    1    1    2    0    0  0.90909682830E+02 -0.65427497163E+02 -0.10758556455E+03  0.15530608976E+03  0.00000000000E+00 0.  1.
</event>
<event>
 7    1  0.2666594E-009  0.9936173E+02  0.7561462E-02  0.1281644E+00
         -1   -1    0    0    0  501 -0.00000000000E+00  0.00000000000E+00  0.19033229055E+03  0.19033229055E+03  0.00000000000E+00 0.  1.
          1   -1    0    0  501    0  0.00000000000E+00 -0.00000000000E+00 -0.13752178061E+03  0.13752178061E+03  0.00000000000E+00 0. -1.
         25    2    1    2    0    0  0.60693923351E+02 -0.69821438295E+02  0.10411607521E+03  0.18720473753E+03  0.12508665421E+03 0.  0.
          5    1    3    3  502    0  0.23848430311E+02 -0.11780112584E+02 -0.27605769256E+02  0.38562541112E+02  0.41800000000E+01 0.  1.
         -5    1    3    3    0  502  0.36845493040E+02 -0.58041325712E+02  0.13172184446E+03  0.14864219642E+03  0.41800000000E+01 0.  1.
        -11    1    1    2    0    0 -0.24821478542E+02  0.61180097215E+02 -0.72531477944E+02  0.98081218309E+02  0.00000000000E+00 0. -1.
         11    1    1    2    0    0 -0.35872444809E+02  0.86413410803E+01  0.21225912684E+02  0.42568115316E+02  0.00000000000E+00 0.  1.
</event>
<event>
 7    1  0.2666594E-009  0.7052390E+02  0.7561462E-02  0.1358321E+00
         -2   -1    0    0    0  501 -0.00000000000E+00  0.00000000000E+00  0.72589307920E+02  0.72589307920E+02  0.00000000000E+00 0.  1.
          2   -1    0    0  501    0  0.00000000000E+00 -0.00000000000E+00 -0.24022552866E+03  0.24022552866E+03  0.00000000000E+00 0. -1.
         25    2    1    2    0    0  0.11979060220E+02 -0.32057921443E+02 -0.17046644832E+03  0.21419222204E+03  0.12509312438E+03 0.  0.
          5    1    3    3  502    0  0.24020692134E+02 -0.14669662309E+02 -0.18565286520E+03  0.18782079597E+03  0.41800000000E+01 0. -1.
         -5    1    3    3    0  502 -0.12041631914E+02 -0.17388259133E+02  0.15186416883E+02  0.26371426063E+02  0.41800000000E+01 0. -1.
        -11    1    1    2    0    0 -0.25077682180E+02 -0.23248964876E+02 -0.17303436980E+02  0.38325101991E+02  0.00000000000E+00 0. -1.
         11    1    1    2    0    0  0.13098621959E+02  0.55306886319E+02  0.20133664558E+02  0.60297512553E+02  0.00000000000E+00 0.  1.
</event>
<event>
 7    1  0.2666594E-009  0.1591655E+03  0.7561462E-02  0.1189642E+00
          2   -1    0    0  501    0  0.00000000000E+00  0.00000000000E+00  0.89076366139E+03  0.89076366139E+03  0.00000000000E+00 0. -1.
         -2   -1    0    0    0  501 -0.00000000000E+00 -0.00000000000E+00 -0.36076722943E+02  0.36076722943E+02  0.00000000000E+00 0.  1.
         25    2    1    2    0    0  0.24757133645E+02 -0.11606915243E+03  0.65699265858E+03  0.67924287584E+03  0.12508623878E+03 0.  0.
          5    1    3    3  502    0  0.73706209139E+02 -0.75504527955E+02  0.34446739303E+03  0.36028987811E+03  0.41800000000E+01 0.  1.
         -5    1    3    3    0  502 -0.48949075494E+02 -0.40564624479E+02  0.31252526555E+03  0.31895299773E+03  0.41800000000E+01 0.  1.
        -11    1    1    2    0    0 -0.46389002230E+02  0.19945944388E+02  0.64088940008E+02  0.81591497454E+02  0.00000000000E+00 0.  1.
         11    1    1    2    0    0  0.21631868585E+02  0.96123208046E+02  0.13360533986E+03  0.16600601104E+03  0.00000000000E+00 0. -1.
</event>
<event>
 7    1  0.2666594E-009  0.2014287E+03  0.7561462E-02  0.1148539E+00
          2   -1    0    0  501    0  0.00000000000E+00  0.00000000000E+00  0.59543476470E+03  0.59543476470E+03  0.00000000000E+00 0. -1.
         -2   -1    0    0    0  501 -0.00000000000E+00 -0.00000000000E+00 -0.12779100483E+03  0.12779100483E+03  0.00000000000E+00 0.  1.
         25    2    1    2    0    0  0.45894409108E+02  0.16645600285E+03  0.48195791333E+03  0.52701528555E+03  0.12509110004E+03 0.  0.
          5    1    3    3  502    0  0.33355435879E+01  0.16691636066E+03  0.41748409890E+03  0.44964724234E+03  0.41800000000E+01 0. -1.
         -5    1    3    3    0  502  0.42558865520E+02 -0.46035780594E+00  0.64473814426E+02  0.77368043211E+02  0.41800000000E+01 0. -1.
        -11    1    1    2    0    0  0.17281053608E+02 -0.25990475549E+01 -0.10835669800E+02  0.20562140016E+02  0.00000000000E+00 0.  1.
         11    1    1    2    0    0 -0.63175462716E+02 -0.16385695530E+03 -0.34784836560E+01  0.17564834397E+03  0.00000000000E+00 0. -1.
</event>
<event>
 7    1  0.2666594E-009  0.8780871E+02  0.7561462E-02  0.1308247E+00
         -1   -1    0    0    0  501 -0.00000000000E+00  0.00000000000E+00  0.37294953431E+02  0.37294953431E+02  0.00000000000E+00 0.  1.
          1   -1    0    0  501    0  0.00000000000E+00 -0.00000000000E+00 -0.45210693709E+03  0.45210693709E+03  0.00000000000E+00 0. -1.
         25    2    1    2    0    0 -0.26902162381E+02  0.30181416842E+02 -0.33538592437E+03  0.36023064236E+03  0.12509097956E+03 0.  0.
          5    1    3    3  502    0 -0.43293618647E+02  0.14116239635E+01 -0.32091803701E+03  0.32385519755E+03  0.41800000000E+01 0.  1.
         -5    1    3    3    0  502  0.16391456266E+02  0.28769792879E+02 -0.14467887352E+02  0.36375444811E+02  0.41800000000E+01 0.  1.
        -11    1    1    2    0    0 -0.78517040899E+00  0.31293285240E+02 -0.40946722523E+02  0.51541442346E+02  0.00000000000E+00 0. -1.
         11    1    1    2    0    0  0.27687332790E+02 -0.61474702082E+02 -0.38479336772E+02  0.77629805819E+02  0.00000000000E+00 0.  1.
</event>
<event>
 7    1  0.2666594E-009  0.1247292E+03  0.7561462E-02  0.1235493E+00
         -3   -1    0    0    0  501 -0.00000000000E+00  0.00000000000E+00  0.12263896861E+03  0.12263896861E+03  0.00000000000E+00 0.  1.
          3   -1    0    0  501    0  0.00000000000E+00 -0.00000000000E+00 -0.13402314193E+03  0.13402314193E+03  0.00000000000E+00 0. -1.
         25    2    1    2    0    0  0.66088034881E+02  0.10257886550E+02 -0.22074177168E+02  0.14354890461E+03  0.12508463586E+03 0.  0.
          5    1    3    3  502    0  0.77801659935E+01 -0.52355415564E+02  0.59343772705E+01  0.53425740569E+02  0.41800000000E+01 0.  1.
         -5    1    3    3    0  502  0.58307868888E+02  0.62613302114E+02 -0.28008554439E+02  0.90123164045E+02  0.41800000000E+01 0.  1.
        -11    1    1    2    0    0 -0.30618009356E+02 -0.49249879646E+02  0.15936260115E+02  0.60141312993E+02  0.00000000000E+00 0.  1.
         11    1    1    2    0    0 -0.35470025525E+02  0.38991993096E+02 -0.52462562714E+01  0.52971892936E+02  0.00000000000E+00 0. -1.
</event>
<event>
 7    1  0.2666594E-009  0.1146270E+03  0.7561462E-02  0.1252234E+00
         -3   -1    0    0    0  501 -0.00000000000E+00  0.00000000000E+00  0.11186609610E+03  0.11186609610E+03  0.00000000000E+00 0.  1.
          3   -1    0    0  501    0  0.00000000000E+00 -0.00000000000E+00 -0.24687000486E+03  0.24687000486E+03  0.00000000000E+00 0. -1.
         25    2    1    2    0    0 -0.31853600332E+02  0.76305708586E+02  0.29137013962E+02  0.15275363223E+03  0.12508994188E+03 0.  0.
          5    1    3    3  502    0  0.33582491821E+02  0.51150620931E+02  0.50391681411E+02  0.79378610053E+02  0.41800000000E+01 0.  1.
         -5    1    3    3    0  502 -0.65436092153E+02  0.25155087655E+02 -0.21254667448E+02  0.73375022177E+02  0.41800000000E+01 0.  1.
        -11    1    1    2    0    0 -0.13321771721E+02 -0.30864407662E+02 -0.44425632384E+01  0.33908960914E+02  0.00000000000E+00 0.  1.
         11    1    1    2    0    0  0.45175372053E+02 -0.45441300923E+02 -0.15969835948E+03  0.17207350781E+03  0.00000000000E+00 0. -1.
</event>
<event>
 7    1  0.2666594E-009  0.1093670E+03  0.7561462E-02  0.1261747E+00
         -1   -1    0    0    0  501 -0.00000000000E+00  0.00000000000E+00  0.14895652417E+02  0.14895652417E+02  0.00000000000E+00 0.  1.
          1   -1    0    0  501    0  0.00000000000E+00 -0.00000000000E+00 -0.12513448933E+04  0.12513448933E+04  0.00000000000E+00 0. -1.
         25    2    1    2    0    0  0.75097085963E+02 -0.26163594870E+02 -0.73967184308E+03  0.75437788398E+03  0.12508976933E+03 0.  0.
          5    1    3    3  502    0  0.19210990412E+02 -0.51567295749E+02 -0.12508583402E+03  0.13671937104E+03  0.41800000000E+01 0. -1.
         -5    1    3    3    0  502  0.55886095551E+02  0.25403700879E+02 -0.61458600905E+03  0.61765851295E+03  0.41800000000E+01 0. -1.
        -11    1    1    2    0    0  0.93957855171E+01 -0.65032940267E+01 -0.62176734185E+01  0.13008961581E+02  0.00000000000E+00 0.  1.
         11    1    1    2    0    0 -0.84492871480E+02  0.32666888897E+02 -0.49055972439E+03  0.49885370015E+03  0.00000000000E+00 0. -1.
</event>
<event>
 7    1  0.2666594E-009  0.2017412E+03  0.7561462E-02  0.1148278E+00
         -1   -1    0    0    0  501 -0.00000000000E+00  0.00000000000E+00  0.16379992504E+03  0.16379992504E+03  0.00000000000E+00 0.  1.
          1   -1    0    0  501    0  0.00000000000E+00 -0.00000000000E+00 -0.27636617023E+03  0.27636617023E+03  0.00000000000E+00 0. -1.
         25    2    1    2    0    0 -0.15169112563E+03 -0.83531214543E+02 -0.11879824442E+03  0.24443560676E+03  0.12509229223E+03 0.  0.
          5    1    3    3  502    0 -0.14887398168E+03 -0.25961313726E+02 -0.10762570396E+03  0.18557536686E+03  0.41800000000E+01 0.  1.
         -5    1    3    3    0  502 -0.28171439441E+01 -0.57569900817E+02 -0.11172540459E+02  0.58860239894E+02  0.41800000000E+01 0.  1.
        -11    1    1    2    0    0  0.26766543976E+02  0.62288485926E+02  0.12142796708E+02  0.68874892865E+02  0.00000000000E+00 0.  1.
         11    1    1    2    0    0  0.12492458165E+03  0.21242728618E+02 -0.59107974835E+01  0.12685559565E+03  0.00000000000E+00 0. -1.
</event>
<event>
 7    1  0.2666594E-009  0.9419609E+02  0.7561462E-02  0.1292997E+00
         -3   -1    0    0    0  501 -0.00000000000E+00  0.00000000000E+00  0.49737542795E+02  0.49737542795E+02  0.00000000000E+00 0.  1.
          3   -1    0    0  501    0  0.00000000000E+00 -0.00000000000E+00 -0.26296759620E+03  0.26296759620E+03  0.00000000000E+00 0. -1.
         25    2    1    2    0    0 -0.39827765393E+02  0.24305653359E+02 -0.11298894040E+03  0.17490415193E+03  0.12509175044E+03 0.  0.
          5    1    3    3  502    0 -0.43850378981E+02 -0.21555580136E+02 -0.11859908644E+03  0.12833828142E+03  0.41800000000E+01 0. -1.
         -5    1    3    3    0  502  0.40226135885E+01  0.45861233495E+02  0.56101460466E+01  0.46565870511E+02  0.41800000000E+01 0. -1.
        -11    1    1    2    0    0 -0.95370058191E+01  0.22909769048E+02 -0.38018280765E+02  0.45400458919E+02  0.00000000000E+00 0.  1.
         11    1    1    2    0    0  0.49364771212E+02 -0.47215422407E+02 -0.62222832248E+02  0.92400528152E+02  0.00000000000E+00 0. -1.
</event>
<event>
 7    1  0.2666594E-009  0.9173477E+02  0.7561462E-02  0.1298704E+00
         -2   -1    0    0    0  501 -0.00000000000E+00  0.00000000000E+00  0.14111226507E+02  0.14111226507E+02  0.00000000000E+00 0.  1.
          2   -1    0    0  501    0  0.00000000000E+00 -0.00000000000E+00 -0.96479891823E+03  0.96479891823E+03  0.00000000000E+00 0. -1.
         25    2    1    2    0    0  0.21913401844E+01 -0.33021867579E+02 -0.65152589449E+03  0.66425060871E+03  0.12509050434E+03 0.  0.
          5    1    3    3  502    0  0.12864095759E+02  0.32317536079E+02 -0.46430064373E+03  0.46562051960E+03  0.41800000000E+01 0.  1.
         -5    1    3    3    0  502 -0.10672755574E+02 -0.65339403658E+02 -0.18722525075E+03  0.19863008912E+03  0.41800000000E+01 0.  1.
        -11    1    1    2    0    0  0.13343906027E+02 -0.21556356247E+02 -0.28635155629E+02  0.38245371754E+02  0.00000000000E+00 0.  1.
         11    1    1    2    0    0 -0.15535246211E+02  0.54578223827E+02 -0.27052664160E+03  0.27641416427E+03  0.00000000000E+00 0. -1.
</event>
<event>
 7    1  0.2666594E-009  0.1237651E+03  0.7561462E-02  0.1237012E+00
          1   -1    0    0  501    0  0.00000000000E+00  0.00000000000E+00  0.24492186441E+03  0.24492186441E+03  0.00000000000E+00 0. -1.
         -1   -1    0    0    0  501 -0.00000000000E+00 -0.00000000000E+00 -0.71354472240E+02  0.71354472240E+02  0.00000000000E+00 0.  1.
         25    2    1    2    0    0  0.20649904820E+02 -0.64766762406E+02  0.61779726434E+02  0.15519643273E+03  0.12509215024E+03 0.  0.
          5    1    3    3  502    0 -0.44726772333E+02 -0.62045187484E+02  0.29147929828E+02  0.81958304439E+02  0.41800000000E+01 0. -1.
         -5    1    3    3    0  502  0.65376677153E+02 -0.27215749218E+01  0.32631796606E+02  0.73238128289E+02  0.41800000000E+01 0. -1.
        -11    1    1    2    0    0  0.22301479099E+02  0.57667133899E+02  0.97139393195E+02  0.11514736650E+03  0.00000000000E+00 0. -1.
         11    1    1    2    0    0 -0.42951383919E+02  0.70996285066E+01  0.14648272544E+02  0.45932537422E+02  0.00000000000E+00 0.  1.
</event>
<event>
 7    1  0.2666594E-009  0.1012155E+03  0.7561462E-02  0.1277761E+00
          1   -1    0    0  501    0  0.00000000000E+00  0.00000000000E+00  0.13953593518E+03  0.13953593518E+03  0.00000000000E+00 0. -1.
         -1   -1    0    0    0  501 -0.00000000000E+00 -0.00000000000E+00 -0.84807428921E+02  0.84807428921E+02  0.00000000000E+00 0.  1.
         25    2    1    2    0    0  0.40160700910E+01 -0.33447489733E+01  0.14696531381E+02  0.12605819673E+03  0.12508942706E+03 0.  0.
          5    1    3    3  502    0  0.61267262927E+02  0.96191740813E+01  0.23701484680E+02  0.66523971563E+02  0.41800000000E+01 0. -1.
         -5    1    3    3    0  502 -0.57251192836E+02 -0.12963923055E+02 -0.90049532993E+01  0.59534225165E+02  0.41800000000E+01 0. -1.
        -11    1    1    2    0    0  0.23717451963E+01  0.42089044674E+02  0.41275500730E+02  0.58998134016E+02  0.00000000000E+00 0. -1.
         11    1    1    2    0    0 -0.63878152873E+01 -0.38744295701E+02 -0.12435258515E+01  0.39287033358E+02  0.00000000000E+00 0.  1.
</event>
<event>
 7    1  0.2666594E-009  0.1490080E+03  0.7561462E-02  0.1201697E+00
         -2   -1    0    0    0  501 -0.00000000000E+00  0.00000000000E+00  0.26681849625E+02  0.26681849625E+02  0.00000000000E+00 0.  1.
          2   -1    0    0  501    0  0.00000000000E+00 -0.00000000000E+00 -0.93082242067E+03  0.93082242067E+03  0.00000000000E+00 0. -1.
         25    2    1    2    0    0 -0.11473385149E+03  0.74429517984E+01 -0.49793508224E+03  0.52612335967E+03  0.12508872553E+03 0.  0.
          5    1    3    3  502    0 -0.19914293939E+02 -0.42088400210E+02 -0.27343911522E+03  0.27740662333E+03  0.41800000000E+01 0.  1.
         -5    1    3    3    0  502 -0.94819557553E+02  0.49531352008E+02 -0.22449596702E+03  0.24871673634E+03  0.41800000000E+01 0.  1.
        -11    1    1    2    0    0  0.81217445285E+02 -0.45823697866E+02 -0.28607834075E+03  0.30089350566E+03  0.00000000000E+00 0. -1.
         11    1    1    2    0    0  0.33516406206E+02  0.38380746068E+02 -0.12012714805E+03  0.13048740495E+03  0.00000000000E+00 0.  1.
</event>
<event>
 7    1  0.2666594E-009  0.1030733E+03  0.7561462E-02  0.1273963E+00
          2   -1    0    0  501    0  0.00000000000E+00  0.00000000000E+00  0.20547602818E+02  0.20547602818E+02  0.00000000000E+00 0. -1.
         -2   -1    0    0    0  501 -0.00000000000E+00 -0.00000000000E+00 -0.60408952990E+03  0.60408952990E+03  0.00000000000E+00 0.  1.
         25    2    1    2    0    0  0.11090787621E+02  0.26575298743E+02 -0.29592002419E+03  0.32256112113E+03  0.12509102317E+03 0.  0.
          5    1    3    3  502    0  0.24647465298E+02 -0.39557060022E+02 -0.19864684265E+03  0.20408404896E+03  0.41800000000E+01 0. -1.
         -5    1    3    3    0  502 -0.13556677677E+02  0.66132358765E+02 -0.97273181536E+02  0.11847707218E+03  0.41800000000E+01 0. -1.
        -11    1    1    2    0    0 -0.22396819797E+02 -0.55935773566E+02 -0.17192089918E+03  0.18217360917E+03  0.00000000000E+00 0. -1.
         11    1    1    2    0    0  0.11306032176E+02  0.29360474823E+02 -0.11570100372E+03  0.11990240242E+03  0.00000000000E+00 0.  1.
</event>
<event>
 7    1  0.2666594E-009  0.8840861E+02  0.7561462E-02  0.1306752E+00
         -1   -1    0    0    0  501 -0.00000000000E+00  0.00000000000E+00  0.17210866345E+02  0.17210866345E+02  0.00000000000E+00 0.  1.
          1   -1    0    0  501    0  0.00000000000E+00 -0.00000000000E+00 -0.90074715430E+03  0.90074715430E+03  0.00000000000E+00 0. -1.
         25    2    1    2    0    0 -0.21195381387E+02  0.14642232058E+02 -0.69460499695E+03  0.70624965166E+03  0.12509528179E+03 0.  0.
          5    1    3    3  502    0  0.32262386269E-01 -0.30970025674E+02 -0.45580863131E+02  0.55265097620E+02  0.41800000000E+01 0.  1.
         -5    1    3    3    0  502 -0.21227643774E+02  0.45612257732E+02 -0.64902413382E+03  0.65098455404E+03  0.41800000000E+01 0.  1.
        -11    1    1    2    0    0  0.17600262586E+01 -0.52499150641E+02 -0.11442029562E+03  0.12590179729E+03  0.00000000000E+00 0.  1.
         11    1    1    2    0    0  0.19435355129E+02  0.37856918583E+02 -0.74510995380E+02  0.85806571695E+02  0.00000000000E+00 0. -1.
</event>
<event>
 7    1  0.2666594E-009  0.1394356E+03  0.7561462E-02  0.1214090E+00
          2   -1    0    0  501    0  0.00000000000E+00  0.00000000000E+00  0.10766230733E+03  0.10766230733E+03  0.00000000000E+00 0.  1.
         -2   -1    0    0    0  501 -0.00000000000E+00 -0.00000000000E+00 -0.25989188427E+03  0.25989188427E+03  0.00000000000E+00 0. -1.
         25    2    1    2    0    0  0.17221766338E+02 -0.95246094616E+02 -0.17309245453E+03  0.23447164096E+03  0.12509014678E+03 0.  0.
          5    1    3    3  502    0  0.59330607297E+02 -0.85557512419E+02 -0.78718018203E+02  0.13059175963E+03  0.41800000000E+01 0. -1.
         -5    1    3    3    0  502 -0.42108840960E+02 -0.96885821978E+01 -0.94374436331E+02  0.10387988133E+03  0.41800000000E+01 0. -1.
        -11    1    1    2    0    0 -0.48425140058E+02  0.25225023927E+02  0.12084849278E+02  0.55922621575E+02  0.00000000000E+00 0.  1.
         11    1    1    2    0    0  0.31203373721E+02  0.70021070689E+02  0.87780283200E+01  0.77159929064E+02  0.00000000000E+00 0. -1.
</event>
<event>
 7    1  0.2666594E-009  0.4736028E+02  0.7561462E-02  0.1460123E+00
         -3   -1    0    0    0  501 -0.00000000000E+00  0.00000000000E+00  0.18539544520E+02  0.18539544520E+02  0.00000000000E+00 0.  1.
          3   -1    0    0  501    0  0.00000000000E+00 -0.00000000000E+00 -0.12207607550E+04  0.12207607550E+04  0.00000000000E+00 0. -1.
         25    2    1    2    0    0  0.51021551507E+01  0.21751902230E+02 -0.10697013313E+04  0.10772209328E+04  0.12507926590E+03 0.  0.
          5    1    3    3  502    0  0.31877609508E+01  0.21438950656E+02 -0.10718915009E+04  0.10721187679E+04  0.41800000000E+01 0. -1.
         -5    1    3    3    0  502  0.19143941999E+01  0.31295157412E+00  0.21901696209E+01  0.51021649139E+01  0.41800000000E+01 0. -1.
        -11    1    1    2    0    0 -0.41599031937E+01 -0.44789119774E+02 -0.23699527254E+02  0.50843265403E+02  0.00000000000E+00 0.  1.
         11    1    1    2    0    0 -0.94225195700E+00  0.23037217545E+02 -0.10882035198E+03  0.11123610131E+03  0.00000000000E+00 0. -1.
</event>
<event>
 7    1  0.2666594E-009  0.1570926E+03  0.7561462E-02  0.1192019E+00
         -1   -1    0    0    0  501 -0.00000000000E+00  0.00000000000E+00  0.49534503261E+02  0.49534503261E+02  0.00000000000E+00 0.  1.
          1   -1    0    0  501    0  0.00000000000E+00 -0.00000000000E+00 -0.61199134778E+03  0.61199134778E+03  0.00000000000E+00 0. -1.
         25    2    1    2    0    0  0.55879926647E+02  0.12316207541E+03 -0.26920417097E+03  0.32620555569E+03  0.12509083050E+03 0.  0.
          5    1    3    3  502    0  0.69855185428E+02  0.74866382464E+02 -0.78919279852E+02  0.12934623028E+03  0.41800000000E+01 0. -1.
         -5    1    3    3    0  502 -0.13975258781E+02  0.48295692946E+02 -0.19028489112E+03  0.19685932542E+03  0.41800000000E+01 0. -1.
        -11    1    1    2    0    0 -0.76658222237E+02 -0.68604158747E+02 -0.20720264885E+03  0.23133514935E+03  0.00000000000E+00 0. -1.
         11    1    1    2    0    0  0.20778295590E+02 -0.54557916662E+02 -0.86050024700E+02  0.10398514600E+03  0.00000000000E+00 0.  1.
</event>
<event>
 7    1  0.2666594E-009  0.1896421E+03  0.7561462E-02  0.1158785E+00
          1   -1    0    0  501    0  0.00000000000E+00  0.00000000000E+00  0.53803377051E+02  0.53803377051E+02  0.00000000000E+00 0. -1.
         -1   -1    0    0    0  501 -0.00000000000E+00 -0.00000000000E+00 -0.77978798739E+03  0.77978798739E+03  0.00000000000E+00 0.  1.
         25    2    1    2    0    0 -0.49188791777E+02  0.16545455601E+03 -0.38918652022E+03  0.44374236386E+03  0.12508553322E+03 0.  0.
          5    1    3    3  502    0 -0.70786477042E+02  0.55783870582E+02 -0.10560060097E+03  0.13889393390E+03  0.41800000000E+01 0. -1.
         -5    1    3    3    0  502  0.21597685266E+02  0.10967068543E+03 -0.28358591926E+03  0.30484842996E+03  0.41800000000E+01 0. -1.
        -11    1    1    2    0    0  0.44386516872E+02 -0.78972818005E+02 -0.87563829146E+02  0.12599322616E+03  0.00000000000E+00 0. -1.
         11    1    1    2    0    0  0.48022749048E+01 -0.86481738005E+02 -0.24923426097E+03  0.26385577442E+03  0.00000000000E+00 0.  1.
</event>
<event>
 7    1  0.2666594E-009  0.8989007E+02  0.7561462E-02  0.1303118E+00
          1   -1    0    0  501    0  0.00000000000E+00  0.00000000000E+00  0.34189392199E+03  0.34189392199E+03  0.00000000000E+00 0. -1.
         -1   -1    0    0    0  501 -0.00000000000E+00 -0.00000000000E+00 -0.58909878042E+02  0.58909878042E+02  0.00000000000E+00 0.  1.
         25    2    1    2    0    0 -0.19246519894E+02  0.19765592177E+01  0.27983501957E+03  0.30713082937E+03  0.12508945941E+03 0.  0.
          5    1    3    3  502    0 -0.28848033610E+02 -0.52624502582E+02  0.20661948716E+03  0.21519905248E+03  0.41800000000E+01 0.  1.
         -5    1    3    3    0  502  0.96015137161E+01  0.54601061800E+02  0.73215532414E+02  0.91931776889E+02  0.41800000000E+01 0.  1.
        -11    1    1    2    0    0  0.41365234864E+02 -0.51343851255E+01 -0.31637260333E+02  0.52329349388E+02  0.00000000000E+00 0.  1.
         11    1    1    2    0    0 -0.22118714970E+02  0.31578259078E+01  0.34786284712E+02  0.41343621279E+02  0.00000000000E+00 0. -1.
</event>
<event>
 7    1  0.2666594E-009  0.1135123E+03  0.7561462E-02  0.1254201E+00
          2   -1    0    0  501    0  0.00000000000E+00  0.00000000000E+00  0.49460260103E+03  0.49460260103E+03  0.00000000000E+00 0. -1.
         -2   -1    0    0    0  501 -0.00000000000E+00 -0.00000000000E+00 -0.29866638402E+02  0.29866638402E+02  0.00000000000E+00 0.  1.
         25    2    1    2    0    0 -0.17353676497E+02 -0.53036010037E+02  0.25166690670E+03  0.28652741161E+03  0.12509099580E+03 0.  0.
          5    1    3    3  502    0 -0.66442862476E+01 -0.86487474506E+02  0.10807550339E+03  0.13864348747E+03  0.41800000000E+01 0. -1.
         -5    1    3    3    0  502 -0.10709390250E+02  0.33451464469E+02  0.14359140331E+03  0.14788392414E+03  0.41800000000E+01 0. -1.
        -11    1    1    2    0    0  0.41802427773E+02  0.65240593445E+02  0.14136498360E+03  0.16120743342E+03  0.00000000000E+00 0. -1.
         11    1    1    2    0    0 -0.24448751276E+02 -0.12204583408E+02  0.71704072326E+02  0.76734394396E+02  0.00000000000E+00 0.  1.
</event>
<event>
 7    1  0.2666594E-009  0.1289370E+03  0.7561462E-02  0.1229042E+00
         -2   -1    0    0    0  501 -0.00000000000E+00  0.00000000000E+00  0.41467546193E+02  0.41467546193E+02  0.00000000000E+00 0.  1.
          2   -1    0    0  501    0  0.00000000000E+00 -0.00000000000E+00 -0.61330321351E+03  0.61330321351E+03  0.00000000000E+00 0. -1.
         25    2    1    2    0    0  0.82167436886E+01 -0.11320978294E+03 -0.36055408758E+03  0.39815759024E+03  0.12508495818E+03 0.  0.
          5    1    3    3  502    0 -0.37882582919E+01  0.22632579720E+01 -0.19942023861E+03  0.19951284972E+03  0.41800000000E+01 0.  1.
         -5    1    3    3    0  502  0.12005001981E+02 -0.11547304091E+03 -0.16113384898E+03  0.19864474052E+03  0.41800000000E+01 0.  1.
        -11    1    1    2    0    0  0.32062454687E+02  0.67320809301E+02 -0.68213186510E+02  0.10106003750E+03  0.00000000000E+00 0.  1.
         11    1    1    2    0    0 -0.40279198375E+02  0.45888973641E+02 -0.14306839322E+03  0.15555313196E+03  0.00000000000E+00 0. -1.
</event>
<event>
 7    1  0.2666594E-009  0.7403132E+02  0.7561462E-02  0.1346897E+00
         -1   -1    0    0    0  501 -0.00000000000E+00  0.00000000000E+00  0.79084305616E+02  0.79084305616E+02  0.00000000000E+00 0.  1.
          1   -1    0    0  501    0  0.00000000000E+00 -0.00000000000E+00 -0.16351090179E+03  0.16351090179E+03  0.00000000000E+00 0. -1.
         25    2    1    2    0    0 -0.22803638242E+02 -0.26155445136E+02 -0.45221050854E+02  0.13746694874E+03  0.12509238717E+03 0.  0.
          5    1    3    3  502    0  0.30593791852E+02  0.17749703778E+02  0.21249502960E+02  0.41473435596E+02  0.41800000000E+01 0.  1.
         -5    1    3    3    0  502 -0.53397430094E+02 -0.43905148914E+02 -0.66470553814E+02  0.95993513146E+02  0.41800000000E+01 0.  1.
        -11    1    1    2    0    0  0.29644556727E+01  0.22893732785E+02 -0.66976547072E+02  0.70843269659E+02  0.00000000000E+00 0. -1.
         11    1    1    2    0    0  0.19839182569E+02  0.32617123515E+01  0.27771001755E+02  0.34284989003E+02  0.00000000000E+00 0.  1.
</event>
<event>
 7    1  0.2666594E-009  0.1181907E+03  0.7561462E-02  0.1246112E+00
          1   -1    0    0  501    0  0.00000000000E+00  0.00000000000E+00  0.55843055803E+02  0.55843055803E+02  0.00000000000E+00 0. -1.
         -1   -1    0    0    0  501 -0.00000000000E+00 -0.00000000000E+00 -0.38800748766E+03  0.38800748766E+03  0.00000000000E+00 0.  1.
         25    2    1    2    0    0  0.89781919499E+02 -0.23306168678E+02 -0.23532425007E+03  0.28218590294E+03  0.12508961021E+03 0.  0.
          5    1    3    3  502    0  0.10267793522E+03 -0.49446142408E+02 -0.22259253468E+03  0.25010515444E+03  0.41800000000E+01 0.  1.
         -5    1    3    3    0  502 -0.12896015721E+02  0.26139973730E+02 -0.12731715385E+02  0.32080748506E+02  0.41800000000E+01 0.  1.
        -11    1    1    2    0    0 -0.47668998481E+02  0.97670133376E+01 -0.10586975247E+03  0.11651666170E+03  0.00000000000E+00 0.  1.
         11    1    1    2    0    0 -0.42112921018E+02  0.13539155340E+02  0.90295706874E+01  0.45147978811E+02  0.00000000000E+00 0. -1.
</event>
<event>
 7    1  0.2666594E-009  0.1394621E+03  0.7561462E-02  0.1214055E+00
          2   -1    0    0  501    0  0.00000000000E+00  0.00000000000E+00  0.64153542055E+02  0.64153542055E+02  0.00000000000E+00 0.  1.
         -2   -1    0    0    0  501 -0.00000000000E+00 -0.00000000000E+00 -0.40320016961E+03  0.40320016961E+03  0.00000000000E+00 0. -1.
         25    2    1    2    0    0  0.45951229359E+02 -0.10869211188E+03 -0.14113877642E+03  0.22246782695E+03  0.12508512763E+03 0.  0.
          5    1    3    3  502    0  0.41618774774E+02 -0.65133968034E+01 -0.10617848331E+03  0.11430612175E+03  0.41800000000E+01 0.  1.
         -5    1    3    3    0  502  0.43324545850E+01 -0.10217871507E+03 -0.34960293105E+02  0.10816170520E+03  0.41800000000E+01 0.  1.
        -11    1    1    2    0    0 -0.62237851782E+02  0.81612092730E+02 -0.10534257755E+03  0.14707529541E+03  0.00000000000E+00 0.  1.
         11    1    1    2    0    0  0.16286622424E+02  0.27080019147E+02 -0.92565273582E+02  0.97810589305E+02  0.00000000000E+00 0. -1.
</event>
<event>
 7    1  0.2666594E-009  0.1170497E+03  0.7561462E-02  0.1248045E+00
          2   -1    0    0  501    0  0.00000000000E+00  0.00000000000E+00  0.13665470163E+04  0.13665470163E+04  0.00000000000E+00 0. -1.
         -2   -1    0    0    0  501 -0.00000000000E+00 -0.00000000000E+00 -0.15086332748E+02  0.15086332748E+02  0.00000000000E+00 0.  1.
         25    2    1    2    0    0 -0.59529568062E+02  0.20969664667E+02  0.10663806587E+04  0.10755455412E+04  0.12508799137E+03 0.  0.
          5    1    3    3  502    0 -0.39054366799E+02 -0.49299381433E+02  0.37162628627E+03  0.37693400168E+03  0.41800000000E+01 0.  1.
         -5    1    3    3    0  502 -0.20475201262E+02  0.70269046100E+02  0.69475437245E+03  0.69861153952E+03  0.41800000000E+01 0.  1.
        -11    1    1    2    0    0  0.62661569570E+02  0.12704383535E+02  0.10558434147E+03  0.12343389658E+03  0.00000000000E+00 0.  1.
         11    1    1    2    0    0 -0.31320015086E+01 -0.33674048202E+02  0.17949568334E+03  0.18265391124E+03  0.00000000000E+00 0. -1.
</event>
<event>
 7    1  0.2666594E-009  0.1197323E+03  0.7561462E-02  0.1243539E+00
         -2   -1    0    0    0  501 -0.00000000000E+00  0.00000000000E+00  0.12468614853E+03  0.12468614853E+03  0.00000000000E+00 0.  1.
          2   -1    0    0  501    0  0.00000000000E+00 -0.00000000000E+00 -0.19694460081E+03  0.19694460081E+03  0.00000000000E+00 0. -1.
         25    2    1    2    0    0  0.84163766460E+02  0.75272989905E+02 -0.40069298917E+02  0.17320954905E+03  0.12508571690E+03 0.  0.
          5    1    3    3  502    0  0.16908705219E+02  0.27354730309E+02  0.44416172886E+02  0.54995039742E+02  0.41800000000E+01 0. -1.
         -5    1    3    3    0  502  0.67255061242E+02  0.47918259596E+02 -0.84485471803E+02  0.11821450931E+03  0.41800000000E+01 0. -1.
        -11    1    1    2    0    0 -0.18798694556E+02 -0.51453517681E+02  0.23204370935E+02  0.59492001389E+02  0.00000000000E+00 0.  1.
         11    1    1    2    0    0 -0.65365071904E+02 -0.23819472224E+02 -0.55393524300E+02  0.88929198897E+02  0.00000000000E+00 0. -1.
</event>
<event>
 7    1  0.2666594E-009  0.8547943E+02  0.7561462E-02  0.1314184E+00
          1   -1    0    0  501    0  0.00000000000E+00  0.00000000000E+00  0.28500888892E+03  0.28500888892E+03  0.00000000000E+00 0. -1.
         -1   -1    0    0    0  501 -0.00000000000E+00 -0.00000000000E+00 -0.54669978741E+02  0.54669978741E+02  0.00000000000E+00 0.  1.
         25    2    1    2    0    0 -0.13445430277E+02  0.44064019928E+01  0.46796278111E+02  0.13430641421E+03  0.12509246692E+03 0.  0.
          5    1    3    3  502    0  0.11366641320E+02 -0.41872761104E+02 -0.21054551175E+02  0.48407594265E+02  0.41800000000E+01 0. -1.
         -5    1    3    3    0  502 -0.24812071597E+02  0.46279163097E+02  0.67850829287E+02  0.85898819950E+02  0.41800000000E+01 0. -1.
        -11    1    1    2    0    0  0.42664806961E+02  0.71712447826E+01  0.41695828889E+02  0.60085394660E+02  0.00000000000E+00 0.  1.
         11    1    1    2    0    0 -0.29219376684E+02 -0.11577646775E+02  0.14184680318E+03  0.14528705879E+03  0.00000000000E+00 0. -1.
</event>
<event>
 7    1  0.2666594E-009  0.1164970E+03  0.7561462E-02  0.1248990E+00
          3   -1    0    0  501    0  0.00000000000E+00  0.00000000000E+00  0.83805503387E+02  0.83805503387E+02  0.00000000000E+00 0. -1.
         -3   -1    0    0    0  501 -0.00000000000E+00 -0.00000000000E+00 -0.17529392644E+03  0.17529392644E+03  0.00000000000E+00 0.  1.
         25    2    1    2    0    0 -0.53905674957E+02  0.25237726009E+01 -0.75226010478E+02  0.15562329237E+03  0.12508982875E+03 0.  0.
          5    1    3    3  502    0  0.23226100759E+02 -0.37426390001E+02 -0.63731456082E+01  0.44702078362E+02  0.41800000000E+01 0. -1.
         -5    1    3    3    0  502 -0.77131775715E+02  0.39950162602E+02 -0.68852864870E+02  0.11092121401E+03  0.41800000000E+01 0. -1.
        -11    1    1    2    0    0  0.44994895956E+02  0.38859494010E+02 -0.14030219401E+02  0.61085579257E+02  0.00000000000E+00 0.  1.
         11    1    1    2    0    0  0.89107790011E+01 -0.41383266611E+02 -0.22321931751E+01  0.42390558196E+02  0.00000000000E+00 0. -1.
</event>
<event>
 7    1  0.2666594E-009  0.1614079E+03  0.7561462E-02  0.1187116E+00
         -2   -1    0    0    0  501 -0.00000000000E+00  0.00000000000E+00  0.20469997729E+03  0.20469997729E+03  0.00000000000E+00 0. -1.
          2   -1    0    0  501    0  0.00000000000E+00 -0.00000000000E+00 -0.26744937926E+03  0.26744937926E+03  0.00000000000E+00 0.  1.
         25    2    1    2    0    0  0.99622705059E+02 -0.11209529711E+03  0.11182265756E+03  0.22503759706E+03  0.12509026481E+03 0.  0.
          5    1    3    3  502    0 -0.68472890239E+01 -0.46616684123E+02 -0.12258587835E+02  0.48864567749E+02  0.41800000000E+01 0. -1.
         -5    1    3    3    0  502  0.10646999408E+03 -0.65478612987E+02  0.12408124539E+03  0.17617302931E+03  0.41800000000E+01 0. -1.
        -11    1    1    2    0    0 -0.27329381235E+02  0.39197885246E+02 -0.39042536393E+01  0.47943847185E+02  0.00000000000E+00 0. -1.
         11    1    1    2    0    0 -0.72293323824E+02  0.72897411864E+02 -0.17066780588E+03  0.19916791230E+03  0.00000000000E+00 0.  1.
</event>
<event>
 7    1  0.2666594E-009  0.1094853E+03  0.7561462E-02  0.1261526E+00
          1   -1    0    0  501    0  0.00000000000E+00  0.00000000000E+00  0.13986626072E+03  0.13986626072E+03  0.00000000000E+00 0. -1.
         -1   -1    0    0    0  501 -0.00000000000E+00 -0.00000000000E+00 -0.95350005080E+02  0.95350005080E+02  0.00000000000E+00 0.  1.
         25    2    1    2    0    0 -0.44396402097E+02  0.25719704264E+02  0.16322367068E+02  0.13618696810E+03  0.12509167401E+03 0.  0.
          5    1    3    3  502    0  0.59051150632E+01  0.64693731233E+02  0.28839890434E+02  0.71199444696E+02  0.41800000000E+01 0. -1.
         -5    1    3    3    0  502 -0.50301517160E+02 -0.38974026968E+02 -0.12517523366E+02  0.64987523402E+02  0.41800000000E+01 0. -1.
        -11    1    1    2    0    0  0.32648331984E+02 -0.51952675963E+02  0.33334665972E+02  0.69829750655E+02  0.00000000000E+00 0. -1.
         11    1    1    2    0    0  0.11748070113E+02  0.26232971698E+02 -0.51407774005E+01  0.29199547048E+02  0.00000000000E+00 0.  1.
</event>
<event>
 7    1  0.2666594E-009  0.2280959E+03  0.7561462E-02  0.1127987E+00
         -4   -1    0    0    0  501 -0.00000000000E+00  0.00000000000E+00  0.29584264527E+03  0.29584264527E+03  0.00000000000E+00 0.  1.
          4   -1    0    0  501    0  0.00000000000E+00 -0.00000000000E+00 -0.25761310685E+03  0.25761310685E+03  0.00000000000E+00 0. -1.
         25    2    1    2    0    0 -0.11031374254E+03  0.19229214285E+03 -0.10378431461E+03  0.27488827164E+03  0.12508792080E+03 0.  0.
          5    1    3    3  502    0 -0.10577004983E+03  0.18401399806E+03 -0.12846694112E+03  0.24813238862E+03  0.41800000000E+01 0. -1.
         -5    1    3    3    0  502 -0.45436927082E+01  0.82781447877E+01  0.24682626509E+02  0.26755883015E+02  0.41800000000E+01 0. -1.
        -11    1    1    2    0    0  0.22332099778E+02 -0.11284593341E+03  0.38842308002E+02  0.12141520604E+03  0.00000000000E+00 0.  1.
         11    1    1    2    0    0  0.87981642763E+02 -0.79446209440E+02  0.10317154503E+03  0.15715227444E+03  0.00000000000E+00 0. -1.
</event>
<event>
 7    1  0.2666594E-009  0.1198345E+03  0.7561462E-02  0.1243370E+00
         -1   -1    0    0    0  501 -0.00000000000E+00  0.00000000000E+00  0.24585769654E+02  0.24585769654E+02  0.00000000000E+00 0.  1.
          1   -1    0    0  501    0  0.00000000000E+00 -0.00000000000E+00 -0.71750643660E+03  0.71750643660E+03  0.00000000000E+00 0. -1.
         25    2    1    2    0    0 -0.48366375847E+02 -0.53644920786E+02 -0.39690827334E+03  0.42237386116E+03  0.12508563989E+03 0.  0.
          5    1    3    3  502    0 -0.57530960279E+02  0.11115310389E+02 -0.29791505079E+03  0.30365146369E+03  0.41800000000E+01 0.  1.
         -5    1    3    3    0  502  0.91645844320E+01 -0.64760231175E+02 -0.98993222549E+02  0.11872239747E+03  0.41800000000E+01 0.  1.
        -11    1    1    2    0    0 -0.11638900924E+02  0.54141993997E+02 -0.18994136017E+03  0.19784979109E+03  0.00000000000E+00 0. -1.
         11    1    1    2    0    0  0.60005276771E+02 -0.49707321086E+00 -0.10607103343E+03  0.12186855401E+03  0.00000000000E+00 0.  1.
</event>
<event>
 7    1  0.2666594E-009  0.1042760E+03  0.7561462E-02  0.1271553E+00
          2   -1    0    0  501    0  0.00000000000E+00  0.00000000000E+00  0.83064277828E+02  0.83064277828E+02  0.00000000000E+00 0. -1.
         -2   -1    0    0    0  501 -0.00000000000E+00 -0.00000000000E+00 -0.20601036182E+03  0.20601036182E+03  0.00000000000E+00 0.  1.
         25    2    1    2    0    0 -0.49779987060E+02  0.96115805036E+01 -0.10066249831E+02  0.13534941775E+03  0.12509079066E+03 0.  0.
          5    1    3    3  502    0  0.27470261611E+02  0.76476211272E+01 -0.42573644331E+02  0.51410981060E+02  0.41800000000E+01 0. -1.
         -5    1    3    3    0  502 -0.77250248671E+02  0.19639593764E+01  0.32507394500E+02  0.83938436686E+02  0.41800000000E+01 0. -1.
        -11    1    1    2    0    0  0.11732133614E+02  0.38935001667E+02 -0.59994610141E+02  0.72477103694E+02  0.00000000000E+00 0.  1.
         11    1    1    2    0    0  0.38047853445E+02 -0.48546582171E+02 -0.52885224015E+02  0.81248118202E+02  0.00000000000E+00 0. -1.
</event>
<event>
 7    1  0.2666594E-009  0.8378227E+02  0.7561462E-02  0.1318648E+00
          3   -1    0    0  501    0  0.00000000000E+00  0.00000000000E+00  0.63003132447E+02  0.63003132447E+02  0.00000000000E+00 0. -1.
         -3   -1    0    0    0  501 -0.00000000000E+00 -0.00000000000E+00 -0.21424142196E+03  0.21424142196E+03  0.00000000000E+00 0.  1.
         25    2    1    2    0    0 -0.35492420551E+02  0.39166087495E+01 -0.71548531427E+02  0.14846884746E+03  0.12509498221E+03 0.  0.
          5    1    3    3  502    0 -0.59401637700E+02 -0.44609898873E+02 -0.52092582979E+02  0.90827899019E+02  0.41800000000E+01 0.  1.
         -5    1    3    3    0  502  0.23909217148E+02  0.48526507622E+02 -0.19455948448E+02  0.57640948436E+02  0.41800000000E+01 0.  1.
        -11    1    1    2    0    0  0.17228143297E+02 -0.96651254933E+01 -0.99371916927E+02  0.10131634343E+03  0.00000000000E+00 0.  1.
         11    1    1    2    0    0  0.18264277254E+02  0.57485167438E+01  0.19682158841E+02  0.27459363521E+02  0.00000000000E+00 0. -1.
</event>
<event>
 7    1  0.2666594E-009  0.2672940E+03  0.7561462E-02  0.1102838E+00
         -2   -1    0    0    0  501 -0.00000000000E+00  0.00000000000E+00  0.45514835542E+03  0.45514835542E+03  0.00000000000E+00 0.  1.
          2   -1    0    0  501    0  0.00000000000E+00 -0.00000000000E+00 -0.19438484588E+03  0.19438484588E+03  0.00000000000E+00 0. -1.
         25    2    1    2    0    0 -0.88749106635E+02  0.23935721509E+03  0.24926854318E+03  0.37808596767E+03  0.12508362000E+03 0.  0.
          5    1    3    3  502    0 -0.30351454649E+02  0.20520343931E+02 -0.53724715379E+01  0.37264341733E+02  0.41800000000E+01 0.  1.
         -5    1    3    3    0  502 -0.58397651986E+02  0.21883687116E+03  0.25464101471E+03  0.34082162594E+03  0.41800000000E+01 0.  1.
        -11    1    1    2    0    0  0.65546009667E+02 -0.55565143910E+02  0.19638366755E+01  0.85951272565E+02  0.00000000000E+00 0.  1.
         11    1    1    2    0    0  0.23203096968E+02 -0.18379207118E+03  0.95311296821E+01  0.18549596106E+03  0.00000000000E+00 0. -1.
</event>
<event>
 7    1  0.2666594E-009  0.1675321E+03  0.7561462E-02  0.1180446E+00
         -1   -1    0    0    0  501 -0.00000000000E+00  0.00000000000E+00  0.14710371601E+04  0.14710371601E+04  0.00000000000E+00 0.  1.
          1   -1    0    0  501    0  0.00000000000E+00 -0.00000000000E+00 -0.30795398690E+02  0.30795398690E+02  0.00000000000E+00 0. -1.
         25    2    1    2    0    0  0.17486891246E+02  0.15313687378E+03  0.10946312646E+04  0.11124844440E+04  0.12508932518E+03 0.  0.
          5    1    3    3  502    0 -0.47799911929E+01  0.45295402777E+02  0.73326226005E+03  0.73468737314E+03  0.41800000000E+01 0.  1.
         -5    1    3    3    0  502  0.22266882439E+02  0.10784147101E+03  0.36136900455E+03  0.37779707088E+03  0.41800000000E+01 0.  1.
        -11    1    1    2    0    0  0.37637656946E+02 -0.56837054067E+02  0.12359207722E+03  0.14114547633E+03  0.00000000000E+00 0.  1.
         11    1    1    2    0    0 -0.55124548192E+02 -0.96299819715E+02  0.22201841954E+03  0.24820263839E+03  0.00000000000E+00 0. -1.
</event>
<event>
 7    1  0.2666594E-009  0.9501025E+02  0.7561462E-02  0.1291153E+00
          2   -1    0    0  501    0  0.00000000000E+00  0.00000000000E+00  0.11913417092E+03  0.11913417092E+03  0.00000000000E+00 0. -1.
         -2   -1    0    0    0  501 -0.00000000000E+00 -0.00000000000E+00 -0.11368811971E+03  0.11368811971E+03  0.00000000000E+00 0.  1.
         25    2    1    2    0    0 -0.12615772290E+02  0.30770682992E+02  0.29116048481E+02  0.13266870260E+03  0.12508895926E+03 0.  0.
          5    1    3    3  502    0  0.40899319160E+02 -0.39291048708E+01  0.50529203470E+02  0.65259979897E+02  0.41800000000E+01 0.  1.
         -5    1    3    3    0  502 -0.53515091450E+02  0.34699787863E+02 -0.21413154988E+02  0.67408722708E+02  0.41800000000E+01 0.  1.
        -11    1    1    2    0    0 -0.32374533772E+02 -0.44481428302E+01  0.14294835512E+02  0.35668455726E+02  0.00000000000E+00 0. -1.
         11    1    1    2    0    0  0.44990306061E+02 -0.26322540162E+02 -0.37964832775E+02  0.64485132299E+02  0.00000000000E+00 0.  1.
</event>
<event>
 7    1  0.2666594E-009  0.9455808E+02  0.7561462E-02  0.1292175E+00
          1   -1    0    0  501    0  0.00000000000E+00  0.00000000000E+00  0.71943708625E+03  0.71943708625E+03  0.00000000000E+00 0. -1.
         -1   -1    0    0    0  501 -0.00000000000E+00 -0.00000000000E+00 -0.21728220581E+02  0.21728220581E+02  0.00000000000E+00 0.  1.
         25    2    1    2    0    0  0.46325638246E+02 -0.44506036193E+02  0.43099135084E+03  0.45335220220E+03  0.12509125758E+03 0.  0.
          5    1    3    3  502    0 -0.24467522319E+02 -0.27055002700E+02  0.30897756762E+03  0.31115147840E+03  0.41800000000E+01 0. -1.
         -5    1    3    3    0  502  0.70793160565E+02 -0.17451033494E+02  0.12201378322E+03  0.14220072380E+03  0.41800000000E+01 0. -1.
        -11    1    1    2    0    0 -0.41723477275E+01 -0.97825067236E+01 -0.16690386332E+01  0.10765296713E+02  0.00000000000E+00 0.  1.
         11    1    1    2    0    0 -0.42153290518E+02  0.54288542917E+02  0.26838655347E+03  0.27704780792E+03  0.00000000000E+00 0. -1.
</event>
<event>
 7    1  0.2666594E-009  0.9577979E+02  0.7561462E-02  0.1289429E+00
          2   -1    0    0  501    0  0.00000000000E+00  0.00000000000E+00  0.99260964662E+02  0.99260964662E+02  0.00000000000E+00 0. -1.
         -2   -1    0    0    0  501 -0.00000000000E+00 -0.00000000000E+00 -0.13691783547E+03  0.13691783547E+03  0.00000000000E+00 0.  1.
         25    2    1    2    0    0  0.15749021821E+02 -0.16789512327E+02 -0.58452139010E+02  0.13998353500E+03  0.12509523613E+03 0.  0.
          5    1    3    3  502    0  0.21793447641E+02 -0.55104308488E+02  0.10914131331E+02  0.60398922480E+02  0.41800000000E+01 0.  1.
         -5    1    3    3    0  502 -0.60444258206E+01  0.38314796161E+02 -0.69366270341E+02  0.79584612516E+02  0.41800000000E+01 0.  1.
        -11    1    1    2    0    0  0.13499550863E+02 -0.32855852268E+02  0.19632931162E+01  0.35575264182E+02  0.00000000000E+00 0. -1.
         11    1    1    2    0    0 -0.29248572684E+02  0.49645364595E+02  0.18831975086E+02  0.60620000952E+02  0.00000000000E+00 0.  1.
</event>
<event>
 7    1  0.2666594E-009  0.1471594E+03  0.7561462E-02  0.1204008E+00
          2   -1    0    0  501    0  0.00000000000E+00  0.00000000000E+00  0.74507357394E+03  0.74507357394E+03  0.00000000000E+00 0. -1.
         -2   -1    0    0    0  501 -0.00000000000E+00 -0.00000000000E+00 -0.33138580827E+02  0.33138580827E+02  0.00000000000E+00 0.  1.
         25    2    1    2    0    0 -0.60245903126E+02 -0.92500288558E+02  0.33238564817E+03  0.37190726601E+03  0.12509565612E+03 0.  0.
          5    1    3    3  502    0  0.20773473228E+02 -0.57894670637E+02  0.61730529667E+02  0.87243686139E+02  0.41800000000E+01 0.  1.
         -5    1    3    3    0  502 -0.81019376355E+02 -0.34605617921E+02  0.27065511850E+03  0.28466357987E+03  0.41800000000E+01 0.  1.
        -11    1    1    2    0    0  0.12364838004E+02  0.95686087707E+02  0.23658250296E+03  0.25549950549E+03  0.00000000000E+00 0.  1.
         11    1    1    2    0    0  0.47881065123E+02 -0.31857991491E+01  0.14296684199E+03  0.15080538327E+03  0.00000000000E+00 0. -1.
</event>
<event>
 7    1  0.2666594E-009  0.8113666E+02  0.7561462E-02  0.1325856E+00
          1   -1    0    0  501    0  0.00000000000E+00  0.00000000000E+00  0.90856617495E+03  0.90856617495E+03  0.00000000000E+00 0. -1.
         -1   -1    0    0    0  501 -0.00000000000E+00 -0.00000000000E+00 -0.36092567057E+02  0.36092567057E+02  0.00000000000E+00 0.  1.
         25    2    1    2    0    0 -0.29800345252E+02 -0.49656147280E+02  0.80440131001E+03  0.81612688143E+03  0.12509126867E+03 0.  0.
          5    1    3    3  502    0 -0.54355600235E+02 -0.52667755742E+02  0.25194373370E+03  0.26309986911E+03  0.41800000000E+01 0. -1.
         -5    1    3    3    0  502  0.24555254983E+02  0.30116084622E+01  0.55245757631E+03  0.55302701232E+03  0.41800000000E+01 0. -1.
        -11    1    1    2    0    0  0.17614123900E+00  0.18093599167E+02 -0.22067256890E+02  0.28537224519E+02  0.00000000000E+00 0.  1.
         11    1    1    2    0    0  0.29624204013E+02  0.31562548113E+02  0.90139554771E+02  0.99994636062E+02  0.00000000000E+00 0. -1.
</event>
<event>
 7    1  0.2666594E-009  0.1620643E+03  0.7561462E-02  0.1186386E+00
         -2   -1    0    0    0  501 -0.00000000000E+00  0.00000000000E+00  0.29124922640E+03  0.29124922640E+03  0.00000000000E+00 0.  1.
          2   -1    0    0  501    0  0.00000000000E+00 -0.00000000000E+00 -0.11708779411E+03  0.11708779411E+03  0.00000000000E+00 0. -1.
         25    2    1    2    0    0  0.11911797784E+03  0.60694844246E+02  0.25130710612E+02  0.18480347354E+03  0.12509122453E+03 0.  0.
          5    1    3    3  502    0  0.63280642988E+02 -0.31275231988E+02 -0.10283090163E+02  0.71454840677E+02  0.41800000000E+01 0. -1.
         -5    1    3    3    0  502  0.55837334848E+02  0.91970076235E+02  0.35413800775E+02  0.11334863286E+03  0.41800000000E+01 0. -1.
        -11    1    1    2    0    0  0.37251299891E+01 -0.13733243990E+02  0.67088223474E+02  0.68580670110E+02  0.00000000000E+00 0.  1.
         11    1    1    2    0    0 -0.12284310782E+03 -0.46961600257E+02  0.81942498199E+02  0.15495287687E+03  0.00000000000E+00 0. -1.
</event>
<event>
 7    1  0.2666594E-009  0.1036376E+03  0.7561462E-02  0.1272827E+00
         -2   -1    0    0    0  501 -0.00000000000E+00  0.00000000000E+00  0.23094897777E+02  0.23094897777E+02  0.00000000000E+00 0.  1.
          2   -1    0    0  501    0  0.00000000000E+00 -0.00000000000E+00 -0.53123485964E+03  0.53123485964E+03  0.00000000000E+00 0. -1.
         25    2    1    2    0    0  0.13267567233E+00 -0.97311612556E+01 -0.24086820801E+03  0.27158628518E+03  0.12508758359E+03 0.  0.
          5    1    3    3  502    0 -0.31248582968E+01 -0.66608157472E+02 -0.15069973016E+03  0.16484626915E+03  0.41800000000E+01 0.  1.
         -5    1    3    3    0  502  0.32575339691E+01  0.56876996216E+02 -0.90168477849E+02  0.10674001604E+03  0.41800000000E+01 0.  1.
        -11    1    1    2    0    0  0.23656370217E+02 -0.29283035468E+02 -0.18347973381E+03  0.18730171579E+03  0.00000000000E+00 0. -1.
         11    1    1    2    0    0 -0.23789045889E+02  0.39014196723E+02 -0.83792020047E+02  0.95441756447E+02  0.00000000000E+00 0.  1.
</event>
<event>
 7    1  0.2666594E-009  0.1362055E+03  0.7561462E-02  0.1218528E+00
          2   -1    0    0  501    0  0.00000000000E+00  0.00000000000E+00  0.22984349774E+02  0.22984349774E+02  0.00000000000E+00 0. -1.
         -2   -1    0    0    0  501 -0.00000000000E+00 -0.00000000000E+00 -0.87834494642E+03  0.87834494642E+03  0.00000000000E+00 0.  1.
         25    2    1    2    0    0 -0.87882033591E+02 -0.34420420893E+01 -0.55386679967E+03  0.57458782860E+03  0.12509053329E+03 0.  0.
          5    1    3    3  502    0  0.16406103701E+02  0.34482350478E+02 -0.20176973694E+03  0.20539399182E+03  0.41800000000E+01 0. -1.
         -5    1    3    3    0  502 -0.10428813729E+03 -0.37924392568E+02 -0.35209706274E+03  0.36919383678E+03  0.41800000000E+01 0. -1.
        -11    1    1    2    0    0  0.88925286043E+02 -0.26654105364E+02 -0.19332672103E+03  0.21446064649E+03  0.00000000000E+00 0. -1.
         11    1    1    2    0    0 -0.10432524528E+01  0.30096147453E+02 -0.10816707595E+03  0.11228082110E+03  0.00000000000E+00 0.  1.
</event>
<event>
 7    1  0.2666594E-009  0.3084438E+03  0.7561462E-02  0.1081094E+00
          2   -1    0    0  501    0  0.00000000000E+00  0.00000000000E+00  0.11240120684E+04  0.11240120684E+04  0.00000000000E+00 0. -1.
         -2   -1    0    0    0  501 -0.00000000000E+00 -0.00000000000E+00 -0.14581817412E+03  0.14581817412E+03  0.00000000000E+00 0.  1.
         25    2    1    2    0    0  0.25226837935E+03 -0.16615772391E+03  0.88117850247E+03  0.93987784211E+03  0.12508829054E+03 0.  0.
          5    1    3    3  502    0  0.20324650906E+03 -0.92523492446E+02  0.48554599766E+03  0.53445498252E+03  0.41800000000E+01 0. -1.
         -5    1    3    3    0  502  0.49021870294E+02 -0.73634231463E+02  0.39563250481E+03  0.40542285959E+03  0.41800000000E+01 0. -1.
        -11    1    1    2    0    0 -0.13022637223E+03  0.60687061203E+02  0.87823417195E+02  0.16838877643E+03  0.00000000000E+00 0. -1.
         11    1    1    2    0    0 -0.12204200713E+03  0.10547066271E+03  0.91919746111E+01  0.16156362398E+03  0.00000000000E+00 0.  1.
</event>
<event>
 7    1  0.2666594E-009  0.9321771E+02  0.7561462E-02  0.1295241E+00
          2   -1    0    0  501    0  0.00000000000E+00  0.00000000000E+00  0.72967178740E+02  0.72967178740E+02  0.00000000000E+00 0. -1.
         -2   -1    0    0    0  501 -0.00000000000E+00 -0.00000000000E+00 -0.16453050683E+03  0.16453050683E+03  0.00000000000E+00 0.  1.
         25    2    1    2    0    0  0.74207966859E+01  0.44569031652E+01 -0.28434697334E+02  0.12857203179E+03  0.12508918074E+03 0.  0.
          5    1    3    3  502    0  0.10330235203E+02 -0.59777520487E+02 -0.10717479380E+02  0.61744655470E+02  0.41800000000E+01 0.  1.
         -5    1    3    3    0  502 -0.29094385166E+01  0.64234423652E+02 -0.17717217954E+02  0.66827376324E+02  0.41800000000E+01 0.  1.
        -11    1    1    2    0    0 -0.28540154073E+01  0.28136187923E+02 -0.69829545462E+02  0.75338940092E+02  0.00000000000E+00 0.  1.
         11    1    1    2    0    0 -0.45667812787E+01 -0.32593091088E+02  0.67009147079E+01  0.33586713681E+02  0.00000000000E+00 0. -1.
</event>
<event>
 7    1  0.2666594E-009  0.1744004E+03  0.7561462E-02  0.1173335E+00
          1   -1    0    0  501    0  0.00000000000E+00  0.00000000000E+00  0.95501073367E+03  0.95501073367E+03  0.00000000000E+00 0. -1.
         -1   -1    0    0    0  501 -0.00000000000E+00 -0.00000000000E+00 -0.39321317998E+02  0.39321317998E+02  0.00000000000E+00 0.  1.
         25    2    1    2    0    0 -0.19123451708E+01  0.15898266148E+03  0.51233492509E+03  0.55082959263E+03  0.12508805276E+03 0.  0.
          5    1    3    3  502    0  0.15597228107E+02 -0.78503120060E+01  0.86521649801E+01  0.19930712030E+02  0.41800000000E+01 0.  1.
         -5    1    3    3    0  502 -0.17509573277E+02  0.16683297348E+03  0.50368276011E+03  0.53089888060E+03  0.41800000000E+01 0.  1.
        -11    1    1    2    0    0  0.16882401517E+02 -0.12175357876E+03  0.37428781696E+03  0.39395471739E+03  0.00000000000E+00 0. -1.
         11    1    1    2    0    0 -0.14970056346E+02 -0.37229082716E+02  0.29066673615E+02  0.49547741643E+02  0.00000000000E+00 0.  1.
</event>
<event>
 7    1  0.2666594E-009  0.7689520E+02  0.7561462E-02  0.1338101E+00
          3   -1    0    0  501    0  0.00000000000E+00  0.00000000000E+00  0.24290942255E+02  0.24290942255E+02  0.00000000000E+00 0. -1.
         -3   -1    0    0    0  501 -0.00000000000E+00 -0.00000000000E+00 -0.50150364292E+03  0.50150364292E+03  0.00000000000E+00 0.  1.
         25    2    1    2    0    0 -0.14540094159E+02  0.77537737630E+01 -0.23321253483E+03  0.26515506389E+03  0.12509031200E+03 0.  0.
          5    1    3    3  502    0 -0.10972551605E+02  0.33984551524E+02 -0.61034383356E+01  0.36470138340E+02  0.41800000000E+01 0.  1.
         -5    1    3    3    0  502 -0.35675425542E+01 -0.26230777761E+02 -0.22710909650E+03  0.22868492555E+03  0.41800000000E+01 0.  1.
        -11    1    1    2    0    0  0.41257884803E+02  0.25403966338E+02 -0.11490318208E+03  0.12470090543E+03  0.00000000000E+00 0.  1.
         11    1    1    2    0    0 -0.26717790644E+02 -0.33157740101E+02 -0.12909698376E+03  0.13593861586E+03  0.00000000000E+00 0. -1.
</event>
<event>
 7    1  0.2666594E-009  0.1378723E+03  0.7561462E-02  0.1216221E+00
          2   -1    0    0  501    0  0.00000000000E+00  0.00000000000E+00  0.22948515210E+03  0.22948515210E+03  0.00000000000E+00 0. -1.
         -2   -1    0    0    0  501 -0.00000000000E+00 -0.00000000000E+00 -0.84334321053E+02  0.84334321053E+02  0.00000000000E+00 0.  1.
         25    2    1    2    0    0 -0.76330224617E+02  0.40795583207E+02  0.65484607552E+02  0.16560733589E+03  0.12508786142E+03 0.  0.
          5    1    3    3  502    0 -0.17958643838E+02 -0.44049912429E+02  0.10923996468E+02  0.48986873470E+02  0.41800000000E+01 0. -1.
         -5    1    3    3    0  502 -0.58371580779E+02  0.84845495636E+02  0.54560611083E+02  0.11662046242E+03  0.41800000000E+01 0. -1.
        -11    1    1    2    0    0  0.57269087905E+02 -0.69754450424E+02  0.55493218582E+02  0.10594776587E+03  0.00000000000E+00 0.  1.
         11    1    1    2    0    0  0.19061136712E+02  0.28958867217E+02  0.24173004909E+02  0.42264371397E+02  0.00000000000E+00 0. -1.
</event>
<event>
 7    1  0.2666594E-009  0.1130906E+03  0.7561462E-02  0.1254951E+00
          2   -1    0    0  501    0  0.00000000000E+00  0.00000000000E+00  0.50665761626E+03  0.50665761626E+03  0.00000000000E+00 0. -1.
         -2   -1    0    0    0  501 -0.00000000000E+00 -0.00000000000E+00 -0.32987576865E+02  0.32987576865E+02  0.00000000000E+00 0.  1.
         25    2    1    2    0    0  0.30043515844E+02  0.47720061286E+02  0.17535073009E+03  0.22264669469E+03  0.12507539735E+03 0.  0.
          5    1    3    3  502    0 -0.35056492818E+02 -0.11856173408E+02  0.99379842362E+02  0.10612894047E+03  0.41800000000E+01 0.  1.
         -5    1    3    3    0  502  0.65100008662E+02  0.59576234695E+02  0.75970887725E+02  0.11651775423E+03  0.41800000000E+01 0.  1.
        -11    1    1    2    0    0  0.19349661851E+02 -0.47402660803E+02  0.20632007885E+03  0.21257797770E+03  0.00000000000E+00 0. -1.
         11    1    1    2    0    0 -0.49393177695E+02 -0.31740048285E+00  0.91999230454E+02  0.10442052073E+03  0.00000000000E+00 0.  1.
</event>
<event>
 7    1  0.2666594E-009  0.1062323E+03  0.7561462E-02  0.1267710E+00
         -2   -1    0    0    0  501 -0.00000000000E+00  0.00000000000E+00  0.16299486284E+03  0.16299486284E+03  0.00000000000E+00 0. -1.
          2   -1    0    0  501    0  0.00000000000E+00 -0.00000000000E+00 -0.80472523309E+02  0.80472523309E+02  0.00000000000E+00 0.  1.
         25    2    1    2    0    0  0.14249810154E+02 -0.12445999215E+02  0.79023271299E+02  0.14916397517E+03  0.12508898471E+03 0.  0.
          5    1    3    3  502    0 -0.45730463734E+02  0.19807986619E+02  0.79469516846E+01  0.50638504010E+02  0.41800000000E+01 0.  1.
         -5    1    3    3    0  502  0.59980273888E+02 -0.32253985834E+02  0.71076319615E+02  0.98525471163E+02  0.41800000000E+01 0.  1.
        -11    1    1    2    0    0  0.32475023810E+02  0.30095282178E+02  0.78921434355E+00  0.44282909120E+02  0.00000000000E+00 0.  1.
         11    1    1    2    0    0 -0.46724833964E+02 -0.17649282963E+02  0.27098538896E+01  0.50020501858E+02  0.00000000000E+00 0. -1.
</event>
<event>
 7    1  0.2666594E-009  0.1511267E+03  0.7561462E-02  0.1199095E+00
         -1   -1    0    0    0  501 -0.00000000000E+00  0.00000000000E+00  0.57621527852E+02  0.57621527852E+02  0.00000000000E+00 0.  1.
          1   -1    0    0  501    0  0.00000000000E+00 -0.00000000000E+00 -0.48686680687E+03  0.48686680687E+03  0.00000000000E+00 0. -1.
         25    2    1    2    0    0  0.12056652555E+03 -0.22348215077E+02 -0.28024112327E+03  0.33048320730E+03  0.12509329853E+03 0.  0.
          5    1    3    3  502    0  0.12973457159E+02 -0.53050259984E+02 -0.48705211758E+02  0.73296048512E+02  0.41800000000E+01 0.  1.
         -5    1    3    3    0  502  0.10759306839E+03  0.30702044907E+02 -0.23153591151E+03  0.25718715879E+03  0.41800000000E+01 0.  1.
        -11    1    1    2    0    0 -0.93176225777E+01 -0.15430764423E+02  0.64520912318E+01  0.19145653879E+02  0.00000000000E+00 0.  1.
         11    1    1    2    0    0 -0.11124890297E+03  0.37778979501E+02 -0.15545624699E+03  0.19485947355E+03  0.00000000000E+00 0. -1.
</event>
<event>
 7    1  0.2666594E-009  0.1514467E+03  0.7561462E-02  0.1198707E+00
         -1   -1    0    0    0  501 -0.00000000000E+00  0.00000000000E+00  0.70482659261E+03  0.70482659261E+03  0.00000000000E+00 0.  1.
          1   -1    0    0  501    0  0.00000000000E+00 -0.00000000000E+00 -0.68386262506E+02  0.68386262506E+02  0.00000000000E+00 0. -1.
         25    2    1    2    0    0 -0.10029102423E+03 -0.42680966319E+02  0.60716822048E+03  0.62942895802E+03  0.12509041055E+03 0.  0.
          5    1    3    3  502    0 -0.95773780220E+02  0.23517462833E+02  0.33349954753E+03  0.34780038620E+03  0.41800000000E+01 0. -1.
         -5    1    3    3    0  502 -0.45172440081E+01 -0.66198429152E+02  0.27366867295E+03  0.28162857182E+03  0.41800000000E+01 0. -1.
        -11    1    1    2    0    0  0.68885956493E+02 -0.16383452724E+02  0.29962116759E+02  0.76885765691E+02  0.00000000000E+00 0.  1.
         11    1    1    2    0    0  0.31405067735E+02  0.59064419043E+02 -0.69000712597E+00  0.66898131410E+02  0.00000000000E+00 0. -1.
</event>
<event>
 7    1  0.2666594E-009  0.9779990E+02  0.7561462E-02  0.1284992E+00
          1   -1    0    0  501    0  0.00000000000E+00  0.00000000000E+00  0.30567008981E+03  0.30567008981E+03  0.00000000000E+00 0. -1.
         -1   -1    0    0    0  501 -0.00000000000E+00 -0.00000000000E+00 -0.71239908697E+02  0.71239908697E+02  0.00000000000E+00 0.  1.
         25    2    1    2    0    0 -0.24463293435E+02 -0.60562780297E+02  0.22336795315E+03  0.26421307430E+03  0.12509597537E+03 0.  0.
          5    1    3    3  502    0  0.24942348925E+02 -0.19529142900E+02  0.20346023696E+00  0.31953434688E+02  0.41800000000E+01 0. -1.
         -5    1    3    3    0  502 -0.49405642360E+02 -0.41033637397E+02  0.22316449291E+03  0.23225963961E+03  0.41800000000E+01 0. -1.
        -11    1    1    2    0    0  0.51466559694E+02  0.36245710077E+02  0.32149046786E+02  0.70683233338E+02  0.00000000000E+00 0.  1.
         11    1    1    2    0    0 -0.27003266260E+02  0.24317070220E+02 -0.21086818820E+02  0.42013690872E+02  0.00000000000E+00 0. -1.
</event>
<event>
 7    1  0.2666594E-009  0.1109124E+03  0.7561462E-02  0.1258889E+00
         -1   -1    0    0    0  501 -0.00000000000E+00  0.00000000000E+00  0.48315364459E+02  0.48315364459E+02  0.00000000000E+00 0.  1.
          1   -1    0    0  501    0  0.00000000000E+00 -0.00000000000E+00 -0.31783668515E+03  0.31783668515E+03  0.00000000000E+00 0. -1.
         25    2    1    2    0    0  0.46433716755E+02 -0.22065786762E+01 -0.94945540965E+02  0.16377670803E+03  0.12508874970E+03 0.  0.
          5    1    3    3  502    0  0.76098779842E+02 -0.27636960384E+02 -0.94458148797E+02  0.12447746843E+03  0.41800000000E+01 0. -1.
         -5    1    3    3    0  502 -0.29665063087E+02  0.25430381708E+02 -0.48739216824E+00  0.39299239597E+02  0.41800000000E+01 0. -1.
        -11    1    1    2    0    0  0.25856431350E+02  0.12005568710E+02 -0.37610839930E+02  0.47193897936E+02  0.00000000000E+00 0.  1.
         11    1    1    2    0    0 -0.72290148104E+02 -0.97989900337E+01 -0.13696493979E+03  0.15518144364E+03  0.00000000000E+00 0. -1.
</event>
<event>
 7    1  0.2666594E-009  0.8502688E+02  0.7561462E-02  0.1315362E+00
          2   -1    0    0  501    0  0.00000000000E+00  0.00000000000E+00  0.25190358571E+03  0.25190358571E+03  0.00000000000E+00 0. -1.
         -2   -1    0    0    0  501 -0.00000000000E+00 -0.00000000000E+00 -0.54772409149E+02  0.54772409149E+02  0.00000000000E+00 0.  1.
         25    2    1    2    0    0  0.32661626597E+01 -0.44749266342E+02  0.10156722275E+03  0.16726162939E+03  0.12508951704E+03 0.  0.
          5    1    3    3  502    0  0.29859787016E+02 -0.24922053417E+02 -0.18034516243E+02  0.43074723485E+02  0.41800000000E+01 0.  1.
         -5    1    3    3    0  502 -0.26593624356E+02 -0.19827212925E+02  0.11960173899E+03  0.12418690591E+03  0.41800000000E+01 0.  1.
        -11    1    1    2    0    0  0.30439784827E+02  0.54491176872E+02  0.78812533751E+02  0.10053499059E+03  0.00000000000E+00 0. -1.
         11    1    1    2    0    0 -0.33705947487E+02 -0.97419105293E+01  0.16751420064E+02  0.38879374878E+02  0.00000000000E+00 0.  1.
</event>
<event>
 7    1  0.2666594E-009  0.9674203E+02  0.7561462E-02  0.1287300E+00
          1   -1    0    0  501    0  0.00000000000E+00  0.00000000000E+00  0.44173582729E+03  0.44173582729E+03  0.00000000000E+00 0. -1.
         -1   -1    0    0    0  501 -0.00000000000E+00 -0.00000000000E+00 -0.33740483408E+02  0.33740483408E+02  0.00000000000E+00 0.  1.
         25    2    1    2    0    0  0.27279424062E+02 -0.41743646200E+02  0.26885680017E+03  0.30069538102E+03  0.12508810571E+03 0.  0.
          5    1    3    3  502    0  0.66905078430E+02 -0.43936516900E+02  0.23523174914E+03  0.24851188149E+03  0.41800000000E+01 0. -1.
         -5    1    3    3    0  502 -0.39625654368E+02  0.21928706993E+01  0.33625051032E+02  0.52183499527E+02  0.41800000000E+01 0. -1.
        -11    1    1    2    0    0  0.15330032230E+02  0.21098328656E+02 -0.17607646628E+01  0.26139044597E+02  0.00000000000E+00 0.  1.
         11    1    1    2    0    0 -0.42609456292E+02  0.20645317544E+02  0.14089930837E+03  0.14864188509E+03  0.00000000000E+00 0. -1.
</event>
<event>
 7    1  0.2666594E-009  0.8471978E+02  0.7561462E-02  0.1316167E+00
          1   -1    0    0  501    0  0.00000000000E+00  0.00000000000E+00  0.22328682620E+03  0.22328682620E+03  0.00000000000E+00 0. -1.
         -1   -1    0    0    0  501 -0.00000000000E+00 -0.00000000000E+00 -0.71189160747E+02  0.71189160747E+02  0.00000000000E+00 0.  1.
         25    2    1    2    0    0 -0.13139153460E+02 -0.62441871875E+02  0.97198606804E+02  0.17078327980E+03  0.12509090605E+03 0.  0.
          5    1    3    3  502    0 -0.27816987869E+02 -0.89346158935E+00 -0.22029999834E+02  0.35740402634E+02  0.41800000000E+01 0.  1.
         -5    1    3    3    0  502  0.14677834409E+02 -0.61548410286E+02  0.11922860664E+03  0.13504287716E+03  0.41800000000E+01 0.  1.
        -11    1    1    2    0    0 -0.13623901899E+02  0.49986024247E+01  0.58446964579E+02  0.60221627325E+02  0.00000000000E+00 0. -1.
         11    1    1    2    0    0  0.26763055359E+02  0.57443269451E+02 -0.35479059318E+01  0.63471079823E+02  0.00000000000E+00 0.  1.
</event>
<event>
 7    1  0.2666594E-009  0.7899785E+02  0.7561462E-02  0.1331920E+00
          3   -1    0    0  501    0  0.00000000000E+00  0.00000000000E+00  0.55614717722E+03  0.55614717722E+03  0.00000000000E+00 0. -1.
         -3   -1    0    0    0  501 -0.00000000000E+00 -0.00000000000E+00 -0.27905491861E+02  0.27905491861E+02  0.00000000000E+00 0.  1.
         25    2    1    2    0    0 -0.25936165886E+02  0.48158529374E+02  0.35442531133E+03  0.37981185954E+03  0.12509124144E+03 0.  0.
          5    1    3    3  502    0 -0.56813426249E+02  0.43745654287E+02  0.98215776734E+02  0.12167686251E+03  0.41800000000E+01 0.  1.
         -5    1    3    3    0  502  0.30877260363E+02  0.44128750866E+01  0.25620953460E+03  0.25813499703E+03  0.41800000000E+01 0.  1.
        -11    1    1    2    0    0  0.17103575993E+02 -0.31325065456E+02  0.18057260365E+03  0.18406590457E+03  0.00000000000E+00 0. -1.
         11    1    1    2    0    0  0.88325898932E+01 -0.16833463918E+02 -0.67562296197E+01  0.20174904966E+02  0.00000000000E+00 0.  1.
</event>
<event>
 7    1  0.2666594E-009  0.1449030E+03  0.7561462E-02  0.1206880E+00
         -1   -1    0    0    0  501 -0.00000000000E+00  0.00000000000E+00  0.60288314717E+02  0.60288314717E+02  0.00000000000E+00 0.  1.
          1   -1    0    0  501    0  0.00000000000E+00 -0.00000000000E+00 -0.38278204908E+03  0.38278204908E+03  0.00000000000E+00 0. -1.
         25    2    1    2    0    0 -0.67856633795E+02  0.81211290120E+02 -0.15970967435E+03  0.22881488168E+03  0.12509705673E+03 0.  0.
          5    1    3    3  502    0 -0.97639983157E+02  0.70790689233E+02 -0.84994063986E+02  0.14760200306E+03  0.41800000000E+01 0. -1.
         -5    1    3    3    0  502  0.29783349362E+02  0.10420600887E+02 -0.74715610368E+02  0.81212878626E+02  0.41800000000E+01 0. -1.
        -11    1    1    2    0    0  0.67253383712E+02 -0.12276732607E+02 -0.62947053595E+02  0.92930443562E+02  0.00000000000E+00 0.  1.
         11    1    1    2    0    0  0.60325008273E+00 -0.68934557514E+02 -0.99837006413E+02  0.12132503855E+03  0.00000000000E+00 0. -1.
</event>
<event>
 7    1  0.2666594E-009  0.1235584E+03  0.7561462E-02  0.1237340E+00
          1   -1    0    0  501    0  0.00000000000E+00  0.00000000000E+00  0.98097305451E+03  0.98097305451E+03  0.00000000000E+00 0. -1.
         -1   -1    0    0    0  501 -0.00000000000E+00 -0.00000000000E+00 -0.29474629812E+02  0.29474629812E+02  0.00000000000E+00 0.  1.
         25    2    1    2    0    0  0.21064021454E+02  0.79750222830E+02  0.45177149449E+03  0.47597152044E+03  0.12509042329E+03 0.  0.
          5    1    3    3  502    0  0.18635818676E+02 -0.73099561835E+01  0.53827192709E+01  0.21146518954E+02  0.41800000000E+01 0.  1.
         -5    1    3    3    0  502  0.24282027773E+01  0.87060179013E+02  0.44638877522E+03  0.45482500149E+03  0.41800000000E+01 0.  1.
        -11    1    1    2    0    0 -0.67721172866E+02 -0.45310557997E+02  0.45224338917E+03  0.45952506674E+03  0.00000000000E+00 0. -1.
         11    1    1    2    0    0  0.46657151412E+02 -0.34439664833E+02  0.47483541040E+02  0.74951097133E+02  0.00000000000E+00 0.  1.
</event>
<event>
 7    1  0.2666594E-009  0.1151154E+03  0.7561462E-02  0.1251380E+00
         -1   -1    0    0    0  501 -0.00000000000E+00  0.00000000000E+00  0.28607103182E+03  0.28607103182E+03  0.00000000000E+00 0.  1.
          1   -1    0    0  501    0  0.00000000000E+00 -0.00000000000E+00 -0.49126974610E+02  0.49126974610E+02  0.00000000000E+00 0. -1.
         25    2    1    2    0    0  0.27293720065E+02 -0.31506466622E+02  0.10355002804E+03  0.16765370084E+03  0.12509016949E+03 0.  0.
          5    1    3    3  502    0 -0.49647436458E+02 -0.40290431099E+01  0.36835165378E+02  0.62091891127E+02  0.41800000000E+01 0. -1.
         -5    1    3    3    0  502  0.76941156522E+02 -0.27477423512E+02  0.66714862662E+02  0.10556180971E+03  0.41800000000E+01 0. -1.
        -11    1    1    2    0    0 -0.35134778927E+02 -0.23891088814E+02  0.77942801372E+02  0.88771150159E+02  0.00000000000E+00 0.  1.
         11    1    1    2    0    0  0.78410588621E+01  0.55397555435E+02  0.55451227798E+02  0.78773155431E+02  0.00000000000E+00 0. -1.
</event>
<event>
 7    1  0.2666594E-009  0.9640804E+02  0.7561462E-02  0.1288036E+00
         -2   -1    0    0    0  501 -0.00000000000E+00  0.00000000000E+00  0.22709193954E+02  0.22709193954E+02  0.00000000000E+00 0. -1.
          2   -1    0    0  501    0  0.00000000000E+00 -0.00000000000E+00 -0.98341424620E+03  0.98341424620E+03  0.00000000000E+00 0.  1.
         25    2    1    2    0    0 -0.36348935975E+02 -0.67461179898E+02 -0.74409096759E+03  0.75841367350E+03  0.12509067180E+03 0.  0.
          5    1    3    3  502    0  0.19623677319E+01 -0.75524324805E+02 -0.21623476024E+03  0.22909107024E+03  0.41800000000E+01 0. -1.
         -5    1    3    3    0  502 -0.38311303707E+02  0.80631449077E+01 -0.52785620734E+03  0.52932260327E+03  0.41800000000E+01 0. -1.
        -11    1    1    2    0    0  0.18615302999E+02  0.47818446062E+02 -0.21517298403E+03  0.22120702147E+03  0.00000000000E+00 0.  1.
         11    1    1    2    0    0  0.17733632975E+02  0.19642733836E+02 -0.14411006235E+01  0.26502745179E+02  0.00000000000E+00 0. -1.
</event>
<event>
 7    1  0.2666594E-009  0.1189037E+03  0.7561462E-02  0.1244917E+00
         -2   -1    0    0    0  501 -0.00000000000E+00  0.00000000000E+00  0.70165956813E+03  0.70165956813E+03  0.00000000000E+00 0. -1.
          2   -1    0    0  501    0  0.00000000000E+00 -0.00000000000E+00 -0.21561209946E+02  0.21561209946E+02  0.00000000000E+00 0.  1.
         25    2    1    2    0    0  0.48554968957E+02  0.19785836585E+02  0.30531878762E+03  0.33408973827E+03  0.12508927534E+03 0.  0.
          5    1    3    3  502    0  0.49770172576E+02  0.68196234154E+02  0.16157676914E+03  0.18235218989E+03  0.41800000000E+01 0. -1.
         -5    1    3    3    0  502 -0.12152036186E+01 -0.48410397569E+02  0.14374201847E+03  0.15173754838E+03  0.41800000000E+01 0. -1.
        -11    1    1    2    0    0  0.66402466639E+01  0.29765757548E+02  0.10477676833E+03  0.10912499429E+03  0.00000000000E+00 0.  1.
         11    1    1    2    0    0 -0.55195215621E+02 -0.49551594133E+02  0.27000280224E+03  0.28000604551E+03  0.00000000000E+00 0. -1.
</event>
<event>
 7    1  0.2666594E-009  0.1048497E+03  0.7561462E-02  0.1270416E+00
         -2   -1    0    0    0  501 -0.00000000000E+00  0.00000000000E+00  0.66821594234E+02  0.66821594234E+02  0.00000000000E+00 0.  1.
          2   -1    0    0  501    0  0.00000000000E+00 -0.00000000000E+00 -0.27870031692E+03  0.27870031692E+03  0.00000000000E+00 0. -1.
         25    2    1    2    0    0 -0.45944492471E+01 -0.64955301499E+00 -0.22069196532E+03  0.25372610844E+03  0.12510181320E+03 0.  0.
          5    1    3    3  502    0 -0.32186607149E+02 -0.52211695315E+02 -0.76990067308E+02  0.98524015709E+02  0.41800000000E+01 0. -1.
         -5    1    3    3    0  502  0.27592157901E+02  0.51562142300E+02 -0.14370189801E+03  0.15520209273E+03  0.41800000000E+01 0. -1.
        -11    1    1    2    0    0  0.39070696797E+02  0.25884331297E+02 -0.44035502207E+01  0.47073444844E+02  0.00000000000E+00 0. -1.
         11    1    1    2    0    0 -0.34476247550E+02 -0.25234778282E+02  0.13216792853E+02  0.44722357869E+02  0.00000000000E+00 0.  1.
</event>
<event>
 7    1  0.2666594E-009  0.1606563E+03  0.7561462E-02  0.1187958E+00
          1   -1    0    0  501    0  0.00000000000E+00  0.00000000000E+00  0.51621767838E+02  0.51621767838E+02  0.00000000000E+00 0. -1.
         -1   -1    0    0    0  501 -0.00000000000E+00 -0.00000000000E+00 -0.80916832632E+03  0.80916832632E+03  0.00000000000E+00 0.  1.
         25    2    1    2    0    0 -0.12947178536E+03  0.40829456186E+02 -0.60802995424E+03  0.63543509484E+03  0.12508935526E+03 0.  0.
          5    1    3    3  502    0 -0.10818103963E+03  0.83271143893E+02 -0.46735861208E+03  0.48690734788E+03  0.41800000000E+01 0. -1.
         -5    1    3    3    0  502 -0.21290745733E+02 -0.42441687706E+02 -0.14067134216E+03  0.14852774695E+03  0.41800000000E+01 0. -1.
        -11    1    1    2    0    0  0.10964758372E+03 -0.27090591689E+02 -0.16255183292E+03  0.19793835191E+03  0.00000000000E+00 0.  1.
         11    1    1    2    0    0  0.19824201644E+02 -0.13738864498E+02  0.13035228674E+02  0.27416647408E+02  0.00000000000E+00 0. -1.
</event>
<event>
 7    1  0.2666594E-009  0.1026370E+03  0.7561462E-02  0.1274846E+00
          2   -1    0    0  501    0  0.00000000000E+00  0.00000000000E+00  0.58001079384E+03  0.58001079384E+03  0.00000000000E+00 0. -1.
         -2   -1    0    0    0  501 -0.00000000000E+00 -0.00000000000E+00 -0.22792170001E+02  0.22792170001E+02  0.00000000000E+00 0.  1.
         25    2    1    2    0    0 -0.24997602723E+02  0.21407679617E+02  0.37351777761E+03  0.39527914230E+03  0.12508757434E+03 0.  0.
          5    1    3    3  502    0  0.50633096921E+02  0.15143112162E+02  0.16744497389E+03  0.17563688687E+03  0.41800000000E+01 0.  1.
         -5    1    3    3    0  502 -0.75630699643E+02  0.62645674559E+01  0.20607280372E+03  0.21964225542E+03  0.41800000000E+01 0.  1.
        -11    1    1    2    0    0  0.44241223488E+02  0.39557420217E+01  0.38213141815E+02  0.58593326906E+02  0.00000000000E+00 0.  1.
         11    1    1    2    0    0 -0.19243620765E+02 -0.25363421639E+02  0.14548770441E+03  0.14893049463E+03  0.00000000000E+00 0. -1.
</event>
<event>
 7    1  0.2752759E-009  0.1010030E+03  0.7561462E-02  0.1278201E+00
          1   -1    0    0  501    0  0.00000000000E+00  0.00000000000E+00  0.76891645221E+03  0.76891645221E+03  0.00000000000E+00 0. -1.
         -1   -1    0    0    0  501 -0.00000000000E+00 -0.00000000000E+00 -0.23623953243E+02  0.23623953243E+02  0.00000000000E+00 0.  1.
         25    2    1    2    0    0 -0.63955784528E+02  0.47690684389E+02  0.38226892214E+03  0.41005014767E+03  0.12508737352E+03 0.  0.
          5    1    3    3  502    0 -0.52425538717E+02  0.17887033928E+02  0.37214606927E+03  0.37626925515E+03  0.41800000000E+01 0. -1.
         -5    1    3    3    0  502 -0.11530245811E+02  0.29803650461E+02  0.10122852867E+02  0.33780892520E+02  0.41800000000E+01 0. -1.
        -11    1    1    2    0    0  0.78419406205E+01 -0.56834622295E+02  0.12149443171E+03  0.13435984244E+03  0.00000000000E+00 0. -1.
         11    1    1    2    0    0  0.56113843907E+02  0.91439379066E+01  0.24152914512E+03  0.24813041534E+03  0.00000000000E+00 0.  1.
</event>
<event>
 7    1  0.2666594E-009  0.1390836E+03  0.7561462E-02  0.1214567E+00
         -1   -1    0    0    0  501 -0.00000000000E+00  0.00000000000E+00  0.48770285425E+03  0.48770285425E+03  0.00000000000E+00 0.  1.
          1   -1    0    0  501    0  0.00000000000E+00 -0.00000000000E+00 -0.98120318135E+02  0.98120318135E+02  0.00000000000E+00 0. -1.
         25    2    1    2    0    0  0.10079199116E+03  0.30199431492E+02  0.41187557998E+03  0.44312368625E+03  0.12508427874E+03 0.  0.
          5    1    3    3  502    0  0.12482224084E+03  0.23953799848E+02  0.26297101276E+03  0.29210546432E+03  0.41800000000E+01 0.  1.
         -5    1    3    3    0  502 -0.24030249685E+02  0.62456316440E+01  0.14890456722E+03  0.15101822193E+03  0.41800000000E+01 0.  1.
        -11    1    1    2    0    0 -0.87046156555E+02 -0.51001643304E+02 -0.43597034093E+02  0.10990405985E+03  0.00000000000E+00 0. -1.
         11    1    1    2    0    0 -0.13745834603E+02  0.20802211812E+02  0.21303990227E+02  0.32795426279E+02  0.00000000000E+00 0.  1.
</event>
<event>
 7    1  0.2666594E-009  0.8829264E+02  0.7561462E-02  0.1307040E+00
          1   -1    0    0  501    0  0.00000000000E+00  0.00000000000E+00  0.27613127441E+03  0.27613127441E+03  0.00000000000E+00 0. -1.
         -1   -1    0    0    0  501 -0.00000000000E+00 -0.00000000000E+00 -0.86168197390E+02  0.86168197390E+02  0.00000000000E+00 0.  1.
         25    2    1    2    0    0 -0.12857534336E+02  0.62962239935E+02 -0.74664912370E+00  0.14062157545E+03  0.12507721675E+03 0.  0.
          5    1    3    3  502    0 -0.14001502446E+02  0.49504252365E+02 -0.60322300543E+02  0.79391217498E+02  0.41800000000E+01 0. -1.
         -5    1    3    3    0  502  0.11439681100E+01  0.13457987570E+02  0.59575651419E+02  0.61230357949E+02  0.41800000000E+01 0. -1.
        -11    1    1    2    0    0  0.46932138873E+02 -0.60636207455E+02  0.11048246360E+03  0.13448327062E+03  0.00000000000E+00 0.  1.
         11    1    1    2    0    0 -0.34074604536E+02 -0.23260324800E+01  0.80227262541E+02  0.87194625730E+02  0.00000000000E+00 0. -1.
</event>
<event>
 7    1  0.2666594E-009  0.8594898E+02  0.7561462E-02  0.1312969E+00
          1   -1    0    0  501    0  0.00000000000E+00  0.00000000000E+00  0.57090169915E+02  0.57090169915E+02  0.00000000000E+00 0. -1.
         -1   -1    0    0    0  501 -0.00000000000E+00 -0.00000000000E+00 -0.30703158099E+03  0.30703158099E+03  0.00000000000E+00 0.  1.
         25    2    1    2    0    0 -0.60620625893E+02  0.43270624982E+02 -0.13351457491E+03  0.19752547579E+03  0.12507183777E+03 0.  0.
          5    1    3    3  502    0 -0.57018596457E+02  0.29017237556E+02 -0.15695352451E+03  0.16954350968E+03  0.41800000000E+01 0.  1.
         -5    1    3    3    0  502 -0.36020294359E+01  0.14253387426E+02  0.23438949603E+02  0.27981966114E+02  0.41800000000E+01 0.  1.
        -11    1    1    2    0    0  0.46726520406E+02 -0.56497479875E+02 -0.31962358455E+02  0.79980780813E+02  0.00000000000E+00 0. -1.
         11    1    1    2    0    0  0.13894105487E+02  0.13226854893E+02 -0.84464477715E+02  0.86615494303E+02  0.00000000000E+00 0.  1.
</event>
<event>
 7    1  0.2666594E-009  0.9177891E+02  0.7561462E-02  0.1298600E+00
          1   -1    0    0  501    0  0.00000000000E+00  0.00000000000E+00  0.10697919050E+04  0.10697919050E+04  0.00000000000E+00 0. -1.
         -1   -1    0    0    0  501 -0.00000000000E+00 -0.00000000000E+00 -0.15938646905E+02  0.15938646905E+02  0.00000000000E+00 0.  1.
         25    2    1    2    0    0  0.69418036246E+02  0.96205676123E+01  0.65135486312E+03  0.66694993645E+03  0.12509053097E+03 0.  0.
          5    1    3    3  502    0  0.50430717072E+02 -0.92836125956E+01  0.81045866732E+02  0.95996602031E+02  0.41800000000E+01 0.  1.
         -5    1    3    3    0  502  0.18987319174E+02  0.18904180208E+02  0.57030899639E+03  0.57095333441E+03  0.41800000000E+01 0.  1.
        -11    1    1    2    0    0 -0.82880570528E+02  0.74923002013E+01  0.37268289368E+03  0.38186105166E+03  0.00000000000E+00 0. -1.
         11    1    1    2    0    0  0.13462534282E+02 -0.17112867814E+02  0.29815501336E+02  0.36919563839E+02  0.00000000000E+00 0.  1.
</event>
<event>
 7    1  0.2666594E-009  0.2187637E+03  0.7561462E-02  0.1134808E+00
         -2   -1    0    0    0  501 -0.00000000000E+00  0.00000000000E+00  0.94879585737E+02  0.94879585737E+02  0.00000000000E+00 0.  1.
          2   -1    0    0  501    0  0.00000000000E+00 -0.00000000000E+00 -0.78212352121E+03  0.78212352121E+03  0.00000000000E+00 0. -1.
         25    2    1    2    0    0 -0.18139417395E+03 -0.65172080883E+02 -0.60487715121E+03  0.64705155498E+03  0.12509236698E+03 0.  0.
          5    1    3    3  502    0  0.11904542093E+02  0.14434028294E+02 -0.75024104704E+02  0.77434798262E+02  0.41800000000E+01 0. -1.
         -5    1    3    3    0  502 -0.19329871604E+03 -0.79606109177E+02 -0.52985304651E+03  0.56961675672E+03  0.41800000000E+01 0. -1.
        -11    1    1    2    0    0  0.85302117164E+02 -0.11841526923E+02 -0.89544878214E+01  0.86584385456E+02  0.00000000000E+00 0.  1.
         11    1    1    2    0    0  0.96092056786E+02  0.77013607806E+02 -0.73412296442E+02  0.14336716651E+03  0.00000000000E+00 0. -1.
</event>
<event>
 7    1  0.2666594E-009  0.1035241E+03  0.7561462E-02  0.1273055E+00
         -2   -1    0    0    0  501 -0.00000000000E+00  0.00000000000E+00  0.26821744524E+03  0.26821744524E+03  0.00000000000E+00 0.  1.
          2   -1    0    0  501    0  0.00000000000E+00 -0.00000000000E+00 -0.52102829807E+02  0.52102829807E+02  0.00000000000E+00 0. -1.
         25    2    1    2    0    0  0.17655229254E+02  0.33497995337E+02  0.16047672761E+03  0.20696480946E+03  0.12509128442E+03 0.  0.
          5    1    3    3  502    0  0.41547010291E+02  0.64350779642E+02  0.14638363150E+03  0.16526589750E+03  0.41800000000E+01 0.  1.
         -5    1    3    3    0  502 -0.23891781037E+02 -0.30852784306E+02  0.14093096103E+02  0.41698911956E+02  0.41800000000E+01 0.  1.
        -11    1    1    2    0    0 -0.59943913661E+01 -0.60961255889E+02  0.56743464702E+02  0.83498672048E+02  0.00000000000E+00 0.  1.
         11    1    1    2    0    0 -0.11660837888E+02  0.27463260552E+02 -0.11055768760E+01  0.29856793542E+02  0.00000000000E+00 0. -1.
</event>
<event>
 7    1  0.2666594E-009  0.1200761E+03  0.7561462E-02  0.1242972E+00
         -2   -1    0    0    0  501 -0.00000000000E+00  0.00000000000E+00  0.93523184648E+02  0.93523184648E+02  0.00000000000E+00 0.  1.
          2   -1    0    0  501    0  0.00000000000E+00 -0.00000000000E+00 -0.20498213823E+03  0.20498213823E+03  0.00000000000E+00 0. -1.
         25    2    1    2    0    0 -0.62885911995E+02  0.24946212665E+02 -0.11807668605E+03  0.18483873583E+03  0.12508518305E+03 0.  0.
          5    1    3    3  502    0 -0.61723193543E+02  0.68326728134E+02 -0.52450269802E+02  0.10605091985E+03  0.41800000000E+01 0. -1.
         -5    1    3    3    0  502 -0.11627184525E+01 -0.43380515468E+02 -0.65626416253E+02  0.78787815978E+02  0.41800000000E+01 0. -1.
        -11    1    1    2    0    0  0.19505654838E+02  0.29129607324E+02  0.23638369389E+02  0.42282113250E+02  0.00000000000E+00 0.  1.
         11    1    1    2    0    0  0.43380257157E+02 -0.54075819990E+02 -0.17020636916E+02  0.71384473799E+02  0.00000000000E+00 0. -1.
</event>
<event>
 7    1  0.2666594E-009  0.2587614E+03  0.7561462E-02  0.1107890E+00
          2   -1    0    0  501    0  0.00000000000E+00  0.00000000000E+00  0.86599424492E+03  0.86599424492E+03  0.00000000000E+00 0. -1.
         -2   -1    0    0    0  501 -0.00000000000E+00 -0.00000000000E+00 -0.12302554592E+03  0.12302554592E+03  0.00000000000E+00 0.  1.
         25    2    1    2    0    0 -0.24350601359E+03  0.11706575781E+02  0.86164037885E+02  0.28722823597E+03  0.12507436004E+03 0.  0.
          5    1    3    3  502    0 -0.80210253769E+02 -0.54838414018E+02  0.23595054438E+02  0.10007564866E+03  0.41800000000E+01 0.  1.
         -5    1    3    3    0  502 -0.16329575983E+03  0.66544989799E+02  0.62568983448E+02  0.18715258730E+03  0.41800000000E+01 0.  1.
        -11    1    1    2    0    0  0.19615475287E+03 -0.12160969609E+02  0.47806510344E+03  0.51688569276E+03  0.00000000000E+00 0. -1.
         11    1    1    2    0    0  0.47351260727E+02  0.45439382787E+00  0.17873955767E+03  0.18490586211E+03  0.00000000000E+00 0.  1.
</event>
<event>
 7    1  0.2666594E-009  0.1144297E+03  0.7561462E-02  0.1252580E+00
         -2   -1    0    0    0  501 -0.00000000000E+00  0.00000000000E+00  0.82487290844E+02  0.82487290844E+02  0.00000000000E+00 0. -1.
          2   -1    0    0  501    0  0.00000000000E+00 -0.00000000000E+00 -0.16332273972E+03  0.16332273972E+03  0.00000000000E+00 0.  1.
         25    2    1    2    0    0 -0.27886713108E+02 -0.29663993423E+02 -0.36556476620E+02  0.13653301323E+03  0.12508903407E+03 0.  0.
          5    1    3    3  502    0 -0.86464087031E+01  0.48459074682E+02 -0.24250150564E+02  0.55032576761E+02  0.41800000000E+01 0.  1.
         -5    1    3    3    0  502 -0.19240304405E+02 -0.78123068105E+02 -0.12306326056E+02  0.81500436470E+02  0.41800000000E+01 0.  1.
        -11    1    1    2    0    0 -0.30414366604E+02 -0.53548123039E+01 -0.21197482065E+02  0.37457188318E+02  0.00000000000E+00 0.  1.
         11    1    1    2    0    0  0.58301079712E+02  0.35018805726E+02 -0.23081490188E+02  0.71819829013E+02  0.00000000000E+00 0. -1.
</event>
<event>
 7    1  0.2666594E-009  0.1127951E+03  0.7561462E-02  0.1255480E+00
         -1   -1    0    0    0  501 -0.00000000000E+00  0.00000000000E+00  0.18703868979E+02  0.18703868979E+02  0.00000000000E+00 0.  1.
          1   -1    0    0  501    0  0.00000000000E+00 -0.00000000000E+00 -0.68212766010E+03  0.68212766010E+03  0.00000000000E+00 0. -1.
         25    2    1    2    0    0 -0.28096515807E+02  0.15905750765E+02 -0.39031662795E+03  0.41114129697E+03  0.12509072274E+03 0.  0.
          5    1    3    3  502    0 -0.20769754886E+02 -0.54294224426E+02 -0.16493077114E+03  0.17492534748E+03  0.41800000000E+01 0.  1.
         -5    1    3    3    0  502 -0.73267609208E+01  0.70199975191E+02 -0.22538585682E+03  0.23621594949E+03  0.41800000000E+01 0.  1.
        -11    1    1    2    0    0  0.54595665676E+02 -0.34181916028E+02 -0.18100078154E+03  0.19212072509E+03  0.00000000000E+00 0.  1.
         11    1    1    2    0    0 -0.26499149869E+02  0.18276165263E+02 -0.92106381630E+02  0.97569507007E+02  0.00000000000E+00 0. -1.
</event>
<event>
 7    1  0.2666594E-009  0.1518175E+03  0.7561462E-02  0.1198257E+00
          2   -1    0    0  501    0  0.00000000000E+00  0.00000000000E+00  0.14572193461E+03  0.14572193461E+03  0.00000000000E+00 0. -1.
         -2   -1    0    0    0  501 -0.00000000000E+00 -0.00000000000E+00 -0.25567370832E+03  0.25567370832E+03  0.00000000000E+00 0.  1.
         25    2    1    2    0    0 -0.13911322951E+03 -0.16417705091E+02  0.21648738993E+02  0.18904109508E+03  0.12508331649E+03 0.  0.
          5    1    3    3  502    0 -0.11398688252E+03 -0.19993362754E+02 -0.39780123273E+02  0.12244457746E+03  0.41800000000E+01 0.  1.
         -5    1    3    3    0  502 -0.25126346989E+02  0.35756576625E+01  0.61428862266E+02  0.66596517627E+02  0.41800000000E+01 0.  1.
        -11    1    1    2    0    0  0.81150992174E+02 -0.31356077629E+02 -0.94941063801E+02  0.12877302796E+03  0.00000000000E+00 0.  1.
         11    1    1    2    0    0  0.57962237337E+02  0.47773782720E+02 -0.36659448895E+02  0.83581519882E+02  0.00000000000E+00 0. -1.
</event>
<event>
 7    1  0.2666594E-009  0.1194241E+03  0.7561462E-02  0.1244050E+00
         -2   -1    0    0    0  501 -0.00000000000E+00  0.00000000000E+00  0.53012262040E+02  0.53012262040E+02  0.00000000000E+00 0.  1.
          2   -1    0    0  501    0  0.00000000000E+00 -0.00000000000E+00 -0.42492632546E+03  0.42492632546E+03  0.00000000000E+00 0. -1.
         25    2    1    2    0    0 -0.80229138429E+02  0.65115697385E+02 -0.20495048850E+03  0.26139829769E+03  0.12509036175E+03 0.  0.
          5    1    3    3  502    0 -0.55819313187E+02  0.63590735959E+02 -0.21762746772E+03  0.23353536034E+03  0.41800000000E+01 0. -1.
         -5    1    3    3    0  502 -0.24409825242E+02  0.15249614255E+01  0.12676979222E+02  0.27862937352E+02  0.41800000000E+01 0. -1.
        -11    1    1    2    0    0  0.53642328927E+02 -0.81880744462E+02 -0.15413631695E+03  0.18259233272E+03  0.00000000000E+00 0. -1.
         11    1    1    2    0    0  0.26586809502E+02  0.16765047077E+02 -0.12827257974E+02  0.33947957083E+02  0.00000000000E+00 0.  1.
</event>
<event>
 7    1  0.2666594E-009  0.1081559E+03  0.7561462E-02  0.1264023E+00
          1   -1    0    0  501    0  0.00000000000E+00  0.00000000000E+00  0.25801940951E+03  0.25801940951E+03  0.00000000000E+00 0. -1.
         -1   -1    0    0    0  501 -0.00000000000E+00 -0.00000000000E+00 -0.62517199719E+02  0.62517199719E+02  0.00000000000E+00 0.  1.
         25    2    1    2    0    0 -0.13633950707E+02  0.74021825621E+02  0.15332771377E+03  0.21171223831E+03  0.12509024247E+03 0.  0.
          5    1    3    3  502    0 -0.82847615459E+01 -0.25578011367E+02 -0.17658482925E+01  0.27266509853E+02  0.41800000000E+01 0. -1.
         -5    1    3    3    0  502 -0.53491891608E+01  0.99599836988E+02  0.15509356206E+03  0.18444572845E+03  0.41800000000E+01 0. -1.
        -11    1    1    2    0    0  0.30720162942E+02 -0.59010222449E+02  0.69425290874E+01  0.66888963775E+02  0.00000000000E+00 0.  1.
         11    1    1    2    0    0 -0.17086212236E+02 -0.15011603172E+02  0.35231966936E+02  0.41935407146E+02  0.00000000000E+00 0. -1.
</event>
<event>
 7    1  0.2666594E-009  0.9220588E+02  0.7561462E-02  0.1297596E+00
          4   -1    0    0  501    0  0.00000000000E+00  0.00000000000E+00  0.20895073827E+03  0.20895073827E+03  0.00000000000E+00 0. -1.
         -4   -1    0    0    0  501 -0.00000000000E+00 -0.00000000000E+00 -0.71411117761E+02  0.71411117761E+02  0.00000000000E+00 0.  1.
         25    2    1    2    0    0 -0.69472020888E+00 -0.52959404995E+02  0.94123801722E+02  0.16526062068E+03  0.12508637608E+03 0.  0.
          5    1    3    3  502    0 -0.27809995671E+02  0.14273719296E+02 -0.14411203940E+02  0.34674055442E+02  0.41800000000E+01 0.  1.
         -5    1    3    3    0  502  0.27115275462E+02 -0.67233124291E+02  0.10853500566E+03  0.13058656523E+03  0.41800000000E+01 0.  1.
        -11    1    1    2    0    0 -0.28403129966E+02  0.38284146076E+02 -0.13474708728E+02  0.49537676651E+02  0.00000000000E+00 0.  1.
         11    1    1    2    0    0  0.29097850175E+02  0.14675258919E+02  0.56890527516E+02  0.65563558706E+02  0.00000000000E+00 0. -1.
</event>
<event>
 7    1  0.2666594E-009  0.1114452E+03  0.7561462E-02  0.1257917E+00
          1   -1    0    0  501    0  0.00000000000E+00  0.00000000000E+00  0.69655158812E+03  0.69655158812E+03  0.00000000000E+00 0. -1.
         -1   -1    0    0    0  501 -0.00000000000E+00 -0.00000000000E+00 -0.29522193896E+02  0.29522193896E+02  0.00000000000E+00 0.  1.
         25    2    1    2    0    0  0.32980097189E+01 -0.85066175060E+02  0.26889853359E+03  0.30854642228E+03  0.12508933739E+03 0.  0.
          5    1    3    3  502    0  0.18434437588E+02 -0.30464766304E+00 -0.64847294647E+01  0.19986130581E+02  0.41800000000E+01 0.  1.
         -5    1    3    3    0  502 -0.15136427869E+02 -0.84761527397E+02  0.27538326305E+03  0.28856029170E+03  0.41800000000E+01 0.  1.
        -11    1    1    2    0    0  0.29531904915E+02  0.79074817849E+02  0.34166152848E+03  0.35193402829E+03  0.00000000000E+00 0. -1.
         11    1    1    2    0    0 -0.32829914634E+02  0.59913572112E+01  0.56469332159E+02  0.65593331449E+02  0.00000000000E+00 0.  1.
</event>
<event>
 7    1  0.2666594E-009  0.2246149E+03  0.7561462E-02  0.1130489E+00
          1   -1    0    0  501    0  0.00000000000E+00  0.00000000000E+00  0.21831986578E+03  0.21831986578E+03  0.00000000000E+00 0. -1.
         -1   -1    0    0    0  501 -0.00000000000E+00 -0.00000000000E+00 -0.25026765257E+03  0.25026765257E+03  0.00000000000E+00 0.  1.
         25    2    1    2    0    0  0.19280358850E+03  0.66242648574E+02 -0.49004573497E+02  0.24415192147E+03  0.12508956913E+03 0.  0.
          5    1    3    3  502    0  0.20273344863E+03  0.70690940742E+02 -0.64993767521E+02  0.22436515441E+03  0.41800000000E+01 0.  1.
         -5    1    3    3    0  502 -0.99298601255E+01 -0.44482921672E+01  0.15989194024E+02  0.19786767064E+02  0.41800000000E+01 0.  1.
        -11    1    1    2    0    0 -0.53513624125E+02 -0.64127124259E+02  0.16456834314E+02  0.85128276315E+02  0.00000000000E+00 0.  1.
         11    1    1    2    0    0 -0.13928996438E+03 -0.21155243156E+01  0.59995239054E+00  0.13930732056E+03  0.00000000000E+00 0. -1.
</event>
<event>
 7    1  0.2666594E-009  0.1135748E+03  0.7561462E-02  0.1254089E+00
         -2   -1    0    0    0  501 -0.00000000000E+00  0.00000000000E+00  0.86400246458E+02  0.86400246458E+02  0.00000000000E+00 0.  1.
          2   -1    0    0  501    0  0.00000000000E+00 -0.00000000000E+00 -0.21245095290E+03  0.21245095290E+03  0.00000000000E+00 0. -1.
         25    2    1    2    0    0  0.76287921709E+02 -0.18869707050E+02 -0.88861437723E+02  0.17239309553E+03  0.12508841446E+03 0.  0.
          5    1    3    3  502    0  0.85980092378E+02 -0.60211963896E+02 -0.62396886663E+02  0.12218388088E+03  0.41800000000E+01 0. -1.
         -5    1    3    3    0  502 -0.96921706689E+01  0.41342256847E+02 -0.26464551060E+02  0.50209214655E+02  0.41800000000E+01 0. -1.
        -11    1    1    2    0    0 -0.22253593650E+02  0.17517932605E+00  0.30561204123E+02  0.37805294809E+02  0.00000000000E+00 0.  1.
         11    1    1    2    0    0 -0.54034328060E+02  0.18694527724E+02 -0.67750472838E+02  0.88652809010E+02  0.00000000000E+00 0. -1.
</event>
<event>
 7    1  0.2666594E-009  0.1206417E+03  0.7561462E-02  0.1242042E+00
          2   -1    0    0  501    0  0.00000000000E+00  0.00000000000E+00  0.67319732239E+03  0.67319732239E+03  0.00000000000E+00 0. -1.
         -2   -1    0    0    0  501 -0.00000000000E+00 -0.00000000000E+00 -0.22346300644E+02  0.22346300644E+02  0.00000000000E+00 0.  1.
         25    2    1    2    0    0 -0.36603145600E+02  0.42115254862E+02  0.34500562422E+03  0.37120114993E+03  0.12509167839E+03 0.  0.
          5    1    3    3  502    0  0.27831496197E+02 -0.27064627250E+02  0.14116507408E+03  0.14646547979E+03  0.41800000000E+01 0. -1.
         -5    1    3    3    0  502 -0.64434641797E+02  0.69179882112E+02  0.20384055014E+03  0.22473567014E+03  0.41800000000E+01 0. -1.
        -11    1    1    2    0    0  0.18177531407E+02  0.28954112068E+02  0.10986158792E+03  0.11505794955E+03  0.00000000000E+00 0.  1.
         11    1    1    2    0    0  0.18425614193E+02 -0.71069366931E+02  0.19598380961E+03  0.20928452356E+03  0.00000000000E+00 0. -1.
</event>
<event>
 7    1  0.2666594E-009  0.9453520E+02  0.7561462E-02  0.1292226E+00
          3   -1    0    0  501    0  0.00000000000E+00  0.00000000000E+00  0.50377026108E+02  0.50377026108E+02  0.00000000000E+00 0. -1.
         -3   -1    0    0    0  501 -0.00000000000E+00 -0.00000000000E+00 -0.36786002508E+03  0.36786002508E+03  0.00000000000E+00 0.  1.
         25    2    1    2    0    0 -0.40000955782E+02 -0.19622333278E+02 -0.71002859682E+02  0.15057575447E+03  0.12508612763E+03 0.  0.
          5    1    3    3  502    0 -0.75859929487E+02  0.89440929005E+01 -0.14788364960E+02  0.77915940846E+02  0.41800000000E+01 0.  1.
         -5    1    3    3    0  502  0.35858973706E+02 -0.28566426179E+02 -0.56214494721E+02  0.72659813629E+02  0.41800000000E+01 0.  1.
        -11    1    1    2    0    0  0.49588519366E+02  0.61066352750E+01 -0.24606389198E+03  0.25108514728E+03  0.00000000000E+00 0.  1.
         11    1    1    2    0    0 -0.95875635846E+01  0.13515698003E+02 -0.41624730179E+00  0.16576149427E+02  0.00000000000E+00 0. -1.
</event>
<event>
 7    1  0.2666594E-009  0.1053877E+03  0.7561462E-02  0.1269358E+00
         -2   -1    0    0    0  501 -0.00000000000E+00  0.00000000000E+00  0.27219008023E+02  0.27219008023E+02  0.00000000000E+00 0.  1.
          2   -1    0    0  501    0  0.00000000000E+00 -0.00000000000E+00 -0.61966967355E+03  0.61966967355E+03  0.00000000000E+00 0. -1.
         25    2    1    2    0    0  0.14729390562E+02 -0.62284750471E+02 -0.34214095769E+03  0.36987124729E+03  0.12509180453E+03 0.  0.
          5    1    3    3  502    0  0.35794734662E+02 -0.74399386217E+02 -0.11629536774E+03  0.14268362435E+03  0.41800000000E+01 0.  1.
         -5    1    3    3    0  502 -0.21065344099E+02  0.12114635747E+02 -0.22584558995E+03  0.22718762295E+03  0.41800000000E+01 0.  1.
        -11    1    1    2    0    0  0.31167401199E+02  0.44277367621E+02 -0.19742397181E+03  0.20471472059E+03  0.00000000000E+00 0. -1.
         11    1    1    2    0    0 -0.45896791762E+02  0.18007382849E+02 -0.52885736020E+02  0.72302713680E+02  0.00000000000E+00 0.  1.
</event>
<event>
 7    1  0.2666594E-009  0.7539045E+02  0.7561462E-02  0.1342666E+00
          2   -1    0    0  501    0  0.00000000000E+00  0.00000000000E+00  0.67928354587E+02  0.67928354587E+02  0.00000000000E+00 0.  1.
         -2   -1    0    0    0  501 -0.00000000000E+00 -0.00000000000E+00 -0.20200482653E+03  0.20200482653E+03  0.00000000000E+00 0. -1.
         25    2    1    2    0    0  0.17884741799E+02 -0.36307275118E+02 -0.54270522390E+02  0.14223395595E+03  0.12508847432E+03 0.  0.
          5    1    3    3  502    0 -0.23084815950E+02 -0.87762948953E+01  0.33272632319E+02  0.41646999183E+02  0.41800000000E+01 0. -1.
         -5    1    3    3    0  502  0.40969557750E+02 -0.27530980223E+02 -0.87543154709E+02  0.10058695676E+03  0.41800000000E+01 0. -1.
        -11    1    1    2    0    0  0.23919843562E+02  0.62975994107E+01 -0.71391603863E+02  0.75555143945E+02  0.00000000000E+00 0. -1.
         11    1    1    2    0    0 -0.41804585361E+02  0.30009675707E+02 -0.84143456869E+01  0.52144081223E+02  0.00000000000E+00 0.  1.
</event>
<event>
 7    1  0.2666594E-009  0.2050060E+03  0.7561462E-02  0.1145583E+00
          1   -1    0    0  501    0  0.00000000000E+00  0.00000000000E+00  0.11995272284E+03  0.11995272284E+03  0.00000000000E+00 0.  1.
         -1   -1    0    0    0  501 -0.00000000000E+00 -0.00000000000E+00 -0.82299428158E+03  0.82299428158E+03  0.00000000000E+00 0. -1.
         25    2    1    2    0    0 -0.69715889069E+02  0.16689776130E+03 -0.93042569742E+01  0.22011149905E+03  0.12508930770E+03 0.  0.
          5    1    3    3  502    0  0.26491249467E+02  0.92387307218E+02  0.10427476217E+02  0.96764691358E+02  0.41800000000E+01 0. -1.
         -5    1    3    3    0  502 -0.96207138536E+02  0.74510454087E+02 -0.19731733191E+02  0.12334680769E+03  0.41800000000E+01 0. -1.
        -11    1    1    2    0    0  0.25644887105E+02 -0.13558790457E+03 -0.37578429285E+03  0.40031934110E+03  0.00000000000E+00 0.  1.
         11    1    1    2    0    0  0.44071001964E+02 -0.31309856730E+02 -0.31795300891E+03  0.32251616427E+03  0.00000000000E+00 0. -1.
</event>
<event>
 7    1  0.2666594E-009  0.1559490E+03  0.7561462E-02  0.1193348E+00
         -2   -1    0    0    0  501 -0.00000000000E+00  0.00000000000E+00  0.54428320079E+02  0.54428320079E+02  0.00000000000E+00 0.  1.
          2   -1    0    0  501    0  0.00000000000E+00 -0.00000000000E+00 -0.56917038941E+03  0.56917038941E+03  0.00000000000E+00 0. -1.
         25    2    1    2    0    0 -0.13262900663E+03  0.31173062476E+02 -0.31425046173E+03  0.36464141043E+03  0.12509113589E+03 0.  0.
          5    1    3    3  502    0 -0.51683394228E+02  0.41388316889E+02 -0.37767491167E+02  0.76341481534E+02  0.41800000000E+01 0.  1.
         -5    1    3    3    0  502 -0.80945612404E+02 -0.10215254413E+02 -0.27648297057E+03  0.28829992890E+03  0.41800000000E+01 0.  1.
        -11    1    1    2    0    0  0.86553766826E+02 -0.63692695135E+02 -0.13411257938E+03  0.17185603834E+03  0.00000000000E+00 0.  1.
         11    1    1    2    0    0  0.46075239805E+02  0.32519632659E+02 -0.66379028222E+02  0.87101260720E+02  0.00000000000E+00 0. -1.
</event>
<event>
 7    1  0.2666594E-009  0.1079424E+03  0.7561462E-02  0.1264428E+00
          2   -1    0    0  501    0  0.00000000000E+00  0.00000000000E+00  0.29244761190E+03  0.29244761190E+03  0.00000000000E+00 0.  1.
         -2   -1    0    0    0  501 -0.00000000000E+00 -0.00000000000E+00 -0.48668432524E+02  0.48668432524E+02  0.00000000000E+00 0. -1.
         25    2    1    2    0    0  0.18040155501E+02  0.46695643072E+02  0.13577862495E+03  0.19128305194E+03  0.12508973049E+03 0.  0.
          5    1    3    3  502    0  0.66143477264E+02  0.14633086559E+01  0.50428672415E+02  0.83292402164E+02  0.41800000000E+01 0.  1.
         -5    1    3    3    0  502 -0.48103321763E+02  0.45232334416E+02  0.85349952533E+02  0.10799064977E+03  0.41800000000E+01 0.  1.
        -11    1    1    2    0    0  0.26545647037E+01  0.16614348554E+02  0.72360243748E+02  0.74290565800E+02  0.00000000000E+00 0.  1.
         11    1    1    2    0    0 -0.20694720205E+02 -0.63309991626E+02  0.35640310681E+02  0.75542426685E+02  0.00000000000E+00 0. -1.
</event>
<event>
 7    1  0.2666594E-009  0.1373509E+03  0.7561462E-02  0.1216939E+00
          2   -1    0    0  501    0  0.00000000000E+00  0.00000000000E+00  0.23698237567E+03  0.23698237567E+03  0.00000000000E+00 0. -1.
         -2   -1    0    0    0  501 -0.00000000000E+00 -0.00000000000E+00 -0.13067538742E+03  0.13067538742E+03  0.00000000000E+00 0.  1.
         25    2    1    2    0    0 -0.12141430623E+03 -0.79494825605E+01  0.12528560255E+03  0.21482221969E+03  0.12508987103E+03 0.  0.
          5    1    3    3  502    0 -0.20864542056E+02 -0.41657400709E+02  0.92644999366E+02  0.10378456753E+03  0.41800000000E+01 0.  1.
         -5    1    3    3    0  502 -0.10054976417E+03  0.33707918148E+02  0.32640603186E+02  0.11103765216E+03  0.41800000000E+01 0.  1.
        -11    1    1    2    0    0  0.82810369001E+02  0.29143426481E+01 -0.55277497486E+02  0.99607491362E+02  0.00000000000E+00 0.  1.
         11    1    1    2    0    0  0.38603937227E+02  0.50351399124E+01  0.36298883188E+02  0.53228052041E+02  0.00000000000E+00 0. -1.
</event>
<event>
 7    1  0.2666594E-009  0.1179764E+03  0.7561462E-02  0.1246473E+00
         -2   -1    0    0    0  501 -0.00000000000E+00  0.00000000000E+00  0.33188583708E+02  0.33188583708E+02  0.00000000000E+00 0.  1.
          2   -1    0    0  501    0  0.00000000000E+00 -0.00000000000E+00 -0.49724777914E+03  0.49724777914E+03  0.00000000000E+00 0. -1.
         25    2    1    2    0    0 -0.42008358242E+02 -0.56532939651E+02 -0.27457164290E+03  0.30983190036E+03  0.12508214888E+03 0.  0.
          5    1    3    3  502    0 -0.62306351456E+02 -0.85521699330E+02 -0.22611808472E+03  0.24968560857E+03  0.41800000000E+01 0. -1.
         -5    1    3    3    0  502  0.20297993214E+02  0.28988759678E+02 -0.48453558171E+02  0.60146291786E+02  0.41800000000E+01 0. -1.
        -11    1    1    2    0    0  0.42628331887E+02  0.50372956528E+01 -0.14910381665E+03  0.15515958613E+03  0.00000000000E+00 0.  1.
         11    1    1    2    0    0 -0.61997364504E+00  0.51495643999E+02 -0.40383735882E+02  0.65444876361E+02  0.00000000000E+00 0. -1.
</event>
<event>
 7    1  0.2666594E-009  0.1542106E+03  0.7561462E-02  0.1195392E+00
         -2   -1    0    0    0  501 -0.00000000000E+00  0.00000000000E+00  0.68876075245E+02  0.68876075245E+02  0.00000000000E+00 0.  1.
          2   -1    0    0  501    0  0.00000000000E+00 -0.00000000000E+00 -0.52155710159E+03  0.52155710159E+03  0.00000000000E+00 0. -1.
         25    2    1    2    0    0  0.42804743216E+02  0.13969340294E+03 -0.31692641258E+03  0.37072469306E+03  0.12509178305E+03 0.  0.
          5    1    3    3  502    0  0.55404291117E+02  0.65537255149E+02 -0.64891268547E+02  0.10767133518E+03  0.41800000000E+01 0. -1.
         -5    1    3    3    0  502 -0.12599547901E+02  0.74156147789E+02 -0.25203514403E+03  0.26305335787E+03  0.41800000000E+01 0. -1.
        -11    1    1    2    0    0 -0.29837591732E+02 -0.67257735063E+02 -0.10344177172E+02  0.74302670259E+02  0.00000000000E+00 0.  1.
         11    1    1    2    0    0 -0.12967151484E+02 -0.72435667875E+02 -0.12541043660E+03  0.14540581352E+03  0.00000000000E+00 0. -1.
</event>
<event>
 7    1  0.2666594E-009  0.1169543E+03  0.7561462E-02  0.1248208E+00
          2   -1    0    0  501    0  0.00000000000E+00  0.00000000000E+00  0.47980642538E+03  0.47980642538E+03  0.00000000000E+00 0.  1.
         -2   -1    0    0    0  501 -0.00000000000E+00 -0.00000000000E+00 -0.29205242519E+02  0.29205242519E+02  0.00000000000E+00 0. -1.
         25    2    1    2    0    0 -0.44026965981E+02 -0.78269828627E+01  0.27148983290E+03  0.30224713202E+03  0.12508782536E+03 0.  0.
          5    1    3    3  502    0 -0.17120429363E+02  0.57850078735E+02  0.10423165543E+03  0.12050498373E+03  0.41800000000E+01 0. -1.
         -5    1    3    3    0  502 -0.26906536618E+02 -0.65677061598E+02  0.16725817747E+03  0.18174214829E+03  0.41800000000E+01 0. -1.
        -11    1    1    2    0    0 -0.17933990710E+02  0.31303229201E+02  0.77102829750E+02  0.85125592725E+02  0.00000000000E+00 0. -1.
         11    1    1    2    0    0  0.61960956691E+02 -0.23476246339E+02  0.10200852021E+03  0.12163894315E+03  0.00000000000E+00 0.  1.
</event>
<event>
 7    1  0.2666594E-009  0.1161476E+03  0.7561462E-02  0.1249591E+00
          1   -1    0    0  501    0  0.00000000000E+00  0.00000000000E+00  0.86062261055E+02  0.86062261055E+02  0.00000000000E+00 0. -1.
         -1   -1    0    0    0  501 -0.00000000000E+00 -0.00000000000E+00 -0.18440953665E+03  0.18440953665E+03  0.00000000000E+00 0.  1.
         25    2    1    2    0    0 -0.51204229383E+02 -0.36889463367E+02 -0.24393661745E+02  0.14221522247E+03  0.12508962049E+03 0.  0.
          5    1    3    3  502    0 -0.90302619366E+02 -0.13539404517E+02 -0.23249337702E+01  0.91437171086E+02  0.41800000000E+01 0.  1.
         -5    1    3    3    0  502  0.39098389983E+02 -0.23350058850E+02 -0.22068727975E+02  0.50778051380E+02  0.41800000000E+01 0.  1.
        -11    1    1    2    0    0 -0.17292281364E+02 -0.13608886533E+00 -0.39483990433E+02  0.43104837495E+02  0.00000000000E+00 0.  1.
         11    1    1    2    0    0  0.68496510747E+02  0.37025552232E+02 -0.34469623421E+02  0.85151737747E+02  0.00000000000E+00 0. -1.
</event>
<event>
 7    1  0.2666594E-009  0.1212587E+03  0.7561462E-02  0.1241035E+00
         -2   -1    0    0    0  501 -0.00000000000E+00  0.00000000000E+00  0.96542752204E+02  0.96542752204E+02  0.00000000000E+00 0.  1.
          2   -1    0    0  501    0  0.00000000000E+00 -0.00000000000E+00 -0.21278798550E+03  0.21278798550E+03  0.00000000000E+00 0. -1.
         25    2    1    2    0    0  0.36835873701E+02 -0.72649512997E+02 -0.10726295264E+02  0.14965200666E+03  0.12508331767E+03 0.  0.
          5    1    3    3  502    0 -0.28500729765E+02 -0.70884188147E+02  0.17248496615E+02  0.78433683847E+02  0.41800000000E+01 0.  1.
         -5    1    3    3    0  502  0.65336603465E+02 -0.17653248506E+01 -0.27974791880E+02  0.71218322818E+02  0.41800000000E+01 0.  1.
        -11    1    1    2    0    0  0.51085091032E+01  0.54613709964E+02 -0.99511078437E+02  0.11362750069E+03  0.00000000000E+00 0. -1.
         11    1    1    2    0    0 -0.41944382804E+02  0.18035803033E+02 -0.60078595962E+01  0.46051230350E+02  0.00000000000E+00 0.  1.
</event>
<event>
 7    1  0.2666594E-009  0.1185218E+03  0.7561462E-02  0.1245556E+00
          2   -1    0    0  501    0  0.00000000000E+00  0.00000000000E+00  0.10487763503E+04  0.10487763503E+04  0.00000000000E+00 0. -1.
         -2   -1    0    0    0  501 -0.00000000000E+00 -0.00000000000E+00 -0.94595123643E+02  0.94595123643E+02  0.00000000000E+00 0.  1.
         25    2    1    2    0    0  0.23267224869E+02  0.63643887088E+02  0.10064008572E+04  0.10164063357E+04  0.12508895192E+03 0.  0.
          5    1    3    3  502    0  0.10939845662E+02  0.10083355776E+03  0.78366392593E+03  0.79021117924E+03  0.41800000000E+01 0.  1.
         -5    1    3    3    0  502  0.12327379208E+02 -0.37189670673E+02  0.22273693122E+03  0.22619515648E+03  0.41800000000E+01 0.  1.
        -11    1    1    2    0    0 -0.44680593285E+02 -0.23146242578E+02  0.83650616454E+01  0.51010569671E+02  0.00000000000E+00 0. -1.
         11    1    1    2    0    0  0.21413368416E+02 -0.40497644510E+02 -0.60584692158E+02  0.75954568537E+02  0.00000000000E+00 0.  1.
</event>
<event>
 7    1  0.2666594E-009  0.1724174E+03  0.7561462E-02  0.1175350E+00
          2   -1    0    0  501    0  0.00000000000E+00  0.00000000000E+00  0.20389764169E+03  0.20389764169E+03  0.00000000000E+00 0. -1.
         -2   -1    0    0    0  501 -0.00000000000E+00 -0.00000000000E+00 -0.16054875190E+03  0.16054875190E+03  0.00000000000E+00 0.  1.
         25    2    1    2    0    0  0.98860925252E+02 -0.10360094796E+03  0.40989539365E+02  0.19450712877E+03  0.12508493851E+03 0.  0.
          5    1    3    3  502    0  0.10915908345E+03 -0.49471671904E+02 -0.86444093124E+01  0.12023040394E+03  0.41800000000E+01 0. -1.
         -5    1    3    3    0  502 -0.10298158196E+02 -0.54129276060E+02  0.49633948677E+02  0.74276724822E+02  0.41800000000E+01 0. -1.
        -11    1    1    2    0    0 -0.68281418207E+02  0.11763106504E+03 -0.19029339897E+01  0.13602588244E+03  0.00000000000E+00 0. -1.
         11    1    1    2    0    0 -0.30579507045E+02 -0.14030117079E+02  0.42622844165E+01  0.33913382386E+02  0.00000000000E+00 0.  1.
</event>
<event>
 7    1  0.2666594E-009  0.2078496E+03  0.7561462E-02  0.1143280E+00
          4   -1    0    0  501    0  0.00000000000E+00  0.00000000000E+00  0.58096541806E+03  0.58096541806E+03  0.00000000000E+00 0. -1.
         -4   -1    0    0    0  501 -0.00000000000E+00 -0.00000000000E+00 -0.77214066778E+02  0.77214066778E+02  0.00000000000E+00 0.  1.
         25    2    1    2    0    0  0.17974361709E+03 -0.20076212358E+02  0.25861280716E+03  0.33946889087E+03  0.12509085358E+03 0.  0.
          5    1    3    3  502    0  0.19878443744E+03 -0.15038362463E+02  0.22879654712E+03  0.30349091797E+03  0.41800000000E+01 0. -1.
         -5    1    3    3    0  502 -0.19040820349E+02 -0.50378498952E+01  0.29816260044E+02  0.35977972902E+02  0.41800000000E+01 0. -1.
        -11    1    1    2    0    0 -0.32230759387E+02  0.35384588475E+02  0.10164235176E+03  0.11234793556E+03  0.00000000000E+00 0. -1.
         11    1    1    2    0    0 -0.14751285770E+03 -0.15308376116E+02  0.14349619236E+03  0.20636265842E+03  0.00000000000E+00 0.  1.
</event>
<event>
 7    1  0.2666594E-009  0.9750334E+02  0.7561462E-02  0.1285635E+00
         -1   -1    0    0    0  501 -0.00000000000E+00  0.00000000000E+00  0.67627515031E+02  0.67627515031E+02  0.00000000000E+00 0.  1.
          1   -1    0    0  501    0  0.00000000000E+00 -0.00000000000E+00 -0.27061427718E+03  0.27061427718E+03  0.00000000000E+00 0. -1.
         25    2    1    2    0    0 -0.41025715949E+02 -0.11234421990E+02 -0.25595494436E+02  0.13458064863E+03  0.12508996780E+03 0.  0.
          5    1    3    3  502    0 -0.18596560632E+02 -0.67774401975E+02 -0.65608226096E+01  0.70708687045E+02  0.41800000000E+01 0. -1.
         -5    1    3    3    0  502 -0.22429155317E+02  0.56539979985E+02 -0.19034671826E+02  0.63871961583E+02  0.41800000000E+01 0. -1.
        -11    1    1    2    0    0  0.20163996854E+02  0.29616038618E+02 -0.14892152277E+02  0.38800421543E+02  0.00000000000E+00 0.  1.
         11    1    1    2    0    0  0.20861719095E+02 -0.18381616628E+02 -0.16249911543E+03  0.16486072204E+03  0.00000000000E+00 0. -1.
</event>
<event>
 7    1  0.2666594E-009  0.1918585E+03  0.7561462E-02  0.1156796E+00
         -2   -1    0    0    0  501 -0.00000000000E+00  0.00000000000E+00  0.22371838974E+02  0.22371838974E+02  0.00000000000E+00 0. -1.
          2   -1    0    0  501    0  0.00000000000E+00 -0.00000000000E+00 -0.17209864138E+04  0.17209864138E+04  0.00000000000E+00 0.  1.
         25    2    1    2    0    0 -0.11058571224E+03 -0.12190472816E+03 -0.89743701938E+03  0.92094081950E+03  0.12509527080E+03 0.  0.
          5    1    3    3  502    0 -0.11179891819E+03 -0.40394827441E+02 -0.41756114587E+03  0.43417222750E+03  0.41800000000E+01 0.  1.
         -5    1    3    3    0  502  0.12132059498E+01 -0.81509900719E+02 -0.47987587351E+03  0.48676859200E+03  0.41800000000E+01 0.  1.
        -11    1    1    2    0    0  0.65517679978E+02  0.12154088911E+03 -0.53959978659E+03  0.55698535331E+03  0.00000000000E+00 0. -1.
         11    1    1    2    0    0  0.45068032266E+02  0.36383904842E+00 -0.26157776891E+03  0.26543208001E+03  0.00000000000E+00 0.  1.
</event>
<event>
 7    1  0.2666594E-009  0.1035763E+03  0.7561462E-02  0.1272950E+00
         -4   -1    0    0    0  501 -0.00000000000E+00  0.00000000000E+00  0.22422371554E+03  0.22422371554E+03  0.00000000000E+00 0.  1.
          4   -1    0    0  501    0  0.00000000000E+00 -0.00000000000E+00 -0.67086109926E+02  0.67086109926E+02  0.00000000000E+00 0. -1.
         25    2    1    2    0    0 -0.32238501387E+02 -0.74965174383E+01  0.39459503906E+02  0.13527805463E+03  0.12509029088E+03 0.  0.
          5    1    3    3  502    0  0.86978041228E+01  0.41491772897E+02  0.54875547251E+02  0.69469540813E+02  0.41800000000E+01 0. -1.
         -5    1    3    3    0  502 -0.40936305509E+02 -0.48988290335E+02 -0.15416043346E+02  0.65808513820E+02  0.41800000000E+01 0. -1.
        -11    1    1    2    0    0  0.48615624067E+02 -0.31739468186E+02  0.82315498058E+02  0.10073089876E+03  0.00000000000E+00 0.  1.
         11    1    1    2    0    0 -0.16377122681E+02  0.39235985624E+02  0.35362603651E+02  0.55300872075E+02  0.00000000000E+00 0. -1.
</event>
<event>
 7    1  0.2666594E-009  0.9662200E+02  0.7561462E-02  0.1287564E+00
          1   -1    0    0  501    0  0.00000000000E+00  0.00000000000E+00  0.61565646940E+03  0.61565646940E+03  0.00000000000E+00 0. -1.
         -1   -1    0    0    0  501 -0.00000000000E+00 -0.00000000000E+00 -0.25219130082E+02  0.25219130082E+02  0.00000000000E+00 0.  1.
         25    2    1    2    0    0  0.33300727152E+02  0.40092946425E+02  0.45158547508E+03  0.47147904094E+03  0.12508661783E+03 0.  0.
          5    1    3    3  502    0  0.18886715912E+02 -0.40512691295E+02  0.88314183388E+02  0.99069942876E+02  0.41800000000E+01 0. -1.
         -5    1    3    3    0  502  0.14414011240E+02  0.80605637720E+02  0.36327129169E+03  0.37240909806E+03  0.41800000000E+01 0. -1.
        -11    1    1    2    0    0 -0.20401620692E+02  0.36751045137E+01 -0.24834399079E+01  0.20878218167E+02  0.00000000000E+00 0.  1.
         11    1    1    2    0    0 -0.12899106459E+02 -0.43768050938E+02  0.14133530415E+03  0.14851834038E+03  0.00000000000E+00 0. -1.
</event>
<event>
 7    1  0.2666594E-009  0.1100882E+03  0.7561462E-02  0.1260407E+00
          2   -1    0    0  501    0  0.00000000000E+00  0.00000000000E+00  0.11021434927E+04  0.11021434927E+04  0.00000000000E+00 0. -1.
         -2   -1    0    0    0  501 -0.00000000000E+00 -0.00000000000E+00 -0.11685402062E+02  0.11685402062E+02  0.00000000000E+00 0.  1.
         25    2    1    2    0    0  0.32565841570E+02  0.38902195785E+01  0.67547753240E+03  0.68774516715E+03  0.12509136782E+03 0.  0.
          5    1    3    3  502    0  0.68867781392E+02 -0.30794915656E+02  0.47839874105E+03  0.48432832457E+03  0.41800000000E+01 0.  1.
         -5    1    3    3    0  502 -0.36301939822E+02  0.34685135234E+02  0.19707879136E+03  0.20341684258E+03  0.41800000000E+01 0.  1.
        -11    1    1    2    0    0 -0.22735508928E+02  0.41757153220E+02  0.16212364710E+03  0.16895159118E+03  0.00000000000E+00 0. -1.
         11    1    1    2    0    0 -0.98303326427E+01 -0.45647372799E+02  0.25285691109E+03  0.25713213640E+03  0.00000000000E+00 0.  1.
</event>
<event>
 7    1  0.2666594E-009  0.9245551E+02  0.7561462E-02  0.1297012E+00
          1   -1    0    0  501    0  0.00000000000E+00  0.00000000000E+00  0.76537751347E+03  0.76537751347E+03  0.00000000000E+00 0. -1.
         -1   -1    0    0    0  501 -0.00000000000E+00 -0.00000000000E+00 -0.20691884348E+02  0.20691884348E+02  0.00000000000E+00 0.  1.
         25    2    1    2    0    0  0.32284103744E+02 -0.37307143866E+02  0.52446476471E+03  0.54142869713E+03  0.12509060043E+03 0.  0.
          5    1    3    3  502    0  0.50466131495E+02 -0.11100399962E+02  0.77096268425E+02  0.92905093038E+02  0.41800000000E+01 0.  1.
         -5    1    3    3    0  502 -0.18182027751E+02 -0.26206743904E+02  0.44736849628E+03  0.44852360409E+03  0.41800000000E+01 0.  1.
        -11    1    1    2    0    0 -0.61806749790E+02  0.14217201387E+02  0.17360222911E+03  0.18482407064E+03  0.00000000000E+00 0.  1.
         11    1    1    2    0    0  0.29522646046E+02  0.23089942479E+02  0.46618635297E+02  0.59816630047E+02  0.00000000000E+00 0. -1.
</event>
<event>
 7    1  0.2666594E-009  0.2378753E+03  0.7561462E-02  0.1121216E+00
          2   -1    0    0  501    0  0.00000000000E+00  0.00000000000E+00  0.53345376249E+03  0.53345376249E+03  0.00000000000E+00 0. -1.
         -2   -1    0    0    0  501 -0.00000000000E+00 -0.00000000000E+00 -0.12796000198E+03  0.12796000198E+03  0.00000000000E+00 0.  1.
         25    2    1    2    0    0  0.41737793378E+01 -0.21108290111E+03  0.34450850727E+03  0.42297479907E+03  0.12509259568E+03 0.  0.
          5    1    3    3  502    0  0.44802826356E+02 -0.18698503218E+02  0.67967494799E+02  0.83630018662E+02  0.41800000000E+01 0. -1.
         -5    1    3    3    0  502 -0.40629047018E+02 -0.19238439789E+03  0.27654101247E+03  0.33934478041E+03  0.41800000000E+01 0. -1.
        -11    1    1    2    0    0 -0.47916449783E+02  0.97564810004E+02  0.33177650834E+02  0.11364697456E+03  0.00000000000E+00 0.  1.
         11    1    1    2    0    0  0.43742670445E+02  0.11351809110E+03  0.27807602406E+02  0.12479199084E+03  0.00000000000E+00 0. -1.
</event>
<event>
 7    1  0.2666594E-009  0.3564137E+03  0.7561462E-02  0.1060013E+00
          1   -1    0    0  501    0  0.00000000000E+00  0.00000000000E+00  0.42115015498E+03  0.42115015498E+03  0.00000000000E+00 0. -1.
         -1   -1    0    0    0  501 -0.00000000000E+00 -0.00000000000E+00 -0.36000953969E+03  0.36000953969E+03  0.00000000000E+00 0.  1.
         25    2    1    2    0    0 -0.34181981557E+03 -0.76884718094E+02  0.16127741795E+03  0.40547524260E+03  0.12509084950E+03 0.  0.
          5    1    3    3  502    0 -0.21543763579E+03 -0.63757938908E+02  0.16419815257E+03  0.27831089701E+03  0.41800000000E+01 0.  1.
         -5    1    3    3    0  502 -0.12638217978E+03 -0.13126779186E+02 -0.29207346241E+01  0.12716434559E+03  0.41800000000E+01 0.  1.
        -11    1    1    2    0    0  0.21538920251E+03  0.90887430367E+02 -0.50716951452E+02  0.23921798160E+03  0.00000000000E+00 0.  1.
         11    1    1    2    0    0  0.12643061306E+03 -0.14002712273E+02 -0.49419851200E+02  0.13646647047E+03  0.00000000000E+00 0. -1.
</event>
<event>
 7    1  0.2666594E-009  0.1374711E+03  0.7561462E-02  0.1216773E+00
          2   -1    0    0  501    0  0.00000000000E+00  0.00000000000E+00  0.46004706103E+03  0.46004706103E+03  0.00000000000E+00 0. -1.
         -2   -1    0    0    0  501 -0.00000000000E+00 -0.00000000000E+00 -0.62789747525E+02  0.62789747525E+02  0.00000000000E+00 0.  1.
         25    2    1    2    0    0 -0.82439414620E+02  0.45151987251E+02  0.34813445865E+03  0.38168006324E+03  0.12508841010E+03 0.  0.
          5    1    3    3  502    0 -0.28136919924E+02  0.76153237329E+02  0.26736179884E+03  0.27944732186E+03  0.41800000000E+01 0.  1.
         -5    1    3    3    0  502 -0.54302494696E+02 -0.31001250078E+02  0.80772659818E+02  0.10223274138E+03  0.41800000000E+01 0.  1.
        -11    1    1    2    0    0  0.60262078496E+02  0.18934025364E+02  0.33764918718E+02  0.71624612789E+02  0.00000000000E+00 0.  1.
         11    1    1    2    0    0  0.22177336124E+02 -0.64086012615E+02  0.15357936129E+02  0.69532132519E+02  0.00000000000E+00 0. -1.
</event>
<event>
 7    1  0.2822809E-009  0.1109552E+03  0.7561462E-02  0.1258811E+00
         -2   -1    0    0    0  501 -0.00000000000E+00  0.00000000000E+00  0.11857455384E+02  0.11857455384E+02  0.00000000000E+00 0.  1.
          2   -1    0    0  501    0  0.00000000000E+00 -0.00000000000E+00 -0.12855948945E+04  0.12855948945E+04  0.00000000000E+00 0. -1.
         25    2    1    2    0    0  0.18621247582E+02 -0.55387558209E+02 -0.78679296608E+03  0.79881483074E+03  0.12508968735E+03 0.  0.
          5    1    3    3  502    0  0.60575184099E+02 -0.45855782682E+02 -0.27913028947E+03  0.28931522019E+03  0.41800000000E+01 0. -1.
         -5    1    3    3    0  502 -0.41953936517E+02 -0.95317755264E+01 -0.50766267661E+03  0.50949961056E+03  0.41800000000E+01 0. -1.
        -11    1    1    2    0    0  0.32041579859E+02  0.75555081177E+01 -0.94850683133E+02  0.10040119837E+03  0.00000000000E+00 0. -1.
         11    1    1    2    0    0 -0.50662827441E+02  0.47832050091E+02 -0.39209378992E+03  0.39823632079E+03  0.00000000000E+00 0.  1.
</event>
<event>
 7    1  0.2666594E-009  0.2287728E+03  0.7561462E-02  0.1127506E+00
          1   -1    0    0  501    0  0.00000000000E+00  0.00000000000E+00  0.55586731312E+03  0.55586731312E+03  0.00000000000E+00 0. -1.
         -1   -1    0    0    0  501 -0.00000000000E+00 -0.00000000000E+00 -0.10144127908E+03  0.10144127908E+03  0.00000000000E+00 0.  1.
         25    2    1    2    0    0 -0.66137686884E+02 -0.19767620950E+03  0.18526667251E+03  0.30564771725E+03  0.12508680862E+03 0.  0.
          5    1    3    3  502    0 -0.96205574026E+02 -0.98837442794E+02  0.12363708583E+03  0.18527804502E+03  0.41800000000E+01 0. -1.
         -5    1    3    3    0  502  0.30067887142E+02 -0.98838766702E+02  0.61629586682E+02  0.12036967224E+03  0.41800000000E+01 0. -1.
        -11    1    1    2    0    0  0.37101011050E+02  0.35317330924E+02  0.11502818950E+03  0.12591776389E+03  0.00000000000E+00 0.  1.
         11    1    1    2    0    0  0.29036675834E+02  0.16235887857E+03  0.15413117203E+03  0.22574311105E+03  0.00000000000E+00 0. -1.
</event>
<event>
 7    1  0.2666594E-009  0.1503509E+03  0.7561462E-02  0.1200042E+00
         -1   -1    0    0    0  501 -0.00000000000E+00  0.00000000000E+00  0.35862852681E+03  0.35862852681E+03  0.00000000000E+00 0.  1.
          1   -1    0    0  501    0  0.00000000000E+00 -0.00000000000E+00 -0.88573503027E+02  0.88573503027E+02  0.00000000000E+00 0. -1.
         25    2    1    2    0    0  0.99200743808E+02 -0.86836289309E+02  0.79137641966E+02  0.19822071261E+03  0.12508939131E+03 0.  0.
          5    1    3    3  502    0  0.28558902343E+02  0.42102389814E+01 -0.28279905582E+02  0.40627115022E+02  0.41800000000E+01 0.  1.
         -5    1    3    3    0  502  0.70641841465E+02 -0.91046528290E+02  0.10741754755E+03  0.15759359759E+03  0.41800000000E+01 0.  1.
        -11    1    1    2    0    0 -0.99521608407E+02  0.36685496045E+02  0.15271749054E+03  0.18593818348E+03  0.00000000000E+00 0.  1.
         11    1    1    2    0    0  0.32086459889E+00  0.50150793263E+02  0.38199891281E+02  0.63043133749E+02  0.00000000000E+00 0. -1.
</event>
<event>
 7    1  0.2666594E-009  0.1112987E+03  0.7561462E-02  0.1258184E+00
         -1   -1    0    0    0  501 -0.00000000000E+00  0.00000000000E+00  0.20455577501E+03  0.20455577501E+03  0.00000000000E+00 0.  1.
          1   -1    0    0  501    0  0.00000000000E+00 -0.00000000000E+00 -0.10457628290E+03  0.10457628290E+03  0.00000000000E+00 0. -1.
         25    2    1    2    0    0 -0.58989466939E+02  0.62496228606E+02  0.67336010105E+02  0.16603465000E+03  0.12509129044E+03 0.  0.
          5    1    3    3  502    0 -0.57875763230E+02  0.13624230324E+02  0.93155706766E+02  0.11059241260E+03  0.41800000000E+01 0.  1.
         -5    1    3    3    0  502 -0.11137037092E+01  0.48871998281E+02 -0.25819696662E+02  0.55442237398E+02  0.41800000000E+01 0.  1.
        -11    1    1    2    0    0  0.14841927283E+02 -0.67854104306E+02 -0.21800355842E+02  0.72799160651E+02  0.00000000000E+00 0. -1.
         11    1    1    2    0    0  0.44147539656E+02  0.53578757007E+01  0.54443837841E+02  0.70298247265E+02  0.00000000000E+00 0.  1.
</event>
<event>
 7    1  0.2666594E-009  0.8567029E+02  0.7561462E-02  0.1313689E+00
         -1   -1    0    0    0  501 -0.00000000000E+00  0.00000000000E+00  0.63429206630E+03  0.63429206630E+03  0.00000000000E+00 0.  1.
          1   -1    0    0  501    0  0.00000000000E+00 -0.00000000000E+00 -0.26298918128E+02  0.26298918128E+02  0.00000000000E+00 0. -1.
         25    2    1    2    0    0 -0.38290742986E+02 -0.28469418781E+02  0.20728011607E+03  0.24676105385E+03  0.12509709178E+03 0.  0.
          5    1    3    3  502    0  0.20084372178E+02 -0.19805221860E+02  0.17887393483E+03  0.18113250890E+03  0.41800000000E+01 0.  1.
         -5    1    3    3    0  502 -0.58375115164E+02 -0.86641969205E+01  0.28406181237E+02  0.65628544942E+02  0.41800000000E+01 0.  1.
        -11    1    1    2    0    0  0.42033162652E+02  0.47985344189E+02  0.37926077488E+03  0.38458824135E+03  0.00000000000E+00 0.  1.
         11    1    1    2    0    0 -0.37424196658E+01 -0.19515925409E+02  0.21452257223E+02  0.29241689237E+02  0.00000000000E+00 0. -1.
</event>
<event>
 7    1  0.2666594E-009  0.1259919E+03  0.7561462E-02  0.1233527E+00
          1   -1    0    0  501    0  0.00000000000E+00  0.00000000000E+00  0.60350009834E+02  0.60350009834E+02  0.00000000000E+00 0. -1.
         -1   -1    0    0    0  501 -0.00000000000E+00 -0.00000000000E+00 -0.29542197496E+03  0.29542197496E+03  0.00000000000E+00 0.  1.
         25    2    1    2    0    0 -0.61733403957E+02  0.28001275868E+02 -0.12392628333E+03  0.18868103507E+03  0.12509086571E+03 0.  0.
          5    1    3    3  502    0 -0.86352179269E+02  0.44587159823E+02 -0.50997316902E+02  0.10983129070E+03  0.41800000000E+01 0.  1.
         -5    1    3    3    0  502  0.24618775312E+02 -0.16585883954E+02 -0.72928966423E+02  0.78849744374E+02  0.41800000000E+01 0.  1.
        -11    1    1    2    0    0 -0.15563917075E+02  0.26096372788E+02 -0.25481977090E+02  0.39655861406E+02  0.00000000000E+00 0. -1.
         11    1    1    2    0    0  0.77297321032E+02 -0.54097648657E+02 -0.85663704711E+02  0.12743508831E+03  0.00000000000E+00 0.  1.
</event>
<event>
 7    1  0.2666594E-009  0.1155524E+03  0.7561462E-02  0.1250620E+00
         -2   -1    0    0    0  501 -0.00000000000E+00  0.00000000000E+00  0.28076594233E+03  0.28076594233E+03  0.00000000000E+00 0.  1.
          2   -1    0    0  501    0  0.00000000000E+00 -0.00000000000E+00 -0.73654506661E+02  0.73654506661E+02  0.00000000000E+00 0. -1.
         25    2    1    2    0    0 -0.38813827105E+02 -0.85393364110E+02  0.11320384374E+03  0.19303063258E+03  0.12508866882E+03 0.  0.
          5    1    3    3  502    0 -0.53249083981E+02 -0.80250779098E+02  0.19962510924E+02  0.98446060018E+02  0.41800000000E+01 0. -1.
         -5    1    3    3    0  502  0.14435256875E+02 -0.51425850117E+01  0.93241332815E+02  0.94584572563E+02  0.41800000000E+01 0. -1.
        -11    1    1    2    0    0 -0.92845442199E+01  0.66498569879E+02  0.86007989667E+02  0.10911295452E+03  0.00000000000E+00 0.  1.
         11    1    1    2    0    0  0.48098371325E+02  0.18894794230E+02  0.78996022592E+01  0.52276861889E+02  0.00000000000E+00 0. -1.
</event>
<event>
 7    1  0.2666594E-009  0.9242319E+02  0.7561462E-02  0.1297087E+00
          2   -1    0    0  501    0  0.00000000000E+00  0.00000000000E+00  0.42844151716E+03  0.42844151716E+03  0.00000000000E+00 0.  1.
         -2   -1    0    0    0  501 -0.00000000000E+00 -0.00000000000E+00 -0.36758243711E+02  0.36758243711E+02  0.00000000000E+00 0. -1.
         25    2    1    2    0    0  0.39482144681E+02 -0.31445366053E+02  0.16717666861E+03  0.21481089046E+03  0.12509208345E+03 0.  0.
          5    1    3    3  502    0 -0.11637310612E+02  0.35043943146E+01  0.14981130304E+03  0.15036158651E+03  0.41800000000E+01 0. -1.
         -5    1    3    3    0  502  0.51119455293E+02 -0.34949760368E+02  0.17365365563E+02  0.64449303955E+02  0.41800000000E+01 0. -1.
        -11    1    1    2    0    0 -0.18581663422E+02 -0.35351765079E+02  0.97725089465E+02  0.10557091750E+03  0.00000000000E+00 0.  1.
         11    1    1    2    0    0 -0.20900481258E+02  0.66797131132E+02  0.12678151538E+03  0.14481795291E+03  0.00000000000E+00 0. -1.
</event>
<event>
 7    1  0.2666594E-009  0.1322297E+03  0.7561462E-02  0.1224184E+00
          2   -1    0    0  501    0  0.00000000000E+00  0.00000000000E+00  0.93011565517E+03  0.93011565517E+03  0.00000000000E+00 0. -1.
         -2   -1    0    0    0  501 -0.00000000000E+00 -0.00000000000E+00 -0.19884528430E+02  0.19884528430E+02  0.00000000000E+00 0.  1.
         25    2    1    2    0    0  0.59859178463E+02  0.54842596856E+02  0.51991503068E+03  0.54087915631E+03  0.12509113051E+03 0.  0.
          5    1    3    3  502    0 -0.23909407710E+02 -0.20146791672E+02  0.64883433715E+02  0.72144891451E+02  0.41800000000E+01 0.  1.
         -5    1    3    3    0  502  0.83768586172E+02  0.74989388528E+02  0.45503159696E+03  0.46873426486E+03  0.41800000000E+01 0.  1.
        -11    1    1    2    0    0 -0.64850148356E+02 -0.75284807858E+02  0.28788023868E+03  0.30454618018E+03  0.00000000000E+00 0. -1.
         11    1    1    2    0    0  0.49909698937E+01  0.20442211003E+02  0.10243585738E+03  0.10457484712E+03  0.00000000000E+00 0.  1.
</event>
<event>
 7    1  0.2666594E-009  0.1080707E+03  0.7561462E-02  0.1264185E+00
          1   -1    0    0  501    0  0.00000000000E+00  0.00000000000E+00  0.86971935475E+02  0.86971935475E+02  0.00000000000E+00 0. -1.
         -1   -1    0    0    0  501 -0.00000000000E+00 -0.00000000000E+00 -0.19272684279E+03  0.19272684279E+03  0.00000000000E+00 0.  1.
         25    2    1    2    0    0 -0.45846444701E+02  0.43046133126E+02 -0.88240505006E+02  0.16548259908E+03  0.12507292995E+03 0.  0.
          5    1    3    3  502    0 -0.53385504486E+02 -0.32292979768E+02 -0.52510586901E+02  0.81655880181E+02  0.41800000000E+01 0.  1.
         -5    1    3    3    0  502  0.75390597846E+01  0.75339112893E+02 -0.35729918105E+02  0.83826718901E+02  0.41800000000E+01 0.  1.
        -11    1    1    2    0    0  0.49145607590E+00 -0.30793326457E+02 -0.48847262930E+02  0.57745351147E+02  0.00000000000E+00 0.  1.
         11    1    1    2    0    0  0.45354988625E+02 -0.12252806668E+02  0.31332860620E+02  0.56470828036E+02  0.00000000000E+00 0. -1.
</event>
<event>
 7    1  0.2666594E-009  0.1962680E+03  0.7561462E-02  0.1152926E+00
         -1   -1    0    0    0  501 -0.00000000000E+00  0.00000000000E+00  0.60521846353E+03  0.60521846353E+03  0.00000000000E+00 0.  1.
          1   -1    0    0  501    0  0.00000000000E+00 -0.00000000000E+00 -0.80996036212E+02  0.80996036212E+02  0.00000000000E+00 0. -1.
         25    2    1    2    0    0  0.14006805569E+03  0.11657949253E+03  0.17401309609E+03  0.28130939154E+03  0.12507828688E+03 0.  0.
          5    1    3    3  502    0  0.24975879895E+02 -0.39945203330E+00  0.96506120603E+02  0.99774033958E+02  0.41800000000E+01 0.  1.
         -5    1    3    3    0  502  0.11509217580E+03  0.11697894457E+03  0.77506975492E+02  0.18153535758E+03  0.41800000000E+01 0.  1.
        -11    1    1    2    0    0 -0.10864103374E+03 -0.32664867969E+02  0.18726232624E+03  0.21894530514E+03  0.00000000000E+00 0.  1.
         11    1    1    2    0    0 -0.31427021946E+02 -0.83914624564E+02  0.16294700498E+03  0.18595980306E+03  0.00000000000E+00 0. -1.
</event>
<event>
 7    1  0.2666594E-009  0.1020176E+03  0.7561462E-02  0.1276110E+00
          2   -1    0    0  501    0  0.00000000000E+00  0.00000000000E+00  0.20761450971E+03  0.20761450971E+03  0.00000000000E+00 0. -1.
         -2   -1    0    0    0  501 -0.00000000000E+00 -0.00000000000E+00 -0.63721708219E+02  0.63721708219E+02  0.00000000000E+00 0.  1.
         25    2    1    2    0    0 -0.25114193903E+02  0.24649198577E+02  0.64692002018E+02  0.14515852221E+03  0.12509051010E+03 0.  0.
          5    1    3    3  502    0  0.47957028865E+02  0.13995056102E+01  0.60578234469E+01  0.48538694445E+02  0.41800000000E+01 0. -1.
         -5    1    3    3    0  502 -0.73071222768E+02  0.23249692967E+02  0.58634178571E+02  0.96619827761E+02  0.41800000000E+01 0. -1.
        -11    1    1    2    0    0  0.20232885647E+02 -0.49646928345E+02  0.12883744488E+02  0.55137809421E+02  0.00000000000E+00 0.  1.
         11    1    1    2    0    0  0.48813082563E+01  0.24997729768E+02  0.66317054990E+02  0.71039886306E+02  0.00000000000E+00 0. -1.
</event>
<event>
 7    1  0.2666594E-009  0.3072287E+03  0.7561462E-02  0.1081682E+00
          3   -1    0    0  501    0  0.00000000000E+00  0.00000000000E+00  0.94924413764E+03  0.94924413764E+03  0.00000000000E+00 0. -1.
         -3   -1    0    0    0  501 -0.00000000000E+00 -0.00000000000E+00 -0.17841445036E+03  0.17841445036E+03  0.00000000000E+00 0.  1.
         25    2    1    2    0    0 -0.13703808094E+03  0.26756529287E+03  0.34025004263E+02  0.32737773377E+03  0.12509139888E+03 0.  0.
          5    1    3    3  502    0 -0.82298643614E+02  0.12920946994E+03 -0.43832659016E+02  0.15939550890E+03  0.41800000000E+01 0. -1.
         -5    1    3    3    0  502 -0.54739437327E+02  0.13835582294E+03  0.77857663278E+02  0.16798222487E+03  0.41800000000E+01 0. -1.
        -11    1    1    2    0    0  0.12927078798E+03 -0.16552706627E+03  0.49418544793E+03  0.53696313024E+03  0.00000000000E+00 0. -1.
         11    1    1    2    0    0  0.77672929590E+01 -0.10203822660E+03  0.24261923510E+03  0.26331772399E+03  0.00000000000E+00 0.  1.
</event>
<event>
 7    1  0.2666594E-009  0.2371558E+03  0.7561462E-02  0.1121702E+00
          1   -1    0    0  501    0  0.00000000000E+00  0.00000000000E+00  0.26690901262E+03  0.26690901262E+03  0.00000000000E+00 0. -1.
         -1   -1    0    0    0  501 -0.00000000000E+00 -0.00000000000E+00 -0.23196183476E+03  0.23196183476E+03  0.00000000000E+00 0.  1.
         25    2    1    2    0    0  0.13346344313E+03  0.17820066386E+03  0.10964025920E+01  0.25537600805E+03  0.12509091148E+03 0.  0.
          5    1    3    3  502    0  0.49939066894E+02  0.14829027290E+03  0.34849697083E+02  0.16036174489E+03  0.41800000000E+01 0.  1.
         -5    1    3    3    0  502  0.83524376237E+02  0.29910390958E+02 -0.33753294491E+02  0.95014263151E+02  0.41800000000E+01 0.  1.
        -11    1    1    2    0    0 -0.68943115307E+02 -0.49100133824E+02 -0.24045969163E+02  0.87989686457E+02  0.00000000000E+00 0. -1.
         11    1    1    2    0    0 -0.64520327825E+02 -0.12910053003E+03  0.57896744428E+02  0.15550515288E+03  0.00000000000E+00 0.  1.
</event>
<event>
 7    1  0.2666594E-009  0.3325062E+03  0.7561462E-02  0.1070033E+00
         -1   -1    0    0    0  501 -0.00000000000E+00  0.00000000000E+00  0.42492372473E+03  0.42492372473E+03  0.00000000000E+00 0.  1.
          1   -1    0    0  501    0  0.00000000000E+00 -0.00000000000E+00 -0.27714648684E+03  0.27714648684E+03  0.00000000000E+00 0. -1.
         25    2    1    2    0    0  0.19435414244E+03 -0.26063443971E+03  0.65669583768E+02  0.35448592244E+03  0.12507570159E+03 0.  0.
          5    1    3    3  502    0  0.59433786064E+02 -0.16141026636E+03  0.72755032705E+02  0.18680582485E+03  0.41800000000E+01 0. -1.
         -5    1    3    3    0  502  0.13492035638E+03 -0.99224173344E+02 -0.70854489361E+01  0.16768009759E+03  0.41800000000E+01 0. -1.
        -11    1    1    2    0    0 -0.59338980106E+02  0.68997917194E+02 -0.17853815488E+02  0.92739343671E+02  0.00000000000E+00 0.  1.
         11    1    1    2    0    0 -0.13501516234E+03  0.19163652251E+03  0.99961469614E+02  0.25484494546E+03  0.00000000000E+00 0. -1.
</event>
<event>
 7    1  0.2666594E-009  0.1163710E+03  0.7561462E-02  0.1249207E+00
          2   -1    0    0  501    0  0.00000000000E+00  0.00000000000E+00  0.10284100742E+04  0.10284100742E+04  0.00000000000E+00 0. -1.
         -2   -1    0    0    0  501 -0.00000000000E+00 -0.00000000000E+00 -0.15254010988E+02  0.15254010988E+02  0.00000000000E+00 0.  1.
         25    2    1    2    0    0 -0.31777239769E+02 -0.45246100022E+02  0.69386675943E+03  0.70721663171E+03  0.12508909545E+03 0.  0.
          5    1    3    3  502    0 -0.64283444700E+02  0.14425816353E+02  0.27228554653E+03  0.28017379729E+03  0.41800000000E+01 0. -1.
         -5    1    3    3    0  502  0.32506204931E+02 -0.59671916375E+02  0.42158121290E+03  0.42704283442E+03  0.41800000000E+01 0. -1.
        -11    1    1    2    0    0 -0.24787891774E+02  0.32132018820E+02  0.74189266652E+02  0.84563310592E+02  0.00000000000E+00 0.  1.
         11    1    1    2    0    0  0.56565131543E+02  0.13114081202E+02  0.24510003710E+03  0.25188414285E+03  0.00000000000E+00 0. -1.
</event>
<event>
 7    1  0.2666594E-009  0.1171396E+03  0.7561462E-02  0.1247892E+00
         -4   -1    0    0    0  501 -0.00000000000E+00  0.00000000000E+00  0.53877949446E+03  0.53877949446E+03  0.00000000000E+00 0. -1.
          4   -1    0    0  501    0  0.00000000000E+00 -0.00000000000E+00 -0.26591294550E+02  0.26591294550E+02  0.00000000000E+00 0.  1.
         25    2    1    2    0    0  0.25128273493E+02  0.36152737808E+02  0.34507200377E+03  0.36967618786E+03  0.12508935009E+03 0.  0.
          5    1    3    3  502    0 -0.29894719445E+02  0.64008412950E+02  0.18802422949E+03  0.20090135503E+03  0.41800000000E+01 0. -1.
         -5    1    3    3    0  502  0.55022992938E+02 -0.27855675142E+02  0.15704777429E+03  0.16877483283E+03  0.41800000000E+01 0. -1.
        -11    1    1    2    0    0 -0.18146518111E+02  0.30062144318E+02  0.62463257868E+02  0.71656731882E+02  0.00000000000E+00 0. -1.
         11    1    1    2    0    0 -0.69817553820E+01 -0.66214882126E+02  0.10465293827E+03  0.12403786927E+03  0.00000000000E+00 0.  1.
</event>
<event>
 7    1  0.2666594E-009  0.7720482E+02  0.7561462E-02  0.1337176E+00
         -1   -1    0    0    0  501 -0.00000000000E+00  0.00000000000E+00  0.14338970026E+03  0.14338970026E+03  0.00000000000E+00 0.  1.
          1   -1    0    0  501    0  0.00000000000E+00 -0.00000000000E+00 -0.10813251576E+03  0.10813251576E+03  0.00000000000E+00 0. -1.
         25    2    1    2    0    0  0.22309270619E+01  0.60127785632E+02  0.24520786687E+01  0.13883003546E+03  0.12508972146E+03 0.  0.
          5    1    3    3  502    0 -0.26498435163E+02  0.16039036718E+00  0.50161300152E+02  0.56884279235E+02  0.41800000000E+01 0.  1.
         -5    1    3    3    0  502  0.28729362225E+02  0.59967395264E+02 -0.47709221483E+02  0.81945756224E+02  0.41800000000E+01 0.  1.
        -11    1    1    2    0    0  0.31558794299E+01 -0.39910871028E+02 -0.27691973355E+02  0.48679385673E+02  0.00000000000E+00 0. -1.
         11    1    1    2    0    0 -0.53868064918E+01 -0.20216914603E+02  0.60497079183E+02  0.64012794893E+02  0.00000000000E+00 0.  1.
</event>
<event>
 7    1  0.2666594E-009  0.7292755E+02  0.7561462E-02  0.1350412E+00
         -1   -1    0    0    0  501 -0.00000000000E+00  0.00000000000E+00  0.50071414304E+02  0.50071414304E+02  0.00000000000E+00 0.  1.
          1   -1    0    0  501    0  0.00000000000E+00 -0.00000000000E+00 -0.30474650775E+03  0.30474650775E+03  0.00000000000E+00 0. -1.
         25    2    1    2    0    0  0.49927751730E+02 -0.27116860411E+02 -0.16692434107E+03  0.21619392997E+03  0.12509186706E+03 0.  0.
          5    1    3    3  502    0  0.40644146489E+01 -0.28803872472E+02  0.11766598304E+02  0.31656085852E+02  0.41800000000E+01 0.  1.
         -5    1    3    3    0  502  0.45863337081E+02  0.16870120609E+01 -0.17869093938E+03  0.18453784412E+03  0.41800000000E+01 0.  1.
        -11    1    1    2    0    0 -0.46664809201E+02  0.37786200309E+01  0.96937694312E+00  0.46827578186E+02  0.00000000000E+00 0.  1.
         11    1    1    2    0    0 -0.32629425292E+01  0.23338240380E+02 -0.88720129313E+02  0.91796413891E+02  0.00000000000E+00 0. -1.
</event>
<event>
 7    1  0.2666594E-009  0.1179041E+03  0.7561462E-02  0.1246595E+00
          1   -1    0    0  501    0  0.00000000000E+00  0.00000000000E+00  0.45669497673E+03  0.45669497673E+03  0.00000000000E+00 0. -1.
         -1   -1    0    0    0  501 -0.00000000000E+00 -0.00000000000E+00 -0.51714857699E+02  0.51714857699E+02  0.00000000000E+00 0.  1.
         25    2    1    2    0    0  0.34115669300E+02 -0.43900314640E+02  0.63734527729E+02  0.15099935164E+03  0.12509035796E+03 0.  0.
          5    1    3    3  502    0 -0.18448550167E+02 -0.71849213028E+02  0.50600871834E+02  0.89892041063E+02  0.41800000000E+01 0. -1.
         -5    1    3    3    0  502  0.52564219467E+02  0.27948898388E+02  0.13133655895E+02  0.61107310581E+02  0.41800000000E+01 0. -1.
        -11    1    1    2    0    0 -0.10501041636E+02  0.67578926645E+02  0.17611450021E+03  0.18892723569E+03  0.00000000000E+00 0.  1.
         11    1    1    2    0    0 -0.23614627664E+02 -0.23678612004E+02  0.16513109109E+03  0.16848324709E+03  0.00000000000E+00 0. -1.
</event>
<event>
 7    1  0.2666594E-009  0.1040696E+03  0.7561462E-02  0.1271964E+00
          1   -1    0    0  501    0  0.00000000000E+00  0.00000000000E+00  0.91276594718E+02  0.91276594718E+02  0.00000000000E+00 0. -1.
         -1   -1    0    0    0  501 -0.00000000000E+00 -0.00000000000E+00 -0.18352800227E+03  0.18352800227E+03  0.00000000000E+00 0.  1.
         25    2    1    2    0    0  0.47784266960E+02  0.10382938282E+02 -0.10896459916E+03  0.17295009858E+03  0.12508921277E+03 0.  0.
          5    1    3    3  502    0 -0.21718981413E+02  0.35670161881E+02 -0.85497027061E+02  0.95243312829E+02  0.41800000000E+01 0.  1.
         -5    1    3    3    0  502  0.69503248373E+02 -0.25287223599E+02 -0.23467572102E+02  0.77706785753E+02  0.41800000000E+01 0.  1.
        -11    1    1    2    0    0  0.16403159452E+02  0.15793211053E+02 -0.13240402249E+02  0.26340034303E+02  0.00000000000E+00 0.  1.
         11    1    1    2    0    0 -0.64187426412E+02 -0.26176149335E+02  0.29953593862E+02  0.75514464103E+02  0.00000000000E+00 0. -1.
</event>
<event>
 7    1  0.2666594E-009  0.7401936E+02  0.7561462E-02  0.1346935E+00
          1   -1    0    0  501    0  0.00000000000E+00  0.00000000000E+00  0.56081461850E+03  0.56081461850E+03  0.00000000000E+00 0. -1.
         -1   -1    0    0    0  501 -0.00000000000E+00 -0.00000000000E+00 -0.24591484710E+02  0.24591484710E+02  0.00000000000E+00 0.  1.
         25    2    1    2    0    0 -0.52507978611E+02 -0.26864120244E+02  0.35849048054E+03  0.38424213683E+03  0.12509127190E+03 0.  0.
          5    1    3    3  502    0 -0.56432916010E+02  0.39934096440E+01  0.34574376057E+03  0.35036672460E+03  0.41800000000E+01 0. -1.
         -5    1    3    3    0  502  0.39249373991E+01 -0.30857529888E+02  0.12746719972E+02  0.33875412239E+02  0.41800000000E+01 0. -1.
        -11    1    1    2    0    0  0.96626925510E+01  0.99268511755E+01 -0.33996918448E+01  0.14264217687E+02  0.00000000000E+00 0.  1.
         11    1    1    2    0    0  0.42845286060E+02  0.16937269068E+02  0.18113234509E+03  0.18689974868E+03  0.00000000000E+00 0. -1.
</event>
<event>
 7    1  0.2666594E-009  0.1803184E+03  0.7561462E-02  0.1167495E+00
         -1   -1    0    0    0  501 -0.00000000000E+00  0.00000000000E+00  0.10818574486E+04  0.10818574486E+04  0.00000000000E+00 0.  1.
          1   -1    0    0  501    0  0.00000000000E+00 -0.00000000000E+00 -0.37890293489E+02  0.37890293489E+02  0.00000000000E+00 0. -1.
         25    2    1    2    0    0 -0.14075421633E+03 -0.44885981745E+02  0.30323936861E+03  0.35976130229E+03  0.12509028411E+03 0.  0.
          5    1    3    3  502    0  0.15722941964E+02  0.15997427323E+02  0.59795389216E+02  0.64000699655E+02  0.41800000000E+01 0. -1.
         -5    1    3    3    0  502 -0.15647715829E+03 -0.60883409067E+02  0.24344397939E+03  0.29576060263E+03  0.41800000000E+01 0. -1.
        -11    1    1    2    0    0  0.58059113870E+02  0.62508029108E+02  0.35652437093E+03  0.36658933628E+03  0.00000000000E+00 0.  1.
         11    1    1    2    0    0  0.82695102456E+02 -0.17622047364E+02  0.38420341559E+03  0.39339710354E+03  0.00000000000E+00 0. -1.
</event>
<event>
 7    1  0.2666594E-009  0.2447866E+03  0.7561462E-02  0.1116645E+00
          2   -1    0    0  501    0  0.00000000000E+00  0.00000000000E+00  0.85811514262E+03  0.85811514262E+03  0.00000000000E+00 0. -1.
         -2   -1    0    0    0  501 -0.00000000000E+00 -0.00000000000E+00 -0.75689872919E+02  0.75689872919E+02  0.00000000000E+00 0.  1.
         25    2    1    2    0    0  0.30321111555E+02  0.22656530340E+03  0.35725033033E+03  0.44218562638E+03  0.12509645537E+03 0.  0.
          5    1    3    3  502    0 -0.38378055050E+02  0.16075406818E+03  0.22964618412E+03  0.28296570079E+03  0.41800000000E+01 0. -1.
         -5    1    3    3    0  502  0.68699166605E+02  0.65811235218E+02  0.12760414622E+03  0.15921992559E+03  0.41800000000E+01 0. -1.
        -11    1    1    2    0    0 -0.13685303805E+01 -0.55992447503E+02  0.38391266372E+02  0.67903728811E+02  0.00000000000E+00 0.  1.
         11    1    1    2    0    0 -0.28952581175E+02 -0.17057285590E+03  0.38678367300E+03  0.42371566035E+03  0.00000000000E+00 0. -1.
</event>
<event>
 7    1  0.2666594E-009  0.3602422E+03  0.7561462E-02  0.1058488E+00
         -2   -1    0    0    0  501 -0.00000000000E+00  0.00000000000E+00  0.30265551332E+03  0.30265551332E+03  0.00000000000E+00 0.  1.
          2   -1    0    0  501    0  0.00000000000E+00 -0.00000000000E+00 -0.43945873694E+03  0.43945873694E+03  0.00000000000E+00 0. -1.
         25    2    1    2    0    0 -0.91845488940E+02  0.33560074881E+03 -0.79907690307E+02  0.37828068251E+03  0.12509028481E+03 0.  0.
          5    1    3    3  502    0  0.89816523154E+01  0.19160731021E+03 -0.21819942306E+02  0.19310000954E+03  0.41800000000E+01 0.  1.
         -5    1    3    3    0  502 -0.10082714126E+03  0.14399343860E+03 -0.58087748001E+02  0.18518067297E+03  0.41800000000E+01 0.  1.
        -11    1    1    2    0    0 -0.26282761298E+01 -0.83885564660E+02 -0.43766259560E+02  0.94652951722E+02  0.00000000000E+00 0. -1.
         11    1    1    2    0    0  0.94473765070E+02 -0.25171518415E+03 -0.13129273754E+02  0.26918061603E+03  0.00000000000E+00 0.  1.
</event>
<event>
 7    1  0.2666594E-009  0.1614396E+03  0.7561462E-02  0.1187081E+00
          2   -1    0    0  501    0  0.00000000000E+00  0.00000000000E+00  0.20533798149E+03  0.20533798149E+03  0.00000000000E+00 0. -1.
         -2   -1    0    0    0  501 -0.00000000000E+00 -0.00000000000E+00 -0.18315221624E+03  0.18315221624E+03  0.00000000000E+00 0.  1.
         25    2    1    2    0    0  0.13296573628E+03  0.26051095727E+01  0.10180792972E+03  0.20904296311E+03  0.12508969683E+03 0.  0.
          5    1    3    3  502    0  0.40400443612E+02  0.54777364672E+02  0.70746508264E+02  0.98261367566E+02  0.41800000000E+01 0. -1.
         -5    1    3    3    0  502  0.92565292664E+02 -0.52172255099E+02  0.31061421456E+02  0.11078159554E+03  0.41800000000E+01 0. -1.
        -11    1    1    2    0    0 -0.11193093232E+03 -0.27993676318E+02 -0.28886034030E+02  0.11893940678E+03  0.00000000000E+00 0. -1.
         11    1    1    2    0    0 -0.21034803957E+02  0.25388566745E+02 -0.50736130438E+02  0.60507827847E+02  0.00000000000E+00 0.  1.
</event>
<event>
 7    1  0.2666594E-009  0.1147201E+03  0.7561462E-02  0.1252071E+00
          1   -1    0    0  501    0  0.00000000000E+00  0.00000000000E+00  0.23515012299E+03  0.23515012299E+03  0.00000000000E+00 0. -1.
         -1   -1    0    0    0  501 -0.00000000000E+00 -0.00000000000E+00 -0.92652344955E+02  0.92652344955E+02  0.00000000000E+00 0.  1.
         25    2    1    2    0    0 -0.46046918538E+02  0.87249097312E+02  0.10736856291E+03  0.19211543307E+03  0.12509039785E+03 0.  0.
          5    1    3    3  502    0 -0.60602498036E+02  0.69978266854E+02  0.13014676977E+03  0.15976631272E+03  0.41800000000E+01 0.  1.
         -5    1    3    3    0  502  0.14555579498E+02  0.17270830457E+02 -0.22778206863E+02  0.32349120345E+02  0.41800000000E+01 0.  1.
        -11    1    1    2    0    0  0.26146173852E+02 -0.19555739013E+01 -0.19309985295E+02  0.32562589094E+02  0.00000000000E+00 0. -1.
         11    1    1    2    0    0  0.19900744685E+02 -0.85293523410E+02  0.54439200422E+02  0.10312444578E+03  0.00000000000E+00 0.  1.
</event>
<event>
 7    1  0.2666594E-009  0.1797442E+03  0.7561462E-02  0.1168051E+00
          1   -1    0    0  501    0  0.00000000000E+00  0.00000000000E+00  0.54006948182E+03  0.54006948182E+03  0.00000000000E+00 0. -1.
         -1   -1    0    0    0  501 -0.00000000000E+00 -0.00000000000E+00 -0.64795526276E+02  0.64795526276E+02  0.00000000000E+00 0.  1.
         25    2    1    2    0    0  0.70724100701E+02 -0.13637160119E+03  0.28778877518E+03  0.34938461989E+03  0.12509245166E+03 0.  0.
          5    1    3    3  502    0  0.10423189078E+03 -0.10887866737E+03  0.19174900661E+03  0.24393442808E+03  0.41800000000E+01 0. -1.
         -5    1    3    3    0  502 -0.33507790082E+02 -0.27492933823E+02  0.96039768567E+02  0.10545019181E+03  0.41800000000E+01 0. -1.
        -11    1    1    2    0    0 -0.13964678955E+02  0.92159790683E+02  0.65728854737E+02  0.11405578294E+03  0.00000000000E+00 0.  1.
         11    1    1    2    0    0 -0.56759421746E+02  0.44211810509E+02  0.12175632563E+03  0.14142460527E+03  0.00000000000E+00 0. -1.
</event>
<event>
 7    1  0.2666594E-009  0.1160371E+03  0.7561462E-02  0.1249782E+00
          1   -1    0    0  501    0  0.00000000000E+00  0.00000000000E+00  0.27201577898E+03  0.27201577898E+03  0.00000000000E+00 0. -1.
         -1   -1    0    0    0  501 -0.00000000000E+00 -0.00000000000E+00 -0.97062826568E+02  0.97062826568E+02  0.00000000000E+00 0.  1.
         25    2    1    2    0    0  0.40629841401E+02  0.92652044409E+02  0.18128480525E+02  0.16190100206E+03  0.12509239511E+03 0.  0.
          5    1    3    3  502    0  0.43458049124E+02  0.19933099880E+02 -0.44761046139E+02  0.65627388764E+02  0.41800000000E+01 0.  1.
         -5    1    3    3    0  502 -0.28282077228E+01  0.72718944529E+02  0.62889526665E+02  0.96273613293E+02  0.41800000000E+01 0.  1.
        -11    1    1    2    0    0 -0.80402776542E+01 -0.72339533043E+02  0.37603985678E+02  0.81925050165E+02  0.00000000000E+00 0.  1.
         11    1    1    2    0    0 -0.32589563747E+02 -0.20312511366E+02  0.11922048621E+03  0.12525255333E+03  0.00000000000E+00 0. -1.
</event>
<event>
 7    1  0.2666594E-009  0.9021281E+02  0.7561462E-02  0.1302337E+00
          4   -1    0    0  501    0  0.00000000000E+00  0.00000000000E+00  0.13794297870E+03  0.13794297870E+03  0.00000000000E+00 0. -1.
         -4   -1    0    0    0  501 -0.00000000000E+00 -0.00000000000E+00 -0.89454103084E+02  0.89454103084E+02  0.00000000000E+00 0.  1.
         25    2    1    2    0    0 -0.27223261257E+02  0.34620794239E+01  0.16947465303E+02  0.12918108627E+03  0.12508974587E+03 0.  0.
          5    1    3    3  502    0  0.30609448178E+02 -0.94057792963E+01  0.51262608029E+02  0.60586585841E+02  0.41800000000E+01 0.  1.
         -5    1    3    3    0  502 -0.57832709435E+02  0.12867858720E+02 -0.34315142726E+02  0.68594500428E+02  0.41800000000E+01 0.  1.
        -11    1    1    2    0    0  0.55603948688E+02  0.11310347295E+02  0.55861267639E+01  0.57016908702E+02  0.00000000000E+00 0. -1.
         11    1    1    2    0    0 -0.28380687431E+02 -0.14772426719E+02  0.25955283552E+02  0.41199086816E+02  0.00000000000E+00 0.  1.
</event>
<event>
 7    1  0.2666594E-009  0.1365407E+03  0.7561462E-02  0.1218061E+00
         -2   -1    0    0    0  501 -0.00000000000E+00  0.00000000000E+00  0.36962681169E+02  0.36962681169E+02  0.00000000000E+00 0.  1.
          2   -1    0    0  501    0  0.00000000000E+00 -0.00000000000E+00 -0.53899376741E+03  0.53899376741E+03  0.00000000000E+00 0. -1.
         25    2    1    2    0    0  0.47759945565E+02  0.68596893770E+02 -0.34419620779E+03  0.37563765814E+03  0.12508426969E+03 0.  0.
          5    1    3    3  502    0 -0.80929922392E+01 -0.33091501906E+02 -0.75624156666E+02  0.83048356355E+02  0.41800000000E+01 0.  1.
         -5    1    3    3    0  502  0.55852937804E+02  0.10168839568E+03 -0.26857205112E+03  0.29258930179E+03  0.41800000000E+01 0.  1.
        -11    1    1    2    0    0  0.10991967044E+02 -0.62658147650E+02 -0.92361645841E+02  0.11214963410E+03  0.00000000000E+00 0. -1.
         11    1    1    2    0    0 -0.58751912609E+02 -0.59387461201E+01 -0.65473232614E+02  0.88169156339E+02  0.00000000000E+00 0.  1.
</event>
<event>
 7    1  0.2666594E-009  0.1267089E+03  0.7561462E-02  0.1232422E+00
          1   -1    0    0  501    0  0.00000000000E+00  0.00000000000E+00  0.29875642785E+03  0.29875642785E+03  0.00000000000E+00 0.  1.
         -1   -1    0    0    0  501 -0.00000000000E+00 -0.00000000000E+00 -0.58372869472E+02  0.58372869472E+02  0.00000000000E+00 0. -1.
         25    2    1    2    0    0 -0.50267364051E+02 -0.33609243313E+02  0.15426244945E+03  0.20760225328E+03  0.12508158591E+03 0.  0.
          5    1    3    3  502    0 -0.38159272836E+02  0.43929170252E+02  0.48675085131E+02  0.75977881090E+02  0.41800000000E+01 0.  1.
         -5    1    3    3    0  502 -0.12108091215E+02 -0.77538413565E+02  0.10558736432E+03  0.13162437219E+03  0.41800000000E+01 0.  1.
        -11    1    1    2    0    0 -0.10211710362E+02 -0.28213341643E+02  0.40103984969E+01  0.30271355623E+02  0.00000000000E+00 0. -1.
         11    1    1    2    0    0  0.60479074412E+02  0.61822584956E+02  0.82110710430E+02  0.11925568842E+03  0.00000000000E+00 0.  1.
</event>
<event>
 7    1  0.2666594E-009  0.1629993E+03  0.7561462E-02  0.1185352E+00
         -1   -1    0    0    0  501 -0.00000000000E+00  0.00000000000E+00  0.55199043169E+02  0.55199043169E+02  0.00000000000E+00 0.  1.
          1   -1    0    0  501    0  0.00000000000E+00 -0.00000000000E+00 -0.64104644355E+03  0.64104644355E+03  0.00000000000E+00 0. -1.
         25    2    1    2    0    0 -0.11526655996E+02 -0.14846319094E+03 -0.37552471610E+03  0.42289192914E+03  0.12507832930E+03 0.  0.
          5    1    3    3  502    0 -0.47543310368E+02 -0.12523098536E+03 -0.34497760643E+03  0.37009483568E+03  0.41800000000E+01 0.  1.
         -5    1    3    3    0  502  0.36016654373E+02 -0.23232205578E+02 -0.30547109669E+02  0.52797093456E+02  0.41800000000E+01 0.  1.
        -11    1    1    2    0    0  0.21658471591E+01  0.20753724010E+02 -0.10643092871E+03  0.10845713688E+03  0.00000000000E+00 0. -1.
         11    1    1    2    0    0  0.93608088366E+01  0.12770946693E+03 -0.10389175557E+03  0.16489642071E+03  0.00000000000E+00 0.  1.
</event>
<event>
 7    1  0.2666594E-009  0.8848957E+02  0.7561462E-02  0.1306551E+00
          2   -1    0    0  501    0  0.00000000000E+00  0.00000000000E+00  0.25396471496E+03  0.25396471496E+03  0.00000000000E+00 0.  1.
         -2   -1    0    0    0  501 -0.00000000000E+00 -0.00000000000E+00 -0.51870753308E+02  0.51870753308E+02  0.00000000000E+00 0. -1.
         25    2    1    2    0    0 -0.13967828293E+02 -0.33513441490E+02  0.10179541696E+03  0.16531400164E+03  0.12509261064E+03 0.  0.
          5    1    3    3  502    0  0.19669761188E+02 -0.61358942053E+02  0.10284447660E+03  0.12143425399E+03  0.41800000000E+01 0.  1.
         -5    1    3    3    0  502 -0.33637589480E+02  0.27845500563E+02 -0.10490596417E+01  0.43879747649E+02  0.41800000000E+01 0.  1.
        -11    1    1    2    0    0 -0.22877364019E+02  0.11264637313E+02  0.93538653336E+02  0.96952284687E+02  0.00000000000E+00 0.  1.
         11    1    1    2    0    0  0.36845192311E+02  0.22248804177E+02  0.67598913572E+01  0.43569181940E+02  0.00000000000E+00 0. -1.
</event>
<event>
 7    1  0.2666594E-009  0.1267448E+03  0.7561462E-02  0.1232367E+00
          1   -1    0    0  501    0  0.00000000000E+00  0.00000000000E+00  0.55297888044E+03  0.55297888044E+03  0.00000000000E+00 0. -1.
         -1   -1    0    0    0  501 -0.00000000000E+00 -0.00000000000E+00 -0.54701874626E+02  0.54701874626E+02  0.00000000000E+00 0.  1.
         25    2    1    2    0    0  0.81017431561E+02 -0.10950610582E+02  0.45224622739E+03  0.47629676641E+03  0.12509284315E+03 0.  0.
          5    1    3    3  502    0  0.49657067771E+01 -0.58280546701E+02  0.15100312969E+03  0.16198980815E+03  0.41800000000E+01 0. -1.
         -5    1    3    3    0  502  0.76051724783E+02  0.47329936119E+02  0.30124309770E+03  0.31430695826E+03  0.41800000000E+01 0. -1.
        -11    1    1    2    0    0 -0.46704683551E+02 -0.27051812686E+02 -0.10636713190E+02  0.55011523363E+02  0.00000000000E+00 0.  1.
         11    1    1    2    0    0 -0.34312748009E+02  0.38002423268E+02  0.56667491612E+02  0.76372465298E+02  0.00000000000E+00 0. -1.
</event>
<event>
 7    1  0.2666594E-009  0.3062712E+03  0.7561462E-02  0.1082147E+00
         -2   -1    0    0    0  501 -0.00000000000E+00  0.00000000000E+00  0.16171606911E+03  0.16171606911E+03  0.00000000000E+00 0.  1.
          2   -1    0    0  501    0  0.00000000000E+00 -0.00000000000E+00 -0.73214736171E+03  0.73214736171E+03  0.00000000000E+00 0. -1.
         25    2    1    2    0    0  0.29118328612E+03  0.37301107954E+02 -0.10505047496E+03  0.33594541788E+03  0.12507854627E+03 0.  0.
          5    1    3    3  502    0  0.25918370147E+03  0.71285772208E+02 -0.10622254250E+03  0.28906496391E+03  0.41800000000E+01 0. -1.
         -5    1    3    3    0  502  0.31999584656E+02 -0.33984664254E+02  0.11720675399E+01  0.46880453976E+02  0.41800000000E+01 0. -1.
        -11    1    1    2    0    0 -0.75939013869E+02 -0.29446760514E+02 -0.20120495593E+03  0.21706515110E+03  0.00000000000E+00 0. -1.
         11    1    1    2    0    0 -0.21524427225E+03 -0.78543474407E+01 -0.26417586172E+03  0.34085286184E+03  0.00000000000E+00 0.  1.
</event>
<event>
 7    1  0.2666594E-009  0.1217150E+03  0.7561462E-02  0.1240294E+00
          2   -1    0    0  501    0  0.00000000000E+00  0.00000000000E+00  0.42956265899E+03  0.42956265899E+03  0.00000000000E+00 0.  1.
         -2   -1    0    0    0  501 -0.00000000000E+00 -0.00000000000E+00 -0.52245072167E+02  0.52245072167E+02  0.00000000000E+00 0. -1.
         25    2    1    2    0    0 -0.86636230459E+02 -0.21377185468E+02  0.27665010854E+03  0.31646170194E+03  0.12509958335E+03 0.  0.
          5    1    3    3  502    0  0.83609914808E+01 -0.19365686130E+02 -0.24104766017E+01  0.21638363508E+02  0.41800000000E+01 0.  1.
         -5    1    3    3    0  502 -0.94997221940E+02 -0.20114993377E+01  0.27906058514E+03  0.29482333843E+03  0.41800000000E+01 0.  1.
        -11    1    1    2    0    0 -0.42743301135E+01  0.34675485449E+02  0.10181028008E+02  0.36391104962E+02  0.00000000000E+00 0. -1.
         11    1    1    2    0    0  0.90910560573E+02 -0.13298299981E+02  0.90486450280E+02  0.12895492426E+03  0.00000000000E+00 0.  1.
</event>
<event>
 7    1  0.2666594E-009  0.1587563E+03  0.7561462E-02  0.1190108E+00
          1   -1    0    0  501    0  0.00000000000E+00  0.00000000000E+00  0.49806724657E+03  0.49806724657E+03  0.00000000000E+00 0. -1.
         -1   -1    0    0    0  501 -0.00000000000E+00 -0.00000000000E+00 -0.55256341461E+02  0.55256341461E+02  0.00000000000E+00 0.  1.
         25    2    1    2    0    0  0.88442845851E+02 -0.80812595003E+02  0.18315797214E+03  0.25209070754E+03  0.12510023812E+03 0.  0.
          5    1    3    3  502    0  0.21332519454E+02  0.33129642477E+02  0.55892619154E+02  0.68513552476E+02  0.41800000000E+01 0. -1.
         -5    1    3    3    0  502  0.67110326397E+02 -0.11394223748E+03  0.12726535298E+03  0.18357715506E+03  0.41800000000E+01 0. -1.
        -11    1    1    2    0    0 -0.55705584978E+01  0.59841444758E+02  0.15410393672E+03  0.16540874507E+03  0.00000000000E+00 0. -1.
         11    1    1    2    0    0 -0.82872287354E+02  0.20971150245E+02  0.10554899625E+03  0.13582413543E+03  0.00000000000E+00 0.  1.
</event>
<event>
 7    1  0.2666594E-009  0.7018493E+02  0.7561462E-02  0.1359465E+00
          1   -1    0    0  501    0  0.00000000000E+00  0.00000000000E+00  0.25572814420E+03  0.25572814420E+03  0.00000000000E+00 0. -1.
         -1   -1    0    0    0  501 -0.00000000000E+00 -0.00000000000E+00 -0.59595167253E+02  0.59595167253E+02  0.00000000000E+00 0.  1.
         25    2    1    2    0    0 -0.31615176433E+02  0.42772671416E+02  0.11440720226E+03  0.17766673532E+03  0.12508972823E+03 0.  0.
          5    1    3    3  502    0 -0.29540305749E+02  0.60111010513E+02  0.55478986976E+01  0.67336578682E+02  0.41800000000E+01 0.  1.
         -5    1    3    3    0  502 -0.20748706844E+01 -0.17338339097E+02  0.10885930357E+03  0.11033015664E+03  0.41800000000E+01 0.  1.
        -11    1    1    2    0    0  0.11196769890E+02 -0.47787210799E+01 -0.22098073235E+02  0.25229519849E+02  0.00000000000E+00 0.  1.
         11    1    1    2    0    0  0.20418406544E+02 -0.37993950336E+02  0.10382384792E+03  0.11242705629E+03  0.00000000000E+00 0. -1.
</event>
<event>
 7    1  0.2666594E-009  0.1273632E+03  0.7561462E-02  0.1231422E+00
          2   -1    0    0  501    0  0.00000000000E+00  0.00000000000E+00  0.24534387288E+03  0.24534387288E+03  0.00000000000E+00 0. -1.
         -2   -1    0    0    0  501 -0.00000000000E+00 -0.00000000000E+00 -0.94574844177E+02  0.94574844177E+02  0.00000000000E+00 0.  1.
         25    2    1    2    0    0  0.62313793429E+02  0.46534167471E+02  0.16265814514E+03  0.21943999713E+03  0.12509117702E+03 0.  0.
          5    1    3    3  502    0  0.72977516265E+02 -0.19634667409E+02  0.59162680283E+02  0.96067336711E+02  0.41800000000E+01 0.  1.
         -5    1    3    3    0  502 -0.10663722836E+02  0.66168834880E+02  0.10349546485E+03  0.12337266042E+03  0.41800000000E+01 0.  1.
        -11    1    1    2    0    0 -0.40637618899E+01 -0.53110079365E+02  0.15924650602E+02  0.55594866559E+02  0.00000000000E+00 0. -1.
         11    1    1    2    0    0 -0.58250031539E+02  0.65759118945E+01 -0.27813767033E+02  0.64883853370E+02  0.00000000000E+00 0.  1.
</event>
<event>
 7    1  0.2666594E-009  0.1640934E+03  0.7561462E-02  0.1184151E+00
          1   -1    0    0  501    0  0.00000000000E+00  0.00000000000E+00  0.93249778376E+03  0.93249778376E+03  0.00000000000E+00 0. -1.
         -1   -1    0    0    0  501 -0.00000000000E+00 -0.00000000000E+00 -0.33835981566E+02  0.33835981566E+02  0.00000000000E+00 0.  1.
         25    2    1    2    0    0  0.51779865588E+02  0.12967487581E+03  0.43636381304E+03  0.47492373902E+03  0.12506979115E+03 0.  0.
          5    1    3    3  502    0  0.36817764095E+02  0.13908816046E+03  0.25635455680E+03  0.29400033218E+03  0.41800000000E+01 0.  1.
         -5    1    3    3    0  502  0.14962101493E+02 -0.94132846507E+01  0.18000925624E+03  0.18092340684E+03  0.41800000000E+01 0.  1.
        -11    1    1    2    0    0 -0.60388245508E+02 -0.32597326514E+02  0.21080961391E+03  0.22169803610E+03  0.00000000000E+00 0. -1.
         11    1    1    2    0    0  0.86083799206E+01 -0.97077549291E+02  0.25148837524E+03  0.26971199021E+03  0.00000000000E+00 0.  1.
</event>
<event>
 7    1  0.2666594E-009  0.1120536E+03  0.7561462E-02  0.1256814E+00
          1   -1    0    0  501    0  0.00000000000E+00  0.00000000000E+00  0.52341143043E+03  0.52341143043E+03  0.00000000000E+00 0.  1.
         -1   -1    0    0    0  501 -0.00000000000E+00 -0.00000000000E+00 -0.10796851771E+03  0.10796851771E+03  0.00000000000E+00 0. -1.
         25    2    1    2    0    0 -0.73235441978E+02 -0.16922862907E+02  0.47671799103E+03  0.49855863595E+03  0.12510338631E+03 0.  0.
          5    1    3    3  502    0 -0.99435726050E+02 -0.21196781391E+02  0.24504804966E+03  0.26533523361E+03  0.41800000000E+01 0. -1.
         -5    1    3    3    0  502  0.26200284072E+02  0.42739184844E+01  0.23166994137E+03  0.23322340234E+03  0.41800000000E+01 0. -1.
        -11    1    1    2    0    0  0.12343263844E+02 -0.20554973680E+02  0.14993036698E+02  0.28278158616E+02  0.00000000000E+00 0.  1.
         11    1    1    2    0    0  0.60892178133E+02  0.37477836587E+02 -0.76268115003E+02  0.10454315357E+03  0.00000000000E+00 0. -1.
</event>
<event>
 7    1  0.2666594E-009  0.1093314E+03  0.7561462E-02  0.1261813E+00
         -2   -1    0    0    0  501 -0.00000000000E+00  0.00000000000E+00  0.14764439757E+02  0.14764439757E+02  0.00000000000E+00 0.  1.
          2   -1    0    0  501    0  0.00000000000E+00 -0.00000000000E+00 -0.11926781024E+04  0.11926781024E+04  0.00000000000E+00 0. -1.
         25    2    1    2    0    0  0.74285571102E+01 -0.45389320012E+02 -0.92842567368E+03  0.93794312247E+03  0.12509074947E+03 0.  0.
          5    1    3    3  502    0  0.64607908470E+02 -0.20147084774E+02 -0.38575372301E+03  0.39166758110E+03  0.41800000000E+01 0.  1.
         -5    1    3    3    0  502 -0.57179351359E+02 -0.25242235238E+02 -0.54267195067E+03  0.54627554137E+03  0.41800000000E+01 0.  1.
        -11    1    1    2    0    0  0.32216708602E+02  0.34278751059E+02 -0.63603697641E+02  0.79109919990E+02  0.00000000000E+00 0.  1.
         11    1    1    2    0    0 -0.39645265712E+02  0.11110568953E+02 -0.18588429135E+03  0.19038949972E+03  0.00000000000E+00 0. -1.
</event>
<event>
 7    1  0.2666594E-009  0.1157066E+03  0.7561462E-02  0.1250353E+00
         -3   -1    0    0    0  501 -0.00000000000E+00  0.00000000000E+00  0.10613920763E+03  0.10613920763E+03  0.00000000000E+00 0.  1.
          3   -1    0    0  501    0  0.00000000000E+00 -0.00000000000E+00 -0.29981288035E+03  0.29981288035E+03  0.00000000000E+00 0. -1.
         25    2    1    2    0    0 -0.43523402790E+02  0.70846788355E+02  0.27821323540E+02  0.15275734626E+03  0.12508887554E+03 0.  0.
          5    1    3    3  502    0  0.23172171012E+02  0.70514561704E+02  0.40620103239E+02  0.84715512799E+02  0.41800000000E+01 0.  1.
         -5    1    3    3    0  502 -0.66695573802E+02  0.33222665082E+00 -0.12798779698E+02  0.68041833464E+02  0.41800000000E+01 0.  1.
        -11    1    1    2    0    0  0.24368517272E+02 -0.66187052676E+02 -0.22254416296E+03  0.23345332519E+03  0.00000000000E+00 0. -1.
         11    1    1    2    0    0  0.19154885518E+02 -0.46597356786E+01  0.10491666946E+01  0.19741416529E+02  0.00000000000E+00 0.  1.
</event>
<event>
 7    1  0.2666594E-009  0.1320537E+03  0.7561462E-02  0.1224440E+00
          4   -1    0    0  501    0  0.00000000000E+00  0.00000000000E+00  0.78644620580E+02  0.78644620580E+02  0.00000000000E+00 0. -1.
         -4   -1    0    0    0  501 -0.00000000000E+00 -0.00000000000E+00 -0.26985550803E+03  0.26985550803E+03  0.00000000000E+00 0.  1.
         25    2    1    2    0    0  0.33952623402E+02  0.66778208086E+02 -0.17570906696E+03  0.22832749480E+03  0.12509060300E+03 0.  0.
          5    1    3    3  502    0  0.52922324031E+02 -0.20014832331E+02 -0.63724615426E+02  0.85320952323E+02  0.41800000000E+01 0.  1.
         -5    1    3    3    0  502 -0.18969700630E+02  0.86793040417E+02 -0.11198445153E+03  0.14300654248E+03  0.41800000000E+01 0.  1.
        -11    1    1    2    0    0 -0.61638073662E+02 -0.66600831344E+02 -0.17485194611E+02  0.92415663667E+02  0.00000000000E+00 0.  1.
         11    1    1    2    0    0  0.27685450260E+02 -0.17737674187E+00  0.19833741185E+01  0.27756970143E+02  0.00000000000E+00 0. -1.
</event>
<event>
 7    1  0.2666594E-009  0.1481208E+03  0.7561462E-02  0.1202801E+00
          2   -1    0    0  501    0  0.00000000000E+00  0.00000000000E+00  0.37473012152E+02  0.37473012152E+02  0.00000000000E+00 0.  1.
         -2   -1    0    0    0  501 -0.00000000000E+00 -0.00000000000E+00 -0.78671456799E+03  0.78671456799E+03  0.00000000000E+00 0. -1.
         25    2    1    2    0    0 -0.98994340654E+02 -0.43938427445E+02 -0.58420934787E+03  0.60718883421E+03  0.12508898179E+03 0.  0.
          5    1    3    3  502    0 -0.46310663105E+01  0.36646795250E+02 -0.85047160955E+02  0.92816627626E+02  0.41800000000E+01 0. -1.
         -5    1    3    3    0  502 -0.94363274344E+02 -0.80585222696E+02 -0.49916218692E+03  0.51437220659E+03  0.41800000000E+01 0. -1.
        -11    1    1    2    0    0 -0.12969343607E+02  0.13842343368E+02 -0.54291023627E+01  0.19730420573E+02  0.00000000000E+00 0.  1.
         11    1    1    2    0    0  0.11196368426E+03  0.30096084077E+02 -0.15960310560E+03  0.19726832536E+03  0.00000000000E+00 0. -1.
</event>
<event>
 7    1  0.2666594E-009  0.1119569E+03  0.7561462E-02  0.1256988E+00
         -1   -1    0    0    0  501 -0.00000000000E+00  0.00000000000E+00  0.43046762621E+02  0.43046762621E+02  0.00000000000E+00 0.  1.
          1   -1    0    0  501    0  0.00000000000E+00 -0.00000000000E+00 -0.53933091804E+03  0.53933091804E+03  0.00000000000E+00 0. -1.
         25    2    1    2    0    0 -0.45657906595E+02  0.12682062971E+02 -0.83577711404E+02  0.15772786494E+03  0.12508943353E+03 0.  0.
          5    1    3    3  502    0  0.15260697876E+02 -0.45821918887E+02 -0.22695545692E+02  0.53526604081E+02  0.41800000000E+01 0. -1.
         -5    1    3    3    0  502 -0.60918604471E+02  0.58503981858E+02 -0.60882165712E+02  0.10420126086E+03  0.41800000000E+01 0. -1.
        -11    1    1    2    0    0  0.22628062855E+01  0.29952162435E+02 -0.64272431836E+02  0.70945033800E+02  0.00000000000E+00 0.  1.
         11    1    1    2    0    0  0.43395100309E+02 -0.42634225405E+02 -0.34843401218E+03  0.35370478191E+03  0.00000000000E+00 0. -1.
</event>
<event>
 7    1  0.2666594E-009  0.1655621E+03  0.7561462E-02  0.1182557E+00
         -1   -1    0    0    0  501 -0.00000000000E+00  0.00000000000E+00  0.67166158791E+02  0.67166158791E+02  0.00000000000E+00 0.  1.
          1   -1    0    0  501    0  0.00000000000E+00 -0.00000000000E+00 -0.55580885196E+03  0.55580885196E+03  0.00000000000E+00 0. -1.
         25    2    1    2    0    0  0.10252734433E+03 -0.12042169463E+03 -0.22369192402E+03  0.30116055523E+03  0.12508541995E+03 0.  0.
          5    1    3    3  502    0  0.59590542649E+02 -0.30759794369E+02 -0.13396303440E+02  0.68513729053E+02  0.41800000000E+01 0.  1.
         -5    1    3    3    0  502  0.42936801684E+02 -0.89661900262E+02 -0.21029562058E+03  0.23264682618E+03  0.41800000000E+01 0.  1.
        -11    1    1    2    0    0 -0.50255168263E+02  0.26181351161E+02 -0.16638771588E+03  0.17577234447E+03  0.00000000000E+00 0. -1.
         11    1    1    2    0    0 -0.52272176069E+02  0.94240343469E+02 -0.98563053270E+02  0.14604211104E+03  0.00000000000E+00 0.  1.
</event>
<event>
 7    1  0.2666594E-009  0.1229328E+03  0.7561462E-02  0.1238336E+00
         -2   -1    0    0    0  501 -0.00000000000E+00  0.00000000000E+00  0.34345063710E+02  0.34345063710E+02  0.00000000000E+00 0.  1.
          2   -1    0    0  501    0  0.00000000000E+00 -0.00000000000E+00 -0.60283977833E+03  0.60283977833E+03  0.00000000000E+00 0. -1.
         25    2    1    2    0    0 -0.51012460838E+02 -0.74339880089E+02 -0.24245279698E+03  0.28733177029E+03  0.12508996172E+03 0.  0.
          5    1    3    3  502    0 -0.65358356110E+02 -0.83566742234E+02 -0.10697001221E+03  0.15071553016E+03  0.41800000000E+01 0. -1.
         -5    1    3    3    0  502  0.14345895272E+02  0.92268621451E+01 -0.13548278478E+03  0.13661624013E+03  0.41800000000E+01 0. -1.
        -11    1    1    2    0    0  0.38439065627E+02  0.92428156571E+02 -0.29690500056E+03  0.31332587708E+03  0.00000000000E+00 0. -1.
         11    1    1    2    0    0  0.12573395211E+02 -0.18088276482E+02 -0.29136917081E+02  0.36527194667E+02  0.00000000000E+00 0.  1.
</event>
<event>
 7    1  0.2666594E-009  0.1027076E+03  0.7561462E-02  0.1274703E+00
         -2   -1    0    0    0  501 -0.00000000000E+00  0.00000000000E+00  0.19399954663E+03  0.19399954663E+03  0.00000000000E+00 0.  1.
          2   -1    0    0  501    0  0.00000000000E+00 -0.00000000000E+00 -0.56564604024E+02  0.56564604024E+02  0.00000000000E+00 0. -1.
         25    2    1    2    0    0  0.17134816364E+02 -0.19551289746E+02  0.82946808064E+02  0.15231045715E+03  0.12506977064E+03 0.  0.
          5    1    3    3  502    0  0.62666833980E+02  0.19336787698E+02  0.29871084728E+02  0.72185854171E+02  0.41800000000E+01 0. -1.
         -5    1    3    3    0  502 -0.45532017616E+02 -0.38888077444E+02  0.53075723336E+02  0.80124602983E+02  0.41800000000E+01 0. -1.
        -11    1    1    2    0    0  0.26329621315E+02  0.24455728433E+02  0.35684127005E+02  0.50642753992E+02  0.00000000000E+00 0.  1.
         11    1    1    2    0    0 -0.43464437680E+02 -0.49044386872E+01  0.18804007541E+02  0.47610939513E+02  0.00000000000E+00 0. -1.
</event>
<event>
 7    1  0.2666594E-009  0.7925946E+02  0.7561462E-02  0.1331166E+00
          2   -1    0    0  501    0  0.00000000000E+00  0.00000000000E+00  0.55526189662E+02  0.55526189662E+02  0.00000000000E+00 0. -1.
         -2   -1    0    0    0  501 -0.00000000000E+00 -0.00000000000E+00 -0.26705038829E+03  0.26705038829E+03  0.00000000000E+00 0.  1.
         25    2    1    2    0    0 -0.19202759033E+02 -0.48179501555E+02 -0.94894228701E+02  0.16535716427E+03  0.12509223321E+03 0.  0.
          5    1    3    3  502    0 -0.33419104496E+02 -0.46010480484E+01  0.21480315644E+02  0.40210478095E+02  0.41800000000E+01 0.  1.
         -5    1    3    3    0  502  0.14216345463E+02 -0.43578453507E+02 -0.11637454434E+03  0.12514668617E+03  0.41800000000E+01 0.  1.
        -11    1    1    2    0    0  0.33757932213E+02  0.53280441261E+02 -0.31127814731E+02  0.70337360330E+02  0.00000000000E+00 0. -1.
         11    1    1    2    0    0 -0.14555173180E+02 -0.51009397055E+01 -0.85502155195E+02  0.86882053355E+02  0.00000000000E+00 0.  1.
</event>
<event>
 7    1  0.2666594E-009  0.1018100E+03  0.7561462E-02  0.1276535E+00
         -2   -1    0    0    0  501 -0.00000000000E+00  0.00000000000E+00  0.59810585038E+02  0.59810585038E+02  0.00000000000E+00 0.  1.
          2   -1    0    0  501    0  0.00000000000E+00 -0.00000000000E+00 -0.21308252672E+03  0.21308252672E+03  0.00000000000E+00 0. -1.
         25    2    1    2    0    0  0.28206083955E+02 -0.23530346756E+02 -0.78304283437E+02  0.15208114496E+03  0.12509138042E+03 0.  0.
          5    1    3    3  502    0  0.57299191159E+02 -0.45297031640E+02 -0.89921709649E+01  0.73711260480E+02  0.41800000000E+01 0. -1.
         -5    1    3    3    0  502 -0.29093107204E+02  0.21766684884E+02 -0.69312112472E+02  0.78369884478E+02  0.41800000000E+01 0. -1.
        -11    1    1    2    0    0  0.23654598373E+02  0.33564831882E+02 -0.40899596888E+02  0.57956147120E+02  0.00000000000E+00 0. -1.
         11    1    1    2    0    0 -0.51860682329E+02 -0.10034485126E+02 -0.34068061361E+02  0.62855819684E+02  0.00000000000E+00 0.  1.
</event>
<event>
 7    1  0.2666594E-009  0.1401268E+03  0.7561462E-02  0.1213158E+00
         -2   -1    0    0    0  501 -0.00000000000E+00  0.00000000000E+00  0.62574733374E+02  0.62574733374E+02  0.00000000000E+00 0.  1.
          2   -1    0    0  501    0  0.00000000000E+00 -0.00000000000E+00 -0.37779094657E+03  0.37779094657E+03  0.00000000000E+00 0. -1.
         25    2    1    2    0    0  0.48205368709E+02  0.79928469364E+02 -0.91267809238E+02  0.18080594243E+03  0.12509459631E+03 0.  0.
          5    1    3    3  502    0 -0.16998894852E+02  0.87746922746E+02 -0.43485052259E+02  0.99483199826E+02  0.41800000000E+01 0. -1.
         -5    1    3    3    0  502  0.65204263562E+02 -0.78184533817E+01 -0.47782756979E+02  0.81322742603E+02  0.41800000000E+01 0. -1.
        -11    1    1    2    0    0 -0.28584265684E+02  0.11980390746E+02 -0.26077376473E+02  0.40504562345E+02  0.00000000000E+00 0.  1.
         11    1    1    2    0    0 -0.19621103025E+02 -0.91908860110E+02 -0.19787102748E+03  0.21905517517E+03  0.00000000000E+00 0. -1.
</event>
<event>
 7    1  0.3829084E-009  0.1230000E+03  0.7561462E-02  0.1238228E+00
         -2   -1    0    0    0  501 -0.00000000000E+00  0.00000000000E+00  0.31382896614E+03  0.31382896614E+03  0.00000000000E+00 0.  1.
          2   -1    0    0  501    0  0.00000000000E+00 -0.00000000000E+00 -0.76383826400E+02  0.76383826400E+02  0.00000000000E+00 0. -1.
         25    2    1    2    0    0  0.76604769837E+02 -0.72406669496E+02  0.16744668991E+03  0.23408731802E+03  0.12508981551E+03 0.  0.
          5    1    3    3  502    0 -0.12112319944E+02 -0.45945898439E+02  0.12174909233E+03  0.13075950352E+03  0.41800000000E+01 0.  1.
         -5    1    3    3    0  502  0.88717089781E+02 -0.26460771058E+02  0.45697597584E+02  0.10332781450E+03  0.41800000000E+01 0.  1.
        -11    1    1    2    0    0 -0.43132736818E+02  0.36104874990E+02 -0.14651664078E+02  0.58126295631E+02  0.00000000000E+00 0.  1.
         11    1    1    2    0    0 -0.33472033019E+02  0.36301794506E+02  0.84650113902E+02  0.97999178887E+02  0.00000000000E+00 0. -1.
</event>
<event>
 7    1  0.2666594E-009  0.9383664E+02  0.7561462E-02  0.1293818E+00
         -1   -1    0    0    0  501 -0.00000000000E+00  0.00000000000E+00  0.39816025109E+02  0.39816025109E+02  0.00000000000E+00 0.  1.
          1   -1    0    0  501    0  0.00000000000E+00 -0.00000000000E+00 -0.30618618055E+03  0.30618618055E+03  0.00000000000E+00 0. -1.
         25    2    1    2    0    0  0.18549030337E+02 -0.20173781826E+02 -0.14826412772E+03  0.19591099843E+03  0.12509124564E+03 0.  0.
          5    1    3    3  502    0 -0.52124530351E+02  0.57289483336E+01 -0.64055850883E+02  0.82887948133E+02  0.41800000000E+01 0. -1.
         -5    1    3    3    0  502  0.70673560688E+02 -0.25902730159E+02 -0.84208276836E+02  0.11302305029E+03  0.41800000000E+01 0. -1.
        -11    1    1    2    0    0 -0.37344888998E+02  0.14304733842E+02 -0.12338583398E+03  0.12970478084E+03  0.00000000000E+00 0. -1.
         11    1    1    2    0    0  0.18795858661E+02  0.58690479840E+01  0.52798062594E+01  0.20386426396E+02  0.00000000000E+00 0.  1.
</event>
<event>
 7    1  0.2666594E-009  0.1183477E+03  0.7561462E-02  0.1245848E+00
         -4   -1    0    0    0  501 -0.00000000000E+00  0.00000000000E+00  0.41029479043E+03  0.41029479043E+03  0.00000000000E+00 0.  1.
          4   -1    0    0  501    0  0.00000000000E+00 -0.00000000000E+00 -0.52215907153E+02  0.52215907153E+02  0.00000000000E+00 0. -1.
         25    2    1    2    0    0 -0.61589798605E+01  0.63501641847E+02  0.31058005842E+03  0.34085031134E+03  0.12509424648E+03 0.  0.
          5    1    3    3  502    0 -0.20804094766E+02  0.95067770624E+02  0.16962901363E+03  0.19560717276E+03  0.41800000000E+01 0.  1.
         -5    1    3    3    0  502  0.14645114905E+02 -0.31566128777E+02  0.14095104479E+03  0.14524313858E+03  0.41800000000E+01 0.  1.
        -11    1    1    2    0    0  0.32594723350E+02  0.29452090761E+01 -0.47823666476E+01  0.33075085450E+02  0.00000000000E+00 0. -1.
         11    1    1    2    0    0 -0.26435743490E+02 -0.66446850923E+02  0.52281191499E+02  0.88585300789E+02  0.00000000000E+00 0.  1.
</event>
<event>
 7    1  0.2666594E-009  0.1264400E+03  0.7561462E-02  0.1232836E+00
          1   -1    0    0  501    0  0.00000000000E+00  0.00000000000E+00  0.20192551110E+03  0.20192551110E+03  0.00000000000E+00 0. -1.
         -1   -1    0    0    0  501 -0.00000000000E+00 -0.00000000000E+00 -0.12158217146E+03  0.12158217146E+03  0.00000000000E+00 0.  1.
         25    2    1    2    0    0  0.62709008960E+02  0.30228227601E+02  0.13859254685E+03  0.19925192026E+03  0.12508904083E+03 0.  0.
          5    1    3    3  502    0 -0.27215919453E+02  0.44180186063E+02  0.50557445870E+02  0.72568056644E+02  0.41800000000E+01 0. -1.
         -5    1    3    3    0  502  0.89924928413E+02 -0.13951958462E+02  0.88035100982E+02  0.12668386361E+03  0.41800000000E+01 0. -1.
        -11    1    1    2    0    0  0.66742932434E+01 -0.39199777140E+02 -0.22552145190E+02  0.45713980037E+02  0.00000000000E+00 0. -1.
         11    1    1    2    0    0 -0.69383302203E+02  0.89715495391E+01 -0.35697062019E+02  0.78541782272E+02  0.00000000000E+00 0.  1.
</event>
<event>
 7    1  0.2666594E-009  0.1332140E+03  0.7561462E-02  0.1222763E+00
         -2   -1    0    0    0  501 -0.00000000000E+00  0.00000000000E+00  0.38916857924E+03  0.38916857924E+03  0.00000000000E+00 0.  1.
          2   -1    0    0  501    0  0.00000000000E+00 -0.00000000000E+00 -0.53161139386E+02  0.53161139386E+02  0.00000000000E+00 0. -1.
         25    2    1    2    0    0 -0.86259787972E+02  0.16923658272E+02  0.23456257068E+03  0.27999038459E+03  0.12509138527E+03 0.  0.
          5    1    3    3  502    0  0.26564418838E+02  0.24384211360E+01  0.10078843402E+03  0.10434268100E+03  0.41800000000E+01 0. -1.
         -5    1    3    3    0  502 -0.11282420681E+03  0.14485237137E+02  0.13377413665E+03  0.17564770358E+03  0.41800000000E+01 0. -1.
        -11    1    1    2    0    0  0.85234238631E+02  0.20902004972E+02  0.80508034504E+02  0.11909371464E+03  0.00000000000E+00 0.  1.
         11    1    1    2    0    0  0.10255493412E+01 -0.37825663245E+02  0.20936834678E+02  0.43245619405E+02  0.00000000000E+00 0. -1.
</event>
<event>
 7    1  0.2666594E-009  0.1125399E+03  0.7561462E-02  0.1255937E+00
          1   -1    0    0  501    0  0.00000000000E+00  0.00000000000E+00  0.35896069352E+02  0.35896069352E+02  0.00000000000E+00 0. -1.
         -1   -1    0    0    0  501 -0.00000000000E+00 -0.00000000000E+00 -0.51944140649E+03  0.51944140649E+03  0.00000000000E+00 0.  1.
         25    2    1    2    0    0 -0.58585307719E+01  0.78513706522E+02 -0.31295400291E+03  0.34610179559E+03  0.12509004948E+03 0.  0.
          5    1    3    3  502    0  0.44506175831E+02  0.77306768415E+02 -0.14125448788E+03  0.16711504683E+03  0.41800000000E+01 0. -1.
         -5    1    3    3    0  502 -0.50364706603E+02  0.12069381065E+01 -0.17169951503E+03  0.17898674876E+03  0.41800000000E+01 0. -1.
        -11    1    1    2    0    0  0.19134802662E+02 -0.54869439737E+02 -0.28764342984E+02  0.64839675487E+02  0.00000000000E+00 0. -1.
         11    1    1    2    0    0 -0.13276271890E+02 -0.23644266785E+02 -0.14182699125E+03  0.14439600477E+03  0.00000000000E+00 0.  1.
</event>
<event>
 7    1  0.2666594E-009  0.2358071E+03  0.7561462E-02  0.1122618E+00
         -2   -1    0    0    0  501 -0.00000000000E+00  0.00000000000E+00  0.85839438886E+02  0.85839438886E+02  0.00000000000E+00 0.  1.
          2   -1    0    0  501    0  0.00000000000E+00 -0.00000000000E+00 -0.84132412738E+03  0.84132412738E+03  0.00000000000E+00 0. -1.
         25    2    1    2    0    0  0.77274877675E+02 -0.21211494662E+03 -0.55261414087E+03  0.60991447242E+03  0.12509643353E+03 0.  0.
          5    1    3    3  502    0  0.89039909349E+01 -0.13583508504E+03 -0.19468736969E+03  0.23759439324E+03  0.41800000000E+01 0.  1.
         -5    1    3    3    0  502  0.68370886740E+02 -0.76279861586E+02 -0.35792677118E+03  0.37232007918E+03  0.41800000000E+01 0.  1.
        -11    1    1    2    0    0 -0.24820943774E+02  0.14798553677E+03 -0.17340899855E+03  0.22931742002E+03  0.00000000000E+00 0.  1.
         11    1    1    2    0    0 -0.52453933900E+02  0.64129409847E+02 -0.29461549080E+02  0.87931673833E+02  0.00000000000E+00 0. -1.
</event>
<event>
 7    1  0.2666594E-009  0.1218111E+03  0.7561462E-02  0.1240139E+00
          2   -1    0    0  501    0  0.00000000000E+00  0.00000000000E+00  0.77371769285E+03  0.77371769285E+03  0.00000000000E+00 0.  1.
         -2   -1    0    0    0  501 -0.00000000000E+00 -0.00000000000E+00 -0.20569624148E+02  0.20569624148E+02  0.00000000000E+00 0. -1.
         25    2    1    2    0    0 -0.11579645048E+02  0.63046032671E+02  0.46889180323E+03  0.48950703682E+03  0.12509486621E+03 0.  0.
          5    1    3    3  502    0 -0.61782203721E+02  0.11160050975E+02  0.15280080643E+03  0.16524874063E+03  0.41800000000E+01 0.  1.
         -5    1    3    3    0  502  0.50202558673E+02  0.51885981696E+02  0.31609099679E+03  0.32425829619E+03  0.41800000000E+01 0.  1.
        -11    1    1    2    0    0 -0.35636583385E+02 -0.45988670092E+02  0.12670927384E+03  0.13942798833E+03  0.00000000000E+00 0. -1.
         11    1    1    2    0    0  0.47216228433E+02 -0.17057362579E+02  0.15754699163E+03  0.16535229184E+03  0.00000000000E+00 0.  1.
</event>
<event>
 7    1  0.2666594E-009  0.2744095E+03  0.7561462E-02  0.1098782E+00
         -1   -1    0    0    0  501 -0.00000000000E+00  0.00000000000E+00  0.83882272234E+02  0.83882272234E+02  0.00000000000E+00 0.  1.
          1   -1    0    0  501    0  0.00000000000E+00 -0.00000000000E+00 -0.10080101775E+04  0.10080101775E+04  0.00000000000E+00 0. -1.
         25    2    1    2    0    0  0.49753745045E+02  0.24885101449E+03 -0.63898395402E+03  0.69881957608E+03  0.12508414715E+03 0.  0.
          5    1    3    3  502    0  0.88108957113E+02  0.16860484846E+03 -0.38045474850E+03  0.42538696654E+03  0.41800000000E+01 0. -1.
         -5    1    3    3    0  502 -0.38355212068E+02  0.80246166035E+02 -0.25852920552E+03  0.27343260954E+03  0.41800000000E+01 0. -1.
        -11    1    1    2    0    0  0.13170225509E+02 -0.16043036177E+03 -0.15306069305E+03  0.22212368530E+03  0.00000000000E+00 0.  1.
         11    1    1    2    0    0 -0.62923970554E+02 -0.88420652722E+02 -0.13208325819E+03  0.17094918834E+03  0.00000000000E+00 0. -1.
</event>
<event>
 7    1  0.2666594E-009  0.1034490E+03  0.7561462E-02  0.1273206E+00
          1   -1    0    0  501    0  0.00000000000E+00  0.00000000000E+00  0.25266893140E+02  0.25266893140E+02  0.00000000000E+00 0. -1.
         -1   -1    0    0    0  501 -0.00000000000E+00 -0.00000000000E+00 -0.51407636722E+03  0.51407636722E+03  0.00000000000E+00 0.  1.
         25    2    1    2    0    0  0.17097689807E+02 -0.66976593624E+01 -0.37734171271E+03  0.39795898447E+03  0.12508955006E+03 0.  0.
          5    1    3    3  502    0 -0.42102279806E+02  0.31792082538E+02 -0.12164940443E+03  0.13266268683E+03  0.41800000000E+01 0.  1.
         -5    1    3    3    0  502  0.59199969613E+02 -0.38489741901E+02 -0.25569230828E+03  0.26529629765E+03  0.41800000000E+01 0.  1.
        -11    1    1    2    0    0  0.15993863927E+02  0.35775292270E+02 -0.73210866404E+02  0.83039184605E+02  0.00000000000E+00 0.  1.
         11    1    1    2    0    0 -0.33091553735E+02 -0.29077632907E+02 -0.38256894968E+02  0.58345091281E+02  0.00000000000E+00 0. -1.
</event>
<event>
 7    1  0.2666594E-009  0.1940559E+03  0.7561462E-02  0.1154853E+00
         -1   -1    0    0    0  501 -0.00000000000E+00  0.00000000000E+00  0.94864113888E+02  0.94864113888E+02  0.00000000000E+00 0.  1.
          1   -1    0    0  501    0  0.00000000000E+00 -0.00000000000E+00 -0.48668463226E+03  0.48668463226E+03  0.00000000000E+00 0. -1.
         25    2    1    2    0    0  0.15047686728E+03 -0.10294625245E+03 -0.25047351362E+03  0.33410495354E+03  0.12509164830E+03 0.  0.
          5    1    3    3  502    0  0.20283245798E+02  0.17562944727E+02 -0.92900119324E+02  0.96787249460E+02  0.41800000000E+01 0.  1.
         -5    1    3    3    0  502  0.13019362148E+03 -0.12050919718E+03 -0.15757339429E+03  0.23731770408E+03  0.41800000000E+01 0.  1.
        -11    1    1    2    0    0 -0.79759584755E+02  0.41975825655E+02 -0.16638425502E+02  0.91653687885E+02  0.00000000000E+00 0.  1.
         11    1    1    2    0    0 -0.70717282526E+02  0.60970426795E+02 -0.12470857926E+03  0.15579010473E+03  0.00000000000E+00 0. -1.
</event>
<event>
 7    1  0.2666594E-009  0.1107745E+03  0.7561462E-02  0.1259142E+00
          4   -1    0    0  501    0  0.00000000000E+00  0.00000000000E+00  0.19557501387E+03  0.19557501387E+03  0.00000000000E+00 0. -1.
         -4   -1    0    0    0  501 -0.00000000000E+00 -0.00000000000E+00 -0.83538340951E+02  0.83538340951E+02  0.00000000000E+00 0.  1.
         25    2    1    2    0    0 -0.32748120644E+02  0.25691094424E+02  0.82099157360E+02  0.15530532945E+03  0.12508797695E+03 0.  0.
          5    1    3    3  502    0  0.65717196917E+01 -0.31185855487E+02 -0.15449005877E+02  0.35663556535E+02  0.41800000000E+01 0.  1.
         -5    1    3    3    0  502 -0.39319840336E+02  0.56876949911E+02  0.97548163237E+02  0.11964177291E+03  0.41800000000E+01 0.  1.
        -11    1    1    2    0    0 -0.42303222454E+02 -0.91681179510E+01  0.10836796407E+02  0.44621218866E+02  0.00000000000E+00 0.  1.
         11    1    1    2    0    0  0.75051343098E+02 -0.16522976473E+02  0.19100719153E+02  0.79186806505E+02  0.00000000000E+00 0. -1.
</event>
<event>
 7    1  0.2666594E-009  0.9628921E+02  0.7561462E-02  0.1288299E+00
          1   -1    0    0  501    0  0.00000000000E+00  0.00000000000E+00  0.23667743019E+02  0.23667743019E+02  0.00000000000E+00 0. -1.
         -1   -1    0    0    0  501 -0.00000000000E+00 -0.00000000000E+00 -0.71443150969E+03  0.71443150969E+03  0.00000000000E+00 0.  1.
         25    2    1    2    0    0  0.58210227251E+02  0.33947681893E+02 -0.28946421949E+03  0.32245544430E+03  0.12508838286E+03 0.  0.
          5    1    3    3  502    0 -0.39543360889E+01 -0.11929083566E+02  0.77431854511E+01  0.15341744671E+02  0.41800000000E+01 0.  1.
         -5    1    3    3    0  502  0.62164563340E+02  0.45876765458E+02 -0.29720740494E+03  0.30711369963E+03  0.41800000000E+01 0.  1.
        -11    1    1    2    0    0 -0.57660781160E+02  0.95617238037E+01 -0.15757912158E+03  0.16806954454E+03  0.00000000000E+00 0. -1.
         11    1    1    2    0    0 -0.54944609065E+00 -0.43509405697E+02 -0.24372042560E+03  0.24757426387E+03  0.00000000000E+00 0.  1.
</event>
<event>
 7    1  0.2666594E-009  0.1884874E+03  0.7561462E-02  0.1159833E+00
         -2   -1    0    0    0  501 -0.00000000000E+00  0.00000000000E+00  0.51619174506E+02  0.51619174506E+02  0.00000000000E+00 0.  1.
          2   -1    0    0  501    0  0.00000000000E+00 -0.00000000000E+00 -0.85975977689E+03  0.85975977689E+03  0.00000000000E+00 0. -1.
         25    2    1    2    0    0 -0.15545350592E+03  0.71920899439E+02 -0.28804183740E+03  0.35770716944E+03  0.12509160924E+03 0.  0.
          5    1    3    3  502    0 -0.61496189243E+01 -0.20670242581E+02 -0.91314547643E+02  0.93919623895E+02  0.41800000000E+01 0.  1.
         -5    1    3    3    0  502 -0.14930388700E+03  0.92591142021E+02 -0.19672728976E+03  0.26378754555E+03  0.41800000000E+01 0.  1.
        -11    1    1    2    0    0  0.97781556701E+02 -0.16261681937E+02 -0.37530767660E+03  0.38817718538E+03  0.00000000000E+00 0.  1.
         11    1    1    2    0    0  0.57671949220E+02 -0.55659217502E+02 -0.14479108838E+03  0.16549459657E+03  0.00000000000E+00 0. -1.
</event>
<event>
 7    1  0.2666594E-009  0.1313750E+03  0.7561462E-02  0.1225430E+00
          2   -1    0    0  501    0  0.00000000000E+00  0.00000000000E+00  0.71534381656E+02  0.71534381656E+02  0.00000000000E+00 0. -1.
         -2   -1    0    0    0  501 -0.00000000000E+00 -0.00000000000E+00 -0.28282048820E+03  0.28282048820E+03  0.00000000000E+00 0.  1.
         25    2    1    2    0    0  0.10753956094E+02  0.90072354539E+02 -0.94118238859E+02  0.18092633865E+03  0.12508964988E+03 0.  0.
          5    1    3    3  502    0 -0.51418058193E+02  0.16162407870E+02 -0.53531560131E+02  0.76079829565E+02  0.41800000000E+01 0. -1.
         -5    1    3    3    0  502  0.62172014286E+02  0.73909946669E+02 -0.40586678728E+02  0.10484650908E+03  0.41800000000E+01 0. -1.
        -11    1    1    2    0    0  0.20156391831E+02 -0.74936996733E+02 -0.11527311166E+03  0.13895943251E+03  0.00000000000E+00 0.  1.
         11    1    1    2    0    0 -0.30910347924E+02 -0.15135357806E+02 -0.18947560243E+01  0.34469098699E+02  0.00000000000E+00 0. -1.
</event>
<event>
 7    1  0.2666594E-009  0.1123415E+03  0.7561462E-02  0.1256294E+00
         -2   -1    0    0    0  501 -0.00000000000E+00  0.00000000000E+00  0.12384622330E+03  0.12384622330E+03  0.00000000000E+00 0.  1.
          2   -1    0    0  501    0  0.00000000000E+00 -0.00000000000E+00 -0.13636142244E+03  0.13636142244E+03  0.00000000000E+00 0. -1.
         25    2    1    2    0    0  0.32734761798E+02  0.32813605524E+02 -0.60949621578E+02  0.14666827136E+03  0.12509367736E+03 0.  0.
          5    1    3    3  502    0 -0.67248920317E+01  0.68768643065E+02 -0.62263255365E+02  0.93104971997E+02  0.41800000000E+01 0.  1.
         -5    1    3    3    0  502  0.39459653830E+02 -0.35955037541E+02  0.13136337869E+01  0.53563299363E+02  0.41800000000E+01 0.  1.
        -11    1    1    2    0    0  0.29063660690E+02  0.49605242764E+01  0.20500113022E+02  0.35910413638E+02  0.00000000000E+00 0.  1.
         11    1    1    2    0    0 -0.61798422488E+02 -0.37774129800E+02  0.27934309419E+02  0.77628960748E+02  0.00000000000E+00 0. -1.
</event>
<event>
 7    1  0.2666594E-009  0.2434475E+03  0.7561462E-02  0.1117517E+00
         -1   -1    0    0    0  501 -0.00000000000E+00  0.00000000000E+00  0.15172245844E+03  0.15172245844E+03  0.00000000000E+00 0.  1.
          1   -1    0    0  501    0  0.00000000000E+00 -0.00000000000E+00 -0.42713487102E+03  0.42713487102E+03  0.00000000000E+00 0. -1.
         25    2    1    2    0    0  0.22684773919E+03  0.78511075158E+01 -0.18121515836E+03  0.31623921111E+03  0.12508704312E+03 0.  0.
          5    1    3    3  502    0  0.15380700126E+03  0.63195277501E+02 -0.10266121660E+03  0.19546619791E+03  0.41800000000E+01 0. -1.
         -5    1    3    3    0  502  0.73040737934E+02 -0.55344169985E+02 -0.78553941759E+02  0.12077301319E+03  0.41800000000E+01 0. -1.
        -11    1    1    2    0    0 -0.90339667131E+02  0.11050285093E+02  0.75366416671E+01  0.91324505066E+02  0.00000000000E+00 0.  1.
         11    1    1    2    0    0 -0.13650807206E+03 -0.18901392608E+02 -0.10173389589E+03  0.17129361329E+03  0.00000000000E+00 0. -1.
</event>
<event>
 7    1  0.2666594E-009  0.2105337E+03  0.7561462E-02  0.1141144E+00
          4   -1    0    0  501    0  0.00000000000E+00  0.00000000000E+00  0.12882545181E+03  0.12882545181E+03  0.00000000000E+00 0. -1.
         -4   -1    0    0    0  501 -0.00000000000E+00 -0.00000000000E+00 -0.41274199299E+03  0.41274199299E+03  0.00000000000E+00 0.  1.
         25    2    1    2    0    0 -0.10921744057E+03 -0.17051661219E+03 -0.13359053327E+03  0.27294633003E+03  0.12509558000E+03 0.  0.
          5    1    3    3  502    0 -0.78857428227E+02 -0.52057279491E+02 -0.39270019578E+01  0.94664397104E+02  0.41800000000E+01 0. -1.
         -5    1    3    3    0  502 -0.30360012347E+02 -0.11845933270E+03 -0.12966353132E+03  0.17828193292E+03  0.41800000000E+01 0. -1.
        -11    1    1    2    0    0  0.84606690522E+02  0.10984130795E+03 -0.14843590960E+03  0.20311726729E+03  0.00000000000E+00 0.  1.
         11    1    1    2    0    0  0.24610750052E+02  0.60675304242E+02 -0.18900983097E+01  0.65503847480E+02  0.00000000000E+00 0. -1.
</event>
<event>
 7    1  0.2666594E-009  0.1164493E+03  0.7561462E-02  0.1249072E+00
          2   -1    0    0  501    0  0.00000000000E+00  0.00000000000E+00  0.57193260973E+02  0.57193260973E+02  0.00000000000E+00 0.  1.
         -2   -1    0    0    0  501 -0.00000000000E+00 -0.00000000000E+00 -0.71524143006E+03  0.71524143006E+03  0.00000000000E+00 0. -1.
         25    2    1    2    0    0  0.10645026875E+02  0.85453261772E+02 -0.63213003448E+02  0.16449093547E+03  0.12508320231E+03 0.  0.
          5    1    3    3  502    0  0.39907600527E+02  0.78847675708E+02 -0.88423601601E+02  0.12508308545E+03  0.41800000000E+01 0.  1.
         -5    1    3    3    0  502 -0.29262573652E+02  0.66055860638E+01  0.25210598153E+02  0.39407850020E+02  0.41800000000E+01 0.  1.
        -11    1    1    2    0    0 -0.24119729368E+02 -0.94747943936E+02 -0.56914515384E+03  0.57748172297E+03  0.00000000000E+00 0. -1.
         11    1    1    2    0    0  0.13474702493E+02  0.92946821639E+01 -0.25690011798E+02  0.30462032597E+02  0.00000000000E+00 0.  1.
</event>
<event>
 7    1  0.2666594E-009  0.3100418E+03  0.7561462E-02  0.1080326E+00
          2   -1    0    0  501    0  0.00000000000E+00  0.00000000000E+00  0.96396528135E+03  0.96396528135E+03  0.00000000000E+00 0. -1.
         -2   -1    0    0    0  501 -0.00000000000E+00 -0.00000000000E+00 -0.10788288684E+03  0.10788288684E+03  0.00000000000E+00 0.  1.
         25    2    1    2    0    0  0.19738454637E+03  0.22703915132E+03  0.35406702026E+03  0.48116293241E+03  0.12508747860E+03 0.  0.
          5    1    3    3  502    0  0.93866875501E+02  0.18039448451E+03  0.17111993202E+03  0.26580568823E+03  0.41800000000E+01 0.  1.
         -5    1    3    3    0  502  0.10351767087E+03  0.46644666814E+02  0.18294708824E+03  0.21535724418E+03  0.41800000000E+01 0.  1.
        -11    1    1    2    0    0 -0.11593882554E+03 -0.15994226013E+03  0.38760269258E+03  0.43503929149E+03  0.00000000000E+00 0. -1.
         11    1    1    2    0    0 -0.81445720837E+02 -0.67096891195E+02  0.11441268167E+03  0.15564594430E+03  0.00000000000E+00 0.  1.
</event>
<event>
 7    1  0.2666594E-009  0.2578122E+03  0.7561462E-02  0.1108465E+00
          2   -1    0    0  501    0  0.00000000000E+00  0.00000000000E+00  0.96600593439E+03  0.96600593439E+03  0.00000000000E+00 0. -1.
         -2   -1    0    0    0  501 -0.00000000000E+00 -0.00000000000E+00 -0.90792936516E+02  0.90792936516E+02  0.00000000000E+00 0.  1.
         25    2    1    2    0    0  0.17248757775E+03 -0.17956232437E+03  0.23857455423E+03  0.36682386337E+03  0.12508931207E+03 0.  0.
          5    1    3    3  502    0  0.48740485440E+02 -0.61013364326E+02  0.16034136766E+03  0.17839588597E+03  0.41800000000E+01 0.  1.
         -5    1    3    3    0  502  0.12374709231E+03 -0.11854896005E+03  0.78233186569E+02  0.18842797739E+03  0.41800000000E+01 0.  1.
        -11    1    1    2    0    0 -0.38118923806E+02 -0.42045692035E+01  0.92135324391E+02  0.99798039835E+02  0.00000000000E+00 0.  1.
         11    1    1    2    0    0 -0.13436865395E+03  0.18376689358E+03  0.54450311925E+03  0.59017696771E+03  0.00000000000E+00 0. -1.
</event>
<event>
 7    1  0.2666594E-009  0.9500924E+02  0.7561462E-02  0.1291155E+00
         -3   -1    0    0    0  501 -0.00000000000E+00  0.00000000000E+00  0.19625990867E+03  0.19625990867E+03  0.00000000000E+00 0.  1.
          3   -1    0    0  501    0  0.00000000000E+00 -0.00000000000E+00 -0.71067235968E+02  0.71067235968E+02  0.00000000000E+00 0. -1.
         25    2    1    2    0    0  0.41060567575E+02  0.21431246000E+02  0.77126949402E+02  0.15409167713E+03  0.12510159920E+03 0.  0.
          5    1    3    3  502    0 -0.21314391178E+01 -0.35477795818E+02 -0.13820877102E+02  0.38362821490E+02  0.41800000000E+01 0.  1.
         -5    1    3    3    0  502  0.43192006693E+02  0.56909041818E+02  0.90947826504E+02  0.11572885564E+03  0.41800000000E+01 0.  1.
        -11    1    1    2    0    0 -0.60439894579E+02 -0.17026367312E+02  0.62560120456E+02  0.88637727363E+02  0.00000000000E+00 0.  1.
         11    1    1    2    0    0  0.19379327004E+02 -0.44048786884E+01 -0.14494397153E+02  0.24597740145E+02  0.00000000000E+00 0. -1.
</event>
<event>
 7    1  0.2666594E-009  0.1226340E+03  0.7561462E-02  0.1238814E+00
          2   -1    0    0  501    0  0.00000000000E+00  0.00000000000E+00  0.15116832439E+03  0.15116832439E+03  0.00000000000E+00 0. -1.
         -2   -1    0    0    0  501 -0.00000000000E+00 -0.00000000000E+00 -0.35561821917E+03  0.35561821917E+03  0.00000000000E+00 0.  1.
         25    2    1    2    0    0  0.54775626202E+02  0.28795635568E+02 -0.31859425633E+03  0.34782136085E+03  0.12509133081E+03 0.  0.
          5    1    3    3  502    0  0.91676141661E+02 -0.91958113094E+00 -0.21902010274E+03  0.23747134224E+03  0.41800000000E+01 0.  1.
         -5    1    3    3    0  502 -0.36900515459E+02  0.29715216699E+02 -0.99574153590E+02  0.11035001861E+03  0.41800000000E+01 0.  1.
        -11    1    1    2    0    0 -0.31268311258E+02  0.29553079355E+02  0.24685287739E+02  0.49602975909E+02  0.00000000000E+00 0.  1.
         11    1    1    2    0    0 -0.23507314945E+02 -0.58348714923E+02  0.89459073811E+02  0.10936220680E+03  0.00000000000E+00 0. -1.
</event>
<event>
 7    1  0.2666594E-009  0.1049483E+03  0.7561462E-02  0.1270222E+00
          2   -1    0    0  501    0  0.00000000000E+00  0.00000000000E+00  0.60641512043E+03  0.60641512043E+03  0.00000000000E+00 0. -1.
         -2   -1    0    0    0  501 -0.00000000000E+00 -0.00000000000E+00 -0.19959275687E+02  0.19959275687E+02  0.00000000000E+00 0.  1.
         25    2    1    2    0    0 -0.99642167553E+01 -0.18321297720E+02  0.30264387841E+03  0.32813284574E+03  0.12507154652E+03 0.  0.
          5    1    3    3  502    0  0.97804904065E+01 -0.68243029254E+02  0.12892161443E+03  0.14625670618E+03  0.41800000000E+01 0.  1.
         -5    1    3    3    0  502 -0.19744707162E+02  0.49921731534E+02  0.17372226398E+03  0.18187613956E+03  0.41800000000E+01 0.  1.
        -11    1    1    2    0    0 -0.30825744492E+02 -0.15028900960E+02  0.16087526858E+03  0.16448995845E+03  0.00000000000E+00 0. -1.
         11    1    1    2    0    0  0.40789961248E+02  0.33350198680E+02  0.12293669775E+03  0.13375159193E+03  0.00000000000E+00 0.  1.
</event>
<event>
 7    1  0.2666594E-009  0.8852753E+02  0.7561462E-02  0.1306457E+00
          2   -1    0    0  501    0  0.00000000000E+00  0.00000000000E+00  0.85998115808E+03  0.85998115808E+03  0.00000000000E+00 0. -1.
         -2   -1    0    0    0  501 -0.00000000000E+00 -0.00000000000E+00 -0.24271408699E+02  0.24271408699E+02  0.00000000000E+00 0.  1.
         25    2    1    2    0    0  0.49013996455E+02 -0.48673668010E+02  0.60273191301E+03  0.61943944260E+03  0.12509183141E+03 0.  0.
          5    1    3    3  502    0  0.51702025402E+02 -0.25091706120E+02  0.58877898973E+03  0.59159180546E+03  0.41800000000E+01 0.  1.
         -5    1    3    3    0  502 -0.26880289463E+01 -0.23581961890E+02  0.13952923283E+02  0.27847637141E+02  0.41800000000E+01 0.  1.
        -11    1    1    2    0    0 -0.17850758588E+00  0.46447718370E+02  0.20123366159E+03  0.20652459651E+03  0.00000000000E+00 0. -1.
         11    1    1    2    0    0 -0.48835488869E+02  0.22259496397E+01  0.31744174783E+02  0.58288527667E+02  0.00000000000E+00 0.  1.
</event>
<event>
 7    1  0.2666594E-009  0.1479841E+03  0.7561462E-02  0.1202972E+00
          2   -1    0    0  501    0  0.00000000000E+00  0.00000000000E+00  0.76950083941E+02  0.76950083941E+02  0.00000000000E+00 0. -1.
         -2   -1    0    0    0  501 -0.00000000000E+00 -0.00000000000E+00 -0.39584167075E+03  0.39584167075E+03  0.00000000000E+00 0.  1.
         25    2    1    2    0    0  0.17183764514E+02  0.12455168286E+03 -0.96478745851E+02  0.20190093014E+03  0.12508970272E+03 0.  0.
          5    1    3    3  502    0  0.60930145863E+02  0.10531172287E+03 -0.94102246000E+02  0.15386925213E+03  0.41800000000E+01 0. -1.
         -5    1    3    3    0  502 -0.43746381348E+02  0.19239959991E+02 -0.23764998501E+01  0.48031678016E+02  0.41800000000E+01 0. -1.
        -11    1    1    2    0    0 -0.11128486163E+02 -0.10900293864E+03 -0.22827135061E+03  0.25320602944E+03  0.00000000000E+00 0.  1.
         11    1    1    2    0    0 -0.60552783510E+01 -0.15548744214E+02  0.58585096510E+01  0.17684795104E+02  0.00000000000E+00 0. -1.
</event>
<event>
 7    1  0.3016604E-009  0.1734512E+03  0.7561462E-02  0.1174296E+00
         -1   -1    0    0    0  501 -0.00000000000E+00  0.00000000000E+00  0.24922800329E+03  0.24922800329E+03  0.00000000000E+00 0.  1.
          1   -1    0    0  501    0  0.00000000000E+00 -0.00000000000E+00 -0.14372375458E+03  0.14372375458E+03  0.00000000000E+00 0. -1.
         25    2    1    2    0    0  0.53922785596E+02 -0.14226376913E+03  0.83858577889E+02  0.21406934898E+03  0.12508708275E+03 0.  0.
          5    1    3    3  502    0  0.41841015680E+02 -0.19505195148E+02  0.77721539274E+02  0.90494382688E+02  0.41800000000E+01 0. -1.
         -5    1    3    3    0  502  0.12081769916E+02 -0.12275857398E+03  0.61370386151E+01  0.12357496629E+03  0.41800000000E+01 0. -1.
        -11    1    1    2    0    0  0.19945073861E+02  0.73670711746E+02  0.15573861424E+02  0.77895602573E+02  0.00000000000E+00 0. -1.
         11    1    1    2    0    0 -0.73867859457E+02  0.68593057382E+02  0.60718094006E+01  0.10098680632E+03  0.00000000000E+00 0.  1.
</event>
<event>
 7    1  0.2666594E-009  0.9782142E+02  0.7561462E-02  0.1284945E+00
          1   -1    0    0  501    0  0.00000000000E+00  0.00000000000E+00  0.69540780584E+02  0.69540780584E+02  0.00000000000E+00 0. -1.
         -1   -1    0    0    0  501 -0.00000000000E+00 -0.00000000000E+00 -0.21344477024E+03  0.21344477024E+03  0.00000000000E+00 0.  1.
         25    2    1    2    0    0 -0.32138152455E+02  0.21843664974E+01 -0.13170297120E+03  0.18447304128E+03  0.12508796119E+03 0.  0.
          5    1    3    3  502    0 -0.73400035516E+02 -0.19956911392E+02 -0.10704772633E+03  0.13138695384E+03  0.41800000000E+01 0. -1.
         -5    1    3    3    0  502  0.41261883061E+02  0.22141277889E+02 -0.24655244868E+02  0.53086087441E+02  0.41800000000E+01 0. -1.
        -11    1    1    2    0    0  0.21568285679E+02 -0.33251529007E+02 -0.39403203607E+02  0.55887991402E+02  0.00000000000E+00 0.  1.
         11    1    1    2    0    0  0.10569866776E+02  0.31067162510E+02  0.27202185149E+02  0.42624518143E+02  0.00000000000E+00 0. -1.
</event>
<event>
 7    1  0.2666594E-009  0.1094017E+03  0.7561462E-02  0.1261682E+00
         -4   -1    0    0    0  501 -0.00000000000E+00  0.00000000000E+00  0.85603554305E+02  0.85603554305E+02  0.00000000000E+00 0.  1.
          4   -1    0    0  501    0  0.00000000000E+00 -0.00000000000E+00 -0.15022118180E+03  0.15022118180E+03  0.00000000000E+00 0. -1.
         25    2    1    2    0    0  0.70770470851E+01  0.22772943530E+02 -0.55242129971E+02  0.13881066396E+03  0.12509202993E+03 0.  0.
          5    1    3    3  502    0  0.53745995407E+02  0.49604891087E+02 -0.29186966486E+02  0.78858282093E+02  0.41800000000E+01 0.  1.
         -5    1    3    3    0  502 -0.46668948322E+02 -0.26831947557E+02 -0.26055163485E+02  0.59952381866E+02  0.41800000000E+01 0.  1.
        -11    1    1    2    0    0  0.40791871026E+02 -0.11242169334E+02 -0.19749745014E+02  0.46694919866E+02  0.00000000000E+00 0.  1.
         11    1    1    2    0    0 -0.47868918111E+02 -0.11530774196E+02  0.10374247494E+02  0.50319152276E+02  0.00000000000E+00 0. -1.
</event>
<event>
 7    1  0.2666594E-009  0.1006110E+03  0.7561462E-02  0.1279016E+00
          2   -1    0    0  501    0  0.00000000000E+00  0.00000000000E+00  0.32699888707E+03  0.32699888707E+03  0.00000000000E+00 0. -1.
         -2   -1    0    0    0  501 -0.00000000000E+00 -0.00000000000E+00 -0.67603181913E+02  0.67603181913E+02  0.00000000000E+00 0.  1.
         25    2    1    2    0    0 -0.58538806337E+02  0.25890455466E+02  0.40797693675E+02  0.14632763797E+03  0.12510083251E+03 0.  0.
          5    1    3    3  502    0 -0.14062687840E+02 -0.18065140848E+02 -0.38662878953E+02  0.45126479057E+02  0.41800000000E+01 0.  1.
         -5    1    3    3    0  502 -0.44476118497E+02  0.43955596314E+02  0.79460572628E+02  0.10120115892E+03  0.41800000000E+01 0.  1.
        -11    1    1    2    0    0  0.60081872292E+02  0.24485208610E+02  0.97570125612E+02  0.11717203690E+03  0.00000000000E+00 0.  1.
         11    1    1    2    0    0 -0.15430659551E+01 -0.50375664076E+02  0.12102788587E+03  0.13110239411E+03  0.00000000000E+00 0. -1.
</event>
<event>
 7    1  0.2666594E-009  0.1541118E+03  0.7561462E-02  0.1195510E+00
         -2   -1    0    0    0  501 -0.00000000000E+00  0.00000000000E+00  0.41773283716E+02  0.41773283716E+02  0.00000000000E+00 0.  1.
          2   -1    0    0  501    0  0.00000000000E+00 -0.00000000000E+00 -0.67428599630E+03  0.67428599630E+03  0.00000000000E+00 0. -1.
         25    2    1    2    0    0 -0.74235790852E+02  0.84178147289E+02 -0.20960272712E+03  0.26866243220E+03  0.12509710683E+03 0.  0.
          5    1    3    3  502    0  0.32919832994E+02  0.39668023207E+02 -0.58069266377E+02  0.77761041448E+02  0.41800000000E+01 0. -1.
         -5    1    3    3    0  502 -0.10715562385E+03  0.44510124082E+02 -0.15153346074E+03  0.19090139075E+03  0.41800000000E+01 0. -1.
        -11    1    1    2    0    0  0.83946617791E+02 -0.36152169139E+02 -0.32916587843E+03  0.34161994892E+03  0.00000000000E+00 0. -1.
         11    1    1    2    0    0 -0.97108269393E+01 -0.48025978150E+02 -0.93744107037E+02  0.10577689890E+03  0.00000000000E+00 0.  1.
</event>
<event>
 7    1  0.2666594E-009  0.3562510E+03  0.7561462E-02  0.1060078E+00
         -1   -1    0    0    0  501 -0.00000000000E+00  0.00000000000E+00  0.14652729155E+03  0.14652729155E+03  0.00000000000E+00 0.  1.
          1   -1    0    0  501    0  0.00000000000E+00 -0.00000000000E+00 -0.91770502033E+03  0.91770502033E+03  0.00000000000E+00 0. -1.
         25    2    1    2    0    0  0.33646846716E+03  0.95846069944E+02 -0.37836779049E+03  0.53028941886E+03  0.12508870596E+03 0.  0.
          5    1    3    3  502    0  0.46875124883E+02 -0.97988051976E+01 -0.85494939221E+01  0.48824790449E+02  0.41800000000E+01 0.  1.
         -5    1    3    3    0  502  0.28959334228E+03  0.10564487514E+03 -0.36981829657E+03  0.48146462841E+03  0.41800000000E+01 0.  1.
        -11    1    1    2    0    0 -0.66611428201E+02 -0.47931090488E+02 -0.54360229425E+02  0.98435290143E+02  0.00000000000E+00 0.  1.
         11    1    1    2    0    0 -0.26985703896E+03 -0.47914979455E+02 -0.33844970886E+03  0.43550760287E+03  0.00000000000E+00 0. -1.
</event>
<event>
 7    1  0.3759424E-009  0.1178293E+03  0.7561462E-02  0.1246722E+00
          1   -1    0    0  501    0  0.00000000000E+00  0.00000000000E+00  0.36138769171E+03  0.36138769171E+03  0.00000000000E+00 0. -1.
         -1   -1    0    0    0  501 -0.00000000000E+00 -0.00000000000E+00 -0.58326409959E+02  0.58326409959E+02  0.00000000000E+00 0.  1.
         25    2    1    2    0    0  0.48701897120E+02  0.62441855981E+02  0.24481934201E+03  0.28610286154E+03  0.12508987569E+03 0.  0.
          5    1    3    3  502    0 -0.30822855386E+02  0.43535261410E+02  0.44100222880E+02  0.69337359758E+02  0.41800000000E+01 0.  1.
         -5    1    3    3    0  502  0.79524752505E+02  0.18906594571E+02  0.20071911913E+03  0.21676550179E+03  0.41800000000E+01 0.  1.
        -11    1    1    2    0    0 -0.28366959901E+02  0.59240858333E+01 -0.13919434501E+02  0.32148559281E+02  0.00000000000E+00 0.  1.
         11    1    1    2    0    0 -0.20334937219E+02 -0.68365941815E+02  0.72161374243E+02  0.10146268085E+03  0.00000000000E+00 0. -1.
</event>
<event>
 7    1  0.2666594E-009  0.2662247E+03  0.7561462E-02  0.1103460E+00
          1   -1    0    0  501    0  0.00000000000E+00  0.00000000000E+00  0.14716666458E+04  0.14716666458E+04  0.00000000000E+00 0. -1.
         -1   -1    0    0    0  501 -0.00000000000E+00 -0.00000000000E+00 -0.71431071129E+02  0.71431071129E+02  0.00000000000E+00 0.  1.
         25    2    1    2    0    0 -0.25032933947E+03  0.76836620344E+02  0.33898552033E+03  0.44623704703E+03  0.12509066600E+03 0.  0.
          5    1    3    3  502    0 -0.21030520048E+03  0.56570747424E+02  0.33683605629E+03  0.40112906655E+03  0.41800000000E+01 0.  1.
         -5    1    3    3    0  502 -0.40024138997E+02  0.20265872920E+02  0.21494640432E+01  0.45107980484E+02  0.41800000000E+01 0.  1.
        -11    1    1    2    0    0  0.14019095796E+03 -0.75922578426E+02  0.49645361862E+03  0.52142491123E+03  0.00000000000E+00 0.  1.
         11    1    1    2    0    0  0.11013838151E+03 -0.91404191778E+00  0.56479643570E+03  0.57543575865E+03  0.00000000000E+00 0. -1.
</event>
<event>
 7    1  0.2666594E-009  0.1147254E+03  0.7561462E-02  0.1252061E+00
         -2   -1    0    0    0  501 -0.00000000000E+00  0.00000000000E+00  0.10453732035E+03  0.10453732035E+03  0.00000000000E+00 0.  1.
          2   -1    0    0  501    0  0.00000000000E+00 -0.00000000000E+00 -0.21846267300E+03  0.21846267300E+03  0.00000000000E+00 0. -1.
         25    2    1    2    0    0  0.67698102950E+02 -0.36783626554E+02  0.15966416256E+02  0.14777704423E+03  0.12508820899E+03 0.  0.
          5    1    3    3  502    0 -0.48045464525E+01 -0.58623785795E+02 -0.22036683318E+02  0.62951725467E+02  0.41800000000E+01 0.  1.
         -5    1    3    3    0  502  0.72502649402E+02  0.21840159242E+02  0.38003099574E+02  0.84825318763E+02  0.41800000000E+01 0.  1.
        -11    1    1    2    0    0 -0.76323484934E+02  0.25556975258E+02 -0.51481108152E+02  0.95544428584E+02  0.00000000000E+00 0.  1.
         11    1    1    2    0    0  0.86253819845E+01  0.11226651295E+02 -0.78410660755E+02  0.79678520529E+02  0.00000000000E+00 0. -1.
</event>
<event>
 7    1  0.2666594E-009  0.1406894E+03  0.7561462E-02  0.1212404E+00
          1   -1    0    0  501    0  0.00000000000E+00  0.00000000000E+00  0.84634884106E+02  0.84634884106E+02  0.00000000000E+00 0. -1.
         -1   -1    0    0    0  501 -0.00000000000E+00 -0.00000000000E+00 -0.32508594182E+03  0.32508594182E+03  0.00000000000E+00 0.  1.
         25    2    1    2    0    0  0.45207165612E+02  0.10863413057E+03 -0.17344251841E+03  0.24408097085E+03  0.12509256969E+03 0.  0.
          5    1    3    3  502    0  0.53095102603E+02  0.12252413970E+03 -0.95031401273E+02  0.16395028014E+03  0.41800000000E+01 0. -1.
         -5    1    3    3    0  502 -0.78879369903E+01 -0.13890009129E+02 -0.78411117138E+02  0.80130690714E+02  0.41800000000E+01 0. -1.
        -11    1    1    2    0    0 -0.58192631183E+02 -0.73090557841E+02 -0.82606899983E+02  0.12470971051E+03  0.00000000000E+00 0.  1.
         11    1    1    2    0    0  0.12985465571E+02 -0.35543572727E+02  0.15598360684E+02  0.40930144567E+02  0.00000000000E+00 0. -1.
</event>
<event>
 7    1  0.2666594E-009  0.1843589E+03  0.7561462E-02  0.1163650E+00
         -1   -1    0    0    0  501 -0.00000000000E+00  0.00000000000E+00  0.52005995021E+02  0.52005995021E+02  0.00000000000E+00 0.  1.
          1   -1    0    0  501    0  0.00000000000E+00 -0.00000000000E+00 -0.80808930970E+03  0.80808930970E+03  0.00000000000E+00 0. -1.
         25    2    1    2    0    0  0.14672878216E+01  0.16558574139E+03 -0.28794059859E+03  0.35493417615E+03  0.12509072865E+03 0.  0.
          5    1    3    3  502    0  0.50057269469E+02  0.29297235449E+02 -0.51366077119E+02  0.77588688030E+02  0.41800000000E+01 0.  1.
         -5    1    3    3    0  502 -0.48589981648E+02  0.13628850594E+03 -0.23657452147E+03  0.27734548812E+03  0.41800000000E+01 0.  1.
        -11    1    1    2    0    0 -0.42972711043E+01 -0.14129747323E+03 -0.45686087147E+03  0.47823142762E+03  0.00000000000E+00 0. -1.
         11    1    1    2    0    0  0.28299832827E+01 -0.24288268165E+02 -0.11281844625E+02  0.26929700963E+02  0.00000000000E+00 0.  1.
</event>
<event>
 7    1  0.2666594E-009  0.1045066E+03  0.7561462E-02  0.1271095E+00
          2   -1    0    0  501    0  0.00000000000E+00  0.00000000000E+00  0.30367007344E+03  0.30367007344E+03  0.00000000000E+00 0. -1.
         -2   -1    0    0    0  501 -0.00000000000E+00 -0.00000000000E+00 -0.65811360770E+02  0.65811360770E+02  0.00000000000E+00 0.  1.
         25    2    1    2    0    0 -0.10519411695E+01 -0.38361136605E+02  0.23659290078E+03  0.27036381581E+03  0.12509080228E+03 0.  0.
          5    1    3    3  502    0 -0.38201657801E+02 -0.64644959155E+02  0.19329839630E+03  0.20741282461E+03  0.41800000000E+01 0. -1.
         -5    1    3    3    0  502  0.37149716631E+02  0.26283822550E+02  0.43294504483E+02  0.62950991192E+02  0.41800000000E+01 0. -1.
        -11    1    1    2    0    0 -0.38757502968E+02  0.24982532971E+02  0.23329555417E+02  0.51677259466E+02  0.00000000000E+00 0. -1.
         11    1    1    2    0    0  0.39809444137E+02  0.13378603634E+02 -0.22063743528E+02  0.47440358938E+02  0.00000000000E+00 0.  1.
</event>
<event>
 7    1  0.2666594E-009  0.1253494E+03  0.7561462E-02  0.1234524E+00
          1   -1    0    0  501    0  0.00000000000E+00  0.00000000000E+00  0.78171837220E+02  0.78171837220E+02  0.00000000000E+00 0. -1.
         -1   -1    0    0    0  501 -0.00000000000E+00 -0.00000000000E+00 -0.28272841055E+03  0.28272841055E+03  0.00000000000E+00 0.  1.
         25    2    1    2    0    0  0.80607923038E+02 -0.11637777940E+02 -0.17733270445E+03  0.23179156158E+03  0.12508942729E+03 0.  0.
          5    1    3    3  502    0 -0.24710658441E+02  0.13647593009E+02 -0.61723123912E+01  0.29196631241E+02  0.41800000000E+01 0. -1.
         -5    1    3    3    0  502  0.10531858148E+03 -0.25285370949E+02 -0.17116039206E+03  0.20259493034E+03  0.41800000000E+01 0. -1.
        -11    1    1    2    0    0  0.11810007282E+02  0.17560627137E+02  0.16368599005E+02  0.26754119885E+02  0.00000000000E+00 0. -1.
         11    1    1    2    0    0 -0.92417930320E+02 -0.59228491965E+01 -0.43592467880E+02  0.10235456630E+03  0.00000000000E+00 0.  1.
</event>
<event>
 7    1  0.2666594E-009  0.1002845E+03  0.7561462E-02  0.1279699E+00
          2   -1    0    0  501    0  0.00000000000E+00  0.00000000000E+00  0.14718890745E+03  0.14718890745E+03  0.00000000000E+00 0. -1.
         -2   -1    0    0    0  501 -0.00000000000E+00 -0.00000000000E+00 -0.11120770208E+03  0.11120770208E+03  0.00000000000E+00 0.  1.
         25    2    1    2    0    0  0.62868228211E+02  0.17401823646E+02  0.66367561483E+01  0.14123385699E+03  0.12509083996E+03 0.  0.
          5    1    3    3  502    0 -0.14621108747E+02 -0.12469160279E+02  0.45410339388E+02  0.49485635314E+02  0.41800000000E+01 0.  1.
         -5    1    3    3    0  502  0.77489336958E+02  0.29870983925E+02 -0.38773583240E+02  0.91748221673E+02  0.41800000000E+01 0.  1.
        -11    1    1    2    0    0 -0.29892129468E+02 -0.45491149485E+02  0.45484917491E+02  0.70935617322E+02  0.00000000000E+00 0. -1.
         11    1    1    2    0    0 -0.32976098743E+02  0.28089325839E+02 -0.16140468274E+02  0.46227135218E+02  0.00000000000E+00 0.  1.
</event>
<event>
 7    1  0.2666594E-009  0.9696495E+02  0.7561462E-02  0.1286811E+00
          2   -1    0    0  501    0  0.00000000000E+00  0.00000000000E+00  0.61378556107E+03  0.61378556107E+03  0.00000000000E+00 0. -1.
         -2   -1    0    0    0  501 -0.00000000000E+00 -0.00000000000E+00 -0.28656651463E+02  0.28656651463E+02  0.00000000000E+00 0.  1.
         25    2    1    2    0    0 -0.39801396774E+02 -0.63559384933E+02  0.36791372972E+03  0.39576768401E+03  0.12509036970E+03 0.  0.
          5    1    3    3  502    0  0.13105700741E+02 -0.24375529665E+02  0.29922192857E+03  0.30052813641E+03  0.41800000000E+01 0.  1.
         -5    1    3    3    0  502 -0.52907097515E+02 -0.39183855268E+02  0.68691801143E+02  0.95239547592E+02  0.41800000000E+01 0.  1.
        -11    1    1    2    0    0 -0.12576604671E+02  0.41099206675E+02  0.16094647814E+03  0.16658656789E+03  0.00000000000E+00 0. -1.
         11    1    1    2    0    0  0.52378001444E+02  0.22460178258E+02  0.56268701748E+02  0.80087960638E+02  0.00000000000E+00 0.  1.
</event>
<event>
 7    1  0.2666594E-009  0.2266703E+03  0.7561462E-02  0.1129006E+00
          2   -1    0    0  501    0  0.00000000000E+00  0.00000000000E+00  0.95176909556E+03  0.95176909556E+03  0.00000000000E+00 0. -1.
         -2   -1    0    0    0  501 -0.00000000000E+00 -0.00000000000E+00 -0.60215481688E+02  0.60215481688E+02  0.00000000000E+00 0.  1.
         25    2    1    2    0    0  0.10194852892E+02  0.20105996887E+03  0.61710908989E+03  0.66106289773E+03  0.12510587442E+03 0.  0.
          5    1    3    3  502    0 -0.48682708394E+02  0.14695895693E+03  0.44659899436E+03  0.47268919522E+03  0.41800000000E+01 0.  1.
         -5    1    3    3    0  502  0.58877561285E+02  0.54101011945E+02  0.17051009554E+03  0.18837370251E+03  0.41800000000E+01 0.  1.
        -11    1    1    2    0    0  0.27241497645E+02 -0.16209626847E+03  0.19857858377E+03  0.25778043637E+03  0.00000000000E+00 0. -1.
         11    1    1    2    0    0 -0.37436350537E+02 -0.38963700406E+02  0.75865940208E+02  0.93141243144E+02  0.00000000000E+00 0.  1.
</event>
<event>
 7    1  0.2666594E-009  0.1280371E+03  0.7561462E-02  0.1230398E+00
          2   -1    0    0  501    0  0.00000000000E+00  0.00000000000E+00  0.17326146421E+04  0.17326146421E+04  0.00000000000E+00 0.  1.
         -2   -1    0    0    0  501 -0.00000000000E+00 -0.00000000000E+00 -0.10191197721E+02  0.10191197721E+02  0.00000000000E+00 0. -1.
         25    2    1    2    0    0 -0.67974700149E+02  0.73696270017E+01  0.11649390907E+04  0.11736292210E+04  0.12509033577E+03 0.  0.
          5    1    3    3  502    0  0.75256540060E+01 -0.47533676485E+02  0.34004439434E+03  0.34345851043E+03  0.41800000000E+01 0. -1.
         -5    1    3    3    0  502 -0.75500354155E+02  0.54903303486E+02  0.82489469632E+03  0.83017071053E+03  0.41800000000E+01 0. -1.
        -11    1    1    2    0    0 -0.23015214007E+02  0.20991394461E+00  0.13386214416E+03  0.13582642519E+03  0.00000000000E+00 0.  1.
         11    1    1    2    0    0  0.90989914156E+02 -0.75795409463E+01  0.42362220961E+03  0.43335019371E+03  0.00000000000E+00 0. -1.
</event>
<event>
 7    1  0.2666594E-009  0.1231901E+03  0.7561462E-02  0.1237925E+00
         -2   -1    0    0    0  501 -0.00000000000E+00  0.00000000000E+00  0.45633631756E+03  0.45633631756E+03  0.00000000000E+00 0.  1.
          2   -1    0    0  501    0  0.00000000000E+00 -0.00000000000E+00 -0.48068063238E+02  0.48068063238E+02  0.00000000000E+00 0. -1.
         25    2    1    2    0    0 -0.90465895395E+01 -0.65476610239E+02  0.35075548474E+03  0.37821411290E+03  0.12508987908E+03 0.  0.
          5    1    3    3  502    0  0.54437624734E+02 -0.33190102934E+02  0.22201465263E+03  0.23102600785E+03  0.41800000000E+01 0. -1.
         -5    1    3    3    0  502 -0.63484214273E+02 -0.32286507305E+02  0.12874083211E+03  0.14718810505E+03  0.41800000000E+01 0. -1.
        -11    1    1    2    0    0  0.38813112473E+02  0.70952239841E+02  0.49725971336E+02  0.94938665798E+02  0.00000000000E+00 0.  1.
         11    1    1    2    0    0 -0.29766522933E+02 -0.54756296019E+01  0.77867982469E+01  0.31251602103E+02  0.00000000000E+00 0. -1.
</event>
<event>
 7    1  0.2666594E-009  0.1306729E+03  0.7561462E-02  0.1226461E+00
         -1   -1    0    0    0  501 -0.00000000000E+00  0.00000000000E+00  0.90112709746E+02  0.90112709746E+02  0.00000000000E+00 0.  1.
          1   -1    0    0  501    0  0.00000000000E+00 -0.00000000000E+00 -0.39392352079E+03  0.39392352079E+03  0.00000000000E+00 0. -1.
         25    2    1    2    0    0  0.10479075253E+03  0.35988151895E+02 -0.29908849818E+03  0.34260377918E+03  0.12508865206E+03 0.  0.
          5    1    3    3  502    0 -0.19615336072E+02  0.81757507873E+01 -0.12460549364E+03  0.12647373544E+03  0.41800000000E+01 0.  1.
         -5    1    3    3    0  502  0.12440608860E+03  0.27812401107E+02 -0.17448300454E+03  0.21613004374E+03  0.41800000000E+01 0.  1.
        -11    1    1    2    0    0 -0.52725283797E+02 -0.27241669208E+02 -0.45451899574E+02  0.74752520142E+02  0.00000000000E+00 0. -1.
         11    1    1    2    0    0 -0.52065468730E+02 -0.87464826862E+01  0.40729586707E+02  0.66679931215E+02  0.00000000000E+00 0.  1.
</event>
<event>
 7    1  0.2666594E-009  0.1159979E+03  0.7561462E-02  0.1249849E+00
          2   -1    0    0  501    0  0.00000000000E+00  0.00000000000E+00  0.96816057605E+02  0.96816057605E+02  0.00000000000E+00 0. -1.
         -2   -1    0    0    0  501 -0.00000000000E+00 -0.00000000000E+00 -0.21772477065E+03  0.21772477065E+03  0.00000000000E+00 0.  1.
         25    2    1    2    0    0  0.94230776018E+02  0.82413240953E+01 -0.60644110961E+02  0.16814535956E+03  0.12509114746E+03 0.  0.
          5    1    3    3  502    0  0.27740388080E+02  0.50255451503E+02 -0.67943697126E+02  0.89044696169E+02  0.41800000000E+01 0. -1.
         -5    1    3    3    0  502  0.66490387938E+02 -0.42014127408E+02  0.72995861653E+01  0.79100663386E+02  0.41800000000E+01 0. -1.
        -11    1    1    2    0    0 -0.36425748603E+02  0.38260949260E+01  0.23787975776E+02  0.43673126236E+02  0.00000000000E+00 0. -1.
         11    1    1    2    0    0 -0.57805027414E+02 -0.12067419021E+02 -0.84052577855E+02  0.10272234246E+03  0.00000000000E+00 0.  1.
</event>
<event>
 7    1  0.2666594E-009  0.5215782E+02  0.7561462E-02  0.1434039E+00
         -1   -1    0    0    0  501 -0.00000000000E+00  0.00000000000E+00  0.34539939196E+02  0.34539939196E+02  0.00000000000E+00 0.  1.
          1   -1    0    0  501    0  0.00000000000E+00 -0.00000000000E+00 -0.36648494607E+03  0.36648494607E+03  0.00000000000E+00 0. -1.
         25    2    1    2    0    0 -0.16647991021E+02  0.82694807426E+01 -0.14780085918E+03  0.19451936254E+03  0.12508856267E+03 0.  0.
          5    1    3    3  502    0  0.90411135651E+00 -0.65827335134E+01 -0.16519851913E+03  0.16538492350E+03  0.41800000000E+01 0. -1.
         -5    1    3    3    0  502 -0.17552102378E+02  0.14852214256E+02  0.17397659950E+02  0.29134439036E+02  0.41800000000E+01 0. -1.
        -11    1    1    2    0    0 -0.16303016952E+01  0.30337250962E+02 -0.18787376016E+02  0.35720752751E+02  0.00000000000E+00 0. -1.
         11    1    1    2    0    0  0.18278292716E+02 -0.38606731704E+02 -0.16535677168E+03  0.17078476998E+03  0.00000000000E+00 0.  1.
</event>
<event>
 7    1  0.2666594E-009  0.1459355E+03  0.7561462E-02  0.1205558E+00
         -2   -1    0    0    0  501 -0.00000000000E+00  0.00000000000E+00  0.27326753879E+02  0.27326753879E+02  0.00000000000E+00 0.  1.
          2   -1    0    0  501    0  0.00000000000E+00 -0.00000000000E+00 -0.11908630705E+04  0.11908630705E+04  0.00000000000E+00 0. -1.
         25    2    1    2    0    0  0.12232106102E+03  0.47149142682E+02 -0.81721644131E+03  0.83706348599E+03  0.12508830485E+03 0.  0.
          5    1    3    3  502    0  0.55249097392E+02  0.11063763617E+02 -0.92834024157E+02  0.10867611545E+03  0.41800000000E+01 0. -1.
         -5    1    3    3    0  502  0.67071963631E+02  0.36085379064E+02 -0.72438241715E+03  0.72838737054E+03  0.41800000000E+01 0. -1.
        -11    1    1    2    0    0 -0.81411777490E+02  0.16848450849E+02 -0.17730883409E+03  0.19583199548E+03  0.00000000000E+00 0.  1.
         11    1    1    2    0    0 -0.40909283533E+02 -0.63997593531E+02 -0.16901104125E+03  0.18529434293E+03  0.00000000000E+00 0. -1.
</event>
<event>
 7    1  0.2666594E-009  0.7953184E+02  0.7561462E-02  0.1330385E+00
          2   -1    0    0  501    0  0.00000000000E+00  0.00000000000E+00  0.10382203735E+04  0.10382203735E+04  0.00000000000E+00 0.  1.
         -2   -1    0    0    0  501 -0.00000000000E+00 -0.00000000000E+00 -0.14469346162E+02  0.14469346162E+02  0.00000000000E+00 0. -1.
         25    2    1    2    0    0 -0.26511651348E+02 -0.48084873881E+02  0.64930027553E+03  0.66351632711E+03  0.12509214921E+03 0.  0.
          5    1    3    3  502    0 -0.10036340685E+01 -0.99101554204E+00  0.55477046802E+03  0.55478800815E+03  0.41800000000E+01 0.  1.
         -5    1    3    3    0  502 -0.25508017279E+02 -0.47093858339E+02  0.94529807503E+02  0.10872831897E+03  0.41800000000E+01 0.  1.
        -11    1    1    2    0    0  0.27749603745E+02 -0.19130084311E+02  0.18744545086E+03  0.19045156256E+03  0.00000000000E+00 0.  1.
         11    1    1    2    0    0 -0.12379523971E+01  0.67214958192E+02  0.18700530100E+03  0.19872183003E+03  0.00000000000E+00 0. -1.
</event>
<event>
 7    1  0.2666594E-009  0.1389310E+03  0.7561462E-02  0.1214775E+00
          2   -1    0    0  501    0  0.00000000000E+00  0.00000000000E+00  0.86342075877E+03  0.86342075877E+03  0.00000000000E+00 0. -1.
         -2   -1    0    0    0  501 -0.00000000000E+00 -0.00000000000E+00 -0.23995891178E+02  0.23995891178E+02  0.00000000000E+00 0.  1.
         25    2    1    2    0    0 -0.89817562479E+02 -0.20686386641E+02  0.49900919850E+03  0.52263952920E+03  0.12508707436E+03 0.  0.
          5    1    3    3  502    0  0.10494203441E+02 -0.42682856766E+02  0.81782732750E+02  0.92939993241E+02  0.41800000000E+01 0. -1.
         -5    1    3    3    0  502 -0.10031176592E+03  0.21996470125E+02  0.41722646575E+03  0.42969953596E+03  0.41800000000E+01 0. -1.
        -11    1    1    2    0    0 -0.32236432229E+01 -0.26438687929E+02  0.62648440422E+02  0.68075128955E+02  0.00000000000E+00 0.  1.
         11    1    1    2    0    0  0.93041205702E+02  0.47125074569E+02  0.27776722866E+03  0.29670199179E+03  0.00000000000E+00 0. -1.
</event>
<event>
 7    1  0.2666594E-009  0.1674102E+03  0.7561462E-02  0.1180576E+00
          1   -1    0    0  501    0  0.00000000000E+00  0.00000000000E+00  0.46712062093E+02  0.46712062093E+02  0.00000000000E+00 0. -1.
         -1   -1    0    0    0  501 -0.00000000000E+00 -0.00000000000E+00 -0.72912824188E+03  0.72912824188E+03  0.00000000000E+00 0.  1.
         25    2    1    2    0    0 -0.15023110623E+03 -0.15115110978E+02 -0.33324658001E+03  0.38665698422E+03  0.12510990566E+03 0.  0.
          5    1    3    3  502    0 -0.60264721618E+02  0.44032045790E+02 -0.70830155115E+02  0.10298077977E+03  0.41800000000E+01 0. -1.
         -5    1    3    3    0  502 -0.89966384615E+02 -0.59147156767E+02 -0.26241642490E+03  0.28367620445E+03  0.41800000000E+01 0. -1.
        -11    1    1    2    0    0  0.87522091620E+02  0.18733081216E+02 -0.10953455641E+03  0.14145269139E+03  0.00000000000E+00 0. -1.
         11    1    1    2    0    0  0.62709014613E+02 -0.36179702387E+01 -0.23963504337E+03  0.24773062837E+03  0.00000000000E+00 0.  1.
</event>
<event>
 7    1  0.2666594E-009  0.6950301E+02  0.7561462E-02  0.1361791E+00
          1   -1    0    0  501    0  0.00000000000E+00  0.00000000000E+00  0.14229661573E+03  0.14229661573E+03  0.00000000000E+00 0. -1.
         -1   -1    0    0    0  501 -0.00000000000E+00 -0.00000000000E+00 -0.11722683801E+03  0.11722683801E+03  0.00000000000E+00 0.  1.
         25    2    1    2    0    0  0.53372511719E+01  0.40257737820E+02  0.70845349276E+02  0.14938510787E+03  0.12509066805E+03 0.  0.
          5    1    3    3  502    0  0.37608616913E+01  0.37157473160E+02 -0.30189044467E+02  0.48204488361E+02  0.41800000000E+01 0.  1.
         -5    1    3    3    0  502  0.15763894806E+01  0.31002646594E+01  0.10103439374E+03  0.10118061951E+03  0.41800000000E+01 0.  1.
        -11    1    1    2    0    0  0.14233002311E+02  0.24501793435E+02 -0.28771518014E+02  0.40382130765E+02  0.00000000000E+00 0.  1.
         11    1    1    2    0    0 -0.19570253483E+02 -0.64759531255E+02 -0.17004053545E+02  0.69756215111E+02  0.00000000000E+00 0. -1.
</event>
<event>
 7    1  0.2666594E-009  0.3469945E+03  0.7561462E-02  0.1063855E+00
         -2   -1    0    0    0  501 -0.00000000000E+00  0.00000000000E+00  0.26011006471E+03  0.26011006471E+03  0.00000000000E+00 0.  1.
          2   -1    0    0  501    0  0.00000000000E+00 -0.00000000000E+00 -0.54276940764E+03  0.54276940764E+03  0.00000000000E+00 0. -1.
         25    2    1    2    0    0  0.27974551710E+03  0.19570934733E+03 -0.23012592630E+02  0.36432974891E+03  0.12508750358E+03 0.  0.
          5    1    3    3  502    0  0.21462568662E+02  0.10704316946E+02 -0.39244070120E+02  0.46182179403E+02  0.41800000000E+01 0. -1.
         -5    1    3    3    0  502  0.25828294844E+03  0.18500503039E+03  0.16231477490E+02  0.31814756951E+03  0.41800000000E+01 0. -1.
        -11    1    1    2    0    0 -0.95403599233E+02 -0.20487282072E+02 -0.90666340244E+02  0.13319895167E+03  0.00000000000E+00 0.  1.
         11    1    1    2    0    0 -0.18434191787E+03 -0.17522206526E+03 -0.16898041006E+03  0.30535077177E+03  0.00000000000E+00 0. -1.
</event>
<event>
 7    1  0.2666594E-009  0.1446211E+03  0.7561462E-02  0.1207243E+00
          2   -1    0    0  501    0  0.00000000000E+00  0.00000000000E+00  0.10060370873E+04  0.10060370873E+04  0.00000000000E+00 0. -1.
         -2   -1    0    0    0  501 -0.00000000000E+00 -0.00000000000E+00 -0.30740195573E+02  0.30740195573E+02  0.00000000000E+00 0.  1.
         25    2    1    2    0    0 -0.13111855805E+03  0.18730379456E+01  0.63693478556E+03  0.66221601523E+03  0.12509414550E+03 0.  0.
          5    1    3    3  502    0 -0.13204372659E+03  0.21138109087E+02  0.35152167485E+03  0.37612142412E+03  0.41800000000E+01 0.  1.
         -5    1    3    3    0  502  0.92516853689E+00 -0.19265071141E+02  0.28541311071E+03  0.28609459112E+03  0.41800000000E+01 0.  1.
        -11    1    1    2    0    0  0.12471043488E+03  0.68438806620E+01  0.34122927395E+03  0.36336888786E+03  0.00000000000E+00 0. -1.
         11    1    1    2    0    0  0.64081231750E+01 -0.87169186076E+01 -0.28671678276E+01  0.11192379729E+02  0.00000000000E+00 0.  1.
</event>
<event>
 7    1  0.2666594E-009  0.1054114E+03  0.7561462E-02  0.1269311E+00
          4   -1    0    0  501    0  0.00000000000E+00  0.00000000000E+00  0.14904344051E+02  0.14904344051E+02  0.00000000000E+00 0. -1.
         -4   -1    0    0    0  501 -0.00000000000E+00 -0.00000000000E+00 -0.81533654244E+03  0.81533654244E+03  0.00000000000E+00 0.  1.
         25    2    1    2    0    0 -0.42706136613E+01 -0.42568691875E+02 -0.38827259661E+03  0.41016271034E+03  0.12508999962E+03 0.  0.
          5    1    3    3  502    0  0.10551578405E+02 -0.84426631607E+02 -0.28979255064E+03  0.30205361566E+03  0.41800000000E+01 0.  1.
         -5    1    3    3    0  502 -0.14822192066E+02  0.41857939732E+02 -0.98480045971E+02  0.10810909467E+03  0.41800000000E+01 0.  1.
        -11    1    1    2    0    0 -0.24553160481E+02 -0.53375187353E+01 -0.13964860137E+03  0.14189108027E+03  0.00000000000E+00 0.  1.
         11    1    1    2    0    0  0.28823774142E+02  0.47906210610E+02 -0.27251100042E+03  0.27818709589E+03  0.00000000000E+00 0. -1.
</event>
<event>
 7    1  0.2666594E-009  0.1604210E+03  0.7561462E-02  0.1188222E+00
         -2   -1    0    0    0  501 -0.00000000000E+00  0.00000000000E+00  0.58617994457E+02  0.58617994457E+02  0.00000000000E+00 0.  1.
          2   -1    0    0  501    0  0.00000000000E+00 -0.00000000000E+00 -0.10542705705E+04  0.10542705705E+04  0.00000000000E+00 0. -1.
         25    2    1    2    0    0 -0.17336751730E+02 -0.13373786002E+03 -0.91086183487E+03  0.92924890947E+03  0.12509146801E+03 0.  0.
          5    1    3    3  502    0 -0.35194989789E+02 -0.14203158955E+03 -0.59488034037E+03  0.61262692684E+03  0.41800000000E+01 0.  1.
         -5    1    3    3    0  502  0.17858238060E+02  0.82937295287E+01 -0.31598149450E+03  0.31662198263E+03  0.41800000000E+01 0.  1.
        -11    1    1    2    0    0 -0.12563298998E+02  0.12128920074E+03 -0.39930636045E+02  0.12830963484E+03  0.00000000000E+00 0.  1.
         11    1    1    2    0    0  0.29900050728E+02  0.12448659280E+02 -0.44860105093E+02  0.55330020607E+02  0.00000000000E+00 0. -1.
</event>
<event>
 7    1  0.2666594E-009  0.1390278E+03  0.7561462E-02  0.1214643E+00
         -1   -1    0    0    0  501 -0.00000000000E+00  0.00000000000E+00  0.32262337055E+02  0.32262337055E+02  0.00000000000E+00 0.  1.
          1   -1    0    0  501    0  0.00000000000E+00 -0.00000000000E+00 -0.15575340437E+04  0.15575340437E+04  0.00000000000E+00 0. -1.
         25    2    1    2    0    0 -0.96348832784E+02 -0.72441336646E+02 -0.13333239076E+04  0.13445932404E+04  0.12508994711E+03 0.  0.
          5    1    3    3  502    0 -0.14583323677E+02 -0.69594715349E+02 -0.94720685368E+03  0.94988125247E+03  0.41800000000E+01 0. -1.
         -5    1    3    3    0  502 -0.81765509107E+02 -0.28466212970E+01 -0.38611705387E+03  0.39471198794E+03  0.41800000000E+01 0. -1.
        -11    1    1    2    0    0  0.51693179233E+02  0.18560340195E+02 -0.15829195312E+03  0.16755003262E+03  0.00000000000E+00 0. -1.
         11    1    1    2    0    0  0.44655653550E+02  0.53880996451E+02 -0.33655845980E+02  0.77653107737E+02  0.00000000000E+00 0.  1.
</event>
<event>
 7    1  0.2666594E-009  0.1024409E+03  0.7561462E-02  0.1275245E+00
         -2   -1    0    0    0  501 -0.00000000000E+00  0.00000000000E+00  0.50270148952E+03  0.50270148952E+03  0.00000000000E+00 0.  1.
          2   -1    0    0  501    0  0.00000000000E+00 -0.00000000000E+00 -0.37898926149E+02  0.37898926149E+02  0.00000000000E+00 0. -1.
         25    2    1    2    0    0 -0.60585765613E+02  0.49775370446E+02  0.16709981272E+03  0.22297533871E+03  0.12508969486E+03 0.  0.
          5    1    3    3  502    0 -0.71368209751E+02  0.45769171359E+02  0.18369230101E+03  0.20235753571E+03  0.41800000000E+01 0.  1.
         -5    1    3    3    0  502  0.10782444138E+02  0.40061990865E+01 -0.16592488286E+02  0.20617802992E+02  0.41800000000E+01 0.  1.
        -11    1    1    2    0    0  0.58970145348E+02 -0.10243399696E+01  0.19853510821E+03  0.20711039690E+03  0.00000000000E+00 0.  1.
         11    1    1    2    0    0  0.16156202655E+01 -0.48751030476E+02  0.99167642443E+02  0.11051468006E+03  0.00000000000E+00 0. -1.
</event>
<event>
 7    1  0.2666594E-009  0.1011199E+03  0.7561462E-02  0.1277958E+00
          2   -1    0    0  501    0  0.00000000000E+00  0.00000000000E+00  0.14128875492E+03  0.14128875492E+03  0.00000000000E+00 0. -1.
         -2   -1    0    0    0  501 -0.00000000000E+00 -0.00000000000E+00 -0.83741636591E+02  0.83741636591E+02  0.00000000000E+00 0.  1.
         25    2    1    2    0    0 -0.18537976124E+01 -0.29958351790E+01  0.33118952434E+02  0.12944829611E+03  0.12509030643E+03 0.  0.
          5    1    3    3  502    0  0.50483792041E+02 -0.34819270521E+02  0.28854520586E+02  0.67904717190E+02  0.41800000000E+01 0. -1.
         -5    1    3    3    0  502 -0.52337589653E+02  0.31823435342E+02  0.42644318481E+01  0.61543578923E+02  0.41800000000E+01 0. -1.
        -11    1    1    2    0    0 -0.38581520510E+02  0.49196056496E+01  0.36501021517E+02  0.53339111508E+02  0.00000000000E+00 0. -1.
         11    1    1    2    0    0  0.40435318122E+02 -0.19237704706E+01 -0.12072855628E+02  0.42242983885E+02  0.00000000000E+00 0.  1.
</event>
<event>
 7    1  0.2666594E-009  0.1477527E+03  0.7561462E-02  0.1203262E+00
         -2   -1    0    0    0  501 -0.00000000000E+00  0.00000000000E+00  0.31583572360E+03  0.31583572360E+03  0.00000000000E+00 0. -1.
          2   -1    0    0  501    0  0.00000000000E+00 -0.00000000000E+00 -0.10820017283E+03  0.10820017283E+03  0.00000000000E+00 0.  1.
         25    2    1    2    0    0 -0.17559110291E+02  0.99015441815E+02 -0.16176048336E+02  0.16131159815E+03  0.12508951629E+03 0.  0.
          5    1    3    3  502    0 -0.41313787781E+02  0.11994289652E+03 -0.35619993073E+01  0.12697750874E+03  0.41800000000E+01 0.  1.
         -5    1    3    3    0  502  0.23754677489E+02 -0.20927454704E+02 -0.12614049028E+02  0.34334089414E+02  0.41800000000E+01 0.  1.
        -11    1    1    2    0    0  0.74895974218E+01  0.17844169182E+02  0.21976106714E+02  0.29282378825E+02  0.00000000000E+00 0.  1.
         11    1    1    2    0    0  0.10069512870E+02 -0.11685961100E+03  0.20183549239E+03  0.23344191945E+03  0.00000000000E+00 0. -1.
</event>
<event>
 7    1  0.2666594E-009  0.2733045E+03  0.7561462E-02  0.1099403E+00
          1   -1    0    0  501    0  0.00000000000E+00  0.00000000000E+00  0.73852554315E+03  0.73852554315E+03  0.00000000000E+00 0. -1.
         -1   -1    0    0    0  501 -0.00000000000E+00 -0.00000000000E+00 -0.12504053327E+03  0.12504053327E+03  0.00000000000E+00 0.  1.
         25    2    1    2    0    0 -0.53236810378E+02 -0.25190850682E+03  0.14375198367E+03  0.32032031963E+03  0.12509364721E+03 0.  0.
          5    1    3    3  502    0 -0.57291692288E+02 -0.31667278737E+02  0.26507955080E+02  0.70748135172E+02  0.41800000000E+01 0. -1.
         -5    1    3    3    0  502  0.40548819098E+01 -0.22024122809E+03  0.11724402859E+03  0.24957218446E+03  0.41800000000E+01 0. -1.
        -11    1    1    2    0    0  0.29526044963E+02  0.21369069283E+03  0.31263871934E+03  0.37984005629E+03  0.00000000000E+00 0.  1.
         11    1    1    2    0    0  0.23710765416E+02  0.38217813991E+02  0.15709430687E+03  0.16340570050E+03  0.00000000000E+00 0. -1.
</event>
<event>
 7    1  0.2666594E-009  0.1130298E+03  0.7561462E-02  0.1255060E+00
          1   -1    0    0  501    0  0.00000000000E+00  0.00000000000E+00  0.43059773737E+03  0.43059773737E+03  0.00000000000E+00 0. -1.
         -1   -1    0    0    0  501 -0.00000000000E+00 -0.00000000000E+00 -0.36492102264E+02  0.36492102264E+02  0.00000000000E+00 0.  1.
         25    2    1    2    0    0 -0.18116188078E+02 -0.41884469212E+02  0.15089438687E+03  0.20124434965E+03  0.12509063612E+03 0.  0.
          5    1    3    3  502    0  0.36001675458E+02  0.18886932096E+02  0.16492458090E+02  0.44071650907E+02  0.41800000000E+01 0.  1.
         -5    1    3    3    0  502 -0.54117863536E+02 -0.60771401308E+02  0.13440192878E+03  0.15717269874E+03  0.41800000000E+01 0.  1.
        -11    1    1    2    0    0  0.40825660083E+02 -0.14180314817E+02  0.68857333822E+02  0.81296668263E+02  0.00000000000E+00 0. -1.
         11    1    1    2    0    0 -0.22709472005E+02  0.56064784029E+02  0.17435391441E+03  0.18454882172E+03  0.00000000000E+00 0.  1.
</event>
<event>
 7    1  0.2666594E-009  0.1710035E+03  0.7561462E-02  0.1176805E+00
         -2   -1    0    0    0  501 -0.00000000000E+00  0.00000000000E+00  0.74474986942E+02  0.74474986942E+02  0.00000000000E+00 0.  1.
          2   -1    0    0  501    0  0.00000000000E+00 -0.00000000000E+00 -0.52318986343E+03  0.52318986343E+03  0.00000000000E+00 0. -1.
         25    2    1    2    0    0  0.97026934618E+02  0.11475840526E+03 -0.13380314705E+03  0.23692617354E+03  0.12508801672E+03 0.  0.
          5    1    3    3  502    0  0.58976137728E+02 -0.10071487954E+02 -0.18580314787E+02  0.62787898424E+02  0.41800000000E+01 0. -1.
         -5    1    3    3    0  502  0.38050796890E+02  0.12482989322E+03 -0.11522283226E+03  0.17413827511E+03  0.41800000000E+01 0. -1.
        -11    1    1    2    0    0 -0.67752066900E+02 -0.65956518297E+02 -0.27613308733E+03  0.29187340885E+03  0.00000000000E+00 0. -1.
         11    1    1    2    0    0 -0.29274867718E+02 -0.48801886966E+02 -0.38778642114E+02  0.68865267991E+02  0.00000000000E+00 0.  1.
</event>
<event>
 7    1  0.2666594E-009  0.1474655E+03  0.7561462E-02  0.1203622E+00
          1   -1    0    0  501    0  0.00000000000E+00  0.00000000000E+00  0.11696639040E+04  0.11696639040E+04  0.00000000000E+00 0. -1.
         -1   -1    0    0    0  501 -0.00000000000E+00 -0.00000000000E+00 -0.28403078846E+02  0.28403078846E+02  0.00000000000E+00 0.  1.
         25    2    1    2    0    0  0.10065934999E+03  0.10035606421E+03  0.70391337986E+03  0.72893384953E+03  0.12508743454E+03 0.  0.
          5    1    3    3  502    0  0.49275927668E+02  0.16384734716E+02  0.49736973293E+03  0.50009069198E+03  0.41800000000E+01 0.  1.
         -5    1    3    3    0  502  0.51383422325E+02  0.83971329493E+02  0.20654364694E+03  0.22884315755E+03  0.41800000000E+01 0.  1.
        -11    1    1    2    0    0 -0.59474832126E+02 -0.41729184632E+02  0.96253460377E+02  0.12059564313E+03  0.00000000000E+00 0.  1.
         11    1    1    2    0    0 -0.41184517866E+02 -0.58626879577E+02  0.34109398488E+03  0.34853749015E+03  0.00000000000E+00 0. -1.
</event>
<event>
 7    1  0.2666594E-009  0.1667665E+03  0.7561462E-02  0.1181262E+00
          1   -1    0    0  501    0  0.00000000000E+00  0.00000000000E+00  0.17084635737E+04  0.17084635737E+04  0.00000000000E+00 0. -1.
         -1   -1    0    0    0  501 -0.00000000000E+00 -0.00000000000E+00 -0.27799592606E+02  0.27799592606E+02  0.00000000000E+00 0.  1.
         25    2    1    2    0    0  0.15597871935E+02  0.13191624501E+03  0.13813729707E+04  0.13933714573E+04  0.12509014613E+03 0.  0.
          5    1    3    3  502    0  0.32607471169E+02  0.14552860294E+03  0.97058894995E+03  0.98198890198E+03  0.41800000000E+01 0.  1.
         -5    1    3    3    0  502 -0.17009599234E+02 -0.13612357935E+02  0.41078402072E+03  0.41138255534E+03  0.41800000000E+01 0.  1.
        -11    1    1    2    0    0 -0.95993333167E+01  0.13527227049E+02  0.64823286459E+02  0.66911819129E+02  0.00000000000E+00 0.  1.
         11    1    1    2    0    0 -0.59985386183E+01 -0.14544347205E+03  0.23446772399E+03  0.27597988989E+03  0.00000000000E+00 0. -1.
</event>
<event>
 7    1  0.2666594E-009  0.1173074E+03  0.7561462E-02  0.1247606E+00
         -1   -1    0    0    0  501 -0.00000000000E+00  0.00000000000E+00  0.10399413726E+03  0.10399413726E+03  0.00000000000E+00 0.  1.
          1   -1    0    0  501    0  0.00000000000E+00 -0.00000000000E+00 -0.20497681289E+03  0.20497681289E+03  0.00000000000E+00 0. -1.
         25    2    1    2    0    0  0.27143824795E+02 -0.94595213310E+02 -0.46956043783E+02  0.16594389615E+03  0.12508982778E+03 0.  0.
          5    1    3    3  502    0 -0.52450495822E+01 -0.64443271586E+02  0.34311143304E+02  0.73315569647E+02  0.41800000000E+01 0.  1.
         -5    1    3    3    0  502  0.32388874377E+02 -0.30151941724E+02 -0.81267187086E+02  0.92628326499E+02  0.41800000000E+01 0.  1.
        -11    1    1    2    0    0  0.26390367608E+02  0.18072072239E+02  0.52500690958E+01  0.32413184401E+02  0.00000000000E+00 0.  1.
         11    1    1    2    0    0 -0.53534192403E+02  0.76523141071E+02 -0.59276700940E+02  0.11061386961E+03  0.00000000000E+00 0. -1.
</event>
<event>
 7    1  0.2666594E-009  0.2564502E+03  0.7561462E-02  0.1109295E+00
          1   -1    0    0  501    0  0.00000000000E+00  0.00000000000E+00  0.13579814333E+04  0.13579814333E+04  0.00000000000E+00 0. -1.
         -1   -1    0    0    0  501 -0.00000000000E+00 -0.00000000000E+00 -0.64988358984E+02  0.64988358984E+02  0.00000000000E+00 0.  1.
         25    2    1    2    0    0 -0.10468209043E+03 -0.21446095013E+03  0.32631951915E+03  0.42318353465E+03  0.12509211100E+03 0.  0.
          5    1    3    3  502    0  0.12146854639E+02 -0.76035165102E+02  0.47193001390E+02  0.90407655593E+02  0.41800000000E+01 0.  1.
         -5    1    3    3    0  502 -0.11682894507E+03 -0.13842578502E+03  0.27912651776E+03  0.33277587906E+03  0.41800000000E+01 0.  1.
        -11    1    1    2    0    0 -0.11102342828E+02  0.62916426209E+02  0.27272322131E+03  0.28010657641E+03  0.00000000000E+00 0.  1.
         11    1    1    2    0    0  0.11578443326E+03  0.15154452392E+03  0.69395033384E+03  0.71967968122E+03  0.00000000000E+00 0. -1.
</event>
<event>
 7    1  0.2666594E-009  0.1119400E+03  0.7561462E-02  0.1257019E+00
         -2   -1    0    0    0  501 -0.00000000000E+00  0.00000000000E+00  0.51415477572E+02  0.51415477572E+02  0.00000000000E+00 0.  1.
          2   -1    0    0  501    0  0.00000000000E+00 -0.00000000000E+00 -0.39570493531E+03  0.39570493531E+03  0.00000000000E+00 0. -1.
         25    2    1    2    0    0  0.89905375358E+02 -0.15740712848E+02 -0.16520327767E+03  0.22643028066E+03  0.12509117669E+03 0.  0.
          5    1    3    3  502    0  0.37080375930E+02  0.33664321808E+02 -0.48743605315E+01  0.50492302705E+02  0.41800000000E+01 0. -1.
         -5    1    3    3    0  502  0.52824999428E+02 -0.49405034656E+02 -0.16032891714E+03  0.17593797795E+03  0.41800000000E+01 0. -1.
        -11    1    1    2    0    0 -0.41286656737E+02  0.29387188847E+02 -0.21213985665E+02  0.54938402603E+02  0.00000000000E+00 0.  1.
         11    1    1    2    0    0 -0.48618718621E+02 -0.13646475998E+02 -0.15787219440E+03  0.16575172962E+03  0.00000000000E+00 0. -1.
</event>
<event>
 7    1  0.2666594E-009  0.2546001E+03  0.7561462E-02  0.1110432E+00
          2   -1    0    0  501    0  0.00000000000E+00  0.00000000000E+00  0.13478739208E+04  0.13478739208E+04  0.00000000000E+00 0. -1.
         -2   -1    0    0    0  501 -0.00000000000E+00 -0.00000000000E+00 -0.55528493865E+02  0.55528493865E+02  0.00000000000E+00 0.  1.
         25    2    1    2    0    0  0.20347427665E+03 -0.12856228827E+03  0.48339515619E+03  0.55429928450E+03  0.12508707586E+03 0.  0.
          5    1    3    3  502    0  0.10731228585E+03 -0.13056047746E+03  0.36061927235E+03  0.39827841638E+03  0.41800000000E+01 0.  1.
         -5    1    3    3    0  502  0.96161990802E+02  0.19981891933E+01  0.12277588385E+03  0.15602086812E+03  0.41800000000E+01 0.  1.
        -11    1    1    2    0    0 -0.10748743188E+03  0.44701910928E+02  0.24957038906E+03  0.27538552604E+03  0.00000000000E+00 0.  1.
         11    1    1    2    0    0 -0.95986844768E+02  0.83860377340E+02  0.55937988167E+03  0.57371760412E+03  0.00000000000E+00 0. -1.
</event>
<event>
 7    1  0.2666594E-009  0.1120970E+03  0.7561462E-02  0.1256735E+00
         -2   -1    0    0    0  501 -0.00000000000E+00  0.00000000000E+00  0.19841897039E+02  0.19841897039E+02  0.00000000000E+00 0.  1.
          2   -1    0    0  501    0  0.00000000000E+00 -0.00000000000E+00 -0.11599613457E+04  0.11599613457E+04  0.00000000000E+00 0. -1.
         25    2    1    2    0    0  0.59690277715E+02 -0.35577761578E+02 -0.91616887300E+03  0.92727652161E+03  0.12509051642E+03 0.  0.
          5    1    3    3  502    0  0.95176543319E+02 -0.42824971424E+02 -0.60139388995E+03  0.61039711323E+03  0.41800000000E+01 0. -1.
         -5    1    3    3    0  502 -0.35486265604E+02  0.72472098456E+01 -0.31477498305E+03  0.31687940837E+03  0.41800000000E+01 0. -1.
        -11    1    1    2    0    0 -0.66981625786E+02  0.27514162751E+02 -0.22926295916E+03  0.24042685330E+03  0.00000000000E+00 0. -1.
         11    1    1    2    0    0  0.72913480706E+01  0.80635988267E+01  0.53123835092E+01  0.12099867820E+02  0.00000000000E+00 0.  1.
</event>
<event>
 7    1  0.2666594E-009  0.9745016E+02  0.7561462E-02  0.1285751E+00
         -1   -1    0    0    0  501 -0.00000000000E+00  0.00000000000E+00  0.29137865487E+02  0.29137865487E+02  0.00000000000E+00 0.  1.
          1   -1    0    0  501    0  0.00000000000E+00 -0.00000000000E+00 -0.40483091998E+03  0.40483091998E+03  0.00000000000E+00 0. -1.
         25    2    1    2    0    0 -0.70011393317E+01 -0.75904829777E+01 -0.21237315804E+03  0.24669047148E+03  0.12508876480E+03 0.  0.
          5    1    3    3  502    0  0.84331928406E+01  0.55192432750E+02 -0.65537706654E+02  0.86197371003E+02  0.41800000000E+01 0.  1.
         -5    1    3    3    0  502 -0.15434332172E+02 -0.62782915728E+02 -0.14683545138E+03  0.16049310047E+03  0.41800000000E+01 0.  1.
        -11    1    1    2    0    0 -0.33291563772E+02  0.57869640172E+01 -0.22014235488E+02  0.40329192095E+02  0.00000000000E+00 0.  1.
         11    1    1    2    0    0  0.40292703104E+02  0.18035189605E+01 -0.14130566097E+03  0.14694912190E+03  0.00000000000E+00 0. -1.
</event>
<event>
 7    1  0.2666594E-009  0.1217023E+03  0.7561462E-02  0.1240315E+00
          2   -1    0    0  501    0  0.00000000000E+00  0.00000000000E+00  0.18707608056E+03  0.18707608056E+03  0.00000000000E+00 0. -1.
         -2   -1    0    0    0  501 -0.00000000000E+00 -0.00000000000E+00 -0.11631666723E+03  0.11631666723E+03  0.00000000000E+00 0.  1.
         25    2    1    2    0    0 -0.11545927288E+02 -0.89491088441E+02 -0.47570373182E+01  0.15431301476E+03  0.12509162151E+03 0.  0.
          5    1    3    3  502    0  0.44409750935E+02 -0.79840471503E+02 -0.23401659223E+02  0.94402526038E+02  0.41800000000E+01 0.  1.
         -5    1    3    3    0  502 -0.55955678223E+02 -0.96506169375E+01  0.18644621905E+02  0.59910488720E+02  0.41800000000E+01 0.  1.
        -11    1    1    2    0    0 -0.27649043532E+01  0.73505929995E+02  0.31779348408E+01  0.73626528577E+02  0.00000000000E+00 0.  1.
         11    1    1    2    0    0  0.14310831641E+02  0.15985158446E+02  0.72338515812E+02  0.75453204456E+02  0.00000000000E+00 0. -1.
</event>
<event>
 7    1  0.2666594E-009  0.1458138E+03  0.7561462E-02  0.1205713E+00
         -2   -1    0    0    0  501 -0.00000000000E+00  0.00000000000E+00  0.27145745691E+02  0.27145745691E+02  0.00000000000E+00 0.  1.
          2   -1    0    0  501    0  0.00000000000E+00 -0.00000000000E+00 -0.10955705704E+04  0.10955705704E+04  0.00000000000E+00 0. -1.
         25    2    1    2    0    0 -0.78297043216E+02 -0.88425044202E+02 -0.44573837745E+03  0.47778611076E+03  0.12508977210E+03 0.  0.
          5    1    3    3  502    0 -0.40431578145E+01 -0.47454974194E+02 -0.33421803570E+03  0.33762033335E+03  0.41800000000E+01 0.  1.
         -5    1    3    3    0  502 -0.74253885401E+02 -0.40970070008E+02 -0.11152034175E+03  0.14016577741E+03  0.41800000000E+01 0.  1.
        -11    1    1    2    0    0  0.99669997382E+02  0.42694678674E+02 -0.51083558967E+03  0.52221637627E+03  0.00000000000E+00 0. -1.
         11    1    1    2    0    0 -0.21372954166E+02  0.45730365528E+02 -0.11185085757E+03  0.12271382905E+03  0.00000000000E+00 0.  1.
</event>
<event>
 7    1  0.2666594E-009  0.7039826E+02  0.7561462E-02  0.1358744E+00
         -2   -1    0    0    0  501 -0.00000000000E+00  0.00000000000E+00  0.56526803045E+02  0.56526803045E+02  0.00000000000E+00 0.  1.
          2   -1    0    0  501    0  0.00000000000E+00 -0.00000000000E+00 -0.22212979726E+03  0.22212979726E+03  0.00000000000E+00 0. -1.
         25    2    1    2    0    0  0.29555630701E+02 -0.91784368852E+01 -0.75222291830E+02  0.14921014723E+03  0.12508995099E+03 0.  0.
          5    1    3    3  502    0 -0.60572765163E+01 -0.11438048453E+02 -0.10293866961E+03  0.10383333594E+03  0.41800000000E+01 0.  1.
         -5    1    3    3    0  502  0.35612907217E+02  0.22596115674E+01  0.27716377784E+02  0.45376811285E+02  0.41800000000E+01 0.  1.
        -11    1    1    2    0    0 -0.59620465125E+02 -0.68805388179E+00 -0.47932803674E+02  0.76502463672E+02  0.00000000000E+00 0. -1.
         11    1    1    2    0    0  0.30064834425E+02  0.98664907670E+01 -0.42447898713E+02  0.52943989405E+02  0.00000000000E+00 0.  1.
</event>
<event>
 7    1  0.2666594E-009  0.1877226E+03  0.7561462E-02  0.1160532E+00
         -1   -1    0    0    0  501 -0.00000000000E+00  0.00000000000E+00  0.13332823868E+04  0.13332823868E+04  0.00000000000E+00 0.  1.
          1   -1    0    0  501    0  0.00000000000E+00 -0.00000000000E+00 -0.28673609390E+02  0.28673609390E+02  0.00000000000E+00 0. -1.
         25    2    1    2    0    0 -0.14362603629E+03  0.75068571041E+02  0.58755947457E+03  0.62220381831E+03  0.12509087379E+03 0.  0.
          5    1    3    3  502    0 -0.78826242491E+01 -0.24077703813E+02  0.28298515355E+02  0.38211908579E+02  0.41800000000E+01 0.  1.
         -5    1    3    3    0  502 -0.13574341204E+03  0.99146274854E+02  0.55926095922E+03  0.58399190973E+03  0.41800000000E+01 0.  1.
        -11    1    1    2    0    0  0.77469132457E+02 -0.84677745058E+02  0.47126149787E+03  0.48503524240E+03  0.00000000000E+00 0. -1.
         11    1    1    2    0    0  0.66156903833E+02  0.96091740176E+01  0.24578780496E+03  0.25471693548E+03  0.00000000000E+00 0.  1.
</event>
<event>
 7    1  0.2666594E-009  0.2152877E+03  0.7561462E-02  0.1137446E+00
          1   -1    0    0  501    0  0.00000000000E+00  0.00000000000E+00  0.84301341954E+03  0.84301341954E+03  0.00000000000E+00 0. -1.
         -1   -1    0    0    0  501 -0.00000000000E+00 -0.00000000000E+00 -0.10977364124E+03  0.10977364124E+03  0.00000000000E+00 0.  1.
         25    2    1    2    0    0  0.17232146128E+03 -0.81618714767E+02  0.44201546165E+02  0.23228533727E+03  0.12508557316E+03 0.  0.
          5    1    3    3  502    0  0.18668893975E+03 -0.59700620455E+02  0.21243679502E+02  0.19719455020E+03  0.41800000000E+01 0. -1.
         -5    1    3    3    0  502 -0.14367478473E+02 -0.21918094313E+02  0.22957866664E+02  0.35090787078E+02  0.41800000000E+01 0. -1.
        -11    1    1    2    0    0 -0.15606120137E+03  0.36840492858E+02  0.47893864348E+03  0.50506885145E+03  0.00000000000E+00 0.  1.
         11    1    1    2    0    0 -0.16260259907E+02  0.44778221909E+02  0.21009958866E+03  0.21543287206E+03  0.00000000000E+00 0. -1.
</event>
<event>
 7    1  0.2666594E-009  0.1157197E+03  0.7561462E-02  0.1250330E+00
          2   -1    0    0  501    0  0.00000000000E+00  0.00000000000E+00  0.17365005311E+04  0.17365005311E+04  0.00000000000E+00 0. -1.
         -2   -1    0    0    0  501 -0.00000000000E+00 -0.00000000000E+00 -0.12013893665E+02  0.12013893665E+02  0.00000000000E+00 0.  1.
         25    2    1    2    0    0 -0.43664644069E+02 -0.39706596222E+02  0.13828791266E+04  0.13897789611E+04  0.12509063539E+03 0.  0.
          5    1    3    3  502    0  0.98681665008E+01 -0.72821072074E+02  0.84925352369E+03  0.85243727579E+03  0.41800000000E+01 0.  1.
         -5    1    3    3    0  502 -0.53532810570E+02  0.33114475853E+02  0.53362560293E+03  0.53734168535E+03  0.41800000000E+01 0.  1.
        -11    1    1    2    0    0  0.36581419638E+02 -0.15034749775E+02  0.23874360115E+03  0.24199741952E+03  0.00000000000E+00 0. -1.
         11    1    1    2    0    0  0.70832244315E+01  0.54741345997E+02  0.10286390966E+03  0.11673804410E+03  0.00000000000E+00 0.  1.
</event>
<event>
 7    1  0.2666594E-009  0.1053201E+03  0.7561462E-02  0.1269490E+00
         -1   -1    0    0    0  501 -0.00000000000E+00  0.00000000000E+00  0.26139046262E+02  0.26139046262E+02  0.00000000000E+00 0.  1.
          1   -1    0    0  501    0  0.00000000000E+00 -0.00000000000E+00 -0.10448800527E+04  0.10448800527E+04  0.00000000000E+00 0. -1.
         25    2    1    2    0    0 -0.57692261452E+02  0.44050553736E+02 -0.87367306844E+03  0.88556269537E+03  0.12509120113E+03 0.  0.
          5    1    3    3  502    0  0.24410012369E+02  0.16419023167E+02 -0.56837699131E+02  0.64136023171E+02  0.41800000000E+01 0.  1.
         -5    1    3    3    0  502 -0.82102273822E+02  0.27631530569E+02 -0.81683536931E+03  0.82142667220E+03  0.41800000000E+01 0.  1.
        -11    1    1    2    0    0  0.15103864091E+02 -0.49045168956E+02 -0.23301880577E+02  0.56360739410E+02  0.00000000000E+00 0.  1.
         11    1    1    2    0    0  0.42588397361E+02  0.49946152202E+01 -0.12176605747E+03  0.12909566423E+03  0.00000000000E+00 0. -1.
</event>
<event>
 7    1  0.2666594E-009  0.7963930E+02  0.7561462E-02  0.1330078E+00
          3   -1    0    0  501    0  0.00000000000E+00  0.00000000000E+00  0.69479375699E+02  0.69479375699E+02  0.00000000000E+00 0. -1.
         -3   -1    0    0    0  501 -0.00000000000E+00 -0.00000000000E+00 -0.21497131634E+03  0.21497131634E+03  0.00000000000E+00 0.  1.
         25    2    1    2    0    0 -0.19247718896E+02  0.91102755886E+01 -0.14223945192E+03  0.19061264501E+03  0.12509055500E+03 0.  0.
          5    1    3    3  502    0  0.43243703256E+02  0.15451438252E+02 -0.14724032791E+02  0.48404900134E+02  0.41800000000E+01 0.  1.
         -5    1    3    3    0  502 -0.62491422152E+02 -0.63411626631E+01 -0.12751541913E+03  0.14220774488E+03  0.41800000000E+01 0.  1.
        -11    1    1    2    0    0  0.28554575617E+02 -0.20761308758E+02 -0.40493432403E+02  0.53722563209E+02  0.00000000000E+00 0.  1.
         11    1    1    2    0    0 -0.93068567210E+01  0.11651033170E+02  0.37240943682E+02  0.40115483822E+02  0.00000000000E+00 0. -1.
</event>
<event>
 7    1  0.2666594E-009  0.1854511E+03  0.7561462E-02  0.1162629E+00
          1   -1    0    0  501    0  0.00000000000E+00  0.00000000000E+00  0.58730668684E+03  0.58730668684E+03  0.00000000000E+00 0. -1.
         -1   -1    0    0    0  501 -0.00000000000E+00 -0.00000000000E+00 -0.11459179573E+03  0.11459179573E+03  0.00000000000E+00 0.  1.
         25    2    1    2    0    0  0.11728288348E+03  0.10774310702E+03  0.83979974879E+01  0.20268715941E+03  0.12509079247E+03 0.  0.
          5    1    3    3  502    0 -0.25641902151E+02  0.27403193007E+02 -0.51826741125E+01  0.38115280976E+02  0.41800000000E+01 0.  1.
         -5    1    3    3    0  502  0.14292478563E+03  0.80339914010E+02  0.13580671600E+02  0.16457187844E+03  0.41800000000E+01 0.  1.
        -11    1    1    2    0    0 -0.73979948993E+02 -0.10116731579E+03  0.24101377003E+03  0.27165326425E+03  0.00000000000E+00 0.  1.
         11    1    1    2    0    0 -0.43302934490E+02 -0.65757912315E+01  0.22330312359E+03  0.22755805890E+03  0.00000000000E+00 0. -1.
</event>
<event>
 7    1  0.2666594E-009  0.1138597E+03  0.7561462E-02  0.1253585E+00
         -2   -1    0    0    0  501 -0.00000000000E+00  0.00000000000E+00  0.11595277666E+03  0.11595277666E+03  0.00000000000E+00 0. -1.
          2   -1    0    0  501    0  0.00000000000E+00 -0.00000000000E+00 -0.18071069632E+03  0.18071069632E+03  0.00000000000E+00 0.  1.
         25    2    1    2    0    0  0.87228879061E+02 -0.23126819263E+02 -0.21834406918E+01  0.15425909435E+03  0.12508946264E+03 0.  0.
          5    1    3    3  502    0  0.79230949469E+02  0.10153570405E+02 -0.50725395443E+02  0.94716294737E+02  0.41800000000E+01 0.  1.
         -5    1    3    3    0  502  0.79979295922E+01 -0.33280389668E+02  0.48541954752E+02  0.59542799609E+02  0.41800000000E+01 0.  1.
        -11    1    1    2    0    0 -0.55514613042E+01  0.30721617615E+02  0.10099830887E+02  0.32812240025E+02  0.00000000000E+00 0. -1.
         11    1    1    2    0    0 -0.81677417757E+02 -0.75947983529E+01 -0.72674309856E+02  0.10959213862E+03  0.00000000000E+00 0.  1.
</event>
<event>
 7    1  0.2666594E-009  0.9450687E+02  0.7561462E-02  0.1292291E+00
         -2   -1    0    0    0  501 -0.00000000000E+00  0.00000000000E+00  0.14922340979E+03  0.14922340979E+03  0.00000000000E+00 0.  1.
          2   -1    0    0  501    0  0.00000000000E+00 -0.00000000000E+00 -0.92403508406E+02  0.92403508406E+02  0.00000000000E+00 0. -1.
         25    2    1    2    0    0  0.24732065536E+02 -0.34433181906E+02  0.31253707792E+02  0.13572907528E+03  0.12509303955E+03 0.  0.
          5    1    3    3  502    0 -0.35051996830E+02 -0.39049726692E+02  0.50166383506E+02  0.72716312272E+02  0.41800000000E+01 0.  1.
         -5    1    3    3    0  502  0.59784062365E+02  0.46165447858E+01 -0.18912675714E+02  0.63012763003E+02  0.41800000000E+01 0.  1.
        -11    1    1    2    0    0  0.90871310735E+01  0.40845563565E+02  0.48864562327E+02  0.64332584788E+02  0.00000000000E+00 0.  1.
         11    1    1    2    0    0 -0.33819196609E+02 -0.64123816591E+01 -0.23298368736E+02  0.41565258132E+02  0.00000000000E+00 0. -1.
</event>
<event>
 7    1  0.2666594E-009  0.1548929E+03  0.7561462E-02  0.1194586E+00
         -1   -1    0    0    0  501 -0.00000000000E+00  0.00000000000E+00  0.97086015197E+02  0.97086015197E+02  0.00000000000E+00 0.  1.
          1   -1    0    0  501    0  0.00000000000E+00 -0.00000000000E+00 -0.34450436671E+03  0.34450436671E+03  0.00000000000E+00 0. -1.
         25    2    1    2    0    0 -0.11138999313E+03  0.91361398828E+02 -0.16977684739E+03  0.25539589782E+03  0.12509296921E+03 0.  0.
          5    1    3    3  502    0 -0.93725556472E+02  0.42958420390E+02 -0.31678902052E+02  0.10793947866E+03  0.41800000000E+01 0. -1.
         -5    1    3    3    0  502 -0.17664436660E+02  0.48402978438E+02 -0.13809794534E+03  0.14745641916E+03  0.41800000000E+01 0. -1.
        -11    1    1    2    0    0  0.39246691183E+02 -0.68990969789E+02 -0.77108358496E+02  0.11066054234E+03  0.00000000000E+00 0. -1.
         11    1    1    2    0    0  0.72143301950E+02 -0.22370429039E+02 -0.53314562573E+00  0.75533941747E+02  0.00000000000E+00 0.  1.
</event>
<event>
 7    1  0.2666594E-009  0.1845811E+03  0.7561462E-02  0.1163442E+00
         -1   -1    0    0    0  501 -0.00000000000E+00  0.00000000000E+00  0.40682767365E+02  0.40682767365E+02  0.00000000000E+00 0.  1.
          1   -1    0    0  501    0  0.00000000000E+00 -0.00000000000E+00 -0.95633465316E+03  0.95633465316E+03  0.00000000000E+00 0. -1.
         25    2    1    2    0    0  0.15785977868E+03  0.19298303867E+02 -0.59295774329E+03  0.62652864292E+03  0.12508845197E+03 0.  0.
          5    1    3    3  502    0  0.85734251678E+02  0.60708186657E+02 -0.43985253038E+03  0.45224281831E+03  0.41800000000E+01 0.  1.
         -5    1    3    3    0  502  0.72125527001E+02 -0.41409882790E+02 -0.15310521291E+03  0.17428582461E+03  0.41800000000E+01 0.  1.
        -11    1    1    2    0    0 -0.14565647061E+03 -0.44877795185E+02 -0.25462657761E+03  0.29675666455E+03  0.00000000000E+00 0.  1.
         11    1    1    2    0    0 -0.12203308066E+02  0.25579491318E+02 -0.68067564896E+02  0.73732113049E+02  0.00000000000E+00 0. -1.
</event>
<event>
 7    1  0.2666594E-009  0.9846113E+02  0.7561462E-02  0.1283566E+00
          4   -1    0    0  501    0  0.00000000000E+00  0.00000000000E+00  0.31759549737E+02  0.31759549737E+02  0.00000000000E+00 0. -1.
         -4   -1    0    0    0  501 -0.00000000000E+00 -0.00000000000E+00 -0.45767879909E+03  0.45767879909E+03  0.00000000000E+00 0.  1.
         25    2    1    2    0    0  0.46956782381E+02  0.11922693190E+02 -0.23914025148E+03  0.27419328643E+03  0.12508720327E+03 0.  0.
          5    1    3    3  502    0  0.20297298461E+02 -0.56167046255E+02 -0.90859355172E+02  0.10880998223E+03  0.41800000000E+01 0. -1.
         -5    1    3    3    0  502  0.26659483920E+02  0.68089739446E+02 -0.14828089630E+03  0.16538330420E+03  0.41800000000E+01 0. -1.
        -11    1    1    2    0    0 -0.26357690445E+02  0.14677166019E+02 -0.52466410218E+01  0.30621467795E+02  0.00000000000E+00 0. -1.
         11    1    1    2    0    0 -0.20599091936E+02 -0.26599859209E+02 -0.18153235686E+03  0.18462359461E+03  0.00000000000E+00 0.  1.
</event>
<event>
 7    1  0.2666594E-009  0.1519153E+03  0.7561462E-02  0.1198139E+00
          1   -1    0    0  501    0  0.00000000000E+00  0.00000000000E+00  0.11535904354E+04  0.11535904354E+04  0.00000000000E+00 0. -1.
         -1   -1    0    0    0  501 -0.00000000000E+00 -0.00000000000E+00 -0.31704244576E+02  0.31704244576E+02  0.00000000000E+00 0.  1.
         25    2    1    2    0    0 -0.73721711521E+02 -0.10528781311E+03  0.89366819769E+03  0.91148882477E+03  0.12509442740E+03 0.  0.
          5    1    3    3  502    0  0.12793159046E+02 -0.85314703288E+02  0.53756560417E+03  0.54445983754E+03  0.41800000000E+01 0.  1.
         -5    1    3    3    0  502 -0.86514870568E+02 -0.19973109823E+02  0.35610259352E+03  0.36702898722E+03  0.41800000000E+01 0.  1.
        -11    1    1    2    0    0  0.20829034505E+02  0.27269124798E+02  0.94433030187E+01  0.35589743151E+02  0.00000000000E+00 0.  1.
         11    1    1    2    0    0  0.52892677016E+02  0.78018688313E+02  0.21877469007E+03  0.23821611201E+03  0.00000000000E+00 0. -1.
</event>
<event>
 7    1  0.2974454E-009  0.1143419E+03  0.7561462E-02  0.1252734E+00
         -2   -1    0    0    0  501 -0.00000000000E+00  0.00000000000E+00  0.57270958121E+02  0.57270958121E+02  0.00000000000E+00 0.  1.
          2   -1    0    0  501    0  0.00000000000E+00 -0.00000000000E+00 -0.35152513554E+03  0.35152513554E+03  0.00000000000E+00 0. -1.
         25    2    1    2    0    0  0.21588362706E+02 -0.79964322576E+02 -0.10244718092E+03  0.18166738844E+03  0.12508902772E+03 0.  0.
          5    1    3    3  502    0 -0.49666230426E+02 -0.25834336606E+02 -0.19072656803E+02  0.59290690923E+02  0.41800000000E+01 0.  1.
         -5    1    3    3    0  502  0.71254593133E+02 -0.54129985970E+02 -0.83374524116E+02  0.12237669752E+03  0.41800000000E+01 0.  1.
        -11    1    1    2    0    0 -0.90516148183E+01  0.42636656571E+02 -0.15162925850E+02  0.46149003616E+02  0.00000000000E+00 0.  1.
         11    1    1    2    0    0 -0.12536747888E+02  0.37327666004E+02 -0.17664407065E+03  0.18097970160E+03  0.00000000000E+00 0. -1.
</event>
<event>
 7    1  0.2666594E-009  0.1343938E+03  0.7561462E-02  0.1221078E+00
          1   -1    0    0  501    0  0.00000000000E+00  0.00000000000E+00  0.16438628815E+03  0.16438628815E+03  0.00000000000E+00 0. -1.
         -1   -1    0    0    0  501 -0.00000000000E+00 -0.00000000000E+00 -0.15004930610E+03  0.15004930610E+03  0.00000000000E+00 0.  1.
         25    2    1    2    0    0  0.10204225103E+03 -0.21585004935E+02 -0.26985985829E+02  0.16508979466E+03  0.12509142031E+03 0.  0.
          5    1    3    3  502    0  0.32301358908E+02 -0.51509788180E+02 -0.56931396434E+02  0.83398395461E+02  0.41800000000E+01 0.  1.
         -5    1    3    3    0  502  0.69740892121E+02  0.29924783245E+02  0.29945410605E+02  0.81691399194E+02  0.41800000000E+01 0.  1.
        -11    1    1    2    0    0 -0.44089060662E+02 -0.30749390496E+02 -0.11631998594E+02  0.54997033349E+02  0.00000000000E+00 0.  1.
         11    1    1    2    0    0 -0.57953190367E+02  0.52334395431E+02  0.52954966474E+02  0.94348766251E+02  0.00000000000E+00 0. -1.
</event>
<event>
 7    1  0.2666594E-009  0.1505130E+03  0.7561462E-02  0.1199844E+00
          2   -1    0    0  501    0  0.00000000000E+00  0.00000000000E+00  0.35941609094E+02  0.35941609094E+02  0.00000000000E+00 0. -1.
         -2   -1    0    0    0  501 -0.00000000000E+00 -0.00000000000E+00 -0.72210288690E+03  0.72210288690E+03  0.00000000000E+00 0.  1.
         25    2    1    2    0    0 -0.58998159723E+02 -0.97431426836E+02 -0.28869732689E+03  0.33461540370E+03  0.12509059138E+03 0.  0.
          5    1    3    3  502    0 -0.86515818024E+02 -0.97227169948E+02 -0.17844047752E+03  0.22089949244E+03  0.41800000000E+01 0. -1.
         -5    1    3    3    0  502  0.27517658301E+02 -0.20425688782E+00 -0.11025684937E+03  0.11371591125E+03  0.41800000000E+01 0. -1.
        -11    1    1    2    0    0  0.51213480698E+01  0.88161181166E+02 -0.28524410704E+03  0.29860144453E+03  0.00000000000E+00 0.  1.
         11    1    1    2    0    0  0.53876811654E+02  0.92702456699E+01 -0.11221984387E+03  0.12482764777E+03  0.00000000000E+00 0. -1.
</event>
<event>
 7    1  0.2666594E-009  0.1306650E+03  0.7561462E-02  0.1226472E+00
          2   -1    0    0  501    0  0.00000000000E+00  0.00000000000E+00  0.25972726728E+03  0.25972726728E+03  0.00000000000E+00 0. -1.
         -2   -1    0    0    0  501 -0.00000000000E+00 -0.00000000000E+00 -0.74073747717E+02  0.74073747717E+02  0.00000000000E+00 0.  1.
         25    2    1    2    0    0 -0.23336128102E+02  0.84352411328E+02  0.88037504296E+02  0.17623308277E+03  0.12509033987E+03 0.  0.
          5    1    3    3  502    0 -0.44789902160E+02 -0.67283659945E+01 -0.30399901003E+01  0.45586403503E+02  0.41800000000E+01 0. -1.
         -5    1    3    3    0  502  0.21453774059E+02  0.91080777323E+02  0.91077494397E+02  0.13064667927E+03  0.41800000000E+01 0. -1.
        -11    1    1    2    0    0 -0.31513541324E+02 -0.18759711631E+02  0.18499662783E+02  0.41076362915E+02  0.00000000000E+00 0. -1.
         11    1    1    2    0    0  0.54849669425E+02 -0.65592699697E+02  0.79116352487E+02  0.11649156931E+03  0.00000000000E+00 0.  1.
</event>
<event>
 7    1  0.2666594E-009  0.1222738E+03  0.7561462E-02  0.1239392E+00
          1   -1    0    0  501    0  0.00000000000E+00  0.00000000000E+00  0.40720272334E+03  0.40720272334E+03  0.00000000000E+00 0. -1.
         -1   -1    0    0    0  501 -0.00000000000E+00 -0.00000000000E+00 -0.38331559087E+02  0.38331559087E+02  0.00000000000E+00 0.  1.
         25    2    1    2    0    0 -0.56193985191E+02  0.15044510243E+02  0.24925246103E+03  0.28488436956E+03  0.12509281925E+03 0.  0.
          5    1    3    3  502    0  0.21307093292E+02 -0.37861227012E+02  0.69465649201E+02  0.82039097718E+02  0.41800000000E+01 0. -1.
         -5    1    3    3    0  502 -0.77501078482E+02  0.52905737255E+02  0.17978681183E+03  0.20284527184E+03  0.41800000000E+01 0. -1.
        -11    1    1    2    0    0 -0.14591705053E+02 -0.31131038179E+02  0.33275599279E+02  0.47846890200E+02  0.00000000000E+00 0.  1.
         11    1    1    2    0    0  0.70785690244E+02  0.16086527936E+02  0.86343103942E+02  0.11280302267E+03  0.00000000000E+00 0. -1.
</event>
<event>
 7    1  0.2666594E-009  0.1438548E+03  0.7561462E-02  0.1208234E+00
         -3   -1    0    0    0  501 -0.00000000000E+00  0.00000000000E+00  0.78386986387E+03  0.78386986387E+03  0.00000000000E+00 0.  1.
          3   -1    0    0  501    0  0.00000000000E+00 -0.00000000000E+00 -0.70592573187E+02  0.70592573187E+02  0.00000000000E+00 0. -1.
         25    2    1    2    0    0  0.39888750801E+02 -0.93106582399E+02  0.37828211047E+02  0.16534610042E+03  0.12509360993E+03 0.  0.
          5    1    3    3  502    0 -0.42117514521E+02 -0.20799234519E+02 -0.58865508792E+01  0.47524909966E+02  0.41800000000E+01 0. -1.
         -5    1    3    3    0  502  0.82006265322E+02 -0.72307347880E+02  0.43714761926E+02  0.11782119045E+03  0.41800000000E+01 0. -1.
        -11    1    1    2    0    0  0.24149622399E+02  0.97971579564E+01  0.71655391019E+02  0.76247515553E+02  0.00000000000E+00 0. -1.
         11    1    1    2    0    0 -0.64038373199E+02  0.83309424443E+02  0.60379368862E+03  0.61286882109E+03  0.00000000000E+00 0.  1.
</event>
<event>
 7    1  0.2666594E-009  0.8156435E+02  0.7561462E-02  0.1324670E+00
          1   -1    0    0  501    0  0.00000000000E+00  0.00000000000E+00  0.78698195618E+02  0.78698195618E+02  0.00000000000E+00 0. -1.
         -1   -1    0    0    0  501 -0.00000000000E+00 -0.00000000000E+00 -0.21312956964E+03  0.21312956964E+03  0.00000000000E+00 0.  1.
         25    2    1    2    0    0  0.65716552189E+02  0.26263761165E+02 -0.81012216727E+02  0.16498330212E+03  0.12509220734E+03 0.  0.
          5    1    3    3  502    0  0.13113426573E+02  0.33654867791E+02 -0.10156148349E+03  0.10787409055E+03  0.41800000000E+01 0.  1.
         -5    1    3    3    0  502  0.52603125616E+02 -0.73911066267E+01  0.20549266763E+02  0.57109211571E+02  0.41800000000E+01 0.  1.
        -11    1    1    2    0    0 -0.38229279997E+02 -0.46380696127E+01 -0.76009801134E+02  0.85208446807E+02  0.00000000000E+00 0.  1.
         11    1    1    2    0    0 -0.27487272192E+02 -0.21625691552E+02  0.22590643835E+02  0.41636016338E+02  0.00000000000E+00 0. -1.
</event>
<event>
 7    1  0.2666594E-009  0.1179226E+03  0.7561462E-02  0.1246564E+00
          1   -1    0    0  501    0  0.00000000000E+00  0.00000000000E+00  0.32761133290E+03  0.32761133290E+03  0.00000000000E+00 0. -1.
         -1   -1    0    0    0  501 -0.00000000000E+00 -0.00000000000E+00 -0.58533167745E+02  0.58533167745E+02  0.00000000000E+00 0.  1.
         25    2    1    2    0    0  0.88618155357E+02 -0.41304738659E+02  0.13947017743E+03  0.21132632639E+03  0.12509047501E+03 0.  0.
          5    1    3    3  502    0  0.42686613878E+02  0.30572148725E+02  0.61924870532E+01  0.53034164252E+02  0.41800000000E+01 0.  1.
         -5    1    3    3    0  502  0.45931541480E+02 -0.71876887384E+02  0.13327769038E+03  0.15829216214E+03  0.41800000000E+01 0.  1.
        -11    1    1    2    0    0 -0.43868713522E+02  0.20614644401E+02  0.11272862474E+03  0.12270766245E+03  0.00000000000E+00 0. -1.
         11    1    1    2    0    0 -0.44749441836E+02  0.20690094258E+02  0.16879362987E+02  0.52110511798E+02  0.00000000000E+00 0.  1.
</event>
<event>
 7    1  0.2666594E-009  0.1102653E+03  0.7561462E-02  0.1260079E+00
         -1   -1    0    0    0  501 -0.00000000000E+00  0.00000000000E+00  0.19605715389E+02  0.19605715389E+02  0.00000000000E+00 0.  1.
          1   -1    0    0  501    0  0.00000000000E+00 -0.00000000000E+00 -0.16524698630E+04  0.16524698630E+04  0.00000000000E+00 0. -1.
         25    2    1    2    0    0 -0.31850849849E+02  0.93566979336E+02 -0.13016042632E+04  0.13113316386E+04  0.12509097578E+03 0.  0.
          5    1    3    3  502    0 -0.27202361360E+02  0.94603020132E+02 -0.49539094156E+03  0.50509341439E+03  0.41800000000E+01 0.  1.
         -5    1    3    3    0  502 -0.46484884892E+01 -0.10360407961E+01 -0.80621332165E+03  0.80623822425E+03  0.41800000000E+01 0.  1.
        -11    1    1    2    0    0  0.38545640837E+02 -0.23210083049E+02 -0.37411083997E+02  0.58515498704E+02  0.00000000000E+00 0.  1.
         11    1    1    2    0    0 -0.66947909882E+01 -0.70356896287E+02 -0.29384880042E+03  0.30222844107E+03  0.00000000000E+00 0. -1.
</event>
<event>
 7    1  0.2666594E-009  0.1014531E+03  0.7561462E-02  0.1277270E+00
          1   -1    0    0  501    0  0.00000000000E+00  0.00000000000E+00  0.22471310313E+03  0.22471310313E+03  0.00000000000E+00 0. -1.
         -1   -1    0    0    0  501 -0.00000000000E+00 -0.00000000000E+00 -0.75612345918E+02  0.75612345918E+02  0.00000000000E+00 0.  1.
         25    2    1    2    0    0 -0.72943410830E+02 -0.11718975424E+02  0.91226657382E+02  0.17154580868E+03  0.12509031094E+03 0.  0.
          5    1    3    3  502    0  0.26411238841E+02 -0.67455551851E+01 -0.10211616106E+02  0.29407576496E+02  0.41800000000E+01 0. -1.
         -5    1    3    3    0  502 -0.99354649671E+02 -0.49734202391E+01  0.10143827349E+03  0.14213823218E+03  0.41800000000E+01 0. -1.
        -11    1    1    2    0    0  0.30611490271E+02 -0.34248851596E+01 -0.21495226481E+02  0.37561122672E+02  0.00000000000E+00 0.  1.
         11    1    1    2    0    0  0.42331920559E+02  0.15143860584E+02  0.79369326316E+02  0.91218517700E+02  0.00000000000E+00 0. -1.
</event>
<event>
 7    1  0.2666594E-009  0.1619526E+03  0.7561462E-02  0.1186510E+00
         -1   -1    0    0    0  501 -0.00000000000E+00  0.00000000000E+00  0.73524097033E+02  0.73524097033E+02  0.00000000000E+00 0.  1.
          1   -1    0    0  501    0  0.00000000000E+00 -0.00000000000E+00 -0.44486901686E+03  0.44486901686E+03  0.00000000000E+00 0. -1.
         25    2    1    2    0    0  0.93125330147E+02 -0.10985115515E+03 -0.17013481552E+03  0.25560354429E+03  0.12509081900E+03 0.  0.
          5    1    3    3  502    0  0.58743571087E+02 -0.25073918999E+02 -0.14820330708E+03  0.16143482024E+03  0.41800000000E+01 0.  1.
         -5    1    3    3    0  502  0.34381759060E+02 -0.84777236156E+02 -0.21931508438E+02  0.94168724047E+02  0.41800000000E+01 0.  1.
        -11    1    1    2    0    0 -0.10774532491E+03  0.10960591488E+03 -0.17615631609E+03  0.23378100718E+03  0.00000000000E+00 0.  1.
         11    1    1    2    0    0  0.14619994768E+02  0.24524027111E+00 -0.25053788228E+02  0.29008562432E+02  0.00000000000E+00 0. -1.
</event>
<event>
 7    1  0.2666594E-009  0.9884703E+02  0.7561462E-02  0.1282739E+00
          1   -1    0    0  501    0  0.00000000000E+00  0.00000000000E+00  0.39895661725E+03  0.39895661725E+03  0.00000000000E+00 0. -1.
         -1   -1    0    0    0  501 -0.00000000000E+00 -0.00000000000E+00 -0.36410605352E+02  0.36410605352E+02  0.00000000000E+00 0.  1.
         25    2    1    2    0    0  0.52424478791E+02 -0.56066169607E+01  0.18084031036E+03  0.22611880994E+03  0.12508692270E+03 0.  0.
          5    1    3    3  502    0  0.20199468722E+02 -0.64876799034E+02  0.94466493248E+02  0.11644057856E+03  0.41800000000E+01 0.  1.
         -5    1    3    3    0  502  0.32225010069E+02  0.59270182073E+02  0.86373817110E+02  0.10967823138E+03  0.41800000000E+01 0.  1.
        -11    1    1    2    0    0 -0.14601665230E+02  0.17106650526E+02 -0.80492426982E+00  0.22505422076E+02  0.00000000000E+00 0.  1.
         11    1    1    2    0    0 -0.37822813561E+02 -0.11500033566E+02  0.18251062581E+03  0.18674299058E+03  0.00000000000E+00 0. -1.
</event>
<event>
 7    1  0.2666594E-009  0.2791988E+03  0.7561462E-02  0.1096127E+00
          2   -1    0    0  501    0  0.00000000000E+00  0.00000000000E+00  0.10879418245E+04  0.10879418245E+04  0.00000000000E+00 0. -1.
         -2   -1    0    0    0  501 -0.00000000000E+00 -0.00000000000E+00 -0.80407466073E+02  0.80407466073E+02  0.00000000000E+00 0.  1.
         25    2    1    2    0    0 -0.52929187230E+01  0.27278486970E+03  0.41749901098E+03  0.51419101055E+03  0.12508945216E+03 0.  0.
          5    1    3    3  502    0 -0.29672457590E+02  0.15172648348E+03  0.13285306363E+03  0.20388425502E+03  0.41800000000E+01 0.  1.
         -5    1    3    3    0  502  0.24379538867E+02  0.12105838622E+03  0.28464594735E+03  0.31030675553E+03  0.41800000000E+01 0.  1.
        -11    1    1    2    0    0 -0.27871262499E+02 -0.83947672524E+02  0.14945781192E+03  0.17367111602E+03  0.00000000000E+00 0.  1.
         11    1    1    2    0    0  0.33164181222E+02 -0.18883719718E+03  0.44057753555E+03  0.48048716402E+03  0.00000000000E+00 0. -1.
</event>
<event>
 7    1  0.3473400E-009  0.1918248E+03  0.7561462E-02  0.1156826E+00
         -2   -1    0    0    0  501 -0.00000000000E+00  0.00000000000E+00  0.39785081677E+02  0.39785081677E+02  0.00000000000E+00 0.  1.
          2   -1    0    0  501    0  0.00000000000E+00 -0.00000000000E+00 -0.13236891140E+04  0.13236891140E+04  0.00000000000E+00 0. -1.
         25    2    1    2    0    0  0.67853668372E+02 -0.17566427766E+03 -0.44983994021E+03  0.50345381579E+03  0.12509082329E+03 0.  0.
          5    1    3    3  502    0  0.11341229186E+02 -0.18020514396E+01 -0.16186162007E+03  0.16232229459E+03  0.41800000000E+01 0. -1.
         -5    1    3    3    0  502  0.56512439186E+02 -0.17386222622E+03 -0.28797832014E+03  0.34113152120E+03  0.41800000000E+01 0. -1.
        -11    1    1    2    0    0 -0.33036431466E+02  0.72191727995E+02 -0.17756275920E+03  0.19450343146E+03  0.00000000000E+00 0.  1.
         11    1    1    2    0    0 -0.34817236906E+02  0.10347254967E+03 -0.65650133290E+03  0.66551694841E+03  0.00000000000E+00 0. -1.
</event>
<event>
 7    1  0.2780242E-009  0.1660631E+03  0.7561462E-02  0.1182017E+00
          1   -1    0    0  501    0  0.00000000000E+00  0.00000000000E+00  0.13282481154E+04  0.13282481154E+04  0.00000000000E+00 0. -1.
         -1   -1    0    0    0  501 -0.00000000000E+00 -0.00000000000E+00 -0.22233744828E+02  0.22233744828E+02  0.00000000000E+00 0.  1.
         25    2    1    2    0    0 -0.82987429995E+02  0.10289075880E+03  0.74590425853E+03  0.76778520634E+03  0.12509012108E+03 0.  0.
          5    1    3    3  502    0 -0.53160457917E+02 -0.11616590858E+02  0.13688841667E+03  0.14736651753E+03  0.41800000000E+01 0. -1.
         -5    1    3    3    0  502 -0.29826972078E+02  0.11450734966E+03  0.60901584186E+03  0.62041868881E+03  0.41800000000E+01 0. -1.
        -11    1    1    2    0    0  0.36634854080E+02 -0.10653041781E+03  0.43063681140E+03  0.44512796563E+03  0.00000000000E+00 0.  1.
         11    1    1    2    0    0  0.46352575915E+02  0.36396590097E+01  0.12947330068E+03  0.13756868830E+03  0.00000000000E+00 0. -1.
</event>
<event>
 7    1  0.2666594E-009  0.1064513E+03  0.7561462E-02  0.1267286E+00
          2   -1    0    0  501    0  0.00000000000E+00  0.00000000000E+00  0.66039726393E+02  0.66039726393E+02  0.00000000000E+00 0. -1.
         -2   -1    0    0    0  501 -0.00000000000E+00 -0.00000000000E+00 -0.21796314773E+03  0.21796314773E+03  0.00000000000E+00 0.  1.
         25    2    1    2    0    0  0.41770600449E+02  0.27095982766E+02 -0.64258992711E+02  0.14917695724E+03  0.12508225727E+03 0.  0.
          5    1    3    3  502    0  0.66218620750E+02 -0.22128533407E+02 -0.79722558069E+01  0.70396072244E+02  0.41800000000E+01 0. -1.
         -5    1    3    3    0  502 -0.24448020301E+02  0.49224516173E+02 -0.56286736904E+02  0.78780884994E+02  0.41800000000E+01 0. -1.
        -11    1    1    2    0    0 -0.48154615854E+02 -0.46786025494E+02 -0.91785436170E+02  0.11372055884E+03  0.00000000000E+00 0.  1.
         11    1    1    2    0    0  0.63840154047E+01  0.19690042728E+02  0.41210075399E+01  0.21105358051E+02  0.00000000000E+00 0. -1.
</event>
<event>
 7    1  0.2780689E-009  0.1287228E+03  0.7561462E-02  0.1229363E+00
          2   -1    0    0  501    0  0.00000000000E+00  0.00000000000E+00  0.36457532126E+03  0.36457532126E+03  0.00000000000E+00 0. -1.
         -2   -1    0    0    0  501 -0.00000000000E+00 -0.00000000000E+00 -0.79679899982E+02  0.79679899982E+02  0.00000000000E+00 0.  1.
         25    2    1    2    0    0  0.18152673808E+02 -0.70737245990E+02  0.29316139787E+03  0.32699499753E+03  0.12509534631E+03 0.  0.
          5    1    3    3  502    0 -0.50351527653E+02 -0.44705789476E+02  0.10267830430E+03  0.12285841658E+03  0.41800000000E+01 0. -1.
         -5    1    3    3    0  502  0.68504201462E+02 -0.26031456514E+02  0.19048309357E+03  0.20413658095E+03  0.41800000000E+01 0. -1.
        -11    1    1    2    0    0  0.29768506792E+02  0.60716923166E+02 -0.95073886714E+01  0.68286888893E+02  0.00000000000E+00 0.  1.
         11    1    1    2    0    0 -0.47921180600E+02  0.10020322824E+02  0.12414120797E+01  0.48973334822E+02  0.00000000000E+00 0. -1.
</event>
<event>
 7    1  0.2666594E-009  0.1504439E+03  0.7561462E-02  0.1199929E+00
          3   -1    0    0  501    0  0.00000000000E+00  0.00000000000E+00  0.17376604615E+03  0.17376604615E+03  0.00000000000E+00 0. -1.
         -3   -1    0    0    0  501 -0.00000000000E+00 -0.00000000000E+00 -0.29857721994E+03  0.29857721994E+03  0.00000000000E+00 0.  1.
         25    2    1    2    0    0  0.13168933091E+03  0.49648061060E+01  0.92305635876E+02  0.20380136170E+03  0.12509170812E+03 0.  0.
          5    1    3    3  502    0  0.90041176817E+02  0.43583164468E+02  0.10539008426E+03  0.14536659866E+03  0.41800000000E+01 0. -1.
         -5    1    3    3    0  502  0.41648154095E+02 -0.38618358362E+02 -0.13084448379E+02  0.58434763039E+02  0.41800000000E+01 0. -1.
        -11    1    1    2    0    0 -0.11751801530E+03 -0.24139666825E+02 -0.21283193171E+03  0.24431667685E+03  0.00000000000E+00 0.  1.
         11    1    1    2    0    0 -0.14171315609E+02  0.19174860719E+02 -0.42848779597E+01  0.24225227529E+02  0.00000000000E+00 0. -1.
</event>
<event>
 7    1  0.2666594E-009  0.4192720E+03  0.7561462E-02  0.1037304E+00
         -2   -1    0    0    0  501 -0.00000000000E+00  0.00000000000E+00  0.23052742603E+03  0.23052742603E+03  0.00000000000E+00 0. -1.
          2   -1    0    0  501    0  0.00000000000E+00 -0.00000000000E+00 -0.12262300607E+04  0.12262300607E+04  0.00000000000E+00 0.  1.
         25    2    1    2    0    0 -0.27090441636E+03  0.31903174150E+03 -0.77575255869E+02  0.44366355338E+03  0.12509585681E+03 0.  0.
          5    1    3    3  502    0 -0.82497611055E+02  0.10193793251E+03  0.33595548508E+02  0.13543755459E+03  0.41800000000E+01 0.  1.
         -5    1    3    3    0  502 -0.18840680530E+03  0.21709380899E+03 -0.11117080438E+03  0.30822599879E+03  0.41800000000E+01 0.  1.
        -11    1    1    2    0    0  0.70409256058E+02 -0.61514082150E+02 -0.29809020537E+03  0.31240873256E+03  0.00000000000E+00 0.  1.
         11    1    1    2    0    0  0.20049516030E+03 -0.25751765935E+03 -0.62003717345E+03  0.70068520081E+03  0.00000000000E+00 0. -1.
</event>
<event>
 7    1  0.2666594E-009  0.1409934E+03  0.7561462E-02  0.1211999E+00
         -1   -1    0    0    0  501 -0.00000000000E+00  0.00000000000E+00  0.20864207470E+03  0.20864207470E+03  0.00000000000E+00 0.  1.
          1   -1    0    0  501    0  0.00000000000E+00 -0.00000000000E+00 -0.11149784344E+03  0.11149784344E+03  0.00000000000E+00 0. -1.
         25    2    1    2    0    0  0.95246892299E+02 -0.70450016228E+02  0.17942957735E+02  0.17321877812E+03  0.12509044760E+03 0.  0.
          5    1    3    3  502    0  0.11226475819E+03 -0.83999414795E+02  0.35795688224E+02  0.14476906200E+03  0.41800000000E+01 0.  1.
         -5    1    3    3    0  502 -0.17017865894E+02  0.13549398567E+02 -0.17852730489E+02  0.28449716115E+02  0.41800000000E+01 0.  1.
        -11    1    1    2    0    0 -0.88465551159E+02  0.59267068086E+02  0.80904738476E+02  0.13373225418E+03  0.00000000000E+00 0.  1.
         11    1    1    2    0    0 -0.67813411396E+01  0.11182948142E+02 -0.17034649451E+01  0.13188885837E+02  0.00000000000E+00 0. -1.
</event>
<event>
 7    1  0.2666594E-009  0.1152662E+03  0.7561462E-02  0.1251117E+00
          2   -1    0    0  501    0  0.00000000000E+00  0.00000000000E+00  0.94855925968E+03  0.94855925968E+03  0.00000000000E+00 0. -1.
         -2   -1    0    0    0  501 -0.00000000000E+00 -0.00000000000E+00 -0.19634577238E+02  0.19634577238E+02  0.00000000000E+00 0.  1.
         25    2    1    2    0    0 -0.58257959603E+02 -0.21341970046E+02  0.31277170873E+03  0.34252470807E+03  0.12509022468E+03 0.  0.
          5    1    3    3  502    0 -0.53139765037E+02  0.35873130478E+02  0.79343164428E+02  0.10209567209E+03  0.41800000000E+01 0.  1.
         -5    1    3    3    0  502 -0.51181945665E+01 -0.57215100524E+02  0.23342854431E+03  0.24042903598E+03  0.41800000000E+01 0.  1.
        -11    1    1    2    0    0  0.47749140075E+01  0.48478039850E+02  0.26994482760E+03  0.27430481238E+03  0.00000000000E+00 0.  1.
         11    1    1    2    0    0  0.53483045596E+02 -0.27136069804E+02  0.34620814612E+03  0.35136431647E+03  0.00000000000E+00 0. -1.
</event>
<event>
 7    1  0.2666594E-009  0.8811251E+02  0.7561462E-02  0.1307488E+00
         -2   -1    0    0    0  501 -0.00000000000E+00  0.00000000000E+00  0.29070215561E+02  0.29070215561E+02  0.00000000000E+00 0.  1.
          2   -1    0    0  501    0  0.00000000000E+00 -0.00000000000E+00 -0.58770580022E+03  0.58770580022E+03  0.00000000000E+00 0. -1.
         25    2    1    2    0    0 -0.32919792136E+02  0.62655810209E+02 -0.27807093130E+03  0.31301547263E+03  0.12508309241E+03 0.  0.
          5    1    3    3  502    0 -0.42177298211E+02  0.63763633247E+02 -0.28845733487E+03  0.29844569330E+03  0.41800000000E+01 0.  1.
         -5    1    3    3    0  502  0.92575060741E+01 -0.11078230375E+01  0.10386403572E+02  0.14569779331E+02  0.41800000000E+01 0.  1.
        -11    1    1    2    0    0  0.38333754061E+02 -0.14502039869E+02 -0.36342180241E+02  0.54777184351E+02  0.00000000000E+00 0.  1.
         11    1    1    2    0    0 -0.54139619245E+01 -0.48153770340E+02 -0.24422247312E+03  0.24898335880E+03  0.00000000000E+00 0. -1.
</event>
<event>
 7    1  0.2666594E-009  0.1355761E+03  0.7561462E-02  0.1219409E+00
          3   -1    0    0  501    0  0.00000000000E+00  0.00000000000E+00  0.15864646367E+03  0.15864646367E+03  0.00000000000E+00 0. -1.
         -3   -1    0    0    0  501 -0.00000000000E+00 -0.00000000000E+00 -0.17838106012E+03  0.17838106012E+03  0.00000000000E+00 0.  1.
         25    2    1    2    0    0  0.42649679988E+02  0.83260293087E+02 -0.98054238290E+02  0.18442919406E+03  0.12509285498E+03 0.  0.
          5    1    3    3  502    0  0.39493925796E+01  0.10907494940E+03 -0.63653659421E+02  0.12642073819E+03  0.41800000000E+01 0. -1.
         -5    1    3    3    0  502  0.38700287409E+02 -0.25814656309E+02 -0.34400578869E+02  0.58008455870E+02  0.41800000000E+01 0. -1.
        -11    1    1    2    0    0 -0.17105224115E+02 -0.87646603919E+02  0.24088576278E+02  0.92492028725E+02  0.00000000000E+00 0.  1.
         11    1    1    2    0    0 -0.25544455873E+02  0.43863108315E+01  0.54231065563E+02  0.60106301006E+02  0.00000000000E+00 0. -1.
</event>
<event>
 7    1  0.2666594E-009  0.1867749E+03  0.7561462E-02  0.1161403E+00
         -1   -1    0    0    0  501 -0.00000000000E+00  0.00000000000E+00  0.21540478091E+03  0.21540478091E+03  0.00000000000E+00 0.  1.
          1   -1    0    0  501    0  0.00000000000E+00 -0.00000000000E+00 -0.26777685057E+03  0.26777685057E+03  0.00000000000E+00 0. -1.
         25    2    1    2    0    0 -0.83203716464E+02  0.14423431771E+03  0.10555140721E+03  0.23348481130E+03  0.12509060998E+03 0.  0.
          5    1    3    3  502    0 -0.49716562471E+02  0.15595929936E+03  0.11032135972E+03  0.19744192678E+03  0.41800000000E+01 0.  1.
         -5    1    3    3    0  502 -0.33487153993E+02 -0.11724981657E+02 -0.47699525070E+01  0.36042884517E+02  0.41800000000E+01 0.  1.
        -11    1    1    2    0    0  0.89567405897E+02 -0.12469359206E+03 -0.88312207092E+02  0.17711538053E+03  0.00000000000E+00 0.  1.
         11    1    1    2    0    0 -0.63636894328E+01 -0.19540725652E+02 -0.69611269781E+02  0.72581439657E+02  0.00000000000E+00 0. -1.
</event>
<event>
 7    1  0.2666594E-009  0.1258083E+03  0.7561462E-02  0.1233811E+00
          1   -1    0    0  501    0  0.00000000000E+00  0.00000000000E+00  0.80697088524E+03  0.80697088524E+03  0.00000000000E+00 0. -1.
         -1   -1    0    0    0  501 -0.00000000000E+00 -0.00000000000E+00 -0.27616969877E+02  0.27616969877E+02  0.00000000000E+00 0.  1.
         25    2    1    2    0    0  0.80620204994E+02 -0.30306974463E+02  0.26895222144E+03  0.30887117670E+03  0.12509187115E+03 0.  0.
          5    1    3    3  502    0  0.85300544230E+02 -0.69937734218E+02  0.21444628286E+03  0.24118903405E+03  0.41800000000E+01 0.  1.
         -5    1    3    3    0  502 -0.46803392353E+01  0.39630759755E+02  0.54505938580E+02  0.67682142657E+02  0.41800000000E+01 0.  1.
        -11    1    1    2    0    0 -0.51934663499E+01 -0.13092840309E+02  0.87690405746E+01  0.16591884543E+02  0.00000000000E+00 0.  1.
         11    1    1    2    0    0 -0.75426738644E+02  0.43399814772E+02  0.50163265335E+03  0.50912479387E+03  0.00000000000E+00 0. -1.
</event>
<event>
 7    1  0.2666594E-009  0.1126643E+03  0.7561462E-02  0.1255714E+00
         -1   -1    0    0    0  501 -0.00000000000E+00  0.00000000000E+00  0.53583171631E+03  0.53583171631E+03  0.00000000000E+00 0.  1.
          1   -1    0    0  501    0  0.00000000000E+00 -0.00000000000E+00 -0.45083840069E+02  0.45083840069E+02  0.00000000000E+00 0. -1.
         25    2    1    2    0    0  0.95471082013E+02  0.28895318682E+01  0.37015572340E+03  0.40222753062E+03  0.12509456394E+03 0.  0.
          5    1    3    3  502    0  0.40205601048E+02 -0.37666203332E+02  0.49122178699E+02  0.73930332538E+02  0.41800000000E+01 0. -1.
         -5    1    3    3    0  502  0.55265480964E+02  0.40555735200E+02  0.32103354470E+03  0.32829719808E+03  0.41800000000E+01 0. -1.
        -11    1    1    2    0    0 -0.58480787109E+02 -0.18374777896E+02  0.12412037665E+03  0.13843230412E+03  0.00000000000E+00 0.  1.
         11    1    1    2    0    0 -0.36990294904E+02  0.15485246028E+02 -0.35282238112E+01  0.40255721641E+02  0.00000000000E+00 0. -1.
</event>
<event>
 7    1  0.2666594E-009  0.1721198E+03  0.7561462E-02  0.1175655E+00
          2   -1    0    0  501    0  0.00000000000E+00  0.00000000000E+00  0.63208011784E+03  0.63208011784E+03  0.00000000000E+00 0. -1.
         -2   -1    0    0    0  501 -0.00000000000E+00 -0.00000000000E+00 -0.66319757442E+02  0.66319757442E+02  0.00000000000E+00 0.  1.
         25    2    1    2    0    0 -0.10809872508E+03  0.77350793777E+02  0.48178094234E+03  0.51519542649E+03  0.12507986014E+03 0.  0.
          5    1    3    3  502    0 -0.57367401565E+02  0.10791449035E+03  0.30009937575E+03  0.32405811781E+03  0.41800000000E+01 0. -1.
         -5    1    3    3    0  502 -0.50731323518E+02 -0.30563696570E+02  0.18168156658E+03  0.19113730868E+03  0.41800000000E+01 0. -1.
        -11    1    1    2    0    0  0.92144173395E+02 -0.92193053340E+01  0.42851073485E+02  0.10203802615E+03  0.00000000000E+00 0. -1.
         11    1    1    2    0    0  0.15954551688E+02 -0.68131488443E+02  0.41128344572E+02  0.81166422640E+02  0.00000000000E+00 0.  1.
</event>
<event>
 7    1  0.2666594E-009  0.1149153E+03  0.7561462E-02  0.1251729E+00
          1   -1    0    0  501    0  0.00000000000E+00  0.00000000000E+00  0.98872777425E+03  0.98872777425E+03  0.00000000000E+00 0. -1.
         -1   -1    0    0    0  501 -0.00000000000E+00 -0.00000000000E+00 -0.16425214680E+02  0.16425214680E+02  0.00000000000E+00 0.  1.
         25    2    1    2    0    0  0.31578246975E+01 -0.67821548683E+02  0.49970893743E+03  0.51958379577E+03  0.12509422188E+03 0.  0.
          5    1    3    3  502    0  0.47150734561E+02 -0.14899858491E+02  0.79219237771E+02  0.93479182633E+02  0.41800000000E+01 0.  1.
         -5    1    3    3    0  502 -0.43992909863E+02 -0.52921690192E+02  0.42048969966E+03  0.42610461313E+03  0.41800000000E+01 0.  1.
        -11    1    1    2    0    0  0.41744037779E+02  0.43101228459E+02  0.23882563209E+03  0.24624776777E+03  0.00000000000E+00 0.  1.
         11    1    1    2    0    0 -0.44901862477E+02  0.24720320224E+02  0.23376799004E+03  0.23932142540E+03  0.00000000000E+00 0. -1.
</event>
<event>
 7    1  0.2666594E-009  0.8929980E+02  0.7561462E-02  0.1304556E+00
         -1   -1    0    0    0  501 -0.00000000000E+00  0.00000000000E+00  0.80222117154E+02  0.80222117154E+02  0.00000000000E+00 0.  1.
          1   -1    0    0  501    0  0.00000000000E+00 -0.00000000000E+00 -0.19780279599E+03  0.19780279599E+03  0.00000000000E+00 0. -1.
         25    2    1    2    0    0  0.17478044715E+02 -0.61275646442E+02 -0.72461173522E+02  0.15798173684E+03  0.12508965031E+03 0.  0.
          5    1    3    3  502    0  0.20569398217E+02 -0.79708964774E+02 -0.96717137175E+02  0.12707594671E+03  0.41800000000E+01 0.  1.
         -5    1    3    3    0  502 -0.30913535014E+01  0.18433318333E+02  0.24255963653E+02  0.30905790136E+02  0.41800000000E+01 0.  1.
        -11    1    1    2    0    0  0.14345763476E+02  0.24466933778E+02  0.22870876803E+02  0.36434993948E+02  0.00000000000E+00 0.  1.
         11    1    1    2    0    0 -0.31823808192E+02  0.36808712664E+02 -0.67990382113E+02  0.83608182349E+02  0.00000000000E+00 0. -1.
</event>
<event>
 7    1  0.2666594E-009  0.9755368E+02  0.7561462E-02  0.1285526E+00
         -1   -1    0    0    0  501 -0.00000000000E+00  0.00000000000E+00  0.14521895477E+03  0.14521895477E+03  0.00000000000E+00 0.  1.
          1   -1    0    0  501    0  0.00000000000E+00 -0.00000000000E+00 -0.13694557218E+03  0.13694557218E+03  0.00000000000E+00 0. -1.
         25    2    1    2    0    0  0.56502340712E+02  0.44487075614E+02  0.57252572390E+02  0.15523003022E+03  0.12508753269E+03 0.  0.
          5    1    3    3  502    0  0.65887540275E+02  0.66761657833E+02  0.10395588553E+01  0.93898029813E+02  0.41800000000E+01 0.  1.
         -5    1    3    3    0  502 -0.93851995626E+01 -0.22274582219E+02  0.56213013534E+02  0.61332000411E+02  0.41800000000E+01 0.  1.
        -11    1    1    2    0    0 -0.30625181945E+02 -0.40071046597E+02 -0.74733563721E+02  0.90159281780E+02  0.00000000000E+00 0. -1.
         11    1    1    2    0    0 -0.25877158767E+02 -0.44160290171E+01  0.25754373922E+02  0.36775214945E+02  0.00000000000E+00 0.  1.
</event>
<event>
 7    1  0.2666594E-009  0.8862967E+02  0.7561462E-02  0.1306204E+00
          2   -1    0    0  501    0  0.00000000000E+00  0.00000000000E+00  0.16238340841E+03  0.16238340841E+03  0.00000000000E+00 0. -1.
         -2   -1    0    0    0  501 -0.00000000000E+00 -0.00000000000E+00 -0.84548847429E+02  0.84548847429E+02  0.00000000000E+00 0.  1.
         25    2    1    2    0    0 -0.22442868292E+02  0.31420299281E+01  0.83488616889E+02  0.15209292431E+03  0.12509338027E+03 0.  0.
          5    1    3    3  502    0 -0.18763028634E+02  0.60161082288E+02  0.19266388345E+02  0.66030850255E+02  0.41800000000E+01 0. -1.
         -5    1    3    3    0  502 -0.36798396576E+01 -0.57019052359E+02  0.64222228544E+02  0.86062074057E+02  0.41800000000E+01 0. -1.
        -11    1    1    2    0    0 -0.17118323635E+02 -0.19880569039E+01 -0.39287257819E+02  0.42900792549E+02  0.00000000000E+00 0.  1.
         11    1    1    2    0    0  0.39561191927E+02 -0.11539730242E+01  0.33633201915E+02  0.51938538981E+02  0.00000000000E+00 0. -1.
</event>
<event>
 7    1  0.2666594E-009  0.1300456E+03  0.7561462E-02  0.1227388E+00
         -2   -1    0    0    0  501 -0.00000000000E+00  0.00000000000E+00  0.66378890450E+02  0.66378890450E+02  0.00000000000E+00 0.  1.
          2   -1    0    0  501    0  0.00000000000E+00 -0.00000000000E+00 -0.28344118845E+03  0.28344118845E+03  0.00000000000E+00 0. -1.
         25    2    1    2    0    0  0.50775596395E+02 -0.65496144271E+02 -0.14603484322E+03  0.20939302649E+03  0.12510538759E+03 0.  0.
          5    1    3    3  502    0  0.82250047943E+02 -0.19218596916E+02 -0.50233248226E+02  0.98362983289E+02  0.41800000000E+01 0.  1.
         -5    1    3    3    0  502 -0.31474451549E+02 -0.46277547355E+02 -0.95801594996E+02  0.11103004320E+03  0.41800000000E+01 0.  1.
        -11    1    1    2    0    0 -0.60758715881E+02  0.82811232705E+01 -0.48303481492E+02  0.78060392533E+02  0.00000000000E+00 0. -1.
         11    1    1    2    0    0  0.99831194870E+01  0.57215021000E+02 -0.22723973290E+02  0.62366659882E+02  0.00000000000E+00 0.  1.
</event>
<event>
 7    1  0.2666594E-009  0.1053641E+03  0.7561462E-02  0.1269404E+00
         -2   -1    0    0    0  501 -0.00000000000E+00  0.00000000000E+00  0.10285427255E+03  0.10285427255E+03  0.00000000000E+00 0. -1.
          2   -1    0    0  501    0  0.00000000000E+00 -0.00000000000E+00 -0.15431795221E+03  0.15431795221E+03  0.00000000000E+00 0.  1.
         25    2    1    2    0    0 -0.63781844075E+02  0.64743260519E+01 -0.27781808952E+02  0.14328272667E+03  0.12509224725E+03 0.  0.
          5    1    3    3  502    0 -0.64285417680E+02 -0.48024658475E+02 -0.35926313996E+02  0.88017925364E+02  0.41800000000E+01 0.  1.
         -5    1    3    3    0  502  0.50357360510E+00  0.54498984527E+02  0.81445050447E+01  0.55264801305E+02  0.41800000000E+01 0.  1.
        -11    1    1    2    0    0  0.46875228682E+02 -0.22876125326E+02  0.26462464333E+02  0.58488171389E+02  0.00000000000E+00 0. -1.
         11    1    1    2    0    0  0.16906615393E+02  0.16401799274E+02 -0.50144335042E+02  0.55401326702E+02  0.00000000000E+00 0.  1.
</event>
<event>
 7    1  0.2666594E-009  0.1084053E+03  0.7561462E-02  0.1263552E+00
          1   -1    0    0  501    0  0.00000000000E+00  0.00000000000E+00  0.50574478577E+02  0.50574478577E+02  0.00000000000E+00 0. -1.
         -1   -1    0    0    0  501 -0.00000000000E+00 -0.00000000000E+00 -0.27843162005E+03  0.27843162005E+03  0.00000000000E+00 0.  1.
         25    2    1    2    0    0 -0.11099504906E+02 -0.98182702396E+01 -0.19224694256E+03  0.22983973388E+03  0.12509124233E+03 0.  0.
          5    1    3    3  502    0 -0.34296431991E+02  0.50202291583E+02 -0.82802320417E+02  0.10281153629E+03  0.41800000000E+01 0. -1.
         -5    1    3    3    0  502  0.23196927085E+02 -0.60020561822E+02 -0.10944462214E+03  0.12702819759E+03  0.41800000000E+01 0. -1.
        -11    1    1    2    0    0  0.11325702828E+02  0.49967757741E+02 -0.12119190889E+02  0.52649056459E+02  0.00000000000E+00 0. -1.
         11    1    1    2    0    0 -0.22619792181E+00 -0.40149487501E+02 -0.23491008020E+02  0.46517308283E+02  0.00000000000E+00 0.  1.
</event>
<event>
 7    1  0.2666594E-009  0.2761484E+03  0.7561462E-02  0.1097811E+00
         -2   -1    0    0    0  501 -0.00000000000E+00  0.00000000000E+00  0.22541757267E+02  0.22541757267E+02  0.00000000000E+00 0.  1.
          2   -1    0    0  501    0  0.00000000000E+00 -0.00000000000E+00 -0.41580747043E+04  0.41580747043E+04  0.00000000000E+00 0. -1.
         25    2    1    2    0    0 -0.79849708487E+02  0.24695466334E+03 -0.29249874254E+04  0.29391429730E+04  0.12508954988E+03 0.  0.
          5    1    3    3  502    0  0.22913928116E+02  0.11498888135E+03 -0.14360828529E+04  0.14408674205E+04  0.41800000000E+01 0. -1.
         -5    1    3    3    0  502 -0.10276363660E+03  0.13196578200E+03 -0.14889045725E+04  0.14982755525E+04  0.41800000000E+01 0. -1.
        -11    1    1    2    0    0 -0.92619596417E+00 -0.99727551279E+02 -0.60099248373E+03  0.60921129981E+03  0.00000000000E+00 0.  1.
         11    1    1    2    0    0  0.80775904451E+02 -0.14722711206E+03 -0.60955303793E+03  0.63226218874E+03  0.00000000000E+00 0. -1.
</event>
<event>
 7    1  0.2666594E-009  0.1065474E+03  0.7561462E-02  0.1267101E+00
          1   -1    0    0  501    0  0.00000000000E+00  0.00000000000E+00  0.12178425103E+03  0.12178425103E+03  0.00000000000E+00 0. -1.
         -1   -1    0    0    0  501 -0.00000000000E+00 -0.00000000000E+00 -0.18669474766E+03  0.18669474766E+03  0.00000000000E+00 0.  1.
         25    2    1    2    0    0 -0.28579004688E+02  0.67212422872E+02 -0.11139693005E+03  0.18273452728E+03  0.12509341364E+03 0.  0.
          5    1    3    3  502    0 -0.41314014165E+02  0.97434519044E+02 -0.60305526671E+02  0.12187929363E+03  0.41800000000E+01 0. -1.
         -5    1    3    3    0  502  0.12735009478E+02 -0.30222096172E+02 -0.51091403377E+02  0.60855233649E+02  0.41800000000E+01 0. -1.
        -11    1    1    2    0    0  0.70514060717E-01 -0.11831472472E+02 -0.26960022123E+02  0.29442002411E+02  0.00000000000E+00 0.  1.
         11    1    1    2    0    0  0.28508490627E+02 -0.55380950400E+02  0.73446455540E+02  0.96302469005E+02  0.00000000000E+00 0. -1.
</event>
<event>
 7    1  0.2666594E-009  0.1044434E+03  0.7561462E-02  0.1271220E+00
         -1   -1    0    0    0  501 -0.00000000000E+00  0.00000000000E+00  0.68887246239E+02  0.68887246239E+02  0.00000000000E+00 0.  1.
          1   -1    0    0  501    0  0.00000000000E+00 -0.00000000000E+00 -0.25400035376E+03  0.25400035376E+03  0.00000000000E+00 0. -1.
         25    2    1    2    0    0 -0.32194250645E+02 -0.43218268292E+02 -0.16069666444E+03  0.21065615484E+03  0.12509320174E+03 0.  0.
          5    1    3    3  502    0  0.32192494788E+02  0.17543553421E+01 -0.11540832579E+03  0.11989991053E+03  0.41800000000E+01 0.  1.
         -5    1    3    3    0  502 -0.64386745433E+02 -0.44972623635E+02 -0.45288338653E+02  0.90756244314E+02  0.41800000000E+01 0.  1.
        -11    1    1    2    0    0 -0.85268154035E+01 -0.20446897702E+02 -0.29028979573E+02  0.36516624456E+02  0.00000000000E+00 0. -1.
         11    1    1    2    0    0  0.40721066049E+02  0.63665165995E+02  0.46125364914E+01  0.75714820704E+02  0.00000000000E+00 0.  1.
</event>
<event>
 7    1  0.2666594E-009  0.1594976E+03  0.7561462E-02  0.1189265E+00
         -1   -1    0    0    0  501 -0.00000000000E+00  0.00000000000E+00  0.48195611544E+02  0.48195611544E+02  0.00000000000E+00 0.  1.
          1   -1    0    0  501    0  0.00000000000E+00 -0.00000000000E+00 -0.60364141850E+03  0.60364141850E+03  0.00000000000E+00 0. -1.
         25    2    1    2    0    0 -0.89034898676E+02  0.97274821068E+02 -0.31105921562E+03  0.36026777945E+03  0.12508170646E+03 0.  0.
          5    1    3    3  502    0  0.56961152795E+01  0.63075868949E+02 -0.20209994101E+03  0.21183217302E+03  0.41800000000E+01 0.  1.
         -5    1    3    3    0  502 -0.94731013955E+02  0.34198952120E+02 -0.10895927462E+03  0.14843560643E+03  0.41800000000E+01 0.  1.
        -11    1    1    2    0    0  0.72514170918E+01 -0.67192066818E+02 -0.14098177719E+03  0.15634327102E+03  0.00000000000E+00 0. -1.
         11    1    1    2    0    0  0.81783481584E+02 -0.30082754251E+02 -0.10340481414E+03  0.13522597957E+03  0.00000000000E+00 0.  1.
</event>
<event>
 7    1  0.2666594E-009  0.1221009E+03  0.7561462E-02  0.1239671E+00
          2   -1    0    0  501    0  0.00000000000E+00  0.00000000000E+00  0.42588379117E+02  0.42588379117E+02  0.00000000000E+00 0. -1.
         -2   -1    0    0    0  501 -0.00000000000E+00 -0.00000000000E+00 -0.38696070537E+03  0.38696070537E+03  0.00000000000E+00 0.  1.
         25    2    1    2    0    0 -0.32190598562E+02 -0.57590102617E+02 -0.16394673626E+03  0.21651648008E+03  0.12509196321E+03 0.  0.
          5    1    3    3  502    0 -0.78407652456E+01 -0.91897476166E+02 -0.14064928007E+03  0.16824481005E+03  0.41800000000E+01 0.  1.
         -5    1    3    3    0  502 -0.24349833316E+02  0.34307373550E+02 -0.23297456193E+02  0.48271670030E+02  0.41800000000E+01 0.  1.
        -11    1    1    2    0    0  0.62620387640E+02  0.42061852988E+02 -0.14706236586E+03  0.16528112983E+03  0.00000000000E+00 0.  1.
         11    1    1    2    0    0 -0.30429789078E+02  0.15528249629E+02 -0.33363224130E+02  0.47751474576E+02  0.00000000000E+00 0. -1.
</event>
<event>
 7    1  0.2666594E-009  0.7148195E+02  0.7561462E-02  0.1355125E+00
          2   -1    0    0  501    0  0.00000000000E+00  0.00000000000E+00  0.47147544364E+02  0.47147544364E+02  0.00000000000E+00 0. -1.
         -2   -1    0    0    0  501 -0.00000000000E+00 -0.00000000000E+00 -0.29111873756E+03  0.29111873756E+03  0.00000000000E+00 0.  1.
         25    2    1    2    0    0  0.33921727219E+02 -0.27626451420E+02 -0.12681340340E+03  0.18341123487E+03  0.12507652618E+03 0.  0.
          5    1    3    3  502    0  0.25111397695E+02 -0.11151067739E+02 -0.15044906188E+03  0.15299451372E+03  0.41800000000E+01 0.  1.
         -5    1    3    3    0  502  0.88103295239E+01 -0.16475383680E+02  0.23635658486E+02  0.30416721155E+02  0.41800000000E+01 0.  1.
        -11    1    1    2    0    0 -0.21690488212E+01  0.54430251698E+02 -0.41292239317E+02  0.68355000552E+02  0.00000000000E+00 0.  1.
         11    1    1    2    0    0 -0.31752678398E+02 -0.26803800278E+02 -0.75865550475E+02  0.86500046495E+02  0.00000000000E+00 0. -1.
</event>
<event>
 7    1  0.2666594E-009  0.6365391E+02  0.7561462E-02  0.1383108E+00
         -1   -1    0    0    0  501 -0.00000000000E+00  0.00000000000E+00  0.31922988003E+02  0.31922988003E+02  0.00000000000E+00 0.  1.
          1   -1    0    0  501    0  0.00000000000E+00 -0.00000000000E+00 -0.39474329227E+03  0.39474329227E+03  0.00000000000E+00 0. -1.
         25    2    1    2    0    0  0.17785289251E+02  0.26670993349E+02 -0.23046990566E+03  0.26418054155E+03  0.12508925902E+03 0.  0.
          5    1    3    3  502    0 -0.18088060005E+02  0.75627623533E+01  0.84774326178E+01  0.21764938616E+02  0.41800000000E+01 0. -1.
         -5    1    3    3    0  502  0.35873349256E+02  0.19108230996E+02 -0.23894733828E+03  0.24241560294E+03  0.41800000000E+01 0. -1.
        -11    1    1    2    0    0  0.17550355976E+02 -0.25615255430E+02 -0.12165010782E+03  0.12555040836E+03  0.00000000000E+00 0. -1.
         11    1    1    2    0    0 -0.35335645227E+02 -0.10557379196E+01 -0.10700290790E+02  0.36935330364E+02  0.00000000000E+00 0.  1.
</event>
<event>
 7    1  0.2666594E-009  0.1409577E+03  0.7561462E-02  0.1212046E+00
          1   -1    0    0  501    0  0.00000000000E+00  0.00000000000E+00  0.79704086732E+03  0.79704086732E+03  0.00000000000E+00 0. -1.
         -1   -1    0    0    0  501 -0.00000000000E+00 -0.00000000000E+00 -0.25616581373E+02  0.25616581373E+02  0.00000000000E+00 0.  1.
         25    2    1    2    0    0  0.93763606798E+00 -0.92059087868E+02  0.43299509778E+03  0.46000881852E+03  0.12509038170E+03 0.  0.
          5    1    3    3  502    0 -0.60557677057E+02 -0.44358635691E+02  0.17417840445E+03  0.18971164905E+03  0.41800000000E+01 0. -1.
         -5    1    3    3    0  502  0.61495313125E+02 -0.47700452177E+02  0.25881669333E+03  0.27029716946E+03  0.41800000000E+01 0. -1.
        -11    1    1    2    0    0 -0.81111419545E+01 -0.17348803183E+02  0.33248038091E+02  0.38369305865E+02  0.00000000000E+00 0.  1.
         11    1    1    2    0    0  0.71735058865E+01  0.10940789105E+03  0.30518115008E+03  0.32427932431E+03  0.00000000000E+00 0. -1.
</event>
<event>
 7    1  0.2666594E-009  0.1609505E+03  0.7561462E-02  0.1187628E+00
         -2   -1    0    0    0  501 -0.00000000000E+00  0.00000000000E+00  0.21632512732E+02  0.21632512732E+02  0.00000000000E+00 0.  1.
          2   -1    0    0  501    0  0.00000000000E+00 -0.00000000000E+00 -0.14189982359E+04  0.14189982359E+04  0.00000000000E+00 0. -1.
         25    2    1    2    0    0  0.92113368670E+02  0.95806620529E+02 -0.90981384538E+03  0.92793948404E+03  0.12508665628E+03 0.  0.
          5    1    3    3  502    0  0.24940643066E+02  0.10651330013E+03 -0.65904360815E+03  0.66807414905E+03  0.41800000000E+01 0.  1.
         -5    1    3    3    0  502  0.67172725604E+02 -0.10706679601E+02 -0.25077023722E+03  0.25986533499E+03  0.41800000000E+01 0.  1.
        -11    1    1    2    0    0 -0.41151639152E+02 -0.81573714396E+02 -0.19436940401E+03  0.21477242258E+03  0.00000000000E+00 0.  1.
         11    1    1    2    0    0 -0.50961729518E+02 -0.14232906133E+02 -0.29318247377E+03  0.29791884200E+03  0.00000000000E+00 0. -1.
</event>
<event>
 7    1  0.2666594E-009  0.6802455E+02  0.7561462E-02  0.1366942E+00
         -2   -1    0    0    0  501 -0.00000000000E+00  0.00000000000E+00  0.11711484204E+03  0.11711484204E+03  0.00000000000E+00 0.  1.
          2   -1    0    0  501    0  0.00000000000E+00 -0.00000000000E+00 -0.11289735873E+03  0.11289735873E+03  0.00000000000E+00 0. -1.
         25    2    1    2    0    0  0.22555419994E+01 -0.20003583302E+02  0.18131271623E+02  0.12798795324E+03  0.12508773861E+03 0.  0.
          5    1    3    3  502    0  0.98144199028E+01  0.25039573859E+02 -0.43409705584E+02  0.51236491253E+02  0.41800000000E+01 0. -1.
         -5    1    3    3    0  502 -0.75588779034E+01 -0.45043157161E+02  0.61540977207E+02  0.76751461991E+02  0.41800000000E+01 0. -1.
        -11    1    1    2    0    0  0.23766883203E+02  0.27050580235E+02  0.32397326675E+02  0.48437438040E+02  0.00000000000E+00 0.  1.
         11    1    1    2    0    0 -0.26022425202E+02 -0.70469969336E+01 -0.46311114986E+02  0.53586809482E+02  0.00000000000E+00 0. -1.
</event>
<event>
 7    1  0.3140533E-009  0.9201111E+02  0.7561462E-02  0.1298053E+00
          2   -1    0    0  501    0  0.00000000000E+00  0.00000000000E+00  0.20757842304E+03  0.20757842304E+03  0.00000000000E+00 0.  1.
         -2   -1    0    0    0  501 -0.00000000000E+00 -0.00000000000E+00 -0.81525546562E+02  0.81525546562E+02  0.00000000000E+00 0. -1.
         25    2    1    2    0    0 -0.36133983359E+02  0.38239363639E+02  0.12288092805E+03  0.18307249233E+03  0.12509157159E+03 0.  0.
          5    1    3    3  502    0  0.43875397999E+02  0.54573611606E+01  0.65787403309E+02  0.79374354640E+02  0.41800000000E+01 0. -1.
         -5    1    3    3    0  502 -0.80009381359E+02  0.32782002478E+02  0.57093524746E+02  0.10369813769E+03  0.41800000000E+01 0. -1.
        -11    1    1    2    0    0  0.53989787278E+01 -0.97126412188E+01 -0.42558663633E+02  0.43985500122E+02  0.00000000000E+00 0. -1.
         11    1    1    2    0    0  0.30735004632E+02 -0.28526722420E+02  0.45730612054E+02  0.62045977150E+02  0.00000000000E+00 0.  1.
</event>
<event>
 7    1  0.2666594E-009  0.1663545E+03  0.7561462E-02  0.1181704E+00
          1   -1    0    0  501    0  0.00000000000E+00  0.00000000000E+00  0.91105363101E+02  0.91105363101E+02  0.00000000000E+00 0. -1.
         -1   -1    0    0    0  501 -0.00000000000E+00 -0.00000000000E+00 -0.46162130944E+03  0.46162130944E+03  0.00000000000E+00 0.  1.
         25    2    1    2    0    0  0.11664732271E+03  0.69422337196E+02 -0.47799653911E+02  0.19068119929E+03  0.12509378103E+03 0.  0.
          5    1    3    3  502    0  0.11466743065E+03  0.12504424782E+02 -0.63122427975E+02  0.13155566732E+03  0.41800000000E+01 0.  1.
         -5    1    3    3    0  502  0.19798920601E+01  0.56917912414E+02  0.15322774064E+02  0.59125531973E+02  0.41800000000E+01 0.  1.
        -11    1    1    2    0    0 -0.12756225116E+03 -0.48291567764E+02 -0.29806783246E+03  0.32779358777E+03  0.00000000000E+00 0.  1.
         11    1    1    2    0    0  0.10914928452E+02 -0.21130769432E+02 -0.24648459968E+02  0.34251885477E+02  0.00000000000E+00 0. -1.
</event>
<event>
 7    1  0.2666594E-009  0.2101212E+03  0.7561462E-02  0.1141470E+00
         -2   -1    0    0    0  501 -0.00000000000E+00  0.00000000000E+00  0.53607512643E+02  0.53607512643E+02  0.00000000000E+00 0.  1.
          2   -1    0    0  501    0  0.00000000000E+00 -0.00000000000E+00 -0.10429359646E+04  0.10429359646E+04  0.00000000000E+00 0. -1.
         25    2    1    2    0    0  0.17984451681E+03  0.47745411256E+02 -0.29019648785E+03  0.36672129075E+03  0.12508728555E+03 0.  0.
          5    1    3    3  502    0  0.19904355141E+02  0.46622487100E+02 -0.24238942209E+02  0.56345704152E+02  0.41800000000E+01 0.  1.
         -5    1    3    3    0  502  0.15994016167E+03  0.11229241556E+01 -0.26595754564E+03  0.31037558660E+03  0.41800000000E+01 0.  1.
        -11    1    1    2    0    0 -0.53301666043E+02  0.29699665309E+02 -0.21008513416E+03  0.21876677379E+03  0.00000000000E+00 0.  1.
         11    1    1    2    0    0 -0.12654285076E+03 -0.77445076565E+02 -0.48904682992E+03  0.51105541267E+03  0.00000000000E+00 0. -1.
</event>
<event>
 7    1  0.2666594E-009  0.1069304E+03  0.7561462E-02  0.1266362E+00
         -1   -1    0    0    0  501 -0.00000000000E+00  0.00000000000E+00  0.15679517089E+02  0.15679517089E+02  0.00000000000E+00 0.  1.
          1   -1    0    0  501    0  0.00000000000E+00 -0.00000000000E+00 -0.10236165487E+04  0.10236165487E+04  0.00000000000E+00 0. -1.
         25    2    1    2    0    0  0.34218095679E+02 -0.50037409531E+02 -0.66487666597E+03  0.67925107497E+03  0.12508565655E+03 0.  0.
          5    1    3    3  502    0  0.18358472837E+02 -0.75032558976E+02 -0.62307580971E+03  0.62785974189E+03  0.41800000000E+01 0. -1.
         -5    1    3    3    0  502  0.15859622842E+02  0.24995149446E+02 -0.41800856255E+02  0.51391333084E+02  0.41800000000E+01 0. -1.
        -11    1    1    2    0    0  0.29947746141E+02  0.16950090115E+02 -0.76541674657E+02  0.83921397826E+02  0.00000000000E+00 0.  1.
         11    1    1    2    0    0 -0.64165841820E+02  0.33087319416E+02 -0.26651869099E+03  0.27612359299E+03  0.00000000000E+00 0. -1.
</event>
<event>
 7    1  0.2666594E-009  0.1783901E+03  0.7561462E-02  0.1169370E+00
         -2   -1    0    0    0  501 -0.00000000000E+00  0.00000000000E+00  0.43498612082E+03  0.43498612082E+03  0.00000000000E+00 0.  1.
          2   -1    0    0  501    0  0.00000000000E+00 -0.00000000000E+00 -0.12356203850E+03  0.12356203850E+03  0.00000000000E+00 0. -1.
         25    2    1    2    0    0 -0.15474940003E+03  0.15838292036E+02  0.31698634512E+03  0.37460064233E+03  0.12508824862E+03 0.  0.
          5    1    3    3  502    0 -0.44294434819E+02  0.64426788807E+02  0.13876749376E+03  0.15933203631E+03  0.41800000000E+01 0. -1.
         -5    1    3    3    0  502 -0.11045496521E+03 -0.48588496771E+02  0.17821885136E+03  0.21526860602E+03  0.41800000000E+01 0. -1.
        -11    1    1    2    0    0  0.11578251581E+03 -0.23205331071E+02 -0.46537243142E+02  0.12692436077E+03  0.00000000000E+00 0. -1.
         11    1    1    2    0    0  0.38966884222E+02  0.73670390349E+01  0.40974980351E+02  0.57023156216E+02  0.00000000000E+00 0.  1.
</event>
<event>
 7    1  0.2666594E-009  0.8553689E+02  0.7561462E-02  0.1314034E+00
         -3   -1    0    0    0  501 -0.00000000000E+00  0.00000000000E+00  0.11688189846E+03  0.11688189846E+03  0.00000000000E+00 0.  1.
          3   -1    0    0  501    0  0.00000000000E+00 -0.00000000000E+00 -0.23186141908E+03  0.23186141908E+03  0.00000000000E+00 0. -1.
         25    2    1    2    0    0 -0.45844448982E+01 -0.14300444541E+02  0.69199975773E+02  0.14374226243E+03  0.12509069314E+03 0.  0.
          5    1    3    3  502    0  0.26016515680E+02  0.35816722828E+02  0.72202679824E+02  0.84796203312E+02  0.41800000000E+01 0. -1.
         -5    1    3    3    0  502 -0.30600960578E+02 -0.50117167369E+02 -0.30027040512E+01  0.58946059114E+02  0.41800000000E+01 0. -1.
        -11    1    1    2    0    0  0.13115720650E+02  0.39243479336E+02 -0.17020932490E+03  0.17516645536E+03  0.00000000000E+00 0. -1.
         11    1    1    2    0    0 -0.85312757515E+01 -0.24943034795E+02 -0.13970171491E+02  0.29834599750E+02  0.00000000000E+00 0.  1.
</event>
<event>
 7    1  0.2666594E-009  0.1394730E+03  0.7561462E-02  0.1214040E+00
         -1   -1    0    0    0  501 -0.00000000000E+00  0.00000000000E+00  0.42476560877E+02  0.42476560877E+02  0.00000000000E+00 0.  1.
          1   -1    0    0  501    0  0.00000000000E+00 -0.00000000000E+00 -0.82320731126E+03  0.82320731126E+03  0.00000000000E+00 0. -1.
         25    2    1    2    0    0 -0.23676515598E+02 -0.11517149566E+03 -0.63331858320E+03  0.65617461826E+03  0.12509057129E+03 0.  0.
          5    1    3    3  502    0 -0.36952179336E+02 -0.13261517422E+03 -0.60299547190E+03  0.61852506782E+03  0.41800000000E+01 0. -1.
         -5    1    3    3    0  502  0.13275663739E+02  0.17443678564E+02 -0.30323111293E+02  0.37649550436E+02  0.41800000000E+01 0. -1.
        -11    1    1    2    0    0  0.23183142550E+02  0.70274225007E+02 -0.23387575715E+02  0.77607367541E+02  0.00000000000E+00 0.  1.
         11    1    1    2    0    0  0.49337304724E+00  0.44897270651E+02 -0.12402459147E+03  0.13190188633E+03  0.00000000000E+00 0. -1.
</event>
<event>
 7    1  0.2666594E-009  0.1394351E+03  0.7561462E-02  0.1214091E+00
          4   -1    0    0  501    0  0.00000000000E+00  0.00000000000E+00  0.69453782521E+02  0.69453782521E+02  0.00000000000E+00 0.  1.
         -4   -1    0    0    0  501 -0.00000000000E+00 -0.00000000000E+00 -0.37304733978E+03  0.37304733978E+03  0.00000000000E+00 0. -1.
         25    2    1    2    0    0  0.11211338241E+03 -0.28278944138E+02 -0.19039871564E+03  0.25547856805E+03  0.12509403911E+03 0.  0.
          5    1    3    3  502    0  0.43339125736E+02 -0.62981342495E+02 -0.39853550402E+02  0.86317479120E+02  0.41800000000E+01 0. -1.
         -5    1    3    3    0  502  0.68774256674E+02  0.34702398357E+02 -0.15054516523E+03  0.16916108893E+03  0.41800000000E+01 0. -1.
        -11    1    1    2    0    0 -0.55060611876E+02  0.38513592046E+02 -0.90044154850E+01  0.67794153513E+02  0.00000000000E+00 0.  1.
         11    1    1    2    0    0 -0.57052770534E+02 -0.10234647908E+02 -0.10419042614E+03  0.11922840074E+03  0.00000000000E+00 0. -1.
</event>
<event>
 7    1  0.3202235E-009  0.1239252E+03  0.7561462E-02  0.1236759E+00
          1   -1    0    0  501    0  0.00000000000E+00  0.00000000000E+00  0.19121189342E+04  0.19121189342E+04  0.00000000000E+00 0. -1.
         -1   -1    0    0    0  501 -0.00000000000E+00 -0.00000000000E+00 -0.14995434773E+02  0.14995434773E+02  0.00000000000E+00 0.  1.
         25    2    1    2    0    0 -0.53995192177E+02 -0.62652555049E+02  0.15766256061E+04  0.15837411946E+04  0.12508815394E+03 0.  0.
          5    1    3    3  502    0 -0.38571716076E+02 -0.10102940136E+03  0.11716521167E+04  0.11766396527E+04  0.41800000000E+01 0. -1.
         -5    1    3    3    0  502 -0.15423476101E+02  0.38376846314E+02  0.40497348939E+03  0.40710154195E+03  0.41800000000E+01 0. -1.
        -11    1    1    2    0    0  0.60785347965E+02  0.36203750778E+02  0.30251270988E+03  0.31067589178E+03  0.00000000000E+00 0. -1.
         11    1    1    2    0    0 -0.67901557880E+01  0.26448804271E+02  0.17985183399E+02  0.32697282530E+02  0.00000000000E+00 0.  1.
</event>
<event>
 7    1  0.2666594E-009  0.9816601E+02  0.7561462E-02  0.1284201E+00
          1   -1    0    0  501    0  0.00000000000E+00  0.00000000000E+00  0.20981624284E+03  0.20981624284E+03  0.00000000000E+00 0. -1.
         -1   -1    0    0    0  501 -0.00000000000E+00 -0.00000000000E+00 -0.72925644259E+02  0.72925644259E+02  0.00000000000E+00 0.  1.
         25    2    1    2    0    0  0.37388294198E+02 -0.15489167860E+02  0.11889354804E+02  0.13200993747E+03  0.12508983959E+03 0.  0.
          5    1    3    3  502    0  0.80165835543E+02 -0.21120021209E+01 -0.11762926360E+02  0.81159476204E+02  0.41800000000E+01 0.  1.
         -5    1    3    3    0  502 -0.42777541344E+02 -0.13377165740E+02  0.23652281165E+02  0.50850461266E+02  0.41800000000E+01 0.  1.
        -11    1    1    2    0    0 -0.16716675217E+02  0.37354643369E+02  0.29086289411E+02  0.50207856390E+02  0.00000000000E+00 0.  1.
         11    1    1    2    0    0 -0.20671618981E+02 -0.21865475509E+02  0.95914954368E+02  0.10052409324E+03  0.00000000000E+00 0. -1.
</event>
<event>
 7    1  0.2666594E-009  0.1308742E+03  0.7561462E-02  0.1226164E+00
          1   -1    0    0  501    0  0.00000000000E+00  0.00000000000E+00  0.16536220506E+04  0.16536220506E+04  0.00000000000E+00 0. -1.
         -1   -1    0    0    0  501 -0.00000000000E+00 -0.00000000000E+00 -0.16770901369E+02  0.16770901369E+02  0.00000000000E+00 0.  1.
         25    2    1    2    0    0  0.85678929441E+02 -0.44560497475E+00  0.13139681941E+04  0.13226868556E+04  0.12508807089E+03 0.  0.
          5    1    3    3  502    0  0.19030274208E+02 -0.59402244565E+02  0.53094868515E+03  0.53461645753E+03  0.41800000000E+01 0.  1.
         -5    1    3    3    0  502  0.66648655233E+02  0.58956639590E+02  0.78301950891E+03  0.78807039808E+03  0.41800000000E+01 0.  1.
        -11    1    1    2    0    0 -0.22837323989E+02  0.32409843643E+02  0.40584203534E+02  0.56736398444E+02  0.00000000000E+00 0.  1.
         11    1    1    2    0    0 -0.62841605452E+02 -0.31964238668E+02  0.28229875159E+03  0.29096969787E+03  0.00000000000E+00 0. -1.
</event>
<event>
 7    1  0.2666594E-009  0.1000773E+03  0.7561462E-02  0.1280133E+00
         -3   -1    0    0    0  501 -0.00000000000E+00  0.00000000000E+00  0.11166820156E+03  0.11166820156E+03  0.00000000000E+00 0.  1.
          3   -1    0    0  501    0  0.00000000000E+00 -0.00000000000E+00 -0.12343868396E+03  0.12343868396E+03  0.00000000000E+00 0. -1.
         25    2    1    2    0    0  0.27557759111E+02  0.27022628456E+02 -0.26282170761E+02  0.13350768180E+03  0.12507556142E+03 0.  0.
          5    1    3    3  502    0  0.24899233396E+02  0.68627948503E+02 -0.46836546043E+02  0.86838364705E+02  0.41800000000E+01 0. -1.
         -5    1    3    3    0  502  0.26585257156E+01 -0.41605320046E+02  0.20554375281E+02  0.46669317098E+02  0.41800000000E+01 0. -1.
        -11    1    1    2    0    0 -0.32562482958E+02  0.19754733643E+02  0.33639279891E+02  0.50815016966E+02  0.00000000000E+00 0.  1.
         11    1    1    2    0    0  0.50047238465E+01 -0.46777362100E+02 -0.19127591530E+02  0.50784186747E+02  0.00000000000E+00 0. -1.
</event>
<event>
 7    1  0.2666594E-009  0.9215639E+02  0.7561462E-02  0.1297712E+00
          2   -1    0    0  501    0  0.00000000000E+00  0.00000000000E+00  0.16168696390E+02  0.16168696390E+02  0.00000000000E+00 0. -1.
         -2   -1    0    0    0  501 -0.00000000000E+00 -0.00000000000E+00 -0.93612960730E+03  0.93612960730E+03  0.00000000000E+00 0.  1.
         25    2    1    2    0    0  0.20280521725E+02 -0.42315362031E+02 -0.66200989416E+03  0.67535678506E+03  0.12509115767E+03 0.  0.
          5    1    3    3  502    0  0.12376414502E+01 -0.58501206184E+02 -0.63719728331E+03  0.63989200115E+03  0.41800000000E+01 0. -1.
         -5    1    3    3    0  502  0.19042880274E+02  0.16185844153E+02 -0.24812610858E+02  0.35464783908E+02  0.41800000000E+01 0. -1.
        -11    1    1    2    0    0  0.63183004711E+01  0.65027488401E+02 -0.18046222625E+03  0.19192475159E+03  0.00000000000E+00 0.  1.
         11    1    1    2    0    0 -0.26598822196E+02 -0.22712126370E+02 -0.77488790497E+02  0.85016767047E+02  0.00000000000E+00 0. -1.
</event>
<event>
 7    1  0.2666594E-009  0.3044331E+03  0.7561462E-02  0.1083045E+00
         -1   -1    0    0    0  501 -0.00000000000E+00  0.00000000000E+00  0.78344464743E+02  0.78344464743E+02  0.00000000000E+00 0.  1.
          1   -1    0    0  501    0  0.00000000000E+00 -0.00000000000E+00 -0.13347020221E+04  0.13347020221E+04  0.00000000000E+00 0. -1.
         25    2    1    2    0    0  0.17773572768E+02 -0.30251324480E+03 -0.57662840684E+03  0.66330835001E+03  0.12508990549E+03 0.  0.
          5    1    3    3  502    0  0.19130331742E+02 -0.15505868344E+03 -0.17087746017E+03  0.23157232930E+03  0.41800000000E+01 0.  1.
         -5    1    3    3    0  502 -0.13567589743E+01 -0.14745456137E+03 -0.40575094666E+03  0.43173602071E+03  0.41800000000E+01 0.  1.
        -11    1    1    2    0    0 -0.17322846559E+02  0.57749435215E+02 -0.68115317692E+02  0.90965789090E+02  0.00000000000E+00 0.  1.
         11    1    1    2    0    0 -0.45072620855E+00  0.24476380959E+03 -0.61161383282E+03  0.65877234773E+03  0.00000000000E+00 0. -1.
</event>
<event>
 7    1  0.2666594E-009  0.1202355E+03  0.7561462E-02  0.1242709E+00
         -1   -1    0    0    0  501 -0.00000000000E+00  0.00000000000E+00  0.67944469260E+03  0.67944469260E+03  0.00000000000E+00 0.  1.
          1   -1    0    0  501    0  0.00000000000E+00 -0.00000000000E+00 -0.33830175945E+02  0.33830175945E+02  0.00000000000E+00 0. -1.
         25    2    1    2    0    0  0.96749305709E+02  0.20083375668E+02  0.25612711730E+03  0.30168260706E+03  0.12509006776E+03 0.  0.
          5    1    3    3  502    0 -0.24595598875E+01  0.25786362793E+02 -0.72223845722E+00  0.26248427940E+02  0.41800000000E+01 0. -1.
         -5    1    3    3    0  502  0.99208865597E+02 -0.57029871259E+01  0.25684935575E+03  0.27543417912E+03  0.41800000000E+01 0. -1.
        -11    1    1    2    0    0 -0.51428798847E+02  0.19100258556E+02  0.29244305266E+03  0.29754441732E+03  0.00000000000E+00 0.  1.
         11    1    1    2    0    0 -0.45320506862E+02 -0.39183634223E+02  0.97044346691E+02  0.11404784416E+03  0.00000000000E+00 0. -1.
</event>
<event>
 7    1  0.2666594E-009  0.1626919E+03  0.7561462E-02  0.1185691E+00
          2   -1    0    0  501    0  0.00000000000E+00  0.00000000000E+00  0.79131412915E+03  0.79131412915E+03  0.00000000000E+00 0. -1.
         -2   -1    0    0    0  501 -0.00000000000E+00 -0.00000000000E+00 -0.36597615707E+02  0.36597615707E+02  0.00000000000E+00 0.  1.
         25    2    1    2    0    0  0.16840360680E+02 -0.12712925646E+03  0.34956931859E+03  0.39280089478E+03  0.12509352037E+03 0.  0.
          5    1    3    3  502    0  0.54477552201E+02 -0.12266541084E+03  0.22006504933E+03  0.25779973826E+03  0.41800000000E+01 0. -1.
         -5    1    3    3    0  502 -0.37637191521E+02 -0.44638456230E+01  0.12950426926E+03  0.13500115651E+03  0.41800000000E+01 0. -1.
        -11    1    1    2    0    0 -0.49447015878E+02  0.95502964899E+02  0.22583627985E+03  0.25013566115E+03  0.00000000000E+00 0.  1.
         11    1    1    2    0    0  0.32606655199E+02  0.31626291564E+02  0.17931091500E+03  0.18497518893E+03  0.00000000000E+00 0. -1.
</event>
<event>
 7    1  0.2666594E-009  0.1033762E+03  0.7561462E-02  0.1273352E+00
          4   -1    0    0  501    0  0.00000000000E+00  0.00000000000E+00  0.12754474727E+03  0.12754474727E+03  0.00000000000E+00 0. -1.
         -4   -1    0    0    0  501 -0.00000000000E+00 -0.00000000000E+00 -0.14920121648E+03  0.14920121648E+03  0.00000000000E+00 0.  1.
         25    2    1    2    0    0  0.61191096624E+02 -0.53265686321E+02 -0.22249393103E+02  0.15074672354E+03  0.12509178838E+03 0.  0.
          5    1    3    3  502    0  0.81707233518E+02 -0.35782815524E+02 -0.57474981683E+02  0.10619476360E+03  0.41800000000E+01 0. -1.
         -5    1    3    3    0  502 -0.20516136894E+02 -0.17482870797E+02  0.35225588580E+02  0.44551959947E+02  0.41800000000E+01 0. -1.
        -11    1    1    2    0    0 -0.13647033282E+02 -0.53908204956E+01  0.38724891802E+02  0.41411589056E+02  0.00000000000E+00 0. -1.
         11    1    1    2    0    0 -0.47544063342E+02  0.58656506817E+02 -0.38131967912E+02  0.84587651155E+02  0.00000000000E+00 0.  1.
</event>
<event>
 7    1  0.2666594E-009  0.4812950E+02  0.7561462E-02  0.1455700E+00
         -1   -1    0    0    0  501 -0.00000000000E+00  0.00000000000E+00  0.19453043911E+02  0.19453043911E+02  0.00000000000E+00 0.  1.
          1   -1    0    0  501    0  0.00000000000E+00 -0.00000000000E+00 -0.75702513434E+03  0.75702513434E+03  0.00000000000E+00 0. -1.
         25    2    1    2    0    0 -0.47502050012E+01 -0.38823490857E+01 -0.59461517135E+03  0.60766178067E+03  0.12509196856E+03 0.  0.
          5    1    3    3  502    0 -0.18741276096E+02 -0.47544174736E+01 -0.59255984126E+03  0.59288993733E+03  0.41800000000E+01 0. -1.
         -5    1    3    3    0  502  0.13991071095E+02  0.87206838791E+00 -0.20553300912E+01  0.14771843333E+02  0.41800000000E+01 0. -1.
        -11    1    1    2    0    0 -0.19246886291E+02 -0.20165486324E+02 -0.12918457393E+03  0.13215802515E+03  0.00000000000E+00 0. -1.
         11    1    1    2    0    0  0.23997091292E+02  0.24047835410E+02 -0.13772345140E+02  0.36658372428E+02  0.00000000000E+00 0.  1.
</event>
<event>
 7    1  0.2666594E-009  0.9485179E+02  0.7561462E-02  0.1291510E+00
          3   -1    0    0  501    0  0.00000000000E+00  0.00000000000E+00  0.84608888974E+02  0.84608888974E+02  0.00000000000E+00 0. -1.
         -3   -1    0    0    0  501 -0.00000000000E+00 -0.00000000000E+00 -0.15791620236E+03  0.15791620236E+03  0.00000000000E+00 0.  1.
         25    2    1    2    0    0  0.10692535304E+02  0.11993161694E+02 -0.20704646622E+01  0.12613496612E+03  0.12509027386E+03 0.  0.
          5    1    3    3  502    0  0.49754529616E+02 -0.14118446467E+02 -0.40072744836E+02  0.65560209172E+02  0.41800000000E+01 0. -1.
         -5    1    3    3    0  502 -0.39061994312E+02  0.26111608161E+02  0.38002280174E+02  0.60574756944E+02  0.41800000000E+01 0. -1.
        -11    1    1    2    0    0  0.24025616673E+02 -0.39579725893E+02 -0.26260452540E+02  0.53229656451E+02  0.00000000000E+00 0.  1.
         11    1    1    2    0    0 -0.34718151977E+02  0.27586564199E+02 -0.44976396180E+02  0.63160468763E+02  0.00000000000E+00 0. -1.
</event>
<event>
 7    1  0.2666594E-009  0.1466593E+03  0.7561462E-02  0.1204639E+00
         -1   -1    0    0    0  501 -0.00000000000E+00  0.00000000000E+00  0.95096397034E+02  0.95096397034E+02  0.00000000000E+00 0.  1.
          1   -1    0    0  501    0  0.00000000000E+00 -0.00000000000E+00 -0.30590028647E+03  0.30590028647E+03  0.00000000000E+00 0. -1.
         25    2    1    2    0    0  0.31891736304E+01 -0.91600886484E+02 -0.19171855156E+03  0.24657997028E+03  0.12507911695E+03 0.  0.
          5    1    3    3  502    0 -0.39595739832E+01  0.28794925021E+02 -0.16085057884E+02  0.33481747568E+02  0.41800000000E+01 0. -1.
         -5    1    3    3    0  502  0.71487476137E+01 -0.12039581151E+03 -0.17563349368E+03  0.21309822271E+03  0.41800000000E+01 0. -1.
        -11    1    1    2    0    0  0.34915222453E+02  0.98539487211E+02  0.11352134421E+02  0.10515690303E+03  0.00000000000E+00 0.  1.
         11    1    1    2    0    0 -0.38104396084E+02 -0.69386007269E+01 -0.30437472294E+02  0.49259810197E+02  0.00000000000E+00 0. -1.
</event>
<event>
 7    1  0.2666594E-009  0.1146871E+03  0.7561462E-02  0.1252128E+00
          1   -1    0    0  501    0  0.00000000000E+00  0.00000000000E+00  0.47387459962E+03  0.47387459962E+03  0.00000000000E+00 0. -1.
         -1   -1    0    0    0  501 -0.00000000000E+00 -0.00000000000E+00 -0.34986667817E+02  0.34986667817E+02  0.00000000000E+00 0.  1.
         25    2    1    2    0    0  0.24041313715E+01  0.66238163909E+02  0.28172133104E+03  0.31529406970E+03  0.12510063076E+03 0.  0.
          5    1    3    3  502    0  0.45057809586E+02 -0.23554337185E+01  0.17848333506E+03  0.18414539790E+03  0.41800000000E+01 0. -1.
         -5    1    3    3    0  502 -0.42653678215E+02  0.68593597628E+02  0.10323799599E+03  0.13114867180E+03  0.41800000000E+01 0. -1.
        -11    1    1    2    0    0 -0.36529766463E+02 -0.10822348913E+02  0.99753630017E+02  0.10678171087E+03  0.00000000000E+00 0. -1.
         11    1    1    2    0    0  0.34125635091E+02 -0.55415814996E+02  0.57412970738E+02  0.86785486869E+02  0.00000000000E+00 0.  1.
</event>
<event>
 7    1  0.2666594E-009  0.1116099E+03  0.7561462E-02  0.1257617E+00
         -2   -1    0    0    0  501 -0.00000000000E+00  0.00000000000E+00  0.19263134510E+03  0.19263134510E+03  0.00000000000E+00 0.  1.
          2   -1    0    0  501    0  0.00000000000E+00 -0.00000000000E+00 -0.11690404730E+03  0.11690404730E+03  0.00000000000E+00 0. -1.
         25    2    1    2    0    0  0.64793388638E+02 -0.60258859043E+02 -0.13194541901E+02  0.15378886430E+03  0.12509038949E+03 0.  0.
          5    1    3    3  502    0  0.56668000770E+02 -0.72627573015E+02 -0.56286306682E+02  0.10803539880E+03  0.41800000000E+01 0.  1.
         -5    1    3    3    0  502  0.81253878681E+01  0.12368713972E+02  0.43091764781E+02  0.45753465501E+02  0.41800000000E+01 0.  1.
        -11    1    1    2    0    0 -0.78491888276E+02  0.33052473075E+02  0.31612113115E+02  0.90844747768E+02  0.00000000000E+00 0.  1.
         11    1    1    2    0    0  0.13698499638E+02  0.27206385968E+02  0.57309726584E+02  0.64901780337E+02  0.00000000000E+00 0. -1.
</event>
<event>
 7    1  0.2666594E-009  0.4043443E+03  0.7561462E-02  0.1042286E+00
          1   -1    0    0  501    0  0.00000000000E+00  0.00000000000E+00  0.27966831263E+03  0.27966831263E+03  0.00000000000E+00 0. -1.
         -1   -1    0    0    0  501 -0.00000000000E+00 -0.00000000000E+00 -0.10425798164E+04  0.10425798164E+04  0.00000000000E+00 0.  1.
         25    2    1    2    0    0 -0.18932386862E+03 -0.34876260943E+03 -0.81437815229E+03  0.91451518407E+03  0.12508941604E+03 0.  0.
          5    1    3    3  502    0 -0.19633342103E+03 -0.33485066691E+03 -0.80933696022E+03  0.89761660463E+03  0.41800000000E+01 0. -1.
         -5    1    3    3    0  502  0.70095524029E+01 -0.13911942516E+02 -0.50411920721E+01  0.16898579436E+02  0.41800000000E+01 0. -1.
        -11    1    1    2    0    0  0.46342164037E+01  0.68936294704E+02  0.54016143284E+01  0.69302713703E+02  0.00000000000E+00 0.  1.
         11    1    1    2    0    0  0.18468965222E+03  0.27982631472E+03  0.46065034195E+02  0.33843023125E+03  0.00000000000E+00 0. -1.
</event>
<event>
 7    1  0.2666594E-009  0.1471295E+03  0.7561462E-02  0.1204045E+00
          1   -1    0    0  501    0  0.00000000000E+00  0.00000000000E+00  0.19931310726E+03  0.19931310726E+03  0.00000000000E+00 0. -1.
         -1   -1    0    0    0  501 -0.00000000000E+00 -0.00000000000E+00 -0.14823363563E+03  0.14823363563E+03  0.00000000000E+00 0.  1.
         25    2    1    2    0    0 -0.85455283806E+02 -0.83962660776E+02  0.91650750822E+02  0.19595198634E+03  0.12507992200E+03 0.  0.
          5    1    3    3  502    0 -0.36610168632E+02 -0.11086251184E+03  0.68525026774E+02  0.13543984891E+03  0.41800000000E+01 0. -1.
         -5    1    3    3    0  502 -0.48845115173E+02  0.26899851060E+02  0.23125724048E+02  0.60512137428E+02  0.41800000000E+01 0. -1.
        -11    1    1    2    0    0  0.34070774096E+02  0.20144383842E+02  0.24860471314E+02  0.46740313240E+02  0.00000000000E+00 0. -1.
         11    1    1    2    0    0  0.51384509710E+02  0.63818276934E+02 -0.65431750503E+02  0.10485444331E+03  0.00000000000E+00 0.  1.
</event>
<event>
 7    1  0.2666594E-009  0.9493080E+02  0.7561462E-02  0.1291332E+00
          2   -1    0    0  501    0  0.00000000000E+00  0.00000000000E+00  0.37232954988E+03  0.37232954988E+03  0.00000000000E+00 0. -1.
         -2   -1    0    0    0  501 -0.00000000000E+00 -0.00000000000E+00 -0.38237640604E+02  0.38237640604E+02  0.00000000000E+00 0.  1.
         25    2    1    2    0    0 -0.31223467976E+02 -0.10477185778E+02  0.25198295240E+03  0.28324465538E+03  0.12508976829E+03 0.  0.
          5    1    3    3  502    0  0.40038084722E+02  0.82594352536E+01  0.16063817665E+03  0.16581122608E+03  0.41800000000E+01 0.  1.
         -5    1    3    3    0  502 -0.71261552698E+02 -0.18736621031E+02  0.91344775750E+02  0.11743342930E+03  0.41800000000E+01 0.  1.
        -11    1    1    2    0    0  0.40661659028E+02  0.31817729292E+02  0.11415782678E+02  0.52877769491E+02  0.00000000000E+00 0.  1.
         11    1    1    2    0    0 -0.94381910516E+01 -0.21340543515E+02  0.70693174199E+02  0.74444765606E+02  0.00000000000E+00 0. -1.
</event>
<event>
 7    1  0.2666594E-009  0.1061621E+03  0.7561462E-02  0.1267847E+00
          2   -1    0    0  501    0  0.00000000000E+00  0.00000000000E+00  0.16257962024E+03  0.16257962024E+03  0.00000000000E+00 0. -1.
         -2   -1    0    0    0  501 -0.00000000000E+00 -0.00000000000E+00 -0.12052873779E+03  0.12052873779E+03  0.00000000000E+00 0.  1.
         25    2    1    2    0    0 -0.58744010298E+02 -0.53228603191E+02 -0.16707351670E+02  0.14902614461E+03  0.12508202603E+03 0.  0.
          5    1    3    3  502    0 -0.79821643393E+02 -0.50497521679E+02  0.28625109173E+02  0.98784430579E+02  0.41800000000E+01 0.  1.
         -5    1    3    3    0  502  0.21077633095E+02 -0.27310815120E+01 -0.45332460843E+02  0.50241714036E+02  0.41800000000E+01 0.  1.
        -11    1    1    2    0    0  0.11223265580E+02  0.46843696637E+02  0.69868547662E+02  0.84864053387E+02  0.00000000000E+00 0. -1.
         11    1    1    2    0    0  0.47520744718E+02  0.63849065542E+01 -0.11110313542E+02  0.49218160035E+02  0.00000000000E+00 0.  1.
</event>
<event>
 7    1  0.2666594E-009  0.7900032E+02  0.7561462E-02  0.1331913E+00
          1   -1    0    0  501    0  0.00000000000E+00  0.00000000000E+00  0.20417124648E+02  0.20417124648E+02  0.00000000000E+00 0. -1.
         -1   -1    0    0    0  501 -0.00000000000E+00 -0.00000000000E+00 -0.60321937711E+03  0.60321937711E+03  0.00000000000E+00 0.  1.
         25    2    1    2    0    0 -0.27081301392E+02  0.71509401686E+01 -0.30443264087E+03  0.33032055319E+03  0.12509157526E+03 0.  0.
          5    1    3    3  502    0 -0.14668264651E+02  0.33691598684E+02 -0.29767321574E+03  0.29996182687E+03  0.41800000000E+01 0. -1.
         -5    1    3    3    0  502 -0.12413036741E+02 -0.26540658516E+02 -0.67594251296E+01  0.30358726318E+02  0.41800000000E+01 0. -1.
        -11    1    1    2    0    0  0.30753813811E+02  0.36435701989E+02 -0.16671706248E+03  0.17340108525E+03  0.00000000000E+00 0.  1.
         11    1    1    2    0    0 -0.36725124189E+01 -0.43586642158E+02 -0.11165254911E+03  0.11991486332E+03  0.00000000000E+00 0. -1.
</event>
<event>
 7    1  0.2666594E-009  0.8082260E+02  0.7561462E-02  0.1326733E+00
          2   -1    0    0  501    0  0.00000000000E+00  0.00000000000E+00  0.14754334276E+04  0.14754334276E+04  0.00000000000E+00 0. -1.
         -2   -1    0    0    0  501 -0.00000000000E+00 -0.00000000000E+00 -0.14543050685E+02  0.14543050685E+02  0.00000000000E+00 0.  1.
         25    2    1    2    0    0  0.28447285732E+02  0.31836737579E+02  0.12364697885E+04  0.12435143762E+04  0.12509052776E+03 0.  0.
          5    1    3    3  502    0 -0.26826545677E+01 -0.10422608272E+02  0.10413809806E+04  0.10414449801E+04  0.41800000000E+01 0. -1.
         -5    1    3    3    0  502  0.31129940300E+02  0.42259345851E+02  0.19508880784E+03  0.20206939609E+03  0.41800000000E+01 0. -1.
        -11    1    1    2    0    0  0.12237144493E+02 -0.51019166039E+02  0.84246068661E+02  0.99247685582E+02  0.00000000000E+00 0.  1.
         11    1    1    2    0    0 -0.40684430225E+02  0.19182428460E+02  0.14017451980E+03  0.14721441650E+03  0.00000000000E+00 0. -1.
</event>
<event>
 7    1  0.2666594E-009  0.1132658E+03  0.7561462E-02  0.1254639E+00
         -1   -1    0    0    0  501 -0.00000000000E+00  0.00000000000E+00  0.64917728825E+02  0.64917728825E+02  0.00000000000E+00 0.  1.
          1   -1    0    0  501    0  0.00000000000E+00 -0.00000000000E+00 -0.31770116804E+03  0.31770116804E+03  0.00000000000E+00 0. -1.
         25    2    1    2    0    0  0.19004281083E+02 -0.92254348644E+02 -0.17115949252E+03  0.23198014398E+03  0.12508871963E+03 0.  0.
          5    1    3    3  502    0 -0.24579021178E+02  0.52081176040E+01  0.49948637820E+01  0.25955227512E+02  0.41800000000E+01 0. -1.
         -5    1    3    3    0  502  0.43583302261E+02 -0.97462466248E+02 -0.17615435630E+03  0.20602491647E+03  0.41800000000E+01 0. -1.
        -11    1    1    2    0    0 -0.16246385813E+02  0.74680127417E+02 -0.99470071360E+02  0.12544066956E+03  0.00000000000E+00 0. -1.
         11    1    1    2    0    0 -0.27578952700E+01  0.17574221227E+02  0.17846124659E+02  0.25198083328E+02  0.00000000000E+00 0.  1.
</event>
<event>
 7    1  0.2666594E-009  0.1424778E+03  0.7561462E-02  0.1210033E+00
         -1   -1    0    0    0  501 -0.00000000000E+00  0.00000000000E+00  0.23180924112E+03  0.23180924112E+03  0.00000000000E+00 0.  1.
          1   -1    0    0  501    0  0.00000000000E+00 -0.00000000000E+00 -0.11062451518E+03  0.11062451518E+03  0.00000000000E+00 0. -1.
         25    2    1    2    0    0  0.94826770082E+02 -0.67616272701E+02  0.83080548648E+02  0.19003562859E+03  0.12508831246E+03 0.  0.
          5    1    3    3  502    0 -0.20592835425E+02  0.38774723778E+01 -0.11740669595E+02  0.24380635460E+02  0.41800000000E+01 0.  1.
         -5    1    3    3    0  502  0.11541960551E+03 -0.71493745079E+02  0.94821218244E+02  0.16565499313E+03  0.41800000000E+01 0.  1.
        -11    1    1    2    0    0 -0.20021128427E+02  0.45561327710E+02 -0.21528265176E+02  0.54223116543E+02  0.00000000000E+00 0. -1.
         11    1    1    2    0    0 -0.74805641655E+02  0.22054944991E+02  0.59632442472E+02  0.98175011164E+02  0.00000000000E+00 0.  1.
</event>
<event>
 7    1  0.2666594E-009  0.4009364E+03  0.7561462E-02  0.1043456E+00
          2   -1    0    0  501    0  0.00000000000E+00  0.00000000000E+00  0.14395013581E+04  0.14395013581E+04  0.00000000000E+00 0. -1.
         -2   -1    0    0    0  501 -0.00000000000E+00 -0.00000000000E+00 -0.11972022015E+03  0.11972022015E+03  0.00000000000E+00 0.  1.
         25    2    1    2    0    0 -0.38985629846E+03 -0.57453114454E+02  0.80005930493E+03  0.90057306166E+03  0.12509258242E+03 0.  0.
          5    1    3    3  502    0 -0.25647500706E+03  0.13098211489E+02  0.57281992767E+03  0.62776678339E+03  0.41800000000E+01 0.  1.
         -5    1    3    3    0  502 -0.13338129140E+03 -0.70551325943E+02  0.22723937725E+03  0.27280627827E+03  0.41800000000E+01 0.  1.
        -11    1    1    2    0    0  0.12886180564E+03  0.20556146661E+02  0.10612384416E+03  0.16819687993E+03  0.00000000000E+00 0.  1.
         11    1    1    2    0    0  0.26099449281E+03  0.36896967794E+02  0.41359798890E+03  0.49045163669E+03  0.00000000000E+00 0. -1.
</event>
<event>
 7    1  0.2666594E-009  0.1168176E+03  0.7561462E-02  0.1248441E+00
          2   -1    0    0  501    0  0.00000000000E+00  0.00000000000E+00  0.32685884518E+03  0.32685884518E+03  0.00000000000E+00 0.  1.
         -2   -1    0    0    0  501 -0.00000000000E+00 -0.00000000000E+00 -0.63315101320E+02  0.63315101320E+02  0.00000000000E+00 0. -1.
         25    2    1    2    0    0 -0.18301385484E+02 -0.68167289561E+02  0.22783278727E+03  0.26932672761E+03  0.12508951665E+03 0.  0.
          5    1    3    3  502    0  0.25681863839E+02 -0.85553869529E+02  0.18457639976E+03  0.20509739752E+03  0.41800000000E+01 0. -1.
         -5    1    3    3    0  502 -0.43983249323E+02  0.17386579968E+02  0.43256387507E+02  0.64229330093E+02  0.41800000000E+01 0. -1.
        -11    1    1    2    0    0  0.40859859458E+02  0.60303910321E+02 -0.56722904547E+01  0.73063428567E+02  0.00000000000E+00 0. -1.
         11    1    1    2    0    0 -0.22558473973E+02  0.78633792401E+01  0.41383247045E+02  0.47783790318E+02  0.00000000000E+00 0.  1.
</event>
<event>
 7    1  0.2666594E-009  0.2071705E+03  0.7561462E-02  0.1143826E+00
         -2   -1    0    0    0  501 -0.00000000000E+00  0.00000000000E+00  0.41544904322E+02  0.41544904322E+02  0.00000000000E+00 0.  1.
          2   -1    0    0  501    0  0.00000000000E+00 -0.00000000000E+00 -0.12848943192E+04  0.12848943192E+04  0.00000000000E+00 0. -1.
         25    2    1    2    0    0 -0.52808080324E+02 -0.17573486141E+03 -0.90318856562E+03  0.93009280511E+03  0.12510637954E+03 0.  0.
          5    1    3    3  502    0 -0.92796326260E+02 -0.13941849508E+03 -0.65833567777E+03  0.67931731316E+03  0.41800000000E+01 0. -1.
         -5    1    3    3    0  502  0.39988245936E+02 -0.36316366328E+02 -0.24485288785E+03  0.25077549195E+03  0.41800000000E+01 0. -1.
        -11    1    1    2    0    0 -0.12156223384E+02  0.15287003467E+02 -0.67260481380E+01  0.20656862431E+02  0.00000000000E+00 0.  1.
         11    1    1    2    0    0  0.64964303708E+02  0.16044785794E+03 -0.33343480116E+03  0.37568955601E+03  0.00000000000E+00 0. -1.
</event>
<event>
 7    1  0.2666594E-009  0.7344925E+02  0.7561462E-02  0.1348742E+00
         -1   -1    0    0    0  501 -0.00000000000E+00  0.00000000000E+00  0.15648705059E+03  0.15648705059E+03  0.00000000000E+00 0.  1.
          1   -1    0    0  501    0  0.00000000000E+00 -0.00000000000E+00 -0.84729087843E+02  0.84729087843E+02  0.00000000000E+00 0. -1.
         25    2    1    2    0    0 -0.23687261489E+02  0.30257539004E+02  0.33603487048E+02  0.13510312978E+03  0.12508819413E+03 0.  0.
          5    1    3    3  502    0  0.10351002810E+02  0.10437111171E+02  0.75743422046E+02  0.77269754316E+02  0.41800000000E+01 0. -1.
         -5    1    3    3    0  502 -0.34038264299E+02  0.19820427833E+02 -0.42139934998E+02  0.57833375464E+02  0.41800000000E+01 0. -1.
        -11    1    1    2    0    0  0.77821388651E+01  0.29323766605E+02 -0.51317384850E+01  0.30769785717E+02  0.00000000000E+00 0.  1.
         11    1    1    2    0    0  0.15905122624E+02 -0.59581305609E+02  0.43286214181E+02  0.75343222933E+02  0.00000000000E+00 0. -1.
</event>
<event>
 7    1  0.2666594E-009  0.9899398E+02  0.7561462E-02  0.1282426E+00
          1   -1    0    0  501    0  0.00000000000E+00  0.00000000000E+00  0.25813447611E+03  0.25813447611E+03  0.00000000000E+00 0.  1.
         -1   -1    0    0    0  501 -0.00000000000E+00 -0.00000000000E+00 -0.77843249490E+02  0.77843249490E+02  0.00000000000E+00 0. -1.
         25    2    1    2    0    0  0.53087090088E+02 -0.56590694488E+02  0.15625240301E+03  0.21467192257E+03  0.12509386499E+03 0.  0.
          5    1    3    3  502    0  0.50813639948E+02 -0.78971913705E+02  0.50966289901E+02  0.10692812663E+03  0.41800000000E+01 0. -1.
         -5    1    3    3    0  502  0.22734501400E+01  0.22381219218E+02  0.10528611311E+03  0.10774379594E+03  0.41800000000E+01 0. -1.
        -11    1    1    2    0    0 -0.83184638164E+01  0.24909111043E+02 -0.33001829418E+02  0.42175601930E+02  0.00000000000E+00 0. -1.
         11    1    1    2    0    0 -0.44768626272E+02  0.31681583444E+02  0.57040653024E+02  0.79130201094E+02  0.00000000000E+00 0.  1.
</event>
<event>
 7    1  0.2666594E-009  0.1880151E+03  0.7561462E-02  0.1160264E+00
         -1   -1    0    0    0  501 -0.00000000000E+00  0.00000000000E+00  0.58876096239E+02  0.58876096239E+02  0.00000000000E+00 0.  1.
          1   -1    0    0  501    0  0.00000000000E+00 -0.00000000000E+00 -0.79787835760E+03  0.79787835760E+03  0.00000000000E+00 0. -1.
         25    2    1    2    0    0 -0.15635456630E+03  0.96093270810E+02 -0.46024249111E+03  0.51102979769E+03  0.12509051285E+03 0.  0.
          5    1    3    3  502    0 -0.61581639420E+02  0.29548244087E+02 -0.50042855959E+02  0.84777101123E+02  0.41800000000E+01 0.  1.
         -5    1    3    3    0  502 -0.94772926880E+02  0.66545026723E+02 -0.41019963516E+03  0.42625269657E+03  0.41800000000E+01 0.  1.
        -11    1    1    2    0    0  0.29750255810E+01 -0.20518965916E+02 -0.84161854400E+02  0.86678119935E+02  0.00000000000E+00 0. -1.
         11    1    1    2    0    0  0.15337954072E+03 -0.75574304894E+02 -0.19459791585E+03  0.25904653621E+03  0.00000000000E+00 0.  1.
</event>
<event>
 7    1  0.2666594E-009  0.1230451E+03  0.7561462E-02  0.1238156E+00
          1   -1    0    0  501    0  0.00000000000E+00  0.00000000000E+00  0.87198963712E+03  0.87198963712E+03  0.00000000000E+00 0. -1.
         -1   -1    0    0    0  501 -0.00000000000E+00 -0.00000000000E+00 -0.21213702858E+02  0.21213702858E+02  0.00000000000E+00 0.  1.
         25    2    1    2    0    0 -0.33624400056E+02  0.57539160801E+02  0.61397035259E+03  0.63011818696E+03  0.12509188772E+03 0.  0.
          5    1    3    3  502    0  0.33204818075E+02  0.62156459034E+02  0.38881902521E+03  0.39517552063E+03  0.41800000000E+01 0.  1.
         -5    1    3    3    0  502 -0.66829218131E+02 -0.46172982321E+01  0.22515132738E+03  0.23494266632E+03  0.41800000000E+01 0.  1.
        -11    1    1    2    0    0  0.95402638051E+01  0.22688749698E+02  0.23957519978E+02  0.34347616509E+02  0.00000000000E+00 0.  1.
         11    1    1    2    0    0  0.24084136251E+02 -0.80227910500E+02  0.21284806170E+03  0.22873753652E+03  0.00000000000E+00 0. -1.
</event>
<event>
 7    1  0.2666594E-009  0.1200630E+03  0.7561462E-02  0.1242993E+00
          1   -1    0    0  501    0  0.00000000000E+00  0.00000000000E+00  0.55324776404E+02  0.55324776404E+02  0.00000000000E+00 0. -1.
         -1   -1    0    0    0  501 -0.00000000000E+00 -0.00000000000E+00 -0.40470449898E+03  0.40470449898E+03  0.00000000000E+00 0.  1.
         25    2    1    2    0    0 -0.77534349199E+02  0.45038061210E+02 -0.26296795299E+03  0.30469499923E+03  0.12508755332E+03 0.  0.
          5    1    3    3  502    0 -0.64767873466E+02  0.62444532215E+02 -0.80163582282E+02  0.12057308722E+03  0.41800000000E+01 0.  1.
         -5    1    3    3    0  502 -0.12766475733E+02 -0.17406471006E+02 -0.18280437071E+03  0.18412191202E+03  0.41800000000E+01 0.  1.
        -11    1    1    2    0    0  0.52074373043E+02  0.21873881102E+02 -0.47800891796E+02  0.73994136651E+02  0.00000000000E+00 0.  1.
         11    1    1    2    0    0  0.25459976156E+02 -0.66911942311E+02 -0.38610877791E+02  0.81340139498E+02  0.00000000000E+00 0. -1.
</event>
<event>
 7    1  0.2666594E-009  0.1443582E+03  0.7561462E-02  0.1207582E+00
         -1   -1    0    0    0  501 -0.00000000000E+00  0.00000000000E+00  0.24173382093E+02  0.24173382093E+02  0.00000000000E+00 0.  1.
          1   -1    0    0  501    0  0.00000000000E+00 -0.00000000000E+00 -0.99255609907E+03  0.99255609907E+03  0.00000000000E+00 0. -1.
         25    2    1    2    0    0 -0.90053056601E+02  0.42525595142E+02 -0.68082083473E+03  0.69934396550E+03  0.12508794440E+03 0.  0.
          5    1    3    3  502    0 -0.70387118643E+02  0.85277822803E+02 -0.52425877191E+03  0.53580909460E+03  0.41800000000E+01 0.  1.
         -5    1    3    3    0  502 -0.19665937957E+02 -0.42752227661E+02 -0.15656206283E+03  0.16353487091E+03  0.41800000000E+01 0.  1.
        -11    1    1    2    0    0  0.17726619389E+02 -0.54677584709E+02 -0.91506458069E+02  0.10806157121E+03  0.00000000000E+00 0.  1.
         11    1    1    2    0    0  0.72326437212E+02  0.12151989567E+02 -0.19605542417E+03  0.20932394445E+03  0.00000000000E+00 0. -1.
</event>
<event>
 7    1  0.2666594E-009  0.1219160E+03  0.7561462E-02  0.1239969E+00
          1   -1    0    0  501    0  0.00000000000E+00  0.00000000000E+00  0.38607030167E+02  0.38607030167E+02  0.00000000000E+00 0. -1.
         -1   -1    0    0    0  501 -0.00000000000E+00 -0.00000000000E+00 -0.47821154399E+03  0.47821154399E+03  0.00000000000E+00 0.  1.
         25    2    1    2    0    0  0.71182880273E+02  0.24234425764E+02 -0.17904534245E+03  0.23099643528E+03  0.12509120122E+03 0.  0.
          5    1    3    3  502    0  0.58880226434E+02 -0.38011357599E+02 -0.13934607984E+03  0.15603379999E+03  0.41800000000E+01 0. -1.
         -5    1    3    3    0  502  0.12302653838E+02  0.62245783363E+02 -0.39699262601E+02  0.74962635286E+02  0.41800000000E+01 0. -1.
        -11    1    1    2    0    0 -0.73043901552E+02  0.11767894703E+02 -0.12227704356E+03  0.14291805443E+03  0.00000000000E+00 0. -1.
         11    1    1    2    0    0  0.18610212796E+01 -0.36002320467E+02 -0.13828212782E+03  0.14290408445E+03  0.00000000000E+00 0.  1.
</event>
<event>
 7    1  0.2666594E-009  0.9775660E+02  0.7561462E-02  0.1285085E+00
          2   -1    0    0  501    0  0.00000000000E+00  0.00000000000E+00  0.40248455933E+03  0.40248455933E+03  0.00000000000E+00 0. -1.
         -2   -1    0    0    0  501 -0.00000000000E+00 -0.00000000000E+00 -0.44156736397E+02  0.44156736397E+02  0.00000000000E+00 0.  1.
         25    2    1    2    0    0 -0.51748293243E+02  0.41324734379E+02  0.26744229856E+03  0.30258830241E+03  0.12509467681E+03 0.  0.
          5    1    3    3  502    0 -0.11579332382E+02 -0.19267389168E+02 -0.24965335685E+01  0.23000397901E+02  0.41800000000E+01 0. -1.
         -5    1    3    3    0  502 -0.40168960861E+02  0.60592123547E+02  0.26993883213E+03  0.27958790450E+03  0.41800000000E+01 0. -1.
        -11    1    1    2    0    0  0.70454587731E+02 -0.40140890945E+02  0.94961477233E+02  0.12487122253E+03  0.00000000000E+00 0. -1.
         11    1    1    2    0    0 -0.18706294488E+02 -0.11838434342E+01 -0.40759528664E+01  0.19181770787E+02  0.00000000000E+00 0.  1.
</event>
<event>
 7    1  0.2666594E-009  0.3789691E+03  0.7561462E-02  0.1051315E+00
          2   -1    0    0  501    0  0.00000000000E+00  0.00000000000E+00  0.34947702834E+04  0.34947702834E+04  0.00000000000E+00 0. -1.
         -2   -1    0    0    0  501 -0.00000000000E+00 -0.00000000000E+00 -0.54257069368E+02  0.54257069368E+02  0.00000000000E+00 0.  1.
         25    2    1    2    0    0  0.36523606573E+03  0.45125748160E+02  0.25749018889E+04  0.26040734417E+04  0.12508011455E+03 0.  0.
          5    1    3    3  502    0  0.27671982321E+03 -0.16489902078E+02  0.20004587856E+04  0.20195788181E+04  0.41800000000E+01 0. -1.
         -5    1    3    3    0  502  0.88516242519E+02  0.61615650238E+02  0.57444310334E+03  0.58449462352E+03  0.41800000000E+01 0. -1.
        -11    1    1    2    0    0 -0.21448524887E+03 -0.55836841303E+02  0.59596638632E+03  0.63584401267E+03  0.00000000000E+00 0. -1.
         11    1    1    2    0    0 -0.15075081686E+03  0.10711093143E+02  0.26964493875E+03  0.30910989840E+03  0.00000000000E+00 0.  1.
</event>
<event>
 7    1  0.2666594E-009  0.2215412E+03  0.7561462E-02  0.1132739E+00
         -1   -1    0    0    0  501 -0.00000000000E+00  0.00000000000E+00  0.30956068817E+02  0.30956068817E+02  0.00000000000E+00 0.  1.
          1   -1    0    0  501    0  0.00000000000E+00 -0.00000000000E+00 -0.22106333925E+04  0.22106333925E+04  0.00000000000E+00 0. -1.
         25    2    1    2    0    0  0.18322153617E+03 -0.10282764485E+03 -0.15963881456E+04  0.16150059176E+04  0.12508135910E+03 0.  0.
          5    1    3    3  502    0  0.13773818259E+03 -0.21175828652E+02 -0.70003918756E+03  0.71378747480E+03  0.41800000000E+01 0.  1.
         -5    1    3    3    0  502  0.45483353575E+02 -0.81651816199E+02 -0.89634895809E+03  0.90121844279E+03  0.41800000000E+01 0.  1.
        -11    1    1    2    0    0 -0.17050471733E+03  0.95547578163E+02 -0.57931984359E+03  0.61140222399E+03  0.00000000000E+00 0. -1.
         11    1    1    2    0    0 -0.12716818840E+02  0.72800666879E+01 -0.39693344030E+01  0.15181319705E+02  0.00000000000E+00 0.  1.
</event>
<event>
 7    1  0.2666594E-009  0.1127233E+03  0.7561462E-02  0.1255608E+00
         -1   -1    0    0    0  501 -0.00000000000E+00  0.00000000000E+00  0.12615996085E+02  0.12615996085E+02  0.00000000000E+00 0.  1.
          1   -1    0    0  501    0  0.00000000000E+00 -0.00000000000E+00 -0.13399628140E+04  0.13399628140E+04  0.00000000000E+00 0. -1.
         25    2    1    2    0    0  0.49561080424E+01 -0.51457854827E+02 -0.10237944361E+04  0.10327018075E+04  0.12508198050E+03 0.  0.
          5    1    3    3  502    0 -0.59154873969E+02 -0.25409585998E+02 -0.41728488486E+03  0.42224293210E+03  0.41800000000E+01 0. -1.
         -5    1    3    3    0  502  0.64110982012E+02 -0.26048268829E+02 -0.60650955127E+03  0.61045887536E+03  0.41800000000E+01 0. -1.
        -11    1    1    2    0    0  0.35318826116E+02  0.20815423163E+02 -0.71949035210E+02  0.82809208349E+02  0.00000000000E+00 0.  1.
         11    1    1    2    0    0 -0.40274934158E+02  0.30642431664E+02 -0.23160334662E+03  0.23706779433E+03  0.00000000000E+00 0. -1.
</event>
<event>
 7    1  0.2666594E-009  0.1052658E+03  0.7561462E-02  0.1269597E+00
          1   -1    0    0  501    0  0.00000000000E+00  0.00000000000E+00  0.87490646246E+03  0.87490646246E+03  0.00000000000E+00 0. -1.
         -1   -1    0    0    0  501 -0.00000000000E+00 -0.00000000000E+00 -0.18525651362E+02  0.18525651362E+02  0.00000000000E+00 0.  1.
         25    2    1    2    0    0 -0.41628489970E+02  0.34423824971E+02  0.60026978855E+03  0.61553986721E+03  0.12509028012E+03 0.  0.
          5    1    3    3  502    0 -0.53767978885E+02  0.58292662147E+02  0.21299356870E+03  0.22731643742E+03  0.41800000000E+01 0.  1.
         -5    1    3    3    0  502  0.12139488915E+02 -0.23868837176E+02  0.38727621985E+03  0.38822342979E+03  0.41800000000E+01 0.  1.
        -11    1    1    2    0    0 -0.27942024961E+02 -0.15335502728E+02  0.11600003333E+03  0.12029938544E+03  0.00000000000E+00 0. -1.
         11    1    1    2    0    0  0.69570514932E+02 -0.19088322243E+02  0.14011098921E+03  0.15759286117E+03  0.00000000000E+00 0.  1.
</event>
<event>
 7    1  0.2666594E-009  0.1036062E+03  0.7561462E-02  0.1272890E+00
          2   -1    0    0  501    0  0.00000000000E+00  0.00000000000E+00  0.58068054183E+03  0.58068054183E+03  0.00000000000E+00 0. -1.
         -2   -1    0    0    0  501 -0.00000000000E+00 -0.00000000000E+00 -0.20645481959E+02  0.20645481959E+02  0.00000000000E+00 0.  1.
         25    2    1    2    0    0 -0.73393777168E+01  0.12721403259E+02  0.32592560219E+03  0.34941404580E+03  0.12508787581E+03 0.  0.
          5    1    3    3  502    0  0.33319310468E+02 -0.40914844710E+02  0.93937064000E+02  0.10782321346E+03  0.41800000000E+01 0. -1.
         -5    1    3    3    0  502 -0.40658688184E+02  0.53636247969E+02  0.23198853819E+03  0.24159083235E+03  0.41800000000E+01 0. -1.
        -11    1    1    2    0    0  0.21863384247E+02  0.32601353135E+02  0.62323533348E+02  0.73655132923E+02  0.00000000000E+00 0.  1.
         11    1    1    2    0    0 -0.14524006530E+02 -0.45322756394E+02  0.17178592433E+03  0.17825684506E+03  0.00000000000E+00 0. -1.
</event>
<event>
 7    1  0.2666594E-009  0.8182223E+02  0.7561462E-02  0.1323958E+00
         -2   -1    0    0    0  501 -0.00000000000E+00  0.00000000000E+00  0.50317946342E+02  0.50317946342E+02  0.00000000000E+00 0.  1.
          2   -1    0    0  501    0  0.00000000000E+00 -0.00000000000E+00 -0.23922168595E+03  0.23922168595E+03  0.00000000000E+00 0. -1.
         25    2    1    2    0    0 -0.12278629340E+02  0.21659696757E+02 -0.13089154246E+03  0.18275656083E+03  0.12508979750E+03 0.  0.
          5    1    3    3  502    0  0.22388777604E+02 -0.33140280028E+02 -0.10565471388E+03  0.11304833695E+03  0.41800000000E+01 0. -1.
         -5    1    3    3    0  502 -0.34667406944E+02  0.54799976785E+02 -0.25236828584E+02  0.69708223882E+02  0.41800000000E+01 0. -1.
        -11    1    1    2    0    0 -0.14286969530E+02  0.97639346987E+01 -0.63000247054E+02  0.65333628768E+02  0.00000000000E+00 0. -1.
         11    1    1    2    0    0  0.26565598870E+02 -0.31423631456E+02  0.49880499096E+01  0.41449442687E+02  0.00000000000E+00 0.  1.
</event>
<event>
 7    1  0.2666594E-009  0.1301368E+03  0.7561462E-02  0.1227253E+00
         -4   -1    0    0    0  501 -0.00000000000E+00  0.00000000000E+00  0.22401040908E+03  0.22401040908E+03  0.00000000000E+00 0.  1.
          4   -1    0    0  501    0  0.00000000000E+00 -0.00000000000E+00 -0.11808085594E+03  0.11808085594E+03  0.00000000000E+00 0. -1.
         25    2    1    2    0    0  0.13728748907E+02 -0.10869502250E+03 -0.29886930227E+01  0.16631407916E+03  0.12509338183E+03 0.  0.
          5    1    3    3  502    0 -0.21819015146E+02 -0.46208648648E+02  0.54012920774E+02  0.74472657011E+02  0.41800000000E+01 0.  1.
         -5    1    3    3    0  502  0.35547764052E+02 -0.62486373851E+02 -0.57001613796E+02  0.91841422144E+02  0.41800000000E+01 0.  1.
        -11    1    1    2    0    0  0.31714173686E+02  0.71671432315E+02  0.72526006764E+02  0.10678297935E+03  0.00000000000E+00 0.  1.
         11    1    1    2    0    0 -0.45442922593E+02  0.37023590183E+02  0.36392239403E+02  0.68994206515E+02  0.00000000000E+00 0. -1.
</event>
<event>
 7    1  0.2666594E-009  0.1073189E+03  0.7561462E-02  0.1265617E+00
         -2   -1    0    0    0  501 -0.00000000000E+00  0.00000000000E+00  0.15610383697E+03  0.15610383697E+03  0.00000000000E+00 0.  1.
          2   -1    0    0  501    0  0.00000000000E+00 -0.00000000000E+00 -0.83407209968E+02  0.83407209968E+02  0.00000000000E+00 0. -1.
         25    2    1    2    0    0  0.61137664156E+00 -0.30800496041E+02  0.22306377217E+02  0.13073064312E+03  0.12507550618E+03 0.  0.
          5    1    3    3  502    0  0.57652017189E+02 -0.12091688703E+02 -0.13676082967E+02  0.60617420491E+02  0.41800000000E+01 0. -1.
         -5    1    3    3    0  502 -0.57040640547E+02 -0.18708807337E+02  0.35982460184E+02  0.70113222626E+02  0.41800000000E+01 0. -1.
        -11    1    1    2    0    0  0.44694566516E+02  0.11420068304E+02  0.32182376038E+02  0.56247022709E+02  0.00000000000E+00 0.  1.
         11    1    1    2    0    0 -0.45305943158E+02  0.19380427737E+02  0.18207873747E+02  0.52533381112E+02  0.00000000000E+00 0. -1.
</event>
<event>
 7    1  0.2666594E-009  0.1197540E+03  0.7561462E-02  0.1243503E+00
          1   -1    0    0  501    0  0.00000000000E+00  0.00000000000E+00  0.51630742142E+03  0.51630742142E+03  0.00000000000E+00 0. -1.
         -1   -1    0    0    0  501 -0.00000000000E+00 -0.00000000000E+00 -0.28394423671E+02  0.28394423671E+02  0.00000000000E+00 0.  1.
         25    2    1    2    0    0 -0.52838549821E+02 -0.58363589490E+01  0.28653764617E+03  0.31713696148E+03  0.12508418857E+03 0.  0.
          5    1    3    3  502    0  0.27878276002E+02 -0.38350488524E+02  0.81893416774E+02  0.94720443167E+02  0.41800000000E+01 0.  1.
         -5    1    3    3    0  502 -0.80716825823E+02  0.32514129575E+02  0.20464422940E+03  0.22241651831E+03  0.41800000000E+01 0.  1.
        -11    1    1    2    0    0  0.68246383341E+02 -0.23065900007E+02  0.15342903922E+03  0.16949948276E+03  0.00000000000E+00 0. -1.
         11    1    1    2    0    0 -0.15407833520E+02  0.28902258956E+02  0.47946312358E+02  0.58065400844E+02  0.00000000000E+00 0.  1.
</event>
<event>
 7    1  0.2666594E-009  0.1326144E+03  0.7561462E-02  0.1223627E+00
         -1   -1    0    0    0  501 -0.00000000000E+00  0.00000000000E+00  0.16224162369E+03  0.16224162369E+03  0.00000000000E+00 0.  1.
          1   -1    0    0  501    0  0.00000000000E+00 -0.00000000000E+00 -0.12080257068E+03  0.12080257068E+03  0.00000000000E+00 0. -1.
         25    2    1    2    0    0  0.76175080227E+02  0.18131889924E+02 -0.18112767199E+02  0.14868478496E+03  0.12509070574E+03 0.  0.
          5    1    3    3  502    0 -0.13171145484E+02  0.49492962797E+02 -0.16213979724E+02  0.53883188272E+02  0.41800000000E+01 0.  1.
         -5    1    3    3    0  502  0.89346225711E+02 -0.31361072873E+02 -0.18987874753E+01  0.94801596687E+02  0.41800000000E+01 0.  1.
        -11    1    1    2    0    0 -0.52512206822E+02 -0.54493356216E+02  0.27896975136E+02  0.80655433535E+02  0.00000000000E+00 0.  1.
         11    1    1    2    0    0 -0.23662873405E+02  0.36361466292E+02  0.31654845070E+02  0.53703975878E+02  0.00000000000E+00 0. -1.
</event>
<event>
 7    1  0.2666594E-009  0.1310858E+03  0.7561462E-02  0.1225853E+00
         -2   -1    0    0    0  501 -0.00000000000E+00  0.00000000000E+00  0.34128084971E+03  0.34128084971E+03  0.00000000000E+00 0.  1.
          2   -1    0    0  501    0  0.00000000000E+00 -0.00000000000E+00 -0.11593288555E+03  0.11593288555E+03  0.00000000000E+00 0. -1.
         25    2    1    2    0    0  0.86880563672E+02 -0.30713932945E+02 -0.41129443687E+02  0.16072054369E+03  0.12509150253E+03 0.  0.
          5    1    3    3  502    0  0.99910097470E+01  0.39799662232E+02  0.12822676954E+02  0.43194060168E+02  0.41800000000E+01 0.  1.
         -5    1    3    3    0  502  0.76889553925E+02 -0.70513595177E+02 -0.53952120641E+02  0.11752648352E+03  0.41800000000E+01 0.  1.
        -11    1    1    2    0    0 -0.62172440408E+02  0.54158227127E+02  0.11668584838E+03  0.14287796584E+03  0.00000000000E+00 0. -1.
         11    1    1    2    0    0 -0.24708123264E+02 -0.23444294182E+02  0.14979155947E+03  0.15361522572E+03  0.00000000000E+00 0.  1.
</event>
<event>
 7    1  0.2666594E-009  0.1328563E+03  0.7561462E-02  0.1223278E+00
          2   -1    0    0  501    0  0.00000000000E+00  0.00000000000E+00  0.55150530445E+03  0.55150530445E+03  0.00000000000E+00 0. -1.
         -2   -1    0    0    0  501 -0.00000000000E+00 -0.00000000000E+00 -0.40687900558E+02  0.40687900558E+02  0.00000000000E+00 0.  1.
         25    2    1    2    0    0  0.91029516124E+02 -0.10654540993E+02  0.36520694302E+03  0.39676576011E+03  0.12508822932E+03 0.  0.
          5    1    3    3  502    0  0.56490995698E+02  0.49442105825E+02  0.11739727872E+03  0.13941071650E+03  0.41800000000E+01 0. -1.
         -5    1    3    3    0  502  0.34538520427E+02 -0.60096646818E+02  0.24780966430E+03  0.25735504361E+03  0.41800000000E+01 0. -1.
        -11    1    1    2    0    0 -0.66622568321E+02  0.43940997599E+02  0.58244287046E+02  0.98801694587E+02  0.00000000000E+00 0.  1.
         11    1    1    2    0    0 -0.24406947803E+02 -0.33286456606E+02  0.87366173829E+02  0.96625750315E+02  0.00000000000E+00 0. -1.
</event>
<event>
 7    1  0.2666594E-009  0.1065714E+03  0.7561462E-02  0.1267054E+00
         -2   -1    0    0    0  501 -0.00000000000E+00  0.00000000000E+00  0.53028074482E+02  0.53028074482E+02  0.00000000000E+00 0. -1.
          2   -1    0    0  501    0  0.00000000000E+00 -0.00000000000E+00 -0.27072725068E+03  0.27072725068E+03  0.00000000000E+00 0.  1.
         25    2    1    2    0    0 -0.25338243364E+02 -0.36103001705E+02 -0.15603611246E+03  0.20480164601E+03  0.12510392682E+03 0.  0.
          5    1    3    3  502    0 -0.64367290732E+02 -0.69632912905E+01 -0.33804059413E+02  0.73156150627E+02  0.41800000000E+01 0. -1.
         -5    1    3    3    0  502  0.39029047368E+02 -0.29139710414E+02 -0.12223205305E+03  0.13164549538E+03  0.41800000000E+01 0. -1.
        -11    1    1    2    0    0  0.58895195809E+02  0.25583770445E+02 -0.51598834039E+02  0.82374832769E+02  0.00000000000E+00 0.  1.
         11    1    1    2    0    0 -0.33556952445E+02  0.10519231260E+02 -0.10064229700E+02  0.36578846389E+02  0.00000000000E+00 0. -1.
</event>
<event>
 7    1  0.2666594E-009  0.1159174E+03  0.7561462E-02  0.1249988E+00
          1   -1    0    0  501    0  0.00000000000E+00  0.00000000000E+00  0.48202381582E+03  0.48202381582E+03  0.00000000000E+00 0. -1.
         -1   -1    0    0    0  501 -0.00000000000E+00 -0.00000000000E+00 -0.34696521090E+02  0.34696521090E+02  0.00000000000E+00 0.  1.
         25    2    1    2    0    0 -0.19313062494E+02 -0.77439709945E+02  0.27294465079E+03  0.31067014957E+03  0.12508899383E+03 0.  0.
          5    1    3    3  502    0  0.17343546600E+02  0.28408375824E+02  0.40343644437E+02  0.52468242510E+02  0.41800000000E+01 0.  1.
         -5    1    3    3    0  502 -0.36656609094E+02 -0.10584808577E+03  0.23260100636E+03  0.25820190706E+03  0.41800000000E+01 0.  1.
        -11    1    1    2    0    0 -0.57036370025E+00  0.59232787344E+02  0.46361987841E+02  0.75221554942E+02  0.00000000000E+00 0.  1.
         11    1    1    2    0    0  0.19883426194E+02  0.18206922601E+02  0.12802065610E+03  0.13082863240E+03  0.00000000000E+00 0. -1.
</event>
<event>
 7    1  0.2666594E-009  0.1517944E+03  0.7561462E-02  0.1198285E+00
         -4   -1    0    0    0  501 -0.00000000000E+00  0.00000000000E+00  0.53496903381E+02  0.53496903381E+02  0.00000000000E+00 0.  1.
          4   -1    0    0  501    0  0.00000000000E+00 -0.00000000000E+00 -0.49622562434E+03  0.49622562434E+03  0.00000000000E+00 0. -1.
         25    2    1    2    0    0 -0.86850232842E+02 -0.83861578343E+02 -0.20638444790E+03  0.26984653981E+03  0.12508751915E+03 0.  0.
          5    1    3    3  502    0 -0.93059572575E+02 -0.99682019324E+02 -0.21143341194E+03  0.25163097804E+03  0.41800000000E+01 0.  1.
         -5    1    3    3    0  502  0.62093397326E+01  0.15820440981E+02  0.50489640433E+01  0.18215561771E+02  0.41800000000E+01 0.  1.
        -11    1    1    2    0    0  0.10232896276E+03  0.53258919197E+02 -0.18880182264E+03  0.22125518598E+03  0.00000000000E+00 0.  1.
         11    1    1    2    0    0 -0.15478729914E+02  0.30602659146E+02 -0.47542450429E+02  0.58620801934E+02  0.00000000000E+00 0. -1.
</event>
<event>
 7    1  0.2666594E-009  0.1505315E+03  0.7561462E-02  0.1199821E+00
          2   -1    0    0  501    0  0.00000000000E+00  0.00000000000E+00  0.96567358191E+03  0.96567358191E+03  0.00000000000E+00 0.  1.
         -2   -1    0    0    0  501 -0.00000000000E+00 -0.00000000000E+00 -0.33279040600E+02  0.33279040600E+02  0.00000000000E+00 0. -1.
         25    2    1    2    0    0  0.14245291719E+03  0.19616033769E+02  0.45391765269E+03  0.49230590613E+03  0.12508496070E+03 0.  0.
          5    1    3    3  502    0  0.57746364762E+02 -0.21489675997E+02  0.33462464753E+03  0.34027573518E+03  0.41800000000E+01 0. -1.
         -5    1    3    3    0  502  0.84706552432E+02  0.41105709765E+02  0.11929300516E+03  0.15203017095E+03  0.41800000000E+01 0. -1.
        -11    1    1    2    0    0 -0.55220242831E+02 -0.17038378402E+02  0.32495497332E+03  0.33005350512E+03  0.00000000000E+00 0.  1.
         11    1    1    2    0    0 -0.87232674363E+02 -0.25776553664E+01  0.15352191530E+03  0.17659321125E+03  0.00000000000E+00 0. -1.
</event>
<event>
 7    1  0.2666594E-009  0.8054033E+02  0.7561462E-02  0.1327525E+00
          2   -1    0    0  501    0  0.00000000000E+00  0.00000000000E+00  0.31464752339E+03  0.31464752339E+03  0.00000000000E+00 0. -1.
         -2   -1    0    0    0  501 -0.00000000000E+00 -0.00000000000E+00 -0.44962741457E+02  0.44962741457E+02  0.00000000000E+00 0.  1.
         25    2    1    2    0    0  0.10377824226E+01 -0.31362131763E+02  0.22102727937E+03  0.25590074112E+03  0.12508985084E+03 0.  0.
          5    1    3    3  502    0  0.14383705692E+02  0.46404512531E+02  0.10168227142E+03  0.11276979424E+03  0.41800000000E+01 0.  1.
         -5    1    3    3    0  502 -0.13345923270E+02 -0.77766644294E+02  0.11934500795E+03  0.14313094688E+03  0.41800000000E+01 0.  1.
        -11    1    1    2    0    0  0.47368046227E+01  0.20070178395E+02 -0.23027388878E+02  0.30911325067E+02  0.00000000000E+00 0.  1.
         11    1    1    2    0    0 -0.57745870453E+01  0.11291953368E+02  0.71684891448E+02  0.72798198662E+02  0.00000000000E+00 0. -1.
</event>
<event>
 7    1  0.2666594E-009  0.7006186E+02  0.7561462E-02  0.1359883E+00
          1   -1    0    0  501    0  0.00000000000E+00  0.00000000000E+00  0.11804012099E+04  0.11804012099E+04  0.00000000000E+00 0. -1.
         -1   -1    0    0    0  501 -0.00000000000E+00 -0.00000000000E+00 -0.11293973179E+02  0.11293973179E+02  0.00000000000E+00 0.  1.
         25    2    1    2    0    0 -0.12896646990E+02 -0.27003763225E+02  0.79517330692E+03  0.80550820731E+03  0.12508939717E+03 0.  0.
          5    1    3    3  502    0 -0.17333866326E+02 -0.32389710208E+02  0.61281353688E+02  0.71571174079E+02  0.41800000000E+01 0.  1.
         -5    1    3    3    0  502  0.44372193363E+01  0.53859469827E+01  0.73389195323E+03  0.73393703324E+03  0.41800000000E+01 0.  1.
        -11    1    1    2    0    0  0.49230889558E+02  0.31437256330E+02  0.19561524385E+03  0.20415020254E+03  0.00000000000E+00 0.  1.
         11    1    1    2    0    0 -0.36334242569E+02 -0.44334931050E+01  0.17831868591E+03  0.18203677317E+03  0.00000000000E+00 0. -1.
</event>
<event>
 7    1  0.2666594E-009  0.1989990E+03  0.7561462E-02  0.1150586E+00
         -2   -1    0    0    0  501 -0.00000000000E+00  0.00000000000E+00  0.14009153003E+03  0.14009153003E+03  0.00000000000E+00 0. -1.
          2   -1    0    0  501    0  0.00000000000E+00 -0.00000000000E+00 -0.35984186738E+03  0.35984186738E+03  0.00000000000E+00 0.  1.
         25    2    1    2    0    0 -0.18328455014E+03  0.30568539326E+02 -0.43044813387E+02  0.22809753385E+03  0.12509183456E+03 0.  0.
          5    1    3    3  502    0 -0.13786495155E+03 -0.23456291870E+02  0.91609453445E+01  0.14020819453E+03  0.41800000000E+01 0. -1.
         -5    1    3    3    0  502 -0.45419598588E+02  0.54024831196E+02 -0.52205758732E+02  0.87889339322E+02  0.41800000000E+01 0. -1.
        -11    1    1    2    0    0  0.74618094554E+02 -0.44054779437E+00 -0.17337410080E+02  0.76607048667E+02  0.00000000000E+00 0. -1.
         11    1    1    2    0    0  0.10866645558E+03 -0.30127991531E+02 -0.15936811388E+03  0.19522881489E+03  0.00000000000E+00 0.  1.
</event>
<event>
 7    1  0.2666594E-009  0.1523034E+03  0.7561462E-02  0.1197671E+00
          2   -1    0    0  501    0  0.00000000000E+00  0.00000000000E+00  0.52976010493E+03  0.52976010493E+03  0.00000000000E+00 0. -1.
         -2   -1    0    0    0  501 -0.00000000000E+00 -0.00000000000E+00 -0.47223608238E+02  0.47223608238E+02  0.00000000000E+00 0.  1.
         25    2    1    2    0    0 -0.10691788955E+03  0.50397223111E+02  0.23838622552E+03  0.29401906390E+03  0.12509157531E+03 0.  0.
          5    1    3    3  502    0  0.72827434401E+01  0.52232763268E+02  0.11045139240E+03  0.12246747484E+03  0.41800000000E+01 0.  1.
         -5    1    3    3    0  502 -0.11420063299E+03 -0.18355401566E+01  0.12793483313E+03  0.17155158906E+03  0.41800000000E+01 0.  1.
        -11    1    1    2    0    0  0.50146180213E+02 -0.61718127342E+02  0.10097487376E+03  0.12852895302E+03  0.00000000000E+00 0.  1.
         11    1    1    2    0    0  0.56771709337E+02  0.11320904231E+02  0.14317539740E+03  0.15443569625E+03  0.00000000000E+00 0. -1.
</event>
<event>
 7    1  0.2666594E-009  0.2331906E+03  0.7561462E-02  0.1124414E+00
         -2   -1    0    0    0  501 -0.00000000000E+00  0.00000000000E+00  0.12316602101E+03  0.12316602101E+03  0.00000000000E+00 0.  1.
          2   -1    0    0  501    0  0.00000000000E+00 -0.00000000000E+00 -0.46950024223E+03  0.46950024223E+03  0.00000000000E+00 0. -1.
         25    2    1    2    0    0 -0.21270279472E+03 -0.12109990689E+02 -0.15772257244E+03  0.29310874056E+03  0.12508874124E+03 0.  0.
          5    1    3    3  502    0 -0.22457449722E+03 -0.92586857001E+01 -0.12341226854E+03  0.25645172740E+03  0.41800000000E+01 0.  1.
         -5    1    3    3    0  502  0.11871702500E+02 -0.28513049888E+01 -0.34310303900E+02  0.36657013164E+02  0.41800000000E+01 0.  1.
        -11    1    1    2    0    0  0.60154707021E+02  0.41812847991E+02 -0.35559146294E+02  0.81433137721E+02  0.00000000000E+00 0.  1.
         11    1    1    2    0    0  0.15254808770E+03 -0.29702857302E+02 -0.15305250250E+03  0.21812438495E+03  0.00000000000E+00 0. -1.
</event>
<event>
 7    1  0.2666594E-009  0.1303508E+03  0.7561462E-02  0.1226936E+00
         -1   -1    0    0    0  501 -0.00000000000E+00  0.00000000000E+00  0.14272478725E+03  0.14272478725E+03  0.00000000000E+00 0.  1.
          1   -1    0    0  501    0  0.00000000000E+00 -0.00000000000E+00 -0.15659457076E+03  0.15659457076E+03  0.00000000000E+00 0. -1.
         25    2    1    2    0    0 -0.49298553461E+02 -0.85053767795E+02 -0.37234207508E+02  0.16339589340E+03  0.12508933200E+03 0.  0.
          5    1    3    3  502    0 -0.75697454505E+02 -0.68910711694E+01 -0.12330989103E+02  0.77117554244E+02  0.41800000000E+01 0. -1.
         -5    1    3    3    0  502  0.26398901044E+02 -0.78162696626E+02 -0.24903218404E+02  0.86278339153E+02  0.41800000000E+01 0. -1.
        -11    1    1    2    0    0  0.14540029452E+02  0.52035932087E+02  0.56088587419E+02  0.77878625587E+02  0.00000000000E+00 0.  1.
         11    1    1    2    0    0  0.34758524009E+02  0.33017835708E+02 -0.32724163421E+02  0.58044839027E+02  0.00000000000E+00 0. -1.
</event>
<event>
 7    1  0.2666594E-009  0.9670212E+02  0.7561462E-02  0.1287388E+00
         -2   -1    0    0    0  501 -0.00000000000E+00  0.00000000000E+00  0.28619865697E+02  0.28619865697E+02  0.00000000000E+00 0.  1.
          2   -1    0    0  501    0  0.00000000000E+00 -0.00000000000E+00 -0.44695359011E+03  0.44695359011E+03  0.00000000000E+00 0. -1.
         25    2    1    2    0    0 -0.25692405016E+02 -0.84044078130E+01 -0.20468891357E+03  0.24140642731E+03  0.12509507607E+03 0.  0.
          5    1    3    3  502    0  0.32553241625E+02 -0.20619714791E+02 -0.16561479591E+03  0.17009003264E+03  0.41800000000E+01 0. -1.
         -5    1    3    3    0  502 -0.58245646641E+02  0.12215306978E+02 -0.39074117665E+02  0.71316394669E+02  0.41800000000E+01 0. -1.
        -11    1    1    2    0    0  0.31160817265E+02  0.46787200508E+02 -0.11051469925E+03  0.12399006982E+03  0.00000000000E+00 0.  1.
         11    1    1    2    0    0 -0.54684122487E+01 -0.38382792695E+02 -0.10313011160E+03  0.11017695869E+03  0.00000000000E+00 0. -1.
</event>
<event>
 7    1  0.3117640E-009  0.1426022E+03  0.7561462E-02  0.1209870E+00
         -1   -1    0    0    0  501 -0.00000000000E+00  0.00000000000E+00  0.21911294804E+02  0.21911294804E+02  0.00000000000E+00 0.  1.
          1   -1    0    0  501    0  0.00000000000E+00 -0.00000000000E+00 -0.13942161443E+04  0.13942161443E+04  0.00000000000E+00 0. -1.
         25    2    1    2    0    0  0.95098068665E+02 -0.97703487534E+02 -0.74707817458E+03  0.76965074934E+03  0.12508742095E+03 0.  0.
          5    1    3    3  502    0  0.59544928065E+01 -0.43866959552E+02 -0.59828594820E+02  0.74543271212E+02  0.41800000000E+01 0.  1.
         -5    1    3    3    0  502  0.89143575859E+02 -0.53836527982E+02 -0.68724957976E+03  0.69510747813E+03  0.41800000000E+01 0.  1.
        -11    1    1    2    0    0 -0.17667688776E+02  0.22126575253E+02 -0.29070701433E+02  0.40581254797E+02  0.00000000000E+00 0.  1.
         11    1    1    2    0    0 -0.77430379890E+02  0.75576912281E+02 -0.59615597352E+03  0.60589543501E+03  0.00000000000E+00 0. -1.
</event>
<event>
 7    1  0.2666594E-009  0.8686041E+02  0.7561462E-02  0.1310638E+00
         -1   -1    0    0    0  501 -0.00000000000E+00  0.00000000000E+00  0.44119076147E+02  0.44119076147E+02  0.00000000000E+00 0.  1.
          1   -1    0    0  501    0  0.00000000000E+00 -0.00000000000E+00 -0.40405774404E+03  0.40405774404E+03  0.00000000000E+00 0. -1.
         25    2    1    2    0    0  0.68881936980E+02  0.14066015331E+02 -0.25964774771E+03  0.29665838354E+03  0.12508664838E+03 0.  0.
          5    1    3    3  502    0  0.16824139664E+01 -0.11555937097E+02 -0.20714625876E+03  0.20751726462E+03  0.41800000000E+01 0. -1.
         -5    1    3    3    0  502  0.67199523014E+02  0.25621952427E+02 -0.52501488951E+02  0.89141118915E+02  0.41800000000E+01 0. -1.
        -11    1    1    2    0    0 -0.70213892353E+02  0.47877558227E+01 -0.26266050091E+02  0.75118697224E+02  0.00000000000E+00 0.  1.
         11    1    1    2    0    0  0.13319553732E+01 -0.18853771153E+02 -0.74024870092E+02  0.76399739424E+02  0.00000000000E+00 0. -1.
</event>
<event>
 7    1  0.2666594E-009  0.2279243E+03  0.7561462E-02  0.1128109E+00
         -1   -1    0    0    0  501 -0.00000000000E+00  0.00000000000E+00  0.58860501567E+02  0.58860501567E+02  0.00000000000E+00 0.  1.
          1   -1    0    0  501    0  0.00000000000E+00 -0.00000000000E+00 -0.96778273322E+03  0.96778273322E+03  0.00000000000E+00 0. -1.
         25    2    1    2    0    0  0.10308393555E+03  0.18245709876E+03 -0.54060618166E+03  0.59314204161E+03  0.12508216188E+03 0.  0.
          5    1    3    3  502    0  0.63181701886E+02  0.17584946024E+03 -0.33553228923E+03  0.38407596857E+03  0.41800000000E+01 0.  1.
         -5    1    3    3    0  502  0.39902233667E+02  0.66076385184E+01 -0.20507389243E+03  0.20906607304E+03  0.41800000000E+01 0.  1.
        -11    1    1    2    0    0 -0.33986573832E+02 -0.14650279778E+03 -0.25357426764E+03  0.29481870050E+03  0.00000000000E+00 0. -1.
         11    1    1    2    0    0 -0.69097361721E+02 -0.35954300987E+02 -0.11474178235E+03  0.13868249267E+03  0.00000000000E+00 0.  1.
</event>
<event>
 7    1  0.2820940E-009  0.2167594E+03  0.7561462E-02  0.1136322E+00
          1   -1    0    0  501    0  0.00000000000E+00  0.00000000000E+00  0.35533287340E+03  0.35533287340E+03  0.00000000000E+00 0. -1.
         -1   -1    0    0    0  501 -0.00000000000E+00 -0.00000000000E+00 -0.15358118873E+03  0.15358118873E+03  0.00000000000E+00 0.  1.
         25    2    1    2    0    0  0.20391081762E+03  0.31095852919E+02  0.11990113339E+03  0.26939456888E+03  0.12510227153E+03 0.  0.
          5    1    3    3  502    0  0.35983738529E+02 -0.17284697849E+02  0.80869472350E+02  0.90282524203E+02  0.41800000000E+01 0. -1.
         -5    1    3    3    0  502  0.16792707909E+03  0.48380550768E+02  0.39031661037E+02  0.17911204468E+03  0.41800000000E+01 0. -1.
        -11    1    1    2    0    0 -0.99506722544E+02 -0.51729762801E+02  0.70556784304E+02  0.13249836226E+03  0.00000000000E+00 0. -1.
         11    1    1    2    0    0 -0.10440409508E+03  0.20633909883E+02  0.11293766986E+02  0.10702113099E+03  0.00000000000E+00 0.  1.
</event>
<event>
 7    1  0.2666594E-009  0.1110743E+03  0.7561462E-02  0.1258593E+00
          2   -1    0    0  501    0  0.00000000000E+00  0.00000000000E+00  0.35098005930E+03  0.35098005930E+03  0.00000000000E+00 0. -1.
         -2   -1    0    0    0  501 -0.00000000000E+00 -0.00000000000E+00 -0.56235477109E+02  0.56235477109E+02  0.00000000000E+00 0.  1.
         25    2    1    2    0    0 -0.76502130711E+02  0.11313457770E+02  0.22456646519E+03  0.26843659393E+03  0.12509011688E+03 0.  0.
          5    1    3    3  502    0 -0.70173505969E+02  0.40579808526E+02  0.59544627855E+02  0.10066815239E+03  0.41800000000E+01 0.  1.
         -5    1    3    3    0  502 -0.63286247424E+01 -0.29266350756E+02  0.16502183734E+03  0.16776844154E+03  0.41800000000E+01 0.  1.
        -11    1    1    2    0    0  0.30703888995E+02 -0.44587268517E+02  0.80558733918E+01  0.54732535199E+02  0.00000000000E+00 0.  1.
         11    1    1    2    0    0  0.45798241717E+02  0.33273810746E+02  0.62122243609E+02  0.84046407281E+02  0.00000000000E+00 0. -1.
</event>
<event>
 7    1  0.2666594E-009  0.1014993E+03  0.7561462E-02  0.1277174E+00
          2   -1    0    0  501    0  0.00000000000E+00  0.00000000000E+00  0.25910265772E+03  0.25910265772E+03  0.00000000000E+00 0. -1.
         -2   -1    0    0    0  501 -0.00000000000E+00 -0.00000000000E+00 -0.60655436968E+02  0.60655436968E+02  0.00000000000E+00 0.  1.
         25    2    1    2    0    0 -0.35300651253E+02 -0.20145054332E+02  0.50397105630E+02  0.14085124710E+03  0.12508895379E+03 0.  0.
          5    1    3    3  502    0 -0.42596297561E+00 -0.61741701930E+02 -0.63523377239E+01  0.62209676066E+02  0.41800000000E+01 0. -1.
         -5    1    3    3    0  502 -0.34874688278E+02  0.41596647598E+02  0.56749443354E+02  0.78641571035E+02  0.41800000000E+01 0. -1.
        -11    1    1    2    0    0  0.85412698739E+01  0.47584021639E+02  0.35412195341E+02  0.59926755171E+02  0.00000000000E+00 0.  1.
         11    1    1    2    0    0  0.26759381379E+02 -0.27438967307E+02  0.11263791978E+03  0.11898009242E+03  0.00000000000E+00 0. -1.
</event>
<event>
 7    1  0.2666594E-009  0.1227429E+03  0.7561462E-02  0.1238640E+00
          2   -1    0    0  501    0  0.00000000000E+00  0.00000000000E+00  0.21525426655E+03  0.21525426655E+03  0.00000000000E+00 0. -1.
         -2   -1    0    0    0  501 -0.00000000000E+00 -0.00000000000E+00 -0.74632166574E+02  0.74632166574E+02  0.00000000000E+00 0.  1.
         25    2    1    2    0    0  0.21563091314E+02 -0.60325544474E+02  0.85214048412E+02  0.16435611117E+03  0.12508940407E+03 0.  0.
          5    1    3    3  502    0  0.66623933770E+02 -0.66777246546E+02  0.51471872470E+02  0.10753964507E+03  0.41800000000E+01 0.  1.
         -5    1    3    3    0  502 -0.45060842456E+02  0.64517020712E+01  0.33742175942E+02  0.56816466097E+02  0.41800000000E+01 0.  1.
        -11    1    1    2    0    0 -0.34719265911E+02  0.76791818040E+02  0.60626784205E+02  0.10381723222E+03  0.00000000000E+00 0. -1.
         11    1    1    2    0    0  0.13156174597E+02 -0.16466273566E+02 -0.52187326418E+01  0.21713089728E+02  0.00000000000E+00 0.  1.
</event>
<event>
 7    1  0.2666594E-009  0.1498758E+03  0.7561462E-02  0.1200626E+00
         -2   -1    0    0    0  501 -0.00000000000E+00  0.00000000000E+00  0.93832202103E+02  0.93832202103E+02  0.00000000000E+00 0.  1.
          2   -1    0    0  501    0  0.00000000000E+00 -0.00000000000E+00 -0.27143706372E+03  0.27143706372E+03  0.00000000000E+00 0. -1.
         25    2    1    2    0    0  0.45997650528E+01 -0.11030236845E+03 -0.13888743382E+03  0.21708058742E+03  0.12508593781E+03 0.  0.
          5    1    3    3  502    0  0.42574003295E+01 -0.13606458518E+03 -0.13291659920E+03  0.19030499610E+03  0.41800000000E+01 0. -1.
         -5    1    3    3    0  502  0.34236472329E+00  0.25762216730E+02 -0.59708346195E+01  0.26775591319E+02  0.41800000000E+01 0. -1.
        -11    1    1    2    0    0 -0.23283923464E+02 -0.22221048160E+01 -0.23424978723E+02  0.33102997899E+02  0.00000000000E+00 0.  1.
         11    1    1    2    0    0  0.18684158411E+02  0.11252447326E+03 -0.15292449073E+02  0.11508568051E+03  0.00000000000E+00 0. -1.
</event>
<event>
 7    1  0.2666594E-009  0.2615947E+03  0.7561462E-02  0.1106189E+00
          1   -1    0    0  501    0  0.00000000000E+00  0.00000000000E+00  0.74368804519E+03  0.74368804519E+03  0.00000000000E+00 0. -1.
         -1   -1    0    0    0  501 -0.00000000000E+00 -0.00000000000E+00 -0.10401271600E+03  0.10401271600E+03  0.00000000000E+00 0.  1.
         25    2    1    2    0    0  0.24123702162E+03 -0.83271980596E+02  0.30485131024E+03  0.41678456536E+03  0.12508208990E+03 0.  0.
          5    1    3    3  502    0  0.19210632278E+03 -0.33674681418E+02  0.14741969605E+03  0.24451761205E+03  0.41800000000E+01 0.  1.
         -5    1    3    3    0  502  0.49130698842E+02 -0.49597299178E+02  0.15743161419E+03  0.17226695331E+03  0.41800000000E+01 0.  1.
        -11    1    1    2    0    0 -0.11311945864E+03  0.18535261092E+02  0.84687726263E+02  0.14251869634E+03  0.00000000000E+00 0. -1.
         11    1    1    2    0    0 -0.12811756298E+03  0.64736719504E+02  0.25013629268E+03  0.28839749949E+03  0.00000000000E+00 0.  1.
</event>
<event>
 7    1  0.2666594E-009  0.1229732E+03  0.7561462E-02  0.1238271E+00
         -3   -1    0    0    0  501 -0.00000000000E+00  0.00000000000E+00  0.18001876409E+03  0.18001876409E+03  0.00000000000E+00 0.  1.
          3   -1    0    0  501    0  0.00000000000E+00 -0.00000000000E+00 -0.12352863251E+03  0.12352863251E+03  0.00000000000E+00 0. -1.
         25    2    1    2    0    0 -0.51157590492E+02  0.78628262955E+02 -0.99042975519E+01  0.15667015120E+03  0.12509171981E+03 0.  0.
          5    1    3    3  502    0  0.62728429054E+01  0.57560127511E+02  0.45711822840E+02  0.73888835317E+02  0.41800000000E+01 0.  1.
         -5    1    3    3    0  502 -0.57430433397E+02  0.21068135444E+02 -0.55616120392E+02  0.82781315879E+02  0.41800000000E+01 0.  1.
        -11    1    1    2    0    0  0.16424958852E+02 -0.88864417417E+02  0.63707454071E+02  0.11056809513E+03  0.00000000000E+00 0.  1.
         11    1    1    2    0    0  0.34732631639E+02  0.10236154462E+02  0.26869750679E+01  0.36309150276E+02  0.00000000000E+00 0. -1.
</event>
<event>
 7    1  0.2666594E-009  0.1115246E+03  0.7561462E-02  0.1257772E+00
         -2   -1    0    0    0  501 -0.00000000000E+00  0.00000000000E+00  0.13225684342E+04  0.13225684342E+04  0.00000000000E+00 0.  1.
          2   -1    0    0  501    0  0.00000000000E+00 -0.00000000000E+00 -0.15658551582E+02  0.15658551582E+02  0.00000000000E+00 0. -1.
         25    2    1    2    0    0 -0.68975141753E+02  0.60206339961E+02  0.82839215392E+03  0.84277127518E+03  0.12508991978E+03 0.  0.
          5    1    3    3  502    0 -0.38284263260E+02  0.47914331046E+02  0.13232600436E+03  0.14590788794E+03  0.41800000000E+01 0.  1.
         -5    1    3    3    0  502 -0.30690878493E+02  0.12292008915E+02  0.69606614956E+03  0.69686338724E+03  0.41800000000E+01 0.  1.
        -11    1    1    2    0    0 -0.10573456450E+02 -0.46306259287E+02  0.16441755479E+03  0.17114087751E+03  0.00000000000E+00 0. -1.
         11    1    1    2    0    0  0.79548598204E+02 -0.13900080675E+02  0.31410017386E+03  0.32431483305E+03  0.00000000000E+00 0.  1.
</event>
<event>
 7    1  0.2666594E-009  0.1012933E+03  0.7561462E-02  0.1277599E+00
         -1   -1    0    0    0  501 -0.00000000000E+00  0.00000000000E+00  0.17231997209E+02  0.17231997209E+02  0.00000000000E+00 0.  1.
          1   -1    0    0  501    0  0.00000000000E+00 -0.00000000000E+00 -0.63334303005E+03  0.63334303005E+03  0.00000000000E+00 0. -1.
         25    2    1    2    0    0  0.75002788436E+01  0.16775614481E+01 -0.41759027041E+03  0.43599134580E+03  0.12509097198E+03 0.  0.
          5    1    3    3  502    0  0.51090273799E+02 -0.39637132577E+02 -0.23211456682E+03  0.24098954933E+03  0.41800000000E+01 0.  1.
         -5    1    3    3    0  502 -0.43589994955E+02  0.41314694025E+02 -0.18547570359E+03  0.19500179647E+03  0.41800000000E+01 0.  1.
        -11    1    1    2    0    0 -0.14175152390E+02 -0.38050318498E+02 -0.13613054737E+03  0.14205733916E+03  0.00000000000E+00 0. -1.
         11    1    1    2    0    0  0.66748735459E+01  0.36372757049E+02 -0.62390215061E+02  0.72526342301E+02  0.00000000000E+00 0.  1.
</event>
<event>
 7    1  0.2666594E-009  0.1311579E+03  0.7561462E-02  0.1225748E+00
         -1   -1    0    0    0  501 -0.00000000000E+00  0.00000000000E+00  0.14118328829E+03  0.14118328829E+03  0.00000000000E+00 0.  1.
          1   -1    0    0  501    0  0.00000000000E+00 -0.00000000000E+00 -0.19489666137E+03  0.19489666137E+03  0.00000000000E+00 0. -1.
         25    2    1    2    0    0  0.10828972429E+03 -0.54539803570E+02 -0.61165383055E+02  0.18462890357E+03  0.12508146701E+03 0.  0.
          5    1    3    3  502    0  0.23729100125E+02 -0.10821114605E+01  0.37156161196E+02  0.44297786319E+02  0.41800000000E+01 0.  1.
         -5    1    3    3    0  502  0.84560624163E+02 -0.53457692110E+02 -0.98321544252E+02  0.14033111725E+03  0.41800000000E+01 0.  1.
        -11    1    1    2    0    0 -0.27673138112E+01  0.29482507262E+02  0.28354838128E+02  0.40998452477E+02  0.00000000000E+00 0.  1.
         11    1    1    2    0    0 -0.10552241048E+03  0.25057296308E+02 -0.20902828146E+02  0.11045259361E+03  0.00000000000E+00 0. -1.
</event>
<event>
 7    1  0.2666594E-009  0.1129541E+03  0.7561462E-02  0.1255195E+00
         -1   -1    0    0    0  501 -0.00000000000E+00  0.00000000000E+00  0.47862016294E+03  0.47862016294E+03  0.00000000000E+00 0.  1.
          1   -1    0    0  501    0  0.00000000000E+00 -0.00000000000E+00 -0.45154151936E+02  0.45154151936E+02  0.00000000000E+00 0. -1.
         25    2    1    2    0    0  0.70562491831E+02 -0.65350586560E+02  0.30143958889E+03  0.34023979226E+03  0.12509007185E+03 0.  0.
          5    1    3    3  502    0  0.37576555500E+02 -0.42230295124E+01  0.25205843493E+03  0.25491323724E+03  0.41800000000E+01 0.  1.
         -5    1    3    3    0  502  0.32985936331E+02 -0.61127557048E+02  0.49381153958E+02  0.85326555025E+02  0.41800000000E+01 0.  1.
        -11    1    1    2    0    0 -0.47233503711E+02 -0.17225999655E+01  0.20955574844E+02  0.51702101896E+02  0.00000000000E+00 0. -1.
         11    1    1    2    0    0 -0.23328988120E+02  0.67073186526E+02  0.11107084727E+03  0.13183242071E+03  0.00000000000E+00 0.  1.
</event>
<event>
 7    1  0.2666594E-009  0.1143457E+03  0.7561462E-02  0.1252727E+00
         -2   -1    0    0    0  501 -0.00000000000E+00  0.00000000000E+00  0.42954766188E+02  0.42954766188E+02  0.00000000000E+00 0. -1.
          2   -1    0    0  501    0  0.00000000000E+00 -0.00000000000E+00 -0.35575799241E+03  0.35575799241E+03  0.00000000000E+00 0.  1.
         25    2    1    2    0    0 -0.22529537644E+02 -0.35681201870E+02 -0.24973446586E+03  0.28248166511E+03  0.12509140438E+03 0.  0.
          5    1    3    3  502    0 -0.17421358751E+02  0.46005720071E+02 -0.80204215267E+02  0.94181837774E+02  0.41800000000E+01 0. -1.
         -5    1    3    3    0  502 -0.51081788925E+01 -0.81686921941E+02 -0.16953025059E+03  0.18829982733E+03  0.41800000000E+01 0. -1.
        -11    1    1    2    0    0 -0.33010634688E+02  0.35462385085E+01 -0.17504108045E+02  0.37532274226E+02  0.00000000000E+00 0. -1.
         11    1    1    2    0    0  0.55540172332E+02  0.32134963361E+02 -0.45564652316E+02  0.78698819264E+02  0.00000000000E+00 0.  1.
</event>
<event>
 7    1  0.2666594E-009  0.1280372E+03  0.7561462E-02  0.1230398E+00
          2   -1    0    0  501    0  0.00000000000E+00  0.00000000000E+00  0.30548881316E+03  0.30548881316E+03  0.00000000000E+00 0.  1.
         -2   -1    0    0    0  501 -0.00000000000E+00 -0.00000000000E+00 -0.72154484451E+02  0.72154484451E+02  0.00000000000E+00 0. -1.
         25    2    1    2    0    0 -0.69696829375E+02  0.71056252940E+02  0.14564990929E+03  0.21625925620E+03  0.12509009037E+03 0.  0.
          5    1    3    3  502    0 -0.28661594535E+02  0.91773192638E+02  0.13981548047E+03  0.16973404746E+03  0.41800000000E+01 0. -1.
         -5    1    3    3    0  502 -0.41035234840E+02 -0.20716939698E+02  0.58344288241E+01  0.46525208742E+02  0.41800000000E+01 0. -1.
        -11    1    1    2    0    0 -0.22193795115E+01 -0.31549949280E+02 -0.10594330538E+02  0.33355131308E+02  0.00000000000E+00 0. -1.
         11    1    1    2    0    0  0.71916208886E+02 -0.39506303660E+02  0.98278749955E+02  0.12802891010E+03  0.00000000000E+00 0.  1.
</event>
<event>
 7    1  0.2666594E-009  0.1160265E+03  0.7561462E-02  0.1249800E+00
         -1   -1    0    0    0  501 -0.00000000000E+00  0.00000000000E+00  0.19754769680E+03  0.19754769680E+03  0.00000000000E+00 0.  1.
          1   -1    0    0  501    0  0.00000000000E+00 -0.00000000000E+00 -0.68569117068E+02  0.68569117068E+02  0.00000000000E+00 0. -1.
         25    2    1    2    0    0 -0.40603105660E+02 -0.61843472404E+01  0.69606680718E+02  0.14892722831E+03  0.12508945196E+03 0.  0.
          5    1    3    3  502    0 -0.67750605942E+02  0.39129408049E+02  0.46589238177E+02  0.91155277926E+02  0.41800000000E+01 0. -1.
         -5    1    3    3    0  502  0.27147500282E+02 -0.45313755290E+02  0.23017442541E+02  0.57771950384E+02  0.41800000000E+01 0. -1.
        -11    1    1    2    0    0  0.45733730919E+02 -0.36010051718E+02  0.29666056374E+02  0.65332785562E+02  0.00000000000E+00 0. -1.
         11    1    1    2    0    0 -0.51306252589E+01  0.42194398958E+02  0.29705842641E+02  0.51856799998E+02  0.00000000000E+00 0.  1.
</event>
<event>
 7    1  0.2666594E-009  0.2056074E+03  0.7561462E-02  0.1145092E+00
         -1   -1    0    0    0  501 -0.00000000000E+00  0.00000000000E+00  0.11376122122E+03  0.11376122122E+03  0.00000000000E+00 0.  1.
          1   -1    0    0  501    0  0.00000000000E+00 -0.00000000000E+00 -0.38297158989E+03  0.38297158989E+03  0.00000000000E+00 0. -1.
         25    2    1    2    0    0 -0.60527467210E+02 -0.16732377051E+03 -0.13377830460E+03  0.25535193860E+03  0.12508860580E+03 0.  0.
          5    1    3    3  502    0  0.35105321786E+02 -0.33536884969E+02 -0.10674248185E+02  0.49885050320E+02  0.41800000000E+01 0.  1.
         -5    1    3    3    0  502 -0.95632788995E+02 -0.13378688555E+03 -0.12310405642E+03  0.20546688828E+03  0.41800000000E+01 0.  1.
        -11    1    1    2    0    0  0.62926160036E+02  0.49318349002E+02 -0.70915311343E+02  0.10686899713E+03  0.00000000000E+00 0.  1.
         11    1    1    2    0    0 -0.23986928262E+01  0.11800542151E+03 -0.64516752731E+02  0.13451187537E+03  0.00000000000E+00 0. -1.
</event>
<event>
 7    1  0.2666594E-009  0.1066890E+03  0.7561462E-02  0.1266827E+00
         -2   -1    0    0    0  501 -0.00000000000E+00  0.00000000000E+00  0.99753049672E+01  0.99753049672E+01  0.00000000000E+00 0. -1.
          2   -1    0    0  501    0  0.00000000000E+00 -0.00000000000E+00 -0.14651502877E+04  0.14651502877E+04  0.00000000000E+00 0.  1.
         25    2    1    2    0    0 -0.27482478531E+02  0.94617171325E+01 -0.10952652848E+04  0.11027682538E+04  0.12508783619E+03 0.  0.
          5    1    3    3  502    0 -0.18261366844E+02 -0.57240036664E+02 -0.45845062592E+03  0.46238982269E+03  0.41800000000E+01 0.  1.
         -5    1    3    3    0  502 -0.92211116870E+01  0.66701753797E+02 -0.63681465889E+03  0.64037843111E+03  0.41800000000E+01 0.  1.
        -11    1    1    2    0    0 -0.45139248118E+01  0.32558077359E+02 -0.65910576801E+02  0.73651938554E+02  0.00000000000E+00 0.  1.
         11    1    1    2    0    0  0.31996403342E+02 -0.42019794491E+02 -0.29399912114E+03  0.29870540033E+03  0.00000000000E+00 0. -1.
</event>
<event>
 7    1  0.2666594E-009  0.1243469E+03  0.7561462E-02  0.1236094E+00
          1   -1    0    0  501    0  0.00000000000E+00  0.00000000000E+00  0.85728561037E+03  0.85728561037E+03  0.00000000000E+00 0. -1.
         -1   -1    0    0    0  501 -0.00000000000E+00 -0.00000000000E+00 -0.27778911893E+02  0.27778911893E+02  0.00000000000E+00 0.  1.
         25    2    1    2    0    0  0.77520652702E+02  0.77137137159E+02  0.42201690617E+03  0.45354751318E+03  0.12508992003E+03 0.  0.
          5    1    3    3  502    0  0.29021244984E+02  0.22421032981E+02  0.14751001011E+02  0.39749211454E+02  0.41800000000E+01 0.  1.
         -5    1    3    3    0  502  0.48499407718E+02  0.54716104178E+02  0.40726590516E+03  0.41379830173E+03  0.41800000000E+01 0.  1.
        -11    1    1    2    0    0  0.18109495484E+02 -0.20706464994E+02  0.12492727496E+03  0.12792003576E+03  0.00000000000E+00 0. -1.
         11    1    1    2    0    0 -0.95630148186E+02 -0.56430672165E+02  0.28256251734E+03  0.30359697332E+03  0.00000000000E+00 0.  1.
</event>
<event>
 7    1  0.2666594E-009  0.2987869E+03  0.7561462E-02  0.1085849E+00
          1   -1    0    0  501    0  0.00000000000E+00  0.00000000000E+00  0.92655981663E+03  0.92655981663E+03  0.00000000000E+00 0. -1.
         -1   -1    0    0    0  501 -0.00000000000E+00 -0.00000000000E+00 -0.11722853196E+03  0.11722853196E+03  0.00000000000E+00 0.  1.
         25    2    1    2    0    0 -0.91601697117E+02  0.27704986749E+03  0.24090040809E+03  0.39853187275E+03  0.12508855657E+03 0.  0.
          5    1    3    3  502    0  0.79826084270E+01  0.74934491680E+02  0.10425917253E+02  0.76191024610E+02  0.41800000000E+01 0.  1.
         -5    1    3    3    0  502 -0.99584305544E+02  0.20211537581E+03  0.23047449084E+03  0.32234084814E+03  0.41800000000E+01 0.  1.
        -11    1    1    2    0    0  0.91005100975E+02 -0.20044305837E+03  0.34688300791E+03  0.41083715658E+03  0.00000000000E+00 0. -1.
         11    1    1    2    0    0  0.59659614182E+00 -0.76606809125E+02  0.22154786867E+03  0.23441931927E+03  0.00000000000E+00 0.  1.
</event>
<event>
 7    1  0.2835985E-009  0.8163149E+02  0.7561462E-02  0.1324484E+00
          1   -1    0    0  501    0  0.00000000000E+00  0.00000000000E+00  0.58019938319E+03  0.58019938319E+03  0.00000000000E+00 0. -1.
         -1   -1    0    0    0  501 -0.00000000000E+00 -0.00000000000E+00 -0.24416595811E+02  0.24416595811E+02  0.00000000000E+00 0.  1.
         25    2    1    2    0    0  0.42750618527E+02 -0.20473261274E+02  0.34756589870E+03  0.37241940677E+03  0.12508953110E+03 0.  0.
          5    1    3    3  502    0  0.40187948876E+02 -0.41220140577E+02  0.57165412831E+02  0.81237479331E+02  0.41800000000E+01 0. -1.
         -5    1    3    3    0  502  0.25626696508E+01  0.20746879302E+02  0.29040048587E+03  0.29118192744E+03  0.41800000000E+01 0. -1.
        -11    1    1    2    0    0 -0.50917017180E+02  0.38895274568E+02  0.20071609036E+03  0.21069488354E+03  0.00000000000E+00 0. -1.
         11    1    1    2    0    0  0.81663986533E+01 -0.18422013294E+02  0.75007983193E+01  0.21501688682E+02  0.00000000000E+00 0.  1.
</event>
<event>
 7    1  0.2666594E-009  0.8983441E+02  0.7561462E-02  0.1303253E+00
          1   -1    0    0  501    0  0.00000000000E+00  0.00000000000E+00  0.11331979773E+03  0.11331979773E+03  0.00000000000E+00 0. -1.
         -1   -1    0    0    0  501 -0.00000000000E+00 -0.00000000000E+00 -0.10625487735E+03  0.10625487735E+03  0.00000000000E+00 0.  1.
         25    2    1    2    0    0 -0.90618542336E+01 -0.15688720350E+02  0.18409556463E+02  0.12773167521E+03  0.12509282927E+03 0.  0.
          5    1    3    3  502    0 -0.36592825802E+02  0.43926423464E+02  0.23017257611E+02  0.61772422054E+02  0.41800000000E+01 0. -1.
         -5    1    3    3    0  502  0.27530971568E+02 -0.59615143814E+02 -0.46077011480E+01  0.65959253159E+02  0.41800000000E+01 0. -1.
        -11    1    1    2    0    0 -0.14093013372E+02  0.27240580858E+02 -0.41821677241E+02  0.51862461941E+02  0.00000000000E+00 0.  1.
         11    1    1    2    0    0  0.23154867606E+02 -0.11551860508E+02  0.30477041158E+02  0.39980537925E+02  0.00000000000E+00 0. -1.
</event>
<event>
 7    1  0.2666594E-009  0.1801786E+03  0.7561462E-02  0.1167630E+00
         -1   -1    0    0    0  501 -0.00000000000E+00  0.00000000000E+00  0.72564231752E+03  0.72564231752E+03  0.00000000000E+00 0.  1.
          1   -1    0    0  501    0  0.00000000000E+00 -0.00000000000E+00 -0.46551192604E+02  0.46551192604E+02  0.00000000000E+00 0. -1.
         25    2    1    2    0    0  0.14648724450E+03  0.39191466588E+02  0.32015854555E+03  0.37568677067E+03  0.12507826155E+03 0.  0.
          5    1    3    3  502    0  0.12856403917E+03  0.77019375204E+02  0.21219476319E+03  0.25981683211E+03  0.41800000000E+01 0.  1.
         -5    1    3    3    0  502  0.17923205332E+02 -0.37827908617E+02  0.10796378236E+03  0.11586993856E+03  0.41800000000E+01 0.  1.
        -11    1    1    2    0    0 -0.16959614369E-01 -0.20733994967E+02  0.39554039158E+02  0.44658939179E+02  0.00000000000E+00 0. -1.
         11    1    1    2    0    0 -0.14647028488E+03 -0.18457471621E+02  0.31937854020E+03  0.35184780027E+03  0.00000000000E+00 0.  1.
</event>
<event>
 7    1  0.2666594E-009  0.1071495E+03  0.7561462E-02  0.1265941E+00
         -1   -1    0    0    0  501 -0.00000000000E+00  0.00000000000E+00  0.87508533866E+03  0.87508533866E+03  0.00000000000E+00 0.  1.
          1   -1    0    0  501    0  0.00000000000E+00 -0.00000000000E+00 -0.14814670675E+02  0.14814670675E+02  0.00000000000E+00 0. -1.
         25    2    1    2    0    0  0.95940962009E+01  0.11683931430E+02  0.62279199040E+03  0.63541012584E+03  0.12509038245E+03 0.  0.
          5    1    3    3  502    0  0.28700425901E+02  0.62633245428E+02  0.40777631218E+03  0.41357663263E+03  0.41800000000E+01 0. -1.
         -5    1    3    3    0  502 -0.19106329700E+02 -0.50949313999E+02  0.21501567821E+03  0.22183349321E+03  0.41800000000E+01 0. -1.
        -11    1    1    2    0    0 -0.23237517231E+02  0.35029994552E+02  0.93672468097E+02  0.10267236242E+03  0.00000000000E+00 0. -1.
         11    1    1    2    0    0  0.13643421030E+02 -0.46713925981E+02  0.14380620949E+03  0.15181752107E+03  0.00000000000E+00 0.  1.
</event>
<event>
 7    1  0.2666594E-009  0.1273158E+03  0.7561462E-02  0.1231494E+00
         -2   -1    0    0    0  501 -0.00000000000E+00  0.00000000000E+00  0.63097275442E+02  0.63097275442E+02  0.00000000000E+00 0.  1.
          2   -1    0    0  501    0  0.00000000000E+00 -0.00000000000E+00 -0.35199386880E+03  0.35199386880E+03  0.00000000000E+00 0. -1.
         25    2    1    2    0    0 -0.79922666385E+02  0.57168058404E+02 -0.11828960161E+03  0.19823118759E+03  0.12508938557E+03 0.  0.
          5    1    3    3  502    0 -0.51100259348E+02 -0.69831823660E+01  0.92134963218E+01  0.52558179724E+02  0.41800000000E+01 0. -1.
         -5    1    3    3    0  502 -0.28822407036E+02  0.64151240770E+02 -0.12750309793E+03  0.14567300787E+03  0.41800000000E+01 0. -1.
        -11    1    1    2    0    0  0.59434428607E+02  0.11707287145E+02 -0.93978154857E+02  0.11180968414E+03  0.00000000000E+00 0. -1.
         11    1    1    2    0    0  0.20488237777E+02 -0.68875345549E+02 -0.76628836891E+02  0.10505027251E+03  0.00000000000E+00 0.  1.
</event>
<event>
 7    1  0.2937268E-009  0.1380334E+03  0.7561462E-02  0.1216000E+00
          1   -1    0    0  501    0  0.00000000000E+00  0.00000000000E+00  0.12686416989E+04  0.12686416989E+04  0.00000000000E+00 0. -1.
         -1   -1    0    0    0  501 -0.00000000000E+00 -0.00000000000E+00 -0.16049608814E+02  0.16049608814E+02  0.00000000000E+00 0.  1.
         25    2    1    2    0    0  0.35730075466E+01  0.88883709727E+02  0.79273855229E+03  0.80746219858E+03  0.12509080547E+03 0.  0.
          5    1    3    3  502    0 -0.30893183043E+02 -0.19439560377E+02  0.27016208246E+03  0.27264869056E+03  0.41800000000E+01 0.  1.
         -5    1    3    3    0  502  0.34466190589E+02  0.10832327010E+03  0.52257646983E+03  0.53481350802E+03  0.41800000000E+01 0.  1.
        -11    1    1    2    0    0  0.38839008232E+02 -0.17624167983E+02  0.11832257868E+03  0.12577484838E+03  0.00000000000E+00 0.  1.
         11    1    1    2    0    0 -0.42412015779E+02 -0.71259541744E+02  0.34153095910E+03  0.35145426075E+03  0.00000000000E+00 0. -1.
</event>
<event>
 7    1  0.2666594E-009  0.8315454E+02  0.7561462E-02  0.1320330E+00
          4   -1    0    0  501    0  0.00000000000E+00  0.00000000000E+00  0.55316279932E+02  0.55316279932E+02  0.00000000000E+00 0. -1.
         -4   -1    0    0    0  501 -0.00000000000E+00 -0.00000000000E+00 -0.24111944274E+03  0.24111944274E+03  0.00000000000E+00 0.  1.
         25    2    1    2    0    0 -0.76010658298E+01 -0.27143038595E+02 -0.76693232629E+02  0.14941306717E+03  0.12509153434E+03 0.  0.
          5    1    3    3  502    0 -0.47150568744E+02  0.24159952115E+01 -0.86747629917E+02  0.98851590082E+02  0.41800000000E+01 0. -1.
         -5    1    3    3    0  502  0.39549502914E+02 -0.29559033807E+02  0.10054397287E+02  0.50561477086E+02  0.41800000000E+01 0. -1.
        -11    1    1    2    0    0 -0.26206622638E+02  0.23776897250E+02 -0.10731725868E+03  0.11300053948E+03  0.00000000000E+00 0.  1.
         11    1    1    2    0    0  0.33807688468E+02  0.33661413449E+01 -0.17926714939E+01  0.34022116015E+02  0.00000000000E+00 0. -1.
</event>
<event>
 7    1  0.2666594E-009  0.1070410E+03  0.7561462E-02  0.1266150E+00
         -4   -1    0    0    0  501 -0.00000000000E+00  0.00000000000E+00  0.11753649850E+03  0.11753649850E+03  0.00000000000E+00 0.  1.
          4   -1    0    0  501    0  0.00000000000E+00 -0.00000000000E+00 -0.15052437530E+03  0.15052437530E+03  0.00000000000E+00 0. -1.
         25    2    1    2    0    0 -0.31711536086E+02 -0.67908475663E+02 -0.21465391613E+02  0.14739528900E+03  0.12508967021E+03 0.  0.
          5    1    3    3  502    0 -0.48857738675E+02 -0.75255856321E+02 -0.57467477954E+02  0.10663257458E+03  0.41800000000E+01 0.  1.
         -5    1    3    3    0  502  0.17146202590E+02  0.73473806581E+01  0.36002086341E+02  0.40762714418E+02  0.41800000000E+01 0.  1.
        -11    1    1    2    0    0  0.25658755026E+02 -0.96021861885E+01  0.22835446206E+02  0.35665547697E+02  0.00000000000E+00 0.  1.
         11    1    1    2    0    0  0.60527810595E+01  0.77510661851E+02 -0.34357931385E+02  0.85000037107E+02  0.00000000000E+00 0. -1.
</event>
<event>
 7    1  0.2666594E-009  0.2641030E+03  0.7561462E-02  0.1104703E+00
          2   -1    0    0  501    0  0.00000000000E+00  0.00000000000E+00  0.24880015798E+03  0.24880015798E+03  0.00000000000E+00 0. -1.
         -2   -1    0    0    0  501 -0.00000000000E+00 -0.00000000000E+00 -0.30022946185E+03  0.30022946185E+03  0.00000000000E+00 0.  1.
         25    2    1    2    0    0 -0.13627657166E+02 -0.25274471628E+03 -0.40453466591E+02  0.28521885333E+03  0.12509079377E+03 0.  0.
          5    1    3    3  502    0  0.13251309838E+02 -0.33218384291E+01  0.22396311932E+02  0.26564995975E+02  0.41800000000E+01 0.  1.
         -5    1    3    3    0  502 -0.26878967004E+02 -0.24942287785E+03 -0.62849778523E+02  0.25865385736E+03  0.41800000000E+01 0.  1.
        -11    1    1    2    0    0  0.39305259836E+02  0.89288052643E+02  0.42610068911E+01  0.97649454557E+02  0.00000000000E+00 0.  1.
         11    1    1    2    0    0 -0.25677602670E+02  0.16345666364E+03 -0.15236844165E+02  0.16616131195E+03  0.00000000000E+00 0. -1.
</event>
<event>
 7    1  0.2666594E-009  0.9829878E+02  0.7561462E-02  0.1283915E+00
          1   -1    0    0  501    0  0.00000000000E+00  0.00000000000E+00  0.16792266042E+03  0.16792266042E+03  0.00000000000E+00 0. -1.
         -1   -1    0    0    0  501 -0.00000000000E+00 -0.00000000000E+00 -0.68116699058E+02  0.68116699058E+02  0.00000000000E+00 0.  1.
         25    2    1    2    0    0  0.93293669433E+01  0.55352208679E+01  0.67256645161E+02  0.14243586932E+03  0.12508734865E+03 0.  0.
          5    1    3    3  502    0  0.83642711200E+01  0.60392147649E+02  0.81023226286E+01  0.61646512967E+02  0.41800000000E+01 0.  1.
         -5    1    3    3    0  502  0.96509582329E+00 -0.54856926781E+02  0.59154322532E+02  0.80789356354E+02  0.41800000000E+01 0.  1.
        -11    1    1    2    0    0  0.32692570935E+01 -0.41873585388E+02  0.35549957690E+02  0.55026218178E+02  0.00000000000E+00 0. -1.
         11    1    1    2    0    0 -0.12598624037E+02  0.36338364520E+02 -0.30006414938E+01  0.38577271974E+02  0.00000000000E+00 0.  1.
</event>
<event>
 7    1  0.2666594E-009  0.1507145E+03  0.7561462E-02  0.1199598E+00
          1   -1    0    0  501    0  0.00000000000E+00  0.00000000000E+00  0.40924574438E+03  0.40924574438E+03  0.00000000000E+00 0.  1.
         -1   -1    0    0    0  501 -0.00000000000E+00 -0.00000000000E+00 -0.60514514727E+02  0.60514514727E+02  0.00000000000E+00 0. -1.
         25    2    1    2    0    0 -0.89963191643E+02 -0.68442199306E+02  0.17136850060E+03  0.24040062453E+03  0.12509031450E+03 0.  0.
          5    1    3    3  502    0 -0.83051912836E+02 -0.99956228304E+02  0.10743989058E+03  0.16867030056E+03  0.41800000000E+01 0. -1.
         -5    1    3    3    0  502 -0.69112788079E+01  0.31514028998E+02  0.63928610019E+02  0.71730323974E+02  0.41800000000E+01 0. -1.
        -11    1    1    2    0    0  0.56557246968E+02 -0.63946713238E+01  0.40573564013E+02  0.69898698863E+02  0.00000000000E+00 0.  1.
         11    1    1    2    0    0  0.33405944676E+02  0.74836870630E+02  0.13678916504E+03  0.15946093571E+03  0.00000000000E+00 0. -1.
</event>
<event>
 7    1  0.2666594E-009  0.9827582E+02  0.7561462E-02  0.1283964E+00
          1   -1    0    0  501    0  0.00000000000E+00  0.00000000000E+00  0.29064437342E+03  0.29064437342E+03  0.00000000000E+00 0. -1.
         -1   -1    0    0    0  501 -0.00000000000E+00 -0.00000000000E+00 -0.96890038020E+02  0.96890038020E+02  0.00000000000E+00 0.  1.
         25    2    1    2    0    0  0.51386589719E+02 -0.40804840037E+02  0.22899437846E+03  0.26905629039E+03  0.12508895017E+03 0.  0.
          5    1    3    3  502    0  0.65906930577E-01 -0.32614218744E+02  0.21153109161E+03  0.21407140567E+03  0.41800000000E+01 0.  1.
         -5    1    3    3    0  502  0.51320682789E+02 -0.81906212929E+01  0.17463286850E+02  0.54984884711E+02  0.41800000000E+01 0.  1.
        -11    1    1    2    0    0 -0.31741921290E+02  0.69702619227E+02 -0.33199628587E+02  0.83475864971E+02  0.00000000000E+00 0. -1.
         11    1    1    2    0    0 -0.19644668430E+02 -0.28897779191E+02 -0.20404144762E+01  0.35002256086E+02  0.00000000000E+00 0.  1.
</event>
<event>
 7    1  0.2666594E-009  0.1725993E+03  0.7561462E-02  0.1175164E+00
         -1   -1    0    0    0  501 -0.00000000000E+00  0.00000000000E+00  0.55472868778E+02  0.55472868778E+02  0.00000000000E+00 0.  1.
          1   -1    0    0  501    0  0.00000000000E+00 -0.00000000000E+00 -0.76252102924E+03  0.76252102924E+03  0.00000000000E+00 0. -1.
         25    2    1    2    0    0 -0.15295683503E+03 -0.41766255827E+02 -0.50548658225E+03  0.54433889696E+03  0.12509171195E+03 0.  0.
          5    1    3    3  502    0 -0.74353099681E+02 -0.53994396536E+02 -0.12269720019E+03  0.15334879727E+03  0.41800000000E+01 0. -1.
         -5    1    3    3    0  502 -0.78603735353E+02  0.12228140708E+02 -0.38278938206E+03  0.39099009969E+03  0.41800000000E+01 0. -1.
        -11    1    1    2    0    0  0.69502672834E+02  0.55544261633E+02 -0.15056434859E+03  0.17488684799E+03  0.00000000000E+00 0. -1.
         11    1    1    2    0    0  0.83454162201E+02 -0.13778005805E+02 -0.50997229617E+02  0.98768153072E+02  0.00000000000E+00 0.  1.
</event>
<event>
 7    1  0.2666594E-009  0.1381167E+03  0.7561462E-02  0.1215886E+00
          1   -1    0    0  501    0  0.00000000000E+00  0.00000000000E+00  0.22253874359E+03  0.22253874359E+03  0.00000000000E+00 0. -1.
         -1   -1    0    0    0  501 -0.00000000000E+00 -0.00000000000E+00 -0.10492977025E+03  0.10492977025E+03  0.00000000000E+00 0.  1.
         25    2    1    2    0    0  0.74825266871E+02  0.78222044324E+02  0.62809424623E+02  0.17694601260E+03  0.12508940312E+03 0.  0.
          5    1    3    3  502    0  0.70254951116E+01  0.71025002973E+02  0.79202513834E+02  0.10669779392E+03  0.41800000000E+01 0. -1.
         -5    1    3    3    0  502  0.67799771759E+02  0.71970413514E+01 -0.16393089211E+02  0.70248218687E+02  0.41800000000E+01 0. -1.
        -11    1    1    2    0    0 -0.20636010398E+02 -0.79592590657E+02  0.49697445748E+02  0.96076331771E+02  0.00000000000E+00 0. -1.
         11    1    1    2    0    0 -0.54189256473E+02  0.13705463331E+01  0.51021029736E+01  0.54446169462E+02  0.00000000000E+00 0.  1.
</event>
<event>
 7    1  0.2666594E-009  0.1304762E+03  0.7561462E-02  0.1226751E+00
         -3   -1    0    0    0  501 -0.00000000000E+00  0.00000000000E+00  0.80137058321E+02  0.80137058321E+02  0.00000000000E+00 0.  1.
          3   -1    0    0  501    0  0.00000000000E+00 -0.00000000000E+00 -0.23208618078E+03  0.23208618078E+03  0.00000000000E+00 0. -1.
         25    2    1    2    0    0  0.16931458301E+02  0.75374452962E+02 -0.55465379282E+02  0.15713727366E+03  0.12509089509E+03 0.  0.
          5    1    3    3  502    0  0.19409300301E+02 -0.31823425805E+02 -0.26697769553E+02  0.46040141911E+02  0.41800000000E+01 0.  1.
         -5    1    3    3    0  502 -0.24778419995E+01  0.10719787877E+03 -0.28767609730E+02  0.11109713175E+03  0.41800000000E+01 0.  1.
        -11    1    1    2    0    0  0.30766573668E+02 -0.57470963252E+02 -0.76122800164E+02  0.10022062850E+03  0.00000000000E+00 0. -1.
         11    1    1    2    0    0 -0.47698031969E+02 -0.17903489709E+02 -0.20360943017E+02  0.54865336945E+02  0.00000000000E+00 0.  1.
</event>
<event>
 7    1  0.2666594E-009  0.9970073E+02  0.7561462E-02  0.1280927E+00
          1   -1    0    0  501    0  0.00000000000E+00  0.00000000000E+00  0.56092342190E+02  0.56092342190E+02  0.00000000000E+00 0. -1.
         -1   -1    0    0    0  501 -0.00000000000E+00 -0.00000000000E+00 -0.21453786969E+03  0.21453786969E+03  0.00000000000E+00 0.  1.
         25    2    1    2    0    0 -0.14222912337E+02  0.12379037330E+02 -0.91397962845E+02  0.15606162283E+03  0.12508441433E+03 0.  0.
          5    1    3    3  502    0  0.46013217875E+02 -0.77418275741E+01 -0.27433749305E+01  0.46927077678E+02  0.41800000000E+01 0. -1.
         -5    1    3    3    0  502 -0.60236130212E+02  0.20120864904E+02 -0.88654587914E+02  0.10913454515E+03  0.41800000000E+01 0. -1.
        -11    1    1    2    0    0 -0.18222379880E+02 -0.41492197667E+02 -0.50727647298E+02  0.68021700920E+02  0.00000000000E+00 0.  1.
         11    1    1    2    0    0  0.32445292217E+02  0.29113160337E+02 -0.16319917356E+02  0.46546888127E+02  0.00000000000E+00 0. -1.
</event>
<event>
 7    1  0.2666594E-009  0.2002311E+03  0.7561462E-02  0.1149544E+00
         -2   -1    0    0    0  501 -0.00000000000E+00  0.00000000000E+00  0.74904523060E+02  0.74904523060E+02  0.00000000000E+00 0.  1.
          2   -1    0    0  501    0  0.00000000000E+00 -0.00000000000E+00 -0.55295870543E+03  0.55295870543E+03  0.00000000000E+00 0. -1.
         25    2    1    2    0    0 -0.16576299724E+03 -0.39435127230E+02 -0.28535465466E+03  0.35511637355E+03  0.12509140384E+03 0.  0.
          5    1    3    3  502    0 -0.13868910075E+03 -0.78940713557E+02 -0.18870660844E+03  0.24717192274E+03  0.41800000000E+01 0.  1.
         -5    1    3    3    0  502 -0.27073896491E+02  0.39505586327E+02 -0.96648046224E+02  0.10794445081E+03  0.41800000000E+01 0.  1.
        -11    1    1    2    0    0  0.78678802207E+02 -0.27039221858E+02 -0.90370803923E+02  0.12283466790E+03  0.00000000000E+00 0.  1.
         11    1    1    2    0    0  0.87084195034E+02  0.66474349088E+02 -0.10232872378E+03  0.14991218704E+03  0.00000000000E+00 0. -1.
</event>
<event>
 7    1  0.2666594E-009  0.1454927E+03  0.7561462E-02  0.1206124E+00
         -1   -1    0    0    0  501 -0.00000000000E+00  0.00000000000E+00  0.11139044893E+03  0.11139044893E+03  0.00000000000E+00 0.  1.
          1   -1    0    0  501    0  0.00000000000E+00 -0.00000000000E+00 -0.23413962583E+03  0.23413962583E+03  0.00000000000E+00 0. -1.
         25    2    1    2    0    0 -0.99663744275E+02  0.59334174160E+02 -0.44154478771E+02  0.17621072261E+03  0.12508874698E+03 0.  0.
          5    1    3    3  502    0  0.52434366083E+01  0.52199139590E+02 -0.47544032624E+02  0.70923559129E+02  0.41800000000E+01 0. -1.
         -5    1    3    3    0  502 -0.10490718088E+03  0.71350345694E+01  0.33895538533E+01  0.10528716348E+03  0.41800000000E+01 0. -1.
        -11    1    1    2    0    0  0.76613344705E+02 -0.73417978251E+02 -0.24572695867E+02  0.10892025294E+03  0.00000000000E+00 0.  1.
         11    1    1    2    0    0  0.23050399570E+02  0.14083804091E+02 -0.54022002264E+02  0.60399099220E+02  0.00000000000E+00 0. -1.
</event>
<event>
 7    1  0.2666594E-009  0.1247554E+03  0.7561462E-02  0.1235452E+00
         -2   -1    0    0    0  501 -0.00000000000E+00  0.00000000000E+00  0.11900993181E+02  0.11900993181E+02  0.00000000000E+00 0.  1.
          2   -1    0    0  501    0  0.00000000000E+00 -0.00000000000E+00 -0.22218300667E+04  0.22218300667E+04  0.00000000000E+00 0. -1.
         25    2    1    2    0    0 -0.85895070165E+02  0.10412749532E+02 -0.17634094335E+04  0.17699564735E+04  0.12508676877E+03 0.  0.
          5    1    3    3  502    0 -0.91011323710E+02 -0.41057590866E+02 -0.11095165788E+04  0.11140077638E+04  0.41800000000E+01 0.  1.
         -5    1    3    3    0  502  0.51162535442E+01  0.51470340398E+02 -0.65389285467E+03  0.65594870972E+03  0.41800000000E+01 0.  1.
        -11    1    1    2    0    0  0.79989507581E+02  0.60293878512E+01 -0.43613526599E+03  0.44345083728E+03  0.00000000000E+00 0.  1.
         11    1    1    2    0    0  0.59055625849E+01 -0.16442137383E+02 -0.10384374032E+02  0.20323749044E+02  0.00000000000E+00 0. -1.
</event>
<event>
 7    1  0.2666594E-009  0.1808135E+03  0.7561462E-02  0.1167018E+00
         -1   -1    0    0    0  501 -0.00000000000E+00  0.00000000000E+00  0.31808288750E+02  0.31808288750E+02  0.00000000000E+00 0.  1.
          1   -1    0    0  501    0  0.00000000000E+00 -0.00000000000E+00 -0.12328476895E+04  0.12328476895E+04  0.00000000000E+00 0. -1.
         25    2    1    2    0    0  0.93337759599E+02 -0.13643885789E+03 -0.59063675422E+03  0.62595965246E+03  0.12508481828E+03 0.  0.
          5    1    3    3  502    0  0.93838473374E+01 -0.10389652653E+03 -0.20653382197E+03  0.23142220472E+03  0.41800000000E+01 0. -1.
         -5    1    3    3    0  502  0.83953912261E+02 -0.32542331360E+02 -0.38410293224E+03  0.39453744774E+03  0.41800000000E+01 0. -1.
        -11    1    1    2    0    0 -0.12116805084E+02  0.35599932007E+02 -0.44939028174E+02  0.58597682356E+02  0.00000000000E+00 0.  1.
         11    1    1    2    0    0 -0.81220954515E+02  0.10083892589E+03 -0.56546361832E+03  0.58009864340E+03  0.00000000000E+00 0. -1.
</event>
<event>
 7    1  0.2666594E-009  0.1018299E+03  0.7561462E-02  0.1276494E+00
          3   -1    0    0  501    0  0.00000000000E+00  0.00000000000E+00  0.22821534344E+03  0.22821534344E+03  0.00000000000E+00 0. -1.
         -3   -1    0    0    0  501 -0.00000000000E+00 -0.00000000000E+00 -0.64673779204E+02  0.64673779204E+02  0.00000000000E+00 0.  1.
         25    2    1    2    0    0 -0.20123343159E+02 -0.38513409521E+02  0.11570565894E+03  0.17585105938E+03  0.12509022312E+03 0.  0.
          5    1    3    3  502    0  0.42711837303E+02  0.19177955079E+02  0.39960665292E+02  0.61696208776E+02  0.41800000000E+01 0.  1.
         -5    1    3    3    0  502 -0.62835180462E+02 -0.57691364600E+02  0.75744993651E+02  0.11415485060E+03  0.41800000000E+01 0.  1.
        -11    1    1    2    0    0 -0.16710251824E+02  0.28567754962E+02 -0.20387212455E+02  0.38871423581E+02  0.00000000000E+00 0.  1.
         11    1    1    2    0    0  0.36833594983E+02  0.99456545591E+01  0.68223117749E+02  0.78166639684E+02  0.00000000000E+00 0. -1.
</event>
<event>
 7    1  0.2666594E-009  0.1126992E+03  0.7561462E-02  0.1255651E+00
         -1   -1    0    0    0  501 -0.00000000000E+00  0.00000000000E+00  0.74724571128E+02  0.74724571128E+02  0.00000000000E+00 0.  1.
          1   -1    0    0  501    0  0.00000000000E+00 -0.00000000000E+00 -0.24933771234E+03  0.24933771234E+03  0.00000000000E+00 0. -1.
         25    2    1    2    0    0  0.67828378270E+02 -0.30049678395E+02 -0.55183918240E+02  0.15555066327E+03  0.12508825660E+03 0.  0.
          5    1    3    3  502    0  0.22753973891E+02 -0.75284117030E+02 -0.15557020725E+02  0.80280351885E+02  0.41800000000E+01 0.  1.
         -5    1    3    3    0  502  0.45074404378E+02  0.45234438635E+02 -0.39626897515E+02  0.75270311381E+02  0.41800000000E+01 0.  1.
        -11    1    1    2    0    0 -0.33975193233E+02 -0.45030695604E+01 -0.11492860006E+03  0.11992987327E+03  0.00000000000E+00 0. -1.
         11    1    1    2    0    0 -0.33853185036E+02  0.34552747955E+02 -0.45006229099E+01  0.48581746932E+02  0.00000000000E+00 0.  1.
</event>
<event>
 7    1  0.2666594E-009  0.1666601E+03  0.7561462E-02  0.1181376E+00
         -2   -1    0    0    0  501 -0.00000000000E+00  0.00000000000E+00  0.16211449721E+03  0.16211449721E+03  0.00000000000E+00 0.  1.
          2   -1    0    0  501    0  0.00000000000E+00 -0.00000000000E+00 -0.30455675821E+03  0.30455675821E+03  0.00000000000E+00 0. -1.
         25    2    1    2    0    0  0.14249942154E+03 -0.12000474810E+02  0.63179547265E+02  0.20022180170E+03  0.12508804158E+03 0.  0.
          5    1    3    3  502    0  0.39963730468E+02 -0.55583085508E+02 -0.62640016545E+01  0.68871541759E+02  0.41800000000E+01 0. -1.
         -5    1    3    3    0  502  0.10253569108E+03  0.43582610698E+02  0.69443548919E+02  0.13135025994E+03  0.41800000000E+01 0. -1.
        -11    1    1    2    0    0 -0.83899979975E+02  0.34167074720E+02 -0.17422824668E+03  0.19637229330E+03  0.00000000000E+00 0. -1.
         11    1    1    2    0    0 -0.58599441569E+02 -0.22166599910E+02 -0.31393561576E+02  0.70077160418E+02  0.00000000000E+00 0.  1.
</event>
<event>
 7    1  0.2666594E-009  0.1070279E+03  0.7561462E-02  0.1266175E+00
          1   -1    0    0  501    0  0.00000000000E+00  0.00000000000E+00  0.37917868163E+03  0.37917868163E+03  0.00000000000E+00 0. -1.
         -1   -1    0    0    0  501 -0.00000000000E+00 -0.00000000000E+00 -0.49501351155E+02  0.49501351155E+02  0.00000000000E+00 0.  1.
         25    2    1    2    0    0 -0.22577064235E+02 -0.65133269495E+02  0.11532275342E+03  0.18357256565E+03  0.12508989879E+03 0.  0.
          5    1    3    3  502    0  0.85923190885E+01 -0.67308979978E+02  0.42538363307E+01  0.68116769276E+02  0.41800000000E+01 0. -1.
         -5    1    3    3    0  502 -0.31169383324E+02  0.21757104836E+01  0.11106891709E+03  0.11545579638E+03  0.41800000000E+01 0. -1.
        -11    1    1    2    0    0  0.24456919330E+02 -0.18642175382E+02  0.90388329186E+02  0.95476288465E+02  0.00000000000E+00 0. -1.
         11    1    1    2    0    0 -0.18798550945E+01  0.83775444876E+02  0.12396624786E+03  0.14963117866E+03  0.00000000000E+00 0.  1.
</event>
<event>
 7    1  0.2666594E-009  0.1171940E+03  0.7561462E-02  0.1247799E+00
          3   -1    0    0  501    0  0.00000000000E+00  0.00000000000E+00  0.42001087314E+03  0.42001087314E+03  0.00000000000E+00 0. -1.
         -3   -1    0    0    0  501 -0.00000000000E+00 -0.00000000000E+00 -0.39573465074E+02  0.39573465074E+02  0.00000000000E+00 0.  1.
         25    2    1    2    0    0  0.49031022171E+02  0.18095015213E+02  0.29432475820E+03  0.32404548658E+03  0.12508774270E+03 0.  0.
          5    1    3    3  502    0  0.58691260636E+02 -0.42247236396E+02  0.18591451411E+03  0.19952737159E+03  0.41800000000E+01 0. -1.
         -5    1    3    3    0  502 -0.96602384654E+01  0.60342251610E+02  0.10841024409E+03  0.12451811499E+03  0.41800000000E+01 0. -1.
        -11    1    1    2    0    0  0.22779190005E+02 -0.17765432192E+02  0.42928996180E+02  0.51743606283E+02  0.00000000000E+00 0. -1.
         11    1    1    2    0    0 -0.71810212175E+02 -0.32958302158E+00  0.43183653690E+02  0.83795245352E+02  0.00000000000E+00 0.  1.
</event>
<event>
 7    1  0.2666594E-009  0.1312223E+03  0.7561462E-02  0.1225653E+00
          1   -1    0    0  501    0  0.00000000000E+00  0.00000000000E+00  0.21497610869E+03  0.21497610869E+03  0.00000000000E+00 0. -1.
         -1   -1    0    0    0  501 -0.00000000000E+00 -0.00000000000E+00 -0.12219947632E+03  0.12219947632E+03  0.00000000000E+00 0.  1.
         25    2    1    2    0    0 -0.96582262445E+02  0.63068752877E+02  0.10566293136E+02  0.17048355285E+03  0.12508874543E+03 0.  0.
          5    1    3    3  502    0 -0.65653566232E+02  0.54980991674E+02  0.64745431474E+02  0.10743716071E+03  0.41800000000E+01 0.  1.
         -5    1    3    3    0  502 -0.30928696213E+02  0.80877612039E+01 -0.54179138338E+02  0.63046392139E+02  0.41800000000E+01 0.  1.
        -11    1    1    2    0    0  0.32491497683E+02  0.21050319240E+02  0.28557159519E+02  0.48107428965E+02  0.00000000000E+00 0.  1.
         11    1    1    2    0    0  0.64090764762E+02 -0.84119072117E+02  0.53653179711E+02  0.11858460319E+03  0.00000000000E+00 0. -1.
</event>
<event>
 7    1  0.2666594E-009  0.8181952E+02  0.7561462E-02  0.1323966E+00
         -1   -1    0    0    0  501 -0.00000000000E+00  0.00000000000E+00  0.62420874895E+02  0.62420874895E+02  0.00000000000E+00 0.  1.
          1   -1    0    0  501    0  0.00000000000E+00 -0.00000000000E+00 -0.44547776849E+03  0.44547776849E+03  0.00000000000E+00 0. -1.
         25    2    1    2    0    0  0.64348681872E+02  0.16430167443E+02 -0.36581771638E+03  0.39227636081E+03  0.12508972128E+03 0.  0.
          5    1    3    3  502    0  0.68954638880E+01  0.12294755544E+02  0.60875873724E+01  0.15913502322E+02  0.41800000000E+01 0.  1.
         -5    1    3    3    0  502  0.57453217983E+02  0.41354118989E+01 -0.37190530375E+03  0.37636285849E+03  0.41800000000E+01 0.  1.
        -11    1    1    2    0    0 -0.71581416299E+02 -0.28553081618E+02  0.16708483416E+02  0.78856521907E+02  0.00000000000E+00 0.  1.
         11    1    1    2    0    0  0.72327344278E+01  0.12122914174E+02 -0.33947660634E+02  0.36765760674E+02  0.00000000000E+00 0. -1.
</event>
<event>
 7    1  0.2666594E-009  0.8677685E+02  0.7561462E-02  0.1310850E+00
         -1   -1    0    0    0  501 -0.00000000000E+00  0.00000000000E+00  0.20374022048E+03  0.20374022048E+03  0.00000000000E+00 0.  1.
          1   -1    0    0  501    0  0.00000000000E+00 -0.00000000000E+00 -0.58934866240E+02  0.58934866240E+02  0.00000000000E+00 0. -1.
         25    2    1    2    0    0 -0.13349995061E+02  0.29468955486E+02  0.88220952147E+02  0.15645202313E+03  0.12509059692E+03 0.  0.
          5    1    3    3  502    0 -0.46119086942E+02 -0.22984400846E+02  0.78072419571E+02  0.93637748586E+02  0.41800000000E+01 0.  1.
         -5    1    3    3    0  502  0.32769091881E+02  0.52453356331E+02  0.10148532576E+02  0.62814274544E+02  0.41800000000E+01 0.  1.
        -11    1    1    2    0    0 -0.13537545770E+02  0.64524148799E+01  0.59401281818E+02  0.61265088631E+02  0.00000000000E+00 0.  1.
         11    1    1    2    0    0  0.26887540830E+02 -0.35921370365E+02 -0.28168797266E+01  0.44957974957E+02  0.00000000000E+00 0. -1.
</event>
<event>
 7    1  0.2892433E-009  0.8288543E+02  0.7561462E-02  0.1321057E+00
          1   -1    0    0  501    0  0.00000000000E+00  0.00000000000E+00  0.80343674300E+03  0.80343674300E+03  0.00000000000E+00 0. -1.
         -1   -1    0    0    0  501 -0.00000000000E+00 -0.00000000000E+00 -0.18654255413E+02  0.18654255413E+02  0.00000000000E+00 0.  1.
         25    2    1    2    0    0 -0.35230427123E+00  0.77456184669E+01  0.63129800967E+03  0.64361858058E+03  0.12509029351E+03 0.  0.
          5    1    3    3  502    0 -0.39656500875E+02  0.22926190148E+02  0.55032310253E+03  0.55224201020E+03  0.41800000000E+01 0.  1.
         -5    1    3    3    0  502  0.39304196604E+02 -0.15180571681E+02  0.80974907138E+02  0.91376570373E+02  0.41800000000E+01 0.  1.
        -11    1    1    2    0    0  0.38661078109E+02 -0.21838913923E+01  0.29771645924E+02  0.48844643956E+02  0.00000000000E+00 0.  1.
         11    1    1    2    0    0 -0.38308773837E+02 -0.55617270746E+01  0.12371283200E+03  0.12962777389E+03  0.00000000000E+00 0. -1.
</event>
<event>
 7    1  0.2868020E-009  0.9590671E+02  0.7561462E-02  0.1289147E+00
          3   -1    0    0  501    0  0.00000000000E+00  0.00000000000E+00  0.82269719825E+03  0.82269719825E+03  0.00000000000E+00 0. -1.
         -3   -1    0    0    0  501 -0.00000000000E+00 -0.00000000000E+00 -0.18876364923E+02  0.18876364923E+02  0.00000000000E+00 0.  1.
         25    2    1    2    0    0  0.47623217956E+01  0.70516859324E+01  0.65243442586E+03  0.66437233776E+03  0.12509003618E+03 0.  0.
          5    1    3    3  502    0 -0.56692995870E+02  0.13172121724E+02  0.22339336082E+03  0.23088886208E+03  0.41800000000E+01 0. -1.
         -5    1    3    3    0  502  0.61455317666E+02 -0.61204357920E+01  0.42904106503E+03  0.43348347568E+03  0.41800000000E+01 0. -1.
        -11    1    1    2    0    0  0.98581255592E+01 -0.36969153046E+02  0.23166355268E+02  0.44727854105E+02  0.00000000000E+00 0.  1.
         11    1    1    2    0    0 -0.14620447355E+02  0.29917467113E+02  0.12822005220E+03  0.13247337130E+03  0.00000000000E+00 0. -1.
</event>
<event>
 7    1  0.2666594E-009  0.1907360E+03  0.7561462E-02  0.1157799E+00
         -2   -1    0    0    0  501 -0.00000000000E+00  0.00000000000E+00  0.35027461876E+02  0.35027461876E+02  0.00000000000E+00 0.  1.
          2   -1    0    0  501    0  0.00000000000E+00 -0.00000000000E+00 -0.11322027040E+04  0.11322027040E+04  0.00000000000E+00 0. -1.
         25    2    1    2    0    0 -0.15369896940E+03  0.81469510632E+02 -0.59064141588E+03  0.62830347449E+03  0.12508924632E+03 0.  0.
          5    1    3    3  502    0 -0.14583506630E+03  0.22339552056E+02 -0.34047546406E+03  0.37109019951E+03  0.41800000000E+01 0.  1.
         -5    1    3    3    0  502 -0.78639030988E+01  0.59129958576E+02 -0.25016595182E+03  0.25721327498E+03  0.41800000000E+01 0.  1.
        -11    1    1    2    0    0  0.67972249288E+02 -0.32349024778E+02 -0.13596948113E+03  0.15541681336E+03  0.00000000000E+00 0.  1.
         11    1    1    2    0    0  0.85726720113E+02 -0.49120485854E+02 -0.37056434514E+03  0.38350987805E+03  0.00000000000E+00 0. -1.
</event>
<event>
 7    1  0.2666594E-009  0.1114721E+03  0.7561462E-02  0.1257868E+00
         -1   -1    0    0    0  501 -0.00000000000E+00  0.00000000000E+00  0.33936867299E+02  0.33936867299E+02  0.00000000000E+00 0.  1.
          1   -1    0    0  501    0  0.00000000000E+00 -0.00000000000E+00 -0.64776231126E+03  0.64776231126E+03  0.00000000000E+00 0. -1.
         25    2    1    2    0    0  0.47632851578E+02 -0.83559061608E+02 -0.25470263177E+03  0.29961958856E+03  0.12508981529E+03 0.  0.
          5    1    3    3  502    0  0.48742918302E+02 -0.95289132347E+02 -0.26342898095E+03  0.28437333073E+03  0.41800000000E+01 0. -1.
         -5    1    3    3    0  502 -0.11100667237E+01  0.11730070739E+02  0.87263491785E+01  0.15246257825E+02  0.41800000000E+01 0. -1.
        -11    1    1    2    0    0  0.59981600761E+01  0.15885823529E+02 -0.51751897649E+01  0.17751616901E+02  0.00000000000E+00 0.  1.
         11    1    1    2    0    0 -0.53631011654E+02  0.67673238080E+02 -0.35394762243E+03  0.36432797310E+03  0.00000000000E+00 0. -1.
</event>
<event>
 7    1  0.2666594E-009  0.1078072E+03  0.7561462E-02  0.1264685E+00
         -1   -1    0    0    0  501 -0.00000000000E+00  0.00000000000E+00  0.75489033989E+02  0.75489033989E+02  0.00000000000E+00 0.  1.
          1   -1    0    0  501    0  0.00000000000E+00 -0.00000000000E+00 -0.28220348629E+03  0.28220348629E+03  0.00000000000E+00 0. -1.
         25    2    1    2    0    0 -0.81592173577E+02  0.13130691847E+02 -0.49699828896E+02  0.15794648848E+03  0.12508925762E+03 0.  0.
          5    1    3    3  502    0 -0.97333197164E+02 -0.12971638525E+02  0.14077260469E+01  0.98292770684E+02  0.41800000000E+01 0. -1.
         -5    1    3    3    0  502  0.15741023586E+02  0.26102330372E+02 -0.51107554943E+02  0.59653717794E+02  0.41800000000E+01 0. -1.
        -11    1    1    2    0    0  0.36820936907E+02 -0.18960539584E+02 -0.14802607660E+03  0.15371077649E+03  0.00000000000E+00 0. -1.
         11    1    1    2    0    0  0.44771236670E+02  0.58298477376E+01 -0.89885468038E+01  0.46035255308E+02  0.00000000000E+00 0.  1.
</event>
<event>
 7    1  0.2666594E-009  0.1636679E+03  0.7561462E-02  0.1184617E+00
         -2   -1    0    0    0  501 -0.00000000000E+00  0.00000000000E+00  0.45911620677E+02  0.45911620677E+02  0.00000000000E+00 0.  1.
          2   -1    0    0  501    0  0.00000000000E+00 -0.00000000000E+00 -0.65969459979E+03  0.65969459979E+03  0.00000000000E+00 0. -1.
         25    2    1    2    0    0  0.12460891723E+03 -0.39144914166E+02 -0.40354455417E+03  0.44221662700E+03  0.12509049299E+03 0.  0.
          5    1    3    3  502    0 -0.17152339538E+02 -0.23436372325E+02 -0.28330992469E+02  0.40787054732E+02  0.41800000000E+01 0.  1.
         -5    1    3    3    0  502  0.14176125677E+03 -0.15708541841E+02 -0.37521356170E+03  0.40142957227E+03  0.41800000000E+01 0.  1.
        -11    1    1    2    0    0 -0.49127615383E+02 -0.26012868315E+02 -0.10239520312E+03  0.11651167123E+03  0.00000000000E+00 0. -1.
         11    1    1    2    0    0 -0.75481301851E+02  0.65157782481E+02 -0.10784322183E+03  0.14687792224E+03  0.00000000000E+00 0.  1.
</event>
<event>
 7    1  0.2666594E-009  0.1167255E+03  0.7561462E-02  0.1248599E+00
         -1   -1    0    0    0  501 -0.00000000000E+00  0.00000000000E+00  0.79237458323E+02  0.79237458323E+02  0.00000000000E+00 0.  1.
          1   -1    0    0  501    0  0.00000000000E+00 -0.00000000000E+00 -0.30002290612E+03  0.30002290612E+03  0.00000000000E+00 0. -1.
         25    2    1    2    0    0 -0.26004709968E+02 -0.63870781932E+02 -0.14010707255E+02  0.14351695010E+03  0.12508034747E+03 0.  0.
          5    1    3    3  502    0 -0.95325074126E+01  0.37989392740E+02 -0.70413237380E+01  0.40013938800E+02  0.41800000000E+01 0.  1.
         -5    1    3    3    0  502 -0.16472202555E+02 -0.10186017467E+03 -0.69693835169E+01  0.10350301130E+03  0.41800000000E+01 0.  1.
        -11    1    1    2    0    0 -0.11346430078E+02  0.49482598632E+02 -0.41147306754E+02  0.65348067270E+02  0.00000000000E+00 0.  1.
         11    1    1    2    0    0  0.37351140046E+02  0.14388183301E+02 -0.16562743379E+03  0.17039534707E+03  0.00000000000E+00 0. -1.
</event>
<event>
 7    1  0.2666594E-009  0.1051549E+03  0.7561462E-02  0.1269815E+00
          2   -1    0    0  501    0  0.00000000000E+00  0.00000000000E+00  0.77561857824E+03  0.77561857824E+03  0.00000000000E+00 0. -1.
         -2   -1    0    0    0  501 -0.00000000000E+00 -0.00000000000E+00 -0.20435964481E+02  0.20435964481E+02  0.00000000000E+00 0.  1.
         25    2    1    2    0    0 -0.46568434065E+02 -0.18803131784E+01  0.51945846665E+03  0.53633819549E+03  0.12509758885E+03 0.  0.
          5    1    3    3  502    0 -0.68153010288E+02 -0.26250742510E+02  0.16655871315E+03  0.18191539688E+03  0.41800000000E+01 0.  1.
         -5    1    3    3    0  502  0.21584576223E+02  0.24370429332E+02  0.35289975350E+03  0.35442279861E+03  0.41800000000E+01 0.  1.
        -11    1    1    2    0    0 -0.84154377545E+01 -0.36385339682E+02  0.12346026372E+03  0.12898507376E+03  0.00000000000E+00 0. -1.
         11    1    1    2    0    0  0.54983871820E+02  0.38265652860E+02  0.11226388339E+03  0.13073127347E+03  0.00000000000E+00 0.  1.
</event>
<event>
 7    1  0.2666594E-009  0.1393307E+03  0.7561462E-02  0.1214232E+00
         -1   -1    0    0    0  501 -0.00000000000E+00  0.00000000000E+00  0.20770616861E+03  0.20770616861E+03  0.00000000000E+00 0.  1.
          1   -1    0    0  501    0  0.00000000000E+00 -0.00000000000E+00 -0.11350780850E+03  0.11350780850E+03  0.00000000000E+00 0. -1.
         25    2    1    2    0    0 -0.42314773785E+02  0.10435733363E+03  0.89416776733E+02  0.19058891739E+03  0.12509109603E+03 0.  0.
          5    1    3    3  502    0 -0.14451594767E+02  0.12744909466E+03  0.84913689599E+02  0.15388283661E+03  0.41800000000E+01 0.  1.
         -5    1    3    3    0  502 -0.27863179018E+02 -0.23091761029E+02  0.45030871341E+01  0.36706080779E+02  0.41800000000E+01 0.  1.
        -11    1    1    2    0    0  0.16337572600E+02 -0.21117293495E+02 -0.26850522505E+02  0.37865643027E+02  0.00000000000E+00 0. -1.
         11    1    1    2    0    0  0.25977201185E+02 -0.83240040139E+02  0.31632105880E+02  0.92759416698E+02  0.00000000000E+00 0.  1.
</event>
<event>
 7    1  0.2666594E-009  0.1153308E+03  0.7561462E-02  0.1251005E+00
         -2   -1    0    0    0  501 -0.00000000000E+00  0.00000000000E+00  0.36770069173E+02  0.36770069173E+02  0.00000000000E+00 0.  1.
          2   -1    0    0  501    0  0.00000000000E+00 -0.00000000000E+00 -0.51608000836E+03  0.51608000836E+03  0.00000000000E+00 0. -1.
         25    2    1    2    0    0 -0.78692038512E+02  0.32511186597E+02 -0.26357971205E+03  0.30392387476E+03  0.12508414313E+03 0.  0.
          5    1    3    3  502    0 -0.75636833117E+02  0.55832929432E+02 -0.26374831486E+03  0.28003373462E+03  0.41800000000E+01 0. -1.
         -5    1    3    3    0  502 -0.30552053946E+01 -0.23321742835E+02  0.16860280999E+00  0.23890140137E+02  0.41800000000E+01 0. -1.
        -11    1    1    2    0    0  0.68905073593E+02 -0.54985091403E+02 -0.11303677054E+03  0.14334776224E+03  0.00000000000E+00 0.  1.
         11    1    1    2    0    0  0.97869649183E+01  0.22473904806E+02 -0.10269345659E+03  0.10557844054E+03  0.00000000000E+00 0. -1.
</event>
<event>
 7    1  0.2666594E-009  0.9963093E+02  0.7561462E-02  0.1281074E+00
          2   -1    0    0  501    0  0.00000000000E+00  0.00000000000E+00  0.63012877659E+03  0.63012877659E+03  0.00000000000E+00 0. -1.
         -2   -1    0    0    0  501 -0.00000000000E+00 -0.00000000000E+00 -0.26628947967E+02  0.26628947967E+02  0.00000000000E+00 0.  1.
         25    2    1    2    0    0 -0.84766404673E+01  0.60263954474E+02  0.43491844172E+03  0.45662210349E+03  0.12508435874E+03 0.  0.
          5    1    3    3  502    0 -0.44874716805E+02  0.53639802333E+02  0.39825001027E+03  0.40436556688E+03  0.41800000000E+01 0. -1.
         -5    1    3    3    0  502  0.36398076338E+02  0.66241521402E+01  0.36668431458E+02  0.52256536608E+02  0.41800000000E+01 0. -1.
        -11    1    1    2    0    0  0.34501389006E+02 -0.55742206943E+02  0.15909025979E+03  0.17206757462E+03  0.00000000000E+00 0. -1.
         11    1    1    2    0    0 -0.26024748539E+02 -0.45217475307E+01  0.94911271115E+01  0.28068046442E+02  0.00000000000E+00 0.  1.
</event>
<event>
 7    1  0.2666594E-009  0.1111732E+03  0.7561462E-02  0.1258413E+00
         -1   -1    0    0    0  501 -0.00000000000E+00  0.00000000000E+00  0.19718807494E+02  0.19718807494E+02  0.00000000000E+00 0.  1.
          1   -1    0    0  501    0  0.00000000000E+00 -0.00000000000E+00 -0.91218780800E+03  0.91218780800E+03  0.00000000000E+00 0. -1.
         25    2    1    2    0    0 -0.23571185873E+02  0.63205754981E+02 -0.63098715761E+03  0.64679425358E+03  0.12508974833E+03 0.  0.
          5    1    3    3  502    0  0.47038899699E+02  0.52204938722E+02 -0.32723125773E+03  0.33471746615E+03  0.41800000000E+01 0. -1.
         -5    1    3    3    0  502 -0.70610085573E+02  0.11000816260E+02 -0.30375589988E+03  0.31207678743E+03  0.41800000000E+01 0. -1.
        -11    1    1    2    0    0  0.20680801756E+02 -0.39669966309E+01 -0.47077047887E+01  0.21577652975E+02  0.00000000000E+00 0.  1.
         11    1    1    2    0    0  0.28903841174E+01 -0.59238758351E+02 -0.25677413811E+03  0.26353470894E+03  0.00000000000E+00 0. -1.
</event>
<event>
 7    1  0.2666594E-009  0.1101279E+03  0.7561462E-02  0.1260333E+00
         -2   -1    0    0    0  501 -0.00000000000E+00  0.00000000000E+00  0.21916136022E+02  0.21916136022E+02  0.00000000000E+00 0.  1.
          2   -1    0    0  501    0  0.00000000000E+00 -0.00000000000E+00 -0.71477993218E+03  0.71477993218E+03  0.00000000000E+00 0. -1.
         25    2    1    2    0    0  0.49945635155E+02  0.33440642132E+02 -0.34695018882E+03  0.37367891283E+03  0.12509457765E+03 0.  0.
          5    1    3    3  502    0  0.52020755963E+02 -0.26731151605E+02 -0.26779970586E+03  0.27414388262E+03  0.41800000000E+01 0.  1.
         -5    1    3    3    0  502 -0.20751208076E+01  0.60171793737E+02 -0.79150482956E+02  0.99535030216E+02  0.41800000000E+01 0.  1.
        -11    1    1    2    0    0 -0.62297550489E+02  0.34207202371E+01 -0.13728510355E+03  0.15079749925E+03  0.00000000000E+00 0.  1.
         11    1    1    2    0    0  0.12351915334E+02 -0.36861362369E+02 -0.20862850379E+03  0.21221965612E+03  0.00000000000E+00 0. -1.
</event>
<event>
 7    1  0.2666594E-009  0.1263191E+03  0.7561462E-02  0.1233022E+00
         -2   -1    0    0    0  501 -0.00000000000E+00  0.00000000000E+00  0.68308990257E+02  0.68308990257E+02  0.00000000000E+00 0.  1.
          2   -1    0    0  501    0  0.00000000000E+00 -0.00000000000E+00 -0.43883806105E+03  0.43883806105E+03  0.00000000000E+00 0. -1.
         25    2    1    2    0    0  0.32338335215E+01 -0.89119758508E+02 -0.33649802140E+03  0.36990685607E+03  0.12508946686E+03 0.  0.
          5    1    3    3  502    0 -0.14284070505E+02 -0.10169467632E+03 -0.33192159628E+03  0.34746979774E+03  0.41800000000E+01 0.  1.
         -5    1    3    3    0  502  0.17517904027E+02  0.12574917814E+02 -0.45764251251E+01  0.22437058328E+02  0.41800000000E+01 0.  1.
        -11    1    1    2    0    0 -0.47144573802E+02  0.38370590685E+02  0.24908128725E+01  0.60836808079E+02  0.00000000000E+00 0.  1.
         11    1    1    2    0    0  0.43910740280E+02  0.50749167822E+02 -0.36521862256E+02  0.76403387158E+02  0.00000000000E+00 0. -1.
</event>
<event>
 7    1  0.2666594E-009  0.1509536E+03  0.7561462E-02  0.1199306E+00
          1   -1    0    0  501    0  0.00000000000E+00  0.00000000000E+00  0.70164954966E+03  0.70164954966E+03  0.00000000000E+00 0. -1.
         -1   -1    0    0    0  501 -0.00000000000E+00 -0.00000000000E+00 -0.41367097914E+02  0.41367097914E+02  0.00000000000E+00 0.  1.
         25    2    1    2    0    0 -0.56401415671E+01  0.11106369066E+03  0.49732256992E+03  0.52473193850E+03  0.12508762587E+03 0.  0.
          5    1    3    3  502    0  0.23029195167E+02 -0.21346753969E+02  0.10326700842E+03  0.10801655041E+03  0.41800000000E+01 0. -1.
         -5    1    3    3    0  502 -0.28669336734E+02  0.13241044463E+03  0.39405556150E+03  0.41671538809E+03  0.41800000000E+01 0. -1.
        -11    1    1    2    0    0 -0.34288199184E+02 -0.36334838972E+02  0.10303369621E+03  0.11450695909E+03  0.00000000000E+00 0.  1.
         11    1    1    2    0    0  0.39928340751E+02 -0.74728851688E+02  0.59926185621E+02  0.10377774999E+03  0.00000000000E+00 0. -1.
</event>
<event>
 7    1  0.2666594E-009  0.1211007E+03  0.7561462E-02  0.1241292E+00
         -1   -1    0    0    0  501 -0.00000000000E+00  0.00000000000E+00  0.22231661698E+03  0.22231661698E+03  0.00000000000E+00 0.  1.
          1   -1    0    0  501    0  0.00000000000E+00 -0.00000000000E+00 -0.91667819342E+02  0.91667819342E+02  0.00000000000E+00 0. -1.
         25    2    1    2    0    0 -0.21788204051E+02 -0.85736617255E+02  0.10156505451E+03  0.18381471914E+03  0.12508755853E+03 0.  0.
          5    1    3    3  502    0  0.45523293584E+02 -0.48566066065E+02  0.79371352100E+02  0.10367409014E+03  0.41800000000E+01 0. -1.
         -5    1    3    3    0  502 -0.67311497635E+02 -0.37170551190E+02  0.22193702410E+02  0.80140628998E+02  0.41800000000E+01 0. -1.
        -11    1    1    2    0    0 -0.12505169123E+02  0.35788863738E+02  0.52889689597E+02  0.65073353134E+02  0.00000000000E+00 0.  1.
         11    1    1    2    0    0  0.34293373174E+02  0.49947753517E+02 -0.23805946471E+02  0.65096364049E+02  0.00000000000E+00 0. -1.
</event>
<event>
 7    1  0.2666594E-009  0.3826505E+03  0.7561462E-02  0.1049958E+00
         -1   -1    0    0    0  501 -0.00000000000E+00  0.00000000000E+00  0.10796212890E+03  0.10796212890E+03  0.00000000000E+00 0.  1.
          1   -1    0    0  501    0  0.00000000000E+00 -0.00000000000E+00 -0.17192395251E+04  0.17192395251E+04  0.00000000000E+00 0. -1.
         25    2    1    2    0    0 -0.28352763141E+03 -0.24007263046E+03 -0.41335528456E+03  0.56967640961E+03  0.12508331114E+03 0.  0.
          5    1    3    3  502    0 -0.16721979808E+03 -0.61156191638E+02 -0.20189771273E+03  0.26922611213E+03  0.41800000000E+01 0. -1.
         -5    1    3    3    0  502 -0.11630783333E+03 -0.17891643882E+03 -0.21145757183E+03  0.30045029748E+03  0.41800000000E+01 0. -1.
        -11    1    1    2    0    0  0.18590198067E+03  0.18204448869E+03 -0.69940287768E+03  0.74623329301E+03  0.00000000000E+00 0.  1.
         11    1    1    2    0    0  0.97625650734E+02  0.58028141769E+02 -0.49851923397E+03  0.51129195139E+03  0.00000000000E+00 0. -1.
</event>
<event>
 7    1  0.2666594E-009  0.2563948E+03  0.7561462E-02  0.1109329E+00
         -2   -1    0    0    0  501 -0.00000000000E+00  0.00000000000E+00  0.15561397807E+03  0.15561397807E+03  0.00000000000E+00 0.  1.
          2   -1    0    0  501    0  0.00000000000E+00 -0.00000000000E+00 -0.46690365464E+03  0.46690365464E+03  0.00000000000E+00 0. -1.
         25    2    1    2    0    0  0.13595179882E+03 -0.19773868534E+03 -0.22534090874E+03  0.35214972036E+03  0.12508965230E+03 0.  0.
          5    1    3    3  502    0  0.15878097147E+03 -0.17891156544E+03 -0.21102130300E+03  0.31901129740E+03  0.41800000000E+01 0. -1.
         -5    1    3    3    0  502 -0.22829172647E+02 -0.18827119902E+02 -0.14319605738E+02  0.33138422957E+02  0.41800000000E+01 0. -1.
        -11    1    1    2    0    0 -0.51813069369E+02  0.11265770621E+03 -0.85655933023E+02  0.15070929563E+03  0.00000000000E+00 0. -1.
         11    1    1    2    0    0 -0.84138729452E+02  0.85080979130E+02 -0.29283481538E+00  0.11965861672E+03  0.00000000000E+00 0.  1.
</event>
<event>
 7    1  0.2666594E-009  0.3241017E+03  0.7561462E-02  0.1073777E+00
          2   -1    0    0  501    0  0.00000000000E+00  0.00000000000E+00  0.96692005006E+03  0.96692005006E+03  0.00000000000E+00 0.  1.
         -2   -1    0    0    0  501 -0.00000000000E+00 -0.00000000000E+00 -0.11595414206E+03  0.11595414206E+03  0.00000000000E+00 0. -1.
         25    2    1    2    0    0  0.25336250674E+03 -0.18342066212E+03  0.50826578113E+03  0.60976836859E+03  0.12509060694E+03 0.  0.
          5    1    3    3  502    0  0.49537153018E+02 -0.10336779821E+03  0.13661968392E+03  0.17838509374E+03  0.41800000000E+01 0. -1.
         -5    1    3    3    0  502  0.20382535372E+03 -0.80052863912E+02  0.37164609721E+03  0.43138327484E+03  0.41800000000E+01 0. -1.
        -11    1    1    2    0    0 -0.70587251770E+02  0.69785360915E+02  0.17127155357E+03  0.19795580763E+03  0.00000000000E+00 0.  1.
         11    1    1    2    0    0 -0.18277525497E+03  0.11363530121E+03  0.17142857329E+03  0.27515001590E+03  0.00000000000E+00 0. -1.
</event>
<event>
 7    1  0.2666594E-009  0.1150526E+03  0.7561462E-02  0.1251489E+00
         -1   -1    0    0    0  501 -0.00000000000E+00  0.00000000000E+00  0.99270077519E+02  0.99270077519E+02  0.00000000000E+00 0.  1.
          1   -1    0    0  501    0  0.00000000000E+00 -0.00000000000E+00 -0.15744551337E+03  0.15744551337E+03  0.00000000000E+00 0. -1.
         25    2    1    2    0    0  0.72744214491E+01 -0.55210463223E+02 -0.60323370753E+02  0.14961742744E+03  0.12508138582E+03 0.  0.
          5    1    3    3  502    0  0.55188764733E+02 -0.25988052901E+01  0.12521327080E+01  0.55421961152E+02  0.41800000000E+01 0.  1.
         -5    1    3    3    0  502 -0.47914343284E+02 -0.52611657933E+02 -0.61575503461E+02  0.94195466288E+02  0.41800000000E+01 0.  1.
        -11    1    1    2    0    0 -0.19584684892E+02 -0.19535152558E+02 -0.11797590427E+02  0.30072665457E+02  0.00000000000E+00 0. -1.
         11    1    1    2    0    0  0.12310263443E+02  0.74745615781E+02  0.13945525328E+02  0.77025497994E+02  0.00000000000E+00 0.  1.
</event>
<event>
 7    1  0.2666594E-009  0.1164133E+03  0.7561462E-02  0.1249134E+00
          1   -1    0    0  501    0  0.00000000000E+00  0.00000000000E+00  0.19216784950E+03  0.19216784950E+03  0.00000000000E+00 0. -1.
         -1   -1    0    0    0  501 -0.00000000000E+00 -0.00000000000E+00 -0.11161792251E+03  0.11161792251E+03  0.00000000000E+00 0.  1.
         25    2    1    2    0    0 -0.50230939020E+02 -0.42723163715E+02  0.11947227427E+03  0.18511863758E+03  0.12508744824E+03 0.  0.
          5    1    3    3  502    0 -0.16175316355E+02  0.35752990161E+02  0.17062540172E+01  0.39500643886E+02  0.41800000000E+01 0.  1.
         -5    1    3    3    0  502 -0.34055622665E+02 -0.78476153876E+02  0.11776602025E+03  0.14561799369E+03  0.41800000000E+01 0.  1.
        -11    1    1    2    0    0 -0.15311873868E+02  0.39190839114E+02  0.54102443309E+00  0.42079306782E+02  0.00000000000E+00 0.  1.
         11    1    1    2    0    0  0.65542812888E+02  0.35323246014E+01 -0.39463371710E+02  0.76587827656E+02  0.00000000000E+00 0. -1.
</event>
<event>
 7    1  0.2666594E-009  0.8642597E+02  0.7561462E-02  0.1311745E+00
          2   -1    0    0  501    0  0.00000000000E+00  0.00000000000E+00  0.49558583458E+03  0.49558583458E+03  0.00000000000E+00 0. -1.
         -2   -1    0    0    0  501 -0.00000000000E+00 -0.00000000000E+00 -0.23811517597E+02  0.23811517597E+02  0.00000000000E+00 0.  1.
         25    2    1    2    0    0  0.15468751508E+02 -0.13806297295E+02  0.28138840272E+03  0.30863430344E+03  0.12508318815E+03 0.  0.
          5    1    3    3  502    0  0.54756148843E+02 -0.33027295569E+02  0.79961512660E+02  0.10247123497E+03  0.41800000000E+01 0.  1.
         -5    1    3    3    0  502 -0.39287397335E+02  0.19220998274E+02  0.20142689006E+03  0.20616306847E+03  0.41800000000E+01 0.  1.
        -11    1    1    2    0    0  0.23405725985E+02  0.10988691310E+02  0.12616131078E+02  0.28770577140E+02  0.00000000000E+00 0.  1.
         11    1    1    2    0    0 -0.38874477493E+02  0.28176059851E+01  0.17776978319E+03  0.18199247160E+03  0.00000000000E+00 0. -1.
</event>
<event>
 7    1  0.2666594E-009  0.1204882E+03  0.7561462E-02  0.1242294E+00
         -1   -1    0    0    0  501 -0.00000000000E+00  0.00000000000E+00  0.20696302669E+02  0.20696302669E+02  0.00000000000E+00 0.  1.
          1   -1    0    0  501    0  0.00000000000E+00 -0.00000000000E+00 -0.74238336224E+03  0.74238336224E+03  0.00000000000E+00 0. -1.
         25    2    1    2    0    0  0.36123774371E+02  0.47794508902E+02 -0.42104079739E+03  0.44329602539E+03  0.12508705328E+03 0.  0.
          5    1    3    3  502    0 -0.39325683949E+02 -0.10708900793E+02 -0.93146589587E+02  0.10175927243E+03  0.41800000000E+01 0. -1.
         -5    1    3    3    0  502  0.75449458320E+02  0.58503409695E+02 -0.32789420781E+03  0.34153675296E+03  0.41800000000E+01 0. -1.
        -11    1    1    2    0    0 -0.64087833898E+02 -0.26772760690E+02 -0.23916192474E+03  0.24904308345E+03  0.00000000000E+00 0. -1.
         11    1    1    2    0    0  0.27964059527E+02 -0.21021748212E+02 -0.61484337436E+02  0.70740556070E+02  0.00000000000E+00 0.  1.
</event>
<event>
 7    1  0.2666594E-009  0.1096306E+03  0.7561462E-02  0.1261255E+00
         -1   -1    0    0    0  501 -0.00000000000E+00  0.00000000000E+00  0.36549081720E+02  0.36549081720E+02  0.00000000000E+00 0.  1.
          1   -1    0    0  501    0  0.00000000000E+00 -0.00000000000E+00 -0.41081512083E+03  0.41081512083E+03  0.00000000000E+00 0. -1.
         25    2    1    2    0    0  0.42194781157E+02  0.21915112189E+02 -0.27137636888E+03  0.30257631660E+03  0.12508645843E+03 0.  0.
          5    1    3    3  502    0 -0.25425830695E+02  0.51796575267E+02 -0.94157054424E+02  0.11050964380E+03  0.41800000000E+01 0.  1.
         -5    1    3    3    0  502  0.67620611852E+02 -0.29881463078E+02 -0.17721931445E+03  0.19206667279E+03  0.41800000000E+01 0.  1.
        -11    1    1    2    0    0  0.86293638374E+01 -0.34036282778E+02 -0.73203221579E+01  0.35868113723E+02  0.00000000000E+00 0.  1.
         11    1    1    2    0    0 -0.50824144994E+02  0.12121170589E+02 -0.95569348077E+02  0.10891977223E+03  0.00000000000E+00 0. -1.
</event>
<event>
 7    1  0.2666594E-009  0.9806574E+02  0.7561462E-02  0.1284417E+00
         -2   -1    0    0    0  501 -0.00000000000E+00  0.00000000000E+00  0.10789935004E+03  0.10789935004E+03  0.00000000000E+00 0.  1.
          2   -1    0    0  501    0  0.00000000000E+00 -0.00000000000E+00 -0.12240334868E+03  0.12240334868E+03  0.00000000000E+00 0. -1.
         25    2    1    2    0    0 -0.20071281594E+02  0.25245213909E+02 -0.29245606837E+02  0.13244754230E+03  0.12508744450E+03 0.  0.
          5    1    3    3  502    0 -0.62637002657E+02  0.38638292772E+02 -0.43283128761E+02  0.85482240293E+02  0.41800000000E+01 0.  1.
         -5    1    3    3    0  502  0.42565721063E+02 -0.13393078864E+02  0.14037521924E+02  0.46965302009E+02  0.41800000000E+01 0.  1.
        -11    1    1    2    0    0  0.20665723742E+01  0.24556078344E+02  0.33576670752E+02  0.41649304001E+02  0.00000000000E+00 0.  1.
         11    1    1    2    0    0  0.18004709220E+02 -0.49801292253E+02 -0.18835062555E+02  0.56205852414E+02  0.00000000000E+00 0. -1.
</event>
<event>
 7    1  0.2666594E-009  0.9156705E+02  0.7561462E-02  0.1299101E+00
          2   -1    0    0  501    0  0.00000000000E+00  0.00000000000E+00  0.44286267867E+02  0.44286267867E+02  0.00000000000E+00 0. -1.
         -2   -1    0    0    0  501 -0.00000000000E+00 -0.00000000000E+00 -0.29331793364E+03  0.29331793364E+03  0.00000000000E+00 0.  1.
         25    2    1    2    0    0  0.13414210276E+02  0.29739081459E+02 -0.14491782969E+03  0.19420075158E+03  0.12509356717E+03 0.  0.
          5    1    3    3  502    0  0.36920084945E+01  0.72506112005E+02 -0.46351662894E+02  0.86236397523E+02  0.41800000000E+01 0.  1.
         -5    1    3    3    0  502  0.97222017817E+01 -0.42767030546E+02 -0.98566166796E+02  0.10796435405E+03  0.41800000000E+01 0.  1.
        -11    1    1    2    0    0 -0.35762282710E+02 -0.11670856487E+02 -0.10803646961E+03  0.11439855122E+03  0.00000000000E+00 0. -1.
         11    1    1    2    0    0  0.22348072434E+02 -0.18068224972E+02  0.39226335306E+01  0.29004898706E+02  0.00000000000E+00 0.  1.
</event>
<event>
 7    1  0.2666594E-009  0.1226356E+03  0.7561462E-02  0.1238811E+00
          1   -1    0    0  501    0  0.00000000000E+00  0.00000000000E+00  0.22677735635E+02  0.22677735635E+02  0.00000000000E+00 0. -1.
         -1   -1    0    0    0  501 -0.00000000000E+00 -0.00000000000E+00 -0.12778677443E+04  0.12778677443E+04  0.00000000000E+00 0.  1.
         25    2    1    2    0    0 -0.63050173315E+01  0.61696161518E+02 -0.11080880403E+04  0.11168498939E+04  0.12509360808E+03 0.  0.
          5    1    3    3  502    0  0.41773010990E+02  0.77652981593E+02 -0.65573286082E+03  0.66164796316E+03  0.41800000000E+01 0. -1.
         -5    1    3    3    0  502 -0.48078028321E+02 -0.15956820075E+02 -0.45235517946E+03  0.45520193069E+03  0.41800000000E+01 0. -1.
        -11    1    1    2    0    0 -0.36359162509E+02 -0.50195308632E+02 -0.10881367352E+03  0.12522768565E+03  0.00000000000E+00 0.  1.
         11    1    1    2    0    0  0.42664179840E+02 -0.11500852886E+02 -0.38288294860E+02  0.58467900440E+02  0.00000000000E+00 0. -1.
</event>
<event>
 7    1  0.2666594E-009  0.1216956E+03  0.7561462E-02  0.1240326E+00
          1   -1    0    0  501    0  0.00000000000E+00  0.00000000000E+00  0.70746966956E+03  0.70746966956E+03  0.00000000000E+00 0. -1.
         -1   -1    0    0    0  501 -0.00000000000E+00 -0.00000000000E+00 -0.40501281063E+02  0.40501281063E+02  0.00000000000E+00 0.  1.
         25    2    1    2    0    0 -0.88811466089E+02 -0.78843720114E+02  0.23811437692E+03  0.29402468455E+03  0.12509296511E+03 0.  0.
          5    1    3    3  502    0 -0.39918621416E+02 -0.34626277889E+02  0.67753702584E+01  0.53440186174E+02  0.41800000000E+01 0.  1.
         -5    1    3    3    0  502 -0.48892844673E+02 -0.44217442225E+02  0.23133900666E+03  0.24058449838E+03  0.41800000000E+01 0.  1.
        -11    1    1    2    0    0  0.19603858015E+02  0.41008825940E+02  0.52619905213E+02  0.69533369533E+02  0.00000000000E+00 0.  1.
         11    1    1    2    0    0  0.69207608074E+02  0.37834894174E+02  0.37623410636E+03  0.38441289654E+03  0.00000000000E+00 0. -1.
</event>
<event>
 7    1  0.2666594E-009  0.1071104E+03  0.7561462E-02  0.1266017E+00
         -2   -1    0    0    0  501 -0.00000000000E+00  0.00000000000E+00  0.36805895770E+02  0.36805895770E+02  0.00000000000E+00 0. -1.
          2   -1    0    0  501    0  0.00000000000E+00 -0.00000000000E+00 -0.41235303476E+03  0.41235303476E+03  0.00000000000E+00 0.  1.
         25    2    1    2    0    0  0.32535072029E+02  0.63724311058E-01 -0.12177772391E+03  0.17759062701E+03  0.12510028693E+03 0.  0.
          5    1    3    3  502    0 -0.18887192605E+02  0.45240151586E+02 -0.16398497409E+02  0.51863093595E+02  0.41800000000E+01 0.  1.
         -5    1    3    3    0  502  0.51422264633E+02 -0.45176427275E+02 -0.10537922650E+03  0.12572753342E+03  0.41800000000E+01 0.  1.
        -11    1    1    2    0    0  0.29552304343E+02 -0.14168668609E+02 -0.77114040369E+02  0.83789409141E+02  0.00000000000E+00 0. -1.
         11    1    1    2    0    0 -0.62087376372E+02  0.14104944298E+02 -0.17665537471E+03  0.18777889437E+03  0.00000000000E+00 0.  1.
</event>
<event>
 7    1  0.2666594E-009  0.1505250E+03  0.7561462E-02  0.1199829E+00
          1   -1    0    0  501    0  0.00000000000E+00  0.00000000000E+00  0.13854250004E+03  0.13854250004E+03  0.00000000000E+00 0. -1.
         -1   -1    0    0    0  501 -0.00000000000E+00 -0.00000000000E+00 -0.19750189417E+03  0.19750189417E+03  0.00000000000E+00 0.  1.
         25    2    1    2    0    0  0.48915983698E+02 -0.10960357250E+03  0.19732212696E+01  0.17336908827E+03  0.12508889080E+03 0.  0.
          5    1    3    3  502    0  0.43402612990E+02 -0.13637433937E+03  0.12640463432E+02  0.14373239360E+03  0.41800000000E+01 0.  1.
         -5    1    3    3    0  502  0.55133707077E+01  0.26770766878E+02 -0.10667242162E+02  0.29636694673E+02  0.41800000000E+01 0.  1.
        -11    1    1    2    0    0 -0.33209116537E+02  0.10959627644E+03 -0.16689654091E+02  0.11572697950E+03  0.00000000000E+00 0. -1.
         11    1    1    2    0    0 -0.15706867161E+02  0.72960528916E-02 -0.44242961311E+02  0.46948326432E+02  0.00000000000E+00 0.  1.
</event>
<event>
 7    1  0.2666594E-009  0.1472910E+03  0.7561462E-02  0.1203842E+00
         -2   -1    0    0    0  501 -0.00000000000E+00  0.00000000000E+00  0.89230961310E+02  0.89230961310E+02  0.00000000000E+00 0.  1.
          2   -1    0    0  501    0  0.00000000000E+00 -0.00000000000E+00 -0.48386445059E+03  0.48386445059E+03  0.00000000000E+00 0. -1.
         25    2    1    2    0    0  0.12223839154E+03 -0.63771250687E+01 -0.29395723344E+02  0.17746412264E+03  0.12508602713E+03 0.  0.
          5    1    3    3  502    0  0.25583100554E+02  0.31328573566E+02  0.36370470964E+02  0.54555092464E+02  0.41800000000E+01 0.  1.
         -5    1    3    3    0  502  0.96655290982E+02 -0.37705698635E+02 -0.65766194308E+02  0.12290903017E+03  0.41800000000E+01 0.  1.
        -11    1    1    2    0    0  0.76063135587E+01  0.18178613552E+02 -0.73295217284E+02  0.75898003092E+02  0.00000000000E+00 0.  1.
         11    1    1    2    0    0 -0.12984470509E+03 -0.11801488483E+02 -0.29194254866E+03  0.31973328617E+03  0.00000000000E+00 0. -1.
</event>
<event>
 7    1  0.2666594E-009  0.1003688E+03  0.7561462E-02  0.1279522E+00
         -3   -1    0    0    0  501 -0.00000000000E+00  0.00000000000E+00  0.53004913132E+03  0.53004913132E+03  0.00000000000E+00 0.  1.
          3   -1    0    0  501    0  0.00000000000E+00 -0.00000000000E+00 -0.28983455274E+02  0.28983455274E+02  0.00000000000E+00 0. -1.
         25    2    1    2    0    0 -0.46956674150E+02  0.35217561369E+02  0.32326554182E+03  0.35155824077E+03  0.12508948897E+03 0.  0.
          5    1    3    3  502    0 -0.51793082144E+02  0.54148359188E+02  0.32297061175E+03  0.33157511459E+03  0.41800000000E+01 0.  1.
         -5    1    3    3    0  502  0.48364079948E+01 -0.18930797820E+02  0.29493007119E+00  0.19983126185E+02  0.41800000000E+01 0.  1.
        -11    1    1    2    0    0 -0.21595999620E+02 -0.29991865325E+02  0.47881816957E+02  0.60486094107E+02  0.00000000000E+00 0. -1.
         11    1    1    2    0    0  0.68552673769E+02 -0.52256960442E+01  0.12991831727E+03  0.14698825172E+03  0.00000000000E+00 0.  1.
</event>
<event>
 7    1  0.2666594E-009  0.9414026E+02  0.7561462E-02  0.1293124E+00
          4   -1    0    0  501    0  0.00000000000E+00  0.00000000000E+00  0.27527292593E+03  0.27527292593E+03  0.00000000000E+00 0.  1.
         -4   -1    0    0    0  501 -0.00000000000E+00 -0.00000000000E+00 -0.61338539285E+02  0.61338539285E+02  0.00000000000E+00 0. -1.
         25    2    1    2    0    0  0.12789195184E+02 -0.61515178427E+02  0.16253338500E+03  0.21450386642E+03  0.12508847580E+03 0.  0.
          5    1    3    3  502    0  0.45537407810E+02 -0.26746135061E+02  0.15764644847E+03  0.16630960996E+03  0.41800000000E+01 0.  1.
         -5    1    3    3    0  502 -0.32748212625E+02 -0.34769043366E+02  0.48869365341E+01  0.48194256457E+02  0.41800000000E+01 0.  1.
        -11    1    1    2    0    0 -0.28934893353E+02  0.64723691290E+02  0.68350983734E+02  0.98479648888E+02  0.00000000000E+00 0.  1.
         11    1    1    2    0    0  0.16145698169E+02 -0.32085128633E+01 -0.16949982090E+02  0.23627949911E+02  0.00000000000E+00 0. -1.
</event>
<event>
 7    1  0.2666594E-009  0.1429639E+03  0.7561462E-02  0.1209396E+00
         -2   -1    0    0    0  501 -0.00000000000E+00  0.00000000000E+00  0.12373153244E+03  0.12373153244E+03  0.00000000000E+00 0.  1.
          2   -1    0    0  501    0  0.00000000000E+00 -0.00000000000E+00 -0.29359982482E+03  0.29359982482E+03  0.00000000000E+00 0. -1.
         25    2    1    2    0    0 -0.80895224099E+02  0.70179594011E+02 -0.21382002944E+03  0.26988180505E+03  0.12509185029E+03 0.  0.
          5    1    3    3  502    0  0.20608077202E+02  0.30841357477E+02 -0.97910548796E+01  0.38590404671E+02  0.41800000000E+01 0. -1.
         -5    1    3    3    0  502 -0.10150330130E+03  0.39338236534E+02 -0.20402897456E+03  0.23129140038E+03  0.41800000000E+01 0. -1.
        -11    1    1    2    0    0  0.14372933328E+02  0.21820907509E+02  0.12684380842E+01  0.26159934100E+02  0.00000000000E+00 0. -1.
         11    1    1    2    0    0  0.66522290771E+02 -0.92000501520E+02  0.42683298972E+02  0.12128961811E+03  0.00000000000E+00 0.  1.
</event>
<event>
 7    1  0.2666594E-009  0.4300821E+03  0.7561462E-02  0.1033834E+00
          1   -1    0    0  501    0  0.00000000000E+00  0.00000000000E+00  0.46836530625E+03  0.46836530625E+03  0.00000000000E+00 0. -1.
         -1   -1    0    0    0  501 -0.00000000000E+00 -0.00000000000E+00 -0.40757414240E+03  0.40757414240E+03  0.00000000000E+00 0.  1.
         25    2    1    2    0    0  0.10664890581E+03 -0.40933540986E+03  0.22200149607E+02  0.44166691945E+03  0.12508938491E+03 0.  0.
          5    1    3    3  502    0 -0.20276811627E+02 -0.25521818659E+02  0.17780923504E+02  0.37365036573E+02  0.41800000000E+01 0. -1.
         -5    1    3    3    0  502  0.12692571744E+03 -0.38381359121E+03  0.44192261026E+01  0.40430188288E+03  0.41800000000E+01 0. -1.
        -11    1    1    2    0    0 -0.62724854706E+02  0.23210272141E+03 -0.23104987739E+02  0.24153658345E+03  0.00000000000E+00 0.  1.
         11    1    1    2    0    0 -0.43924051105E+02  0.17723268845E+03  0.61696001980E+02  0.19273594575E+03  0.00000000000E+00 0. -1.
</event>
<event>
 7    1  0.2666594E-009  0.1190531E+03  0.7561462E-02  0.1244667E+00
         -1   -1    0    0    0  501 -0.00000000000E+00  0.00000000000E+00  0.30134708777E+02  0.30134708777E+02  0.00000000000E+00 0.  1.
          1   -1    0    0  501    0  0.00000000000E+00 -0.00000000000E+00 -0.79917454574E+03  0.79917454574E+03  0.00000000000E+00 0. -1.
         25    2    1    2    0    0  0.91966888700E+02 -0.39755600534E+02 -0.53076238548E+03  0.55443150549E+03  0.12508864076E+03 0.  0.
          5    1    3    3  502    0  0.79895344824E+02 -0.49416581202E+02 -0.53012675496E+03  0.53840237123E+03  0.41800000000E+01 0.  1.
         -5    1    3    3    0  502  0.12071543876E+02  0.96609806678E+01 -0.63563052261E+00  0.16029134261E+02  0.41800000000E+01 0.  1.
        -11    1    1    2    0    0 -0.10576856093E+03  0.42489592315E+02 -0.23381222911E+03  0.26011634400E+03  0.00000000000E+00 0. -1.
         11    1    1    2    0    0  0.13801672230E+02 -0.27339917812E+01 -0.44652223700E+01  0.14761405022E+02  0.00000000000E+00 0.  1.
</event>
<event>
 7    1  0.2666594E-009  0.1737360E+03  0.7561462E-02  0.1174007E+00
          2   -1    0    0  501    0  0.00000000000E+00  0.00000000000E+00  0.84405533030E+03  0.84405533030E+03  0.00000000000E+00 0. -1.
         -2   -1    0    0    0  501 -0.00000000000E+00 -0.00000000000E+00 -0.51066398762E+02  0.51066398762E+02  0.00000000000E+00 0.  1.
         25    2    1    2    0    0  0.14376556500E+03 -0.91518142768E+02  0.31225657167E+03  0.37708881161E+03  0.12509075568E+03 0.  0.
          5    1    3    3  502    0  0.29950631898E+02 -0.39108394276E+02  0.20870993222E+03  0.21448499961E+03  0.41800000000E+01 0.  1.
         -5    1    3    3    0  502  0.11381493310E+03 -0.52409748492E+02  0.10354663945E+03  0.16260381199E+03  0.41800000000E+01 0.  1.
        -11    1    1    2    0    0 -0.56553832487E+02  0.20366222682E+02  0.29335041887E+03  0.29944546623E+03  0.00000000000E+00 0.  1.
         11    1    1    2    0    0 -0.87211732509E+02  0.71151920086E+02  0.18738194100E+03  0.21858745122E+03  0.00000000000E+00 0. -1.
</event>
<event>
 7    1  0.2666594E-009  0.9683812E+02  0.7561462E-02  0.1287089E+00
          2   -1    0    0  501    0  0.00000000000E+00  0.00000000000E+00  0.91970744531E+03  0.91970744531E+03  0.00000000000E+00 0. -1.
         -2   -1    0    0    0  501 -0.00000000000E+00 -0.00000000000E+00 -0.18547661350E+02  0.18547661350E+02  0.00000000000E+00 0.  1.
         25    2    1    2    0    0  0.29796575923E+02 -0.66365138505E+02  0.51439230215E+03  0.53435828153E+03  0.12508862852E+03 0.  0.
          5    1    3    3  502    0 -0.12654211915E+02 -0.12688251835E+02  0.40392401085E+03  0.40434292346E+03  0.41800000000E+01 0.  1.
         -5    1    3    3    0  502  0.42450787838E+02 -0.53676886670E+02  0.11046829130E+03  0.13001535807E+03  0.41800000000E+01 0.  1.
        -11    1    1    2    0    0  0.17196882719E+02  0.56012622405E+02  0.12909686689E+03  0.14177146287E+03  0.00000000000E+00 0.  1.
         11    1    1    2    0    0 -0.46993458642E+02  0.10352516100E+02  0.25767061493E+03  0.26212536226E+03  0.00000000000E+00 0. -1.
</event>
<event>
 7    1  0.3235854E-009  0.1530765E+03  0.7561462E-02  0.1196743E+00
          2   -1    0    0  501    0  0.00000000000E+00  0.00000000000E+00  0.96213513930E+03  0.96213513930E+03  0.00000000000E+00 0. -1.
         -2   -1    0    0    0  501 -0.00000000000E+00 -0.00000000000E+00 -0.32797821484E+02  0.32797821484E+02  0.00000000000E+00 0.  1.
         25    2    1    2    0    0 -0.11374362730E+03  0.72037984413E+02  0.60476975168E+03  0.63207713226E+03  0.12509182478E+03 0.  0.
          5    1    3    3  502    0 -0.88537800982E+02  0.95168008136E+01  0.16867528465E+03  0.19078347872E+03  0.41800000000E+01 0.  1.
         -5    1    3    3    0  502 -0.25205826319E+02  0.62521183599E+02  0.43609446703E+03  0.44129365354E+03  0.41800000000E+01 0.  1.
        -11    1    1    2    0    0  0.33331841167E+02 -0.59337112555E+02  0.22029105826E+03  0.23056464368E+03  0.00000000000E+00 0. -1.
         11    1    1    2    0    0  0.80411786134E+02 -0.12700871857E+02  0.10427650786E+03  0.13229118484E+03  0.00000000000E+00 0.  1.
</event>
<event>
 7    1  0.2666594E-009  0.1247793E+03  0.7561462E-02  0.1235415E+00
         -2   -1    0    0    0  501 -0.00000000000E+00  0.00000000000E+00  0.85628505893E+02  0.85628505893E+02  0.00000000000E+00 0.  1.
          2   -1    0    0  501    0  0.00000000000E+00 -0.00000000000E+00 -0.44412672007E+03  0.44412672007E+03  0.00000000000E+00 0. -1.
         25    2    1    2    0    0  0.85797636598E+02 -0.34049033412E+02 -0.36707786648E+03  0.39863901223E+03  0.12508529445E+03 0.  0.
          5    1    3    3  502    0  0.85273764135E+02  0.27761676055E+02 -0.17291924787E+03  0.19483547981E+03  0.41800000000E+01 0. -1.
         -5    1    3    3    0  502  0.52387246229E+00 -0.61810709467E+02 -0.19415861861E+03  0.20380353242E+03  0.41800000000E+01 0. -1.
        -11    1    1    2    0    0 -0.41078597715E+02  0.33659238054E+02 -0.38946530598E+02  0.65857632376E+02  0.00000000000E+00 0. -1.
         11    1    1    2    0    0 -0.44719038883E+02  0.38979535751E+00  0.47526182905E+02  0.65258581355E+02  0.00000000000E+00 0.  1.
</event>
<event>
 7    1  0.2666594E-009  0.1039867E+03  0.7561462E-02  0.1272129E+00
          2   -1    0    0  501    0  0.00000000000E+00  0.00000000000E+00  0.30990468861E+03  0.30990468861E+03  0.00000000000E+00 0. -1.
         -2   -1    0    0    0  501 -0.00000000000E+00 -0.00000000000E+00 -0.44247980477E+02  0.44247980477E+02  0.00000000000E+00 0.  1.
         25    2    1    2    0    0 -0.20769405567E+02  0.24604870416E+02  0.19702831225E+03  0.23560012172E+03  0.12510193313E+03 0.  0.
          5    1    3    3  502    0 -0.55068489361E+02  0.45757150566E+02  0.62591462148E+02  0.95191485345E+02  0.41800000000E+01 0.  1.
         -5    1    3    3    0  502  0.34299083794E+02 -0.21152280150E+02  0.13443685010E+03  0.14040863638E+03  0.41800000000E+01 0.  1.
        -11    1    1    2    0    0  0.55189620035E+02 -0.33599881382E+01  0.31434663610E+02  0.63602843931E+02  0.00000000000E+00 0.  1.
         11    1    1    2    0    0 -0.34420214468E+02 -0.21244882278E+02  0.37193732280E+02  0.54949703438E+02  0.00000000000E+00 0. -1.
</event>
<event>
 7    1  0.2666594E-009  0.1412936E+03  0.7561462E-02  0.1211599E+00
         -1   -1    0    0    0  501 -0.00000000000E+00  0.00000000000E+00  0.38978930121E+02  0.38978930121E+02  0.00000000000E+00 0.  1.
          1   -1    0    0  501    0  0.00000000000E+00 -0.00000000000E+00 -0.63203623945E+03  0.63203623945E+03  0.00000000000E+00 0. -1.
         25    2    1    2    0    0 -0.60389838724E+02  0.94390640624E+02 -0.34261205233E+03  0.38155733939E+03  0.12508580726E+03 0.  0.
          5    1    3    3  502    0 -0.60274678628E+02 -0.10659761289E+02 -0.15119406444E+03  0.16316796535E+03  0.41800000000E+01 0.  1.
         -5    1    3    3    0  502 -0.11516009613E+00  0.10505040191E+03 -0.19141798789E+03  0.21838937404E+03  0.41800000000E+01 0.  1.
        -11    1    1    2    0    0  0.63143714762E+02 -0.82474742849E+02 -0.25581663744E+03  0.27610027873E+03  0.00000000000E+00 0. -1.
         11    1    1    2    0    0 -0.27538760375E+01 -0.11915897775E+02  0.53713804439E+01  0.13357551456E+02  0.00000000000E+00 0.  1.
</event>
<event>
 7    1  0.2666594E-009  0.7315064E+02  0.7561462E-02  0.1349695E+00
          1   -1    0    0  501    0  0.00000000000E+00  0.00000000000E+00  0.16249321591E+03  0.16249321591E+03  0.00000000000E+00 0. -1.
         -1   -1    0    0    0  501 -0.00000000000E+00 -0.00000000000E+00 -0.82716631425E+02  0.82716631425E+02  0.00000000000E+00 0.  1.
         25    2    1    2    0    0 -0.10875947055E+02  0.25540791856E+01  0.87761149349E+02  0.15321421728E+03  0.12509103683E+03 0.  0.
          5    1    3    3  502    0  0.17897138986E+02  0.34760904475E+02 -0.14673353058E+02  0.41969128580E+02  0.41800000000E+01 0.  1.
         -5    1    3    3    0  502 -0.28773086041E+02 -0.32206825289E+02  0.10243450241E+03  0.11124508870E+03  0.41800000000E+01 0.  1.
        -11    1    1    2    0    0  0.36826791620E+02 -0.63313239229E+01  0.28548600300E+02  0.47024683122E+02  0.00000000000E+00 0. -1.
         11    1    1    2    0    0 -0.25950844565E+02  0.37772447373E+01 -0.36533165165E+02  0.44970946937E+02  0.00000000000E+00 0.  1.
</event>
<event>
 7    1  0.2666594E-009  0.1023733E+03  0.7561462E-02  0.1275383E+00
         -1   -1    0    0    0  501 -0.00000000000E+00  0.00000000000E+00  0.20220447453E+02  0.20220447453E+02  0.00000000000E+00 0.  1.
          1   -1    0    0  501    0  0.00000000000E+00 -0.00000000000E+00 -0.11458346362E+04  0.11458346362E+04  0.00000000000E+00 0. -1.
         25    2    1    2    0    0 -0.76470462821E+02 -0.33124649672E+02 -0.86059639895E+03  0.87362234637E+03  0.12507944708E+03 0.  0.
          5    1    3    3  502    0 -0.56409206576E+02 -0.95011907596E+01 -0.12690291419E+03  0.13926267713E+03  0.41800000000E+01 0. -1.
         -5    1    3    3    0  502 -0.20061256244E+02 -0.23623458912E+02 -0.73369348477E+03  0.73435966924E+03  0.41800000000E+01 0. -1.
        -11    1    1    2    0    0  0.61227611137E+02  0.59677898241E+02 -0.14281117204E+03  0.16644909961E+03  0.00000000000E+00 0.  1.
         11    1    1    2    0    0  0.15242851684E+02 -0.26553248569E+02 -0.12220661775E+03  0.12598363766E+03  0.00000000000E+00 0. -1.
</event>
<event>
 7    1  0.2666594E-009  0.1355981E+03  0.7561462E-02  0.1219378E+00
          1   -1    0    0  501    0  0.00000000000E+00  0.00000000000E+00  0.27411715801E+03  0.27411715801E+03  0.00000000000E+00 0. -1.
         -1   -1    0    0    0  501 -0.00000000000E+00 -0.00000000000E+00 -0.15223601289E+03  0.15223601289E+03  0.00000000000E+00 0.  1.
         25    2    1    2    0    0  0.71707523839E+02  0.47904747746E+02 -0.92041619986E+02  0.17763908731E+03  0.12508857541E+03 0.  0.
          5    1    3    3  502    0  0.48761125962E+02 -0.34243004985E+02 -0.64509462036E+02  0.87915720367E+02  0.41800000000E+01 0. -1.
         -5    1    3    3    0  502  0.22946397877E+02  0.82147752732E+02 -0.27532157951E+02  0.89723366944E+02  0.41800000000E+01 0. -1.
        -11    1    1    2    0    0 -0.67949849696E+02 -0.73560649201E+02  0.18042805740E+03  0.20635560346E+03  0.00000000000E+00 0.  1.
         11    1    1    2    0    0 -0.37576741432E+01  0.25655901455E+02  0.33494707701E+02  0.42358480124E+02  0.00000000000E+00 0. -1.
</event>
<event>
 7    1  0.2666594E-009  0.9521376E+02  0.7561462E-02  0.1290695E+00
          2   -1    0    0  501    0  0.00000000000E+00  0.00000000000E+00  0.49083602274E+03  0.49083602274E+03  0.00000000000E+00 0. -1.
         -2   -1    0    0    0  501 -0.00000000000E+00 -0.00000000000E+00 -0.34453222992E+02  0.34453222992E+02  0.00000000000E+00 0.  1.
         25    2    1    2    0    0 -0.10791489351E+02  0.54671015620E+02  0.15162335623E+03  0.20430872465E+03  0.12508811544E+03 0.  0.
          5    1    3    3  502    0 -0.41519750494E+02  0.68583895280E+01  0.13986610319E+03  0.14611956204E+03  0.41800000000E+01 0.  1.
         -5    1    3    3    0  502  0.30728261143E+02  0.47812626092E+02  0.11757253035E+02  0.58189162613E+02  0.41800000000E+01 0.  1.
        -11    1    1    2    0    0 -0.30332247631E+02 -0.14347495643E+02  0.18587763740E+03  0.18888195245E+03  0.00000000000E+00 0.  1.
         11    1    1    2    0    0  0.41123736982E+02 -0.40323519977E+02  0.11888180613E+03  0.13209856863E+03  0.00000000000E+00 0. -1.
</event>
<event>
 7    1  0.2666594E-009  0.1206405E+03  0.7561462E-02  0.1242044E+00
          1   -1    0    0  501    0  0.00000000000E+00  0.00000000000E+00  0.13855197320E+03  0.13855197320E+03  0.00000000000E+00 0. -1.
         -1   -1    0    0    0  501 -0.00000000000E+00 -0.00000000000E+00 -0.15128101593E+03  0.15128101593E+03  0.00000000000E+00 0.  1.
         25    2    1    2    0    0 -0.21445159237E+02 -0.66640176578E+02  0.58945580537E+02  0.15499228991E+03  0.12508885033E+03 0.  0.
          5    1    3    3  502    0  0.36789783119E+02  0.11499690863E+02  0.39848139439E+02  0.55597460811E+02  0.41800000000E+01 0.  1.
         -5    1    3    3    0  502 -0.58234942356E+02 -0.78139867441E+02  0.19097441098E+02  0.99394829098E+02  0.41800000000E+01 0.  1.
        -11    1    1    2    0    0  0.51123586233E+02  0.37766887759E+02 -0.16156014597E+02  0.65581824372E+02  0.00000000000E+00 0.  1.
         11    1    1    2    0    0 -0.29678426996E+02  0.28873288819E+02 -0.55518608667E+02  0.69258874843E+02  0.00000000000E+00 0. -1.
</event>
<event>
 7    1  0.2666594E-009  0.1096385E+03  0.7561462E-02  0.1261241E+00
         -1   -1    0    0    0  501 -0.00000000000E+00  0.00000000000E+00  0.84796056941E+02  0.84796056941E+02  0.00000000000E+00 0.  1.
          1   -1    0    0  501    0  0.00000000000E+00 -0.00000000000E+00 -0.34280441075E+03  0.34280441075E+03  0.00000000000E+00 0. -1.
         25    2    1    2    0    0 -0.53026768460E+02 -0.24903836062E+02 -0.28632179990E+03  0.31789877848E+03  0.12508965200E+03 0.  0.
          5    1    3    3  502    0  0.38211000479E+02  0.67054927447E+01 -0.57352707042E+02  0.69367496679E+02  0.41800000000E+01 0.  1.
         -5    1    3    3    0  502 -0.91237768939E+02 -0.31609328807E+02 -0.22896909286E+03  0.24853128180E+03  0.41800000000E+01 0.  1.
        -11    1    1    2    0    0  0.45271626017E+02  0.43918093145E+02  0.49513608025E+02  0.80186759551E+02  0.00000000000E+00 0.  1.
         11    1    1    2    0    0  0.77551424433E+01 -0.19014257083E+02 -0.21200161929E+02  0.29514929655E+02  0.00000000000E+00 0. -1.
</event>
<event>
 7    1  0.2666594E-009  0.1581453E+03  0.7561462E-02  0.1190807E+00
          1   -1    0    0  501    0  0.00000000000E+00  0.00000000000E+00  0.47364624738E+03  0.47364624738E+03  0.00000000000E+00 0. -1.
         -1   -1    0    0    0  501 -0.00000000000E+00 -0.00000000000E+00 -0.59821593613E+02  0.59821593613E+02  0.00000000000E+00 0.  1.
         25    2    1    2    0    0  0.75970346661E+02  0.10415613797E+03  0.21410340266E+03  0.27947685447E+03  0.12508817093E+03 0.  0.
          5    1    3    3  502    0  0.52556516699E+02  0.12258035026E+03  0.21042532829E+03  0.24916745555E+03  0.41800000000E+01 0. -1.
         -5    1    3    3    0  502  0.23413829962E+02 -0.18424212292E+02  0.36780743670E+01  0.30309398923E+02  0.41800000000E+01 0. -1.
        -11    1    1    2    0    0  0.17889907905E+02 -0.17254192626E+02  0.14132686012E+02  0.28591760735E+02  0.00000000000E+00 0. -1.
         11    1    1    2    0    0 -0.93860254566E+02 -0.86901945339E+02  0.18558856509E+03  0.22539922578E+03  0.00000000000E+00 0.  1.
</event>
<event>
 7    1  0.2666594E-009  0.1128144E+03  0.7561462E-02  0.1255445E+00
          2   -1    0    0  501    0  0.00000000000E+00  0.00000000000E+00  0.51460891691E+03  0.51460891691E+03  0.00000000000E+00 0. -1.
         -2   -1    0    0    0  501 -0.00000000000E+00 -0.00000000000E+00 -0.36746783971E+02  0.36746783971E+02  0.00000000000E+00 0.  1.
         25    2    1    2    0    0 -0.17838335680E+02 -0.61443147200E+02  0.37735177291E+03  0.40266092669E+03  0.12509194542E+03 0.  0.
          5    1    3    3  502    0  0.43317635711E+02 -0.46919822352E+02  0.10373920282E+03  0.12189004018E+03  0.41800000000E+01 0. -1.
         -5    1    3    3    0  502 -0.61155971391E+02 -0.14523324848E+02  0.27361257009E+03  0.28077088651E+03  0.41800000000E+01 0. -1.
        -11    1    1    2    0    0  0.11623040973E+02  0.79084413956E+02  0.48674595925E+02  0.93587690968E+02  0.00000000000E+00 0.  1.
         11    1    1    2    0    0  0.62152947074E+01 -0.17641266756E+02  0.51835764107E+02  0.55107083225E+02  0.00000000000E+00 0. -1.
</event>
<event>
 7    1  0.2666594E-009  0.1466426E+03  0.7561462E-02  0.1204660E+00
          2   -1    0    0  501    0  0.00000000000E+00  0.00000000000E+00  0.23965974602E+03  0.23965974602E+03  0.00000000000E+00 0.  1.
         -2   -1    0    0    0  501 -0.00000000000E+00 -0.00000000000E+00 -0.13636777163E+03  0.13636777163E+03  0.00000000000E+00 0. -1.
         25    2    1    2    0    0  0.10891490259E+03 -0.70741806007E+02 -0.10771694645E+02  0.18063875395E+03  0.12508985130E+03 0.  0.
          5    1    3    3  502    0  0.88827007937E+02 -0.39548101660E+02  0.49922283838E+02  0.10938005535E+03  0.41800000000E+01 0. -1.
         -5    1    3    3    0  502  0.20087894657E+02 -0.31193704348E+02 -0.60693978483E+02  0.71258698604E+02  0.41800000000E+01 0. -1.
        -11    1    1    2    0    0 -0.11180833409E+03  0.87276804233E+02  0.10276503934E+03  0.17515421045E+03  0.00000000000E+00 0.  1.
         11    1    1    2    0    0  0.28934314925E+01 -0.16534998225E+02  0.11298629690E+02  0.20234553244E+02  0.00000000000E+00 0. -1.
</event>
<event>
 7    1  0.2666594E-009  0.2386886E+03  0.7561462E-02  0.1120670E+00
          1   -1    0    0  501    0  0.00000000000E+00  0.00000000000E+00  0.53744679349E+03  0.53744679349E+03  0.00000000000E+00 0. -1.
         -1   -1    0    0    0  501 -0.00000000000E+00 -0.00000000000E+00 -0.10688549878E+03  0.10688549878E+03  0.00000000000E+00 0.  1.
         25    2    1    2    0    0  0.20646225569E+03  0.53117647241E+02  0.20680448561E+03  0.32227934352E+03  0.12509089703E+03 0.  0.
          5    1    3    3  502    0  0.10621299350E+03  0.89762165993E+02  0.13277873951E+03  0.19231773839E+03  0.41800000000E+01 0. -1.
         -5    1    3    3    0  502  0.10024926219E+03 -0.36644518752E+02  0.74025746102E+02  0.12996160514E+03  0.41800000000E+01 0. -1.
        -11    1    1    2    0    0 -0.11107656318E+03  0.17904738724E+02  0.11536641252E+03  0.16114587086E+03  0.00000000000E+00 0.  1.
         11    1    1    2    0    0 -0.95385692507E+02 -0.71022385965E+02  0.10839039658E+03  0.16090707788E+03  0.00000000000E+00 0. -1.
</event>
<event>
 7    1  0.2666594E-009  0.1208017E+03  0.7561462E-02  0.1241780E+00
          2   -1    0    0  501    0  0.00000000000E+00  0.00000000000E+00  0.70579560874E+03  0.70579560874E+03  0.00000000000E+00 0.  1.
         -2   -1    0    0    0  501 -0.00000000000E+00 -0.00000000000E+00 -0.35593545401E+02  0.35593545401E+02  0.00000000000E+00 0. -1.
         25    2    1    2    0    0  0.43158795164E+02 -0.10740658740E+03  0.36311125986E+03  0.40111877263E+03  0.12509047165E+03 0.  0.
          5    1    3    3  502    0  0.58011767884E+01 -0.58903844788E+02  0.38440436814E+02  0.70699760717E+02  0.41800000000E+01 0. -1.
         -5    1    3    3    0  502  0.37357618375E+02 -0.48502742607E+02  0.32467082305E+03  0.33041901191E+03  0.41800000000E+01 0. -1.
        -11    1    1    2    0    0 -0.47373502321E+02  0.78472934827E+02  0.29450019513E+03  0.30843575531E+03  0.00000000000E+00 0.  1.
         11    1    1    2    0    0  0.42147071572E+01  0.28933652568E+02  0.12590608354E+02  0.31834626213E+02  0.00000000000E+00 0. -1.
</event>
<event>
 7    1  0.2666594E-009  0.8542173E+02  0.7561462E-02  0.1314333E+00
          3   -1    0    0  501    0  0.00000000000E+00  0.00000000000E+00  0.18153846564E+02  0.18153846564E+02  0.00000000000E+00 0.  1.
         -3   -1    0    0    0  501 -0.00000000000E+00 -0.00000000000E+00 -0.71335956639E+03  0.71335956639E+03  0.00000000000E+00 0. -1.
         25    2    1    2    0    0 -0.21167528456E+02  0.19907660732E+02 -0.44671259878E+03  0.46480468699E+03  0.12508745710E+03 0.  0.
          5    1    3    3  502    0 -0.51828171585E+02 -0.26257094185E+01 -0.76007919267E+02  0.92128876641E+02  0.41800000000E+01 0.  1.
         -5    1    3    3    0  502  0.30660643129E+02  0.22533370151E+02 -0.37070467951E+03  0.37267581035E+03  0.41800000000E+01 0.  1.
        -11    1    1    2    0    0  0.32581624590E+02 -0.43467139622E+02 -0.22522633139E+03  0.23168481788E+03  0.00000000000E+00 0. -1.
         11    1    1    2    0    0 -0.11414096133E+02  0.23559478890E+02 -0.23266789661E+02  0.35023908081E+02  0.00000000000E+00 0.  1.
</event>
<event>
 7    1  0.2666594E-009  0.1133902E+03  0.7561462E-02  0.1254418E+00
         -2   -1    0    0    0  501 -0.00000000000E+00  0.00000000000E+00  0.13093879394E+03  0.13093879394E+03  0.00000000000E+00 0.  1.
          2   -1    0    0  501    0  0.00000000000E+00 -0.00000000000E+00 -0.22081532114E+03  0.22081532114E+03  0.00000000000E+00 0. -1.
         25    2    1    2    0    0 -0.49953569297E+02  0.59505502524E+02  0.60501591370E+02  0.15919924494E+03  0.12509073953E+03 0.  0.
          5    1    3    3  502    0 -0.32429710345E+02  0.85776041033E+02  0.80073027829E+02  0.12181287910E+03  0.41800000000E+01 0. -1.
         -5    1    3    3    0  502 -0.17523858952E+02 -0.26270538509E+02 -0.19571436459E+02  0.37386365846E+02  0.41800000000E+01 0. -1.
        -11    1    1    2    0    0  0.47925088984E+02 -0.45550118422E+01 -0.22067256095E+02  0.52957776375E+02  0.00000000000E+00 0.  1.
         11    1    1    2    0    0  0.20284803134E+01 -0.54950490682E+02 -0.12831086247E+03  0.13959709376E+03  0.00000000000E+00 0. -1.
</event>
<event>
 7    1  0.2666594E-009  0.1885689E+03  0.7561462E-02  0.1159758E+00
         -1   -1    0    0    0  501 -0.00000000000E+00  0.00000000000E+00  0.58536372816E+02  0.58536372816E+02  0.00000000000E+00 0.  1.
          1   -1    0    0  501    0  0.00000000000E+00 -0.00000000000E+00 -0.65628345478E+03  0.65628345478E+03  0.00000000000E+00 0. -1.
         25    2    1    2    0    0  0.12667206148E+03  0.10200940567E+03 -0.33330165268E+03  0.39139532455E+03  0.12509427804E+03 0.  0.
          5    1    3    3  502    0  0.14243118424E+03  0.71878009053E+02 -0.21205492654E+03  0.26540130878E+03  0.41800000000E+01 0.  1.
         -5    1    3    3    0  502 -0.15759122762E+02  0.30131396612E+02 -0.12124672614E+03  0.12599401578E+03  0.41800000000E+01 0.  1.
        -11    1    1    2    0    0 -0.73672940734E+02 -0.10715158587E+03 -0.21188584736E+03  0.24860566538E+03  0.00000000000E+00 0.  1.
         11    1    1    2    0    0 -0.52999120743E+02  0.51421802016E+01 -0.52559581928E+02  0.74818837662E+02  0.00000000000E+00 0. -1.
</event>
<event>
 7    1  0.2666594E-009  0.1423023E+03  0.7561462E-02  0.1210264E+00
         -1   -1    0    0    0  501 -0.00000000000E+00  0.00000000000E+00  0.53470806610E+02  0.53470806610E+02  0.00000000000E+00 0.  1.
          1   -1    0    0  501    0  0.00000000000E+00 -0.00000000000E+00 -0.38540617324E+03  0.38540617324E+03  0.00000000000E+00 0. -1.
         25    2    1    2    0    0  0.56738732058E+02 -0.72300258658E+02 -0.20598710974E+03  0.25792309686E+03  0.12508806258E+03 0.  0.
          5    1    3    3  502    0  0.14135966351E+02 -0.10168904052E+03 -0.14679949996E+03  0.17918719847E+03  0.41800000000E+01 0. -1.
         -5    1    3    3    0  502  0.42602765706E+02  0.29388781861E+02 -0.59187609774E+02  0.78735898393E+02  0.41800000000E+01 0. -1.
        -11    1    1    2    0    0 -0.14189416318E+02 -0.22167619522E+02 -0.25390702664E+02  0.36570899258E+02  0.00000000000E+00 0. -1.
         11    1    1    2    0    0 -0.42549315740E+02  0.94467878180E+02 -0.10055755423E+03  0.14438298373E+03  0.00000000000E+00 0.  1.
</event>
<event>
 7    1  0.2666594E-009  0.1595351E+03  0.7561462E-02  0.1189223E+00
         -2   -1    0    0    0  501 -0.00000000000E+00  0.00000000000E+00  0.13996348683E+03  0.13996348683E+03  0.00000000000E+00 0.  1.
          2   -1    0    0  501    0  0.00000000000E+00 -0.00000000000E+00 -0.18883746744E+03  0.18883746744E+03  0.00000000000E+00 0. -1.
         25    2    1    2    0    0 -0.58011448660E+02  0.10460528550E+03 -0.81243609165E+01  0.17326273529E+03  0.12508547586E+03 0.  0.
          5    1    3    3  502    0 -0.10130398569E+02  0.12045928510E+03  0.47166193586E+01  0.12104868128E+03  0.41800000000E+01 0.  1.
         -5    1    3    3    0  502 -0.47881050091E+02 -0.15853999604E+02 -0.12840980275E+02  0.52214054006E+02  0.41800000000E+01 0.  1.
        -11    1    1    2    0    0  0.80093432856E+02 -0.69569863494E+02 -0.42012911252E+02  0.11410525231E+03  0.00000000000E+00 0. -1.
         11    1    1    2    0    0 -0.22081984196E+02 -0.35035422003E+02  0.12632915556E+01  0.41432966663E+02  0.00000000000E+00 0.  1.
</event>
<event>
 7    1  0.2666594E-009  0.7260632E+02  0.7561462E-02  0.1351448E+00
         -2   -1    0    0    0  501 -0.00000000000E+00  0.00000000000E+00  0.13116728418E+03  0.13116728418E+03  0.00000000000E+00 0.  1.
          2   -1    0    0  501    0  0.00000000000E+00 -0.00000000000E+00 -0.11739467517E+03  0.11739467517E+03  0.00000000000E+00 0. -1.
         25    2    1    2    0    0 -0.11937095784E+02 -0.62501274378E+02  0.30480865063E+02  0.14361562734E+03  0.12508981464E+03 0.  0.
          5    1    3    3  502    0  0.17197057355E+02 -0.79391871045E+01 -0.43181344544E+02  0.47337832547E+02  0.41800000000E+01 0.  1.
         -5    1    3    3    0  502 -0.29134153138E+02 -0.54562087273E+02  0.73662209607E+02  0.96277794797E+02  0.41800000000E+01 0.  1.
        -11    1    1    2    0    0  0.11563426737E+02  0.50205735296E+02 -0.48562108893E+02  0.70799767758E+02  0.00000000000E+00 0. -1.
         11    1    1    2    0    0  0.37366904638E+00  0.12295539081E+02  0.31853852840E+02  0.34146564258E+02  0.00000000000E+00 0.  1.
</event>
<event>
 7    1  0.2666594E-009  0.1596815E+03  0.7561462E-02  0.1189057E+00
          1   -1    0    0  501    0  0.00000000000E+00  0.00000000000E+00  0.11360942530E+03  0.11360942530E+03  0.00000000000E+00 0. -1.
         -1   -1    0    0    0  501 -0.00000000000E+00 -0.00000000000E+00 -0.28846488800E+03  0.28846488800E+03  0.00000000000E+00 0.  1.
         25    2    1    2    0    0 -0.69171752878E+02 -0.11290551744E+03 -0.23830782961E+02  0.18370932684E+03  0.12509525685E+03 0.  0.
          5    1    3    3  502    0 -0.22868189734E+02  0.24048485443E+02  0.10506121788E+02  0.35059018081E+02  0.41800000000E+01 0. -1.
         -5    1    3    3    0  502 -0.46303563144E+02 -0.13695400288E+03 -0.34336904749E+02  0.14865030876E+03  0.41800000000E+01 0. -1.
        -11    1    1    2    0    0  0.28344930573E+02  0.90243420731E+02 -0.14228769976E+03  0.17085988288E+03  0.00000000000E+00 0.  1.
         11    1    1    2    0    0  0.40826822305E+02  0.22662096711E+02 -0.87369799757E+01  0.47505103578E+02  0.00000000000E+00 0. -1.
</event>
<event>
 7    1  0.2666594E-009  0.1048934E+03  0.7561462E-02  0.1270330E+00
          1   -1    0    0  501    0  0.00000000000E+00  0.00000000000E+00  0.65129099217E+02  0.65129099217E+02  0.00000000000E+00 0. -1.
         -1   -1    0    0    0  501 -0.00000000000E+00 -0.00000000000E+00 -0.25883672182E+03  0.25883672182E+03  0.00000000000E+00 0.  1.
         25    2    1    2    0    0 -0.71049971547E+02 -0.70561157245E+01 -0.11139675050E+03  0.18209004527E+03  0.12509860646E+03 0.  0.
          5    1    3    3  502    0 -0.98780496062E+02 -0.26024082435E+02 -0.54432128381E+02  0.11582386744E+03  0.41800000000E+01 0. -1.
         -5    1    3    3    0  502  0.27730524515E+02  0.18967966710E+02 -0.56964622123E+02  0.66266177833E+02  0.41800000000E+01 0. -1.
        -11    1    1    2    0    0  0.49867301423E+02  0.13299738414E+02  0.49656154129E+01  0.51848704223E+02  0.00000000000E+00 0. -1.
         11    1    1    2    0    0  0.21182670124E+02 -0.62436226892E+01 -0.87276487509E+02  0.90027071539E+02  0.00000000000E+00 0.  1.
</event>
<event>
 7    1  0.3297481E-009  0.1095401E+03  0.7561462E-02  0.1261424E+00
         -2   -1    0    0    0  501 -0.00000000000E+00  0.00000000000E+00  0.46157833108E+02  0.46157833108E+02  0.00000000000E+00 0.  1.
          2   -1    0    0  501    0  0.00000000000E+00 -0.00000000000E+00 -0.37285589512E+03  0.37285589512E+03  0.00000000000E+00 0. -1.
         25    2    1    2    0    0 -0.36585394183E+02 -0.25791910423E+02 -0.87361815307E+02  0.15900732242E+03  0.12509007994E+03 0.  0.
          5    1    3    3  502    0 -0.78617536076E+02 -0.13319334475E+02 -0.82310523048E+02  0.11467613638E+03  0.41800000000E+01 0. -1.
         -5    1    3    3    0  502  0.42032141894E+02 -0.12472575948E+02 -0.50512922591E+01  0.44331186048E+02  0.41800000000E+01 0. -1.
        -11    1    1    2    0    0  0.61540640235E+02  0.33554525578E+01 -0.10699293700E+03  0.12347468579E+03  0.00000000000E+00 0.  1.
         11    1    1    2    0    0 -0.24955246052E+02  0.22436457865E+02 -0.13234330971E+03  0.13653172002E+03  0.00000000000E+00 0. -1.
</event>
<event>
 7    1  0.2666594E-009  0.1175926E+03  0.7561462E-02  0.1247122E+00
          1   -1    0    0  501    0  0.00000000000E+00  0.00000000000E+00  0.13161581074E+03  0.13161581074E+03  0.00000000000E+00 0. -1.
         -1   -1    0    0    0  501 -0.00000000000E+00 -0.00000000000E+00 -0.22538356514E+03  0.22538356514E+03  0.00000000000E+00 0.  1.
         25    2    1    2    0    0  0.88034315938E+02 -0.51717777206E+02 -0.15937358711E+03  0.22687245693E+03  0.12508557943E+03 0.  0.
          5    1    3    3  502    0 -0.46295150823E+01  0.12294669527E+02  0.14282323791E+02  0.19850654436E+02  0.41800000000E+01 0. -1.
         -5    1    3    3    0  502  0.92663831020E+02 -0.64012446733E+02 -0.17365591090E+03  0.20702180249E+03  0.41800000000E+01 0. -1.
        -11    1    1    2    0    0 -0.47776339413E+02  0.66005910883E+01  0.45766201944E+02  0.66488282057E+02  0.00000000000E+00 0.  1.
         11    1    1    2    0    0 -0.40257976525E+02  0.45117186117E+02  0.19839630772E+02  0.63638636897E+02  0.00000000000E+00 0. -1.
</event>
<event>
 7    1  0.2666594E-009  0.1409617E+03  0.7561462E-02  0.1212041E+00
         -2   -1    0    0    0  501 -0.00000000000E+00  0.00000000000E+00  0.10513593260E+03  0.10513593260E+03  0.00000000000E+00 0.  1.
          2   -1    0    0  501    0  0.00000000000E+00 -0.00000000000E+00 -0.19767471720E+03  0.19767471720E+03  0.00000000000E+00 0. -1.
         25    2    1    2    0    0  0.37531727656E+02 -0.82718876671E+02 -0.73099268468E+02  0.17100854999E+03  0.12509747391E+03 0.  0.
          5    1    3    3  502    0  0.83106764270E+02 -0.42434807509E+02 -0.48667418187E+02  0.10532538701E+03  0.41800000000E+01 0.  1.
         -5    1    3    3    0  502 -0.45575036614E+02 -0.40284069162E+02 -0.24431850281E+02  0.65683162978E+02  0.41800000000E+01 0.  1.
        -11    1    1    2    0    0 -0.36316724550E+02  0.10197637563E+03 -0.62522689578E+01  0.10843051478E+03  0.00000000000E+00 0.  1.
         11    1    1    2    0    0 -0.12150031059E+01 -0.19257498959E+02 -0.13187247179E+02  0.23371585031E+02  0.00000000000E+00 0. -1.
</event>
<event>
 7    1  0.2666594E-009  0.6996318E+02  0.7561462E-02  0.1360218E+00
          3   -1    0    0  501    0  0.00000000000E+00  0.00000000000E+00  0.10185062374E+03  0.10185062374E+03  0.00000000000E+00 0. -1.
         -3   -1    0    0    0  501 -0.00000000000E+00 -0.00000000000E+00 -0.11903958029E+03  0.11903958029E+03  0.00000000000E+00 0.  1.
         25    2    1    2    0    0 -0.10761154544E+02  0.10680786911E+02  0.52889133338E+01  0.12611605011E+03  0.12508958324E+03 0.  0.
          5    1    3    3  502    0 -0.31071204494E+02 -0.16351517090E+02 -0.49960273659E+02  0.61206970223E+02  0.41800000000E+01 0.  1.
         -5    1    3    3    0  502  0.20310049950E+02  0.27032304002E+02  0.55249186993E+02  0.64909079888E+02  0.41800000000E+01 0.  1.
        -11    1    1    2    0    0  0.32803140275E+02  0.15494302474E+02 -0.41903001538E+02  0.55425454071E+02  0.00000000000E+00 0.  1.
         11    1    1    2    0    0 -0.22041985731E+02 -0.26175089386E+02  0.19425131660E+02  0.39348699843E+02  0.00000000000E+00 0. -1.
</event>
<event>
 7    1  0.2666594E-009  0.1232884E+03  0.7561462E-02  0.1237769E+00
          4   -1    0    0  501    0  0.00000000000E+00  0.00000000000E+00  0.78156041420E+02  0.78156041420E+02  0.00000000000E+00 0. -1.
         -4   -1    0    0    0  501 -0.00000000000E+00 -0.00000000000E+00 -0.33831773102E+03  0.33831773102E+03  0.00000000000E+00 0.  1.
         25    2    1    2    0    0 -0.50382060309E+02  0.48317799550E+02 -0.12639965298E+02  0.14380584821E+03  0.12508953394E+03 0.  0.
          5    1    3    3  502    0  0.37925937438E+02  0.34769181852E+02  0.74009178869E+01  0.52149005003E+02  0.41800000000E+01 0. -1.
         -5    1    3    3    0  502 -0.88307997747E+02  0.13548617698E+02 -0.20040883185E+02  0.91656843205E+02  0.41800000000E+01 0. -1.
        -11    1    1    2    0    0  0.67710407407E+01 -0.59989692222E+02 -0.86829236239E+02  0.10575408470E+03  0.00000000000E+00 0.  1.
         11    1    1    2    0    0  0.43611019568E+02  0.11671892672E+02 -0.16069248806E+03  0.16691383952E+03  0.00000000000E+00 0. -1.
</event>
<event>
 7    1  0.2666594E-009  0.1125875E+03  0.7561462E-02  0.1255852E+00
          1   -1    0    0  501    0  0.00000000000E+00  0.00000000000E+00  0.98423956974E+02  0.98423956974E+02  0.00000000000E+00 0. -1.
         -1   -1    0    0    0  501 -0.00000000000E+00 -0.00000000000E+00 -0.23208690660E+03  0.23208690660E+03  0.00000000000E+00 0.  1.
         25    2    1    2    0    0  0.29722499810E+02 -0.17581621923E+02 -0.18035116078E+03  0.22218727228E+03  0.12509237524E+03 0.  0.
          5    1    3    3  502    0  0.11466826140E+02 -0.71533718424E+02 -0.96713455716E+02  0.12091123145E+03  0.41800000000E+01 0.  1.
         -5    1    3    3    0  502  0.18255673670E+02  0.53952096501E+02 -0.83637705064E+02  0.10127604083E+03  0.41800000000E+01 0.  1.
        -11    1    1    2    0    0 -0.20266071424E+02 -0.35878975465E+02  0.88457688149E+01  0.42145725255E+02  0.00000000000E+00 0. -1.
         11    1    1    2    0    0 -0.94564283860E+01  0.53460597387E+02  0.37842442343E+02  0.66177866038E+02  0.00000000000E+00 0.  1.
</event>
<event>
 7    1  0.2666594E-009  0.4584537E+02  0.7561462E-02  0.1469132E+00
          3   -1    0    0  501    0  0.00000000000E+00  0.00000000000E+00  0.17459083117E+03  0.17459083117E+03  0.00000000000E+00 0.  1.
         -3   -1    0    0    0  501 -0.00000000000E+00 -0.00000000000E+00 -0.70794247956E+02  0.70794247956E+02  0.00000000000E+00 0. -1.
         25    2    1    2    0    0 -0.41453354120E+02  0.46710663631E+01  0.82829835663E+02  0.15572151253E+03  0.12509279899E+03 0.  0.
          5    1    3    3  502    0 -0.30337184059E+01  0.97123760414E+01 -0.32327491460E+02  0.34147808126E+02  0.41800000000E+01 0.  1.
         -5    1    3    3    0  502 -0.38419635714E+02 -0.50413096783E+01  0.11515732712E+03  0.12157370440E+03  0.41800000000E+01 0.  1.
        -11    1    1    2    0    0  0.26508647745E+02 -0.31252214551E+01  0.50166243297E+02  0.56825411402E+02  0.00000000000E+00 0.  1.
         11    1    1    2    0    0  0.14944706374E+02 -0.15458449079E+01 -0.29199495745E+02  0.32838155199E+02  0.00000000000E+00 0. -1.
</event>
<event>
 7    1  0.2666594E-009  0.1172215E+03  0.7561462E-02  0.1247752E+00
          2   -1    0    0  501    0  0.00000000000E+00  0.00000000000E+00  0.99178980269E+03  0.99178980269E+03  0.00000000000E+00 0. -1.
         -2   -1    0    0    0  501 -0.00000000000E+00 -0.00000000000E+00 -0.21515977522E+02  0.21515977522E+02  0.00000000000E+00 0.  1.
         25    2    1    2    0    0  0.14269999961E+02  0.89320391864E+02  0.62846014344E+03  0.64714239858E+03  0.12509742939E+03 0.  0.
          5    1    3    3  502    0  0.81171902619E+01 -0.17443667958E+02  0.32071693696E+03  0.32132070643E+03  0.41800000000E+01 0.  1.
         -5    1    3    3    0  502  0.61528096987E+01  0.10676405982E+03  0.30774320648E+03  0.32582169215E+03  0.41800000000E+01 0.  1.
        -11    1    1    2    0    0  0.22965880961E+02 -0.35754165400E+02  0.24968936973E+03  0.25327963476E+03  0.00000000000E+00 0. -1.
         11    1    1    2    0    0 -0.37235880922E+02 -0.53566226464E+02  0.92124311995E+02  0.11288374686E+03  0.00000000000E+00 0.  1.
</event>
<event>
 7    1  0.2666594E-009  0.1897124E+03  0.7561462E-02  0.1158721E+00
          2   -1    0    0  501    0  0.00000000000E+00  0.00000000000E+00  0.17535367184E+04  0.17535367184E+04  0.00000000000E+00 0.  1.
         -2   -1    0    0    0  501 -0.00000000000E+00 -0.00000000000E+00 -0.27687155521E+02  0.27687155521E+02  0.00000000000E+00 0. -1.
         25    2    1    2    0    0  0.10748747874E+03 -0.15108747355E+03  0.70124820894E+03  0.73605479645E+03  0.12508649039E+03 0.  0.
          5    1    3    3  502    0  0.78364645758E+02 -0.12478556465E+03  0.31488769591E+03  0.34768403513E+03  0.41800000000E+01 0. -1.
         -5    1    3    3    0  502  0.29122832981E+02 -0.26301908892E+02  0.38636051303E+03  0.38837076131E+03  0.41800000000E+01 0. -1.
        -11    1    1    2    0    0  0.12309051304E+01  0.29182064068E+02  0.58825872496E+02  0.65677935912E+02  0.00000000000E+00 0. -1.
         11    1    1    2    0    0 -0.10871838387E+03  0.12190540948E+03  0.96577548147E+03  0.97949114160E+03  0.00000000000E+00 0.  1.
</event>
<event>
 7    1  0.2666594E-009  0.9549897E+02  0.7561462E-02  0.1290056E+00
          1   -1    0    0  501    0  0.00000000000E+00  0.00000000000E+00  0.75669922536E+02  0.75669922536E+02  0.00000000000E+00 0. -1.
         -1   -1    0    0    0  501 -0.00000000000E+00 -0.00000000000E+00 -0.19246819017E+03  0.19246819017E+03  0.00000000000E+00 0.  1.
         25    2    1    2    0    0  0.13967656885E+02 -0.16594546556E+02 -0.75840838699E+01  0.12718238628E+03  0.12508943456E+03 0.  0.
          5    1    3    3  502    0  0.21536483818E+02  0.44270445845E+02 -0.34305415588E+02  0.60150032828E+02  0.41800000000E+01 0.  1.
         -5    1    3    3    0  502 -0.75688269330E+01 -0.60864992401E+02  0.26721331718E+02  0.67032353456E+02  0.41800000000E+01 0.  1.
        -11    1    1    2    0    0  0.15732567562E+01 -0.30490085911E+02 -0.13963269074E+02  0.33572211111E+02  0.00000000000E+00 0. -1.
         11    1    1    2    0    0 -0.15540913641E+02  0.47084632467E+02 -0.95250914692E+02  0.10738351531E+03  0.00000000000E+00 0.  1.
</event>
<event>
 7    1  0.2666594E-009  0.1109429E+03  0.7561462E-02  0.1258834E+00
         -1   -1    0    0    0  501 -0.00000000000E+00  0.00000000000E+00  0.17690065296E+03  0.17690065296E+03  0.00000000000E+00 0.  1.
          1   -1    0    0  501    0  0.00000000000E+00 -0.00000000000E+00 -0.10152609568E+03  0.10152609568E+03  0.00000000000E+00 0. -1.
         25    2    1    2    0    0 -0.18535029337E+02  0.40012357665E+02  0.11924440042E+03  0.17835884967E+03  0.12509243041E+03 0.  0.
          5    1    3    3  502    0  0.48712018312E+02  0.42958516889E+02  0.62247747485E+02  0.90058588531E+02  0.41800000000E+01 0. -1.
         -5    1    3    3    0  502 -0.67247047649E+02 -0.29461592241E+01  0.56996652939E+02  0.88300261143E+02  0.41800000000E+01 0. -1.
        -11    1    1    2    0    0 -0.85029392700E+01 -0.56868060105E+02 -0.33571733916E+02  0.66583312882E+02  0.00000000000E+00 0.  1.
         11    1    1    2    0    0  0.27037968607E+02  0.16855702440E+02 -0.10298109230E+02  0.33484586078E+02  0.00000000000E+00 0. -1.
</event>
<event>
 7    1  0.2666594E-009  0.1139614E+03  0.7561462E-02  0.1253405E+00
         -2   -1    0    0    0  501 -0.00000000000E+00  0.00000000000E+00  0.18283348237E+03  0.18283348237E+03  0.00000000000E+00 0.  1.
          2   -1    0    0  501    0  0.00000000000E+00 -0.00000000000E+00 -0.19346483534E+03  0.19346483534E+03  0.00000000000E+00 0. -1.
         25    2    1    2    0    0  0.54558433918E+02  0.17909495987E+02 -0.14733937841E+03  0.20162748061E+03  0.12508947098E+03 0.  0.
          5    1    3    3  502    0 -0.11461290287E+02 -0.42979817342E+02 -0.69941904613E+02  0.82993784675E+02  0.41800000000E+01 0. -1.
         -5    1    3    3    0  502  0.66019724205E+02  0.60889313330E+02 -0.77397473796E+02  0.11863369594E+03  0.41800000000E+01 0. -1.
        -11    1    1    2    0    0 -0.52724873142E+02 -0.43087677249E+02  0.50313443707E+02  0.84663467896E+02  0.00000000000E+00 0. -1.
         11    1    1    2    0    0 -0.18335607758E+01  0.25178181262E+02  0.86394581731E+02  0.90007369194E+02  0.00000000000E+00 0.  1.
</event>
<event>
 7    1  0.2666594E-009  0.1101702E+03  0.7561462E-02  0.1260255E+00
         -3   -1    0    0    0  501 -0.00000000000E+00  0.00000000000E+00  0.47332899160E+03  0.47332899160E+03  0.00000000000E+00 0.  1.
          3   -1    0    0  501    0  0.00000000000E+00 -0.00000000000E+00 -0.41375659803E+02  0.41375659803E+02  0.00000000000E+00 0. -1.
         25    2    1    2    0    0 -0.87474366325E+02 -0.13576046718E+02  0.20001880401E+03  0.25197400841E+03  0.12508918877E+03 0.  0.
          5    1    3    3  502    0 -0.82320059124E+02  0.26736972418E+02  0.19156576919E+03  0.21025311925E+03  0.41800000000E+01 0. -1.
         -5    1    3    3    0  502 -0.51543072006E+01 -0.40313019136E+02  0.84530348232E+01  0.41720889160E+02  0.41800000000E+01 0. -1.
        -11    1    1    2    0    0  0.36360668813E+02 -0.81965816693E+01  0.17428345697E+02  0.41146438744E+02  0.00000000000E+00 0. -1.
         11    1    1    2    0    0  0.51113697511E+02  0.21772628388E+02  0.21450618209E+03  0.22158420426E+03  0.00000000000E+00 0.  1.
</event>
<event>
 7    1  0.2666594E-009  0.9225718E+02  0.7561462E-02  0.1297476E+00
         -1   -1    0    0    0  501 -0.00000000000E+00  0.00000000000E+00  0.17850486201E+03  0.17850486201E+03  0.00000000000E+00 0.  1.
          1   -1    0    0  501    0  0.00000000000E+00 -0.00000000000E+00 -0.69767653238E+02  0.69767653238E+02  0.00000000000E+00 0. -1.
         25    2    1    2    0    0 -0.14943446631E+02  0.20259001253E+02  0.54056152488E+02  0.13857679119E+03  0.12509086980E+03 0.  0.
          5    1    3    3  502    0  0.18008479741E+02  0.64776015521E+02  0.10901136912E+02  0.68238879792E+02  0.41800000000E+01 0. -1.
         -5    1    3    3    0  502 -0.32951926372E+02 -0.44517014268E+02  0.43155015576E+02  0.70337911402E+02  0.41800000000E+01 0. -1.
        -11    1    1    2    0    0 -0.17677730602E+02  0.70831608728E+01  0.63442266411E+02  0.66238919787E+02  0.00000000000E+00 0.  1.
         11    1    1    2    0    0  0.32621177233E+02 -0.27342162125E+02 -0.87612101306E+01  0.43456804263E+02  0.00000000000E+00 0. -1.
</event>
<event>
 7    1  0.2666594E-009  0.1190585E+03  0.7561462E-02  0.1244658E+00
         -2   -1    0    0    0  501 -0.00000000000E+00  0.00000000000E+00  0.90697938465E+02  0.90697938465E+02  0.00000000000E+00 0.  1.
          2   -1    0    0  501    0  0.00000000000E+00 -0.00000000000E+00 -0.23163398691E+03  0.23163398691E+03  0.00000000000E+00 0. -1.
         25    2    1    2    0    0  0.75918586723E+02  0.44331899310E+02 -0.33542847728E+02  0.15652052801E+03  0.12507839121E+03 0.  0.
          5    1    3    3  502    0  0.94858220996E+02  0.61638177473E+02  0.11023831762E+01  0.11320792667E+03  0.41800000000E+01 0.  1.
         -5    1    3    3    0  502 -0.18939634273E+02 -0.17306278163E+02 -0.34645230904E+02  0.43312601338E+02  0.41800000000E+01 0.  1.
        -11    1    1    2    0    0 -0.29022720468E+02 -0.43159202482E+02 -0.38678237962E+01  0.52153572487E+02  0.00000000000E+00 0.  1.
         11    1    1    2    0    0 -0.46895866255E+02 -0.11726968282E+01 -0.10352537692E+03  0.11365782488E+03  0.00000000000E+00 0. -1.
</event>
<event>
 7    1  0.2666594E-009  0.1348766E+03  0.7561462E-02  0.1220394E+00
         -2   -1    0    0    0  501 -0.00000000000E+00  0.00000000000E+00  0.38298946072E+03  0.38298946072E+03  0.00000000000E+00 0.  1.
          2   -1    0    0  501    0  0.00000000000E+00 -0.00000000000E+00 -0.58604427104E+02  0.58604427104E+02  0.00000000000E+00 0. -1.
         25    2    1    2    0    0 -0.57686431585E+02  0.76069624997E+02  0.12304688036E+03  0.19975423221E+03  0.12508759444E+03 0.  0.
          5    1    3    3  502    0 -0.91430318736E+02  0.78592007996E+02  0.79628847684E+02  0.14454906672E+03  0.41800000000E+01 0. -1.
         -5    1    3    3    0  502  0.33743887151E+02 -0.25223829983E+01  0.43418032674E+02  0.55205165495E+02  0.41800000000E+01 0. -1.
        -11    1    1    2    0    0  0.62985020385E+02 -0.32028650290E+02  0.56836063249E+02  0.90682331896E+02  0.00000000000E+00 0. -1.
         11    1    1    2    0    0 -0.52985888008E+01 -0.44040974708E+02  0.14450209001E+03  0.15115732372E+03  0.00000000000E+00 0.  1.
</event>
<event>
 7    1  0.2666594E-009  0.1462064E+03  0.7561462E-02  0.1205214E+00
         -2   -1    0    0    0  501 -0.00000000000E+00  0.00000000000E+00  0.42573728981E+02  0.42573728981E+02  0.00000000000E+00 0.  1.
          2   -1    0    0  501    0  0.00000000000E+00 -0.00000000000E+00 -0.52666251711E+03  0.52666251711E+03  0.00000000000E+00 0. -1.
         25    2    1    2    0    0 -0.39694317683E+02  0.94099143115E+02 -0.23876639951E+03  0.28824965926E+03  0.12509270535E+03 0.  0.
          5    1    3    3  502    0 -0.59066615182E+02 -0.70632609685E+00 -0.56502621834E+02  0.81849756259E+02  0.41800000000E+01 0.  1.
         -5    1    3    3    0  502  0.19372297499E+02  0.94805469212E+02 -0.18226377768E+03  0.20639990300E+03  0.41800000000E+01 0.  1.
        -11    1    1    2    0    0  0.64200949167E+02 -0.91385708460E+02 -0.18951513336E+03  0.21997521532E+03  0.00000000000E+00 0.  1.
         11    1    1    2    0    0 -0.24506631485E+02 -0.27134346543E+01 -0.55807255256E+02  0.61011371510E+02  0.00000000000E+00 0. -1.
</event>
<event>
 7    1  0.2666594E-009  0.1306530E+03  0.7561462E-02  0.1226490E+00
          4   -1    0    0  501    0  0.00000000000E+00  0.00000000000E+00  0.89662757809E+02  0.89662757809E+02  0.00000000000E+00 0. -1.
         -4   -1    0    0    0  501 -0.00000000000E+00 -0.00000000000E+00 -0.33241369052E+03  0.33241369052E+03  0.00000000000E+00 0.  1.
         25    2    1    2    0    0  0.10004829593E+03  0.45020785681E+02 -0.40277316331E+02  0.17118893844E+03  0.12508740054E+03 0.  0.
          5    1    3    3  502    0  0.42009484397E+02  0.37462244798E+02  0.41841992246E+02  0.70259812693E+02  0.41800000000E+01 0.  1.
         -5    1    3    3    0  502  0.58038811528E+02  0.75585408834E+01 -0.82119308577E+02  0.10092912575E+03  0.41800000000E+01 0.  1.
        -11    1    1    2    0    0 -0.39879439995E+02  0.30082355474E+02 -0.89380166871E+02  0.10239205084E+03  0.00000000000E+00 0. -1.
         11    1    1    2    0    0 -0.60168855930E+02 -0.75103141155E+02 -0.11309344951E+03  0.14849545905E+03  0.00000000000E+00 0.  1.
</event>
<event>
 7    1  0.2666594E-009  0.3059356E+03  0.7561462E-02  0.1082311E+00
         -2   -1    0    0    0  501 -0.00000000000E+00  0.00000000000E+00  0.35829339363E+02  0.35829339363E+02  0.00000000000E+00 0.  1.
          2   -1    0    0  501    0  0.00000000000E+00 -0.00000000000E+00 -0.27209973935E+04  0.27209973935E+04  0.00000000000E+00 0. -1.
         25    2    1    2    0    0 -0.11378111957E+03  0.26816402025E+03 -0.12438155001E+04  0.12835818986E+04  0.12508959665E+03 0.  0.
          5    1    3    3  502    0  0.32430052612E+01  0.14848594278E+03 -0.53395189166E+03  0.55423883596E+03  0.41800000000E+01 0.  1.
         -5    1    3    3    0  502 -0.11702412483E+03  0.11967807747E+03 -0.70986360844E+03  0.72934306263E+03  0.41800000000E+01 0.  1.
        -11    1    1    2    0    0  0.10909622665E+03 -0.20245011417E+03 -0.12470294974E+04  0.12680578074E+04  0.00000000000E+00 0.  1.
         11    1    1    2    0    0  0.46848929166E+01 -0.65713906081E+02 -0.19432305664E+03  0.20518702692E+03  0.00000000000E+00 0. -1.
</event>
<event>
 7    1  0.2666594E-009  0.1850103E+03  0.7561462E-02  0.1163040E+00
         -1   -1    0    0    0  501 -0.00000000000E+00  0.00000000000E+00  0.88541238598E+02  0.88541238598E+02  0.00000000000E+00 0.  1.
          1   -1    0    0  501    0  0.00000000000E+00 -0.00000000000E+00 -0.62419986137E+03  0.62419986137E+03  0.00000000000E+00 0. -1.
         25    2    1    2    0    0 -0.47065584375E+02 -0.16451144758E+03 -0.45095501655E+03  0.49828370142E+03  0.12508810708E+03 0.  0.
          5    1    3    3  502    0  0.26717975015E+02 -0.24490830943E+02 -0.26022888419E+02  0.44814217731E+02  0.41800000000E+01 0. -1.
         -5    1    3    3    0  502 -0.73783559390E+02 -0.14002061664E+03 -0.42493212813E+03  0.45346948369E+03  0.41800000000E+01 0. -1.
        -11    1    1    2    0    0  0.37174270384E+02  0.62501133227E+02 -0.85137864061E+02  0.11196773611E+03  0.00000000000E+00 0. -1.
         11    1    1    2    0    0  0.98913139909E+01  0.10201031435E+03  0.43425783429E+00  0.10248966244E+03  0.00000000000E+00 0.  1.
</event>
<event>
 7    1  0.2666594E-009  0.1852786E+03  0.7561462E-02  0.1162790E+00
          1   -1    0    0  501    0  0.00000000000E+00  0.00000000000E+00  0.19815153306E+04  0.19815153306E+04  0.00000000000E+00 0. -1.
         -1   -1    0    0    0  501 -0.00000000000E+00 -0.00000000000E+00 -0.24068109846E+02  0.24068109846E+02  0.00000000000E+00 0.  1.
         25    2    1    2    0    0  0.54011055809E+02  0.15333944007E+03  0.14631390979E+04  0.14774484111E+04  0.12509040537E+03 0.  0.
          5    1    3    3  502    0 -0.64144216255E+01 -0.19375961371E+02  0.20687605580E+03  0.20792245561E+03  0.41800000000E+01 0.  1.
         -5    1    3    3    0  502  0.60425477435E+02  0.17271540144E+03  0.12562630421E+04  0.12695259555E+04  0.41800000000E+01 0.  1.
        -11    1    1    2    0    0 -0.17067254882E+02 -0.10215451557E+03  0.40961033555E+03  0.42250143578E+03  0.00000000000E+00 0. -1.
         11    1    1    2    0    0 -0.36943800927E+02 -0.51184924496E+02  0.84697787251E+02  0.10563359356E+03  0.00000000000E+00 0.  1.
</event>
<event>
 7    1  0.2666594E-009  0.1111807E+03  0.7561462E-02  0.1258399E+00
          1   -1    0    0  501    0  0.00000000000E+00  0.00000000000E+00  0.91037114307E+03  0.91037114307E+03  0.00000000000E+00 0. -1.
         -1   -1    0    0    0  501 -0.00000000000E+00 -0.00000000000E+00 -0.18262749399E+02  0.18262749399E+02  0.00000000000E+00 0.  1.
         25    2    1    2    0    0 -0.31946449923E+01  0.63408411727E+02  0.58619539418E+03  0.60274596222E+03  0.12508725908E+03 0.  0.
          5    1    3    3  502    0  0.47104130369E+02  0.26108490025E+02  0.44454818977E+03  0.44781806326E+03  0.41800000000E+01 0.  1.
         -5    1    3    3    0  502 -0.50298775362E+02  0.37299921702E+02  0.14164720441E+03  0.15492789897E+03  0.41800000000E+01 0.  1.
        -11    1    1    2    0    0  0.24051548698E+01  0.21017500884E+02  0.26000240914E+02  0.33519138428E+02  0.00000000000E+00 0. -1.
         11    1    1    2    0    0  0.78949012255E+00 -0.84425912611E+02  0.27991275858E+03  0.29236879182E+03  0.00000000000E+00 0.  1.
</event>
<event>
 7    1  0.2666594E-009  0.1366653E+03  0.7561462E-02  0.1217888E+00
          1   -1    0    0  501    0  0.00000000000E+00  0.00000000000E+00  0.43091779249E+03  0.43091779249E+03  0.00000000000E+00 0. -1.
         -1   -1    0    0    0  501 -0.00000000000E+00 -0.00000000000E+00 -0.54844932305E+02  0.54844932305E+02  0.00000000000E+00 0.  1.
         25    2    1    2    0    0  0.23330532430E+02 -0.10392099413E+03  0.24098680337E+03  0.29166261700E+03  0.12509418848E+03 0.  0.
          5    1    3    3  502    0 -0.29708866156E+02 -0.90555836637E+02  0.90519908025E+02  0.13150780367E+03  0.41800000000E+01 0. -1.
         -5    1    3    3    0  502  0.53039398586E+02 -0.13365157496E+02  0.15046689535E+03  0.16015481333E+03  0.41800000000E+01 0. -1.
        -11    1    1    2    0    0 -0.41212301055E+02  0.42891700276E+02  0.11130883179E+03  0.12620541884E+03  0.00000000000E+00 0.  1.
         11    1    1    2    0    0  0.17881768625E+02  0.61029293857E+02  0.23777225021E+02  0.67894688950E+02  0.00000000000E+00 0. -1.
</event>
<event>
 7    1  0.2666594E-009  0.1088651E+03  0.7561462E-02  0.1262686E+00
          3   -1    0    0  501    0  0.00000000000E+00  0.00000000000E+00  0.86326154830E+02  0.86326154830E+02  0.00000000000E+00 0. -1.
         -3   -1    0    0    0  501 -0.00000000000E+00 -0.00000000000E+00 -0.14257467969E+03  0.14257467969E+03  0.00000000000E+00 0.  1.
         25    2    1    2    0    0 -0.23279102213E+01  0.60019791318E+01 -0.36164879186E+02  0.13037159159E+03  0.12508960983E+03 0.  0.
          5    1    3    3  502    0 -0.57798136499E+02 -0.23083467781E+02 -0.15353548403E+02  0.64239200774E+02  0.41800000000E+01 0.  1.
         -5    1    3    3    0  502  0.55470226278E+02  0.29085446912E+02 -0.20811330784E+02  0.66132390811E+02  0.41800000000E+01 0.  1.
        -11    1    1    2    0    0  0.14284950927E+02  0.41346859124E+02 -0.23346501776E+02  0.49585095821E+02  0.00000000000E+00 0.  1.
         11    1    1    2    0    0 -0.11957040706E+02 -0.47348838255E+02  0.32628561044E+01  0.48944147112E+02  0.00000000000E+00 0. -1.
</event>
<event>
 7    1  0.2666594E-009  0.7178608E+02  0.7561462E-02  0.1354123E+00
         -2   -1    0    0    0  501 -0.00000000000E+00  0.00000000000E+00  0.41504431483E+02  0.41504431483E+02  0.00000000000E+00 0.  1.
          2   -1    0    0  501    0  0.00000000000E+00 -0.00000000000E+00 -0.26469645174E+03  0.26469645174E+03  0.00000000000E+00 0. -1.
         25    2    1    2    0    0  0.31546927602E+02 -0.16714819619E+02 -0.12295840362E+03  0.17900104013E+03  0.12509200418E+03 0.  0.
          5    1    3    3  502    0  0.22879787936E+02 -0.52428114479E+02 -0.12932237418E+03  0.14147063564E+03  0.41800000000E+01 0. -1.
         -5    1    3    3    0  502  0.86671396656E+01  0.35713294860E+02  0.63639705649E+01  0.37530404489E+02  0.41800000000E+01 0. -1.
        -11    1    1    2    0    0 -0.17434389473E+02 -0.92062706013E+01 -0.95248908563E+02  0.97268021143E+02  0.00000000000E+00 0. -1.
         11    1    1    2    0    0 -0.14112538129E+02  0.25921090220E+02 -0.49847080726E+01  0.29931821949E+02  0.00000000000E+00 0.  1.
</event>
<event>
 7    1  0.2666594E-009  0.1887740E+03  0.7561462E-02  0.1159572E+00
          2   -1    0    0  501    0  0.00000000000E+00  0.00000000000E+00  0.31966949365E+03  0.31966949365E+03  0.00000000000E+00 0. -1.
         -2   -1    0    0    0  501 -0.00000000000E+00 -0.00000000000E+00 -0.12318759720E+03  0.12318759720E+03  0.00000000000E+00 0.  1.
         25    2    1    2    0    0 -0.13624279858E+03  0.83188759113E+02  0.54370450247E+02  0.20995973936E+03  0.12507788168E+03 0.  0.
          5    1    3    3  502    0 -0.15711494036E+03  0.88479862004E+02  0.43775132138E+02  0.18560044466E+03  0.41800000000E+01 0.  1.
         -5    1    3    3    0  502  0.20872141785E+02 -0.52911028906E+01  0.10595318109E+02  0.24359294701E+02  0.41800000000E+01 0.  1.
        -11    1    1    2    0    0  0.87889875954E+02 -0.11301646498E+02  0.35344882141E+02  0.95402401450E+02  0.00000000000E+00 0. -1.
         11    1    1    2    0    0  0.48352922622E+02 -0.71887112615E+02  0.10676656405E+03  0.13749495004E+03  0.00000000000E+00 0.  1.
</event>
<event>
 7    1  0.2666594E-009  0.1069803E+03  0.7561462E-02  0.1266266E+00
         -2   -1    0    0    0  501 -0.00000000000E+00  0.00000000000E+00  0.20317830304E+03  0.20317830304E+03  0.00000000000E+00 0.  1.
          2   -1    0    0  501    0  0.00000000000E+00 -0.00000000000E+00 -0.10365590836E+03  0.10365590836E+03  0.00000000000E+00 0. -1.
         25    2    1    2    0    0 -0.30193846972E+02  0.55620817897E+02  0.13217367482E+03  0.19267528285E+03  0.12509412667E+03 0.  0.
          5    1    3    3  502    0 -0.26527509933E+02 -0.37705060717E+02  0.36968988114E+02  0.59241529935E+02  0.41800000000E+01 0.  1.
         -5    1    3    3    0  502 -0.36663370390E+01  0.93325878614E+02  0.95204686702E+02  0.13343375291E+03  0.41800000000E+01 0.  1.
        -11    1    1    2    0    0 -0.65462026267E+01 -0.26501144817E+02  0.26929728352E+02  0.38345452333E+02  0.00000000000E+00 0.  1.
         11    1    1    2    0    0  0.36740049599E+02 -0.29119673080E+02 -0.59581008483E+02  0.75813476221E+02  0.00000000000E+00 0. -1.
</event>
<event>
 7    1  0.2666594E-009  0.8367197E+02  0.7561462E-02  0.1318942E+00
         -1   -1    0    0    0  501 -0.00000000000E+00  0.00000000000E+00  0.45154866178E+03  0.45154866178E+03  0.00000000000E+00 0.  1.
          1   -1    0    0  501    0  0.00000000000E+00 -0.00000000000E+00 -0.18235984897E+02  0.18235984897E+02  0.00000000000E+00 0. -1.
         25    2    1    2    0    0 -0.25046681869E+02 -0.19064839983E+02  0.25388239555E+03  0.28477107249E+03  0.12508992190E+03 0.  0.
          5    1    3    3  502    0  0.93207375666E+01 -0.66630938896E+02  0.10603006945E+03  0.12564396601E+03  0.41800000000E+01 0. -1.
         -5    1    3    3    0  502 -0.34367419436E+02  0.47566098913E+02  0.14785232610E+03  0.15912710649E+03  0.41800000000E+01 0. -1.
        -11    1    1    2    0    0  0.14810550594E+02 -0.44436697609E+01  0.34144457077E+02  0.37482563399E+02  0.00000000000E+00 0.  1.
         11    1    1    2    0    0  0.10236131275E+02  0.23508509743E+02  0.14528582425E+03  0.14753101078E+03  0.00000000000E+00 0. -1.
</event>
<event>
 7    1  0.2666594E-009  0.1063666E+03  0.7561462E-02  0.1267450E+00
         -2   -1    0    0    0  501 -0.00000000000E+00  0.00000000000E+00  0.61384684896E+02  0.61384684896E+02  0.00000000000E+00 0.  1.
          2   -1    0    0  501    0  0.00000000000E+00 -0.00000000000E+00 -0.30337646639E+03  0.30337646639E+03  0.00000000000E+00 0. -1.
         25    2    1    2    0    0 -0.32938143137E+02  0.42111247350E+02 -0.47063906648E+02  0.14394498650E+03  0.12508744702E+03 0.  0.
          5    1    3    3  502    0 -0.69367812544E+02  0.51285423739E+02 -0.58661845960E+02  0.10440676547E+03  0.41800000000E+01 0.  1.
         -5    1    3    3    0  502  0.36429669408E+02 -0.91741763885E+01  0.11597939312E+02  0.39538221025E+02  0.41800000000E+01 0.  1.
        -11    1    1    2    0    0 -0.48240185477E+01 -0.49796280002E+02 -0.49537118201E+02  0.70405019257E+02  0.00000000000E+00 0.  1.
         11    1    1    2    0    0  0.37762161684E+02  0.76850326518E+01 -0.14539075664E+03  0.15041114553E+03  0.00000000000E+00 0. -1.
</event>
<event>
 7    1  0.2666594E-009  0.1368140E+03  0.7561462E-02  0.1217681E+00
         -1   -1    0    0    0  501 -0.00000000000E+00  0.00000000000E+00  0.26743893016E+02  0.26743893016E+02  0.00000000000E+00 0.  1.
          1   -1    0    0  501    0  0.00000000000E+00 -0.00000000000E+00 -0.72401799820E+03  0.72401799820E+03  0.00000000000E+00 0. -1.
         25    2    1    2    0    0 -0.52927192480E+02 -0.67623162684E+02 -0.36200860291E+03  0.39252038055E+03  0.12509132956E+03 0.  0.
          5    1    3    3  502    0 -0.87988092742E+02 -0.73587002229E+02 -0.25399056152E+03  0.27872141845E+03  0.41800000000E+01 0.  1.
         -5    1    3    3    0  502  0.35060900261E+02  0.59638395442E+01 -0.10801804139E+03  0.11379896210E+03  0.41800000000E+01 0.  1.
        -11    1    1    2    0    0  0.73884853284E+02  0.29542659059E+02 -0.17601927792E+03  0.19316968304E+03  0.00000000000E+00 0. -1.
         11    1    1    2    0    0 -0.20957660804E+02  0.38080503625E+02 -0.15924622436E+03  0.16507182762E+03  0.00000000000E+00 0.  1.
</event>
<event>
 7    1  0.2666594E-009  0.1107635E+03  0.7561462E-02  0.1259163E+00
         -1   -1    0    0    0  501 -0.00000000000E+00  0.00000000000E+00  0.10667344528E+04  0.10667344528E+04  0.00000000000E+00 0.  1.
          1   -1    0    0  501    0  0.00000000000E+00 -0.00000000000E+00 -0.15963867524E+02  0.15963867524E+02  0.00000000000E+00 0. -1.
         25    2    1    2    0    0  0.76916965042E+01 -0.27379307966E+02  0.85716308946E+03  0.86670927461E+03  0.12509043155E+03 0.  0.
          5    1    3    3  502    0  0.34398969831E+01  0.49604723221E+02  0.39517886956E+03  0.39831679955E+03  0.41800000000E+01 0. -1.
         -5    1    3    3    0  502  0.42517995211E+01 -0.76984031187E+02  0.46198421990E+03  0.46839247506E+03  0.41800000000E+01 0. -1.
        -11    1    1    2    0    0 -0.45370661924E+02  0.33289623877E+02  0.97246455579E+02  0.11235465787E+03  0.00000000000E+00 0. -1.
         11    1    1    2    0    0  0.37678965419E+02 -0.59103159111E+01  0.96361040260E+02  0.10363438787E+03  0.00000000000E+00 0.  1.
</event>
<event>
 7    1  0.2666594E-009  0.1237620E+03  0.7561462E-02  0.1237017E+00
         -1   -1    0    0    0  501 -0.00000000000E+00  0.00000000000E+00  0.28985537774E+02  0.28985537774E+02  0.00000000000E+00 0.  1.
          1   -1    0    0  501    0  0.00000000000E+00 -0.00000000000E+00 -0.72844549205E+03  0.72844549205E+03  0.00000000000E+00 0. -1.
         25    2    1    2    0    0  0.58610294883E+02  0.60220036929E+02 -0.50399398834E+03  0.52604056589E+03  0.12508843737E+03 0.  0.
          5    1    3    3  502    0  0.79399881953E+02 -0.46446482589E+01 -0.22033543876E+03  0.23428848026E+03  0.41800000000E+01 0.  1.
         -5    1    3    3    0  502 -0.20789587070E+02  0.64864685188E+02 -0.28365854958E+03  0.29175208562E+03  0.41800000000E+01 0.  1.
        -11    1    1    2    0    0 -0.37148548680E+02 -0.15694405715E+01 -0.14894102353E+03  0.15351190932E+03  0.00000000000E+00 0. -1.
         11    1    1    2    0    0 -0.21461746204E+02 -0.58650596357E+02 -0.46524942401E+02  0.77878554613E+02  0.00000000000E+00 0.  1.
</event>
<event>
 7    1  0.2666594E-009  0.1076411E+03  0.7561462E-02  0.1265002E+00
          2   -1    0    0  501    0  0.00000000000E+00  0.00000000000E+00  0.44179404611E+03  0.44179404611E+03  0.00000000000E+00 0. -1.
         -2   -1    0    0    0  501 -0.00000000000E+00 -0.00000000000E+00 -0.48074887382E+02  0.48074887382E+02  0.00000000000E+00 0.  1.
         25    2    1    2    0    0 -0.14259666155E+02  0.74643936355E+02  0.11299437595E+03  0.18490448451E+03  0.12508750570E+03 0.  0.
          5    1    3    3  502    0 -0.43554042202E+02  0.45445011979E+02  0.12636401545E+03  0.14123576214E+03  0.41800000000E+01 0.  1.
         -5    1    3    3    0  502  0.29294376048E+02  0.29198924377E+02 -0.13369639508E+02  0.43668722369E+02  0.41800000000E+01 0.  1.
        -11    1    1    2    0    0 -0.32929792499E+02 -0.20436586750E+02  0.15855276521E+03  0.16322072377E+03  0.00000000000E+00 0. -1.
         11    1    1    2    0    0  0.47189458654E+02 -0.54207349605E+02  0.12217201757E+03  0.14174372521E+03  0.00000000000E+00 0.  1.
</event>
<event>
 7    1  0.2666594E-009  0.8246863E+02  0.7561462E-02  0.1322188E+00
         -1   -1    0    0    0  501 -0.00000000000E+00  0.00000000000E+00  0.25930296734E+03  0.25930296734E+03  0.00000000000E+00 0.  1.
          1   -1    0    0  501    0  0.00000000000E+00 -0.00000000000E+00 -0.72410438918E+02  0.72410438918E+02  0.00000000000E+00 0. -1.
         25    2    1    2    0    0  0.80214042218E+01  0.11050116669E+02  0.20211296167E+03  0.23807965378E+03  0.12508326932E+03 0.  0.
          5    1    3    3  502    0 -0.16895029290E+02  0.43889116232E+02  0.19936050239E+02  0.51250512558E+02  0.41800000000E+01 0. -1.
         -5    1    3    3    0  502  0.24916433512E+02 -0.32838999563E+02  0.18217691143E+03  0.18682914122E+03  0.41800000000E+01 0. -1.
        -11    1    1    2    0    0 -0.37043829124E+02  0.12308544609E+02  0.18669935422E+02  0.43270221113E+02  0.00000000000E+00 0.  1.
         11    1    1    2    0    0  0.29022424902E+02 -0.23358661278E+02 -0.33890368664E+02  0.50363531370E+02  0.00000000000E+00 0. -1.
</event>
<event>
 7    1  0.2666594E-009  0.1188907E+03  0.7561462E-02  0.1244938E+00
         -2   -1    0    0    0  501 -0.00000000000E+00  0.00000000000E+00  0.10199694975E+02  0.10199694975E+02  0.00000000000E+00 0.  1.
          2   -1    0    0  501    0  0.00000000000E+00 -0.00000000000E+00 -0.16497000133E+04  0.16497000133E+04  0.00000000000E+00 0. -1.
         25    2    1    2    0    0 -0.27286846306E+02 -0.59503111505E+02 -0.10920197406E+04  0.11011083572E+04  0.12508920089E+03 0.  0.
          5    1    3    3  502    0 -0.43830278591E+02  0.17260235854E+02 -0.19517538343E+03  0.20082308572E+03  0.41800000000E+01 0.  1.
         -5    1    3    3    0  502  0.16543432285E+02 -0.76763347359E+02 -0.89684435717E+03  0.90028527148E+03  0.41800000000E+01 0.  1.
        -11    1    1    2    0    0 -0.16971876003E+02  0.65068664519E+02 -0.33233924717E+03  0.33907425571E+03  0.00000000000E+00 0. -1.
         11    1    1    2    0    0  0.44258722309E+02 -0.55655530140E+01 -0.21514133053E+03  0.21971709533E+03  0.00000000000E+00 0.  1.
</event>
<event>
 7    1  0.2666594E-009  0.9584197E+02  0.7561462E-02  0.1289291E+00
         -1   -1    0    0    0  501 -0.00000000000E+00  0.00000000000E+00  0.52906635501E+02  0.52906635501E+02  0.00000000000E+00 0.  1.
          1   -1    0    0  501    0  0.00000000000E+00 -0.00000000000E+00 -0.30750784489E+03  0.30750784489E+03  0.00000000000E+00 0. -1.
         25    2    1    2    0    0 -0.57709998464E+02  0.30004009057E+02 -0.14546747246E+03  0.20257901324E+03  0.12508711596E+03 0.  0.
          5    1    3    3  502    0 -0.45182452980E+02 -0.23839640668E+02 -0.49198426666E+01  0.51492327354E+02  0.41800000000E+01 0. -1.
         -5    1    3    3    0  502 -0.12527545485E+02  0.53843649725E+02 -0.14054762979E+03  0.15108668589E+03  0.41800000000E+01 0. -1.
        -11    1    1    2    0    0  0.27540215716E+02  0.14574941982E+02  0.50820670305E+01  0.31570869813E+02  0.00000000000E+00 0.  1.
         11    1    1    2    0    0  0.30169782749E+02 -0.44578951039E+02 -0.11421580396E+03  0.12626459734E+03  0.00000000000E+00 0. -1.
</event>
<event>
 7    1  0.2666594E-009  0.1048766E+03  0.7561462E-02  0.1270363E+00
          1   -1    0    0  501    0  0.00000000000E+00  0.00000000000E+00  0.21392117498E+03  0.21392117498E+03  0.00000000000E+00 0. -1.
         -1   -1    0    0    0  501 -0.00000000000E+00 -0.00000000000E+00 -0.66297598126E+02  0.66297598126E+02  0.00000000000E+00 0.  1.
         25    2    1    2    0    0 -0.42724647765E+02  0.22701565091E+02  0.57445376883E+02  0.14590356184E+03  0.12508845449E+03 0.  0.
          5    1    3    3  502    0 -0.29401432105E+02  0.73454652987E+02  0.47362413785E+02  0.92307642668E+02  0.41800000000E+01 0.  1.
         -5    1    3    3    0  502 -0.13323215661E+02 -0.50753087897E+02  0.10082963098E+02  0.53595919168E+02  0.41800000000E+01 0.  1.
        -11    1    1    2    0    0  0.27060287714E+02 -0.43873170771E+02  0.94482573235E+02  0.10762932189E+03  0.00000000000E+00 0. -1.
         11    1    1    2    0    0  0.15664360051E+02  0.21171605680E+02 -0.43043732672E+01  0.26685889382E+02  0.00000000000E+00 0.  1.
</event>
<event>
 7    1  0.2666594E-009  0.9845248E+02  0.7561462E-02  0.1283584E+00
          1   -1    0    0  501    0  0.00000000000E+00  0.00000000000E+00  0.74915287434E+02  0.74915287434E+02  0.00000000000E+00 0. -1.
         -1   -1    0    0    0  501 -0.00000000000E+00 -0.00000000000E+00 -0.22708009970E+03  0.22708009970E+03  0.00000000000E+00 0.  1.
         25    2    1    2    0    0 -0.42511843520E+02  0.60559012976E+02 -0.94029657454E+02  0.17310422302E+03  0.12509534226E+03 0.  0.
          5    1    3    3  502    0  0.61132434535E+01  0.57499404481E+02 -0.10771456817E+03  0.12232519715E+03  0.41800000000E+01 0. -1.
         -5    1    3    3    0  502 -0.48625086974E+02  0.30596084949E+01  0.13684910714E+02  0.50779025873E+02  0.41800000000E+01 0. -1.
        -11    1    1    2    0    0  0.24660884188E+02  0.22220439145E+01  0.16490351808E+02  0.29749426731E+02  0.00000000000E+00 0. -1.
         11    1    1    2    0    0  0.17850959332E+02 -0.62781056890E+02 -0.74625506624E+02  0.99141737387E+02  0.00000000000E+00 0.  1.
</event>
<event>
 7    1  0.2666594E-009  0.2276625E+03  0.7561462E-02  0.1128296E+00
          2   -1    0    0  501    0  0.00000000000E+00  0.00000000000E+00  0.10369770831E+04  0.10369770831E+04  0.00000000000E+00 0. -1.
         -2   -1    0    0    0  501 -0.00000000000E+00 -0.00000000000E+00 -0.61968417803E+02  0.61968417803E+02  0.00000000000E+00 0.  1.
         25    2    1    2    0    0 -0.14425808736E+03 -0.15169650398E+03  0.30734367797E+03  0.39233990398E+03  0.12509292058E+03 0.  0.
          5    1    3    3  502    0 -0.16659028459E+03 -0.14157887139E+03  0.28181608916E+03  0.35669970599E+03  0.41800000000E+01 0. -1.
         -5    1    3    3    0  502  0.22332197232E+02 -0.10117632590E+02  0.25527588809E+02  0.35640197991E+02  0.41800000000E+01 0. -1.
        -11    1    1    2    0    0  0.95977029570E+02  0.77950803114E+02  0.52117707582E+03  0.53564303624E+03  0.00000000000E+00 0. -1.
         11    1    1    2    0    0  0.48281057791E+02  0.73745700865E+02  0.14648791152E+03  0.17096256069E+03  0.00000000000E+00 0.  1.
</event>
<event>
 7    1  0.2666594E-009  0.1522638E+03  0.7561462E-02  0.1197719E+00
         -1   -1    0    0    0  501 -0.00000000000E+00  0.00000000000E+00  0.15914373361E+03  0.15914373361E+03  0.00000000000E+00 0.  1.
          1   -1    0    0  501    0  0.00000000000E+00 -0.00000000000E+00 -0.21261906489E+03  0.21261906489E+03  0.00000000000E+00 0. -1.
         25    2    1    2    0    0  0.56141009954E+01  0.11983149055E+03  0.63346992290E+02  0.18452896037E+03  0.12508793517E+03 0.  0.
          5    1    3    3  502    0 -0.43169648902E+02  0.44852396680E+00  0.79027583060E+01  0.44087932010E+02  0.41800000000E+01 0.  1.
         -5    1    3    3    0  502  0.48783749897E+02  0.11938296658E+03  0.55444233984E+02  0.14044102836E+03  0.41800000000E+01 0.  1.
        -11    1    1    2    0    0  0.24680987165E+02 -0.43793793077E+02 -0.77469694509E+01  0.50863178973E+02  0.00000000000E+00 0.  1.
         11    1    1    2    0    0 -0.30295088161E+02 -0.76037697471E+02 -0.10907535412E+03  0.13637065916E+03  0.00000000000E+00 0. -1.
</event>
<event>
 7    1  0.2666594E-009  0.9964362E+02  0.7561462E-02  0.1281047E+00
         -1   -1    0    0    0  501 -0.00000000000E+00  0.00000000000E+00  0.10300556605E+03  0.10300556605E+03  0.00000000000E+00 0.  1.
          1   -1    0    0  501    0  0.00000000000E+00 -0.00000000000E+00 -0.15755367010E+03  0.15755367010E+03  0.00000000000E+00 0. -1.
         25    2    1    2    0    0 -0.45655608381E+02 -0.26726459667E+02 -0.73266278821E+02  0.15431830753E+03  0.12508978457E+03 0.  0.
          5    1    3    3  502    0 -0.68176914675E+02  0.18141029185E+02 -0.76109260251E+02  0.10386183385E+03  0.41800000000E+01 0.  1.
         -5    1    3    3    0  502  0.22521306295E+02 -0.44867488852E+02  0.28429814303E+01  0.50456473683E+02  0.41800000000E+01 0.  1.
        -11    1    1    2    0    0  0.57884901302E+02  0.30514541821E+02  0.43342007324E+02  0.78487761213E+02  0.00000000000E+00 0.  1.
         11    1    1    2    0    0 -0.12229292922E+02 -0.37880821534E+01 -0.24623832545E+02  0.27753167405E+02  0.00000000000E+00 0. -1.
</event>
<event>
 7    1  0.2666594E-009  0.1086502E+03  0.7561462E-02  0.1263090E+00
          1   -1    0    0  501    0  0.00000000000E+00  0.00000000000E+00  0.78847979415E+02  0.78847979415E+02  0.00000000000E+00 0. -1.
         -1   -1    0    0    0  501 -0.00000000000E+00 -0.00000000000E+00 -0.20594591030E+03  0.20594591030E+03  0.00000000000E+00 0.  1.
         25    2    1    2    0    0 -0.67690451822E+02  0.21699564790E+01 -0.65065886537E+02  0.15642366057E+03  0.12509230998E+03 0.  0.
          5    1    3    3  502    0 -0.30762882594E+02 -0.46516415792E+02 -0.75843929493E+02  0.94233252754E+02  0.41800000000E+01 0.  1.
         -5    1    3    3    0  502 -0.36927569228E+02  0.48686372271E+02  0.10778042956E+02  0.62190407813E+02  0.41800000000E+01 0.  1.
        -11    1    1    2    0    0  0.79132359643E+02 -0.17453256851E+02 -0.21920253749E+02  0.83946673798E+02  0.00000000000E+00 0. -1.
         11    1    1    2    0    0 -0.11441907821E+02  0.15283300372E+02 -0.40111790596E+02  0.44423555347E+02  0.00000000000E+00 0.  1.
</event>
<event>
 7    1  0.2666594E-009  0.1272126E+03  0.7561462E-02  0.1231651E+00
         -2   -1    0    0    0  501 -0.00000000000E+00  0.00000000000E+00  0.39633031341E+02  0.39633031341E+02  0.00000000000E+00 0.  1.
          2   -1    0    0  501    0  0.00000000000E+00 -0.00000000000E+00 -0.43521834091E+03  0.43521834091E+03  0.00000000000E+00 0. -1.
         25    2    1    2    0    0  0.16727601696E+02  0.73852798284E+02 -0.27508942945E+03  0.31153895122E+03  0.12509306719E+03 0.  0.
          5    1    3    3  502    0 -0.53512082055E+02  0.45442246710E+02 -0.13002004154E+03  0.14782159624E+03  0.41800000000E+01 0.  1.
         -5    1    3    3    0  502  0.70239683751E+02  0.28410551574E+02 -0.14506938791E+03  0.16371735498E+03  0.41800000000E+01 0.  1.
        -11    1    1    2    0    0  0.23042083539E+02 -0.62864510785E+02 -0.58899755814E+02  0.89174354862E+02  0.00000000000E+00 0.  1.
         11    1    1    2    0    0 -0.39769685235E+02 -0.10988287499E+02 -0.61596124310E+02  0.74138066172E+02  0.00000000000E+00 0. -1.
</event>
<event>
 7    1  0.2666594E-009  0.1334892E+03  0.7561462E-02  0.1222368E+00
         -1   -1    0    0    0  501 -0.00000000000E+00  0.00000000000E+00  0.47441902382E+02  0.47441902382E+02  0.00000000000E+00 0.  1.
          1   -1    0    0  501    0  0.00000000000E+00 -0.00000000000E+00 -0.41683353836E+03  0.41683353836E+03  0.00000000000E+00 0. -1.
         25    2    1    2    0    0 -0.88200775499E+02  0.19661975426E+02 -0.20929127504E+03  0.26003135789E+03  0.12508996443E+03 0.  0.
          5    1    3    3  502    0 -0.83150167634E+02  0.65350793718E+02 -0.16521860763E+03  0.19621248004E+03  0.41800000000E+01 0. -1.
         -5    1    3    3    0  502 -0.50506078648E+01 -0.45688818292E+02 -0.44072667410E+02  0.63818877844E+02  0.41800000000E+01 0. -1.
        -11    1    1    2    0    0  0.74084329783E+02  0.16727888906E+02 -0.59958309926E+02  0.96764193356E+02  0.00000000000E+00 0.  1.
         11    1    1    2    0    0  0.14116445715E+02 -0.36389864332E+02 -0.10014205101E+03  0.10747988950E+03  0.00000000000E+00 0. -1.
</event>
<event>
 7    1  0.3160289E-009  0.1012194E+03  0.7561462E-02  0.1277752E+00
         -1   -1    0    0    0  501 -0.00000000000E+00  0.00000000000E+00  0.23878303608E+02  0.23878303608E+02  0.00000000000E+00 0.  1.
          1   -1    0    0  501    0  0.00000000000E+00 -0.00000000000E+00 -0.70300073923E+03  0.70300073923E+03  0.00000000000E+00 0. -1.
         25    2    1    2    0    0 -0.52528640977E+02 -0.40903148061E+02 -0.45131761816E+03  0.47304060863E+03  0.12508996484E+03 0.  0.
          5    1    3    3  502    0 -0.88664271793E+02 -0.43680344397E+02 -0.38325336583E+03  0.39581553835E+03  0.41800000000E+01 0. -1.
         -5    1    3    3    0  502  0.36135630816E+02  0.27771963356E+01 -0.68064252332E+02  0.77225070279E+02  0.41800000000E+01 0. -1.
        -11    1    1    2    0    0  0.82221778985E+01  0.10303687238E+02  0.55858513519E+01  0.14316840274E+02  0.00000000000E+00 0.  1.
         11    1    1    2    0    0  0.44306463079E+02  0.30599460823E+02 -0.23339066881E+03  0.23952159394E+03  0.00000000000E+00 0. -1.
</event>
<event>
 7    1  0.2666594E-009  0.7985512E+02  0.7561462E-02  0.1329463E+00
         -1   -1    0    0    0  501 -0.00000000000E+00  0.00000000000E+00  0.37510955999E+02  0.37510955999E+02  0.00000000000E+00 0.  1.
          1   -1    0    0  501    0  0.00000000000E+00 -0.00000000000E+00 -0.41632220641E+03  0.41632220641E+03  0.00000000000E+00 0. -1.
         25    2    1    2    0    0  0.49970905457E+01  0.53339154179E+02 -0.22969959600E+03  0.26698266370E+03  0.12509117488E+03 0.  0.
          5    1    3    3  502    0 -0.10145078540E+02  0.43774635490E+02 -0.96286818856E+01  0.46144612315E+02  0.41800000000E+01 0.  1.
         -5    1    3    3    0  502  0.15142169086E+02  0.95645186891E+01 -0.22007091411E+03  0.22083805139E+03  0.41800000000E+01 0.  1.
        -11    1    1    2    0    0 -0.12557646867E+01 -0.74595994061E+02 -0.14739204347E+03  0.16519852830E+03  0.00000000000E+00 0. -1.
         11    1    1    2    0    0 -0.37413258590E+01  0.21256839882E+02 -0.17196109530E+01  0.21651970414E+02  0.00000000000E+00 0.  1.
</event>
<event>
 7    1  0.2666594E-009  0.1015940E+03  0.7561462E-02  0.1276979E+00
          1   -1    0    0  501    0  0.00000000000E+00  0.00000000000E+00  0.19323375221E+03  0.19323375221E+03  0.00000000000E+00 0. -1.
         -1   -1    0    0    0  501 -0.00000000000E+00 -0.00000000000E+00 -0.97632672399E+02  0.97632672399E+02  0.00000000000E+00 0.  1.
         25    2    1    2    0    0  0.45700452744E+02 -0.70205801427E+02  0.48385794036E+02  0.15813267550E+03  0.12508945624E+03 0.  0.
          5    1    3    3  502    0  0.38925509626E+02 -0.50600612058E+02  0.90600165348E+02  0.11091203542E+03  0.41800000000E+01 0. -1.
         -5    1    3    3    0  502  0.67749431179E+01 -0.19605189370E+02 -0.42214371312E+02  0.47220640082E+02  0.41800000000E+01 0. -1.
        -11    1    1    2    0    0  0.11066234384E+02  0.59202200078E+02  0.36543132562E+01  0.60338346372E+02  0.00000000000E+00 0. -1.
         11    1    1    2    0    0 -0.56766687127E+02  0.11003601349E+02  0.43560972515E+02  0.72395402731E+02  0.00000000000E+00 0.  1.
</event>
<event>
 7    1  0.2666594E-009  0.3330817E+03  0.7561462E-02  0.1069781E+00
         -2   -1    0    0    0  501 -0.00000000000E+00  0.00000000000E+00  0.18054788595E+03  0.18054788595E+03  0.00000000000E+00 0.  1.
          2   -1    0    0  501    0  0.00000000000E+00 -0.00000000000E+00 -0.87776221952E+03  0.87776221952E+03  0.00000000000E+00 0. -1.
         25    2    1    2    0    0  0.31920842458E+03  0.56961613095E+02 -0.63456459106E+03  0.72350639907E+03  0.12510254027E+03 0.  0.
          5    1    3    3  502    0 -0.11379870496E+01  0.17808404424E+02 -0.11032644121E+02  0.21392192944E+02  0.41800000000E+01 0. -1.
         -5    1    3    3    0  502  0.32034641163E+03  0.39153208670E+02 -0.62353194694E+03  0.70211420613E+03  0.41800000000E+01 0. -1.
        -11    1    1    2    0    0 -0.62936029392E+02 -0.20702942464E+02  0.74039672877E+01  0.66666140986E+02  0.00000000000E+00 0. -1.
         11    1    1    2    0    0 -0.25627239519E+03 -0.36258670630E+02 -0.70053709796E+02  0.26813756542E+03  0.00000000000E+00 0.  1.
</event>
<event>
 7    1  0.2666594E-009  0.1309000E+03  0.7561462E-02  0.1226126E+00
          1   -1    0    0  501    0  0.00000000000E+00  0.00000000000E+00  0.11160954852E+04  0.11160954852E+04  0.00000000000E+00 0. -1.
         -1   -1    0    0    0  501 -0.00000000000E+00 -0.00000000000E+00 -0.21402094545E+02  0.21402094545E+02  0.00000000000E+00 0.  1.
         25    2    1    2    0    0  0.46146508204E+01  0.10565022504E+03  0.68439762980E+03  0.70372493118E+03  0.12508156551E+03 0.  0.
          5    1    3    3  502    0  0.48077427823E+02  0.53138881392E+02  0.53076856479E+03  0.53560052423E+03  0.41800000000E+01 0.  1.
         -5    1    3    3    0  502 -0.43462777002E+02  0.52511343649E+02  0.15362906501E+03  0.16812440695E+03  0.41800000000E+01 0.  1.
        -11    1    1    2    0    0  0.23266903436E+02 -0.17060902297E+02  0.27452416378E+02  0.39825348055E+02  0.00000000000E+00 0.  1.
         11    1    1    2    0    0 -0.27881554257E+02 -0.88589322744E+02  0.38284334450E+03  0.39394730054E+03  0.00000000000E+00 0. -1.
</event>
<event>
 7    1  0.2666594E-009  0.2190610E+03  0.7561462E-02  0.1134585E+00
          2   -1    0    0  501    0  0.00000000000E+00  0.00000000000E+00  0.36279007146E+03  0.36279007146E+03  0.00000000000E+00 0. -1.
         -2   -1    0    0    0  501 -0.00000000000E+00 -0.00000000000E+00 -0.21518885135E+03  0.21518885135E+03  0.00000000000E+00 0.  1.
         25    2    1    2    0    0  0.57893941499E+02  0.18721341734E+03  0.24774394260E+03  0.33974278849E+03  0.12509008410E+03 0.  0.
          5    1    3    3  502    0 -0.31353044042E+02  0.10950721047E+02  0.50106114510E+02  0.60258001737E+02  0.41800000000E+01 0. -1.
         -5    1    3    3    0  502  0.89246985541E+02  0.17626269629E+03  0.19763782809E+03  0.27948478675E+03  0.41800000000E+01 0. -1.
        -11    1    1    2    0    0 -0.38974701268E+02 -0.18370568089E+03 -0.66018651887E+02  0.19906096284E+03  0.00000000000E+00 0. -1.
         11    1    1    2    0    0 -0.18919240231E+02 -0.35077364495E+01 -0.34124070600E+02  0.39175171477E+02  0.00000000000E+00 0.  1.
</event>
<event>
 7    1  0.3139457E-009  0.1786934E+03  0.7561462E-02  0.1169074E+00
          2   -1    0    0  501    0  0.00000000000E+00  0.00000000000E+00  0.15715592821E+04  0.15715592821E+04  0.00000000000E+00 0. -1.
         -2   -1    0    0    0  501 -0.00000000000E+00 -0.00000000000E+00 -0.22351726733E+02  0.22351726733E+02  0.00000000000E+00 0.  1.
         25    2    1    2    0    0  0.10335385682E+03  0.10967618989E+03  0.91787009770E+03  0.93853281423E+03  0.12508973094E+03 0.  0.
          5    1    3    3  502    0  0.71742634816E+02  0.12830352190E+03  0.83437948983E+03  0.84723987444E+03  0.41800000000E+01 0. -1.
         -5    1    3    3    0  502  0.31611222004E+02 -0.18627332006E+02  0.83490607866E+02  0.91292939793E+02  0.41800000000E+01 0. -1.
        -11    1    1    2    0    0 -0.88767093001E+02 -0.31989675843E+02  0.28813476187E+03  0.30319066139E+03  0.00000000000E+00 0. -1.
         11    1    1    2    0    0 -0.14586763819E+02 -0.77686514047E+02  0.34320269582E+03  0.35218753323E+03  0.00000000000E+00 0.  1.
</event>
<event>
 7    1  0.2666594E-009  0.5590467E+02  0.7561462E-02  0.1415868E+00
          2   -1    0    0  501    0  0.00000000000E+00  0.00000000000E+00  0.91122211175E+03  0.91122211175E+03  0.00000000000E+00 0. -1.
         -2   -1    0    0    0  501 -0.00000000000E+00 -0.00000000000E+00 -0.20766719161E+02  0.20766719161E+02  0.00000000000E+00 0.  1.
         25    2    1    2    0    0  0.14534245457E+02  0.33798686309E+02  0.73838253658E+03  0.74980628457E+03  0.12508836306E+03 0.  0.
          5    1    3    3  502    0  0.71726575766E+01  0.87990407815E+01  0.12057657951E+01  0.12157154541E+02  0.41800000000E+01 0.  1.
         -5    1    3    3    0  502  0.73615878806E+01  0.24999645528E+02  0.73717677078E+03  0.73764913003E+03  0.41800000000E+01 0.  1.
        -11    1    1    2    0    0 -0.74608789465E+01 -0.52653837232E+02  0.15304465855E+03  0.16202085915E+03  0.00000000000E+00 0. -1.
         11    1    1    2    0    0 -0.70733665108E+01  0.18855150923E+02 -0.97180253577E+00  0.20161687189E+02  0.00000000000E+00 0.  1.
</event>
<event>
 7    1  0.2666594E-009  0.1540313E+03  0.7561462E-02  0.1195605E+00
         -2   -1    0    0    0  501 -0.00000000000E+00  0.00000000000E+00  0.20318000343E+02  0.20318000343E+02  0.00000000000E+00 0.  1.
          2   -1    0    0  501    0  0.00000000000E+00 -0.00000000000E+00 -0.14004323319E+04  0.14004323319E+04  0.00000000000E+00 0. -1.
         25    2    1    2    0    0  0.12517460762E+03  0.28110066684E+02 -0.95165205792E+03  0.96837481058E+03  0.12509706708E+03 0.  0.
          5    1    3    3  502    0  0.13829330718E+03 -0.94115059920E+01 -0.70570542770E+03  0.71920180641E+03  0.41800000000E+01 0.  1.
         -5    1    3    3    0  502 -0.13118699558E+02  0.37521572676E+02 -0.24594663022E+03  0.24917300418E+03  0.41800000000E+01 0.  1.
        -11    1    1    2    0    0 -0.85027401947E+02 -0.10844870116E+02 -0.17154665438E+03  0.19176945773E+03  0.00000000000E+00 0.  1.
         11    1    1    2    0    0 -0.40147205677E+02 -0.17265196567E+02 -0.25691561923E+03  0.26060606390E+03  0.00000000000E+00 0. -1.
</event>
<event>
 7    1  0.2666594E-009  0.1460306E+03  0.7561462E-02  0.1205437E+00
          1   -1    0    0  501    0  0.00000000000E+00  0.00000000000E+00  0.29620639737E+04  0.29620639737E+04  0.00000000000E+00 0. -1.
         -1   -1    0    0    0  501 -0.00000000000E+00 -0.00000000000E+00 -0.94881405217E+01  0.94881405217E+01  0.00000000000E+00 0.  1.
         25    2    1    2    0    0 -0.12879404482E+02 -0.10053089074E+03  0.22450722544E+04  0.22508372983E+04  0.12508707625E+03 0.  0.
          5    1    3    3  502    0  0.42866091939E+02 -0.15840368170E+01  0.87450477162E+03  0.87556614770E+03  0.41800000000E+01 0. -1.
         -5    1    3    3    0  502 -0.55745496421E+02 -0.98946853920E+02  0.13705674828E+04  0.13752711506E+04  0.41800000000E+01 0. -1.
        -11    1    1    2    0    0 -0.53304311895E+01 -0.16261452781E+02  0.55332359187E+02  0.57918203670E+02  0.00000000000E+00 0. -1.
         11    1    1    2    0    0  0.18209835672E+02  0.11679234352E+03  0.65217121958E+03  0.66279661229E+03  0.00000000000E+00 0.  1.
</event>
<event>
 7    1  0.2666594E-009  0.1036115E+03  0.7561462E-02  0.1272880E+00
          2   -1    0    0  501    0  0.00000000000E+00  0.00000000000E+00  0.29221049384E+03  0.29221049384E+03  0.00000000000E+00 0. -1.
         -2   -1    0    0    0  501 -0.00000000000E+00 -0.00000000000E+00 -0.57935488018E+02  0.57935488018E+02  0.00000000000E+00 0.  1.
         25    2    1    2    0    0 -0.38265320005E+02 -0.12592677449E+02  0.18934865711E+03  0.23048352343E+03  0.12508769077E+03 0.  0.
          5    1    3    3  502    0 -0.48196346077E+02 -0.62661386801E+02  0.10053705258E+03  0.12796291851E+03  0.41800000000E+01 0.  1.
         -5    1    3    3    0  502  0.99310260715E+01  0.50068709352E+02  0.88811604532E+02  0.10252060493E+03  0.41800000000E+01 0.  1.
        -11    1    1    2    0    0  0.56682632491E+02  0.49286580832E+01  0.68326051612E+02  0.88913788726E+02  0.00000000000E+00 0. -1.
         11    1    1    2    0    0 -0.18417312486E+02  0.76640193656E+01 -0.23399702906E+02  0.30748669697E+02  0.00000000000E+00 0.  1.
</event>
<event>
 7    1  0.2666594E-009  0.1011406E+03  0.7561462E-02  0.1277916E+00
         -2   -1    0    0    0  501 -0.00000000000E+00  0.00000000000E+00  0.19242509261E+02  0.19242509261E+02  0.00000000000E+00 0.  1.
          2   -1    0    0  501    0  0.00000000000E+00 -0.00000000000E+00 -0.67614159645E+03  0.67614159645E+03  0.00000000000E+00 0. -1.
         25    2    1    2    0    0 -0.30214521185E+01  0.21851833344E+02 -0.26858933250E+03  0.29711395822E+03  0.12509933191E+03 0.  0.
          5    1    3    3  502    0  0.33596968302E+02 -0.34262368947E+02 -0.54451486173E+02  0.72698713547E+02  0.41800000000E+01 0. -1.
         -5    1    3    3    0  502 -0.36618420420E+02  0.56114202291E+02 -0.21413784632E+03  0.22441524467E+03  0.41800000000E+01 0. -1.
        -11    1    1    2    0    0 -0.16847873081E+02  0.28354733373E+02 -0.11298403065E+03  0.11769975750E+03  0.00000000000E+00 0.  1.
         11    1    1    2    0    0  0.19869325200E+02 -0.50206566717E+02 -0.27532572404E+03  0.28057039000E+03  0.00000000000E+00 0. -1.
</event>
<event>
 7    1  0.2666594E-009  0.1062499E+03  0.7561462E-02  0.1267676E+00
         -2   -1    0    0    0  501 -0.00000000000E+00  0.00000000000E+00  0.49194499402E+02  0.49194499402E+02  0.00000000000E+00 0.  1.
          2   -1    0    0  501    0  0.00000000000E+00 -0.00000000000E+00 -0.32242542267E+03  0.32242542267E+03  0.00000000000E+00 0. -1.
         25    2    1    2    0    0 -0.47110047933E+02  0.41336041538E+02 -0.17442913608E+03  0.22360989509E+03  0.12509131354E+03 0.  0.
          5    1    3    3  502    0 -0.45901596119E+02 -0.20857797525E+02 -0.15536087076E+02  0.52923025665E+02  0.41800000000E+01 0. -1.
         -5    1    3    3    0  502 -0.12084518136E+01  0.62193839063E+02 -0.15889304900E+03  0.17068686943E+03  0.41800000000E+01 0. -1.
        -11    1    1    2    0    0  0.51410504027E+00 -0.51803088192E+02 -0.19333427715E+02  0.55295620780E+02  0.00000000000E+00 0.  1.
         11    1    1    2    0    0  0.46595942892E+02  0.10467046653E+02 -0.79468359474E+02  0.92714406200E+02  0.00000000000E+00 0. -1.
</event>
<event>
 7    1  0.2666594E-009  0.8169677E+02  0.7561462E-02  0.1324304E+00
          2   -1    0    0  501    0  0.00000000000E+00  0.00000000000E+00  0.10527324108E+03  0.10527324108E+03  0.00000000000E+00 0. -1.
         -2   -1    0    0    0  501 -0.00000000000E+00 -0.00000000000E+00 -0.14024658340E+03  0.14024658340E+03  0.00000000000E+00 0.  1.
         25    2    1    2    0    0 -0.36949853145E+02  0.31303045532E+02  0.27147838381E+01  0.13416294410E+03  0.12508858146E+03 0.  0.
          5    1    3    3  502    0 -0.45241473062E+01 -0.29242587045E+02 -0.42407053418E+02  0.51878968624E+02  0.41800000000E+01 0.  1.
         -5    1    3    3    0  502 -0.32425705839E+02  0.60545632577E+02  0.45121837256E+02  0.82283975479E+02  0.41800000000E+01 0.  1.
        -11    1    1    2    0    0  0.29778463065E+02  0.27454895491E+01 -0.62050212172E+02  0.68880500912E+02  0.00000000000E+00 0.  1.
         11    1    1    2    0    0  0.71713900805E+01 -0.34048535081E+02  0.24362086019E+02  0.42476379460E+02  0.00000000000E+00 0. -1.
</event>
<event>
 7    1  0.2666594E-009  0.1090153E+03  0.7561462E-02  0.1262404E+00
         -2   -1    0    0    0  501 -0.00000000000E+00  0.00000000000E+00  0.89655583705E+02  0.89655583705E+02  0.00000000000E+00 0.  1.
          2   -1    0    0  501    0  0.00000000000E+00 -0.00000000000E+00 -0.17664662317E+03  0.17664662317E+03  0.00000000000E+00 0. -1.
         25    2    1    2    0    0  0.21464180207E+01  0.64089476170E+02 -0.62313926936E+02  0.15376402942E+03  0.12509309808E+03 0.  0.
          5    1    3    3  502    0  0.34465098147E+02 -0.17676182369E+02  0.95741894292E+01  0.40117675863E+02  0.41800000000E+01 0. -1.
         -5    1    3    3    0  502 -0.32318680126E+02  0.81765658539E+02 -0.71888116365E+02  0.11364635355E+03  0.41800000000E+01 0. -1.
        -11    1    1    2    0    0 -0.30246144099E+02 -0.52636050423E+02  0.15052820291E+02  0.62545746743E+02  0.00000000000E+00 0.  1.
         11    1    1    2    0    0  0.28099726078E+02 -0.11453425747E+02 -0.39729932820E+02  0.49992430716E+02  0.00000000000E+00 0. -1.
</event>
<event>
 7    1  0.2666594E-009  0.1451241E+03  0.7561462E-02  0.1206596E+00
          1   -1    0    0  501    0  0.00000000000E+00  0.00000000000E+00  0.90407098463E+03  0.90407098463E+03  0.00000000000E+00 0. -1.
         -1   -1    0    0    0  501 -0.00000000000E+00 -0.00000000000E+00 -0.33558672633E+02  0.33558672633E+02  0.00000000000E+00 0.  1.
         25    2    1    2    0    0  0.12627237860E+03 -0.93174574724E+01  0.59928312783E+03  0.62515519180E+03  0.12508884012E+03 0.  0.
          5    1    3    3  502    0  0.10517901665E+01  0.10757099125E+02 -0.97756285147E+00  0.11629680704E+02  0.41800000000E+01 0.  1.
         -5    1    3    3    0  502  0.12522058843E+03 -0.20074556598E+02  0.60026069068E+03  0.61352551110E+03  0.41800000000E+01 0.  1.
        -11    1    1    2    0    0 -0.10903431164E+03 -0.26335583293E+02  0.16894622090E+03  0.20279267644E+03  0.00000000000E+00 0.  1.
         11    1    1    2    0    0 -0.17238066965E+02  0.35653040765E+02  0.10228296326E+03  0.10968178902E+03  0.00000000000E+00 0. -1.
</event>
<event>
 7    1  0.2666594E-009  0.5550848E+02  0.7561462E-02  0.1417709E+00
         -2   -1    0    0    0  501 -0.00000000000E+00  0.00000000000E+00  0.21274659281E+03  0.21274659281E+03  0.00000000000E+00 0.  1.
          2   -1    0    0  501    0  0.00000000000E+00 -0.00000000000E+00 -0.73018800415E+02  0.73018800415E+02  0.00000000000E+00 0. -1.
         25    2    1    2    0    0  0.23070139588E+02  0.42388537874E+02  0.34477380689E+02  0.13843705616E+03  0.12508840576E+03 0.  0.
          5    1    3    3  502    0  0.26611595508E+01  0.10509332995E+02 -0.47044846653E+02  0.48458413580E+02  0.41800000000E+01 0. -1.
         -5    1    3    3    0  502  0.20408980038E+02  0.31879204880E+02  0.81522227342E+02  0.89978642581E+02  0.41800000000E+01 0. -1.
        -11    1    1    2    0    0  0.19650685716E+01 -0.35219095751E+02  0.11440895068E+03  0.11972324000E+03  0.00000000000E+00 0.  1.
         11    1    1    2    0    0 -0.25035208160E+02 -0.71694421236E+01 -0.91585389721E+01  0.27605097067E+02  0.00000000000E+00 0. -1.
</event>
<event>
 7    1  0.2666594E-009  0.8641995E+02  0.7561462E-02  0.1311760E+00
          3   -1    0    0  501    0  0.00000000000E+00  0.00000000000E+00  0.38231377881E+03  0.38231377881E+03  0.00000000000E+00 0. -1.
         -3   -1    0    0    0  501 -0.00000000000E+00 -0.00000000000E+00 -0.33153703336E+02  0.33153703336E+02  0.00000000000E+00 0.  1.
         25    2    1    2    0    0 -0.15241784334E+02 -0.15717522761E+02  0.16607104504E+03  0.20906161610E+03  0.12509122596E+03 0.  0.
          5    1    3    3  502    0  0.12477547226E+01  0.36202562870E+02  0.24352205337E+01  0.36545658419E+02  0.41800000000E+01 0. -1.
         -5    1    3    3    0  502 -0.16489539056E+02 -0.51920085631E+02  0.16363582451E+03  0.17251595768E+03  0.41800000000E+01 0. -1.
        -11    1    1    2    0    0 -0.42509871893E+01  0.45743836740E+02  0.47144521921E+02  0.65826859556E+02  0.00000000000E+00 0.  1.
         11    1    1    2    0    0  0.19492771523E+02 -0.30026313980E+02  0.13594450851E+03  0.14057900649E+03  0.00000000000E+00 0. -1.
</event>
<event>
 7    1  0.2666594E-009  0.3104703E+03  0.7561462E-02  0.1080121E+00
          2   -1    0    0  501    0  0.00000000000E+00  0.00000000000E+00  0.15432687744E+03  0.15432687744E+03  0.00000000000E+00 0. -1.
         -2   -1    0    0    0  501 -0.00000000000E+00 -0.00000000000E+00 -0.78657997688E+03  0.78657997688E+03  0.00000000000E+00 0.  1.
         25    2    1    2    0    0 -0.29260358518E+03 -0.52528900236E+02 -0.12511519841E+03  0.34594207672E+03  0.12508382850E+03 0.  0.
          5    1    3    3  502    0 -0.25771198606E+03 -0.75375486683E+02 -0.71517978801E+02  0.27790146715E+03  0.41800000000E+01 0.  1.
         -5    1    3    3    0  502 -0.34891599126E+02  0.22846586447E+02 -0.53597219606E+02  0.68040609575E+02  0.41800000000E+01 0.  1.
        -11    1    1    2    0    0  0.11493860952E+03  0.65596123503E+02 -0.23507808442E+03  0.26976923685E+03  0.00000000000E+00 0.  1.
         11    1    1    2    0    0  0.17766497567E+03 -0.13067223267E+02 -0.27205981662E+03  0.32519554075E+03  0.00000000000E+00 0. -1.
</event>
<event>
 7    1  0.2666594E-009  0.2922166E+03  0.7561462E-02  0.1089198E+00
         -3   -1    0    0    0  501 -0.00000000000E+00  0.00000000000E+00  0.11879950137E+03  0.11879950137E+03  0.00000000000E+00 0.  1.
          3   -1    0    0  501    0  0.00000000000E+00 -0.00000000000E+00 -0.76438601910E+03  0.76438601910E+03  0.00000000000E+00 0. -1.
         25    2    1    2    0    0  0.27116015608E+03 -0.52076350431E+02 -0.25474743434E+03  0.39595874670E+03  0.12508915728E+03 0.  0.
          5    1    3    3  502    0  0.17325639204E+03 -0.87308912176E+02 -0.13055749259E+03  0.23388748320E+03  0.41800000000E+01 0.  1.
         -5    1    3    3    0  502  0.97903764037E+02  0.35232561746E+02 -0.12418994175E+03  0.16207126350E+03  0.41800000000E+01 0.  1.
        -11    1    1    2    0    0 -0.87286749492E+02 -0.18611640954E+02 -0.16462908980E+03  0.18726480455E+03  0.00000000000E+00 0. -1.
         11    1    1    2    0    0 -0.18387340659E+03  0.70687991384E+02 -0.22620999359E+03  0.29996196922E+03  0.00000000000E+00 0.  1.
</event>
<event>
 7    1  0.2666594E-009  0.1392923E+03  0.7561462E-02  0.1214284E+00
          2   -1    0    0  501    0  0.00000000000E+00  0.00000000000E+00  0.11142062677E+04  0.11142062677E+04  0.00000000000E+00 0.  1.
         -2   -1    0    0    0  501 -0.00000000000E+00 -0.00000000000E+00 -0.20671895989E+02  0.20671895989E+02  0.00000000000E+00 0. -1.
         25    2    1    2    0    0 -0.79872641135E+02  0.55460185079E+02  0.73520429105E+03  0.75208264665E+03  0.12508991521E+03 0.  0.
          5    1    3    3  502    0 -0.82406417765E+02  0.83097178759E+02  0.68148853771E+03  0.69147672285E+03  0.41800000000E+01 0. -1.
         -5    1    3    3    0  502  0.25337766297E+01 -0.27636993679E+02  0.53715753341E+02  0.60605923808E+02  0.41800000000E+01 0. -1.
        -11    1    1    2    0    0  0.18649112952E+01 -0.55375195945E+02  0.17492355689E+03  0.18348880341E+03  0.00000000000E+00 0.  1.
         11    1    1    2    0    0  0.78007729840E+02 -0.84989134943E-01  0.18340652380E+03  0.19930671366E+03  0.00000000000E+00 0. -1.
</event>
<event>
 7    1  0.2666594E-009  0.1000389E+03  0.7561462E-02  0.1280214E+00
          2   -1    0    0  501    0  0.00000000000E+00  0.00000000000E+00  0.33429108407E+03  0.33429108407E+03  0.00000000000E+00 0. -1.
         -2   -1    0    0    0  501 -0.00000000000E+00 -0.00000000000E+00 -0.56263172437E+02  0.56263172437E+02  0.00000000000E+00 0.  1.
         25    2    1    2    0    0 -0.54412609877E+02 -0.32600264905E+02  0.77982253205E+02  0.16047309810E+03  0.12508746545E+03 0.  0.
          5    1    3    3  502    0 -0.42399875615E+02  0.25876882644E+02  0.86688537644E+02  0.99998687324E+02  0.41800000000E+01 0.  1.
         -5    1    3    3    0  502 -0.12012734262E+02 -0.58477147549E+02 -0.87062844391E+01  0.60474410776E+02  0.41800000000E+01 0.  1.
        -11    1    1    2    0    0  0.24162701897E+02 -0.18887590272E+02  0.14713234807E+03  0.15029472738E+03  0.00000000000E+00 0. -1.
         11    1    1    2    0    0  0.30249907981E+02  0.51487855178E+02  0.52913310366E+02  0.79786431037E+02  0.00000000000E+00 0.  1.
</event>
<event>
 7    1  0.2666594E-009  0.1089423E+03  0.7561462E-02  0.1262541E+00
          1   -1    0    0  501    0  0.00000000000E+00  0.00000000000E+00  0.35575346019E+03  0.35575346019E+03  0.00000000000E+00 0. -1.
         -1   -1    0    0    0  501 -0.00000000000E+00 -0.00000000000E+00 -0.52033626179E+02  0.52033626179E+02  0.00000000000E+00 0.  1.
         25    2    1    2    0    0 -0.55441241606E+01  0.67027286092E+02  0.23694830043E+03  0.27625266879E+03  0.12509054938E+03 0.  0.
          5    1    3    3  502    0  0.16222651371E+02  0.78331909359E+02  0.23823221229E+03  0.25133865961E+03  0.41800000000E+01 0. -1.
         -5    1    3    3    0  502 -0.21766775532E+02 -0.11304623267E+02 -0.12839118538E+01  0.24914009190E+02  0.41800000000E+01 0. -1.
        -11    1    1    2    0    0  0.95298918905E+01  0.21900151414E+02  0.96084107203E+01  0.25744067821E+02  0.00000000000E+00 0. -1.
         11    1    1    2    0    0 -0.39857677299E+01 -0.88927437506E+02  0.57163122854E+02  0.10579034975E+03  0.00000000000E+00 0.  1.
</event>
<event>
 7    1  0.2666594E-009  0.7113126E+02  0.7561462E-02  0.1356288E+00
          1   -1    0    0  501    0  0.00000000000E+00  0.00000000000E+00  0.41375447782E+03  0.41375447782E+03  0.00000000000E+00 0. -1.
         -1   -1    0    0    0  501 -0.00000000000E+00 -0.00000000000E+00 -0.27703262847E+02  0.27703262847E+02  0.00000000000E+00 0.  1.
         25    2    1    2    0    0 -0.69711603594E+01 -0.20987857240E+02  0.24494833258E+03  0.27592899957E+03  0.12509212581E+03 0.  0.
          5    1    3    3  502    0 -0.11194876969E+02 -0.36974166510E+02  0.25376990557E+03  0.25672758253E+03  0.41800000000E+01 0.  1.
         -5    1    3    3    0  502  0.42237166097E+01  0.15986309269E+02 -0.88215729904E+01  0.19201417033E+02  0.41800000000E+01 0.  1.
        -11    1    1    2    0    0  0.45338155288E+02  0.97985692364E+01  0.81283040699E+02  0.93586820596E+02  0.00000000000E+00 0. -1.
         11    1    1    2    0    0 -0.38366994929E+02  0.11189288004E+02  0.59819841693E+02  0.71941920505E+02  0.00000000000E+00 0.  1.
</event>
<event>
 7    1  0.2869702E-009  0.1462594E+03  0.7561462E-02  0.1205146E+00
         -2   -1    0    0    0  501 -0.00000000000E+00  0.00000000000E+00  0.22260447723E+03  0.22260447723E+03  0.00000000000E+00 0.  1.
          2   -1    0    0  501    0  0.00000000000E+00 -0.00000000000E+00 -0.12889588434E+03  0.12889588434E+03  0.00000000000E+00 0. -1.
         25    2    1    2    0    0  0.69928857250E+02 -0.80237652298E+02 -0.26944326624E+02  0.16644450027E+03  0.12509855718E+03 0.  0.
          5    1    3    3  502    0  0.85794823244E+02 -0.17855256270E+02 -0.46165346339E+02  0.99137649128E+02  0.41800000000E+01 0.  1.
         -5    1    3    3    0  502 -0.15865965995E+02 -0.62382396028E+02  0.19221019716E+02  0.67306851137E+02  0.41800000000E+01 0.  1.
        -11    1    1    2    0    0  0.18900266155E+02  0.36869559582E+02  0.33793880556E+02  0.53465978412E+02  0.00000000000E+00 0.  1.
         11    1    1    2    0    0 -0.88829123405E+02  0.43368092716E+02  0.86859038955E+02  0.13158988289E+03  0.00000000000E+00 0. -1.
</event>
<event>
 7    1  0.2666594E-009  0.1078057E+03  0.7561462E-02  0.1264688E+00
          2   -1    0    0  501    0  0.00000000000E+00  0.00000000000E+00  0.14005683020E+02  0.14005683020E+02  0.00000000000E+00 0. -1.
         -2   -1    0    0    0  501 -0.00000000000E+00 -0.00000000000E+00 -0.10506689825E+04  0.10506689825E+04  0.00000000000E+00 0.  1.
         25    2    1    2    0    0  0.33123469410E+02  0.38513083744E+02 -0.66085627340E+03  0.67450670258E+03  0.12509139013E+03 0.  0.
          5    1    3    3  502    0  0.75189544211E+02  0.50719323450E+02 -0.46276643398E+03  0.47158897585E+03  0.41800000000E+01 0.  1.
         -5    1    3    3    0  502 -0.42066074800E+02 -0.12206239706E+02 -0.19808983942E+03  0.20291772672E+03  0.41800000000E+01 0.  1.
        -11    1    1    2    0    0 -0.31392824166E+01  0.17234676542E+02 -0.12832986301E+02  0.21715770928E+02  0.00000000000E+00 0. -1.
         11    1    1    2    0    0 -0.29984186994E+02 -0.55747760286E+02 -0.36297403980E+03  0.36845219203E+03  0.00000000000E+00 0.  1.
</event>
<event>
 7    1  0.2666594E-009  0.1323417E+03  0.7561462E-02  0.1224022E+00
          2   -1    0    0  501    0  0.00000000000E+00  0.00000000000E+00  0.62874540624E+02  0.62874540624E+02  0.00000000000E+00 0. -1.
         -2   -1    0    0    0  501 -0.00000000000E+00 -0.00000000000E+00 -0.41810241668E+03  0.41810241668E+03  0.00000000000E+00 0.  1.
         25    2    1    2    0    0  0.90785421722E+02 -0.45248500002E+02 -0.95365616241E+02  0.18717068810E+03  0.12509534833E+03 0.  0.
          5    1    3    3  502    0  0.58155709906E+02 -0.81977778610E+02 -0.94249205603E+02  0.13785074515E+03  0.41800000000E+01 0. -1.
         -5    1    3    3    0  502  0.32629711816E+02  0.36729278608E+02 -0.11164106382E+01  0.49319942954E+02  0.41800000000E+01 0. -1.
        -11    1    1    2    0    0 -0.38310061810E+02  0.48965659693E+02 -0.57386349699E+02  0.84607858954E+02  0.00000000000E+00 0. -1.
         11    1    1    2    0    0 -0.52475359912E+02 -0.37171596910E+01 -0.20247591012E+03  0.20919841025E+03  0.00000000000E+00 0.  1.
</event>
<event>
 7    1  0.2666594E-009  0.1112148E+03  0.7561462E-02  0.1258337E+00
          3   -1    0    0  501    0  0.00000000000E+00  0.00000000000E+00  0.36830577502E+03  0.36830577502E+03  0.00000000000E+00 0. -1.
         -3   -1    0    0    0  501 -0.00000000000E+00 -0.00000000000E+00 -0.39942244753E+02  0.39942244753E+02  0.00000000000E+00 0.  1.
         25    2    1    2    0    0 -0.10745497565E+02  0.53215151523E+02  0.25993082746E+03  0.29352707532E+03  0.12508713287E+03 0.  0.
          5    1    3    3  502    0 -0.48959457889E+02 -0.16822739965E+02  0.14091643079E+03  0.15018304153E+03  0.41800000000E+01 0.  1.
         -5    1    3    3    0  502  0.38213960324E+02  0.70037891488E+02  0.11901439668E+03  0.14334403379E+03  0.41800000000E+01 0.  1.
        -11    1    1    2    0    0 -0.11954852782E+01 -0.69993755303E+02  0.60919099402E+02  0.92799200634E+02  0.00000000000E+00 0.  1.
         11    1    1    2    0    0  0.11940982843E+02  0.16778603780E+02  0.75136034054E+01  0.21921743822E+02  0.00000000000E+00 0. -1.
</event>
<event>
 7    1  0.2666594E-009  0.1084461E+03  0.7561462E-02  0.1263475E+00
          1   -1    0    0  501    0  0.00000000000E+00  0.00000000000E+00  0.86103921746E+02  0.86103921746E+02  0.00000000000E+00 0. -1.
         -1   -1    0    0    0  501 -0.00000000000E+00 -0.00000000000E+00 -0.16429374449E+03  0.16429374449E+03  0.00000000000E+00 0.  1.
         25    2    1    2    0    0 -0.43097240770E+01 -0.56325309767E+02 -0.18495924362E+02  0.13848007891E+03  0.12507405325E+03 0.  0.
          5    1    3    3  502    0 -0.57990596571E+02  0.13745850712E+01 -0.45269141121E+01  0.58333216319E+02  0.41800000000E+01 0.  1.
         -5    1    3    3    0  502  0.53680872494E+02 -0.57699894838E+02 -0.13969010250E+02  0.80146862592E+02  0.41800000000E+01 0.  1.
        -11    1    1    2    0    0  0.29564576895E+02  0.20475527453E+02 -0.57737793370E+02  0.68021792204E+02  0.00000000000E+00 0.  1.
         11    1    1    2    0    0 -0.25254852818E+02  0.35849782314E+02 -0.19561050154E+01  0.43895795125E+02  0.00000000000E+00 0. -1.
</event>
<event>
 7    1  0.2666594E-009  0.1300082E+03  0.7561462E-02  0.1227444E+00
          2   -1    0    0  501    0  0.00000000000E+00  0.00000000000E+00  0.66955215352E+03  0.66955215352E+03  0.00000000000E+00 0. -1.
         -2   -1    0    0    0  501 -0.00000000000E+00 -0.00000000000E+00 -0.44427058739E+02  0.44427058739E+02  0.00000000000E+00 0.  1.
         25    2    1    2    0    0 -0.83984919025E+02 -0.19759919274E+02  0.52326723629E+03  0.54488519292E+03  0.12508937547E+03 0.  0.
          5    1    3    3  502    0  0.95354175980E+01  0.21014379177E+02  0.18435449277E+02  0.29830630416E+02  0.41800000000E+01 0.  1.
         -5    1    3    3    0  502 -0.93520336623E+02 -0.40774298452E+02  0.50483178702E+03  0.51505456251E+03  0.41800000000E+01 0.  1.
        -11    1    1    2    0    0 -0.68375571859E+00  0.45853008730E+02  0.41875812846E+02  0.62101124249E+02  0.00000000000E+00 0.  1.
         11    1    1    2    0    0  0.84668674743E+02 -0.26093089456E+02  0.59982045646E+02  0.10699289509E+03  0.00000000000E+00 0. -1.
</event>
<event>
 7    1  0.2666594E-009  0.1254842E+03  0.7561462E-02  0.1234315E+00
          2   -1    0    0  501    0  0.00000000000E+00  0.00000000000E+00  0.15082044764E+03  0.15082044764E+03  0.00000000000E+00 0.  1.
         -2   -1    0    0    0  501 -0.00000000000E+00 -0.00000000000E+00 -0.14889781385E+03  0.14889781385E+03  0.00000000000E+00 0. -1.
         25    2    1    2    0    0 -0.33580026652E+01  0.10454006015E+03 -0.13329898644E+02  0.16359953467E+03  0.12508885317E+03 0.  0.
          5    1    3    3  502    0 -0.33614873958E+01 -0.42474601067E+01 -0.48662950626E+02  0.49141588074E+02  0.41800000000E+01 0. -1.
         -5    1    3    3    0  502  0.34847306304E-02  0.10878752026E+03  0.35333051982E+02  0.11445794659E+03  0.41800000000E+01 0. -1.
        -11    1    1    2    0    0  0.23084068821E+02 -0.11186082263E+03  0.13203973708E+02  0.11497853189E+03  0.00000000000E+00 0. -1.
         11    1    1    2    0    0 -0.19726066156E+02  0.73207624816E+01  0.20485587238E+01  0.21140194941E+02  0.00000000000E+00 0.  1.
</event>
<event>
 7    1  0.2666594E-009  0.2201626E+03  0.7561462E-02  0.1133762E+00
         -1   -1    0    0    0  501 -0.00000000000E+00  0.00000000000E+00  0.65239182228E+02  0.65239182228E+02  0.00000000000E+00 0.  1.
          1   -1    0    0  501    0  0.00000000000E+00 -0.00000000000E+00 -0.10366558424E+04  0.10366558424E+04  0.00000000000E+00 0. -1.
         25    2    1    2    0    0  0.19915894432E+03 -0.18266461603E+02 -0.73473826610E+03  0.77167689849E+03  0.12508783825E+03 0.  0.
          5    1    3    3  502    0  0.77042158633E+02 -0.59432752233E+02 -0.21246451259E+03  0.23372288667E+03  0.41800000000E+01 0. -1.
         -5    1    3    3    0  502  0.12211678568E+03  0.41166290630E+02 -0.52227375351E+03  0.53795401182E+03  0.41800000000E+01 0. -1.
        -11    1    1    2    0    0 -0.97597223454E+02 -0.29225919155E+02 -0.52531896206E+02  0.11462535712E+03  0.00000000000E+00 0.  1.
         11    1    1    2    0    0 -0.10156172086E+03  0.47492380758E+02 -0.18414649790E+03  0.21559276904E+03  0.00000000000E+00 0. -1.
</event>
<event>
 7    1  0.2666594E-009  0.1074048E+03  0.7561462E-02  0.1265453E+00
         -2   -1    0    0    0  501 -0.00000000000E+00  0.00000000000E+00  0.18717493040E+03  0.18717493040E+03  0.00000000000E+00 0.  1.
          2   -1    0    0  501    0  0.00000000000E+00 -0.00000000000E+00 -0.93738840649E+02  0.93738840649E+02  0.00000000000E+00 0. -1.
         25    2    1    2    0    0  0.22865700226E+02  0.22584044368E+02 -0.21423050907E+02  0.13091751815E+03  0.12509024799E+03 0.  0.
          5    1    3    3  502    0 -0.48050219546E+02  0.99851584548E-01 -0.28577954839E+02  0.56062513960E+02  0.41800000000E+01 0.  1.
         -5    1    3    3    0  502  0.70915919772E+02  0.22484192783E+02  0.71549039320E+01  0.74855004191E+02  0.41800000000E+01 0.  1.
        -11    1    1    2    0    0 -0.23015955881E+02 -0.55014369385E+02  0.94376549166E+02  0.11163891838E+03  0.00000000000E+00 0.  1.
         11    1    1    2    0    0  0.15025565566E+00  0.32430325017E+02  0.20482591496E+02  0.38357334525E+02  0.00000000000E+00 0. -1.
</event>
<event>
 7    1  0.2666594E-009  0.1118312E+03  0.7561462E-02  0.1257216E+00
          1   -1    0    0  501    0  0.00000000000E+00  0.00000000000E+00  0.37582969837E+03  0.37582969837E+03  0.00000000000E+00 0. -1.
         -1   -1    0    0    0  501 -0.00000000000E+00 -0.00000000000E+00 -0.42508555800E+02  0.42508555800E+02  0.00000000000E+00 0.  1.
         25    2    1    2    0    0  0.91793783264E+01 -0.36238009442E+02  0.98662406688E+02  0.16364398604E+03  0.12509048469E+03 0.  0.
          5    1    3    3  502    0 -0.39510002212E+02  0.27730537430E+02  0.24964909130E+02  0.54504514206E+02  0.41800000000E+01 0.  1.
         -5    1    3    3    0  502  0.48689380539E+02 -0.63968546873E+02  0.73697497558E+02  0.10913947184E+03  0.41800000000E+01 0.  1.
        -11    1    1    2    0    0  0.30785946145E+02 -0.11130775040E+02  0.11967409289E+03  0.12407077473E+03  0.00000000000E+00 0. -1.
         11    1    1    2    0    0 -0.39965324471E+02  0.47368784482E+02  0.11498464299E+03  0.13062349340E+03  0.00000000000E+00 0.  1.
</event>
<event>
 7    1  0.2666594E-009  0.1377552E+03  0.7561462E-02  0.1216382E+00
         -2   -1    0    0    0  501 -0.00000000000E+00  0.00000000000E+00  0.13879240355E+02  0.13879240355E+02  0.00000000000E+00 0.  1.
          2   -1    0    0  501    0  0.00000000000E+00 -0.00000000000E+00 -0.14324553111E+04  0.14324553111E+04  0.00000000000E+00 0. -1.
         25    2    1    2    0    0  0.87247220148E+02 -0.62977177685E+01 -0.89616450434E+03  0.90907083041E+03  0.12508883719E+03 0.  0.
          5    1    3    3  502    0  0.33544473545E+02 -0.63930942891E+02 -0.49112205622E+03  0.49641791232E+03  0.41800000000E+01 0.  1.
         -5    1    3    3    0  502  0.53702746604E+02  0.57633225122E+02 -0.40504244812E+03  0.41265291810E+03  0.41800000000E+01 0.  1.
        -11    1    1    2    0    0 -0.25868796485E+02 -0.39853296971E+02 -0.23603475803E+03  0.24076936455E+03  0.00000000000E+00 0. -1.
         11    1    1    2    0    0 -0.61378423663E+02  0.46151014740E+02 -0.28637680834E+03  0.29649435645E+03  0.00000000000E+00 0.  1.
</event>
<event>
 7    1  0.2666594E-009  0.8640531E+02  0.7561462E-02  0.1311798E+00
         -1   -1    0    0    0  501 -0.00000000000E+00  0.00000000000E+00  0.76185650829E+02  0.76185650829E+02  0.00000000000E+00 0.  1.
          1   -1    0    0  501    0  0.00000000000E+00 -0.00000000000E+00 -0.20871120669E+03  0.20871120669E+03  0.00000000000E+00 0. -1.
         25    2    1    2    0    0 -0.19759604773E+02 -0.21590401474E+02 -0.28662677533E+02  0.13162501230E+03  0.12508799848E+03 0.  0.
          5    1    3    3  502    0 -0.23196415155E+02  0.34602146765E+02 -0.55171298767E+02  0.69258406309E+02  0.41800000000E+01 0.  1.
         -5    1    3    3    0  502  0.34368103817E+01 -0.56192548239E+02  0.26508621234E+02  0.62366605991E+02  0.41800000000E+01 0.  1.
        -11    1    1    2    0    0  0.19170631415E+02 -0.22974477987E+02  0.95554190096E+01  0.31410918167E+02  0.00000000000E+00 0.  1.
         11    1    1    2    0    0  0.58897335760E+00  0.44564879461E+02 -0.11341829734E+03  0.12186092705E+03  0.00000000000E+00 0. -1.
</event>
<event>
 7    1  0.2666594E-009  0.8347427E+02  0.7561462E-02  0.1319471E+00
         -1   -1    0    0    0  501 -0.00000000000E+00  0.00000000000E+00  0.14447828724E+03  0.14447828724E+03  0.00000000000E+00 0.  1.
          1   -1    0    0  501    0  0.00000000000E+00 -0.00000000000E+00 -0.11736962327E+03  0.11736962327E+03  0.00000000000E+00 0. -1.
         25    2    1    2    0    0  0.23074385225E+02 -0.13119894513E+02 -0.54512865896E+02  0.13901097308E+03  0.12509132345E+03 0.  0.
          5    1    3    3  502    0 -0.49929977749E+01 -0.53455048866E+02  0.13006360922E+02  0.55398647100E+02  0.41800000000E+01 0. -1.
         -5    1    3    3    0  502  0.28067383000E+02  0.40335154353E+02 -0.67519226818E+02  0.83612325977E+02  0.41800000000E+01 0. -1.
        -11    1    1    2    0    0 -0.36607044028E+02 -0.91397939286E+01  0.88231930534E+02  0.95960851764E+02  0.00000000000E+00 0.  1.
         11    1    1    2    0    0  0.13532658803E+02  0.22259688442E+02 -0.66104006673E+01  0.26876085667E+02  0.00000000000E+00 0. -1.
</event>
<event>
 7    1  0.2666594E-009  0.1641052E+03  0.7561462E-02  0.1184138E+00
          1   -1    0    0  501    0  0.00000000000E+00  0.00000000000E+00  0.13409833839E+04  0.13409833839E+04  0.00000000000E+00 0. -1.
         -1   -1    0    0    0  501 -0.00000000000E+00 -0.00000000000E+00 -0.22292218931E+02  0.22292218931E+02  0.00000000000E+00 0.  1.
         25    2    1    2    0    0  0.93412996666E+02  0.87495443797E+02  0.54558670638E+03  0.57418940763E+03  0.12508869264E+03 0.  0.
          5    1    3    3  502    0 -0.45748624742E+01 -0.23781587208E+02  0.14405766755E+03  0.14613889707E+03  0.41800000000E+01 0.  1.
         -5    1    3    3    0  502  0.97987859140E+02  0.11127703101E+03  0.40152903883E+03  0.42805051056E+03  0.41800000000E+01 0.  1.
        -11    1    1    2    0    0 -0.16871729644E+02 -0.76066669846E+02  0.46047902976E+03  0.46702433595E+03  0.00000000000E+00 0. -1.
         11    1    1    2    0    0 -0.76541267022E+02 -0.11428773951E+02  0.31262542884E+03  0.32206185926E+03  0.00000000000E+00 0.  1.
</event>
<event>
 7    1  0.2666594E-009  0.1080560E+03  0.7561462E-02  0.1264213E+00
         -1   -1    0    0    0  501 -0.00000000000E+00  0.00000000000E+00  0.60725292430E+02  0.60725292430E+02  0.00000000000E+00 0.  1.
          1   -1    0    0  501    0  0.00000000000E+00 -0.00000000000E+00 -0.49695529366E+03  0.49695529366E+03  0.00000000000E+00 0. -1.
         25    2    1    2    0    0 -0.34197540549E+01  0.40556067038E+02 -0.43365702555E+03  0.45316989958E+03  0.12509217715E+03 0.  0.
          5    1    3    3  502    0  0.48362005129E+02 -0.16106567684E+02 -0.22668207821E+03  0.23238016706E+03  0.41800000000E+01 0.  1.
         -5    1    3    3    0  502 -0.51781759184E+02  0.56662634722E+02 -0.20697494734E+03  0.22078973252E+03  0.41800000000E+01 0.  1.
        -11    1    1    2    0    0  0.36664688271E+02 -0.40792761298E+02 -0.28998108243E+02  0.62042235791E+02  0.00000000000E+00 0.  1.
         11    1    1    2    0    0 -0.33244934216E+02  0.23669425997E+00  0.26425132565E+02  0.42468450717E+02  0.00000000000E+00 0. -1.
</event>
<event>
 7    1  0.2666594E-009  0.1655978E+03  0.7561462E-02  0.1182518E+00
         -2   -1    0    0    0  501 -0.00000000000E+00  0.00000000000E+00  0.78040064263E+02  0.78040064263E+02  0.00000000000E+00 0.  1.
          2   -1    0    0  501    0  0.00000000000E+00 -0.00000000000E+00 -0.57656405603E+03  0.57656405603E+03  0.00000000000E+00 0. -1.
         25    2    1    2    0    0  0.11888780800E+03  0.81387712340E+02 -0.88642274619E+02  0.21038893488E+03  0.12509108865E+03 0.  0.
          5    1    3    3  502    0  0.24358739240E+02  0.57221701925E+02 -0.93769229645E+02  0.11259579112E+03  0.41800000000E+01 0.  1.
         -5    1    3    3    0  502  0.94529068755E+02  0.24166010414E+02  0.51269550264E+01  0.97793143762E+02  0.41800000000E+01 0.  1.
        -11    1    1    2    0    0 -0.53404090853E+02 -0.90509317396E+02 -0.24709402445E+03  0.26851329646E+03  0.00000000000E+00 0.  1.
         11    1    1    2    0    0 -0.65483717143E+02  0.91216050557E+01 -0.16278769270E+03  0.17570188896E+03  0.00000000000E+00 0. -1.
</event>
<event>
 7    1  0.2666594E-009  0.1501525E+03  0.7561462E-02  0.1200286E+00
         -1   -1    0    0    0  501 -0.00000000000E+00  0.00000000000E+00  0.22370934513E+03  0.22370934513E+03  0.00000000000E+00 0.  1.
          1   -1    0    0  501    0  0.00000000000E+00 -0.00000000000E+00 -0.11954636508E+03  0.11954636508E+03  0.00000000000E+00 0. -1.
         25    2    1    2    0    0 -0.95841957861E+00 -0.11937056064E+03  0.27477087863E+02  0.17507376758E+03  0.12508231059E+03 0.  0.
          5    1    3    3  502    0 -0.39197796017E+02 -0.20226791540E+02 -0.30654886861E+02  0.53877498058E+02  0.41800000000E+01 0.  1.
         -5    1    3    3    0  502  0.38239376438E+02 -0.99143769098E+02  0.58131974725E+02  0.12119626952E+03  0.41800000000E+01 0.  1.
        -11    1    1    2    0    0  0.45194207090E+02  0.70438532957E+02  0.44480003684E+02  0.94776442259E+02  0.00000000000E+00 0. -1.
         11    1    1    2    0    0 -0.44235787512E+02  0.48932027682E+02  0.32205888506E+02  0.73405500368E+02  0.00000000000E+00 0.  1.
</event>
<event>
 7    1  0.2666594E-009  0.1356280E+03  0.7561462E-02  0.1219336E+00
          2   -1    0    0  501    0  0.00000000000E+00  0.00000000000E+00  0.26507592785E+03  0.26507592785E+03  0.00000000000E+00 0. -1.
         -2   -1    0    0    0  501 -0.00000000000E+00 -0.00000000000E+00 -0.12545286492E+03  0.12545286492E+03  0.00000000000E+00 0.  1.
         25    2    1    2    0    0  0.21980340542E+02 -0.85442963630E+02 -0.51125638679E+02  0.16138540983E+03  0.12509110348E+03 0.  0.
          5    1    3    3  502    0  0.56970829342E+02 -0.15933511643E+01 -0.20239382860E+00  0.57146544314E+02  0.41800000000E+01 0. -1.
         -5    1    3    3    0  502 -0.34990488799E+02 -0.83849612466E+02 -0.50923244850E+02  0.10423886551E+03  0.41800000000E+01 0. -1.
        -11    1    1    2    0    0 -0.12854216684E+02 -0.16438114475E+02  0.57439325968E+02  0.61112344593E+02  0.00000000000E+00 0. -1.
         11    1    1    2    0    0 -0.91261238588E+01  0.10188107810E+03  0.13330937565E+03  0.16803103835E+03  0.00000000000E+00 0.  1.
</event>
<event>
 7    1  0.2666594E-009  0.1085582E+03  0.7561462E-02  0.1263263E+00
         -1   -1    0    0    0  501 -0.00000000000E+00  0.00000000000E+00  0.31012040906E+02  0.31012040906E+02  0.00000000000E+00 0.  1.
          1   -1    0    0  501    0  0.00000000000E+00 -0.00000000000E+00 -0.76252419483E+03  0.76252419483E+03  0.00000000000E+00 0. -1.
         25    2    1    2    0    0  0.39142564911E+01  0.41842006881E+02 -0.58306210719E+03  0.59780857218E+03  0.12509034013E+03 0.  0.
          5    1    3    3  502    0 -0.31915927635E+02  0.55188592246E+02 -0.14997053547E+03  0.16301239542E+03  0.41800000000E+01 0.  1.
         -5    1    3    3    0  502  0.35830184126E+02 -0.13346585365E+02 -0.43309157172E+03  0.43479617677E+03  0.41800000000E+01 0.  1.
        -11    1    1    2    0    0 -0.29176074155E+02  0.28033978165E+02 -0.97702038101E+02  0.10574892663E+03  0.00000000000E+00 0. -1.
         11    1    1    2    0    0  0.25261817664E+02 -0.69875985046E+02 -0.50748008639E+02  0.89978736925E+02  0.00000000000E+00 0.  1.
</event>
<event>
 7    1  0.2666594E-009  0.6452933E+02  0.7561462E-02  0.1379751E+00
          2   -1    0    0  501    0  0.00000000000E+00  0.00000000000E+00  0.44086223177E+02  0.44086223177E+02  0.00000000000E+00 0. -1.
         -2   -1    0    0    0  501 -0.00000000000E+00 -0.00000000000E+00 -0.36033148914E+03  0.36033148914E+03  0.00000000000E+00 0.  1.
         25    2    1    2    0    0  0.19170672150E+02  0.42517900205E+02 -0.24980924940E+03  0.28324361616E+03  0.12508796307E+03 0.  0.
          5    1    3    3  502    0  0.34672525355E+02  0.28277687643E+02 -0.25677758350E+03  0.26067990222E+03  0.41800000000E+01 0. -1.
         -5    1    3    3    0  502 -0.15501853205E+02  0.14240212562E+02  0.69683341059E+01  0.22563713941E+02  0.41800000000E+01 0. -1.
        -11    1    1    2    0    0 -0.26914832736E+02 -0.91821254694E+01 -0.79583688035E+02  0.84512029029E+02  0.00000000000E+00 0.  1.
         11    1    1    2    0    0  0.77441605861E+01 -0.33335774735E+02  0.13147671473E+02  0.36662067121E+02  0.00000000000E+00 0. -1.
</event>
<event>
 7    1  0.2666594E-009  0.7882504E+02  0.7561462E-02  0.1332419E+00
          1   -1    0    0  501    0  0.00000000000E+00  0.00000000000E+00  0.22726914971E+03  0.22726914971E+03  0.00000000000E+00 0. -1.
         -1   -1    0    0    0  501 -0.00000000000E+00 -0.00000000000E+00 -0.58474888102E+02  0.58474888102E+02  0.00000000000E+00 0.  1.
         25    2    1    2    0    0 -0.17754530842E+02 -0.36063542473E+01  0.48562183036E+02  0.13540053328E+03  0.12508712817E+03 0.  0.
          5    1    3    3  502    0  0.38451081446E+02 -0.72978322795E+01 -0.21941442003E+02  0.45062659681E+02  0.41800000000E+01 0.  1.
         -5    1    3    3    0  502 -0.56205612288E+02  0.36914780323E+01  0.70503625039E+02  0.90337873599E+02  0.41800000000E+01 0.  1.
        -11    1    1    2    0    0 -0.74601329967E+01  0.26635130773E+02  0.11179829133E+03  0.11516918737E+03  0.00000000000E+00 0. -1.
         11    1    1    2    0    0  0.25214663839E+02 -0.23028776525E+02  0.84337872489E+01  0.35174317166E+02  0.00000000000E+00 0.  1.
</event>
<event>
 7    1  0.2666594E-009  0.9455379E+02  0.7561462E-02  0.1292184E+00
          1   -1    0    0  501    0  0.00000000000E+00  0.00000000000E+00  0.63480161076E+02  0.63480161076E+02  0.00000000000E+00 0. -1.
         -1   -1    0    0    0  501 -0.00000000000E+00 -0.00000000000E+00 -0.27228631506E+03  0.27228631506E+03  0.00000000000E+00 0.  1.
         25    2    1    2    0    0  0.45752757467E+02  0.30966761088E+02 -0.17872101903E+03  0.22503171760E+03  0.12508323700E+03 0.  0.
          5    1    3    3  502    0  0.60483294276E+02  0.28637936100E+02 -0.26616422157E+02  0.72140602985E+02  0.41800000000E+01 0. -1.
         -5    1    3    3    0  502 -0.14730536809E+02  0.23288249877E+01 -0.15210459687E+03  0.15289111462E+03  0.41800000000E+01 0. -1.
        -11    1    1    2    0    0 -0.54814970269E+02 -0.56953607527E+02 -0.22540504211E+02  0.82197741490E+02  0.00000000000E+00 0. -1.
         11    1    1    2    0    0  0.90622128017E+01  0.25986846439E+02 -0.75446307471E+01  0.28537017045E+02  0.00000000000E+00 0.  1.
</event>
<event>
 7    1  0.2666594E-009  0.9728231E+02  0.7561462E-02  0.1286117E+00
          1   -1    0    0  501    0  0.00000000000E+00  0.00000000000E+00  0.52195656068E+02  0.52195656068E+02  0.00000000000E+00 0. -1.
         -1   -1    0    0    0  501 -0.00000000000E+00 -0.00000000000E+00 -0.28206278813E+03  0.28206278813E+03  0.00000000000E+00 0.  1.
         25    2    1    2    0    0  0.13516218337E+02 -0.14457655904E+02 -0.57771027991E+02  0.13919723769E+03  0.12508663930E+03 0.  0.
          5    1    3    3  502    0  0.66258229499E+02 -0.12019124868E+02 -0.10646565257E+02  0.68303982979E+02  0.41800000000E+01 0. -1.
         -5    1    3    3    0  502 -0.52742011163E+02 -0.24385310361E+01 -0.47124462734E+02  0.70893254708E+02  0.41800000000E+01 0. -1.
        -11    1    1    2    0    0 -0.42721534975E+02  0.13883948927E+02 -0.15463890607E+03  0.16103131639E+03  0.00000000000E+00 0.  1.
         11    1    1    2    0    0  0.29205316639E+02  0.57370697674E+00 -0.17457198007E+02  0.34029890125E+02  0.00000000000E+00 0. -1.
</event>
<event>
 7    1  0.2666594E-009  0.1641338E+03  0.7561462E-02  0.1184107E+00
          3   -1    0    0  501    0  0.00000000000E+00  0.00000000000E+00  0.54488598549E+03  0.54488598549E+03  0.00000000000E+00 0. -1.
         -3   -1    0    0    0  501 -0.00000000000E+00 -0.00000000000E+00 -0.10152719543E+03  0.10152719543E+03  0.00000000000E+00 0.  1.
         25    2    1    2    0    0 -0.10917009799E+03 -0.87480391025E+02  0.44044713584E+03  0.47876047081E+03  0.12508788840E+03 0.  0.
          5    1    3    3  502    0 -0.39885688414E+02  0.22588668598E+02  0.53796739559E+02  0.70800266076E+02  0.41800000000E+01 0. -1.
         -5    1    3    3    0  502 -0.69284409576E+02 -0.11006905962E+03  0.38665039629E+03  0.40796020473E+03  0.41800000000E+01 0. -1.
        -11    1    1    2    0    0  0.40740756759E+02 -0.38709203024E+00 -0.31043350067E+02  0.51221564647E+02  0.00000000000E+00 0.  1.
         11    1    1    2    0    0  0.68429341231E+02  0.87867483055E+02  0.33955004277E+02  0.11643114547E+03  0.00000000000E+00 0. -1.
</event>
<event>
 7    1  0.2666594E-009  0.1123055E+03  0.7561462E-02  0.1256359E+00
          1   -1    0    0  501    0  0.00000000000E+00  0.00000000000E+00  0.20333452362E+02  0.20333452362E+02  0.00000000000E+00 0. -1.
         -1   -1    0    0    0  501 -0.00000000000E+00 -0.00000000000E+00 -0.85174700657E+03  0.85174700657E+03  0.00000000000E+00 0.  1.
         25    2    1    2    0    0  0.14037719446E+02 -0.70476745551E+02 -0.52969453254E+03  0.54898757522E+03  0.12508809179E+03 0.  0.
          5    1    3    3  502    0  0.40927309640E+02 -0.93210954916E+02 -0.45548816548E+03  0.46674432839E+03  0.41800000000E+01 0. -1.
         -5    1    3    3    0  502 -0.26889590195E+02  0.22734209365E+02 -0.74206367062E+02  0.82243246828E+02  0.41800000000E+01 0. -1.
        -11    1    1    2    0    0  0.17597457362E+02  0.38262624029E+02 -0.25373570616E+03  0.25720712954E+03  0.00000000000E+00 0.  1.
         11    1    1    2    0    0 -0.31635176808E+02  0.32214121521E+02 -0.47983315507E+02  0.65885754182E+02  0.00000000000E+00 0. -1.
</event>
<event>
 7    1  0.2666594E-009  0.1603175E+03  0.7561462E-02  0.1188339E+00
          2   -1    0    0  501    0  0.00000000000E+00  0.00000000000E+00  0.69121688657E+03  0.69121688657E+03  0.00000000000E+00 0. -1.
         -2   -1    0    0    0  501 -0.00000000000E+00 -0.00000000000E+00 -0.42472604330E+02  0.42472604330E+02  0.00000000000E+00 0.  1.
         25    2    1    2    0    0  0.86879191436E+02 -0.10730999587E+03  0.32277874179E+03  0.37268933275E+03  0.12509114068E+03 0.  0.
          5    1    3    3  502    0 -0.18634279970E+02 -0.75764143891E+01  0.21038484177E+01  0.20652772772E+02  0.41800000000E+01 0.  1.
         -5    1    3    3    0  502  0.10551347141E+03 -0.99733581485E+02  0.32067489337E+03  0.35203655998E+03  0.41800000000E+01 0.  1.
        -11    1    1    2    0    0  0.12228804651E+02  0.85122189998E+01  0.25263026238E+02  0.29329541937E+02  0.00000000000E+00 0.  1.
         11    1    1    2    0    0 -0.99107996088E+02  0.98797776874E+02  0.30070251421E+03  0.33167061621E+03  0.00000000000E+00 0. -1.
</event>
<event>
 7    1  0.2666594E-009  0.3734059E+03  0.7561462E-02  0.1053398E+00
         -3   -1    0    0    0  501 -0.00000000000E+00  0.00000000000E+00  0.19623312350E+03  0.19623312350E+03  0.00000000000E+00 0.  1.
          3   -1    0    0  501    0  0.00000000000E+00 -0.00000000000E+00 -0.75840414386E+03  0.75840414386E+03  0.00000000000E+00 0. -1.
         25    2    1    2    0    0 -0.32894737789E+03  0.16239561223E+03 -0.34632782769E+03  0.51977840476E+03  0.12509162054E+03 0.  0.
          5    1    3    3  502    0 -0.12440426625E+03  0.10971285773E+03 -0.21286094368E+03  0.26988995231E+03  0.41800000000E+01 0. -1.
         -5    1    3    3    0  502 -0.20454311164E+03  0.52682754499E+02 -0.13346688401E+03  0.24988845245E+03  0.41800000000E+01 0. -1.
        -11    1    1    2    0    0  0.26435644578E+03 -0.10948337555E+03 -0.20193360170E+03  0.35021153528E+03  0.00000000000E+00 0. -1.
         11    1    1    2    0    0  0.64590932105E+02 -0.52912236677E+02 -0.13909590958E+02  0.84647327312E+02  0.00000000000E+00 0.  1.
</event>
<event>
 7    1  0.2666594E-009  0.1132842E+03  0.7561462E-02  0.1254606E+00
         -4   -1    0    0    0  501 -0.00000000000E+00  0.00000000000E+00  0.10321619063E+04  0.10321619063E+04  0.00000000000E+00 0.  1.
          4   -1    0    0  501    0  0.00000000000E+00 -0.00000000000E+00 -0.14150307988E+02  0.14150307988E+02  0.00000000000E+00 0. -1.
         25    2    1    2    0    0  0.91963393232E+01 -0.28144383776E+02  0.74839487240E+03  0.75935454784E+03  0.12509102806E+03 0.  0.
          5    1    3    3  502    0 -0.57899289810E+02 -0.15953646173E+02  0.34339474537E+03  0.34863199815E+03  0.41800000000E+01 0. -1.
         -5    1    3    3    0  502  0.67095629133E+02 -0.12190737604E+02  0.40500012703E+03  0.41072254970E+03  0.41800000000E+01 0. -1.
        -11    1    1    2    0    0 -0.34614275496E+02 -0.22565682764E+02  0.10471661491E+03  0.11257409802E+03  0.00000000000E+00 0.  1.
         11    1    1    2    0    0  0.25417936173E+02  0.50710066540E+02  0.16490011100E+03  0.17438356842E+03  0.00000000000E+00 0. -1.
</event>
<event>
 7    1  0.2666594E-009  0.9781734E+02  0.7561462E-02  0.1284954E+00
          2   -1    0    0  501    0  0.00000000000E+00  0.00000000000E+00  0.13048540999E+03  0.13048540999E+03  0.00000000000E+00 0. -1.
         -2   -1    0    0    0  501 -0.00000000000E+00 -0.00000000000E+00 -0.10976869969E+03  0.10976869969E+03  0.00000000000E+00 0.  1.
         25    2    1    2    0    0  0.38740307425E+02  0.15768781403E+02  0.38668343978E+02  0.13744641514E+03  0.12508721087E+03 0.  0.
          5    1    3    3  502    0  0.22042404635E+01  0.63584883314E+02 -0.34849468406E+01  0.63855409454E+02  0.41800000000E+01 0. -1.
         -5    1    3    3    0  502  0.36536066961E+02 -0.47816101911E+02  0.42153290819E+02  0.73591005686E+02  0.41800000000E+01 0. -1.
        -11    1    1    2    0    0 -0.25043041343E+02 -0.37958755021E+02 -0.45879288151E+02  0.64598220437E+02  0.00000000000E+00 0.  1.
         11    1    1    2    0    0 -0.13697266081E+02  0.22189973618E+02  0.27927654475E+02  0.38209474110E+02  0.00000000000E+00 0. -1.
</event>
<event>
 7    1  0.2666594E-009  0.5465615E+02  0.7561462E-02  0.1421732E+00
         -1   -1    0    0    0  501 -0.00000000000E+00  0.00000000000E+00  0.22922913147E+03  0.22922913147E+03  0.00000000000E+00 0.  1.
          1   -1    0    0  501    0  0.00000000000E+00 -0.00000000000E+00 -0.57317540708E+02  0.57317540708E+02  0.00000000000E+00 0. -1.
         25    2    1    2    0    0  0.45629607559E+00  0.35713203199E+02  0.69030966082E+02  0.14727108174E+03  0.12509139119E+03 0.  0.
          5    1    3    3  502    0  0.33368762115E+01  0.24677011896E+02 -0.34653799116E+02  0.42877125045E+02  0.41800000000E+01 0.  1.
         -5    1    3    3    0  502 -0.28805801359E+01  0.11036191303E+02  0.10368476520E+03  0.10439395670E+03  0.41800000000E+01 0.  1.
        -11    1    1    2    0    0 -0.30582366306E+02 -0.26346195261E+02  0.10575999272E+02  0.41728346411E+02  0.00000000000E+00 0. -1.
         11    1    1    2    0    0  0.30126070230E+02 -0.93670079381E+01  0.92304625408E+02  0.97547244026E+02  0.00000000000E+00 0.  1.
</event>
<event>
 7    1  0.2666594E-009  0.1134589E+03  0.7561462E-02  0.1254295E+00
         -1   -1    0    0    0  501 -0.00000000000E+00  0.00000000000E+00  0.10979662330E+03  0.10979662330E+03  0.00000000000E+00 0.  1.
          1   -1    0    0  501    0  0.00000000000E+00 -0.00000000000E+00 -0.20260317359E+03  0.20260317359E+03  0.00000000000E+00 0. -1.
         25    2    1    2    0    0 -0.13573617121E+02 -0.82281380320E+02  0.14437436273E+02  0.15103142498E+03  0.12509029992E+03 0.  0.
          5    1    3    3  502    0  0.29269989660E+02  0.53690133949E+01  0.40057096196E+02  0.50075961850E+02  0.41800000000E+01 0.  1.
         -5    1    3    3    0  502 -0.42843606781E+02 -0.87650393715E+02 -0.25619659923E+02  0.10095546313E+03  0.41800000000E+01 0.  1.
        -11    1    1    2    0    0 -0.20896140422E+02  0.33591179384E+02 -0.91475069864E+02  0.99662954118E+02  0.00000000000E+00 0. -1.
         11    1    1    2    0    0  0.34469757543E+02  0.48690200936E+02 -0.15768916698E+02  0.61705417802E+02  0.00000000000E+00 0.  1.
</event>
<event>
 7    1  0.2666594E-009  0.1464848E+03  0.7561462E-02  0.1204860E+00
          2   -1    0    0  501    0  0.00000000000E+00  0.00000000000E+00  0.34340096374E+03  0.34340096374E+03  0.00000000000E+00 0.  1.
         -2   -1    0    0    0  501 -0.00000000000E+00 -0.00000000000E+00 -0.72734279745E+02  0.72734279745E+02  0.00000000000E+00 0. -1.
         25    2    1    2    0    0 -0.10684049084E+03  0.10645108008E+01  0.91302263548E+02  0.18814757136E+03  0.12508949442E+03 0.  0.
          5    1    3    3  502    0 -0.10749788978E+02 -0.46245275959E+02  0.49257368323E+00  0.47664436852E+02  0.41800000000E+01 0.  1.
         -5    1    3    3    0  502 -0.96090701862E+02  0.47309786759E+02  0.90809689865E+02  0.14048313451E+03  0.41800000000E+01 0.  1.
        -11    1    1    2    0    0  0.46668473869E+02  0.43063891728E+02  0.10453831781E+03  0.12231396124E+03  0.00000000000E+00 0.  1.
         11    1    1    2    0    0  0.60172016971E+02 -0.44128402529E+02  0.74826102632E+02  0.10567371088E+03  0.00000000000E+00 0. -1.
</event>
<event>
 7    1  0.2666594E-009  0.1178699E+03  0.7561462E-02  0.1246653E+00
          1   -1    0    0  501    0  0.00000000000E+00  0.00000000000E+00  0.12994266865E+03  0.12994266865E+03  0.00000000000E+00 0. -1.
         -1   -1    0    0    0  501 -0.00000000000E+00 -0.00000000000E+00 -0.12780555449E+03  0.12780555449E+03  0.00000000000E+00 0.  1.
         25    2    1    2    0    0 -0.80825851744E+01  0.71764118867E+02  0.17004512318E+02  0.14543653056E+03  0.12508882461E+03 0.  0.
          5    1    3    3  502    0  0.10699844093E+02 -0.29630406140E+02 -0.17919647148E+02  0.36483335724E+02  0.41800000000E+01 0. -1.
         -5    1    3    3    0  502 -0.18782429267E+02  0.10139452501E+03  0.34924159465E+02  0.10895319484E+03  0.41800000000E+01 0. -1.
        -11    1    1    2    0    0 -0.29180014681E+02 -0.49176738035E+02 -0.31956995502E+02  0.65506292691E+02  0.00000000000E+00 0.  1.
         11    1    1    2    0    0  0.37262599856E+02 -0.22587380832E+02  0.17089597348E+02  0.46805399885E+02  0.00000000000E+00 0. -1.
</event>
<event>
 7    1  0.2666594E-009  0.9072569E+02  0.7561462E-02  0.1301104E+00
          1   -1    0    0  501    0  0.00000000000E+00  0.00000000000E+00  0.96828738403E+02  0.96828738403E+02  0.00000000000E+00 0. -1.
         -1   -1    0    0    0  501 -0.00000000000E+00 -0.00000000000E+00 -0.20774483293E+03  0.20774483293E+03  0.00000000000E+00 0.  1.
         25    2    1    2    0    0 -0.75809703006E+01 -0.31663669330E+02 -0.15296106700E+03  0.20026129285E+03  0.12508972111E+03 0.  0.
          5    1    3    3  502    0 -0.30803268083E+02  0.14934255807E+02 -0.14298572915E+03  0.14708590844E+03  0.41800000000E+01 0.  1.
         -5    1    3    3    0  502  0.23222297783E+02 -0.46597925136E+02 -0.99753378527E+01  0.53175384405E+02  0.41800000000E+01 0.  1.
        -11    1    1    2    0    0 -0.37328108994E+02 -0.37845886170E+01  0.23019272043E+02  0.44018152136E+02  0.00000000000E+00 0.  1.
         11    1    1    2    0    0  0.44909079295E+02  0.35448257947E+02  0.19025700440E+02  0.60294126346E+02  0.00000000000E+00 0. -1.
</event>
<event>
 7    1  0.2666594E-009  0.1008307E+03  0.7561462E-02  0.1278559E+00
         -2   -1    0    0    0  501 -0.00000000000E+00  0.00000000000E+00  0.70745723883E+02  0.70745723883E+02  0.00000000000E+00 0.  1.
          2   -1    0    0  501    0  0.00000000000E+00 -0.00000000000E+00 -0.36661994945E+03  0.36661994945E+03  0.00000000000E+00 0. -1.
         25    2    1    2    0    0  0.85646256305E+02 -0.78975597803E+01 -0.50027497091E+02  0.15983749452E+03  0.12509045335E+03 0.  0.
          5    1    3    3  502    0  0.61388114988E+02  0.29051065156E+02  0.25138496569E+02  0.72538827246E+02  0.41800000000E+01 0. -1.
         -5    1    3    3    0  502  0.24258141317E+02 -0.36948624936E+02 -0.75165993660E+02  0.87298667274E+02  0.41800000000E+01 0. -1.
        -11    1    1    2    0    0 -0.69139486257E+02  0.15796415316E+02 -0.24904951817E+03  0.25895068604E+03  0.00000000000E+00 0. -1.
         11    1    1    2    0    0 -0.16506770048E+02 -0.78988555357E+01  0.32027896932E+01  0.18577492780E+02  0.00000000000E+00 0.  1.
</event>
<event>
 7    1  0.2666594E-009  0.1174511E+03  0.7561462E-02  0.1247362E+00
          1   -1    0    0  501    0  0.00000000000E+00  0.00000000000E+00  0.93164839850E+02  0.93164839850E+02  0.00000000000E+00 0. -1.
         -1   -1    0    0    0  501 -0.00000000000E+00 -0.00000000000E+00 -0.17607447754E+03  0.17607447754E+03  0.00000000000E+00 0.  1.
         25    2    1    2    0    0  0.55161998083E+02 -0.33286162137E+02 -0.25647088944E+02  0.14302416901E+03  0.12508926863E+03 0.  0.
          5    1    3    3  502    0 -0.30860392711E+02 -0.14150550438E+02 -0.41083704076E+02  0.53459751744E+02  0.41800000000E+01 0.  1.
         -5    1    3    3    0  502  0.86022390794E+02 -0.19135611699E+02  0.15436615132E+02  0.89564417264E+02  0.41800000000E+01 0.  1.
        -11    1    1    2    0    0 -0.65621088776E+02 -0.11377171629E+02 -0.34556504600E+02  0.75031455648E+02  0.00000000000E+00 0.  1.
         11    1    1    2    0    0  0.10459090693E+02  0.44663333766E+02 -0.22706044146E+02  0.51183692735E+02  0.00000000000E+00 0. -1.
</event>
<event>
 7    1  0.5506889E-009  0.1736803E+03  0.7561462E-02  0.1174063E+00
          2   -1    0    0  501    0  0.00000000000E+00  0.00000000000E+00  0.38870802945E+03  0.38870802945E+03  0.00000000000E+00 0. -1.
         -2   -1    0    0    0  501 -0.00000000000E+00 -0.00000000000E+00 -0.90285670220E+02  0.90285670220E+02  0.00000000000E+00 0.  1.
         25    2    1    2    0    0  0.34971064900E+02 -0.14675725086E+03  0.13154408529E+03  0.23603694221E+03  0.12509566601E+03 0.  0.
          5    1    3    3  502    0 -0.45942957109E+02 -0.45181834471E+02  0.30356415217E+02  0.71352209629E+02  0.41800000000E+01 0. -1.
         -5    1    3    3    0  502  0.80914022009E+02 -0.10157541639E+03  0.10118767007E+03  0.16468473258E+03  0.41800000000E+01 0. -1.
        -11    1    1    2    0    0 -0.25679064874E+02  0.55788370154E+02  0.11226784715E+02  0.62432341877E+02  0.00000000000E+00 0.  1.
         11    1    1    2    0    0 -0.92920000262E+01  0.90968880705E+02  0.15565148923E+03  0.18052441558E+03  0.00000000000E+00 0. -1.
</event>
<event>
 7    1  0.2666594E-009  0.1069222E+03  0.7561462E-02  0.1266378E+00
         -2   -1    0    0    0  501 -0.00000000000E+00  0.00000000000E+00  0.35562794081E+03  0.35562794081E+03  0.00000000000E+00 0.  1.
          2   -1    0    0  501    0  0.00000000000E+00 -0.00000000000E+00 -0.79923216140E+02  0.79923216140E+02  0.00000000000E+00 0. -1.
         25    2    1    2    0    0  0.99805725563E+01  0.32519636478E+02  0.30971844638E+03  0.33575227114E+03  0.12508770107E+03 0.  0.
          5    1    3    3  502    0 -0.25613736892E+02 -0.40010226491E+02  0.94997400248E+02  0.10629609680E+03  0.41800000000E+01 0.  1.
         -5    1    3    3    0  502  0.35594309449E+02  0.72529862969E+02  0.21472104613E+03  0.22945617433E+03  0.41800000000E+01 0.  1.
        -11    1    1    2    0    0  0.31848288907E+02  0.67145651955E+00 -0.33737962072E+02  0.46400586688E+02  0.00000000000E+00 0.  1.
         11    1    1    2    0    0 -0.41828861463E+02 -0.33191092998E+02 -0.27575964367E+00  0.53398299122E+02  0.00000000000E+00 0. -1.
</event>
<event>
 7    1  0.2666594E-009  0.9432661E+02  0.7561462E-02  0.1292700E+00
          3   -1    0    0  501    0  0.00000000000E+00  0.00000000000E+00  0.58750333235E+02  0.58750333235E+02  0.00000000000E+00 0. -1.
         -3   -1    0    0    0  501 -0.00000000000E+00 -0.00000000000E+00 -0.28716625824E+03  0.28716625824E+03  0.00000000000E+00 0.  1.
         25    2    1    2    0    0  0.61066126470E+02  0.24515993893E+01 -0.78949165427E+02  0.16005336513E+03  0.12509607039E+03 0.  0.
          5    1    3    3  502    0 -0.13581387034E+02 -0.89710218647E+01 -0.82640016188E+02  0.84331358240E+02  0.41800000000E+01 0. -1.
         -5    1    3    3    0  502  0.74647513504E+02  0.11422621254E+02  0.36908507608E+01  0.75722006893E+02  0.41800000000E+01 0. -1.
        -11    1    1    2    0    0 -0.15043934484E+02 -0.36163454227E+02 -0.10926410414E+03  0.11607221821E+03  0.00000000000E+00 0.  1.
         11    1    1    2    0    0 -0.46022191986E+02  0.33711854837E+02 -0.40202655434E+02  0.69791008129E+02  0.00000000000E+00 0. -1.
</event>
<event>
 7    1  0.2666594E-009  0.1147147E+03  0.7561462E-02  0.1252080E+00
         -1   -1    0    0    0  501 -0.00000000000E+00  0.00000000000E+00  0.26882915907E+02  0.26882915907E+02  0.00000000000E+00 0.  1.
          1   -1    0    0  501    0  0.00000000000E+00 -0.00000000000E+00 -0.56465121546E+03  0.56465121546E+03  0.00000000000E+00 0. -1.
         25    2    1    2    0    0  0.50354049982E+02  0.22087054611E+01 -0.26450295777E+03  0.29690042095E+03  0.12509051346E+03 0.  0.
          5    1    3    3  502    0 -0.75140786823E+01  0.49332307542E+02 -0.16512380134E+03  0.17254993513E+03  0.41800000000E+01 0.  1.
         -5    1    3    3    0  502  0.57868128664E+02 -0.47123602081E+02 -0.99379156433E+02  0.12435048581E+03  0.41800000000E+01 0.  1.
        -11    1    1    2    0    0 -0.29480108414E+00  0.39469072887E+02 -0.15130444230E+03  0.15636792792E+03  0.00000000000E+00 0.  1.
         11    1    1    2    0    0 -0.50059248898E+02 -0.41677778349E+02 -0.12196089947E+03  0.13826578249E+03  0.00000000000E+00 0. -1.
</event>
<event>
 7    1  0.2666594E-009  0.6186489E+02  0.7561462E-02  0.1390168E+00
         -1   -1    0    0    0  501 -0.00000000000E+00  0.00000000000E+00  0.95413906123E+02  0.95413906123E+02  0.00000000000E+00 0.  1.
          1   -1    0    0  501    0  0.00000000000E+00 -0.00000000000E+00 -0.15354431240E+03  0.15354431240E+03  0.00000000000E+00 0. -1.
         25    2    1    2    0    0  0.42246362134E+02 -0.35569832719E+02 -0.31746343891E+02  0.14038435711E+03  0.12509983716E+03 0.  0.
          5    1    3    3  502    0  0.14365125872E+02  0.35354524536E+01 -0.74426509157E+02  0.75997591611E+02  0.41800000000E+01 0. -1.
         -5    1    3    3    0  502  0.27881236261E+02 -0.39105285172E+02  0.42680165266E+02  0.64386765496E+02  0.41800000000E+01 0. -1.
        -11    1    1    2    0    0 -0.27991341596E+02  0.80014888064E+01  0.31501050472E+02  0.42893533409E+02  0.00000000000E+00 0.  1.
         11    1    1    2    0    0 -0.14255020538E+02  0.27568343913E+02 -0.57885112860E+02  0.65680328010E+02  0.00000000000E+00 0. -1.
</event>
<event>
 7    1  0.2666594E-009  0.1326081E+03  0.7561462E-02  0.1223636E+00
         -2   -1    0    0    0  501 -0.00000000000E+00  0.00000000000E+00  0.53276140523E+02  0.53276140523E+02  0.00000000000E+00 0.  1.
          2   -1    0    0  501    0  0.00000000000E+00 -0.00000000000E+00 -0.44902587426E+03  0.44902587426E+03  0.00000000000E+00 0. -1.
         25    2    1    2    0    0  0.19250911504E+02  0.10430896595E+03 -0.16923159911E+03  0.23566415998E+03  0.12508918495E+03 0.  0.
          5    1    3    3  502    0 -0.47844415990E+01 -0.10343200965E+02 -0.97470555522E+02  0.98223491495E+02  0.41800000000E+01 0.  1.
         -5    1    3    3    0  502  0.24035353103E+02  0.11465216692E+03 -0.71761043583E+02  0.13744066849E+03  0.41800000000E+01 0.  1.
        -11    1    1    2    0    0 -0.11056987710E+02 -0.11874531042E+03 -0.21670779683E+03  0.24735596806E+03  0.00000000000E+00 0.  1.
         11    1    1    2    0    0 -0.81939237932E+01  0.14436344468E+02 -0.98103377936E+01  0.19281886742E+02  0.00000000000E+00 0. -1.
</event>
<event>
 7    1  0.2666594E-009  0.1572093E+03  0.7561462E-02  0.1191884E+00
          2   -1    0    0  501    0  0.00000000000E+00  0.00000000000E+00  0.16580529482E+03  0.16580529482E+03  0.00000000000E+00 0. -1.
         -2   -1    0    0    0  501 -0.00000000000E+00 -0.00000000000E+00 -0.15245882699E+03  0.15245882699E+03  0.00000000000E+00 0.  1.
         25    2    1    2    0    0 -0.11177680029E+03  0.18377386304E+02 -0.14449995708E+02  0.16938042615E+03  0.12509654263E+03 0.  0.
          5    1    3    3  502    0 -0.14011645110E+02 -0.48064070753E+02 -0.14356495796E+00  0.50239169051E+02  0.41800000000E+01 0.  1.
         -5    1    3    3    0  502 -0.97765155182E+02  0.66441457056E+02 -0.14306430750E+02  0.11914125710E+03  0.41800000000E+01 0.  1.
        -11    1    1    2    0    0  0.86971583302E+02  0.29615909757E+02  0.12405426917E+02  0.92709508843E+02  0.00000000000E+00 0.  1.
         11    1    1    2    0    0  0.24805216990E+02 -0.47993296061E+02  0.15391036622E+02  0.56174186821E+02  0.00000000000E+00 0. -1.
</event>
<event>
 7    1  0.2666594E-009  0.9891163E+02  0.7561462E-02  0.1282601E+00
          1   -1    0    0  501    0  0.00000000000E+00  0.00000000000E+00  0.91306025995E+03  0.91306025995E+03  0.00000000000E+00 0. -1.
         -1   -1    0    0    0  501 -0.00000000000E+00 -0.00000000000E+00 -0.19460244207E+02  0.19460244207E+02  0.00000000000E+00 0.  1.
         25    2    1    2    0    0 -0.15861788469E+02  0.72581021403E+02  0.54417986504E+03  0.56329242195E+03  0.12508807345E+03 0.  0.
          5    1    3    3  502    0  0.32847074398E+02  0.15544376721E+02  0.39076009180E+03  0.39246844419E+03  0.41800000000E+01 0. -1.
         -5    1    3    3    0  502 -0.48708862867E+02  0.57036644682E+02  0.15341977324E+03  0.17082397776E+03  0.41800000000E+01 0. -1.
        -11    1    1    2    0    0  0.24082415603E+02 -0.15920434026E+02  0.20611321381E+02  0.35471813175E+02  0.00000000000E+00 0.  1.
         11    1    1    2    0    0 -0.82206271346E+01 -0.56660587376E+02  0.32880882933E+03  0.33375626903E+03  0.00000000000E+00 0. -1.
</event>
<event>
 7    1  0.2666594E-009  0.1368050E+03  0.7561462E-02  0.1217694E+00
          2   -1    0    0  501    0  0.00000000000E+00  0.00000000000E+00  0.48755259521E+03  0.48755259521E+03  0.00000000000E+00 0. -1.
         -2   -1    0    0    0  501 -0.00000000000E+00 -0.00000000000E+00 -0.50425332713E+02  0.50425332713E+02  0.00000000000E+00 0.  1.
         25    2    1    2    0    0 -0.79128302823E+02 -0.29855678173E+02  0.10683869824E+03  0.18497387889E+03  0.12509268005E+03 0.  0.
          5    1    3    3  502    0 -0.18842309776E+01 -0.65452611102E+02  0.51599562943E+02  0.83472042759E+02  0.41800000000E+01 0. -1.
         -5    1    3    3    0  502 -0.77244071845E+02  0.35596932929E+02  0.55239135297E+02  0.10150183613E+03  0.41800000000E+01 0. -1.
        -11    1    1    2    0    0  0.82671721833E+02 -0.96009050332E+01  0.24969692473E+03  0.26320209951E+03  0.00000000000E+00 0. -1.
         11    1    1    2    0    0 -0.35434190100E+01  0.39456583206E+02  0.80591639530E+02  0.89801949526E+02  0.00000000000E+00 0.  1.
</event>
<event>
 7    1  0.2666594E-009  0.1506467E+03  0.7561462E-02  0.1199681E+00
          1   -1    0    0  501    0  0.00000000000E+00  0.00000000000E+00  0.15933442703E+03  0.15933442703E+03  0.00000000000E+00 0. -1.
         -1   -1    0    0    0  501 -0.00000000000E+00 -0.00000000000E+00 -0.18640821841E+03  0.18640821841E+03  0.00000000000E+00 0.  1.
         25    2    1    2    0    0  0.13016973640E+03 -0.29952584966E+02 -0.76815757080E+01  0.18316064484E+03  0.12508995800E+03 0.  0.
          5    1    3    3  502    0 -0.79797677855E+01  0.10507997837E+02  0.31079704716E+02  0.34022274434E+02  0.41800000000E+01 0.  1.
         -5    1    3    3    0  502  0.13814950419E+03 -0.40460582803E+02 -0.38761280424E+02  0.14913837041E+03  0.41800000000E+01 0.  1.
        -11    1    1    2    0    0 -0.66353325786E+02  0.41954078555E+02 -0.47574887022E+02  0.91794762516E+02  0.00000000000E+00 0.  1.
         11    1    1    2    0    0 -0.63816410614E+02 -0.12001493589E+02  0.28182671351E+02  0.70787238091E+02  0.00000000000E+00 0. -1.
</event>
<event>
 7    1  0.2666594E-009  0.1113694E+03  0.7561462E-02  0.1258055E+00
          2   -1    0    0  501    0  0.00000000000E+00  0.00000000000E+00  0.31496859350E+03  0.31496859350E+03  0.00000000000E+00 0. -1.
         -2   -1    0    0    0  501 -0.00000000000E+00 -0.00000000000E+00 -0.52880568709E+02  0.52880568709E+02  0.00000000000E+00 0.  1.
         25    2    1    2    0    0 -0.12937000184E+02  0.55151158270E+02  0.88786597419E+02  0.16352048124E+03  0.12508745609E+03 0.  0.
          5    1    3    3  502    0  0.51122928015E+02  0.35814010176E+02  0.16024382883E+02  0.64579023998E+02  0.41800000000E+01 0.  1.
         -5    1    3    3    0  502 -0.64059928198E+02  0.19337148094E+02  0.72762214536E+02  0.98941457243E+02  0.41800000000E+01 0.  1.
        -11    1    1    2    0    0  0.14732446588E+02 -0.73366229694E+02  0.81184398117E+02  0.11041084702E+03  0.00000000000E+00 0.  1.
         11    1    1    2    0    0 -0.17954464048E+01  0.18215071424E+02  0.92117029255E+02  0.93917833948E+02  0.00000000000E+00 0. -1.
</event>
<event>
 7    1  0.2666594E-009  0.2794118E+03  0.7561462E-02  0.1096011E+00
         -2   -1    0    0    0  501 -0.00000000000E+00  0.00000000000E+00  0.91647976638E+02  0.91647976638E+02  0.00000000000E+00 0.  1.
          2   -1    0    0  501    0  0.00000000000E+00 -0.00000000000E+00 -0.96165274464E+03  0.96165274464E+03  0.00000000000E+00 0. -1.
         25    2    1    2    0    0 -0.26935821513E+03  0.26972813776E+02 -0.34792458157E+03  0.45823698829E+03  0.12509293440E+03 0.  0.
          5    1    3    3  502    0 -0.19474445830E+02  0.31997807192E+02 -0.96935717931E+02  0.10400538215E+03  0.41800000000E+01 0. -1.
         -5    1    3    3    0  502 -0.24988376930E+03 -0.50249934167E+01 -0.25098886364E+03  0.35423160614E+03  0.41800000000E+01 0. -1.
        -11    1    1    2    0    0  0.79494953940E+02 -0.15206089589E+02 -0.25227664105E+03  0.26494183603E+03  0.00000000000E+00 0. -1.
         11    1    1    2    0    0  0.18986326119E+03 -0.11766724187E+02 -0.26980354539E+03  0.33012189696E+03  0.00000000000E+00 0.  1.
</event>
<event>
 7    1  0.2666594E-009  0.1345565E+03  0.7561462E-02  0.1220847E+00
          2   -1    0    0  501    0  0.00000000000E+00  0.00000000000E+00  0.22022159626E+03  0.22022159626E+03  0.00000000000E+00 0. -1.
         -2   -1    0    0    0  501 -0.00000000000E+00 -0.00000000000E+00 -0.12787384401E+03  0.12787384401E+03  0.00000000000E+00 0.  1.
         25    2    1    2    0    0 -0.69951000013E+02  0.89236874353E+02 -0.12866605224E+02  0.16932106889E+03  0.12509081778E+03 0.  0.
          5    1    3    3  502    0 -0.13808671197E+02  0.70134190992E+02 -0.60027870504E+02  0.93436083948E+02  0.41800000000E+01 0.  1.
         -5    1    3    3    0  502 -0.56142328817E+02  0.19102683361E+02  0.47161265280E+02  0.75884984940E+02  0.41800000000E+01 0.  1.
        -11    1    1    2    0    0  0.73645437271E+02 -0.31325545468E+02  0.86402244465E+02  0.11777218720E+03  0.00000000000E+00 0.  1.
         11    1    1    2    0    0 -0.36944372574E+01 -0.57911328885E+02  0.18812113005E+02  0.61002184187E+02  0.00000000000E+00 0. -1.
</event>
<event>
 7    1  0.2666594E-009  0.1019986E+03  0.7561462E-02  0.1276148E+00
         -2   -1    0    0    0  501 -0.00000000000E+00  0.00000000000E+00  0.10307646152E+03  0.10307646152E+03  0.00000000000E+00 0.  1.
          2   -1    0    0  501    0  0.00000000000E+00 -0.00000000000E+00 -0.11585372036E+03  0.11585372036E+03  0.00000000000E+00 0. -1.
         25    2    1    2    0    0 -0.52340274189E+01  0.10290171592E+02  0.16671243352E+01  0.12563253362E+03  0.12508985381E+03 0.  0.
          5    1    3    3  502    0  0.22078520293E+02 -0.45668734059E+02 -0.26245699472E+02  0.57266076080E+02  0.41800000000E+01 0.  1.
         -5    1    3    3    0  502 -0.27312547712E+02  0.55958905650E+02  0.27912823807E+02  0.68366457543E+02  0.41800000000E+01 0.  1.
        -11    1    1    2    0    0  0.27429556215E+02  0.32475012266E+02  0.15305031793E+01  0.42536448086E+02  0.00000000000E+00 0.  1.
         11    1    1    2    0    0 -0.22195528797E+02 -0.42765183857E+02 -0.15974886351E+02  0.50761200171E+02  0.00000000000E+00 0. -1.
</event>
<event>
 7    1  0.2666594E-009  0.1211695E+03  0.7561462E-02  0.1241180E+00
         -3   -1    0    0    0  501 -0.00000000000E+00  0.00000000000E+00  0.49845320313E+03  0.49845320313E+03  0.00000000000E+00 0.  1.
          3   -1    0    0  501    0  0.00000000000E+00 -0.00000000000E+00 -0.32665928126E+02  0.32665928126E+02  0.00000000000E+00 0. -1.
         25    2    1    2    0    0  0.47942008380E+02 -0.47595324107E+02  0.25189098385E+03  0.28924102067E+03  0.12509016448E+03 0.  0.
          5    1    3    3  502    0 -0.37011228262E+02 -0.41654391855E+02  0.83141609614E+02  0.10017444299E+03  0.41800000000E+01 0. -1.
         -5    1    3    3    0  502  0.84953236642E+02 -0.59409322519E+01  0.16874937424E+03  0.18906657768E+03  0.41800000000E+01 0. -1.
        -11    1    1    2    0    0 -0.68133869865E+02  0.42741254498E+02  0.20315599783E+03  0.21849805150E+03  0.00000000000E+00 0.  1.
         11    1    1    2    0    0  0.20191861485E+02  0.48540696087E+01  0.10740293331E+02  0.23380059085E+02  0.00000000000E+00 0. -1.
</event>
<event>
 7    1  0.2666594E-009  0.1131205E+03  0.7561462E-02  0.1254898E+00
         -1   -1    0    0    0  501 -0.00000000000E+00  0.00000000000E+00  0.62615507579E+02  0.62615507579E+02  0.00000000000E+00 0.  1.
          1   -1    0    0  501    0  0.00000000000E+00 -0.00000000000E+00 -0.21093440011E+03  0.21093440011E+03  0.00000000000E+00 0. -1.
         25    2    1    2    0    0 -0.21216563965E+02  0.37337215493E+02 -0.78662736955E+02  0.15388282851E+03  0.12509152040E+03 0.  0.
          5    1    3    3  502    0  0.12642028645E+02 -0.41995659989E+02 -0.39059346568E+02  0.58877510991E+02  0.41800000000E+01 0. -1.
         -5    1    3    3    0  502 -0.33858592610E+02  0.79332875482E+02 -0.39603390387E+02  0.95005317514E+02  0.41800000000E+01 0. -1.
        -11    1    1    2    0    0 -0.32402571895E+02 -0.38984594610E+01 -0.33918106865E+02  0.47069763383E+02  0.00000000000E+00 0. -1.
         11    1    1    2    0    0  0.53619135861E+02 -0.33438756032E+02 -0.35738048707E+02  0.72597315796E+02  0.00000000000E+00 0.  1.
</event>
<event>
 7    1  0.2666594E-009  0.8492083E+02  0.7561462E-02  0.1315640E+00
         -1   -1    0    0    0  501 -0.00000000000E+00  0.00000000000E+00  0.35272975335E+02  0.35272975335E+02  0.00000000000E+00 0.  1.
          1   -1    0    0  501    0  0.00000000000E+00 -0.00000000000E+00 -0.38647209438E+03  0.38647209438E+03  0.00000000000E+00 0. -1.
         25    2    1    2    0    0  0.33465801019E+02  0.21828779137E+02 -0.23861139721E+03  0.27235864520E+03  0.12508947717E+03 0.  0.
          5    1    3    3  502    0  0.78501999030E+02 -0.22453256732E+01 -0.16355561413E+03  0.18148144988E+03  0.41800000000E+01 0. -1.
         -5    1    3    3    0  502 -0.45036198011E+02  0.24074104810E+02 -0.75055783089E+02  0.90877195318E+02  0.41800000000E+01 0. -1.
        -11    1    1    2    0    0 -0.22187336438E+02 -0.14190769192E+02 -0.12691409536E+03  0.12961806753E+03  0.00000000000E+00 0. -1.
         11    1    1    2    0    0 -0.11278464582E+02 -0.76380099452E+01  0.14326373533E+02  0.19768356984E+02  0.00000000000E+00 0.  1.
</event>
<event>
 7    1  0.2666594E-009  0.1134347E+03  0.7561462E-02  0.1254338E+00
          2   -1    0    0  501    0  0.00000000000E+00  0.00000000000E+00  0.17142369131E+04  0.17142369131E+04  0.00000000000E+00 0. -1.
         -2   -1    0    0    0  501 -0.00000000000E+00 -0.00000000000E+00 -0.83519699857E+01  0.83519699857E+01  0.00000000000E+00 0.  1.
         25    2    1    2    0    0 -0.39135436642E+02  0.37437815800E+01  0.11753259832E+04  0.11826166737E+04  0.12508170086E+03 0.  0.
          5    1    3    3  502    0  0.11662558427E+02 -0.50532514179E+02  0.33725731641E+03  0.34124700750E+03  0.41800000000E+01 0.  1.
         -5    1    3    3    0  502 -0.50797995069E+02  0.54276295759E+02  0.83806866676E+03  0.84136966619E+03  0.41800000000E+01 0.  1.
        -11    1    1    2    0    0  0.69040949840E+02  0.50117343775E+01  0.36441680024E+03  0.37093311329E+03  0.00000000000E+00 0. -1.
         11    1    1    2    0    0 -0.29905513198E+02 -0.87555159575E+01  0.16614215967E+03  0.16903909607E+03  0.00000000000E+00 0.  1.
</event>
<event>
 7    1  0.2666594E-009  0.9254809E+02  0.7561462E-02  0.1296796E+00
         -1   -1    0    0    0  501 -0.00000000000E+00  0.00000000000E+00  0.40472040119E+02  0.40472040119E+02  0.00000000000E+00 0.  1.
          1   -1    0    0  501    0  0.00000000000E+00 -0.00000000000E+00 -0.32951596612E+03  0.32951596612E+03  0.00000000000E+00 0. -1.
         25    2    1    2    0    0  0.87122396774E+01 -0.31277987463E+02 -0.12633087121E+03  0.18072262035E+03  0.12508781262E+03 0.  0.
          5    1    3    3  502    0 -0.34907597771E+02 -0.38225036568E+02 -0.57658109346E+01  0.52253332702E+02  0.41800000000E+01 0.  1.
         -5    1    3    3    0  502  0.43619837448E+02  0.69470491049E+01 -0.12056506027E+03  0.12846928765E+03  0.41800000000E+01 0.  1.
        -11    1    1    2    0    0 -0.44623489620E+02  0.28121314000E+02 -0.13111918725E+03  0.14133048289E+03  0.00000000000E+00 0.  1.
         11    1    1    2    0    0  0.35911249942E+02  0.31566734623E+01 -0.31593867543E+02  0.47934903005E+02  0.00000000000E+00 0. -1.
</event>
<event>
 7    1  0.2666594E-009  0.1132256E+03  0.7561462E-02  0.1254711E+00
         -1   -1    0    0    0  501 -0.00000000000E+00  0.00000000000E+00  0.20007245378E+02  0.20007245378E+02  0.00000000000E+00 0.  1.
          1   -1    0    0  501    0  0.00000000000E+00 -0.00000000000E+00 -0.76253031650E+03  0.76253031650E+03  0.00000000000E+00 0. -1.
         25    2    1    2    0    0 -0.45179019851E+01 -0.40554399037E+02 -0.28433390668E+03  0.31330145694E+03  0.12508781601E+03 0.  0.
          5    1    3    3  502    0 -0.48110808275E+02  0.18737011136E+02 -0.73228018477E+02  0.89696937234E+02  0.41800000000E+01 0.  1.
         -5    1    3    3    0  502  0.43592906290E+02 -0.59291410174E+02 -0.21110588820E+03  0.22360451971E+03  0.41800000000E+01 0.  1.
        -11    1    1    2    0    0  0.47534854642E+02  0.31373790478E+02 -0.24113819890E+03  0.24777309802E+03  0.00000000000E+00 0. -1.
         11    1    1    2    0    0 -0.43016952657E+02  0.91806085599E+01 -0.21705096555E+03  0.22146300692E+03  0.00000000000E+00 0.  1.
</event>
<event>
 7    1  0.2666594E-009  0.1095400E+03  0.7561462E-02  0.1261424E+00
         -1   -1    0    0    0  501 -0.00000000000E+00  0.00000000000E+00  0.43098548622E+02  0.43098548622E+02  0.00000000000E+00 0.  1.
          1   -1    0    0  501    0  0.00000000000E+00 -0.00000000000E+00 -0.51901593219E+03  0.51901593219E+03  0.00000000000E+00 0. -1.
         25    2    1    2    0    0  0.62300816728E+02  0.80321051126E+02 -0.26503181065E+03  0.31019805844E+03  0.12509241298E+03 0.  0.
          5    1    3    3  502    0  0.52326710447E+02  0.78713658233E+02 -0.77373012986E+02  0.12222102993E+03  0.41800000000E+01 0. -1.
         -5    1    3    3    0  502  0.99741062815E+01  0.16073928928E+01 -0.18765879766E+03  0.18797702851E+03  0.41800000000E+01 0. -1.
        -11    1    1    2    0    0 -0.24754212596E+02 -0.70507664533E+02 -0.19700417498E+03  0.21070060930E+03  0.00000000000E+00 0. -1.
         11    1    1    2    0    0 -0.37546604133E+02 -0.98133865929E+01 -0.13881397938E+02  0.41215813070E+02  0.00000000000E+00 0.  1.
</event>
<event>
 7    1  0.2666594E-009  0.1342524E+03  0.7561462E-02  0.1221279E+00
          2   -1    0    0  501    0  0.00000000000E+00  0.00000000000E+00  0.44258397029E+03  0.44258397029E+03  0.00000000000E+00 0. -1.
         -2   -1    0    0    0  501 -0.00000000000E+00 -0.00000000000E+00 -0.61699652730E+02  0.61699652730E+02  0.00000000000E+00 0.  1.
         25    2    1    2    0    0  0.10366239212E+03  0.17006015590E+02  0.25766757335E+03  0.30508148589E+03  0.12508812321E+03 0.  0.
          5    1    3    3  502    0  0.10125566709E+03 -0.37891236809E+02  0.17403943927E+03  0.20492841376E+03  0.41800000000E+01 0.  1.
         -5    1    3    3    0  502  0.24067250294E+01  0.54897252400E+02  0.83628134081E+02  0.10015307213E+03  0.41800000000E+01 0.  1.
        -11    1    1    2    0    0 -0.76673402835E+02 -0.15097988980E+02  0.54149301135E+01  0.78333143953E+02  0.00000000000E+00 0.  1.
         11    1    1    2    0    0 -0.26988989285E+02 -0.19080266107E+01  0.11780181410E+03  0.12086899318E+03  0.00000000000E+00 0. -1.
</event>
<event>
 7    1  0.2666594E-009  0.1255735E+03  0.7561462E-02  0.1234176E+00
          2   -1    0    0  501    0  0.00000000000E+00  0.00000000000E+00  0.41245403937E+03  0.41245403937E+03  0.00000000000E+00 0. -1.
         -2   -1    0    0    0  501 -0.00000000000E+00 -0.00000000000E+00 -0.49104789278E+02  0.49104789278E+02  0.00000000000E+00 0.  1.
         25    2    1    2    0    0  0.60907704098E+02  0.67892010628E+02  0.21046957597E+03  0.26127598636E+03  0.12509446477E+03 0.  0.
          5    1    3    3  502    0  0.29067618573E+02  0.81742114305E+02  0.57042571070E+02  0.10391355549E+03  0.41800000000E+01 0.  1.
         -5    1    3    3    0  502  0.31840085525E+02 -0.13850103677E+02  0.15342700490E+03  0.15736243087E+03  0.41800000000E+01 0.  1.
        -11    1    1    2    0    0  0.56517820322E+01 -0.62264075011E+02  0.70621546080E+02  0.94319459540E+02  0.00000000000E+00 0. -1.
         11    1    1    2    0    0 -0.66559486130E+02 -0.56279356165E+01  0.82258128044E+02  0.10596338274E+03  0.00000000000E+00 0.  1.
</event>
<event>
 7    1  0.2666594E-009  0.1954309E+03  0.7561462E-02  0.1153652E+00
          2   -1    0    0  501    0  0.00000000000E+00  0.00000000000E+00  0.56570245506E+03  0.56570245506E+03  0.00000000000E+00 0. -1.
         -2   -1    0    0    0  501 -0.00000000000E+00 -0.00000000000E+00 -0.89090379923E+02  0.89090379923E+02  0.00000000000E+00 0.  1.
         25    2    1    2    0    0 -0.14768867973E+03 -0.12492021762E+03  0.20158220867E+03  0.30610999154E+03  0.12510368970E+03 0.  0.
          5    1    3    3  502    0 -0.97766795264E+02 -0.63267559167E+02  0.19400329151E+03  0.22630925703E+03  0.41800000000E+01 0.  1.
         -5    1    3    3    0  502 -0.49921884464E+02 -0.61652658458E+02  0.75789171585E+01  0.79800734512E+02  0.41800000000E+01 0.  1.
        -11    1    1    2    0    0  0.12342956056E+03  0.91726795991E+02  0.26496119693E+03  0.30635452894E+03  0.00000000000E+00 0. -1.
         11    1    1    2    0    0  0.24259119164E+02  0.33193421634E+02  0.10068669538E+02  0.42328314503E+02  0.00000000000E+00 0.  1.
</event>
<event>
 7    1  0.2666594E-009  0.1321060E+03  0.7561462E-02  0.1224364E+00
         -1   -1    0    0    0  501 -0.00000000000E+00  0.00000000000E+00  0.83494288336E+02  0.83494288336E+02  0.00000000000E+00 0.  1.
          1   -1    0    0  501    0  0.00000000000E+00 -0.00000000000E+00 -0.32015840998E+03  0.32015840998E+03  0.00000000000E+00 0. -1.
         25    2    1    2    0    0  0.45022494860E+02  0.69831780585E+02 -0.20085349056E+02  0.15150674203E+03  0.12508944404E+03 0.  0.
          5    1    3    3  502    0 -0.26072905131E+02  0.71892730142E+02 -0.23686374916E+02  0.80167810160E+02  0.41800000000E+01 0.  1.
         -5    1    3    3    0  502  0.71095399991E+02 -0.20609495570E+01  0.36010258599E+01  0.71338931869E+02  0.41800000000E+01 0.  1.
        -11    1    1    2    0    0 -0.30811531767E+02  0.12187256723E+02 -0.20082233812E+02  0.38745010403E+02  0.00000000000E+00 0.  1.
         11    1    1    2    0    0 -0.14210963094E+02 -0.82019037307E+02 -0.19649653878E+03  0.21340094588E+03  0.00000000000E+00 0. -1.
</event>
<event>
 7    1  0.2666594E-009  0.2303224E+03  0.7561462E-02  0.1126413E+00
          1   -1    0    0  501    0  0.00000000000E+00  0.00000000000E+00  0.14712959294E+04  0.14712959294E+04  0.00000000000E+00 0. -1.
         -1   -1    0    0    0  501 -0.00000000000E+00 -0.00000000000E+00 -0.59015979531E+02  0.59015979531E+02  0.00000000000E+00 0.  1.
         25    2    1    2    0    0 -0.47724337722E+01  0.20618603164E+03  0.11853829338E+04  0.12096755005E+04  0.12508661415E+03 0.  0.
          5    1    3    3  502    0 -0.43465214289E+02  0.19075832979E+02  0.31279454859E+03  0.31640324633E+03  0.41800000000E+01 0.  1.
         -5    1    3    3    0  502  0.38692780516E+02  0.18711019866E+03  0.87258838520E+03  0.89327225418E+03  0.41800000000E+01 0.  1.
        -11    1    1    2    0    0 -0.38109515522E+02 -0.11415455545E+03  0.15495459863E+03  0.19620021748E+03  0.00000000000E+00 0. -1.
         11    1    1    2    0    0  0.42881949295E+02 -0.92031476186E+02  0.71942417414E+02  0.12443619091E+03  0.00000000000E+00 0.  1.
</event>
<event>
 7    1  0.2666594E-009  0.9198503E+02  0.7561462E-02  0.1298115E+00
         -2   -1    0    0    0  501 -0.00000000000E+00  0.00000000000E+00  0.28878790763E+03  0.28878790763E+03  0.00000000000E+00 0.  1.
          2   -1    0    0  501    0  0.00000000000E+00 -0.00000000000E+00 -0.53696164405E+02  0.53696164405E+02  0.00000000000E+00 0. -1.
         25    2    1    2    0    0 -0.47548317410E+02  0.34897967918E+02  0.11149570409E+03  0.17764097190E+03  0.12508521981E+03 0.  0.
          5    1    3    3  502    0 -0.78530407324E+02  0.22627069777E+02  0.11783536327E+03  0.14346307678E+03  0.41800000000E+01 0.  1.
         -5    1    3    3    0  502  0.30982089914E+02  0.12270898141E+02 -0.63396591804E+01  0.34177895124E+02  0.41800000000E+01 0.  1.
        -11    1    1    2    0    0  0.13308943235E+02 -0.31438525173E+02  0.12580855171E+03  0.13035835423E+03  0.00000000000E+00 0.  1.
         11    1    1    2    0    0  0.34239374175E+02 -0.34594427445E+01 -0.22125125736E+01  0.34484745902E+02  0.00000000000E+00 0. -1.
</event>
<event>
 7    1  0.2666594E-009  0.1036922E+03  0.7561462E-02  0.1272718E+00
          1   -1    0    0  501    0  0.00000000000E+00  0.00000000000E+00  0.72560893856E+03  0.72560893856E+03  0.00000000000E+00 0. -1.
         -1   -1    0    0    0  501 -0.00000000000E+00 -0.00000000000E+00 -0.23789732451E+02  0.23789732451E+02  0.00000000000E+00 0.  1.
         25    2    1    2    0    0 -0.28086247146E+02  0.72599802596E+02  0.30283118299E+03  0.33676973215E+03  0.12509020141E+03 0.  0.
          5    1    3    3  502    0  0.26130453712E+02  0.38949693185E+02  0.28407637075E+02  0.54994049265E+02  0.41800000000E+01 0. -1.
         -5    1    3    3    0  502 -0.54216700858E+02  0.33650109411E+02  0.27442354591E+03  0.28177568289E+03  0.41800000000E+01 0. -1.
        -11    1    1    2    0    0  0.44234991405E+02 -0.38600716719E+02  0.31731030598E+03  0.32269580115E+03  0.00000000000E+00 0. -1.
         11    1    1    2    0    0 -0.16148744259E+02 -0.33999085877E+02  0.81677717138E+02  0.89933137711E+02  0.00000000000E+00 0.  1.
</event>
<event>
 7    1  0.2666594E-009  0.1204307E+03  0.7561462E-02  0.1242388E+00
         -2   -1    0    0    0  501 -0.00000000000E+00  0.00000000000E+00  0.57546019906E+02  0.57546019906E+02  0.00000000000E+00 0.  1.
          2   -1    0    0  501    0  0.00000000000E+00 -0.00000000000E+00 -0.38132084546E+03  0.38132084546E+03  0.00000000000E+00 0. -1.
         25    2    1    2    0    0 -0.62800379876E+01  0.87944484879E+02 -0.25050062598E+03  0.29355286225E+03  0.12509615510E+03 0.  0.
          5    1    3    3  502    0  0.46844915019E+02 -0.27157181973E+01 -0.91618935528E+02  0.10302098299E+03  0.41800000000E+01 0. -1.
         -5    1    3    3    0  502 -0.53124953007E+02  0.90660203076E+02 -0.15888169045E+03  0.19053187926E+03  0.41800000000E+01 0. -1.
        -11    1    1    2    0    0  0.68158022715E+01 -0.35801840352E+02  0.17653361089E+02  0.40495284799E+02  0.00000000000E+00 0.  1.
         11    1    1    2    0    0 -0.53576428383E+00 -0.52142644527E+02 -0.90927560664E+02  0.10481871832E+03  0.00000000000E+00 0. -1.
</event>
<event>
 7    1  0.2666594E-009  0.1260806E+03  0.7561462E-02  0.1233390E+00
         -2   -1    0    0    0  501 -0.00000000000E+00  0.00000000000E+00  0.43076268836E+02  0.43076268836E+02  0.00000000000E+00 0. -1.
          2   -1    0    0  501    0  0.00000000000E+00 -0.00000000000E+00 -0.43673070175E+03  0.43673070175E+03  0.00000000000E+00 0.  1.
         25    2    1    2    0    0 -0.28899402737E+02 -0.68936437813E+02 -0.16574658884E+03  0.22070042480E+03  0.12509731355E+03 0.  0.
          5    1    3    3  502    0  0.40774847679E+02  0.40999303509E+01 -0.71614521741E+02  0.82616643337E+02  0.41800000000E+01 0. -1.
         -5    1    3    3    0  502 -0.69674250417E+02 -0.73036368164E+02 -0.94132067100E+02  0.13808378146E+03  0.41800000000E+01 0. -1.
        -11    1    1    2    0    0 -0.92595476013E+01  0.71120410202E+02 -0.19795444580E+03  0.21054646656E+03  0.00000000000E+00 0.  1.
         11    1    1    2    0    0  0.38158950338E+02 -0.21839723886E+01 -0.29953398268E+02  0.48560079223E+02  0.00000000000E+00 0. -1.
</event>
<event>
 7    1  0.2666594E-009  0.1274688E+03  0.7561462E-02  0.1231261E+00
         -2   -1    0    0    0  501 -0.00000000000E+00  0.00000000000E+00  0.51874738771E+02  0.51874738771E+02  0.00000000000E+00 0.  1.
          2   -1    0    0  501    0  0.00000000000E+00 -0.00000000000E+00 -0.15631242928E+04  0.15631242928E+04  0.00000000000E+00 0. -1.
         25    2    1    2    0    0  0.84660298641E+02 -0.54742161949E+02 -0.14693359213E+04  0.14780932913E+04  0.12509059878E+03 0.  0.
          5    1    3    3  502    0 -0.13591686628E+02 -0.66668744185E+01 -0.77688808674E+03  0.77704681511E+03  0.41800000000E+01 0.  1.
         -5    1    3    3    0  502  0.98251985269E+02 -0.48075287530E+02 -0.69244783451E+03  0.70104647621E+03  0.41800000000E+01 0.  1.
        -11    1    1    2    0    0  0.16298965964E+02  0.40327949511E+01 -0.98445156640E+01  0.19463663973E+02  0.00000000000E+00 0. -1.
         11    1    1    2    0    0 -0.10095926460E+03  0.50709366998E+02 -0.32069117129E+02  0.11744207629E+03  0.00000000000E+00 0.  1.
</event>
<event>
 7    1  0.2666594E-009  0.8574233E+02  0.7561462E-02  0.1313503E+00
         -1   -1    0    0    0  501 -0.00000000000E+00  0.00000000000E+00  0.65508827480E+02  0.65508827480E+02  0.00000000000E+00 0.  1.
          1   -1    0    0  501    0  0.00000000000E+00 -0.00000000000E+00 -0.40036373666E+03  0.40036373666E+03  0.00000000000E+00 0. -1.
         25    2    1    2    0    0 -0.22042568858E+02  0.43605487778E+02 -0.21455212770E+02  0.13599668224E+03  0.12508979982E+03 0.  0.
          5    1    3    3  502    0  0.38363389735E+01  0.56493530742E+02  0.38981087209E+02  0.68871141071E+02  0.41800000000E+01 0. -1.
         -5    1    3    3    0  502 -0.25878907832E+02 -0.12888042964E+02 -0.60436299979E+02  0.67125541168E+02  0.41800000000E+01 0. -1.
        -11    1    1    2    0    0  0.29558780177E+02  0.10122981412E+02 -0.38057695387E+02  0.49240069216E+02  0.00000000000E+00 0.  1.
         11    1    1    2    0    0 -0.75162113186E+01 -0.53728469190E+02 -0.27534200103E+03  0.28063581269E+03  0.00000000000E+00 0. -1.
</event>
<event>
 7    1  0.2666594E-009  0.1262422E+03  0.7561462E-02  0.1233141E+00
          2   -1    0    0  501    0  0.00000000000E+00  0.00000000000E+00  0.11728140725E+04  0.11728140725E+04  0.00000000000E+00 0.  1.
         -2   -1    0    0    0  501 -0.00000000000E+00 -0.00000000000E+00 -0.16883701746E+02  0.16883701746E+02  0.00000000000E+00 0. -1.
         25    2    1    2    0    0  0.33093220822E+01  0.86761863821E+02  0.53574500187E+03  0.55696369157E+03  0.12508906455E+03 0.  0.
          5    1    3    3  502    0  0.32344648302E+01 -0.22589978708E+02  0.22991158077E+02  0.32662434853E+02  0.41800000000E+01 0.  1.
         -5    1    3    3    0  502  0.74857252028E-01  0.10935184253E+03  0.51275384379E+03  0.52430125671E+03  0.41800000000E+01 0.  1.
        -11    1    1    2    0    0  0.15841438627E+02  0.11605948640E+02  0.48387055574E+02  0.52220267797E+02  0.00000000000E+00 0.  1.
         11    1    1    2    0    0 -0.19150760709E+02 -0.98367812461E+02  0.57179831327E+03  0.58051381484E+03  0.00000000000E+00 0. -1.
</event>
<event>
 7    1  0.2666594E-009  0.1048066E+03  0.7561462E-02  0.1270501E+00
          2   -1    0    0  501    0  0.00000000000E+00  0.00000000000E+00  0.39746790338E+02  0.39746790338E+02  0.00000000000E+00 0. -1.
         -2   -1    0    0    0  501 -0.00000000000E+00 -0.00000000000E+00 -0.30628467437E+03  0.30628467437E+03  0.00000000000E+00 0.  1.
         25    2    1    2    0    0 -0.13263585937E+02 -0.85486621166E+01 -0.17130821025E+03  0.21270721780E+03  0.12509538468E+03 0.  0.
          5    1    3    3  502    0  0.52786855184E+02  0.15251728486E+02 -0.64657805380E+02  0.84953937510E+02  0.41800000000E+01 0. -1.
         -5    1    3    3    0  502 -0.66050441121E+02 -0.23800390602E+02 -0.10665040487E+03  0.12775328029E+03  0.41800000000E+01 0. -1.
        -11    1    1    2    0    0  0.32152005067E+02 -0.28258665319E+02 -0.19514801763E+02  0.47043927166E+02  0.00000000000E+00 0. -1.
         11    1    1    2    0    0 -0.18888419130E+02  0.36807327435E+02 -0.75714872016E+02  0.86280319741E+02  0.00000000000E+00 0.  1.
</event>
<event>
 7    1  0.2666594E-009  0.1188258E+03  0.7561462E-02  0.1245047E+00
         -1   -1    0    0    0  501 -0.00000000000E+00  0.00000000000E+00  0.27924390680E+02  0.27924390680E+02  0.00000000000E+00 0.  1.
          1   -1    0    0  501    0  0.00000000000E+00 -0.00000000000E+00 -0.87174771225E+03  0.87174771225E+03  0.00000000000E+00 0. -1.
         25    2    1    2    0    0  0.60583595640E+02  0.52209363312E+02 -0.67534190662E+03  0.69146901078E+03  0.12508601978E+03 0.  0.
          5    1    3    3  502    0  0.35677415996E+02  0.73867425763E+02 -0.21868780147E+03  0.23360458368E+03  0.41800000000E+01 0.  1.
         -5    1    3    3    0  502  0.24906179644E+02 -0.21658062451E+02 -0.45665410515E+03  0.45786442710E+03  0.41800000000E+01 0.  1.
        -11    1    1    2    0    0 -0.82931291454E+02 -0.55307583801E+02 -0.14020179326E+03  0.17202636647E+03  0.00000000000E+00 0.  1.
         11    1    1    2    0    0  0.22347695814E+02  0.30982204888E+01 -0.28279621687E+02  0.36176725683E+02  0.00000000000E+00 0. -1.
</event>
<event>
 7    1  0.2666594E-009  0.7227995E+02  0.7561462E-02  0.1352507E+00
         -2   -1    0    0    0  501 -0.00000000000E+00  0.00000000000E+00  0.33088966902E+02  0.33088966902E+02  0.00000000000E+00 0.  1.
          2   -1    0    0  501    0  0.00000000000E+00 -0.00000000000E+00 -0.52165404760E+03  0.52165404760E+03  0.00000000000E+00 0. -1.
         25    2    1    2    0    0  0.38075942408E+02 -0.42535722932E+02 -0.17342379152E+03  0.22131958749E+03  0.12508990058E+03 0.  0.
          5    1    3    3  502    0  0.30133407155E+02 -0.21311469651E+02 -0.18957468846E+03  0.19317928427E+03  0.41800000000E+01 0.  1.
         -5    1    3    3    0  502  0.79425352531E+01 -0.21224253280E+02  0.16150896942E+02  0.28140303225E+02  0.41800000000E+01 0.  1.
        -11    1    1    2    0    0 -0.31498712433E+02  0.58867839887E+02 -0.30672714927E+03  0.31390943847E+03  0.00000000000E+00 0. -1.
         11    1    1    2    0    0 -0.65772299749E+01 -0.16332116955E+02 -0.84141399068E+01  0.19513988540E+02  0.00000000000E+00 0.  1.
</event>
<event>
 7    1  0.2666594E-009  0.1457440E+03  0.7561462E-02  0.1205802E+00
          2   -1    0    0  501    0  0.00000000000E+00  0.00000000000E+00  0.10322541607E+04  0.10322541607E+04  0.00000000000E+00 0. -1.
         -2   -1    0    0    0  501 -0.00000000000E+00 -0.00000000000E+00 -0.34941852385E+02  0.34941852385E+02  0.00000000000E+00 0.  1.
         25    2    1    2    0    0 -0.10664959648E+03 -0.50240298742E+01  0.85488480201E+03  0.87056020032E+03  0.12509060862E+03 0.  0.
          5    1    3    3  502    0 -0.38774731135E+02  0.53493183993E+02  0.23244378292E+03  0.24168695688E+03  0.41800000000E+01 0.  1.
         -5    1    3    3    0  502 -0.67874865340E+02 -0.58517213867E+02  0.62244101909E+03  0.62887324344E+03  0.41800000000E+01 0.  1.
        -11    1    1    2    0    0  0.54965851444E+02 -0.39231729762E+02  0.70946353610E+02  0.97947733694E+02  0.00000000000E+00 0.  1.
         11    1    1    2    0    0  0.51683745031E+02  0.44255759636E+02  0.71481152710E+02  0.98688079088E+02  0.00000000000E+00 0. -1.
</event>
<event>
 7    1  0.2666594E-009  0.1464162E+03  0.7561462E-02  0.1204947E+00
          4   -1    0    0  501    0  0.00000000000E+00  0.00000000000E+00  0.84198031513E+02  0.84198031513E+02  0.00000000000E+00 0. -1.
         -4   -1    0    0    0  501 -0.00000000000E+00 -0.00000000000E+00 -0.41239794017E+03  0.41239794017E+03  0.00000000000E+00 0.  1.
         25    2    1    2    0    0 -0.11706846095E+03  0.25962024360E+02 -0.29533403366E+03  0.34241601159E+03  0.12508989684E+03 0.  0.
          5    1    3    3  502    0 -0.13837797972E+03  0.43383478017E+02 -0.23922256475E+03  0.27977758903E+03  0.41800000000E+01 0. -1.
         -5    1    3    3    0  502  0.21309518763E+02 -0.17421453657E+02 -0.56111468911E+02  0.62638422560E+02  0.41800000000E+01 0. -1.
        -11    1    1    2    0    0  0.10454299560E+03 -0.23239086583E+02 -0.61010350163E+02  0.12325402996E+03  0.00000000000E+00 0. -1.
         11    1    1    2    0    0  0.12525465350E+02 -0.27229377772E+01  0.28144475166E+02  0.30925930136E+02  0.00000000000E+00 0.  1.
</event>
<event>
 7    1  0.2666594E-009  0.1234334E+03  0.7561462E-02  0.1237538E+00
          3   -1    0    0  501    0  0.00000000000E+00  0.00000000000E+00  0.53440976614E+02  0.53440976614E+02  0.00000000000E+00 0. -1.
         -3   -1    0    0    0  501 -0.00000000000E+00 -0.00000000000E+00 -0.53642355521E+03  0.53642355521E+03  0.00000000000E+00 0.  1.
         25    2    1    2    0    0  0.93722704298E+02  0.42862910724E+02 -0.39260500652E+03  0.42474328113E+03  0.12508792629E+03 0.  0.
          5    1    3    3  502    0  0.50261778087E+02  0.26222032025E+01 -0.33136526332E+02  0.60403841463E+02  0.41800000000E+01 0.  1.
         -5    1    3    3    0  502  0.43460926212E+02  0.40240707522E+02 -0.35946848019E+03  0.36433943967E+03  0.41800000000E+01 0.  1.
        -11    1    1    2    0    0 -0.83878242385E+02  0.88508318556E+01 -0.66054923805E+02  0.10713146003E+03  0.00000000000E+00 0.  1.
         11    1    1    2    0    0 -0.98444619138E+01 -0.51713742580E+02 -0.24322648274E+02  0.57989790663E+02  0.00000000000E+00 0. -1.
</event>
<event>
 7    1  0.2666594E-009  0.2274294E+03  0.7561462E-02  0.1128462E+00
         -2   -1    0    0    0  501 -0.00000000000E+00  0.00000000000E+00  0.35912316058E+03  0.35912316058E+03  0.00000000000E+00 0.  1.
          2   -1    0    0  501    0  0.00000000000E+00 -0.00000000000E+00 -0.14955604977E+03  0.14955604977E+03  0.00000000000E+00 0. -1.
         25    2    1    2    0    0 -0.25420566375E+02 -0.20234303058E+03  0.83117348879E+02  0.25326715838E+03  0.12508737990E+03 0.  0.
          5    1    3    3  502    0  0.45600539460E+02 -0.94325840573E+02  0.63127892758E+02  0.12239026368E+03  0.41800000000E+01 0. -1.
         -5    1    3    3    0  502 -0.71021105835E+02 -0.10801719001E+03  0.19989456121E+02  0.13087689471E+03  0.41800000000E+01 0. -1.
        -11    1    1    2    0    0 -0.18987426897E+02  0.68417253804E+01  0.42546864723E+01  0.20626050115E+02  0.00000000000E+00 0.  1.
         11    1    1    2    0    0  0.44407993272E+02  0.19550130520E+03  0.12219507545E+03  0.23478600185E+03  0.00000000000E+00 0. -1.
</event>
<event>
 7    1  0.2666594E-009  0.9525183E+02  0.7561462E-02  0.1290610E+00
         -1   -1    0    0    0  501 -0.00000000000E+00  0.00000000000E+00  0.33444627378E+03  0.33444627378E+03  0.00000000000E+00 0.  1.
          1   -1    0    0  501    0  0.00000000000E+00 -0.00000000000E+00 -0.67400566059E+02  0.67400566059E+02  0.00000000000E+00 0. -1.
         25    2    1    2    0    0 -0.32244968635E+02 -0.64329581347E+01  0.27447937386E+03  0.30342623518E+03  0.12508969807E+03 0.  0.
          5    1    3    3  502    0 -0.26098160312E+02 -0.56622553559E+02  0.22118634920E+03  0.22984364471E+03  0.41800000000E+01 0. -1.
         -5    1    3    3    0  502 -0.61468083230E+01  0.50189595424E+02  0.53293024665E+02  0.73582590464E+02  0.41800000000E+01 0. -1.
        -11    1    1    2    0    0 -0.24832861836E+01  0.33286807227E+02  0.26754908311E+02  0.42778538595E+02  0.00000000000E+00 0.  1.
         11    1    1    2    0    0  0.34728254818E+02 -0.26853849092E+02 -0.34188574449E+02  0.55642066071E+02  0.00000000000E+00 0. -1.
</event>
<event>
 7    1  0.2857222E-009  0.4270408E+03  0.7561462E-02  0.1034799E+00
          2   -1    0    0  501    0  0.00000000000E+00  0.00000000000E+00  0.68151119053E+03  0.68151119053E+03  0.00000000000E+00 0. -1.
         -2   -1    0    0    0  501 -0.00000000000E+00 -0.00000000000E+00 -0.30856972503E+03  0.30856972503E+03  0.00000000000E+00 0.  1.
         25    2    1    2    0    0  0.46584442554E+02 -0.41760947451E+03  0.34744418620E+03  0.55940414048E+03  0.12509095241E+03 0.  0.
          5    1    3    3  502    0 -0.18883701018E+02 -0.12330794256E+03  0.16531685540E+03  0.20714385809E+03  0.41800000000E+01 0. -1.
         -5    1    3    3    0  502  0.65468143572E+02 -0.29430153194E+03  0.18212733080E+03  0.35226028239E+03  0.41800000000E+01 0. -1.
        -11    1    1    2    0    0  0.10270499303E+02  0.25979969775E+03  0.36622259437E+02  0.26256914517E+03  0.00000000000E+00 0.  1.
         11    1    1    2    0    0 -0.56854941856E+02  0.15780977675E+03 -0.11124980145E+02  0.16810762991E+03  0.00000000000E+00 0. -1.
</event>
<event>
 7    1  0.2666594E-009  0.1087786E+03  0.7561462E-02  0.1262849E+00
          1   -1    0    0  501    0  0.00000000000E+00  0.00000000000E+00  0.24144876239E+02  0.24144876239E+02  0.00000000000E+00 0. -1.
         -1   -1    0    0    0  501 -0.00000000000E+00 -0.00000000000E+00 -0.72276404738E+03  0.72276404738E+03  0.00000000000E+00 0.  1.
         25    2    1    2    0    0  0.28763643035E+02 -0.15266141476E+02 -0.57683287889E+03  0.59113884245E+03  0.12509419909E+03 0.  0.
          5    1    3    3  502    0 -0.38825015044E+02 -0.41016755897E+02 -0.26874608134E+03  0.27464829272E+03  0.41800000000E+01 0.  1.
         -5    1    3    3    0  502  0.67588658079E+02  0.25750614421E+02 -0.30808679755E+03  0.31649054973E+03  0.41800000000E+01 0.  1.
        -11    1    1    2    0    0  0.19578893367E+02  0.31834404987E+02 -0.21252147101E+02  0.42993210659E+02  0.00000000000E+00 0. -1.
         11    1    1    2    0    0 -0.48342536402E+02 -0.16568263511E+02 -0.10053414515E+03  0.11277687051E+03  0.00000000000E+00 0.  1.
</event>
<event>
 7    1  0.3457298E-009  0.2705512E+03  0.7561462E-02  0.1100965E+00
         -1   -1    0    0    0  501 -0.00000000000E+00  0.00000000000E+00  0.16317732712E+03  0.16317732712E+03  0.00000000000E+00 0.  1.
          1   -1    0    0  501    0  0.00000000000E+00 -0.00000000000E+00 -0.49518279349E+03  0.49518279349E+03  0.00000000000E+00 0. -1.
         25    2    1    2    0    0 -0.17101577147E+03  0.19774539864E+03 -0.14362888266E+03  0.32345907023E+03  0.12508747900E+03 0.  0.
          5    1    3    3  502    0 -0.33612434977E+02  0.93562005767E+02 -0.78988015404E+00  0.99507492275E+02  0.41800000000E+01 0.  1.
         -5    1    3    3    0  502 -0.13740333650E+03  0.10418339287E+03 -0.14283900251E+03  0.22395157795E+03  0.41800000000E+01 0.  1.
        -11    1    1    2    0    0  0.14822377848E+03 -0.12835505731E+03 -0.99538499481E+02  0.21989366094E+03  0.00000000000E+00 0. -1.
         11    1    1    2    0    0  0.22791992993E+02 -0.69390341332E+02 -0.88838084226E+02  0.11500738943E+03  0.00000000000E+00 0.  1.
</event>
<event>
 7    1  0.2666594E-009  0.9798661E+02  0.7561462E-02  0.1284588E+00
          2   -1    0    0  501    0  0.00000000000E+00  0.00000000000E+00  0.52525952470E+03  0.52525952470E+03  0.00000000000E+00 0. -1.
         -2   -1    0    0    0  501 -0.00000000000E+00 -0.00000000000E+00 -0.22190828828E+02  0.22190828828E+02  0.00000000000E+00 0.  1.
         25    2    1    2    0    0 -0.27027514845E+01  0.39852407210E+01  0.29554457741E+03  0.32096454671E+03  0.12509378881E+03 0.  0.
          5    1    3    3  502    0  0.59244229504E+02  0.10175050563E+02  0.17742006301E+03  0.18737332132E+03  0.41800000000E+01 0. -1.
         -5    1    3    3    0  502 -0.61946980988E+02 -0.61898098424E+01  0.11812451439E+03  0.13359122539E+03  0.41800000000E+01 0. -1.
        -11    1    1    2    0    0 -0.26985965500E+02 -0.25127622926E+02  0.37472537515E+02  0.52572148859E+02  0.00000000000E+00 0.  1.
         11    1    1    2    0    0  0.29688716985E+02  0.21142382205E+02  0.17005158095E+03  0.17391365796E+03  0.00000000000E+00 0. -1.
</event>
<event>
 7    1  0.2666594E-009  0.1325449E+03  0.7561462E-02  0.1223728E+00
          1   -1    0    0  501    0  0.00000000000E+00  0.00000000000E+00  0.62378452670E+03  0.62378452670E+03  0.00000000000E+00 0. -1.
         -1   -1    0    0    0  501 -0.00000000000E+00 -0.00000000000E+00 -0.66973175955E+02  0.66973175955E+02  0.00000000000E+00 0.  1.
         25    2    1    2    0    0  0.25181448523E+02  0.95211252777E+02  0.53034117366E+03  0.55372137013E+03  0.12508519997E+03 0.  0.
          5    1    3    3  502    0  0.38023675912E+02  0.94050173748E+00  0.32646109600E+03  0.32869591429E+03  0.41800000000E+01 0.  1.
         -5    1    3    3    0  502 -0.12842227389E+02  0.94270751039E+02  0.20388007766E+03  0.22502545583E+03  0.41800000000E+01 0.  1.
        -11    1    1    2    0    0  0.32135369324E+01  0.16253189591E+02 -0.58287679887E+01  0.17563243657E+02  0.00000000000E+00 0.  1.
         11    1    1    2    0    0 -0.28394985455E+02 -0.11146444237E+03  0.32298945076E+02  0.11947308887E+03  0.00000000000E+00 0. -1.
</event>
<event>
 7    1  0.2666594E-009  0.9499455E+02  0.7561462E-02  0.1291188E+00
         -1   -1    0    0    0  501 -0.00000000000E+00  0.00000000000E+00  0.79991463869E+02  0.79991463869E+02  0.00000000000E+00 0.  1.
          1   -1    0    0  501    0  0.00000000000E+00 -0.00000000000E+00 -0.17267086726E+03  0.17267086726E+03  0.00000000000E+00 0. -1.
         25    2    1    2    0    0 -0.21125572321E+00  0.44499147208E+02 -0.71846695325E+02  0.15096046468E+03  0.12508755148E+03 0.  0.
          5    1    3    3  502    0  0.40563798876E+02  0.54869668272E+02 -0.82711119455E+02  0.10730658860E+03  0.41800000000E+01 0.  1.
         -5    1    3    3    0  502 -0.40775054600E+02 -0.10370521063E+02  0.10864424130E+02  0.43653876075E+02  0.41800000000E+01 0.  1.
        -11    1    1    2    0    0  0.29887764433E+02 -0.55828391790E+01 -0.39041089279E+02  0.49483868161E+02  0.00000000000E+00 0. -1.
         11    1    1    2    0    0 -0.29676508709E+02 -0.38916308029E+02  0.18208381209E+02  0.52217998296E+02  0.00000000000E+00 0.  1.
</event>
<event>
 7    1  0.2666594E-009  0.9560071E+02  0.7561462E-02  0.1289829E+00
         -1   -1    0    0    0  501 -0.00000000000E+00  0.00000000000E+00  0.10238164245E+03  0.10238164245E+03  0.00000000000E+00 0.  1.
          1   -1    0    0  501    0  0.00000000000E+00 -0.00000000000E+00 -0.11795411439E+03  0.11795411439E+03  0.00000000000E+00 0. -1.
         25    2    1    2    0    0 -0.40620931976E+01  0.14536026639E+02 -0.21881211594E+02  0.12788921925E+03  0.12509623618E+03 0.  0.
          5    1    3    3  502    0 -0.63194032666E+02  0.72103024343E+01  0.14656534744E+01  0.63758095689E+02  0.41800000000E+01 0. -1.
         -5    1    3    3    0  502  0.59131939468E+02  0.73257242042E+01 -0.23346865069E+02  0.64131123559E+02  0.41800000000E+01 0. -1.
        -11    1    1    2    0    0  0.25453169586E+02 -0.31450103754E+02  0.34538240851E+02  0.53196456171E+02  0.00000000000E+00 0.  1.
         11    1    1    2    0    0 -0.21391076388E+02  0.16914077116E+02 -0.28229501193E+02  0.39250081418E+02  0.00000000000E+00 0. -1.
</event>
<event>
 7    1  0.2666594E-009  0.9225100E+02  0.7561462E-02  0.1297490E+00
          1   -1    0    0  501    0  0.00000000000E+00  0.00000000000E+00  0.31090178993E+02  0.31090178993E+02  0.00000000000E+00 0. -1.
         -1   -1    0    0    0  501 -0.00000000000E+00 -0.00000000000E+00 -0.46805648394E+03  0.46805648394E+03  0.00000000000E+00 0.  1.
         25    2    1    2    0    0  0.42727363351E+02 -0.18693401391E+02 -0.30984235368E+03  0.33738057811E+03  0.12509316333E+03 0.  0.
          5    1    3    3  502    0 -0.52732532968E+01  0.21120384730E+02 -0.24956420819E+03  0.25054669078E+03  0.41800000000E+01 0. -1.
         -5    1    3    3    0  502  0.48000616647E+02 -0.39813786121E+02 -0.60278145493E+02  0.86833887324E+02  0.41800000000E+01 0. -1.
        -11    1    1    2    0    0 -0.58992900462E+02  0.41277829397E+02 -0.86905399217E+02  0.11285641283E+03  0.00000000000E+00 0.  1.
         11    1    1    2    0    0  0.16265537112E+02 -0.22584428006E+02 -0.40218552047E+02  0.48909671995E+02  0.00000000000E+00 0. -1.
</event>
<event>
 7    1  0.2666594E-009  0.2373178E+03  0.7561462E-02  0.1121593E+00
         -2   -1    0    0    0  501 -0.00000000000E+00  0.00000000000E+00  0.19307879319E+03  0.19307879319E+03  0.00000000000E+00 0.  1.
          2   -1    0    0  501    0  0.00000000000E+00 -0.00000000000E+00 -0.33063516505E+03  0.33063516505E+03  0.00000000000E+00 0. -1.
         25    2    1    2    0    0  0.16633631697E+03 -0.14083027717E+03 -0.28343038152E+01  0.25130995761E+03  0.12509086379E+03 0.  0.
          5    1    3    3  502    0  0.18406209343E+03 -0.12092094404E+03 -0.16835830368E+02  0.22091094706E+03  0.41800000000E+01 0. -1.
         -5    1    3    3    0  502 -0.17725776458E+02 -0.19909333133E+02  0.14001526553E+02  0.30399010554E+02  0.41800000000E+01 0. -1.
        -11    1    1    2    0    0 -0.12336480424E+03  0.13682308950E+03 -0.75435956025E+02  0.19907289169E+03  0.00000000000E+00 0. -1.
         11    1    1    2    0    0 -0.42971512730E+02  0.40071876729E+01 -0.59286112019E+02  0.73331108935E+02  0.00000000000E+00 0.  1.
</event>
<event>
 7    1  0.2666594E-009  0.1216421E+03  0.7561462E-02  0.1240412E+00
         -2   -1    0    0    0  501 -0.00000000000E+00  0.00000000000E+00  0.43488240006E+02  0.43488240006E+02  0.00000000000E+00 0.  1.
          2   -1    0    0  501    0  0.00000000000E+00 -0.00000000000E+00 -0.50506206910E+03  0.50506206910E+03  0.00000000000E+00 0. -1.
         25    2    1    2    0    0 -0.11073034610E+02 -0.87749112343E+02 -0.34889710023E+03  0.38105177728E+03  0.12509497037E+03 0.  0.
          5    1    3    3  502    0  0.48931433584E+02 -0.75672851677E+02 -0.17964215075E+03  0.20102099492E+03  0.41800000000E+01 0. -1.
         -5    1    3    3    0  502 -0.60004468193E+02 -0.12076260666E+02 -0.16925494948E+03  0.18003078236E+03  0.41800000000E+01 0. -1.
        -11    1    1    2    0    0  0.18863389283E+02  0.64583501087E+02 -0.17901499280E+02  0.69622695613E+02  0.00000000000E+00 0.  1.
         11    1    1    2    0    0 -0.77903546739E+01  0.23165611255E+02 -0.94775229586E+02  0.97875836210E+02  0.00000000000E+00 0. -1.
</event>
<event>
 7    1  0.2666594E-009  0.9874138E+02  0.7561462E-02  0.1282965E+00
         -2   -1    0    0    0  501 -0.00000000000E+00  0.00000000000E+00  0.23093991037E+03  0.23093991037E+03  0.00000000000E+00 0.  1.
          2   -1    0    0  501    0  0.00000000000E+00 -0.00000000000E+00 -0.98473166257E+02  0.98473166257E+02  0.00000000000E+00 0. -1.
         25    2    1    2    0    0 -0.55782645800E+02 -0.42945599212E+02 -0.13417274594E+02  0.14416537020E+03  0.12509037790E+03 0.  0.
          5    1    3    3  502    0 -0.49720832655E+02  0.41887388435E+01  0.45981101308E+02  0.67981179826E+02  0.41800000000E+01 0. -1.
         -5    1    3    3    0  502 -0.60618131445E+01 -0.47134338056E+02 -0.59398375902E+02  0.76184190370E+02  0.41800000000E+01 0. -1.
        -11    1    1    2    0    0  0.44089379020E+02  0.62759311690E+02  0.63077383581E+02  0.99304384927E+02  0.00000000000E+00 0.  1.
         11    1    1    2    0    0  0.11693266779E+02 -0.19813712478E+02  0.82806635122E+02  0.85943321500E+02  0.00000000000E+00 0. -1.
</event>
<event>
 7    1  0.2666594E-009  0.9766406E+02  0.7561462E-02  0.1285286E+00
          2   -1    0    0  501    0  0.00000000000E+00  0.00000000000E+00  0.23353993442E+03  0.23353993442E+03  0.00000000000E+00 0. -1.
         -2   -1    0    0    0  501 -0.00000000000E+00 -0.00000000000E+00 -0.56761243195E+02  0.56761243195E+02  0.00000000000E+00 0.  1.
         25    2    1    2    0    0  0.87732031876E+01 -0.55432001089E+01  0.14258304184E+03  0.18996369289E+03  0.12509430296E+03 0.  0.
          5    1    3    3  502    0 -0.31094120554E+02  0.48780683310E+02  0.67223266129E+02  0.88785355247E+02  0.41800000000E+01 0. -1.
         -5    1    3    3    0  502  0.39867323742E+02 -0.54323883419E+02  0.75359775712E+02  0.10117833764E+03  0.41800000000E+01 0. -1.
        -11    1    1    2    0    0  0.74686111657E+00  0.36970972146E+02 -0.16051098924E+02  0.40311888564E+02  0.00000000000E+00 0.  1.
         11    1    1    2    0    0 -0.95200643042E+01 -0.31427772037E+02  0.50246748312E+02  0.60025596169E+02  0.00000000000E+00 0. -1.
</event>
<event>
 7    1  0.2666594E-009  0.7950535E+02  0.7561462E-02  0.1330461E+00
         -1   -1    0    0    0  501 -0.00000000000E+00  0.00000000000E+00  0.13527724443E+03  0.13527724443E+03  0.00000000000E+00 0.  1.
          1   -1    0    0  501    0  0.00000000000E+00 -0.00000000000E+00 -0.14365657873E+03  0.14365657873E+03  0.00000000000E+00 0. -1.
         25    2    1    2    0    0  0.21450913108E+02  0.60483704303E+02  0.54110301238E+02  0.15064917387E+03  0.12509527860E+03 0.  0.
          5    1    3    3  502    0  0.59461859174E+01  0.48812851549E+02  0.93958112285E+02  0.10613034848E+03  0.41800000000E+01 0.  1.
         -5    1    3    3    0  502  0.15504727191E+02  0.11670852755E+02 -0.39847811047E+02  0.44518825395E+02  0.41800000000E+01 0.  1.
        -11    1    1    2    0    0 -0.90888057687E+01  0.12683683261E+02 -0.50828358072E+02  0.53169579608E+02  0.00000000000E+00 0. -1.
         11    1    1    2    0    0 -0.12362107340E+02 -0.73167387564E+02 -0.11661277461E+02  0.75115069679E+02  0.00000000000E+00 0.  1.
</event>
<event>
 7    1  0.2666594E-009  0.2144255E+03  0.7561462E-02  0.1138109E+00
         -2   -1    0    0    0  501 -0.00000000000E+00  0.00000000000E+00  0.10518196427E+04  0.10518196427E+04  0.00000000000E+00 0.  1.
          2   -1    0    0  501    0  0.00000000000E+00 -0.00000000000E+00 -0.52306272993E+02  0.52306272993E+02  0.00000000000E+00 0. -1.
         25    2    1    2    0    0 -0.32004773553E+02 -0.19698097642E+03  0.53059358625E+03  0.58051953146E+03  0.12509021561E+03 0.  0.
          5    1    3    3  502    0  0.29363871889E+02 -0.11808814155E+03  0.19108217915E+03  0.22657651630E+03  0.41800000000E+01 0. -1.
         -5    1    3    3    0  502 -0.61368645441E+02 -0.78892834868E+02  0.33951140710E+03  0.35394301517E+03  0.41800000000E+01 0. -1.
        -11    1    1    2    0    0  0.40491414503E+02  0.79014157851E+02  0.32713200208E+03  0.33896627940E+03  0.00000000000E+00 0.  1.
         11    1    1    2    0    0 -0.84866409499E+01  0.11796681857E+03  0.14178778134E+03  0.18464010479E+03  0.00000000000E+00 0. -1.
</event>
<event>
 7    1  0.2666594E-009  0.1368977E+03  0.7561462E-02  0.1217565E+00
         -2   -1    0    0    0  501 -0.00000000000E+00  0.00000000000E+00  0.28171461760E+03  0.28171461760E+03  0.00000000000E+00 0.  1.
          2   -1    0    0  501    0  0.00000000000E+00 -0.00000000000E+00 -0.74010654107E+02  0.74010654107E+02  0.00000000000E+00 0. -1.
         25    2    1    2    0    0  0.74883000200E+02  0.44592041087E+02  0.15728065127E+03  0.21903841689E+03  0.12507881901E+03 0.  0.
          5    1    3    3  502    0  0.46048437706E+02 -0.41144831458E+02  0.63205745215E+02  0.88463520160E+02  0.41800000000E+01 0.  1.
         -5    1    3    3    0  502  0.28834562494E+02  0.85736872544E+02  0.94074906056E+02  0.13057489674E+03  0.41800000000E+01 0.  1.
        -11    1    1    2    0    0 -0.22548120032E+02 -0.62176967417E+02  0.47444363210E+02  0.81396318065E+02  0.00000000000E+00 0.  1.
         11    1    1    2    0    0 -0.52334880168E+02  0.17584926330E+02  0.29789490085E+01  0.55290536744E+02  0.00000000000E+00 0. -1.
</event>
<event>
 7    1  0.2666594E-009  0.8979182E+02  0.7561462E-02  0.1303357E+00
          2   -1    0    0  501    0  0.00000000000E+00  0.00000000000E+00  0.20002675961E+03  0.20002675961E+03  0.00000000000E+00 0. -1.
         -2   -1    0    0    0  501 -0.00000000000E+00 -0.00000000000E+00 -0.11542768592E+03  0.11542768592E+03  0.00000000000E+00 0.  1.
         25    2    1    2    0    0  0.35464444441E+02 -0.77860634284E+02 -0.19896763088E+02  0.15284909262E+03  0.12508780413E+03 0.  0.
          5    1    3    3  502    0  0.26382554120E+02 -0.17344896955E+02 -0.67875965421E+02  0.74976687671E+02  0.41800000000E+01 0.  1.
         -5    1    3    3    0  502  0.90818903211E+01 -0.60515737329E+02  0.47979202332E+02  0.77872404950E+02  0.41800000000E+01 0.  1.
        -11    1    1    2    0    0 -0.25479611041E+02  0.41550531738E+02 -0.28717263310E+01  0.48825240180E+02  0.00000000000E+00 0.  1.
         11    1    1    2    0    0 -0.99848334004E+01  0.36310102546E+02  0.10736756311E+03  0.11378011273E+03  0.00000000000E+00 0. -1.
</event>
<event>
 7    1  0.2666594E-009  0.1574511E+03  0.7561462E-02  0.1191605E+00
         -1   -1    0    0    0  501 -0.00000000000E+00  0.00000000000E+00  0.97907195588E+03  0.97907195588E+03  0.00000000000E+00 0.  1.
          1   -1    0    0  501    0  0.00000000000E+00 -0.00000000000E+00 -0.28303877953E+02  0.28303877953E+02  0.00000000000E+00 0. -1.
         25    2    1    2    0    0  0.12456271458E+03  0.33340754618E+01  0.57015872436E+03  0.59687540376E+03  0.12510911530E+03 0.  0.
          5    1    3    3  502    0  0.11949898886E+03 -0.43051437376E+02  0.45850296983E+03  0.47578974384E+03  0.41800000000E+01 0. -1.
         -5    1    3    3    0  502  0.50637257132E+01  0.46385512838E+02  0.11165575453E+03  0.12108565992E+03  0.41800000000E+01 0. -1.
        -11    1    1    2    0    0 -0.30903672986E+02 -0.30529505100E+02  0.52176294924E+02  0.67892955729E+02  0.00000000000E+00 0. -1.
         11    1    1    2    0    0 -0.93659041591E+02  0.27195429639E+02  0.32843305865E+03  0.34260747435E+03  0.00000000000E+00 0.  1.
</event>
<event>
 7    1  0.2666594E-009  0.1154780E+03  0.7561462E-02  0.1250749E+00
         -2   -1    0    0    0  501 -0.00000000000E+00  0.00000000000E+00  0.54804896802E+02  0.54804896802E+02  0.00000000000E+00 0.  1.
          2   -1    0    0  501    0  0.00000000000E+00 -0.00000000000E+00 -0.33927816969E+03  0.33927816969E+03  0.00000000000E+00 0. -1.
         25    2    1    2    0    0 -0.16105019700E+02 -0.62051660021E+02 -0.23557537834E+03  0.27432515788E+03  0.12509497670E+03 0.  0.
          5    1    3    3  502    0  0.50954656023E+02 -0.47119417078E+02 -0.14258121294E+03  0.15863004482E+03  0.41800000000E+01 0.  1.
         -5    1    3    3    0  502 -0.67059675724E+02 -0.14932242943E+02 -0.92994165405E+02  0.11569511306E+03  0.41800000000E+01 0.  1.
        -11    1    1    2    0    0  0.35878706713E+02  0.10497308170E+02  0.10330068960E+02  0.38783829091E+02  0.00000000000E+00 0.  1.
         11    1    1    2    0    0 -0.19773687013E+02  0.51554351851E+02 -0.59227963500E+02  0.80974079514E+02  0.00000000000E+00 0. -1.
</event>
<event>
 7    1  0.2666594E-009  0.1425448E+03  0.7561462E-02  0.1209945E+00
         -2   -1    0    0    0  501 -0.00000000000E+00  0.00000000000E+00  0.20962401363E+02  0.20962401363E+02  0.00000000000E+00 0.  1.
          2   -1    0    0  501    0  0.00000000000E+00 -0.00000000000E+00 -0.13857514944E+04  0.13857514944E+04  0.00000000000E+00 0. -1.
         25    2    1    2    0    0  0.77696977109E+02 -0.10265558230E+03 -0.89164950859E+03  0.90953901733E+03  0.12508952410E+03 0.  0.
          5    1    3    3  502    0  0.18278512440E+02 -0.75430578576E+01 -0.54081136803E+03  0.54118888563E+03  0.41800000000E+01 0.  1.
         -5    1    3    3    0  502  0.59418464670E+02 -0.95112524439E+02 -0.35083814056E+03  0.36835013170E+03  0.41800000000E+01 0.  1.
        -11    1    1    2    0    0 -0.26635175585E+02  0.97799698124E+02 -0.30747667535E+03  0.32375317669E+03  0.00000000000E+00 0. -1.
         11    1    1    2    0    0 -0.51061801524E+02  0.48558841723E+01 -0.16566290905E+03  0.17342170170E+03  0.00000000000E+00 0.  1.
</event>
<event>
 7    1  0.2666594E-009  0.1679380E+03  0.7561462E-02  0.1180015E+00
          1   -1    0    0  501    0  0.00000000000E+00  0.00000000000E+00  0.23803202934E+03  0.23803202934E+03  0.00000000000E+00 0. -1.
         -1   -1    0    0    0  501 -0.00000000000E+00 -0.00000000000E+00 -0.14145685477E+03  0.14145685477E+03  0.00000000000E+00 0.  1.
         25    2    1    2    0    0 -0.54572945580E+02  0.13210180190E+03  0.91454674322E+02  0.21080928409E+03  0.12508998500E+03 0.  0.
          5    1    3    3  502    0 -0.59727379231E+02  0.14286004072E+03  0.10883995187E+03  0.18931444368E+03  0.41800000000E+01 0.  1.
         -5    1    3    3    0  502  0.51544336508E+01 -0.10758238815E+02 -0.17385277549E+02  0.21494840407E+02  0.41800000000E+01 0.  1.
        -11    1    1    2    0    0  0.63415554815E+01 -0.11788171034E+03 -0.74640420573E+00  0.11805452163E+03  0.00000000000E+00 0.  1.
         11    1    1    2    0    0  0.48231390098E+02 -0.14220091561E+02  0.58669044511E+01  0.50625078397E+02  0.00000000000E+00 0. -1.
</event>
<event>
 7    1  0.2666594E-009  0.9137921E+02  0.7561462E-02  0.1299546E+00
         -2   -1    0    0    0  501 -0.00000000000E+00  0.00000000000E+00  0.59222682926E+02  0.59222682926E+02  0.00000000000E+00 0.  1.
          2   -1    0    0  501    0  0.00000000000E+00 -0.00000000000E+00 -0.31529711805E+03  0.31529711805E+03  0.00000000000E+00 0. -1.
         25    2    1    2    0    0  0.48635007851E+02  0.66931155085E+02 -0.12515034374E+03  0.19533151346E+03  0.12508656243E+03 0.  0.
          5    1    3    3  502    0  0.27794830105E+02  0.38620690658E+02  0.15559790010E+02  0.50236339363E+02  0.41800000000E+01 0. -1.
         -5    1    3    3    0  502  0.20840177747E+02  0.28310464427E+02 -0.14071013375E+03  0.14509517410E+03  0.41800000000E+01 0. -1.
        -11    1    1    2    0    0 -0.52365475449E+02 -0.25954138818E+02 -0.12451046193E+03  0.13754495800E+03  0.00000000000E+00 0. -1.
         11    1    1    2    0    0  0.37304675981E+01 -0.40977016267E+02 -0.64136294500E+01  0.41643329519E+02  0.00000000000E+00 0.  1.
</event>
<event>
 7    1  0.2666594E-009  0.1817634E+03  0.7561462E-02  0.1166107E+00
         -2   -1    0    0    0  501 -0.00000000000E+00  0.00000000000E+00  0.42089071909E+02  0.42089071909E+02  0.00000000000E+00 0.  1.
          2   -1    0    0  501    0  0.00000000000E+00 -0.00000000000E+00 -0.11416622748E+04  0.11416622748E+04  0.00000000000E+00 0. -1.
         25    2    1    2    0    0 -0.16352047363E+03 -0.25651374373E+01 -0.83060990673E+03  0.85574840775E+03  0.12508794903E+03 0.  0.
          5    1    3    3  502    0 -0.55121097173E+02  0.52828905448E+02 -0.43977491491E+03  0.44637280023E+03  0.41800000000E+01 0.  1.
         -5    1    3    3    0  502 -0.10839937645E+03 -0.55394042885E+02 -0.39083499182E+03  0.40937560752E+03  0.41800000000E+01 0.  1.
        -11    1    1    2    0    0  0.97962197032E+02  0.13184844726E+02 -0.78288830490E+02  0.12609350958E+03  0.00000000000E+00 0.  1.
         11    1    1    2    0    0  0.65558276594E+02 -0.10619707289E+02 -0.19067446571E+03  0.20190942941E+03  0.00000000000E+00 0. -1.
</event>
<event>
 7    1  0.2666594E-009  0.1080015E+03  0.7561462E-02  0.1264316E+00
         -1   -1    0    0    0  501 -0.00000000000E+00  0.00000000000E+00  0.12026856370E+03  0.12026856370E+03  0.00000000000E+00 0.  1.
          1   -1    0    0  501    0  0.00000000000E+00 -0.00000000000E+00 -0.14750592253E+03  0.14750592253E+03  0.00000000000E+00 0. -1.
         25    2    1    2    0    0  0.40225299434E+02 -0.85965244638E+01  0.50906945443E+02  0.14117600923E+03  0.12508866272E+03 0.  0.
          5    1    3    3  502    0  0.20967848537E+02 -0.66844971622E+02  0.27788788243E+02  0.75482382417E+02  0.41800000000E+01 0. -1.
         -5    1    3    3    0  502  0.19257450897E+02  0.58248447158E+02  0.23118157200E+02  0.65693626812E+02  0.41800000000E+01 0. -1.
        -11    1    1    2    0    0  0.21488134021E+02  0.69887140400E+01 -0.57046290418E+02  0.61358465415E+02  0.00000000000E+00 0. -1.
         11    1    1    2    0    0 -0.61713433455E+02  0.16078104238E+01 -0.21098013851E+02  0.65240011585E+02  0.00000000000E+00 0.  1.
</event>
<event>
 7    1  0.2666594E-009  0.1465967E+03  0.7561462E-02  0.1204718E+00
         -1   -1    0    0    0  501 -0.00000000000E+00  0.00000000000E+00  0.46022484621E+02  0.46022484621E+02  0.00000000000E+00 0.  1.
          1   -1    0    0  501    0  0.00000000000E+00 -0.00000000000E+00 -0.60712874549E+03  0.60712874549E+03  0.00000000000E+00 0. -1.
         25    2    1    2    0    0 -0.26366020240E+02 -0.98001442148E+02 -0.44353968170E+03  0.47188299879E+03  0.12508663243E+03 0.  0.
          5    1    3    3  502    0 -0.72348723987E+02 -0.46066615721E+02 -0.30548658766E+03  0.31732632822E+03  0.41800000000E+01 0. -1.
         -5    1    3    3    0  502  0.45982703747E+02 -0.51934826426E+02 -0.13805309405E+03  0.15455667056E+03  0.41800000000E+01 0. -1.
        -11    1    1    2    0    0 -0.72294514401E+01 -0.16759688050E+02 -0.12867124104E+02  0.22331927691E+02  0.00000000000E+00 0. -1.
         11    1    1    2    0    0  0.33595471680E+02  0.11476113020E+03 -0.10469945506E+03  0.15893630363E+03  0.00000000000E+00 0.  1.
</event>
<event>
 7    1  0.2666594E-009  0.7971330E+02  0.7561462E-02  0.1329867E+00
          2   -1    0    0  501    0  0.00000000000E+00  0.00000000000E+00  0.24656052634E+03  0.24656052634E+03  0.00000000000E+00 0. -1.
         -2   -1    0    0    0  501 -0.00000000000E+00 -0.00000000000E+00 -0.56870151229E+02  0.56870151229E+02  0.00000000000E+00 0.  1.
         25    2    1    2    0    0 -0.40034091621E+02 -0.11857342272E+01  0.82542995886E+02  0.15512635456E+03  0.12508679087E+03 0.  0.
          5    1    3    3  502    0  0.15807459452E+02  0.48203098651E+01  0.95769797394E+02  0.97275061832E+02  0.41800000000E+01 0.  1.
         -5    1    3    3    0  502 -0.55841551073E+02 -0.60060440923E+01 -0.13226801509E+02  0.57851292726E+02  0.41800000000E+01 0.  1.
        -11    1    1    2    0    0  0.55947255389E+02 -0.20131832041E+02  0.10616816793E+03  0.12168428793E+03  0.00000000000E+00 0. -1.
         11    1    1    2    0    0 -0.15913163768E+02  0.21317566268E+02  0.97921128811E+00  0.26620035076E+02  0.00000000000E+00 0.  1.
</event>
<event>
 7    1  0.2666594E-009  0.1446554E+03  0.7561462E-02  0.1207199E+00
          1   -1    0    0  501    0  0.00000000000E+00  0.00000000000E+00  0.47492793161E+02  0.47492793161E+02  0.00000000000E+00 0. -1.
         -1   -1    0    0    0  501 -0.00000000000E+00 -0.00000000000E+00 -0.45192316618E+03  0.45192316618E+03  0.00000000000E+00 0.  1.
         25    2    1    2    0    0 -0.44295256938E+02 -0.88003239856E+02 -0.23591280405E+03  0.28461966774E+03  0.12508742598E+03 0.  0.
          5    1    3    3  502    0  0.37724513853E+02 -0.58191260279E+02 -0.80527060413E+02  0.10635526116E+03  0.41800000000E+01 0.  1.
         -5    1    3    3    0  502 -0.82019770791E+02 -0.29811979577E+02 -0.15538574364E+03  0.17826440658E+03  0.41800000000E+01 0.  1.
        -11    1    1    2    0    0  0.60641994588E+02  0.22065181103E+02 -0.93290993579E+02  0.11343514979E+03  0.00000000000E+00 0. -1.
         11    1    1    2    0    0 -0.16346737650E+02  0.65938058753E+02 -0.75226575382E+02  0.10136114180E+03  0.00000000000E+00 0.  1.
</event>
<event>
 7    1  0.2666594E-009  0.9120719E+02  0.7561462E-02  0.1299954E+00
          1   -1    0    0  501    0  0.00000000000E+00  0.00000000000E+00  0.15253427666E+03  0.15253427666E+03  0.00000000000E+00 0. -1.
         -1   -1    0    0    0  501 -0.00000000000E+00 -0.00000000000E+00 -0.85949213164E+02  0.85949213164E+02  0.00000000000E+00 0.  1.
         25    2    1    2    0    0 -0.62005818749E+01  0.37777028796E+02  0.29893434802E+02  0.13419625451E+03  0.12509782636E+03 0.  0.
          5    1    3    3  502    0  0.39808067732E+02  0.57980646648E+02 -0.82986697629E+01  0.70942074696E+02  0.41800000000E+01 0.  1.
         -5    1    3    3    0  502 -0.46008649607E+02 -0.20203617852E+02  0.38192104565E+02  0.63254179815E+02  0.41800000000E+01 0.  1.
        -11    1    1    2    0    0  0.36560530216E+01  0.11564934863E+02 -0.23481445225E+02  0.26429012693E+02  0.00000000000E+00 0. -1.
         11    1    1    2    0    0  0.25445288533E+01 -0.49341963659E+02  0.60173073921E+02  0.77858222623E+02  0.00000000000E+00 0.  1.
</event>
<event>
 7    1  0.2666594E-009  0.1202188E+03  0.7561462E-02  0.1242737E+00
         -4   -1    0    0    0  501 -0.00000000000E+00  0.00000000000E+00  0.21533906900E+03  0.21533906900E+03  0.00000000000E+00 0.  1.
          4   -1    0    0  501    0  0.00000000000E+00 -0.00000000000E+00 -0.91890107925E+02  0.91890107925E+02  0.00000000000E+00 0. -1.
         25    2    1    2    0    0 -0.19856343823E+02  0.61748110721E+02  0.13460052493E+03  0.19486328699E+03  0.12508915116E+03 0.  0.
          5    1    3    3  502    0 -0.45302450417E+02 -0.20820025407E+02  0.73683290891E+02  0.89064500382E+02  0.41800000000E+01 0. -1.
         -5    1    3    3    0  502  0.25446106594E+02  0.82568136128E+02  0.60917234035E+02  0.10579878660E+03  0.41800000000E+01 0. -1.
        -11    1    1    2    0    0 -0.87608976909E+01  0.17541614822E+02  0.14349019600E+02  0.24297241457E+02  0.00000000000E+00 0.  1.
         11    1    1    2    0    0  0.28617241514E+02 -0.79289725543E+02 -0.25500583453E+02  0.88068648480E+02  0.00000000000E+00 0. -1.
</event>
<event>
 7    1  0.2666594E-009  0.1383477E+03  0.7561462E-02  0.1215570E+00
          2   -1    0    0  501    0  0.00000000000E+00  0.00000000000E+00  0.27319114879E+03  0.27319114879E+03  0.00000000000E+00 0. -1.
         -2   -1    0    0    0  501 -0.00000000000E+00 -0.00000000000E+00 -0.85635820053E+02  0.85635820053E+02  0.00000000000E+00 0.  1.
         25    2    1    2    0    0 -0.20215381836E+02 -0.10182173099E+03  0.79170702289E+02  0.18081067207E+03  0.12509265553E+03 0.  0.
          5    1    3    3  502    0 -0.50683710751E+02 -0.34253660950E+02  0.86701311828E+02  0.10619200392E+03  0.41800000000E+01 0. -1.
         -5    1    3    3    0  502  0.30468328914E+02 -0.67568070045E+02 -0.75306095386E+01  0.74618668150E+02  0.41800000000E+01 0. -1.
        -11    1    1    2    0    0 -0.38203454457E+02  0.30083867599E+02  0.40139991957E+02  0.63053643641E+02  0.00000000000E+00 0. -1.
         11    1    1    2    0    0  0.58418836293E+02  0.71737863396E+02  0.68244634491E+02  0.11496265313E+03  0.00000000000E+00 0.  1.
</event>
<event>
 7    1  0.2666594E-009  0.9990624E+02  0.7561462E-02  0.1280493E+00
          1   -1    0    0  501    0  0.00000000000E+00  0.00000000000E+00  0.60891383956E+02  0.60891383956E+02  0.00000000000E+00 0. -1.
         -1   -1    0    0    0  501 -0.00000000000E+00 -0.00000000000E+00 -0.29308676757E+03  0.29308676757E+03  0.00000000000E+00 0.  1.
         25    2    1    2    0    0  0.27477462696E+02  0.50269649965E+02 -0.19563859465E+03  0.23917359734E+03  0.12508997276E+03 0.  0.
          5    1    3    3  502    0  0.62620593549E+02  0.14974837747E+02 -0.17235106715E+03  0.18403246249E+03  0.41800000000E+01 0.  1.
         -5    1    3    3    0  502 -0.35143130853E+02  0.35294812218E+02 -0.23287527496E+02  0.55141134850E+02  0.41800000000E+01 0.  1.
        -11    1    1    2    0    0 -0.44894624576E+02 -0.50912460373E+02 -0.56501343081E+02  0.88317652296E+02  0.00000000000E+00 0.  1.
         11    1    1    2    0    0  0.17417161881E+02  0.64281040785E+00  0.19944554111E+02  0.26486901893E+02  0.00000000000E+00 0. -1.
</event>
<event>
 7    1  0.2666594E-009  0.1539387E+03  0.7561462E-02  0.1195715E+00
          3   -1    0    0  501    0  0.00000000000E+00  0.00000000000E+00  0.25118274754E+03  0.25118274754E+03  0.00000000000E+00 0. -1.
         -3   -1    0    0    0  501 -0.00000000000E+00 -0.00000000000E+00 -0.97496216690E+02  0.97496216690E+02  0.00000000000E+00 0.  1.
         25    2    1    2    0    0  0.31119360099E+02  0.10840144488E+03  0.80827341845E+02  0.18681496317E+03  0.12508990147E+03 0.  0.
          5    1    3    3  502    0 -0.21273447570E+02  0.11354873770E+03  0.54373319532E+02  0.12774899484E+03  0.41800000000E+01 0.  1.
         -5    1    3    3    0  502  0.52392807669E+02 -0.51472928223E+01  0.26454022313E+02  0.59065968336E+02  0.41800000000E+01 0.  1.
        -11    1    1    2    0    0 -0.38221697357E+02 -0.11995913785E+03  0.50376196876E+02  0.13560550916E+03  0.00000000000E+00 0.  1.
         11    1    1    2    0    0  0.71023372574E+01  0.11557692974E+02  0.22482992125E+02  0.26258491889E+02  0.00000000000E+00 0. -1.
</event>
<event>
 7    1  0.2666594E-009  0.8031350E+02  0.7561462E-02  0.1328164E+00
         -1   -1    0    0    0  501 -0.00000000000E+00  0.00000000000E+00  0.14253940400E+03  0.14253940400E+03  0.00000000000E+00 0.  1.
          1   -1    0    0  501    0  0.00000000000E+00 -0.00000000000E+00 -0.10926177658E+03  0.10926177658E+03  0.00000000000E+00 0. -1.
         25    2    1    2    0    0  0.22375313432E+02  0.39855153344E+02  0.59262544742E+02  0.14577085440E+03  0.12509198570E+03 0.  0.
          5    1    3    3  502    0  0.29299545622E+02 -0.13666505187E+02  0.81096860130E+02  0.87403717659E+02  0.41800000000E+01 0.  1.
         -5    1    3    3    0  502 -0.69242321894E+01  0.53521658531E+02 -0.21834315388E+02  0.58367136745E+02  0.41800000000E+01 0.  1.
        -11    1    1    2    0    0 -0.30918813100E+02  0.21878790231E+01  0.24694081267E+02  0.39630259496E+02  0.00000000000E+00 0.  1.
         11    1    1    2    0    0  0.85434996676E+01 -0.42043032368E+02 -0.50678998584E+02  0.66400066677E+02  0.00000000000E+00 0. -1.
</event>
<event>
 7    1  0.2666594E-009  0.1542391E+03  0.7561462E-02  0.1195359E+00
         -1   -1    0    0    0  501 -0.00000000000E+00  0.00000000000E+00  0.62229344684E+02  0.62229344684E+02  0.00000000000E+00 0. -1.
          1   -1    0    0  501    0  0.00000000000E+00 -0.00000000000E+00 -0.47723733288E+03  0.47723733288E+03  0.00000000000E+00 0.  1.
         25    2    1    2    0    0 -0.11311169833E+03  0.71616591505E+02 -0.23449353193E+03  0.29758663651E+03  0.12508955685E+03 0.  0.
          5    1    3    3  502    0 -0.48549636478E+02 -0.69409449395E+01 -0.17028210361E+03  0.17725324010E+03  0.41800000000E+01 0.  1.
         -5    1    3    3    0  502 -0.64562061850E+02  0.78557536444E+02 -0.64211428321E+02  0.12033339640E+03  0.41800000000E+01 0.  1.
        -11    1    1    2    0    0  0.18172507054E+02 -0.58973949050E+02 -0.96125288621E+02  0.11422888335E+03  0.00000000000E+00 0.  1.
         11    1    1    2    0    0  0.94939191275E+02 -0.12642642454E+02 -0.84389167650E+02  0.12765115771E+03  0.00000000000E+00 0. -1.
</event>
<event>
 7    1  0.2666594E-009  0.1256064E+03  0.7561462E-02  0.1234125E+00
          1   -1    0    0  501    0  0.00000000000E+00  0.00000000000E+00  0.72835141454E+03  0.72835141454E+03  0.00000000000E+00 0. -1.
         -1   -1    0    0    0  501 -0.00000000000E+00 -0.00000000000E+00 -0.23922527166E+02  0.23922527166E+02  0.00000000000E+00 0.  1.
         25    2    1    2    0    0  0.72689012477E+02  0.11225874360E+02  0.44225445388E+03  0.46545308074E+03  0.12509138902E+03 0.  0.
          5    1    3    3  502    0  0.51116265967E+02  0.63761179125E+02  0.19036430988E+03  0.20720618593E+03  0.41800000000E+01 0.  1.
         -5    1    3    3    0  502  0.21572746510E+02 -0.52535304765E+02  0.25189014400E+03  0.25824689481E+03  0.41800000000E+01 0.  1.
        -11    1    1    2    0    0 -0.89575728983E+02 -0.22217757716E+02  0.23849571012E+03  0.25572963013E+03  0.00000000000E+00 0. -1.
         11    1    1    2    0    0  0.16886716506E+02  0.10991883356E+02  0.23678723369E+02  0.31091230828E+02  0.00000000000E+00 0.  1.
</event>
<event>
 7    1  0.2666594E-009  0.2381172E+03  0.7561462E-02  0.1121053E+00
         -2   -1    0    0    0  501 -0.00000000000E+00  0.00000000000E+00  0.90765624972E+02  0.90765624972E+02  0.00000000000E+00 0.  1.
          2   -1    0    0  501    0  0.00000000000E+00 -0.00000000000E+00 -0.84688181165E+03  0.84688181165E+03  0.00000000000E+00 0. -1.
         25    2    1    2    0    0  0.20823314873E+02 -0.23482325032E+03 -0.22346963038E+03  0.34808126505E+03  0.12508525910E+03 0.  0.
          5    1    3    3  502    0  0.33006407797E+02 -0.17297831183E+03 -0.22392849439E+03  0.28490763822E+03  0.41800000000E+01 0.  1.
         -5    1    3    3    0  502 -0.12183092923E+02 -0.61844938490E+02  0.45886401009E+00  0.63173626824E+02  0.41800000000E+01 0.  1.
        -11    1    1    2    0    0 -0.44178318432E+01  0.16964357221E+03 -0.27371454538E+03  0.32205296332E+03  0.00000000000E+00 0.  1.
         11    1    1    2    0    0 -0.16405483030E+02  0.65179678105E+02 -0.25893201092E+03  0.26751320825E+03  0.00000000000E+00 0. -1.
</event>
<event>
 7    1  0.2666594E-009  0.1736238E+03  0.7561462E-02  0.1174121E+00
         -2   -1    0    0    0  501 -0.00000000000E+00  0.00000000000E+00  0.14540600863E+03  0.14540600863E+03  0.00000000000E+00 0.  1.
          2   -1    0    0  501    0  0.00000000000E+00 -0.00000000000E+00 -0.37228330280E+03  0.37228330280E+03  0.00000000000E+00 0. -1.
         25    2    1    2    0    0  0.12235721025E+03 -0.74902543438E+02  0.45496613529E+02  0.19570500236E+03  0.12509527646E+03 0.  0.
          5    1    3    3  502    0 -0.20900769932E+02 -0.13549140453E+02  0.29731110329E+02  0.39010674337E+02  0.41800000000E+01 0.  1.
         -5    1    3    3    0  502  0.14325798018E+03 -0.61353402984E+02  0.15765503199E+02  0.15669432802E+03  0.41800000000E+01 0.  1.
        -11    1    1    2    0    0 -0.26160380462E+02  0.64170687119E+02 -0.74756702844E+02  0.10193530895E+03  0.00000000000E+00 0.  1.
         11    1    1    2    0    0 -0.96196829788E+02  0.10731856319E+02 -0.19761720485E+03  0.22004900012E+03  0.00000000000E+00 0. -1.
</event>
<event>
 7    1  0.2666594E-009  0.9172796E+02  0.7561462E-02  0.1298720E+00
         -2   -1    0    0    0  501 -0.00000000000E+00  0.00000000000E+00  0.22547065529E+02  0.22547065529E+02  0.00000000000E+00 0.  1.
          2   -1    0    0  501    0  0.00000000000E+00 -0.00000000000E+00 -0.66068878019E+03  0.66068878019E+03  0.00000000000E+00 0. -1.
         25    2    1    2    0    0 -0.24579897642E+02 -0.22041393594E+02 -0.48364277075E+03  0.50064664209E+03  0.12508691434E+03 0.  0.
          5    1    3    3  502    0 -0.25015997942E+02  0.50049217498E+02 -0.24352437863E+03  0.24990462123E+03  0.41800000000E+01 0. -1.
         -5    1    3    3    0  502  0.43610029993E+00 -0.72090611092E+02 -0.24011839212E+03  0.25074202086E+03  0.41800000000E+01 0. -1.
        -11    1    1    2    0    0  0.33951126582E+02  0.28018090287E+02 -0.16284502436E+03  0.16868963910E+03  0.00000000000E+00 0. -1.
         11    1    1    2    0    0 -0.93712289398E+01 -0.59766966926E+01  0.83460804513E+01  0.13899564529E+02  0.00000000000E+00 0.  1.
</event>
<event>
 7    1  0.2666594E-009  0.1074361E+03  0.7561462E-02  0.1265393E+00
          2   -1    0    0  501    0  0.00000000000E+00  0.00000000000E+00  0.60995512424E+02  0.60995512424E+02  0.00000000000E+00 0. -1.
         -2   -1    0    0    0  501 -0.00000000000E+00 -0.00000000000E+00 -0.29286481091E+03  0.29286481091E+03  0.00000000000E+00 0.  1.
         25    2    1    2    0    0 -0.37139137508E+02  0.67320994680E+02 -0.11121857749E+03  0.18419628743E+03  0.12508904215E+03 0.  0.
          5    1    3    3  502    0  0.66380440658E+01  0.46089863026E+02 -0.12499883573E+03  0.13345606182E+03  0.41800000000E+01 0.  1.
         -5    1    3    3    0  502 -0.43777181574E+02  0.21231131654E+02  0.13780258242E+02  0.50740225611E+02  0.41800000000E+01 0.  1.
        -11    1    1    2    0    0  0.67559670955E+02 -0.40766927354E+02 -0.79953483282E+02  0.11233348118E+03  0.00000000000E+00 0. -1.
         11    1    1    2    0    0 -0.30420533447E+02 -0.26554067326E+02 -0.40697237712E+02  0.57330554717E+02  0.00000000000E+00 0.  1.
</event>
<event>
 7    1  0.2666594E-009  0.1103681E+03  0.7561462E-02  0.1259890E+00
         -4   -1    0    0    0  501 -0.00000000000E+00  0.00000000000E+00  0.32997668538E+03  0.32997668538E+03  0.00000000000E+00 0.  1.
          4   -1    0    0  501    0  0.00000000000E+00 -0.00000000000E+00 -0.42380428797E+02  0.42380428797E+02  0.00000000000E+00 0. -1.
         25    2    1    2    0    0 -0.26264685051E+02  0.22418285264E+02  0.21313261132E+03  0.24953097155E+03  0.12509109704E+03 0.  0.
          5    1    3    3  502    0  0.54098890348E+01  0.70695117175E+02  0.13149367185E+03  0.14944940491E+03  0.41800000000E+01 0. -1.
         -5    1    3    3    0  502 -0.31674574086E+02 -0.48276831910E+02  0.81638939471E+02  0.10008156664E+03  0.41800000000E+01 0. -1.
        -11    1    1    2    0    0 -0.29586366788E+02  0.43172756435E+01  0.45552797210E+02  0.54488983312E+02  0.00000000000E+00 0.  1.
         11    1    1    2    0    0  0.55851051839E+02 -0.26735560908E+02  0.28910848058E+02  0.68337159321E+02  0.00000000000E+00 0. -1.
</event>
<event>
 7    1  0.2666594E-009  0.1283567E+03  0.7561462E-02  0.1229915E+00
          2   -1    0    0  501    0  0.00000000000E+00  0.00000000000E+00  0.55787052660E+03  0.55787052660E+03  0.00000000000E+00 0.  1.
         -2   -1    0    0    0  501 -0.00000000000E+00 -0.00000000000E+00 -0.36588820814E+02  0.36588820814E+02  0.00000000000E+00 0. -1.
         25    2    1    2    0    0 -0.19496641401E+02  0.79236178196E+02  0.19108550687E+03  0.24252646663E+03  0.12508766973E+03 0.  0.
          5    1    3    3  502    0 -0.50042307133E+02  0.95963447157E+02  0.11094796386E+03  0.15504882708E+03  0.41800000000E+01 0.  1.
         -5    1    3    3    0  502  0.30545665732E+02 -0.16727268961E+02  0.80137543010E+02  0.87477639552E+02  0.41800000000E+01 0.  1.
        -11    1    1    2    0    0  0.49656718681E+02 -0.39543465794E+02  0.11833528368E+03  0.13428594402E+03  0.00000000000E+00 0. -1.
         11    1    1    2    0    0 -0.30160077280E+02 -0.39692712402E+02  0.21186091524E+03  0.21764693677E+03  0.00000000000E+00 0.  1.
</event>
<event>
 7    1  0.2666594E-009  0.2744435E+03  0.7561462E-02  0.1098763E+00
          1   -1    0    0  501    0  0.00000000000E+00  0.00000000000E+00  0.95701218858E+03  0.95701218858E+03  0.00000000000E+00 0. -1.
         -1   -1    0    0    0  501 -0.00000000000E+00 -0.00000000000E+00 -0.92610992415E+02  0.92610992415E+02  0.00000000000E+00 0.  1.
         25    2    1    2    0    0 -0.36106482295E+02 -0.25227316058E+03  0.63116344112E+03  0.69206956021E+03  0.12509021204E+03 0.  0.
          5    1    3    3  502    0  0.36483249721E+02 -0.24316204002E+02  0.83028083451E+02  0.93986383741E+02  0.41800000000E+01 0.  1.
         -5    1    3    3    0  502 -0.72589732017E+02 -0.22795695658E+03  0.54813535767E+03  0.59808317647E+03  0.41800000000E+01 0.  1.
        -11    1    1    2    0    0 -0.98926515494E+01  0.17755074476E+03  0.12100636122E+03  0.21509223830E+03  0.00000000000E+00 0.  1.
         11    1    1    2    0    0  0.45999133845E+02  0.74722415822E+02  0.11223139382E+03  0.14246138249E+03  0.00000000000E+00 0. -1.
</event>
<event>
 7    1  0.2666594E-009  0.1085986E+03  0.7561462E-02  0.1263187E+00
          1   -1    0    0  501    0  0.00000000000E+00  0.00000000000E+00  0.15220497751E+03  0.15220497751E+03  0.00000000000E+00 0. -1.
         -1   -1    0    0    0  501 -0.00000000000E+00 -0.00000000000E+00 -0.91860852884E+02  0.91860852884E+02  0.00000000000E+00 0.  1.
         25    2    1    2    0    0  0.41330057944E+02 -0.13021275052E+02  0.13290510168E+02  0.13304774086E+03  0.12508931367E+03 0.  0.
          5    1    3    3  502    0 -0.24453632436E+02 -0.50654207402E+02  0.34283312021E+01  0.56507120982E+02  0.41800000000E+01 0.  1.
         -5    1    3    3    0  502  0.65783690380E+02  0.37632932350E+02  0.98621789660E+01  0.76540619877E+02  0.41800000000E+01 0.  1.
        -11    1    1    2    0    0 -0.44150915447E+02  0.38909934410E+02  0.18848865217E+01  0.58879870311E+02  0.00000000000E+00 0.  1.
         11    1    1    2    0    0  0.28208575033E+01 -0.25888659358E+02  0.45168727938E+02  0.52138219225E+02  0.00000000000E+00 0. -1.
</event>
<event>
 7    1  0.2666594E-009  0.9430633E+02  0.7561462E-02  0.1292746E+00
         -1   -1    0    0    0  501 -0.00000000000E+00  0.00000000000E+00  0.34727781010E+02  0.34727781010E+02  0.00000000000E+00 0.  1.
          1   -1    0    0  501    0  0.00000000000E+00 -0.00000000000E+00 -0.34234711878E+03  0.34234711878E+03  0.00000000000E+00 0. -1.
         25    2    1    2    0    0 -0.52573932044E+01  0.65838791412E+01 -0.18063924131E+03  0.21988204558E+03  0.12508633346E+03 0.  0.
          5    1    3    3  502    0 -0.35171077103E+02 -0.49207579400E+02 -0.10408925467E+03  0.12045927060E+03  0.41800000000E+01 0.  1.
         -5    1    3    3    0  502  0.29913683899E+02  0.55791458541E+02 -0.76549986639E+02  0.99422774981E+02  0.41800000000E+01 0.  1.
        -11    1    1    2    0    0  0.34023683839E+02 -0.10268978347E+02 -0.10357146499E+02  0.37018015369E+02  0.00000000000E+00 0.  1.
         11    1    1    2    0    0 -0.28766290635E+02  0.36850992055E+01 -0.11662294996E+03  0.12017483884E+03  0.00000000000E+00 0. -1.
</event>
<event>
 7    1  0.2666594E-009  0.1098883E+03  0.7561462E-02  0.1260777E+00
          2   -1    0    0  501    0  0.00000000000E+00  0.00000000000E+00  0.29404011136E+02  0.29404011136E+02  0.00000000000E+00 0. -1.
         -2   -1    0    0    0  501 -0.00000000000E+00 -0.00000000000E+00 -0.43591557106E+03  0.43591557106E+03  0.00000000000E+00 0.  1.
         25    2    1    2    0    0 -0.29184276701E+02 -0.71205564763E+02 -0.27159617604E+03  0.30876160099E+03  0.12508912402E+03 0.  0.
          5    1    3    3  502    0  0.39973959618E+02 -0.58913441955E+02 -0.17728854555E+03  0.19109529527E+03  0.41800000000E+01 0. -1.
         -5    1    3    3    0  502 -0.69158236319E+02 -0.12292122808E+02 -0.94307630494E+02  0.11766630573E+03  0.41800000000E+01 0. -1.
        -11    1    1    2    0    0  0.76064507298E+00  0.15831434655E+02 -0.40301038300E+02  0.43305733942E+02  0.00000000000E+00 0. -1.
         11    1    1    2    0    0  0.28423631628E+02  0.55374130107E+02 -0.94614345587E+02  0.11325224727E+03  0.00000000000E+00 0.  1.
</event>
<event>
 7    1  0.2666594E-009  0.1420455E+03  0.7561462E-02  0.1210603E+00
          1   -1    0    0  501    0  0.00000000000E+00  0.00000000000E+00  0.82405299343E+03  0.82405299343E+03  0.00000000000E+00 0. -1.
         -1   -1    0    0    0  501 -0.00000000000E+00 -0.00000000000E+00 -0.32726519803E+02  0.32726519803E+02  0.00000000000E+00 0.  1.
         25    2    1    2    0    0 -0.97110901253E+02  0.98193396900E+01  0.61848863544E+03  0.63851799251E+03  0.12510031183E+03 0.  0.
          5    1    3    3  502    0 -0.49229816897E+02 -0.55096274791E+02  0.22612615666E+03  0.23792789978E+03  0.41800000000E+01 0. -1.
         -5    1    3    3    0  502 -0.47881084356E+02  0.64915614481E+02  0.39236247878E+03  0.40059009273E+03  0.41800000000E+01 0. -1.
        -11    1    1    2    0    0 -0.74862726521E+00 -0.29488472935E+02  0.19722616009E+02  0.35483969071E+02  0.00000000000E+00 0.  1.
         11    1    1    2    0    0  0.97859528518E+02  0.19669133245E+02  0.15311522218E+03  0.18277755165E+03  0.00000000000E+00 0. -1.
</event>
<event>
 7    1  0.2666594E-009  0.1878244E+03  0.7561462E-02  0.1160438E+00
          1   -1    0    0  501    0  0.00000000000E+00  0.00000000000E+00  0.33790722389E+02  0.33790722389E+02  0.00000000000E+00 0. -1.
         -1   -1    0    0    0  501 -0.00000000000E+00 -0.00000000000E+00 -0.11774868249E+04  0.11774868249E+04  0.00000000000E+00 0.  1.
         25    2    1    2    0    0 -0.71016040070E+02 -0.14797007497E+03 -0.50284888296E+03  0.54354695007E+03  0.12509143378E+03 0.  0.
          5    1    3    3  502    0 -0.43378643807E+02 -0.43385499227E+01 -0.22805816644E+03  0.23222516968E+03  0.41800000000E+01 0. -1.
         -5    1    3    3    0  502 -0.27637396263E+02 -0.14363152505E+03 -0.27479071652E+03  0.31132178039E+03  0.41800000000E+01 0. -1.
        -11    1    1    2    0    0 -0.29900043784E+01  0.93719089555E+02 -0.37283335360E+03  0.38444364662E+03  0.00000000000E+00 0.  1.
         11    1    1    2    0    0  0.74006044448E+02  0.54250985415E+02 -0.26801386594E+03  0.28328695059E+03  0.00000000000E+00 0. -1.
</event>
<event>
 7    1  0.3150673E-009  0.1887037E+03  0.7561462E-02  0.1159636E+00
         -1   -1    0    0    0  501 -0.00000000000E+00  0.00000000000E+00  0.47048843799E+02  0.47048843799E+02  0.00000000000E+00 0.  1.
          1   -1    0    0  501    0  0.00000000000E+00 -0.00000000000E+00 -0.83136524919E+03  0.83136524919E+03  0.00000000000E+00 0. -1.
         25    2    1    2    0    0  0.19199123281E+02  0.15430054314E+03 -0.28766538429E+03  0.35010873256E+03  0.12508991704E+03 0.  0.
          5    1    3    3  502    0  0.47445351020E+02  0.73174556133E+01 -0.51953550536E+02  0.70860781137E+02  0.41800000000E+01 0.  1.
         -5    1    3    3    0  502 -0.28246227739E+02  0.14698308753E+03 -0.23571183375E+03  0.27924795142E+03  0.41800000000E+01 0.  1.
        -11    1    1    2    0    0  0.28165041584E+02 -0.11359993755E+03 -0.30221073734E+03  0.32408262086E+03  0.00000000000E+00 0. -1.
         11    1    1    2    0    0 -0.47364164866E+02 -0.40700605594E+02 -0.19444028375E+03  0.20422273956E+03  0.00000000000E+00 0.  1.
</event>
<event>
 7    1  0.2666594E-009  0.1262672E+03  0.7561462E-02  0.1233102E+00
          2   -1    0    0  501    0  0.00000000000E+00  0.00000000000E+00  0.94720516628E+03  0.94720516628E+03  0.00000000000E+00 0. -1.
         -2   -1    0    0    0  501 -0.00000000000E+00 -0.00000000000E+00 -0.19648499514E+02  0.19648499514E+02  0.00000000000E+00 0.  1.
         25    2    1    2    0    0 -0.70627789760E+02 -0.34584921646E+02  0.43933478443E+03  0.46351478016E+03  0.12508595893E+03 0.  0.
          5    1    3    3  502    0 -0.59476421888E+02  0.31284320286E+02  0.31692612507E+03  0.32399968303E+03  0.41800000000E+01 0.  1.
         -5    1    3    3    0  502 -0.11151367872E+02 -0.65869241932E+02  0.12240865936E+03  0.13951509712E+03  0.41800000000E+01 0.  1.
        -11    1    1    2    0    0  0.91817922076E+02  0.29895545887E+02  0.43979974254E+03  0.45027556898E+03  0.00000000000E+00 0.  1.
         11    1    1    2    0    0 -0.21190132316E+02  0.46893757590E+01  0.48422139790E+02  0.53063316654E+02  0.00000000000E+00 0. -1.
</event>
<event>
 7    1  0.2666594E-009  0.1316835E+03  0.7561462E-02  0.1224979E+00
         -4   -1    0    0    0  501 -0.00000000000E+00  0.00000000000E+00  0.96962227921E+02  0.96962227921E+02  0.00000000000E+00 0.  1.
          4   -1    0    0  501    0  0.00000000000E+00 -0.00000000000E+00 -0.25982657596E+03  0.25982657596E+03  0.00000000000E+00 0. -1.
         25    2    1    2    0    0  0.95653617135E+02  0.53684943927E+02 -0.48610715875E+02  0.17333232262E+03  0.12509758068E+03 0.  0.
          5    1    3    3  502    0  0.11494221988E+03  0.63395692993E+02 -0.13666375176E+02  0.13204154653E+03  0.41800000000E+01 0. -1.
         -5    1    3    3    0  502 -0.19288602741E+02 -0.97107490668E+01 -0.34944340699E+02  0.41290776089E+02  0.41800000000E+01 0. -1.
        -11    1    1    2    0    0 -0.56707782018E+02 -0.26851100658E+02 -0.12039579573E+03  0.13576414025E+03  0.00000000000E+00 0. -1.
         11    1    1    2    0    0 -0.38945835117E+02 -0.26833843269E+02  0.61421635703E+01  0.47692341008E+02  0.00000000000E+00 0.  1.
</event>
<event>
 7    1  0.2666594E-009  0.1263706E+03  0.7561462E-02  0.1232943E+00
          1   -1    0    0  501    0  0.00000000000E+00  0.00000000000E+00  0.14801058217E+03  0.14801058217E+03  0.00000000000E+00 0. -1.
         -1   -1    0    0    0  501 -0.00000000000E+00 -0.00000000000E+00 -0.20576093773E+03  0.20576093773E+03  0.00000000000E+00 0.  1.
         25    2    1    2    0    0 -0.13897164047E+02  0.81548353844E+02  0.79463636482E+02  0.16972116507E+03  0.12509012417E+03 0.  0.
          5    1    3    3  502    0 -0.46684701265E+02  0.52310180523E+01  0.72197666210E+02  0.86236884731E+02  0.41800000000E+01 0. -1.
         -5    1    3    3    0  502  0.32787537218E+02  0.76317335791E+02  0.72659702721E+01  0.83484280335E+02  0.41800000000E+01 0. -1.
        -11    1    1    2    0    0 -0.12382148936E+02  0.16654415748E+02 -0.27903336158E+02  0.34774751543E+02  0.00000000000E+00 0.  1.
         11    1    1    2    0    0  0.26279312982E+02 -0.98202769592E+02 -0.10931065588E+03  0.14927560328E+03  0.00000000000E+00 0. -1.
</event>
<event>
 7    1  0.2666594E-009  0.9251756E+02  0.7561462E-02  0.1296867E+00
          2   -1    0    0  501    0  0.00000000000E+00  0.00000000000E+00  0.40368092073E+03  0.40368092073E+03  0.00000000000E+00 0. -1.
         -2   -1    0    0    0  501 -0.00000000000E+00 -0.00000000000E+00 -0.38968463782E+02  0.38968463782E+02  0.00000000000E+00 0.  1.
         25    2    1    2    0    0 -0.52647359918E+00 -0.49332779450E+02  0.13259151577E+03  0.18884396959E+03  0.12509010550E+03 0.  0.
          5    1    3    3  502    0 -0.49171619283E+02 -0.49820529705E+00  0.10200837424E+03  0.11331935918E+03  0.41800000000E+01 0.  1.
         -5    1    3    3    0  502  0.48645145683E+02 -0.48834574153E+02  0.30583141534E+02  0.75524610408E+02  0.41800000000E+01 0.  1.
        -11    1    1    2    0    0 -0.19856181356E+02  0.97834230897E+01  0.54332557367E+01  0.22792621027E+02  0.00000000000E+00 0.  1.
         11    1    1    2    0    0  0.20382654955E+02  0.39549356360E+02  0.22668768544E+03  0.23101279389E+03  0.00000000000E+00 0. -1.
</event>
<event>
 7    1  0.2666594E-009  0.9348887E+02  0.7561462E-02  0.1294616E+00
         -2   -1    0    0    0  501 -0.00000000000E+00  0.00000000000E+00  0.16093417812E+02  0.16093417812E+02  0.00000000000E+00 0.  1.
          2   -1    0    0  501    0  0.00000000000E+00 -0.00000000000E+00 -0.18722022167E+04  0.18722022167E+04  0.00000000000E+00 0. -1.
         25    2    1    2    0    0  0.18255894852E+02 -0.54420596302E+02 -0.16542264221E+04  0.16599419884E+04  0.12508984961E+03 0.  0.
          5    1    3    3  502    0 -0.19308085623E+02 -0.31007611480E+02 -0.14687941118E+04  0.14692541949E+04  0.41800000000E+01 0.  1.
         -5    1    3    3    0  502  0.37563980475E+02 -0.23412984822E+02 -0.18543231031E+03  0.19068779351E+03  0.41800000000E+01 0.  1.
        -11    1    1    2    0    0  0.21371365242E+02  0.61846215937E+02 -0.13938958518E+03  0.15398423989E+03  0.00000000000E+00 0.  1.
         11    1    1    2    0    0 -0.39627260094E+02 -0.74256196352E+01 -0.62492791586E+02  0.74369406141E+02  0.00000000000E+00 0. -1.
</event>
<event>
 7    1  0.2666594E-009  0.8921728E+02  0.7561462E-02  0.1304758E+00
          2   -1    0    0  501    0  0.00000000000E+00  0.00000000000E+00  0.25762557512E+02  0.25762557512E+02  0.00000000000E+00 0. -1.
         -2   -1    0    0    0  501 -0.00000000000E+00 -0.00000000000E+00 -0.51426901587E+03  0.51426901587E+03  0.00000000000E+00 0.  1.
         25    2    1    2    0    0 -0.20608704884E+02 -0.28332650715E+02 -0.30226326291E+03  0.32899626471E+03  0.12509198325E+03 0.  0.
          5    1    3    3  502    0 -0.76654396026E+01  0.49390664631E+02 -0.13616783667E+03  0.14511150493E+03  0.41800000000E+01 0.  1.
         -5    1    3    3    0  502 -0.12943265281E+02 -0.77723315346E+02 -0.16609542623E+03  0.18388475978E+03  0.41800000000E+01 0.  1.
        -11    1    1    2    0    0 -0.99062769589E+01  0.63876631390E+01  0.73077023450E+01  0.13868636455E+02  0.00000000000E+00 0. -1.
         11    1    1    2    0    0  0.30514981843E+02  0.21944987576E+02 -0.19355089779E+03  0.19716667222E+03  0.00000000000E+00 0.  1.
</event>
<event>
 7    1  0.2666594E-009  0.1121581E+03  0.7561462E-02  0.1256625E+00
          1   -1    0    0  501    0  0.00000000000E+00  0.00000000000E+00  0.34763680807E+03  0.34763680807E+03  0.00000000000E+00 0. -1.
         -1   -1    0    0    0  501 -0.00000000000E+00 -0.00000000000E+00 -0.56582850892E+02  0.56582850892E+02  0.00000000000E+00 0.  1.
         25    2    1    2    0    0  0.83944631918E+02 -0.15685090986E+02  0.12141074810E+03  0.19412435180E+03  0.12510384047E+03 0.  0.
          5    1    3    3  502    0  0.74099007557E+02  0.24554958741E+02  0.12992084569E+03  0.15162620969E+03  0.41800000000E+01 0.  1.
         -5    1    3    3    0  502  0.98456243612E+01 -0.40240049727E+02 -0.85100975996E+01  0.42498142103E+02  0.41800000000E+01 0.  1.
        -11    1    1    2    0    0 -0.64255416398E+02 -0.16893797244E+02  0.15616961137E+03  0.16971477966E+03  0.00000000000E+00 0.  1.
         11    1    1    2    0    0 -0.19689215520E+02  0.32578888229E+02  0.13473597719E+02  0.40380527504E+02  0.00000000000E+00 0. -1.
</event>
<event>
 7    1  0.2666594E-009  0.9984673E+02  0.7561462E-02  0.1280619E+00
         -1   -1    0    0    0  501 -0.00000000000E+00  0.00000000000E+00  0.10818568824E+03  0.10818568824E+03  0.00000000000E+00 0.  1.
          1   -1    0    0  501    0  0.00000000000E+00 -0.00000000000E+00 -0.15758206772E+03  0.15758206772E+03  0.00000000000E+00 0. -1.
         25    2    1    2    0    0 -0.67125169734E+02 -0.12164245992E+02  0.64504335854E+01  0.14262262946E+03  0.12508336839E+03 0.  0.
          5    1    3    3  502    0 -0.56744088395E+02 -0.48901340041E+02 -0.37818265282E+02  0.84017416137E+02  0.41800000000E+01 0. -1.
         -5    1    3    3    0  502 -0.10381081339E+02  0.36737094049E+02  0.44268698867E+02  0.58605213320E+02  0.41800000000E+01 0. -1.
        -11    1    1    2    0    0  0.42361171187E+02  0.33161560525E+02  0.51522611515E+01  0.54043535374E+02  0.00000000000E+00 0.  1.
         11    1    1    2    0    0  0.24763998547E+02 -0.20997314533E+02 -0.60999074218E+02  0.69101591133E+02  0.00000000000E+00 0. -1.
</event>
<event>
 7    1  0.2666594E-009  0.1249521E+03  0.7561462E-02  0.1235144E+00
         -3   -1    0    0    0  501 -0.00000000000E+00  0.00000000000E+00  0.89816537554E+02  0.89816537554E+02  0.00000000000E+00 0.  1.
          3   -1    0    0  501    0  0.00000000000E+00 -0.00000000000E+00 -0.23235825480E+03  0.23235825480E+03  0.00000000000E+00 0. -1.
         25    2    1    2    0    0  0.23586467414E+02 -0.79668717788E+02 -0.12304883930E+03  0.19414499974E+03  0.12509131876E+03 0.  0.
          5    1    3    3  502    0  0.57120840090E+02 -0.27359398045E+02 -0.88735915386E+01  0.64090093313E+02  0.41800000000E+01 0. -1.
         -5    1    3    3    0  502 -0.33534372677E+02 -0.52309319743E+02 -0.11417524777E+03  0.13005490643E+03  0.41800000000E+01 0. -1.
        -11    1    1    2    0    0 -0.58567666099E+02  0.38298831103E+02 -0.23205684957E+02  0.73725679315E+02  0.00000000000E+00 0. -1.
         11    1    1    2    0    0  0.34981198685E+02  0.41369886685E+02  0.37128070130E+01  0.54304113303E+02  0.00000000000E+00 0.  1.
</event>
<event>
 7    1  0.2666594E-009  0.1063189E+03  0.7561462E-02  0.1267543E+00
         -1   -1    0    0    0  501 -0.00000000000E+00  0.00000000000E+00  0.17905957778E+03  0.17905957778E+03  0.00000000000E+00 0.  1.
          1   -1    0    0  501    0  0.00000000000E+00 -0.00000000000E+00 -0.80457894244E+02  0.80457894244E+02  0.00000000000E+00 0. -1.
         25    2    1    2    0    0  0.95705600305E+01  0.26322100857E+02  0.15228582863E+02  0.12908753489E+03  0.12508890165E+03 0.  0.
          5    1    3    3  502    0 -0.14824249967E+02 -0.39620449904E+02  0.35945665508E+02  0.55669576130E+02  0.41800000000E+01 0.  1.
         -5    1    3    3    0  502  0.24394809997E+02  0.65942550760E+02 -0.20717082645E+02  0.73417958763E+02  0.41800000000E+01 0.  1.
        -11    1    1    2    0    0 -0.13156739385E+02  0.35452931895E+02  0.24777681915E+02  0.45209995491E+02  0.00000000000E+00 0. -1.
         11    1    1    2    0    0  0.35861793543E+01 -0.61775032751E+02  0.58595418754E+02  0.85219941638E+02  0.00000000000E+00 0.  1.
</event>
<event>
 7    1  0.2666594E-009  0.1230832E+03  0.7561462E-02  0.1238096E+00
          2   -1    0    0  501    0  0.00000000000E+00  0.00000000000E+00  0.34599278585E+03  0.34599278585E+03  0.00000000000E+00 0. -1.
         -2   -1    0    0    0  501 -0.00000000000E+00 -0.00000000000E+00 -0.89463364978E+02  0.89463364978E+02  0.00000000000E+00 0.  1.
         25    2    1    2    0    0  0.63028373517E+02 -0.69508150848E+02  0.26477843449E+03  0.30750476710E+03  0.12509038139E+03 0.  0.
          5    1    3    3  502    0  0.63308434428E+02  0.15997447161E+02  0.76422279283E+02  0.10060672620E+03  0.41800000000E+01 0. -1.
         -5    1    3    3    0  502 -0.28006091129E+00 -0.85505598008E+02  0.18835615521E+03  0.20689804090E+03  0.41800000000E+01 0. -1.
        -11    1    1    2    0    0 -0.29892681578E+02  0.21619830953E+02  0.38464239366E+02  0.53296221370E+02  0.00000000000E+00 0. -1.
         11    1    1    2    0    0 -0.33135691939E+02  0.47888319895E+02 -0.46713252982E+02  0.74655162359E+02  0.00000000000E+00 0.  1.
</event>
<event>
 7    1  0.2666594E-009  0.1375852E+03  0.7561462E-02  0.1216616E+00
         -2   -1    0    0    0  501 -0.00000000000E+00  0.00000000000E+00  0.69116604073E+02  0.69116604073E+02  0.00000000000E+00 0.  1.
          2   -1    0    0  501    0  0.00000000000E+00 -0.00000000000E+00 -0.56018351671E+03  0.56018351671E+03  0.00000000000E+00 0. -1.
         25    2    1    2    0    0  0.11163508489E+03  0.24255792549E+02 -0.44826959433E+03  0.47921132045E+03  0.12508846789E+03 0.  0.
          5    1    3    3  502    0 -0.18416617349E+02  0.10663734254E+02 -0.17389762993E+03  0.17524481481E+03  0.41800000000E+01 0. -1.
         -5    1    3    3    0  502  0.13005170224E+03  0.13592058295E+02 -0.27437196440E+03  0.30396650564E+03  0.41800000000E+01 0. -1.
        -11    1    1    2    0    0 -0.34006028164E+02 -0.29265654333E+02  0.20949465282E+02  0.49515336721E+02  0.00000000000E+00 0.  1.
         11    1    1    2    0    0 -0.77629056728E+02  0.50098617837E+01 -0.63746783586E+02  0.10057346360E+03  0.00000000000E+00 0. -1.
</event>
<event>
 7    1  0.2666594E-009  0.2478392E+03  0.7561462E-02  0.1114678E+00
         -2   -1    0    0    0  501 -0.00000000000E+00  0.00000000000E+00  0.33298453320E+02  0.33298453320E+02  0.00000000000E+00 0.  1.
          2   -1    0    0  501    0  0.00000000000E+00 -0.00000000000E+00 -0.19725811374E+04  0.19725811374E+04  0.00000000000E+00 0. -1.
         25    2    1    2    0    0  0.58921322217E+02  0.22268356564E+03 -0.10936663933E+04  0.11246390160E+04  0.12508814460E+03 0.  0.
          5    1    3    3  502    0  0.54683494110E+02  0.21153163232E+02 -0.30473307784E+03  0.31035054692E+03  0.41800000000E+01 0. -1.
         -5    1    3    3    0  502  0.42378281070E+01  0.20153040241E+03 -0.78893331542E+03  0.81428846907E+03  0.41800000000E+01 0. -1.
        -11    1    1    2    0    0  0.42091822867E+01 -0.69080318423E+02 -0.13780062917E+03  0.15420382943E+03  0.00000000000E+00 0.  1.
         11    1    1    2    0    0 -0.63130504504E+02 -0.15360324721E+03 -0.70781566166E+03  0.72703674532E+03  0.00000000000E+00 0. -1.
</event>
<event>
 7    1  0.2666594E-009  0.7211940E+02  0.7561462E-02  0.1353031E+00
         -4   -1    0    0    0  501 -0.00000000000E+00  0.00000000000E+00  0.63235752067E+02  0.63235752067E+02  0.00000000000E+00 0.  1.
          4   -1    0    0  501    0  0.00000000000E+00 -0.00000000000E+00 -0.23602869920E+03  0.23602869920E+03  0.00000000000E+00 0. -1.
         25    2    1    2    0    0  0.29484877560E+02 -0.17191860255E+02 -0.39993708495E+02  0.13568726947E+03  0.12508645136E+03 0.  0.
          5    1    3    3  502    0  0.43291720268E+02 -0.15375517977E+02  0.35874589206E+02  0.58438327727E+02  0.41800000000E+01 0.  1.
         -5    1    3    3    0  502 -0.13806842708E+02 -0.18163422779E+01 -0.75868297701E+02  0.77248941746E+02  0.41800000000E+01 0.  1.
        -11    1    1    2    0    0 -0.55294591558E+02  0.66665329774E+01 -0.12120452249E+03  0.13338842075E+03  0.00000000000E+00 0.  1.
         11    1    1    2    0    0  0.25809713999E+02  0.10525327278E+02 -0.11594716149E+02  0.30188761047E+02  0.00000000000E+00 0. -1.
</event>
<event>
 7    1  0.2666594E-009  0.1035699E+03  0.7561462E-02  0.1272963E+00
          1   -1    0    0  501    0  0.00000000000E+00  0.00000000000E+00  0.20246893798E+03  0.20246893798E+03  0.00000000000E+00 0. -1.
         -1   -1    0    0    0  501 -0.00000000000E+00 -0.00000000000E+00 -0.62621671288E+02  0.62621671288E+02  0.00000000000E+00 0.  1.
         25    2    1    2    0    0  0.17022017286E+02 -0.19207064866E+02  0.57309688076E+02  0.13996679719E+03  0.12509054143E+03 0.  0.
          5    1    3    3  502    0  0.22722867270E+02 -0.69177456694E+02  0.15810446929E+02  0.74627688184E+02  0.41800000000E+01 0. -1.
         -5    1    3    3    0  502 -0.57008499838E+01  0.49970391828E+02  0.41499241147E+02  0.65339109006E+02  0.41800000000E+01 0. -1.
        -11    1    1    2    0    0 -0.45162292893E+02 -0.64949485474E+01  0.15826407134E+02  0.48293811392E+02  0.00000000000E+00 0.  1.
         11    1    1    2    0    0  0.28140275607E+02  0.25702013413E+02  0.66711171482E+02  0.76830000685E+02  0.00000000000E+00 0. -1.
</event>
<event>
 7    1  0.2666594E-009  0.9726972E+02  0.7561462E-02  0.1286144E+00
          2   -1    0    0  501    0  0.00000000000E+00  0.00000000000E+00  0.13510498027E+03  0.13510498027E+03  0.00000000000E+00 0. -1.
         -2   -1    0    0    0  501 -0.00000000000E+00 -0.00000000000E+00 -0.11230727734E+03  0.11230727734E+03  0.00000000000E+00 0.  1.
         25    2    1    2    0    0  0.45434071670E+02 -0.25304296836E+02  0.47460030316E+02  0.14354156138E+03  0.12508862082E+03 0.  0.
          5    1    3    3  502    0  0.16711002615E+02 -0.66548565042E+02 -0.72607320659E+01  0.69124234156E+02  0.41800000000E+01 0. -1.
         -5    1    3    3    0  502  0.28723069054E+02  0.41244268206E+02  0.54720762382E+02  0.74417327226E+02  0.41800000000E+01 0. -1.
        -11    1    1    2    0    0  0.45379378078E+01  0.24981855812E+02 -0.43579721495E+02  0.50436872672E+02  0.00000000000E+00 0.  1.
         11    1    1    2    0    0 -0.49972009478E+02  0.32244102432E+00  0.18917394108E+02  0.53433823551E+02  0.00000000000E+00 0. -1.
</event>
<event>
 7    1  0.2666594E-009  0.8730287E+02  0.7561462E-02  0.1309518E+00
          2   -1    0    0  501    0  0.00000000000E+00  0.00000000000E+00  0.69358246451E+02  0.69358246451E+02  0.00000000000E+00 0. -1.
         -2   -1    0    0    0  501 -0.00000000000E+00 -0.00000000000E+00 -0.16701518318E+03  0.16701518318E+03  0.00000000000E+00 0.  1.
         25    2    1    2    0    0  0.97270926297E+01 -0.17096927535E+02 -0.39176171853E+02  0.13255501792E+03  0.12509651903E+03 0.  0.
          5    1    3    3  502    0  0.51307661812E+02  0.28712047226E+02  0.49098937528E+00  0.58945494205E+02  0.41800000000E+01 0. -1.
         -5    1    3    3    0  502 -0.41580569182E+02 -0.45808974761E+02 -0.39667161229E+02  0.73609523719E+02  0.41800000000E+01 0. -1.
        -11    1    1    2    0    0  0.14761142180E+02  0.24032507999E+02 -0.70307367960E+02  0.75753407505E+02  0.00000000000E+00 0.  1.
         11    1    1    2    0    0 -0.24488234810E+02 -0.69355804634E+01  0.11826603083E+02  0.28065004204E+02  0.00000000000E+00 0. -1.
</event>
<event>
 7    1  0.2666594E-009  0.9551034E+02  0.7561462E-02  0.1290031E+00
          2   -1    0    0  501    0  0.00000000000E+00  0.00000000000E+00  0.72006282846E+03  0.72006282846E+03  0.00000000000E+00 0. -1.
         -2   -1    0    0    0  501 -0.00000000000E+00 -0.00000000000E+00 -0.23636162525E+02  0.23636162525E+02  0.00000000000E+00 0.  1.
         25    2    1    2    0    0  0.17355012553E+02 -0.26309979180E+02  0.57336214968E+03  0.58769470289E+03  0.12508995827E+03 0.  0.
          5    1    3    3  502    0  0.61077642844E+02  0.19265349347E+02  0.33366551108E+03  0.33978195630E+03  0.41800000000E+01 0.  1.
         -5    1    3    3    0  502 -0.43722630291E+02 -0.45575328527E+02  0.23969663860E+03  0.24791274660E+03  0.41800000000E+01 0.  1.
        -11    1    1    2    0    0  0.19447133288E+02  0.22510820487E+01 -0.53303058064E+01  0.20289665436E+02  0.00000000000E+00 0.  1.
         11    1    1    2    0    0 -0.36802145841E+02  0.24058897132E+02  0.12839482207E+03  0.13571462266E+03  0.00000000000E+00 0. -1.
</event>
<event>
 7    1  0.2666594E-009  0.1387580E+03  0.7561462E-02  0.1215010E+00
          1   -1    0    0  501    0  0.00000000000E+00  0.00000000000E+00  0.34352640367E+03  0.34352640367E+03  0.00000000000E+00 0.  1.
         -1   -1    0    0    0  501 -0.00000000000E+00 -0.00000000000E+00 -0.67693887339E+02  0.67693887339E+02  0.00000000000E+00 0. -1.
         25    2    1    2    0    0  0.57009847294E+02 -0.76185753914E+02  0.20451636780E+03  0.25793298798E+03  0.12509232512E+03 0.  0.
          5    1    3    3  502    0 -0.39411834976E+02 -0.18270374265E+02  0.70576340817E+02  0.82979464899E+02  0.41800000000E+01 0. -1.
         -5    1    3    3    0  502  0.96421682270E+02 -0.57915379649E+02  0.13394002698E+03  0.17495352308E+03  0.41800000000E+01 0. -1.
        -11    1    1    2    0    0  0.18531330179E+02  0.19283124052E+02  0.49448349464E+02  0.56217331279E+02  0.00000000000E+00 0. -1.
         11    1    1    2    0    0 -0.75541177473E+02  0.56902629862E+02  0.21867799071E+02  0.97069971750E+02  0.00000000000E+00 0.  1.
</event>
<event>
 7    1  0.2666594E-009  0.1346413E+03  0.7561462E-02  0.1220727E+00
         -1   -1    0    0    0  501 -0.00000000000E+00  0.00000000000E+00  0.29789670709E+03  0.29789670709E+03  0.00000000000E+00 0.  1.
          1   -1    0    0  501    0  0.00000000000E+00 -0.00000000000E+00 -0.69145215522E+02  0.69145215522E+02  0.00000000000E+00 0. -1.
         25    2    1    2    0    0 -0.45830124373E+02 -0.76083597168E+02  0.73267184606E+02  0.17002543620E+03  0.12510577347E+03 0.  0.
          5    1    3    3  502    0  0.75243719178E+01  0.29220563864E+02 -0.10293501106E+01  0.30479328847E+02  0.41800000000E+01 0. -1.
         -5    1    3    3    0  502 -0.53354496291E+02 -0.10530416103E+03  0.74296534717E+02  0.13954610735E+03  0.41800000000E+01 0. -1.
        -11    1    1    2    0    0 -0.28955184580E+01 -0.16137436183E+02  0.16642644184E+02  0.23361902301E+02  0.00000000000E+00 0.  1.
         11    1    1    2    0    0  0.48725642831E+02  0.92221033351E+02  0.13884166278E+03  0.17365458412E+03  0.00000000000E+00 0. -1.
</event>
<event>
 7    1  0.2666594E-009  0.9344879E+02  0.7561462E-02  0.1294709E+00
         -2   -1    0    0    0  501 -0.00000000000E+00  0.00000000000E+00  0.35492597612E+03  0.35492597612E+03  0.00000000000E+00 0.  1.
          2   -1    0    0  501    0  0.00000000000E+00 -0.00000000000E+00 -0.61879334221E+02  0.61879334221E+02  0.00000000000E+00 0. -1.
         25    2    1    2    0    0  0.60239755667E+02 -0.19237284842E+02  0.26699382739E+03  0.30154966772E+03  0.12509035513E+03 0.  0.
          5    1    3    3  502    0  0.25962115435E+02  0.41355978101E+02  0.19598494793E+03  0.20201960444E+03  0.41800000000E+01 0.  1.
         -5    1    3    3    0  502  0.34277640232E+02 -0.60593262944E+02  0.71008879460E+02  0.99530063279E+02  0.41800000000E+01 0.  1.
        -11    1    1    2    0    0 -0.39888397441E+02 -0.36569687447E+00  0.59397031053E+02  0.71548761572E+02  0.00000000000E+00 0.  1.
         11    1    1    2    0    0 -0.20351358226E+02  0.19602981717E+02 -0.33344216547E+02  0.43706881048E+02  0.00000000000E+00 0. -1.
</event>
<event>
 7    1  0.2666594E-009  0.1087826E+03  0.7561462E-02  0.1262841E+00
         -1   -1    0    0    0  501 -0.00000000000E+00  0.00000000000E+00  0.27731429479E+03  0.27731429479E+03  0.00000000000E+00 0.  1.
          1   -1    0    0  501    0  0.00000000000E+00 -0.00000000000E+00 -0.71885778016E+02  0.71885778016E+02  0.00000000000E+00 0. -1.
         25    2    1    2    0    0  0.71052506591E+02 -0.74479619319E+02  0.14109925659E+03  0.21483336754E+03  0.12509477691E+03 0.  0.
          5    1    3    3  502    0  0.65736458510E+02 -0.50544643954E+02  0.12634470029E+02  0.83983005679E+02  0.41800000000E+01 0. -1.
         -5    1    3    3    0  502  0.53160480810E+01 -0.23934975365E+02  0.12846478656E+03  0.13085036186E+03  0.41800000000E+01 0. -1.
        -11    1    1    2    0    0 -0.58203936568E+02  0.77049916304E+02  0.35823720162E+02  0.10299381904E+03  0.00000000000E+00 0. -1.
         11    1    1    2    0    0 -0.12848570023E+02 -0.25702969849E+01  0.28505540021E+02  0.31372886226E+02  0.00000000000E+00 0.  1.
</event>
<event>
 7    1  0.2666594E-009  0.8969702E+02  0.7561462E-02  0.1303587E+00
          2   -1    0    0  501    0  0.00000000000E+00  0.00000000000E+00  0.51741875566E+02  0.51741875566E+02  0.00000000000E+00 0. -1.
         -2   -1    0    0    0  501 -0.00000000000E+00 -0.00000000000E+00 -0.26940073663E+03  0.26940073663E+03  0.00000000000E+00 0.  1.
         25    2    1    2    0    0  0.20910438632E+02 -0.26052922850E+02 -0.14660113820E+03  0.19559022702E+03  0.12509053503E+03 0.  0.
          5    1    3    3  502    0 -0.73274162208E+01 -0.73089521313E+02 -0.72475010531E+02  0.10327569271E+03  0.41800000000E+01 0.  1.
         -5    1    3    3    0  502  0.28237854853E+02  0.47036598463E+02 -0.74126127665E+02  0.92314534307E+02  0.41800000000E+01 0.  1.
        -11    1    1    2    0    0 -0.29783464483E+02  0.82468938509E+01 -0.91769679473E+02  0.96833569000E+02  0.00000000000E+00 0.  1.
         11    1    1    2    0    0  0.88730258505E+01  0.17806028999E+02  0.20711956600E+02  0.28718816178E+02  0.00000000000E+00 0. -1.
</event>
<event>
 7    1  0.2666594E-009  0.1157499E+03  0.7561462E-02  0.1250278E+00
         -2   -1    0    0    0  501 -0.00000000000E+00  0.00000000000E+00  0.23820178895E+02  0.23820178895E+02  0.00000000000E+00 0.  1.
          2   -1    0    0  501    0  0.00000000000E+00 -0.00000000000E+00 -0.66386916057E+03  0.66386916057E+03  0.00000000000E+00 0. -1.
         25    2    1    2    0    0  0.22272152817E+02  0.39052628427E+02 -0.48243502669E+03  0.50041297502E+03  0.12509370093E+03 0.  0.
          5    1    3    3  502    0 -0.35610723452E+02 -0.26847917821E+02 -0.14684947482E+03  0.15352906882E+03  0.41800000000E+01 0. -1.
         -5    1    3    3    0  502  0.57882876269E+02  0.65900546248E+02 -0.33558555186E+03  0.34688390620E+03  0.41800000000E+01 0. -1.
        -11    1    1    2    0    0  0.12484412923E+02 -0.57987531489E+02 -0.11310158342E+03  0.12771210806E+03  0.00000000000E+00 0. -1.
         11    1    1    2    0    0 -0.34756565740E+02  0.18934903063E+02 -0.44512371572E+02  0.59564256387E+02  0.00000000000E+00 0.  1.
</event>
<event>
 7    1  0.2762382E-009  0.1264123E+03  0.7561462E-02  0.1232878E+00
         -1   -1    0    0    0  501 -0.00000000000E+00  0.00000000000E+00  0.52363209269E+02  0.52363209269E+02  0.00000000000E+00 0.  1.
          1   -1    0    0  501    0  0.00000000000E+00 -0.00000000000E+00 -0.41619209387E+03  0.41619209387E+03  0.00000000000E+00 0. -1.
         25    2    1    2    0    0 -0.87989679342E+02  0.59412082465E+01 -0.12154963453E+03  0.19544658711E+03  0.12509025994E+03 0.  0.
          5    1    3    3  502    0 -0.90624029240E+00 -0.43308672219E+02 -0.71004094576E+02  0.83279746682E+02  0.41800000000E+01 0.  1.
         -5    1    3    3    0  502 -0.87083439049E+02  0.49249880466E+02 -0.50545539958E+02  0.11216684043E+03  0.41800000000E+01 0.  1.
        -11    1    1    2    0    0  0.80981714553E+02  0.19071139106E+02 -0.10794422705E+03  0.13628537189E+03  0.00000000000E+00 0.  1.
         11    1    1    2    0    0  0.70079647892E+01 -0.25012347353E+02 -0.13433502302E+03  0.13682334413E+03  0.00000000000E+00 0. -1.
</event>
<event>
 7    1  0.2666594E-009  0.1780431E+03  0.7561462E-02  0.1169711E+00
         -2   -1    0    0    0  501 -0.00000000000E+00  0.00000000000E+00  0.32353578154E+03  0.32353578154E+03  0.00000000000E+00 0.  1.
          2   -1    0    0  501    0  0.00000000000E+00 -0.00000000000E+00 -0.15685111396E+03  0.15685111396E+03  0.00000000000E+00 0. -1.
         25    2    1    2    0    0 -0.10464323981E+03  0.12938904909E+03 -0.26105093493E+02  0.20981114834E+03  0.12509000120E+03 0.  0.
          5    1    3    3  502    0 -0.10325609901E+03  0.14091247725E+03  0.65873875845E+01  0.17486856293E+03  0.41800000000E+01 0.  1.
         -5    1    3    3    0  502 -0.13871408074E+01 -0.11523428160E+02 -0.32692481078E+02  0.34942585411E+02  0.41800000000E+01 0.  1.
        -11    1    1    2    0    0  0.24277777385E+02 -0.52224669567E+02  0.13117248159E+03  0.14325866994E+03  0.00000000000E+00 0.  1.
         11    1    1    2    0    0  0.80365462428E+02 -0.77164379526E+02  0.61617279485E+02  0.12731707721E+03  0.00000000000E+00 0. -1.
</event>
<event>
 7    1  0.2666594E-009  0.1167817E+03  0.7561462E-02  0.1248503E+00
         -2   -1    0    0    0  501 -0.00000000000E+00  0.00000000000E+00  0.40184616378E+02  0.40184616378E+02  0.00000000000E+00 0.  1.
          2   -1    0    0  501    0  0.00000000000E+00 -0.00000000000E+00 -0.43309835210E+03  0.43309835210E+03  0.00000000000E+00 0. -1.
         25    2    1    2    0    0 -0.57714543624E+02 -0.43171932258E+02 -0.20658015653E+03  0.25202337169E+03  0.12508251088E+03 0.  0.
          5    1    3    3  502    0  0.17752329228E+02 -0.47220798874E+02 -0.27508380728E+02  0.57611912393E+02  0.41800000000E+01 0.  1.
         -5    1    3    3    0  502 -0.75466872852E+02  0.40488666163E+01 -0.17907177580E+03  0.19441145930E+03  0.41800000000E+01 0.  1.
        -11    1    1    2    0    0  0.77811530824E+02  0.37460162141E+02 -0.98597080830E+02  0.13106976167E+03  0.00000000000E+00 0.  1.
         11    1    1    2    0    0 -0.20096987200E+02  0.57117701166E+01 -0.87736498358E+02  0.90189835106E+02  0.00000000000E+00 0. -1.
</event>
<event>
 7    1  0.2666594E-009  0.1239673E+03  0.7561462E-02  0.1236692E+00
         -1   -1    0    0    0  501 -0.00000000000E+00  0.00000000000E+00  0.10077742983E+03  0.10077742983E+03  0.00000000000E+00 0.  1.
          1   -1    0    0  501    0  0.00000000000E+00 -0.00000000000E+00 -0.24887998916E+03  0.24887998916E+03  0.00000000000E+00 0. -1.
         25    2    1    2    0    0 -0.67178989500E+02  0.70680545743E+02 -0.15017447329E+03  0.21841437326E+03  0.12507481697E+03 0.  0.
          5    1    3    3  502    0 -0.57884999357E+00  0.62841992211E+02 -0.11092174935E+02  0.63952793506E+02  0.41800000000E+01 0.  1.
         -5    1    3    3    0  502 -0.66600139506E+02  0.78385535314E+01 -0.13908229836E+03  0.15446157976E+03  0.41800000000E+01 0.  1.
        -11    1    1    2    0    0  0.20781404744E+02 -0.68201378432E+02  0.29643936959E+02  0.77214362664E+02  0.00000000000E+00 0.  1.
         11    1    1    2    0    0  0.46397584755E+02 -0.24791673103E+01 -0.27572022994E+02  0.54028683064E+02  0.00000000000E+00 0. -1.
</event>
<event>
 7    1  0.2666594E-009  0.1764959E+03  0.7561462E-02  0.1171238E+00
         -2   -1    0    0    0  501 -0.00000000000E+00  0.00000000000E+00  0.65857491206E+02  0.65857491206E+02  0.00000000000E+00 0.  1.
          2   -1    0    0  501    0  0.00000000000E+00 -0.00000000000E+00 -0.63926301026E+03  0.63926301026E+03  0.00000000000E+00 0. -1.
         25    2    1    2    0    0 -0.42792842957E+02  0.13398883049E+03 -0.45390804809E+03  0.49139016917E+03  0.12509016001E+03 0.  0.
          5    1    3    3  502    0 -0.64576955382E+02  0.33400031439E+02 -0.27954253735E+03  0.28887237295E+03  0.41800000000E+01 0. -1.
         -5    1    3    3    0  502  0.21784112424E+02  0.10058879906E+03 -0.17436551074E+03  0.20251779622E+03  0.41800000000E+01 0. -1.
        -11    1    1    2    0    0 -0.36479585550E+02 -0.38075436801E+02 -0.33497416581E+02  0.62470600823E+02  0.00000000000E+00 0.  1.
         11    1    1    2    0    0  0.79272428508E+02 -0.95913393693E+02 -0.86000054380E+02  0.15125973147E+03  0.00000000000E+00 0. -1.
</event>
<event>
 7    1  0.2666594E-009  0.1213097E+03  0.7561462E-02  0.1240952E+00
          1   -1    0    0  501    0  0.00000000000E+00  0.00000000000E+00  0.30434081940E+03  0.30434081940E+03  0.00000000000E+00 0. -1.
         -1   -1    0    0    0  501 -0.00000000000E+00 -0.00000000000E+00 -0.58894787908E+02  0.58894787908E+02  0.00000000000E+00 0.  1.
         25    2    1    2    0    0 -0.24229717242E+02 -0.70283784303E+02  0.97485609934E+02  0.17515105227E+03  0.12509019719E+03 0.  0.
          5    1    3    3  502    0  0.10260120552E+02 -0.99419216426E+02  0.70577239148E+02  0.12242577243E+03  0.41800000000E+01 0. -1.
         -5    1    3    3    0  502 -0.34489837794E+02  0.29135432123E+02  0.26908370786E+02  0.52725279842E+02  0.41800000000E+01 0. -1.
        -11    1    1    2    0    0 -0.71360269191E+01  0.65053811753E+02  0.42739961615E+02  0.78164094203E+02  0.00000000000E+00 0.  1.
         11    1    1    2    0    0  0.31365744161E+02  0.52299725507E+01  0.10522045994E+03  0.10992046084E+03  0.00000000000E+00 0. -1.
</event>
<event>
 7    1  0.2666594E-009  0.1887782E+03  0.7561462E-02  0.1159568E+00
          4   -1    0    0  501    0  0.00000000000E+00  0.00000000000E+00  0.47994275230E+02  0.47994275230E+02  0.00000000000E+00 0. -1.
         -4   -1    0    0    0  501 -0.00000000000E+00 -0.00000000000E+00 -0.77980384991E+03  0.77980384991E+03  0.00000000000E+00 0.  1.
         25    2    1    2    0    0 -0.10947184235E+03  0.11594120901E+03 -0.36037311977E+03  0.41345110182E+03  0.12508628993E+03 0.  0.
          5    1    3    3  502    0 -0.20318389363E+02  0.10289559226E+03 -0.24839624606E+03  0.26966369297E+03  0.41800000000E+01 0. -1.
         -5    1    3    3    0  502 -0.89153452988E+02  0.13045616752E+02 -0.11197687371E+03  0.14378740885E+03  0.41800000000E+01 0. -1.
        -11    1    1    2    0    0  0.39056578287E+02 -0.10384160276E+03 -0.20197156519E+03  0.23043655942E+03  0.00000000000E+00 0. -1.
         11    1    1    2    0    0  0.70415264064E+02 -0.12099606248E+02 -0.16946488971E+03  0.18391046389E+03  0.00000000000E+00 0.  1.
</event>
<event>
 7    1  0.2666594E-009  0.8891205E+02  0.7561462E-02  0.1305508E+00
          1   -1    0    0  501    0  0.00000000000E+00  0.00000000000E+00  0.61065976358E+03  0.61065976358E+03  0.00000000000E+00 0. -1.
         -1   -1    0    0    0  501 -0.00000000000E+00 -0.00000000000E+00 -0.22939646533E+02  0.22939646533E+02  0.00000000000E+00 0.  1.
         25    2    1    2    0    0  0.11290447052E+02  0.41383516633E+02  0.27951100089E+03  0.30921518071E+03  0.12509020232E+03 0.  0.
          5    1    3    3  502    0 -0.19163934953E+02  0.46926326510E+02  0.32766965736E+02  0.60501925310E+02  0.41800000000E+01 0.  1.
         -5    1    3    3    0  502  0.30454382005E+02 -0.55428098774E+01  0.24674403516E+03  0.24871325540E+03  0.41800000000E+01 0.  1.
        -11    1    1    2    0    0 -0.24195105365E+02 -0.64701344489E+02  0.26285030745E+03  0.27177555304E+03  0.00000000000E+00 0. -1.
         11    1    1    2    0    0  0.12904658313E+02  0.23317827856E+02  0.45358808701E+02  0.52608676365E+02  0.00000000000E+00 0.  1.
</event>
<event>
 7    1  0.2666594E-009  0.9711783E+02  0.7561462E-02  0.1286476E+00
         -3   -1    0    0    0  501 -0.00000000000E+00  0.00000000000E+00  0.22100517544E+03  0.22100517544E+03  0.00000000000E+00 0.  1.
          3   -1    0    0  501    0  0.00000000000E+00 -0.00000000000E+00 -0.60383764595E+02  0.60383764595E+02  0.00000000000E+00 0. -1.
         25    2    1    2    0    0 -0.87993237221E+01 -0.28799223090E+01  0.44243608880E+02  0.13300457087E+03  0.12508795664E+03 0.  0.
          5    1    3    3  502    0  0.38946736001E+02 -0.45424510668E+02  0.11637689556E+02  0.61099448711E+02  0.41800000000E+01 0.  1.
         -5    1    3    3    0  502 -0.47746059723E+02  0.42544588359E+02  0.32605919324E+02  0.71905122159E+02  0.41800000000E+01 0.  1.
        -11    1    1    2    0    0  0.35344347261E+02  0.17951712899E+02  0.14792672069E+02  0.42312055330E+02  0.00000000000E+00 0. -1.
         11    1    1    2    0    0 -0.26545023539E+02 -0.15071790590E+02  0.10158512989E+03  0.10607231383E+03  0.00000000000E+00 0.  1.
</event>
<event>
 7    1  0.2666594E-009  0.8701812E+02  0.7561462E-02  0.1310238E+00
         -1   -1    0    0    0  501 -0.00000000000E+00  0.00000000000E+00  0.10111829044E+03  0.10111829044E+03  0.00000000000E+00 0.  1.
          1   -1    0    0  501    0  0.00000000000E+00 -0.00000000000E+00 -0.13859497433E+03  0.13859497433E+03  0.00000000000E+00 0. -1.
         25    2    1    2    0    0  0.25750148686E+02  0.96476988048E+01 -0.55995926477E+02  0.13978455816E+03  0.12509208875E+03 0.  0.
          5    1    3    3  502    0 -0.50167150906E+02 -0.31028633874E+01 -0.15877004536E+02  0.52876483093E+02  0.41800000000E+01 0. -1.
         -5    1    3    3    0  502  0.75917299592E+02  0.12750562192E+02 -0.40118921940E+02  0.86908075063E+02  0.41800000000E+01 0. -1.
        -11    1    1    2    0    0 -0.29019750275E+01 -0.20855664249E+02  0.53025214584E+02  0.57053076797E+02  0.00000000000E+00 0.  1.
         11    1    1    2    0    0 -0.22848173658E+02  0.11207965444E+02 -0.34505972000E+02  0.42875629821E+02  0.00000000000E+00 0. -1.
</event>
<event>
 7    1  0.2666594E-009  0.1076987E+03  0.7561462E-02  0.1264892E+00
         -2   -1    0    0    0  501 -0.00000000000E+00  0.00000000000E+00  0.16928300626E+03  0.16928300626E+03  0.00000000000E+00 0.  1.
          2   -1    0    0  501    0  0.00000000000E+00 -0.00000000000E+00 -0.10383083361E+03  0.10383083361E+03  0.00000000000E+00 0. -1.
         25    2    1    2    0    0 -0.71717846503E+02 -0.25404772519E+02  0.32606999617E+02  0.14999917505E+03  0.12509070356E+03 0.  0.
          5    1    3    3  502    0 -0.11451811743E+02  0.21925068071E+02  0.62726304501E+02  0.67556748579E+02  0.41800000000E+01 0. -1.
         -5    1    3    3    0  502 -0.60266034760E+02 -0.47329840590E+02 -0.30119304884E+02  0.82442426473E+02  0.41800000000E+01 0. -1.
        -11    1    1    2    0    0 -0.13135785757E+02  0.25532820027E+02  0.24691493141E+02  0.37870088454E+02  0.00000000000E+00 0. -1.
         11    1    1    2    0    0  0.84853632260E+02 -0.12804750780E+00  0.81536798963E+01  0.85244576365E+02  0.00000000000E+00 0.  1.
</event>
<event>
 7    1  0.3901985E-009  0.1667885E+03  0.7561462E-02  0.1181239E+00
         -1   -1    0    0    0  501 -0.00000000000E+00  0.00000000000E+00  0.81719845520E+02  0.81719845520E+02  0.00000000000E+00 0.  1.
          1   -1    0    0  501    0  0.00000000000E+00 -0.00000000000E+00 -0.39201620886E+03  0.39201620886E+03  0.00000000000E+00 0. -1.
         25    2    1    2    0    0 -0.13505441252E+03  0.62942417591E+01 -0.10686376811E+03  0.21294602952E+03  0.12508730844E+03 0.  0.
          5    1    3    3  502    0 -0.12782032029E+03  0.49688839377E+02 -0.64050127858E+02  0.15141633438E+03  0.41800000000E+01 0. -1.
         -5    1    3    3    0  502 -0.72340922333E+01 -0.43394597618E+02 -0.42813640252E+02  0.61529695144E+02  0.41800000000E+01 0. -1.
        -11    1    1    2    0    0  0.33700192992E+02 -0.33211934103E+02 -0.11228607783E+03  0.12184785123E+03  0.00000000000E+00 0. -1.
         11    1    1    2    0    0  0.10135421953E+03  0.26917692344E+02 -0.91146517395E+02  0.13894217362E+03  0.00000000000E+00 0.  1.
</event>
<event>
 7    1  0.2666594E-009  0.1401283E+03  0.7561462E-02  0.1213156E+00
          2   -1    0    0  501    0  0.00000000000E+00  0.00000000000E+00  0.62034778777E+03  0.62034778777E+03  0.00000000000E+00 0. -1.
         -2   -1    0    0    0  501 -0.00000000000E+00 -0.00000000000E+00 -0.34029012821E+02  0.34029012821E+02  0.00000000000E+00 0.  1.
         25    2    1    2    0    0 -0.59150226012E+02 -0.46473594185E+02  0.22881388744E+03  0.27140987741E+03  0.12509589233E+03 0.  0.
          5    1    3    3  502    0 -0.83634889954E+02 -0.69784796603E+02  0.14887333403E+03  0.18451410418E+03  0.41800000000E+01 0. -1.
         -5    1    3    3    0  502  0.24484663942E+02  0.23311202418E+02  0.79940553409E+02  0.86895773234E+02  0.41800000000E+01 0. -1.
        -11    1    1    2    0    0  0.43833687039E+02 -0.33870947433E+02  0.15236808589E+03  0.16212546622E+03  0.00000000000E+00 0. -1.
         11    1    1    2    0    0  0.15316538972E+02  0.80344541618E+02  0.20513680162E+03  0.22084145696E+03  0.00000000000E+00 0.  1.
</event>
<event>
 7    1  0.2666594E-009  0.1233363E+03  0.7561462E-02  0.1237692E+00
          1   -1    0    0  501    0  0.00000000000E+00  0.00000000000E+00  0.12852548409E+03  0.12852548409E+03  0.00000000000E+00 0. -1.
         -1   -1    0    0    0  501 -0.00000000000E+00 -0.00000000000E+00 -0.13309189000E+03  0.13309189000E+03  0.00000000000E+00 0.  1.
         25    2    1    2    0    0  0.14406814483E+02 -0.66623963998E+02  0.28948360799E+02  0.14536786324E+03  0.12508996438E+03 0.  0.
          5    1    3    3  502    0  0.48140400933E+02  0.17760772861E+02  0.10640366796E+02  0.52570267834E+02  0.41800000000E+01 0. -1.
         -5    1    3    3    0  502 -0.33733586450E+02 -0.84384736859E+02  0.18307994003E+02  0.92797595410E+02  0.41800000000E+01 0. -1.
        -11    1    1    2    0    0  0.29149470164E+02  0.49439669604E+02 -0.38576865304E+02  0.69153069910E+02  0.00000000000E+00 0.  1.
         11    1    1    2    0    0 -0.43556284646E+02  0.17184294394E+02  0.50620985911E+01  0.47096440929E+02  0.00000000000E+00 0. -1.
</event>
<event>
 7    1  0.2666594E-009  0.9249444E+02  0.7561462E-02  0.1296921E+00
         -1   -1    0    0    0  501 -0.00000000000E+00  0.00000000000E+00  0.13856674433E+03  0.13856674433E+03  0.00000000000E+00 0.  1.
          1   -1    0    0  501    0  0.00000000000E+00 -0.00000000000E+00 -0.23307536990E+03  0.23307536990E+03  0.00000000000E+00 0. -1.
         25    2    1    2    0    0 -0.46322649979E+02 -0.45164894555E+02 -0.18218781408E+03  0.23027258274E+03  0.12508959655E+03 0.  0.
          5    1    3    3  502    0 -0.29292723064E+02 -0.45846598463E+01  0.11145474583E+02  0.31949596775E+02  0.41800000000E+01 0.  1.
         -5    1    3    3    0  502 -0.17029926916E+02 -0.40580234709E+02 -0.19333328866E+03  0.19832298597E+03  0.41800000000E+01 0.  1.
        -11    1    1    2    0    0  0.49536314383E+02  0.70023649585E+02  0.69698585548E+02  0.11052172081E+03  0.00000000000E+00 0. -1.
         11    1    1    2    0    0 -0.32136644040E+01 -0.24858755030E+02  0.17980602964E+02  0.30847810676E+02  0.00000000000E+00 0.  1.
</event>
<event>
 7    1  0.2666594E-009  0.9620439E+02  0.7561462E-02  0.1288486E+00
          2   -1    0    0  501    0  0.00000000000E+00  0.00000000000E+00  0.87285640983E+03  0.87285640983E+03  0.00000000000E+00 0. -1.
         -2   -1    0    0    0  501 -0.00000000000E+00 -0.00000000000E+00 -0.16377058004E+02  0.16377058004E+02  0.00000000000E+00 0.  1.
         25    2    1    2    0    0 -0.14505527430E+02  0.24803912472E+02  0.62611515159E+03  0.63913487470E+03  0.12509020988E+03 0.  0.
          5    1    3    3  502    0  0.18503054032E+02  0.67229041713E+02  0.26661137752E+03  0.27561060590E+03  0.41800000000E+01 0.  1.
         -5    1    3    3    0  502 -0.33008581463E+02 -0.42425129241E+02  0.35950377406E+03  0.36352426880E+03  0.41800000000E+01 0.  1.
        -11    1    1    2    0    0  0.30177568224E+02  0.89057152414E+01  0.21875152620E+02  0.38321269421E+02  0.00000000000E+00 0.  1.
         11    1    1    2    0    0 -0.15672040794E+02 -0.33709627713E+02  0.20848904762E+03  0.21177732372E+03  0.00000000000E+00 0. -1.
</event>
<event>
 7    1  0.3874366E-009  0.9233784E+02  0.7561462E-02  0.1297287E+00
         -2   -1    0    0    0  501 -0.00000000000E+00  0.00000000000E+00  0.13518295911E+02  0.13518295911E+02  0.00000000000E+00 0.  1.
          2   -1    0    0  501    0  0.00000000000E+00 -0.00000000000E+00 -0.13400068184E+04  0.13400068184E+04  0.00000000000E+00 0. -1.
         25    2    1    2    0    0  0.58989822724E+02 -0.10414419082E+02 -0.99132363894E+03  0.10009795811E+04  0.12509718362E+03 0.  0.
          5    1    3    3  502    0  0.54777338779E+02 -0.34802843520E+02 -0.22409822732E+03  0.23334370068E+03  0.41800000000E+01 0.  1.
         -5    1    3    3    0  502  0.42124839450E+01  0.24388424438E+02 -0.76722541162E+03  0.76763588042E+03  0.41800000000E+01 0.  1.
        -11    1    1    2    0    0 -0.36581551948E+02 -0.30674829495E+02 -0.25734609232E+03  0.26173682649E+03  0.00000000000E+00 0. -1.
         11    1    1    2    0    0 -0.22408270776E+02  0.41089248577E+02 -0.77818791206E+02  0.90808706700E+02  0.00000000000E+00 0.  1.
</event>
<event>
 7    1  0.2666594E-009  0.1553954E+03  0.7561462E-02  0.1193996E+00
          2   -1    0    0  501    0  0.00000000000E+00  0.00000000000E+00  0.16527132814E+04  0.16527132814E+04  0.00000000000E+00 0. -1.
         -2   -1    0    0    0  501 -0.00000000000E+00 -0.00000000000E+00 -0.16299697092E+02  0.16299697092E+02  0.00000000000E+00 0.  1.
         25    2    1    2    0    0 -0.40272021720E+02 -0.11213379741E+03  0.10338704672E+04  0.10482037717E+04  0.12508868713E+03 0.  0.
          5    1    3    3  502    0  0.22652936881E+02  0.10425579059E+02  0.32985666466E+03  0.33082433386E+03  0.41800000000E+01 0. -1.
         -5    1    3    3    0  502 -0.62924958601E+02 -0.12255937647E+03  0.70401380258E+03  0.71737943781E+03  0.41800000000E+01 0. -1.
        -11    1    1    2    0    0  0.38101418626E+02  0.26773346390E+01  0.11699790215E+03  0.12307475505E+03  0.00000000000E+00 0. -1.
         11    1    1    2    0    0  0.21706030943E+01  0.10945646277E+03  0.48554521492E+03  0.49773445178E+03  0.00000000000E+00 0.  1.
</event>
<event>
 7    1  0.2666594E-009  0.1747725E+03  0.7561462E-02  0.1172960E+00
          3   -1    0    0  501    0  0.00000000000E+00  0.00000000000E+00  0.18641557112E+03  0.18641557112E+03  0.00000000000E+00 0. -1.
         -3   -1    0    0    0  501 -0.00000000000E+00 -0.00000000000E+00 -0.22111552295E+03  0.22111552295E+03  0.00000000000E+00 0.  1.
         25    2    1    2    0    0  0.97215286528E+02 -0.13002992026E+03  0.38426286120E+02  0.20853276695E+03  0.12510293094E+03 0.  0.
          5    1    3    3  502    0  0.26401463450E+02 -0.59859688148E+02 -0.44131501448E+02  0.79027092554E+02  0.41800000000E+01 0.  1.
         -5    1    3    3    0  502  0.70813823078E+02 -0.70170232112E+02  0.82557787568E+02  0.12950567440E+03  0.41800000000E+01 0.  1.
        -11    1    1    2    0    0 -0.38587540672E+02  0.11827986132E+03 -0.40257609829E+02  0.13076619990E+03  0.00000000000E+00 0.  1.
         11    1    1    2    0    0 -0.58627745856E+02  0.11750058943E+02 -0.32868628124E+02  0.68232127214E+02  0.00000000000E+00 0. -1.
</event>
<event>
 7    1  0.2666594E-009  0.1387831E+03  0.7561462E-02  0.1214976E+00
          1   -1    0    0  501    0  0.00000000000E+00  0.00000000000E+00  0.68645946498E+02  0.68645946498E+02  0.00000000000E+00 0. -1.
         -1   -1    0    0    0  501 -0.00000000000E+00 -0.00000000000E+00 -0.30571542667E+03  0.30571542667E+03  0.00000000000E+00 0.  1.
         25    2    1    2    0    0 -0.49400264853E+00  0.92747543168E+02 -0.10211932626E+03  0.18622048430E+03  0.12508941273E+03 0.  0.
          5    1    3    3  502    0  0.49144343213E+02  0.81877241649E+02 -0.94955603907E+02  0.13473339706E+03  0.41800000000E+01 0.  1.
         -5    1    3    3    0  502 -0.49638345862E+02  0.10870301519E+02 -0.71637223498E+01  0.51487087244E+02  0.41800000000E+01 0.  1.
        -11    1    1    2    0    0  0.16223964615E+02  0.15005628808E+02 -0.20100591949E+02  0.29873394860E+02  0.00000000000E+00 0. -1.
         11    1    1    2    0    0 -0.15729961967E+02 -0.10775317198E+03 -0.11484956197E+03  0.15826749400E+03  0.00000000000E+00 0.  1.
</event>
<event>
 7    1  0.2666594E-009  0.1557411E+03  0.7561462E-02  0.1193591E+00
         -2   -1    0    0    0  501 -0.00000000000E+00  0.00000000000E+00  0.38713056148E+02  0.38713056148E+02  0.00000000000E+00 0. -1.
          2   -1    0    0  501    0  0.00000000000E+00 -0.00000000000E+00 -0.68996388139E+03  0.68996388139E+03  0.00000000000E+00 0.  1.
         25    2    1    2    0    0 -0.11943176106E+03  0.10048636827E+01 -0.29034373101E+03  0.33794960332E+03  0.12508196092E+03 0.  0.
          5    1    3    3  502    0 -0.51254776350E+02  0.58589011458E+02 -0.17867699833E+03  0.19494272619E+03  0.41800000000E+01 0. -1.
         -5    1    3    3    0  502 -0.68176984715E+02 -0.57584147776E+02 -0.11166673268E+03  0.14300687713E+03  0.41800000000E+01 0. -1.
        -11    1    1    2    0    0  0.30079886387E+02 -0.37149943772E+02 -0.17379704979E+03  0.18025074869E+03  0.00000000000E+00 0.  1.
         11    1    1    2    0    0  0.89351874678E+02  0.36145080089E+02 -0.18711004444E+03  0.21047658553E+03  0.00000000000E+00 0. -1.
</event>
<event>
 7    1  0.2666594E-009  0.1080816E+03  0.7561462E-02  0.1264164E+00
          2   -1    0    0  501    0  0.00000000000E+00  0.00000000000E+00  0.12468411544E+04  0.12468411544E+04  0.00000000000E+00 0. -1.
         -2   -1    0    0    0  501 -0.00000000000E+00 -0.00000000000E+00 -0.22376228326E+02  0.22376228326E+02  0.00000000000E+00 0.  1.
         25    2    1    2    0    0  0.47835222256E+00 -0.71322267477E+02  0.10480700843E+04  0.10579164368E+04  0.12509672650E+03 0.  0.
          5    1    3    3  502    0  0.22191824318E+02 -0.75817414595E+02  0.10138185317E+04  0.10169003122E+04  0.41800000000E+01 0.  1.
         -5    1    3    3    0  502 -0.21713472096E+02  0.44951471182E+01  0.34251552615E+02  0.41016124569E+02  0.41800000000E+01 0.  1.
        -11    1    1    2    0    0  0.22633421623E+02  0.84777439441E+02  0.11777332789E+03  0.14686743265E+03  0.00000000000E+00 0. -1.
         11    1    1    2    0    0 -0.23111773846E+02 -0.13455171965E+02  0.58621513901E+02  0.64433513290E+02  0.00000000000E+00 0.  1.
</event>
<event>
 7    1  0.2666594E-009  0.1373336E+03  0.7561462E-02  0.1216963E+00
          4   -1    0    0  501    0  0.00000000000E+00  0.00000000000E+00  0.62272613372E+02  0.62272613372E+02  0.00000000000E+00 0.  1.
         -4   -1    0    0    0  501 -0.00000000000E+00 -0.00000000000E+00 -0.31287624116E+03  0.31287624116E+03  0.00000000000E+00 0. -1.
         25    2    1    2    0    0  0.42101435477E+02 -0.68372998015E+02 -0.16021815635E+03  0.21855539246E+03  0.12509677942E+03 0.  0.
          5    1    3    3  502    0 -0.39786316006E+02  0.35245384217E+00 -0.58932093729E+02  0.71228780955E+02  0.41800000000E+01 0.  1.
         -5    1    3    3    0  502  0.81887751483E+02 -0.68725451857E+02 -0.10128606262E+03  0.14732661150E+03  0.41800000000E+01 0.  1.
        -11    1    1    2    0    0  0.31179971019E+02  0.35811434233E+02 -0.37902780170E+02  0.60755824076E+02  0.00000000000E+00 0.  1.
         11    1    1    2    0    0 -0.73281406496E+02  0.32561563782E+02 -0.52482691265E+02  0.95837637995E+02  0.00000000000E+00 0. -1.
</event>
<event>
 7    1  0.2666594E-009  0.1175668E+03  0.7561462E-02  0.1247166E+00
          2   -1    0    0  501    0  0.00000000000E+00  0.00000000000E+00  0.21994213055E+03  0.21994213055E+03  0.00000000000E+00 0. -1.
         -2   -1    0    0    0  501 -0.00000000000E+00 -0.00000000000E+00 -0.69633161359E+02  0.69633161359E+02  0.00000000000E+00 0.  1.
         25    2    1    2    0    0 -0.15097881615E+02  0.47886903381E+02  0.11892654773E+03  0.17975543981E+03  0.12508953929E+03 0.  0.
          5    1    3    3  502    0  0.39282847092E+02  0.63656721691E+02  0.48302633676E+02  0.89139986045E+02  0.41800000000E+01 0.  1.
         -5    1    3    3    0  502 -0.54380728707E+02 -0.15769818310E+02  0.70623914058E+02  0.90615453766E+02  0.41800000000E+01 0.  1.
        -11    1    1    2    0    0  0.49242566389E+02 -0.63190819332E+01  0.49776475830E+01  0.49895271484E+02  0.00000000000E+00 0. -1.
         11    1    1    2    0    0 -0.34144684773E+02 -0.41567821448E+02  0.26404773868E+02  0.59924580609E+02  0.00000000000E+00 0.  1.
</event>
<event>
 7    1  0.2666594E-009  0.4596718E+03  0.7561462E-02  0.1024876E+00
         -1   -1    0    0    0  501 -0.00000000000E+00  0.00000000000E+00  0.13905336623E+03  0.13905336623E+03  0.00000000000E+00 0.  1.
          1   -1    0    0  501    0  0.00000000000E+00 -0.00000000000E+00 -0.16432044889E+04  0.16432044889E+04  0.00000000000E+00 0. -1.
         25    2    1    2    0    0 -0.43681638637E+03  0.95827940730E+02 -0.99864403768E+03  0.11013306145E+04  0.12509060205E+03 0.  0.
          5    1    3    3  502    0 -0.11212555447E+03  0.82478945618E+02 -0.28813197650E+03  0.32001941304E+03  0.41800000000E+01 0. -1.
         -5    1    3    3    0  502 -0.32469083190E+03  0.13348995112E+02 -0.71051206118E+03  0.78131120142E+03  0.41800000000E+01 0. -1.
        -11    1    1    2    0    0  0.34746393167E+03 -0.11035919364E+03 -0.38522236319E+03  0.53038345047E+03  0.00000000000E+00 0. -1.
         11    1    1    2    0    0  0.89352454706E+02  0.14531252913E+02 -0.12028472184E+03  0.15054379025E+03  0.00000000000E+00 0.  1.
</event>
<event>
 7    1  0.2666594E-009  0.9519231E+02  0.7561462E-02  0.1290744E+00
          1   -1    0    0  501    0  0.00000000000E+00  0.00000000000E+00  0.64752802572E+02  0.64752802572E+02  0.00000000000E+00 0. -1.
         -1   -1    0    0    0  501 -0.00000000000E+00 -0.00000000000E+00 -0.27923238902E+03  0.27923238902E+03  0.00000000000E+00 0.  1.
         25    2    1    2    0    0 -0.40222848223E+02  0.49710458130E+02 -0.17899951929E+03  0.22754406483E+03  0.12508583599E+03 0.  0.
          5    1    3    3  502    0  0.14398883217E+02 -0.20575893200E+02  0.22642063501E+01  0.25559621462E+02  0.41800000000E+01 0. -1.
         -5    1    3    3    0  502 -0.54621731439E+02  0.70286351330E+02 -0.18126372564E+03  0.20198444337E+03  0.41800000000E+01 0. -1.
        -11    1    1    2    0    0  0.11489449116E+02 -0.45309716682E+02  0.22277672540E+02  0.51781005790E+02  0.00000000000E+00 0. -1.
         11    1    1    2    0    0  0.28733399106E+02 -0.44007414484E+01 -0.57757739700E+02  0.64660120977E+02  0.00000000000E+00 0.  1.
</event>
<event>
 7    1  0.2666594E-009  0.1123004E+03  0.7561462E-02  0.1256368E+00
         -1   -1    0    0    0  501 -0.00000000000E+00  0.00000000000E+00  0.32432264243E+02  0.32432264243E+02  0.00000000000E+00 0.  1.
          1   -1    0    0  501    0  0.00000000000E+00 -0.00000000000E+00 -0.49186415200E+03  0.49186415200E+03  0.00000000000E+00 0. -1.
         25    2    1    2    0    0  0.58097895158E+02  0.37812507807E+01 -0.28555085264E+03  0.31714174515E+03  0.12509969543E+03 0.  0.
          5    1    3    3  502    0 -0.50666167733E+01 -0.52705706118E+02 -0.10675774395E+03  0.11924030508E+03  0.41800000000E+01 0. -1.
         -5    1    3    3    0  502  0.63164511932E+02  0.56486956899E+02 -0.17879310869E+03  0.19790144007E+03  0.41800000000E+01 0. -1.
        -11    1    1    2    0    0 -0.34835819598E+02 -0.33888079818E+02 -0.27354592926E+02  0.55769257078E+02  0.00000000000E+00 0.  1.
         11    1    1    2    0    0 -0.23262075560E+02  0.30106829037E+02 -0.14652644219E+03  0.15138541401E+03  0.00000000000E+00 0. -1.
</event>
<event>
 7    1  0.2666594E-009  0.2456801E+03  0.7561462E-02  0.1116066E+00
          2   -1    0    0  501    0  0.00000000000E+00  0.00000000000E+00  0.11356049227E+04  0.11356049227E+04  0.00000000000E+00 0. -1.
         -2   -1    0    0    0  501 -0.00000000000E+00 -0.00000000000E+00 -0.56410701391E+02  0.56410701391E+02  0.00000000000E+00 0.  1.
         25    2    1    2    0    0 -0.22050687573E+03 -0.24177334593E+02  0.68180117692E+03  0.72781061978E+03  0.12509047792E+03 0.  0.
          5    1    3    3  502    0 -0.11927545430E+03 -0.74504058762E+02  0.40711220139E+03  0.43073809407E+03  0.41800000000E+01 0.  1.
         -5    1    3    3    0  502 -0.10123142143E+03  0.50326724169E+02  0.27468897554E+03  0.29707252571E+03  0.41800000000E+01 0.  1.
        -11    1    1    2    0    0  0.82542661135E+02  0.50947538717E+02  0.13086288020E+03  0.16289271323E+03  0.00000000000E+00 0. -1.
         11    1    1    2    0    0  0.13796421459E+03 -0.26770204124E+02  0.26653016422E+03  0.30131229112E+03  0.00000000000E+00 0.  1.
</event>
<event>
 7    1  0.2666594E-009  0.1259386E+03  0.7561462E-02  0.1233610E+00
          2   -1    0    0  501    0  0.00000000000E+00  0.00000000000E+00  0.37794289371E+02  0.37794289371E+02  0.00000000000E+00 0. -1.
         -2   -1    0    0    0  501 -0.00000000000E+00 -0.00000000000E+00 -0.53276576862E+03  0.53276576862E+03  0.00000000000E+00 0.  1.
         25    2    1    2    0    0 -0.29518862600E+02  0.63195500195E+02 -0.39108334992E+03  0.41648353330E+03  0.12508921789E+03 0.  0.
          5    1    3    3  502    0 -0.62234504074E+02  0.79854661012E+02 -0.23195456164E+03  0.25312110036E+03  0.41800000000E+01 0. -1.
         -5    1    3    3    0  502  0.32715641474E+02 -0.16659160818E+02 -0.15912878827E+03  0.16336243293E+03  0.41800000000E+01 0. -1.
        -11    1    1    2    0    0  0.51573055043E+02 -0.73068382384E+02 -0.78095686408E+02  0.11873375572E+03  0.00000000000E+00 0.  1.
         11    1    1    2    0    0 -0.22054192443E+02  0.98728821897E+01 -0.25792442926E+02  0.35342768980E+02  0.00000000000E+00 0. -1.
</event>
<event>
 7    1  0.2666594E-009  0.1606052E+03  0.7561462E-02  0.1188015E+00
         -1   -1    0    0    0  501 -0.00000000000E+00  0.00000000000E+00  0.16622635777E+03  0.16622635777E+03  0.00000000000E+00 0.  1.
          1   -1    0    0  501    0  0.00000000000E+00 -0.00000000000E+00 -0.22024760588E+03  0.22024760588E+03  0.00000000000E+00 0. -1.
         25    2    1    2    0    0 -0.13037456730E+03  0.41537478819E+02 -0.10127191401E+03  0.21125146093E+03  0.12509312225E+03 0.  0.
          5    1    3    3  502    0 -0.19454715499E+02 -0.28668289296E+02 -0.66956636823E+02  0.75505101688E+02  0.41800000000E+01 0. -1.
         -5    1    3    3    0  502 -0.11091985180E+03  0.70205768115E+02 -0.34315277183E+02  0.13574635924E+03  0.41800000000E+01 0. -1.
        -11    1    1    2    0    0  0.68649308112E+02  0.16112908666E+02 -0.12698216139E+02  0.71649131349E+02  0.00000000000E+00 0. -1.
         11    1    1    2    0    0  0.61725259186E+02 -0.57650387485E+02  0.59948882043E+02  0.10357337137E+03  0.00000000000E+00 0.  1.
</event>
<event>
 7    1  0.3738054E-009  0.1109694E+03  0.7561462E-02  0.1258785E+00
         -2   -1    0    0    0  501 -0.00000000000E+00  0.00000000000E+00  0.38175968309E+02  0.38175968309E+02  0.00000000000E+00 0.  1.
          2   -1    0    0  501    0  0.00000000000E+00 -0.00000000000E+00 -0.47910586856E+03  0.47910586856E+03  0.00000000000E+00 0. -1.
         25    2    1    2    0    0  0.34451706218E+02 -0.71939967959E+02 -0.25936766788E+03  0.29879919209E+03  0.12508833280E+03 0.  0.
          5    1    3    3  502    0  0.73886507408E+02 -0.25518944299E+02 -0.19478392448E+03  0.20992542041E+03  0.41800000000E+01 0. -1.
         -5    1    3    3    0  502 -0.39434801190E+02 -0.46421023661E+02 -0.64583743398E+02  0.88873771687E+02  0.41800000000E+01 0. -1.
        -11    1    1    2    0    0 -0.50727146102E+01  0.35195698736E+02 -0.51806765932E+01  0.35934788896E+02  0.00000000000E+00 0.  1.
         11    1    1    2    0    0 -0.29378991608E+02  0.36744269224E+02 -0.17638155577E+03  0.18254785588E+03  0.00000000000E+00 0. -1.
</event>
<event>
 7    1  0.2666594E-009  0.2156929E+03  0.7561462E-02  0.1137135E+00
         -1   -1    0    0    0  501 -0.00000000000E+00  0.00000000000E+00  0.31552303138E+02  0.31552303138E+02  0.00000000000E+00 0.  1.
          1   -1    0    0  501    0  0.00000000000E+00 -0.00000000000E+00 -0.18147251995E+04  0.18147251995E+04  0.00000000000E+00 0. -1.
         25    2    1    2    0    0 -0.14640225762E+03 -0.13265869021E+03 -0.12207928012E+04  0.12429859585E+04  0.12508829014E+03 0.  0.
          5    1    3    3  502    0 -0.48771305398E+02  0.19571187530E+02 -0.25346225840E+03  0.25888657834E+03  0.41800000000E+01 0.  1.
         -5    1    3    3    0  502 -0.97630952221E+02 -0.15222987774E+03 -0.96733054283E+03  0.98409938015E+03  0.41800000000E+01 0.  1.
        -11    1    1    2    0    0  0.10927624815E+03  0.93574867354E+02 -0.26954057830E+03  0.30553179468E+03  0.00000000000E+00 0.  1.
         11    1    1    2    0    0  0.37126009469E+02  0.39083822860E+02 -0.29283951688E+03  0.29775974952E+03  0.00000000000E+00 0. -1.
</event>
<event>
 7    1  0.2666594E-009  0.1244559E+03  0.7561462E-02  0.1235922E+00
          2   -1    0    0  501    0  0.00000000000E+00  0.00000000000E+00  0.52439382285E+03  0.52439382285E+03  0.00000000000E+00 0.  1.
         -2   -1    0    0    0  501 -0.00000000000E+00 -0.00000000000E+00 -0.38821330803E+02  0.38821330803E+02  0.00000000000E+00 0. -1.
         25    2    1    2    0    0 -0.42113231873E+02  0.52684164901E+02  0.13595450669E+03  0.19667318950E+03  0.12509024762E+03 0.  0.
          5    1    3    3  502    0  0.40934377734E+02  0.35431844933E+02  0.34355848765E+02  0.64256016530E+02  0.41800000000E+01 0.  1.
         -5    1    3    3    0  502 -0.83047609607E+02  0.17252319967E+02  0.10159865792E+03  0.13241717297E+03  0.41800000000E+01 0.  1.
        -11    1    1    2    0    0 -0.61943942602E+01  0.20824853640E+02  0.82556972353E+02  0.85368019383E+02  0.00000000000E+00 0. -1.
         11    1    1    2    0    0  0.48307626133E+02 -0.73509018541E+02  0.26706101300E+03  0.28117394477E+03  0.00000000000E+00 0.  1.
</event>
<event>
 7    1  0.2666594E-009  0.1987707E+03  0.7561462E-02  0.1150780E+00
         -1   -1    0    0    0  501 -0.00000000000E+00  0.00000000000E+00  0.39277209850E+03  0.39277209850E+03  0.00000000000E+00 0.  1.
          1   -1    0    0  501    0  0.00000000000E+00 -0.00000000000E+00 -0.11555740859E+03  0.11555740859E+03  0.00000000000E+00 0. -1.
         25    2    1    2    0    0 -0.92263560817E+02 -0.15498523642E+03  0.13710802860E+03  0.25880381878E+03  0.12509123449E+03 0.  0.
          5    1    3    3  502    0 -0.24099756354E+02 -0.12190696484E+03  0.13408625992E+03  0.18286252714E+03  0.41800000000E+01 0.  1.
         -5    1    3    3    0  502 -0.68163804463E+02 -0.33078271576E+02  0.30217686769E+01  0.75941291636E+02  0.41800000000E+01 0.  1.
        -11    1    1    2    0    0  0.59474760697E+02  0.15336660441E+03  0.84444890411E+02  0.18490403464E+03  0.00000000000E+00 0.  1.
         11    1    1    2    0    0  0.32788800120E+02  0.16186320073E+01  0.55661770908E+02  0.64621653673E+02  0.00000000000E+00 0. -1.
</event>
<event>
 7    1  0.2666594E-009  0.1047561E+03  0.7561462E-02  0.1270601E+00
          1   -1    0    0  501    0  0.00000000000E+00  0.00000000000E+00  0.44037878828E+03  0.44037878828E+03  0.00000000000E+00 0. -1.
         -1   -1    0    0    0  501 -0.00000000000E+00 -0.00000000000E+00 -0.12006056593E+03  0.12006056593E+03  0.00000000000E+00 0.  1.
         25    2    1    2    0    0  0.34532183250E+02 -0.19616691823E+01  0.40461075427E+03  0.42491784179E+03  0.12509592311E+03 0.  0.
          5    1    3    3  502    0 -0.81454568770E+01  0.56442626568E+02  0.16828620162E+03  0.17773529930E+03  0.41800000000E+01 0. -1.
         -5    1    3    3    0  502  0.42677640127E+02 -0.58404295750E+02  0.23632455265E+03  0.24718254249E+03  0.41800000000E+01 0. -1.
        -11    1    1    2    0    0 -0.47249261273E+02  0.25078072272E+02 -0.93380560472E+02  0.10761659479E+03  0.00000000000E+00 0.  1.
         11    1    1    2    0    0  0.12717078023E+02 -0.23116403089E+02  0.90880285576E+01  0.27904917637E+02  0.00000000000E+00 0. -1.
</event>
<event>
 7    1  0.2666594E-009  0.1360441E+03  0.7561462E-02  0.1218753E+00
         -3   -1    0    0    0  501 -0.00000000000E+00  0.00000000000E+00  0.11638635715E+03  0.11638635715E+03  0.00000000000E+00 0.  1.
          3   -1    0    0  501    0  0.00000000000E+00 -0.00000000000E+00 -0.36948502818E+03  0.36948502818E+03  0.00000000000E+00 0. -1.
         25    2    1    2    0    0  0.10039967492E+03 -0.71361216654E+02 -0.27979512223E+03  0.33031150634E+03  0.12509141790E+03 0.  0.
          5    1    3    3  502    0  0.50478901446E+02 -0.80136302744E+02 -0.25820814780E+03  0.27506156856E+03  0.41800000000E+01 0. -1.
         -5    1    3    3    0  502  0.49920773470E+02  0.87750860897E+01 -0.21586974432E+02  0.55249937781E+02  0.41800000000E+01 0. -1.
        -11    1    1    2    0    0 -0.45418988016E+02  0.49718128402E+02 -0.29954565414E+02  0.73702460972E+02  0.00000000000E+00 0. -1.
         11    1    1    2    0    0 -0.54980686900E+02  0.21643088252E+02  0.56651016613E+02  0.81857418016E+02  0.00000000000E+00 0.  1.
</event>
<event>
 7    1  0.2666594E-009  0.9341228E+02  0.7561462E-02  0.1294793E+00
          2   -1    0    0  501    0  0.00000000000E+00  0.00000000000E+00  0.11426945388E+04  0.11426945388E+04  0.00000000000E+00 0. -1.
         -2   -1    0    0    0  501 -0.00000000000E+00 -0.00000000000E+00 -0.21685894380E+02  0.21685894380E+02  0.00000000000E+00 0.  1.
         25    2    1    2    0    0 -0.31558152895E+02 -0.45695676481E+02  0.10503769056E+04  0.10592560094E+04  0.12509051847E+03 0.  0.
          5    1    3    3  502    0 -0.49099187841E+02  0.12654078036E+02  0.79702240998E+03  0.79864450812E+03  0.41800000000E+01 0. -1.
         -5    1    3    3    0  502  0.17541034946E+02 -0.58349754517E+02  0.25335449559E+03  0.26061150127E+03  0.41800000000E+01 0. -1.
        -11    1    1    2    0    0 -0.87254651317E+01  0.30661393175E+02  0.44731131398E+02  0.54928397840E+02  0.00000000000E+00 0.  1.
         11    1    1    2    0    0  0.40283618027E+02  0.15034283306E+02  0.25900607474E+02  0.50196025972E+02  0.00000000000E+00 0. -1.
</event>
<event>
 7    1  0.2666594E-009  0.1264297E+03  0.7561462E-02  0.1232852E+00
         -1   -1    0    0    0  501 -0.00000000000E+00  0.00000000000E+00  0.85468670122E+02  0.85468670122E+02  0.00000000000E+00 0.  1.
          1   -1    0    0  501    0  0.00000000000E+00 -0.00000000000E+00 -0.29039582910E+03  0.29039582910E+03  0.00000000000E+00 0. -1.
         25    2    1    2    0    0 -0.10927653604E+03  0.16316343761E+02 -0.14441212836E+03  0.22069912428E+03  0.12508259766E+03 0.  0.
          5    1    3    3  502    0 -0.71434272177E+02  0.36961851552E+02 -0.12054776315E+02  0.81436010116E+02  0.41800000000E+01 0. -1.
         -5    1    3    3    0  502 -0.37842263868E+02 -0.20645507791E+02 -0.13235735204E+03  0.13926311416E+03  0.41800000000E+01 0. -1.
        -11    1    1    2    0    0 -0.89335198857E+01 -0.50571690364E+01  0.12185011912E+02  0.15932898403E+02  0.00000000000E+00 0.  1.
         11    1    1    2    0    0  0.11821005593E+03 -0.11259174725E+02 -0.72700042529E+02  0.13923247654E+03  0.00000000000E+00 0. -1.
</event>
<event>
 7    1  0.2666594E-009  0.1174708E+03  0.7561462E-02  0.1247329E+00
          1   -1    0    0  501    0  0.00000000000E+00  0.00000000000E+00  0.15219039385E+03  0.15219039385E+03  0.00000000000E+00 0. -1.
         -1   -1    0    0    0  501 -0.00000000000E+00 -0.00000000000E+00 -0.13841104705E+03  0.13841104705E+03  0.00000000000E+00 0.  1.
         25    2    1    2    0    0  0.63076676840E+01 -0.82273348339E+02 -0.42003965211E+02  0.15563652034E+03  0.12509877238E+03 0.  0.
          5    1    3    3  502    0 -0.21381185077E-01 -0.10970245848E+03 -0.56752060607E+02  0.12358356945E+03  0.41800000000E+01 0. -1.
         -5    1    3    3    0  502  0.63290488690E+01  0.27429110145E+02  0.14748095396E+02  0.32052950890E+02  0.41800000000E+01 0. -1.
        -11    1    1    2    0    0 -0.26509715896E+02  0.64717879264E+02  0.74593859581E+02  0.10225171304E+03  0.00000000000E+00 0. -1.
         11    1    1    2    0    0  0.20202048212E+02  0.17555469075E+02 -0.18810547574E+02  0.32713207523E+02  0.00000000000E+00 0.  1.
</event>
<event>
 7    1  0.2666594E-009  0.9176941E+02  0.7561462E-02  0.1298623E+00
         -2   -1    0    0    0  501 -0.00000000000E+00  0.00000000000E+00  0.12825331043E+03  0.12825331043E+03  0.00000000000E+00 0.  1.
          2   -1    0    0  501    0  0.00000000000E+00 -0.00000000000E+00 -0.93872435870E+02  0.93872435870E+02  0.00000000000E+00 0. -1.
         25    2    1    2    0    0  0.17151653950E+02  0.13814972460E+01  0.36128728095E+02  0.13132394169E+03  0.12507839501E+03 0.  0.
          5    1    3    3  502    0 -0.31120010639E+02  0.39587837139E+02  0.46601985243E+02  0.68737685007E+02  0.41800000000E+01 0.  1.
         -5    1    3    3    0  502  0.48271664588E+02 -0.38206339893E+02 -0.10473257148E+02  0.62586256682E+02  0.41800000000E+01 0.  1.
        -11    1    1    2    0    0 -0.40974523600E+02 -0.15274145552E+02 -0.28647819127E+02  0.52277228765E+02  0.00000000000E+00 0. -1.
         11    1    1    2    0    0  0.23822869650E+02  0.13892648306E+02  0.26899965595E+02  0.38524575848E+02  0.00000000000E+00 0.  1.
</event>
<event>
 7    1  0.2666594E-009  0.1195668E+03  0.7561462E-02  0.1243813E+00
          4   -1    0    0  501    0  0.00000000000E+00  0.00000000000E+00  0.14089263356E+02  0.14089263356E+02  0.00000000000E+00 0. -1.
         -4   -1    0    0    0  501 -0.00000000000E+00 -0.00000000000E+00 -0.12793645157E+04  0.12793645157E+04  0.00000000000E+00 0.  1.
         25    2    1    2    0    0 -0.66485432289E+01 -0.66358932343E+02 -0.90285747801E+03  0.91391836198E+03  0.12508971076E+03 0.  0.
          5    1    3    3  502    0  0.83078855749E+01 -0.10210805082E+03 -0.62920617019E+03  0.63750525645E+03  0.41800000000E+01 0. -1.
         -5    1    3    3    0  502 -0.14956428804E+02  0.35749118472E+02 -0.27365130782E+03  0.27641310553E+03  0.41800000000E+01 0. -1.
        -11    1    1    2    0    0  0.38469435985E+02  0.26929916684E+02 -0.81292899887E+02  0.93881060335E+02  0.00000000000E+00 0. -1.
         11    1    1    2    0    0 -0.31820892756E+02  0.39429015659E+02 -0.28112487447E+03  0.28565435677E+03  0.00000000000E+00 0.  1.
</event>
<event>
 7    1  0.2666594E-009  0.8307384E+02  0.7561462E-02  0.1320548E+00
          2   -1    0    0  501    0  0.00000000000E+00  0.00000000000E+00  0.10777332751E+04  0.10777332751E+04  0.00000000000E+00 0.  1.
         -2   -1    0    0    0  501 -0.00000000000E+00 -0.00000000000E+00 -0.11138091245E+02  0.11138091245E+02  0.00000000000E+00 0. -1.
         25    2    1    2    0    0 -0.14872700314E+02 -0.58470998713E+01  0.63000706229E+03  0.64250463395E+03  0.12509164767E+03 0.  0.
          5    1    3    3  502    0 -0.41495392234E+02 -0.17634898883E+02  0.59525841602E+03  0.59697814992E+03  0.41800000000E+01 0. -1.
         -5    1    3    3    0  502  0.26622691920E+02  0.11787799012E+02  0.34748646269E+02  0.45526484030E+02  0.41800000000E+01 0. -1.
        -11    1    1    2    0    0  0.28775306449E+02  0.43024984694E+02  0.28536234520E+03  0.29001868151E+03  0.00000000000E+00 0.  1.
         11    1    1    2    0    0 -0.13902606135E+02 -0.37177884823E+02  0.15122577634E+03  0.15634805086E+03  0.00000000000E+00 0. -1.
</event>
<event>
 7    1  0.2666594E-009  0.1357711E+03  0.7561462E-02  0.1219135E+00
          1   -1    0    0  501    0  0.00000000000E+00  0.00000000000E+00  0.32211674676E+03  0.32211674676E+03  0.00000000000E+00 0. -1.
         -1   -1    0    0    0  501 -0.00000000000E+00 -0.00000000000E+00 -0.89403102663E+02  0.89403102663E+02  0.00000000000E+00 0.  1.
         25    2    1    2    0    0 -0.83553806433E+02 -0.29673240338E+02  0.73205603409E+01  0.15350288405E+03  0.12509118692E+03 0.  0.
          5    1    3    3  502    0 -0.12224445175E+02 -0.68293482884E+02  0.17424798378E+02  0.71655654785E+02  0.41800000000E+01 0.  1.
         -5    1    3    3    0  502 -0.71329361258E+02  0.38620242546E+02 -0.10104238037E+02  0.81847229263E+02  0.41800000000E+01 0.  1.
        -11    1    1    2    0    0  0.98524924934E+02  0.35536704818E+02  0.21417029133E+03  0.23840916910E+03  0.00000000000E+00 0.  1.
         11    1    1    2    0    0 -0.14971118501E+02 -0.58634644800E+01  0.11222792424E+02  0.19607796273E+02  0.00000000000E+00 0. -1.
</event>
<event>
 7    1  0.2666594E-009  0.1505455E+03  0.7561462E-02  0.1199804E+00
         -1   -1    0    0    0  501 -0.00000000000E+00  0.00000000000E+00  0.12630767690E+03  0.12630767690E+03  0.00000000000E+00 0.  1.
          1   -1    0    0  501    0  0.00000000000E+00 -0.00000000000E+00 -0.23842965728E+03  0.23842965728E+03  0.00000000000E+00 0. -1.
         25    2    1    2    0    0  0.12558480483E+03 -0.43524072117E+02 -0.84146289607E+02  0.20098344137E+03  0.12509139696E+03 0.  0.
          5    1    3    3  502    0  0.16934184258E+02 -0.40223039461E+02  0.21950342440E+02  0.49030087020E+02  0.41800000000E+01 0. -1.
         -5    1    3    3    0  502  0.10865062057E+03 -0.33010326561E+01 -0.10609663205E+03  0.15195335435E+03  0.41800000000E+01 0. -1.
        -11    1    1    2    0    0 -0.61384232412E+02 -0.13211978697E+02 -0.43892309952E+02  0.76610151043E+02  0.00000000000E+00 0. -1.
         11    1    1    2    0    0 -0.64200572419E+02  0.56736050814E+02  0.15916619180E+02  0.87143741755E+02  0.00000000000E+00 0.  1.
</event>
<event>
 7    1  0.2666594E-009  0.8393054E+02  0.7561462E-02  0.1318253E+00
         -2   -1    0    0    0  501 -0.00000000000E+00  0.00000000000E+00  0.10381853976E+03  0.10381853976E+03  0.00000000000E+00 0.  1.
          2   -1    0    0  501    0  0.00000000000E+00 -0.00000000000E+00 -0.18110140031E+03  0.18110140031E+03  0.00000000000E+00 0. -1.
         25    2    1    2    0    0 -0.37039860754E+02  0.67074121737E+02 -0.77061822697E+02  0.16570202078E+03  0.12509095124E+03 0.  0.
          5    1    3    3  502    0 -0.36937993746E+02  0.55422383141E+02  0.18571593528E+02  0.69270718353E+02  0.41800000000E+01 0. -1.
         -5    1    3    3    0  502 -0.10186700771E+00  0.11651738596E+02 -0.95633416225E+02  0.96431302428E+02  0.41800000000E+01 0. -1.
        -11    1    1    2    0    0 -0.61352397788E+01 -0.33491943411E+02 -0.39296864482E+02  0.51996105611E+02  0.00000000000E+00 0. -1.
         11    1    1    2    0    0  0.43175100532E+02 -0.33582178325E+02  0.39075826628E+02  0.67221813675E+02  0.00000000000E+00 0.  1.
</event>
<event>
 7    1  0.2666594E-009  0.8254085E+02  0.7561462E-02  0.1321992E+00
          1   -1    0    0  501    0  0.00000000000E+00  0.00000000000E+00  0.50910297714E+02  0.50910297714E+02  0.00000000000E+00 0. -1.
         -1   -1    0    0    0  501 -0.00000000000E+00 -0.00000000000E+00 -0.18684294856E+03  0.18684294856E+03  0.00000000000E+00 0.  1.
         25    2    1    2    0    0 -0.15186435935E+02  0.21473964555E+02 -0.79318578706E+02  0.15043410150E+03  0.12508886032E+03 0.  0.
          5    1    3    3  502    0  0.40580588055E+02  0.50416243185E+02 -0.40538265070E+02  0.76481403221E+02  0.41800000000E+01 0.  1.
         -5    1    3    3    0  502 -0.55767023990E+02 -0.28942278630E+02 -0.38780313636E+02  0.73952698278E+02  0.41800000000E+01 0.  1.
        -11    1    1    2    0    0 -0.62317394268E+01 -0.12635146708E+02 -0.61958846513E+02  0.63540382197E+02  0.00000000000E+00 0.  1.
         11    1    1    2    0    0  0.21418175362E+02 -0.88388178473E+01  0.53447743702E+01  0.23778762580E+02  0.00000000000E+00 0. -1.
</event>
<event>
 7    1  0.2666594E-009  0.3091108E+03  0.7561462E-02  0.1080773E+00
          2   -1    0    0  501    0  0.00000000000E+00  0.00000000000E+00  0.51661252839E+03  0.51661252839E+03  0.00000000000E+00 0.  1.
         -2   -1    0    0    0  501 -0.00000000000E+00 -0.00000000000E+00 -0.22570722207E+03  0.22570722207E+03  0.00000000000E+00 0. -1.
         25    2    1    2    0    0  0.30392784587E+03  0.36653338173E+02  0.26188178924E+03  0.42183727548E+03  0.12509601415E+03 0.  0.
          5    1    3    3  502    0  0.20319520182E+03  0.44026359495E+02  0.24153519230E+03  0.31872140169E+03  0.41800000000E+01 0.  1.
         -5    1    3    3    0  502  0.10073264405E+03 -0.73730213217E+01  0.20346596935E+02  0.10311587379E+03  0.41800000000E+01 0.  1.
        -11    1    1    2    0    0 -0.10476767471E+03  0.80121043630E+01  0.47954187886E+02  0.11549919314E+03  0.00000000000E+00 0.  1.
         11    1    1    2    0    0 -0.19916017116E+03 -0.44665442536E+02 -0.18930670807E+02  0.20498328184E+03  0.00000000000E+00 0. -1.
</event>
<event>
 7    1  0.2666594E-009  0.1147896E+03  0.7561462E-02  0.1251949E+00
         -1   -1    0    0    0  501 -0.00000000000E+00  0.00000000000E+00  0.10044184176E+03  0.10044184176E+03  0.00000000000E+00 0.  1.
          1   -1    0    0  501    0  0.00000000000E+00 -0.00000000000E+00 -0.20872121495E+03  0.20872121495E+03  0.00000000000E+00 0. -1.
         25    2    1    2    0    0  0.71750946908E+02  0.26729909024E+02  0.21098114497E+01  0.14667460567E+03  0.12508517988E+03 0.  0.
          5    1    3    3  502    0 -0.17906705758E+02 -0.92237554302E+01  0.38267587680E+02  0.43446616004E+02  0.41800000000E+01 0.  1.
         -5    1    3    3    0  502  0.89657652665E+02  0.35953664454E+02 -0.36157776230E+02  0.10322798967E+03  0.41800000000E+01 0.  1.
        -11    1    1    2    0    0 -0.79418279965E+02  0.50968377360E+01 -0.50548677526E+02  0.94278363091E+02  0.00000000000E+00 0. -1.
         11    1    1    2    0    0  0.76673330570E+01 -0.31826746760E+02 -0.59840507120E+02  0.68210087949E+02  0.00000000000E+00 0.  1.
</event>
<event>
 7    1  0.2666594E-009  0.1039577E+03  0.7561462E-02  0.1272187E+00
          1   -1    0    0  501    0  0.00000000000E+00  0.00000000000E+00  0.90303151247E+03  0.90303151247E+03  0.00000000000E+00 0. -1.
         -1   -1    0    0    0  501 -0.00000000000E+00 -0.00000000000E+00 -0.14314645334E+02  0.14314645334E+02  0.00000000000E+00 0.  1.
         25    2    1    2    0    0  0.18208290563E+02  0.15614304113E+02  0.59812030978E+03  0.61153172490E+03  0.12509115572E+03 0.  0.
          5    1    3    3  502    0 -0.32061931988E+02  0.45674915349E+02  0.16022048502E+03  0.16971223172E+03  0.41800000000E+01 0. -1.
         -5    1    3    3    0  502  0.50270222551E+02 -0.30060611236E+02  0.43789982476E+03  0.44181949317E+03  0.41800000000E+01 0. -1.
        -11    1    1    2    0    0 -0.20258984484E+02 -0.52508776454E+02  0.20493660078E+03  0.21252437130E+03  0.00000000000E+00 0.  1.
         11    1    1    2    0    0  0.20506939208E+01  0.36894472341E+02  0.85659956574E+02  0.93290061610E+02  0.00000000000E+00 0. -1.
</event>
<event>
 7    1  0.2666594E-009  0.5771823E+02  0.7561462E-02  0.1407665E+00
         -2   -1    0    0    0  501 -0.00000000000E+00  0.00000000000E+00  0.49406057112E+02  0.49406057112E+02  0.00000000000E+00 0. -1.
          2   -1    0    0  501    0  0.00000000000E+00 -0.00000000000E+00 -0.24924546124E+03  0.24924546124E+03  0.00000000000E+00 0.  1.
         25    2    1    2    0    0 -0.77701847963E+01 -0.25032830162E+02 -0.12088252236E+03  0.17591773021E+03  0.12508974872E+03 0.  0.
          5    1    3    3  502    0  0.52880742183E+01 -0.32620842969E+02 -0.14410377999E+03  0.14790353252E+03  0.41800000000E+01 0. -1.
         -5    1    3    3    0  502 -0.13058259015E+02  0.75880128079E+01  0.23221257625E+02  0.28014197696E+02  0.41800000000E+01 0. -1.
        -11    1    1    2    0    0  0.26803811082E+02 -0.83103445584E+01 -0.79530419559E+02  0.84336194782E+02  0.00000000000E+00 0.  1.
         11    1    1    2    0    0 -0.19033626286E+02  0.33343174720E+02  0.57353778934E+00  0.38397593357E+02  0.00000000000E+00 0. -1.
</event>
<event>
 7    1  0.2666594E-009  0.1020468E+03  0.7561462E-02  0.1276050E+00
         -1   -1    0    0    0  501 -0.00000000000E+00  0.00000000000E+00  0.31111367722E+02  0.31111367722E+02  0.00000000000E+00 0.  1.
          1   -1    0    0  501    0  0.00000000000E+00 -0.00000000000E+00 -0.46321349163E+03  0.46321349163E+03  0.00000000000E+00 0. -1.
         25    2    1    2    0    0 -0.10396484829E+02  0.20337001959E+02 -0.33217264610E+03  0.35567660986E+03  0.12508198686E+03 0.  0.
          5    1    3    3  502    0 -0.29823959942E+01 -0.46738539545E+02 -0.21776242928E+03  0.22278090980E+03  0.41800000000E+01 0. -1.
         -5    1    3    3    0  502 -0.74140888346E+01  0.67075541504E+02 -0.11441021682E+03  0.13289570006E+03  0.41800000000E+01 0. -1.
        -11    1    1    2    0    0  0.40048388889E+01 -0.54529148260E+02 -0.84381733398E+02  0.10054722112E+03  0.00000000000E+00 0.  1.
         11    1    1    2    0    0  0.63916459399E+01  0.34192146301E+02 -0.15547744405E+02  0.38101028366E+02  0.00000000000E+00 0. -1.
</event>
<event>
 7    1  0.2666594E-009  0.1299525E+03  0.7561462E-02  0.1227526E+00
          2   -1    0    0  501    0  0.00000000000E+00  0.00000000000E+00  0.76343769947E+03  0.76343769947E+03  0.00000000000E+00 0. -1.
         -2   -1    0    0    0  501 -0.00000000000E+00 -0.00000000000E+00 -0.30082703780E+02  0.30082703780E+02  0.00000000000E+00 0.  1.
         25    2    1    2    0    0  0.45223627408E+02 -0.61484135822E+02  0.58454366672E+03  0.60263157249E+03  0.12509211977E+03 0.  0.
          5    1    3    3  502    0  0.79140446727E+02 -0.39894120900E+01  0.29777825050E+03  0.30816957116E+03  0.41800000000E+01 0. -1.
         -5    1    3    3    0  502 -0.33916819319E+02 -0.57494723732E+02  0.28676541621E+03  0.29446200133E+03  0.41800000000E+01 0. -1.
        -11    1    1    2    0    0 -0.43321963444E+02  0.82173242909E+02  0.93485753876E+02  0.13179082117E+03  0.00000000000E+00 0.  1.
         11    1    1    2    0    0 -0.19016639639E+01 -0.20689107087E+02  0.55325575101E+02  0.59098009596E+02  0.00000000000E+00 0. -1.
</event>
<event>
 7    1  0.2666594E-009  0.1538779E+03  0.7561462E-02  0.1195787E+00
         -2   -1    0    0    0  501 -0.00000000000E+00  0.00000000000E+00  0.40047137899E+02  0.40047137899E+02  0.00000000000E+00 0.  1.
          2   -1    0    0  501    0  0.00000000000E+00 -0.00000000000E+00 -0.81340262996E+03  0.81340262996E+03  0.00000000000E+00 0. -1.
         25    2    1    2    0    0 -0.13319153526E+03 -0.43383348395E+02 -0.32825445527E+03  0.37817904303E+03  0.12508517580E+03 0.  0.
          5    1    3    3  502    0 -0.13173606032E+03 -0.49149974503E+02 -0.33795224208E+03  0.36605914811E+03  0.41800000000E+01 0.  1.
         -5    1    3    3    0  502 -0.14554749404E+01  0.57666261075E+01  0.96977868169E+01  0.12119894930E+02  0.41800000000E+01 0.  1.
        -11    1    1    2    0    0  0.38960709661E+02  0.52243641560E+02 -0.11858055062E+03  0.13530957825E+03  0.00000000000E+00 0.  1.
         11    1    1    2    0    0  0.94230825600E+02 -0.88602931650E+01 -0.32652048618E+03  0.33996114658E+03  0.00000000000E+00 0. -1.
</event>
<event>
 7    1  0.2666594E-009  0.3528646E+03  0.7561462E-02  0.1061445E+00
         -1   -1    0    0    0  501 -0.00000000000E+00  0.00000000000E+00  0.18844962583E+03  0.18844962583E+03  0.00000000000E+00 0.  1.
          1   -1    0    0  501    0  0.00000000000E+00 -0.00000000000E+00 -0.71614762096E+03  0.71614762096E+03  0.00000000000E+00 0. -1.
         25    2    1    2    0    0  0.14446203201E+03 -0.31757857795E+03 -0.29713446356E+03  0.47503951665E+03  0.12509284983E+03 0.  0.
          5    1    3    3  502    0  0.53756254037E+02 -0.20587154712E+03 -0.11189243723E+03  0.24043755670E+03  0.41800000000E+01 0.  1.
         -5    1    3    3    0  502  0.90705777969E+02 -0.11170703083E+03 -0.18524202633E+03  0.23460195995E+03  0.41800000000E+01 0.  1.
        -11    1    1    2    0    0 -0.93066980314E+01  0.24789206464E+02 -0.58120043879E+02  0.63867510410E+02  0.00000000000E+00 0. -1.
         11    1    1    2    0    0 -0.13515533397E+03  0.29278937149E+03 -0.17244348768E+03  0.36569021973E+03  0.00000000000E+00 0.  1.
</event>
<event>
 7    1  0.2666594E-009  0.9616402E+02  0.7561462E-02  0.1288576E+00
         -1   -1    0    0    0  501 -0.00000000000E+00  0.00000000000E+00  0.79650876861E+02  0.79650876861E+02  0.00000000000E+00 0.  1.
          1   -1    0    0  501    0  0.00000000000E+00 -0.00000000000E+00 -0.17026773681E+03  0.17026773681E+03  0.00000000000E+00 0. -1.
         25    2    1    2    0    0 -0.64525886997E+01  0.89627832401E+01 -0.96323278493E+02  0.15826668710E+03  0.12509277709E+03 0.  0.
          5    1    3    3  502    0 -0.45701126024E+02 -0.38294664685E+02 -0.27116358754E+02  0.65634164696E+02  0.41800000000E+01 0.  1.
         -5    1    3    3    0  502  0.39248537324E+02  0.47257447925E+02 -0.69206919738E+02  0.92632522400E+02  0.41800000000E+01 0.  1.
        -11    1    1    2    0    0 -0.31961029382E+02 -0.28519903836E+01  0.31511715772E+02  0.44973653167E+02  0.00000000000E+00 0.  1.
         11    1    1    2    0    0  0.38413618081E+02 -0.61107928565E+01 -0.25805297232E+02  0.46678273411E+02  0.00000000000E+00 0. -1.
</event>
<event>
 7    1  0.2666594E-009  0.7462489E+02  0.7561462E-02  0.1345037E+00
         -2   -1    0    0    0  501 -0.00000000000E+00  0.00000000000E+00  0.18850363747E+03  0.18850363747E+03  0.00000000000E+00 0.  1.
          2   -1    0    0  501    0  0.00000000000E+00 -0.00000000000E+00 -0.92737325901E+02  0.92737325901E+02  0.00000000000E+00 0. -1.
         25    2    1    2    0    0  0.17301275298E+02  0.24851031321E+01  0.13149815029E+03  0.18233256294E+03  0.12509152694E+03 0.  0.
          5    1    3    3  502    0 -0.12626675941E+02  0.29240839323E+02  0.13778901017E+03  0.14148407456E+03  0.41800000000E+01 0.  1.
         -5    1    3    3    0  502  0.29927951239E+02 -0.26755736191E+02 -0.62908598826E+01  0.40848488375E+02  0.41800000000E+01 0.  1.
        -11    1    1    2    0    0  0.25122330467E+02  0.16739721887E+02 -0.42198692747E+02  0.51885252688E+02  0.00000000000E+00 0. -1.
         11    1    1    2    0    0 -0.42423605765E+02 -0.19224825019E+02  0.64668540263E+01  0.47023147748E+02  0.00000000000E+00 0.  1.
</event>
<event>
 7    1  0.2666594E-009  0.1257592E+03  0.7561462E-02  0.1233887E+00
         -1   -1    0    0    0  501 -0.00000000000E+00  0.00000000000E+00  0.14601443114E+04  0.14601443114E+04  0.00000000000E+00 0.  1.
          1   -1    0    0  501    0  0.00000000000E+00 -0.00000000000E+00 -0.22472827160E+02  0.22472827160E+02  0.00000000000E+00 0. -1.
         25    2    1    2    0    0  0.98389904844E+02  0.10323261689E+02  0.11881225380E+04  0.11987787075E+04  0.12509229006E+03 0.  0.
          5    1    3    3  502    0  0.35783987198E+02 -0.52581627324E+02  0.33240590934E+03  0.33846193617E+03  0.41800000000E+01 0. -1.
         -5    1    3    3    0  502  0.62605917646E+02  0.62904889014E+02  0.85571662867E+03  0.86031677129E+03  0.41800000000E+01 0. -1.
        -11    1    1    2    0    0 -0.65724152614E+02 -0.69996233679E+01  0.53432320549E+02  0.84992186955E+02  0.00000000000E+00 0. -1.
         11    1    1    2    0    0 -0.32665752230E+02 -0.33236383216E+01  0.19611662565E+03  0.19884624411E+03  0.00000000000E+00 0.  1.
</event>
<event>
 7    1  0.2666594E-009  0.1011029E+03  0.7561462E-02  0.1277994E+00
          1   -1    0    0  501    0  0.00000000000E+00  0.00000000000E+00  0.26906417167E+03  0.26906417167E+03  0.00000000000E+00 0. -1.
         -1   -1    0    0    0  501 -0.00000000000E+00 -0.00000000000E+00 -0.50831706814E+02  0.50831706814E+02  0.00000000000E+00 0.  1.
         25    2    1    2    0    0  0.32316352541E+02  0.16531054531E+02  0.16532353337E+03  0.21045904334E+03  0.12507404140E+03 0.  0.
          5    1    3    3  502    0 -0.32174370853E+02  0.42715706101E+02  0.39531903607E+02  0.66633816417E+02  0.41800000000E+01 0. -1.
         -5    1    3    3    0  502  0.64490723394E+02 -0.26184651569E+02  0.12579162976E+03  0.14382522692E+03  0.41800000000E+01 0. -1.
        -11    1    1    2    0    0 -0.35647471767E+01 -0.40955767081E+02 -0.38430773207E+01  0.41289847698E+02  0.00000000000E+00 0. -1.
         11    1    1    2    0    0 -0.28751605364E+02  0.24424712550E+02  0.56752008812E+02  0.68146987449E+02  0.00000000000E+00 0.  1.
</event>
<event>
 7    1  0.2666594E-009  0.1862372E+03  0.7561462E-02  0.1161900E+00
         -2   -1    0    0    0  501 -0.00000000000E+00  0.00000000000E+00  0.87346386109E+02  0.87346386109E+02  0.00000000000E+00 0.  1.
          2   -1    0    0  501    0  0.00000000000E+00 -0.00000000000E+00 -0.82220292189E+03  0.82220292189E+03  0.00000000000E+00 0. -1.
         25    2    1    2    0    0  0.17182546143E+03  0.91427470817E+01 -0.67214816572E+03  0.70500858926E+03  0.12508547172E+03 0.  0.
          5    1    3    3  502    0  0.97551266527E+02  0.41435008986E+02 -0.20440241757E+03  0.23028445514E+03  0.41800000000E+01 0.  1.
         -5    1    3    3    0  502  0.74274194904E+02 -0.32292261904E+02 -0.46774574815E+03  0.47472413412E+03  0.41800000000E+01 0.  1.
        -11    1    1    2    0    0 -0.42469483057E+02  0.27824789168E+02 -0.46830759585E+02  0.69072396271E+02  0.00000000000E+00 0. -1.
         11    1    1    2    0    0 -0.12935597837E+03 -0.36967536250E+02 -0.15877610479E+02  0.13546832247E+03  0.00000000000E+00 0.  1.
</event>
<event>
 7    1  0.2666594E-009  0.3964490E+03  0.7561462E-02  0.1045016E+00
         -2   -1    0    0    0  501 -0.00000000000E+00  0.00000000000E+00  0.18173421241E+03  0.18173421241E+03  0.00000000000E+00 0. -1.
          2   -1    0    0  501    0  0.00000000000E+00 -0.00000000000E+00 -0.97756200584E+03  0.97756200584E+03  0.00000000000E+00 0.  1.
         25    2    1    2    0    0 -0.35093698418E+03 -0.16591948694E+03 -0.57062319901E+03  0.70138803822E+03  0.12509317286E+03 0.  0.
          5    1    3    3  502    0 -0.24815342048E+03 -0.15172255096E+03 -0.33358776860E+03  0.44260380062E+03  0.41800000000E+01 0. -1.
         -5    1    3    3    0  502 -0.10278356370E+03 -0.14196935980E+02 -0.23703543042E+03  0.25878423760E+03  0.41800000000E+01 0. -1.
        -11    1    1    2    0    0  0.49534809402E+02  0.61981680697E+02 -0.35558569456E+02  0.86947328574E+02  0.00000000000E+00 0.  1.
         11    1    1    2    0    0  0.30140217478E+03  0.10393780624E+03 -0.18964602496E+03  0.37096085146E+03  0.00000000000E+00 0. -1.
</event>
<event>
 7    1  0.2666594E-009  0.9390960E+02  0.7561462E-02  0.1293651E+00
         -2   -1    0    0    0  501 -0.00000000000E+00  0.00000000000E+00  0.23693916257E+02  0.23693916257E+02  0.00000000000E+00 0.  1.
          2   -1    0    0  501    0  0.00000000000E+00 -0.00000000000E+00 -0.91284116884E+03  0.91284116884E+03  0.00000000000E+00 0. -1.
         25    2    1    2    0    0 -0.13505966091E+02  0.26440825276E+02 -0.78391254198E+03  0.79438496682E+03  0.12508826354E+03 0.  0.
          5    1    3    3  502    0  0.72767541325E+01 -0.30790085492E+02 -0.60486604141E+02  0.68389196484E+02  0.41800000000E+01 0. -1.
         -5    1    3    3    0  502 -0.20782720224E+02  0.57230910768E+02 -0.72342593784E+03  0.72599577034E+03  0.41800000000E+01 0. -1.
        -11    1    1    2    0    0  0.22717635654E+02  0.30031664186E+02 -0.50256968157E+02  0.62799320632E+02  0.00000000000E+00 0.  1.
         11    1    1    2    0    0 -0.92116695622E+01 -0.56472489462E+02 -0.54977742443E+02  0.79350797641E+02  0.00000000000E+00 0. -1.
</event>
<event>
 7    1  0.2666594E-009  0.9785109E+02  0.7561462E-02  0.1284881E+00
          1   -1    0    0  501    0  0.00000000000E+00  0.00000000000E+00  0.32301048213E+02  0.32301048213E+02  0.00000000000E+00 0. -1.
         -1   -1    0    0    0  501 -0.00000000000E+00 -0.00000000000E+00 -0.39899529516E+03  0.39899529516E+03  0.00000000000E+00 0.  1.
         25    2    1    2    0    0 -0.91647506841E+01  0.31366499055E+02 -0.19259180949E+03  0.23196939638E+03  0.12510134234E+03 0.  0.
          5    1    3    3  502    0 -0.51140899864E+02 -0.19277024826E+02 -0.47197278182E+02  0.72332916385E+02  0.41800000000E+01 0.  1.
         -5    1    3    3    0  502  0.41976149180E+02  0.50643523881E+02 -0.14539453131E+03  0.15963648000E+03  0.41800000000E+01 0.  1.
        -11    1    1    2    0    0 -0.28265212785E+02 -0.38584579230E+01 -0.12437093855E+02  0.31120592136E+02  0.00000000000E+00 0. -1.
         11    1    1    2    0    0  0.37429963469E+02 -0.27508041132E+02 -0.16166534360E+03  0.16820635486E+03  0.00000000000E+00 0.  1.
</event>
<event>
 7    1  0.2666594E-009  0.1337796E+03  0.7561462E-02  0.1221953E+00
         -1   -1    0    0    0  501 -0.00000000000E+00  0.00000000000E+00  0.84588759767E+02  0.84588759767E+02  0.00000000000E+00 0.  1.
          1   -1    0    0  501    0  0.00000000000E+00 -0.00000000000E+00 -0.26056258906E+03  0.26056258906E+03  0.00000000000E+00 0. -1.
         25    2    1    2    0    0 -0.27019214600E+01  0.83627822506E+02 -0.28560714072E+02  0.15317976866E+03  0.12508962411E+03 0.  0.
          5    1    3    3  502    0 -0.34855097103E+02 -0.18799148461E+02 -0.22114651750E+02  0.45550148177E+02  0.41800000000E+01 0.  1.
         -5    1    3    3    0  502  0.32153175643E+02  0.10242697097E+03 -0.64460623218E+01  0.10762962048E+03  0.41800000000E+01 0.  1.
        -11    1    1    2    0    0 -0.17186270276E+02 -0.95569965967E+02 -0.10113378229E+03  0.14020352421E+03  0.00000000000E+00 0. -1.
         11    1    1    2    0    0  0.19888191736E+02  0.11942143461E+02 -0.46279332928E+02  0.51768055954E+02  0.00000000000E+00 0.  1.
</event>
<event>
 7    1  0.2666594E-009  0.1012809E+03  0.7561462E-02  0.1277625E+00
         -2   -1    0    0    0  501 -0.00000000000E+00  0.00000000000E+00  0.48411700234E+03  0.48411700234E+03  0.00000000000E+00 0.  1.
          2   -1    0    0  501    0  0.00000000000E+00 -0.00000000000E+00 -0.32843099216E+02  0.32843099216E+02  0.00000000000E+00 0. -1.
         25    2    1    2    0    0  0.11303367249E+02  0.62286455964E+02  0.21988978977E+03  0.26078110745E+03  0.12509155708E+03 0.  0.
          5    1    3    3  502    0  0.93063183107E+01  0.77495032775E+02  0.56077168364E+02  0.96198798729E+02  0.41800000000E+01 0.  1.
         -5    1    3    3    0  502  0.19970489386E+01 -0.15208576811E+02  0.16381262141E+03  0.16458230873E+03  0.41800000000E+01 0.  1.
        -11    1    1    2    0    0  0.42762438553E+00 -0.83903557464E+02  0.15981322102E+03  0.18050001505E+03  0.00000000000E+00 0.  1.
         11    1    1    2    0    0 -0.11730991635E+02  0.21617101500E+02  0.71570892330E+02  0.75678979056E+02  0.00000000000E+00 0. -1.
</event>
<event>
 7    1  0.2858651E-009  0.8283285E+02  0.7561462E-02  0.1321199E+00
          1   -1    0    0  501    0  0.00000000000E+00  0.00000000000E+00  0.34949785056E+02  0.34949785056E+02  0.00000000000E+00 0. -1.
         -1   -1    0    0    0  501 -0.00000000000E+00 -0.00000000000E+00 -0.41818141985E+03  0.41818141985E+03  0.00000000000E+00 0.  1.
         25    2    1    2    0    0  0.18726567834E+02 -0.47461818021E+02 -0.24744824688E+03  0.28192634913E+03  0.12509405636E+03 0.  0.
          5    1    3    3  502    0 -0.28033752508E+02 -0.57234243621E+02 -0.21434225569E+03  0.22365537082E+03  0.41800000000E+01 0. -1.
         -5    1    3    3    0  502  0.46760320342E+02  0.97724255999E+01 -0.33105991194E+02  0.58270978313E+02  0.41800000000E+01 0. -1.
        -11    1    1    2    0    0 -0.16046433424E+02  0.17423142025E+02  0.74503411134E+01  0.24830656181E+02  0.00000000000E+00 0. -1.
         11    1    1    2    0    0 -0.26801344103E+01  0.30038675996E+02 -0.14323372903E+03  0.14637419959E+03  0.00000000000E+00 0.  1.
</event>
<event>
 7    1  0.2666594E-009  0.7941233E+02  0.7561462E-02  0.1330727E+00
         -1   -1    0    0    0  501 -0.00000000000E+00  0.00000000000E+00  0.10530203508E+03  0.10530203508E+03  0.00000000000E+00 0.  1.
          1   -1    0    0  501    0  0.00000000000E+00 -0.00000000000E+00 -0.10823998206E+03  0.10823998206E+03  0.00000000000E+00 0. -1.
         25    2    1    2    0    0 -0.11714052025E+02 -0.26723985430E+01 -0.13105619607E+02  0.12635276950E+03  0.12509558092E+03 0.  0.
          5    1    3    3  502    0 -0.35449735687E+02  0.41095799378E+02 -0.41892997120E+02  0.68688020022E+02  0.41800000000E+01 0.  1.
         -5    1    3    3    0  502  0.23735683663E+02 -0.43768197921E+02  0.28787377513E+02  0.57664749478E+02  0.41800000000E+01 0.  1.
        -11    1    1    2    0    0  0.87260810570E+01  0.27791762017E+02 -0.28649250971E+02  0.40857142678E+02  0.00000000000E+00 0. -1.
         11    1    1    2    0    0  0.29879709676E+01 -0.25119363473E+02  0.38816923601E+02  0.46332104956E+02  0.00000000000E+00 0.  1.
</event>
<event>
 7    1  0.2666594E-009  0.2612997E+03  0.7561462E-02  0.1106365E+00
          2   -1    0    0  501    0  0.00000000000E+00  0.00000000000E+00  0.11100060375E+03  0.11100060375E+03  0.00000000000E+00 0. -1.
         -2   -1    0    0    0  501 -0.00000000000E+00 -0.00000000000E+00 -0.65816876216E+03  0.65816876216E+03  0.00000000000E+00 0.  1.
         25    2    1    2    0    0 -0.24627974783E+03 -0.72311698359E+01 -0.30761787538E+03  0.41349556008E+03  0.12507524511E+03 0.  0.
          5    1    3    3  502    0 -0.19806103934E+03 -0.57235285063E+02 -0.21873510107E+03  0.30061032916E+03  0.41800000000E+01 0.  1.
         -5    1    3    3    0  502 -0.48218708490E+02  0.50004115227E+02 -0.88882774316E+02  0.11288523091E+03  0.41800000000E+01 0.  1.
        -11    1    1    2    0    0  0.87803523217E+02  0.94377482025E+01 -0.30697838581E+02  0.93492711342E+02  0.00000000000E+00 0. -1.
         11    1    1    2    0    0  0.15847622462E+03 -0.22065783666E+01 -0.20885244445E+03  0.26218109449E+03  0.00000000000E+00 0.  1.
</event>
<event>
 7    1  0.2666594E-009  0.1394463E+03  0.7561462E-02  0.1214076E+00
          1   -1    0    0  501    0  0.00000000000E+00  0.00000000000E+00  0.59690462728E+03  0.59690462728E+03  0.00000000000E+00 0. -1.
         -1   -1    0    0    0  501 -0.00000000000E+00 -0.00000000000E+00 -0.41907752959E+02  0.41907752959E+02  0.00000000000E+00 0.  1.
         25    2    1    2    0    0 -0.95097250610E+02 -0.18621921929E+02  0.41943997067E+03  0.44829691510E+03  0.12509984828E+03 0.  0.
          5    1    3    3  502    0 -0.45769536937E+02 -0.66780814984E+02  0.15418656601E+03  0.17419959041E+03  0.41800000000E+01 0. -1.
         -5    1    3    3    0  502 -0.49327713672E+02  0.48158893055E+02  0.26525340466E+03  0.27409732468E+03  0.41800000000E+01 0. -1.
        -11    1    1    2    0    0  0.35659125210E+00  0.32941083123E+02  0.60168067930E+02  0.68596198969E+02  0.00000000000E+00 0.  1.
         11    1    1    2    0    0  0.94740659358E+02 -0.14319161194E+02  0.75388835720E+02  0.12191926617E+03  0.00000000000E+00 0. -1.
</event>
<event>
 7    1  0.2666594E-009  0.9164973E+02  0.7561462E-02  0.1298905E+00
         -3   -1    0    0    0  501 -0.00000000000E+00  0.00000000000E+00  0.37229401828E+02  0.37229401828E+02  0.00000000000E+00 0.  1.
          3   -1    0    0  501    0  0.00000000000E+00 -0.00000000000E+00 -0.47344819733E+03  0.47344819733E+03  0.00000000000E+00 0. -1.
         25    2    1    2    0    0 -0.17336888403E+02 -0.56369518235E+02 -0.33218683861E+03  0.35982470595E+03  0.12509049916E+03 0.  0.
          5    1    3    3  502    0 -0.18633016831E+02  0.16746059593E+02 -0.67965870738E+01  0.26292314922E+02  0.41800000000E+01 0. -1.
         -5    1    3    3    0  502  0.12961284280E+01 -0.73115577827E+02 -0.32539025154E+03  0.33353239103E+03  0.41800000000E+01 0. -1.
        -11    1    1    2    0    0  0.33559931036E+02  0.92368975770E+01  0.75297366985E+00  0.34816033911E+02  0.00000000000E+00 0.  1.
         11    1    1    2    0    0 -0.16223042632E+02  0.47132620658E+02 -0.10478493056E+03  0.11603685929E+03  0.00000000000E+00 0. -1.
</event>
<event>
 7    1  0.3398780E-009  0.1178685E+03  0.7561462E-02  0.1246655E+00
          2   -1    0    0  501    0  0.00000000000E+00  0.00000000000E+00  0.18037932734E+04  0.18037932734E+04  0.00000000000E+00 0. -1.
         -2   -1    0    0    0  501 -0.00000000000E+00 -0.00000000000E+00 -0.19271908116E+02  0.19271908116E+02  0.00000000000E+00 0.  1.
         25    2    1    2    0    0 -0.55181012313E+02 -0.70773319082E+02  0.15348692351E+04  0.15425706345E+04  0.12508711630E+03 0.  0.
          5    1    3    3  502    0 -0.61159343122E+02 -0.18480311006E+02  0.30894214404E+03  0.31550706476E+03  0.41800000000E+01 0.  1.
         -5    1    3    3    0  502  0.59783308092E+01 -0.52293008076E+02  0.12259270911E+04  0.12270635697E+04  0.41800000000E+01 0.  1.
        -11    1    1    2    0    0  0.77036038573E+00  0.64085866958E+02  0.81801726187E+02  0.10391878659E+03  0.00000000000E+00 0.  1.
         11    1    1    2    0    0  0.54410651927E+02  0.66874521242E+01  0.16785040403E+03  0.17657576049E+03  0.00000000000E+00 0. -1.
</event>
<event>
 7    1  0.2666594E-009  0.7795417E+02  0.7561462E-02  0.1334960E+00
          1   -1    0    0  501    0  0.00000000000E+00  0.00000000000E+00  0.40128958856E+03  0.40128958856E+03  0.00000000000E+00 0. -1.
         -1   -1    0    0    0  501 -0.00000000000E+00 -0.00000000000E+00 -0.36953228448E+02  0.36953228448E+02  0.00000000000E+00 0.  1.
         25    2    1    2    0    0  0.39018984841E+02  0.59800104226E+01  0.13397808710E+03  0.18749826590E+03  0.12508888916E+03 0.  0.
          5    1    3    3  502    0  0.39261042697E+01 -0.15271894278E+02  0.14411229326E+03  0.14503265328E+03  0.41800000000E+01 0.  1.
         -5    1    3    3    0  502  0.35092880571E+02  0.21251904701E+02 -0.10134206165E+02  0.42465612615E+02  0.41800000000E+01 0.  1.
        -11    1    1    2    0    0  0.37873147999E+01 -0.42147138371E+02  0.84822443738E+02  0.94792257005E+02  0.00000000000E+00 0.  1.
         11    1    1    2    0    0 -0.42806299641E+02  0.36167127949E+02  0.14553582928E+03  0.15595229411E+03  0.00000000000E+00 0. -1.
</event>
<event>
 7    1  0.3667569E-009  0.1052220E+03  0.7561462E-02  0.1269683E+00
          2   -1    0    0  501    0  0.00000000000E+00  0.00000000000E+00  0.75963060957E+03  0.75963060957E+03  0.00000000000E+00 0. -1.
         -2   -1    0    0    0  501 -0.00000000000E+00 -0.00000000000E+00 -0.17955665378E+02  0.17955665378E+02  0.00000000000E+00 0.  1.
         25    2    1    2    0    0  0.21847946093E+02  0.26409762471E+02  0.51269747443E+03  0.52885004356E+03  0.12509540351E+03 0.  0.
          5    1    3    3  502    0 -0.49662262003E+02  0.23793423179E+02  0.27873444162E+03  0.28415282613E+03  0.41800000000E+01 0. -1.
         -5    1    3    3    0  502  0.71510208097E+02  0.26163392924E+01  0.23396303281E+03  0.24469721742E+03  0.41800000000E+01 0. -1.
        -11    1    1    2    0    0 -0.47383166032E+02 -0.82480282134E+00  0.62810080653E+02  0.78682596263E+02  0.00000000000E+00 0.  1.
         11    1    1    2    0    0  0.25535219939E+02 -0.25584959650E+02  0.16616738911E+03  0.17005363513E+03  0.00000000000E+00 0. -1.
</event>
<event>
 7    1  0.2666594E-009  0.1072571E+03  0.7561462E-02  0.1265735E+00
         -2   -1    0    0    0  501 -0.00000000000E+00  0.00000000000E+00  0.43470893235E+02  0.43470893235E+02  0.00000000000E+00 0.  1.
          2   -1    0    0  501    0  0.00000000000E+00 -0.00000000000E+00 -0.50761296058E+03  0.50761296058E+03  0.00000000000E+00 0. -1.
         25    2    1    2    0    0 -0.27368155575E+02  0.75828996328E+02 -0.13931807083E+03  0.20385071837E+03  0.12508612193E+03 0.  0.
          5    1    3    3  502    0 -0.53323781918E+02  0.52075725051E+01 -0.10718063810E+02  0.54798666236E+02  0.41800000000E+01 0. -1.
         -5    1    3    3    0  502  0.25955626343E+02  0.70621423823E+02 -0.12860000702E+03  0.14905205214E+03  0.41800000000E+01 0. -1.
        -11    1    1    2    0    0  0.33240857876E+02 -0.67310163065E+02 -0.32794352055E+03  0.33642616628E+03  0.00000000000E+00 0. -1.
         11    1    1    2    0    0 -0.58727023006E+01 -0.85188332635E+01  0.31195240281E+01  0.10806969170E+02  0.00000000000E+00 0.  1.
</event>
<event>
 7    1  0.2666594E-009  0.1189409E+03  0.7561462E-02  0.1244855E+00
          1   -1    0    0  501    0  0.00000000000E+00  0.00000000000E+00  0.13133455842E+03  0.13133455842E+03  0.00000000000E+00 0. -1.
         -1   -1    0    0    0  501 -0.00000000000E+00 -0.00000000000E+00 -0.16768690439E+03  0.16768690439E+03  0.00000000000E+00 0.  1.
         25    2    1    2    0    0  0.35366676957E+02 -0.76442768956E+02 -0.76269787280E+02  0.16899570259E+03  0.12509263878E+03 0.  0.
          5    1    3    3  502    0  0.52396974757E+02  0.11324989582E+02 -0.39277170307E+01  0.53912871504E+02  0.41800000000E+01 0. -1.
         -5    1    3    3    0  502 -0.17030297800E+02 -0.87767758538E+02 -0.72342070249E+02  0.11508283108E+03  0.41800000000E+01 0. -1.
        -11    1    1    2    0    0  0.10037097027E+02  0.17919251676E+02 -0.24423954823E+02  0.31911948649E+02  0.00000000000E+00 0.  1.
         11    1    1    2    0    0 -0.45403773984E+02  0.58523517280E+02  0.64341396127E+02  0.98113811578E+02  0.00000000000E+00 0. -1.
</event>
<event>
 7    1  0.2666594E-009  0.1103340E+03  0.7561462E-02  0.1259953E+00
          1   -1    0    0  501    0  0.00000000000E+00  0.00000000000E+00  0.21049842213E+03  0.21049842213E+03  0.00000000000E+00 0. -1.
         -1   -1    0    0    0  501 -0.00000000000E+00 -0.00000000000E+00 -0.10198226593E+03  0.10198226593E+03  0.00000000000E+00 0.  1.
         25    2    1    2    0    0 -0.86278031794E+02 -0.36296624427E+02  0.92074250148E+02  0.18135057672E+03  0.12509604478E+03 0.  0.
          5    1    3    3  502    0 -0.42406847527E+02 -0.27292182857E+02 -0.24629451929E+02  0.56278648389E+02  0.41800000000E+01 0.  1.
         -5    1    3    3    0  502 -0.43871184267E+02 -0.90044415704E+01  0.11670370208E+03  0.12507192833E+03  0.41800000000E+01 0.  1.
        -11    1    1    2    0    0  0.90670158908E+02  0.21904301460E+01  0.27887971038E+02  0.94887378661E+02  0.00000000000E+00 0. -1.
         11    1    1    2    0    0 -0.43921271139E+01  0.34106194281E+02 -0.11446064984E+02  0.36242732686E+02  0.00000000000E+00 0.  1.
</event>
<event>
 7    1  0.2666594E-009  0.9983381E+02  0.7561462E-02  0.1280646E+00
         -2   -1    0    0    0  501 -0.00000000000E+00  0.00000000000E+00  0.85280952090E+02  0.85280952090E+02  0.00000000000E+00 0.  1.
          2   -1    0    0  501    0  0.00000000000E+00 -0.00000000000E+00 -0.27578774839E+03  0.27578774839E+03  0.00000000000E+00 0. -1.
         25    2    1    2    0    0  0.46534961757E+02  0.32468612840E+02  0.64494918907E+01  0.13750943444E+03  0.12509010804E+03 0.  0.
          5    1    3    3  502    0 -0.94845943898E+00 -0.23968500729E+02  0.47222974454E+02  0.53130690930E+02  0.41800000000E+01 0. -1.
         -5    1    3    3    0  502  0.47483421196E+02  0.56437113568E+02 -0.40773482563E+02  0.84378743512E+02  0.41800000000E+01 0. -1.
        -11    1    1    2    0    0  0.15809874473E+02 -0.35671773071E+02 -0.46727125387E+02  0.60875707568E+02  0.00000000000E+00 0.  1.
         11    1    1    2    0    0 -0.62344836230E+02  0.32031602315E+01 -0.15022916281E+03  0.16268355847E+03  0.00000000000E+00 0. -1.
</event>
<event>
 7    1  0.2666594E-009  0.9198830E+02  0.7561462E-02  0.1298107E+00
         -1   -1    0    0    0  501 -0.00000000000E+00  0.00000000000E+00  0.60075172763E+02  0.60075172763E+02  0.00000000000E+00 0.  1.
          1   -1    0    0  501    0  0.00000000000E+00 -0.00000000000E+00 -0.21333019949E+03  0.21333019949E+03  0.00000000000E+00 0. -1.
         25    2    1    2    0    0  0.14225899819E+02 -0.14227501308E+01 -0.12521246569E+03  0.17756486083E+03  0.12508684101E+03 0.  0.
          5    1    3    3  502    0 -0.30160285764E+02  0.34041508416E+02 -0.68185561042E+01  0.46178265883E+02  0.41800000000E+01 0.  1.
         -5    1    3    3    0  502  0.44386185583E+02 -0.35464258547E+02 -0.11839390959E+03  0.13138659495E+03  0.41800000000E+01 0.  1.
        -11    1    1    2    0    0  0.33531008405E+02  0.17856921698E+01  0.97193633960E+01  0.34956876949E+02  0.00000000000E+00 0.  1.
         11    1    1    2    0    0 -0.47756908224E+02 -0.36294203894E+00 -0.37761924436E+02  0.60883634477E+02  0.00000000000E+00 0. -1.
</event>
<event>
 7    1  0.2666594E-009  0.9987573E+02  0.7561462E-02  0.1280557E+00
         -1   -1    0    0    0  501 -0.00000000000E+00  0.00000000000E+00  0.57862116479E+02  0.57862116479E+02  0.00000000000E+00 0.  1.
          1   -1    0    0  501    0  0.00000000000E+00 -0.00000000000E+00 -0.28953251493E+03  0.28953251493E+03  0.00000000000E+00 0. -1.
         25    2    1    2    0    0  0.46558776578E+02  0.54504484886E+02 -0.13452940174E+03  0.19718843864E+03  0.12508661740E+03 0.  0.
          5    1    3    3  502    0  0.14866523718E+02  0.68722013384E+02 -0.14454840094E+03  0.16079627255E+03  0.41800000000E+01 0.  1.
         -5    1    3    3    0  502  0.31692252860E+02 -0.14217528498E+02  0.10018999199E+02  0.36392166092E+02  0.41800000000E+01 0.  1.
        -11    1    1    2    0    0 -0.53388501413E+01  0.13662830851E+02 -0.60984469169E+02  0.62723853098E+02  0.00000000000E+00 0. -1.
         11    1    1    2    0    0 -0.41219926437E+02 -0.68167315737E+02 -0.36156527538E+02  0.87482339668E+02  0.00000000000E+00 0.  1.
</event>
<event>
 7    1  0.2666594E-009  0.1018413E+03  0.7561462E-02  0.1276471E+00
          2   -1    0    0  501    0  0.00000000000E+00  0.00000000000E+00  0.30193779199E+03  0.30193779199E+03  0.00000000000E+00 0. -1.
         -2   -1    0    0    0  501 -0.00000000000E+00 -0.00000000000E+00 -0.59463907278E+02  0.59463907278E+02  0.00000000000E+00 0.  1.
         25    2    1    2    0    0  0.41316507794E+02  0.59565748920E+02  0.16923581649E+03  0.22258343447E+03  0.12508993348E+03 0.  0.
          5    1    3    3  502    0  0.58302260216E+02  0.77269179412E+01  0.15531475977E+03  0.16612948507E+03  0.41800000000E+01 0.  1.
         -5    1    3    3    0  502 -0.16985752421E+02  0.51838830979E+02  0.13921056710E+02  0.56453949397E+02  0.41800000000E+01 0.  1.
        -11    1    1    2    0    0 -0.34976837778E+02 -0.52992906206E+01 -0.12186419092E+02  0.37416179285E+02  0.00000000000E+00 0.  1.
         11    1    1    2    0    0 -0.63396700167E+01 -0.54266458299E+02  0.85424487320E+02  0.10140208551E+03  0.00000000000E+00 0. -1.
</event>
<event>
 7    1  0.2666594E-009  0.1108665E+03  0.7561462E-02  0.1258974E+00
         -1   -1    0    0    0  501 -0.00000000000E+00  0.00000000000E+00  0.14578601632E+02  0.14578601632E+02  0.00000000000E+00 0.  1.
          1   -1    0    0  501    0  0.00000000000E+00 -0.00000000000E+00 -0.88390105228E+03  0.88390105228E+03  0.00000000000E+00 0. -1.
         25    2    1    2    0    0 -0.32185359584E+02  0.11901446349E+02 -0.48722086741E+03  0.50419290560E+03  0.12509504633E+03 0.  0.
          5    1    3    3  502    0  0.44718892481E+02 -0.15209904434E+02 -0.15539386914E+03  0.16246798917E+03  0.41800000000E+01 0. -1.
         -5    1    3    3    0  502 -0.76904252065E+02  0.27111350782E+02 -0.33182699827E+03  0.34172491643E+03  0.41800000000E+01 0. -1.
        -11    1    1    2    0    0 -0.17663019073E+02 -0.33862175860E+02 -0.10151365793E+03  0.10846037038E+03  0.00000000000E+00 0.  1.
         11    1    1    2    0    0  0.49848378657E+02  0.21960729511E+02 -0.28058792531E+03  0.28582637794E+03  0.00000000000E+00 0. -1.
</event>
<event>
 7    1  0.2666594E-009  0.1007835E+03  0.7561462E-02  0.1278657E+00
          3   -1    0    0  501    0  0.00000000000E+00  0.00000000000E+00  0.46919910128E+03  0.46919910128E+03  0.00000000000E+00 0. -1.
         -3   -1    0    0    0  501 -0.00000000000E+00 -0.00000000000E+00 -0.29590072712E+02  0.29590072712E+02  0.00000000000E+00 0.  1.
         25    2    1    2    0    0 -0.37680094722E+02 -0.92421250565E+01  0.20135786759E+03  0.24020356490E+03  0.12509018880E+03 0.  0.
          5    1    3    3  502    0  0.31256985727E+02 -0.40902453952E+01  0.15166898868E+03  0.15496671833E+03  0.41800000000E+01 0. -1.
         -5    1    3    3    0  502 -0.68937080449E+02 -0.51518796613E+01  0.49688878917E+02  0.85236846568E+02  0.41800000000E+01 0. -1.
        -11    1    1    2    0    0  0.67650676827E+02 -0.39515034285E+01  0.16119654612E+03  0.17486153075E+03  0.00000000000E+00 0.  1.
         11    1    1    2    0    0 -0.29970582105E+02  0.13193628485E+02  0.77054614849E+02  0.83724078340E+02  0.00000000000E+00 0. -1.
</event>
<event>
 7    1  0.2666594E-009  0.1570655E+03  0.7561462E-02  0.1192050E+00
         -1   -1    0    0    0  501 -0.00000000000E+00  0.00000000000E+00  0.83740712681E+02  0.83740712681E+02  0.00000000000E+00 0.  1.
          1   -1    0    0  501    0  0.00000000000E+00 -0.00000000000E+00 -0.36008746169E+03  0.36008746169E+03  0.00000000000E+00 0. -1.
         25    2    1    2    0    0 -0.13369516871E+03 -0.46023589275E+01 -0.17315805218E+03  0.25204360951E+03  0.12508673078E+03 0.  0.
          5    1    3    3  502    0 -0.25147655031E+02 -0.52756122371E+02 -0.88534556279E+02  0.10616709969E+03  0.41800000000E+01 0. -1.
         -5    1    3    3    0  502 -0.10854751367E+03  0.48153763443E+02 -0.84623495897E+02  0.14587650982E+03  0.41800000000E+01 0. -1.
        -11    1    1    2    0    0  0.10208994319E+03 -0.86264908800E+01 -0.23603382540E+02  0.10513749337E+03  0.00000000000E+00 0.  1.
         11    1    1    2    0    0  0.31605225519E+02  0.13228849807E+02 -0.79585314293E+02  0.86647071494E+02  0.00000000000E+00 0. -1.
</event>
<event>
 7    1  0.2666594E-009  0.1811349E+03  0.7561462E-02  0.1166709E+00
         -2   -1    0    0    0  501 -0.00000000000E+00  0.00000000000E+00  0.83447228602E+02  0.83447228602E+02  0.00000000000E+00 0.  1.
          2   -1    0    0  501    0  0.00000000000E+00 -0.00000000000E+00 -0.66359168535E+03  0.66359168535E+03  0.00000000000E+00 0. -1.
         25    2    1    2    0    0  0.17123802918E+03 -0.56176570063E+02 -0.13414738828E+03  0.25714100199E+03  0.12509078087E+03 0.  0.
          5    1    3    3  502    0  0.13521607680E+03 -0.48809965859E+02 -0.15757965393E+03  0.21334155696E+03  0.41800000000E+01 0. -1.
         -5    1    3    3    0  502  0.36021952382E+02 -0.73666042041E+01  0.23432265657E+02  0.43799445028E+02  0.41800000000E+01 0. -1.
        -11    1    1    2    0    0 -0.82799457804E+02  0.38268494656E+02 -0.11478534214E+03  0.14661481053E+03  0.00000000000E+00 0.  1.
         11    1    1    2    0    0 -0.88438571379E+02  0.17908075407E+02 -0.33121172633E+03  0.34328310143E+03  0.00000000000E+00 0. -1.
</event>
<event>
 7    1  0.2666594E-009  0.1114153E+03  0.7561462E-02  0.1257971E+00
          3   -1    0    0  501    0  0.00000000000E+00  0.00000000000E+00  0.15405950943E+03  0.15405950943E+03  0.00000000000E+00 0. -1.
         -3   -1    0    0    0  501 -0.00000000000E+00 -0.00000000000E+00 -0.10304183114E+03  0.10304183114E+03  0.00000000000E+00 0.  1.
         25    2    1    2    0    0  0.50033461882E+02  0.37673199088E+02  0.44794385819E+02  0.14689183085E+03  0.12509218893E+03 0.  0.
          5    1    3    3  502    0 -0.28298282438E+02  0.42436815777E+02 -0.85810362486E+01  0.51892029305E+02  0.41800000000E+01 0.  1.
         -5    1    3    3    0  502  0.78331744320E+02 -0.47636166897E+01  0.53375422068E+02  0.94999801542E+02  0.41800000000E+01 0.  1.
        -11    1    1    2    0    0 -0.66919094524E+02 -0.36283067310E+02 -0.20258104015E+02  0.78771930048E+02  0.00000000000E+00 0.  1.
         11    1    1    2    0    0  0.16885632642E+02 -0.13901317775E+01  0.26481396481E+02  0.31437579672E+02  0.00000000000E+00 0. -1.
</event>
<event>
 7    1  0.2666594E-009  0.1883959E+03  0.7561462E-02  0.1159916E+00
          2   -1    0    0  501    0  0.00000000000E+00  0.00000000000E+00  0.96467907740E+03  0.96467907740E+03  0.00000000000E+00 0. -1.
         -2   -1    0    0    0  501 -0.00000000000E+00 -0.00000000000E+00 -0.51578656904E+02  0.51578656904E+02  0.00000000000E+00 0.  1.
         25    2    1    2    0    0 -0.16901313450E+03  0.23580706346E+01  0.69189601336E+03  0.72314530136E+03  0.12509209984E+03 0.  0.
          5    1    3    3  502    0 -0.92983480826E+02  0.41896215481E+02  0.20792338995E+03  0.23162648611E+03  0.41800000000E+01 0.  1.
         -5    1    3    3    0  502 -0.76029653673E+02 -0.39538144846E+02  0.48397262341E+03  0.49151881525E+03  0.41800000000E+01 0.  1.
        -11    1    1    2    0    0  0.35390238934E+02  0.35410961967E+02  0.84731896499E+02  0.98416967661E+02  0.00000000000E+00 0.  1.
         11    1    1    2    0    0  0.13362289556E+03 -0.37769032601E+02  0.13647251063E+03  0.19469546528E+03  0.00000000000E+00 0. -1.
</event>
<event>
 7    1  0.2666594E-009  0.5596082E+02  0.7561462E-02  0.1415609E+00
          4   -1    0    0  501    0  0.00000000000E+00  0.00000000000E+00  0.13057296439E+03  0.13057296439E+03  0.00000000000E+00 0. -1.
         -4   -1    0    0    0  501 -0.00000000000E+00 -0.00000000000E+00 -0.25135272645E+03  0.25135272645E+03  0.00000000000E+00 0.  1.
         25    2    1    2    0    0 -0.22992566011E+02  0.80907397780E+01 -0.21356199644E+03  0.24869723655E+03  0.12508985165E+03 0.  0.
          5    1    3    3  502    0  0.79255070040E+01 -0.93982780975E+01 -0.21251887585E+03  0.21291520914E+03  0.41800000000E+01 0. -1.
         -5    1    3    3    0  502 -0.30918073015E+02  0.17489017875E+02 -0.10431205918E+01  0.35782027413E+02  0.41800000000E+01 0. -1.
        -11    1    1    2    0    0  0.33141373656E+02 -0.26309596473E+02  0.45427350394E+01  0.42557983458E+02  0.00000000000E+00 0.  1.
         11    1    1    2    0    0 -0.10148807645E+02  0.18218856695E+02  0.88239499339E+02  0.90670470824E+02  0.00000000000E+00 0. -1.
</event>
<event>
 7    1  0.2666594E-009  0.1116839E+03  0.7561462E-02  0.1257483E+00
         -2   -1    0    0    0  501 -0.00000000000E+00  0.00000000000E+00  0.59692170203E+02  0.59692170203E+02  0.00000000000E+00 0.  1.
          2   -1    0    0  501    0  0.00000000000E+00 -0.00000000000E+00 -0.28119355754E+03  0.28119355754E+03  0.00000000000E+00 0. -1.
         25    2    1    2    0    0 -0.41336952486E+01  0.60098336925E+02 -0.81354015114E+02  0.16091583517E+03  0.12508610113E+03 0.  0.
          5    1    3    3  502    0  0.48284976457E+02  0.45963684980E+02 -0.47939655590E+01  0.66966811140E+02  0.41800000000E+01 0. -1.
         -5    1    3    3    0  502 -0.52418671705E+02  0.14134651945E+02 -0.76560049555E+02  0.93949024034E+02  0.41800000000E+01 0. -1.
        -11    1    1    2    0    0  0.42881805903E+02 -0.39188676124E+02 -0.11604906541E+03  0.12977668202E+03  0.00000000000E+00 0. -1.
         11    1    1    2    0    0 -0.38748110654E+02 -0.20909660801E+02 -0.24098306814E+02  0.50193210551E+02  0.00000000000E+00 0.  1.
</event>
<event>
 7    1  0.2666594E-009  0.1054832E+03  0.7561462E-02  0.1269171E+00
         -1   -1    0    0    0  501 -0.00000000000E+00  0.00000000000E+00  0.23950974324E+03  0.23950974324E+03  0.00000000000E+00 0.  1.
          1   -1    0    0  501    0  0.00000000000E+00 -0.00000000000E+00 -0.59311746515E+02  0.59311746515E+02  0.00000000000E+00 0. -1.
         25    2    1    2    0    0  0.43807938993E+02 -0.20344782980E+02  0.11907728461E+03  0.17933145294E+03  0.12508926649E+03 0.  0.
          5    1    3    3  502    0  0.42633017554E+02  0.42660378323E+02  0.23690120123E+02  0.64932089570E+02  0.41800000000E+01 0. -1.
         -5    1    3    3    0  502  0.11749214397E+01 -0.63005161303E+02  0.95387164487E+02  0.11439936337E+03  0.41800000000E+01 0. -1.
        -11    1    1    2    0    0 -0.86958269917E+01  0.44108638185E+02 -0.17728854453E+00  0.44957989288E+02  0.00000000000E+00 0. -1.
         11    1    1    2    0    0 -0.35112112002E+02 -0.23763855205E+02  0.61298000665E+02  0.74532047529E+02  0.00000000000E+00 0.  1.
</event>
<event>
 7    1  0.2666594E-009  0.1638789E+03  0.7561462E-02  0.1184386E+00
         -1   -1    0    0    0  501 -0.00000000000E+00  0.00000000000E+00  0.84399806295E+02  0.84399806295E+02  0.00000000000E+00 0.  1.
          1   -1    0    0  501    0  0.00000000000E+00 -0.00000000000E+00 -0.34830065947E+03  0.34830065947E+03  0.00000000000E+00 0. -1.
         25    2    1    2    0    0  0.12902809021E+03 -0.17252617641E+02 -0.11152886972E+03  0.21220599999E+03  0.12508715671E+03 0.  0.
          5    1    3    3  502    0  0.59428543046E+02  0.45406694888E+02 -0.12674799754E+02  0.75971327605E+02  0.41800000000E+01 0.  1.
         -5    1    3    3    0  502  0.69599547162E+02 -0.62659312529E+02 -0.98854069961E+02  0.13623467238E+03  0.41800000000E+01 0.  1.
        -11    1    1    2    0    0  0.12252276387E+02 -0.92648331418E+01 -0.18698807970E+02  0.24199190675E+02  0.00000000000E+00 0.  1.
         11    1    1    2    0    0 -0.14128036659E+03  0.26517450782E+02 -0.13367317548E+03  0.19629527510E+03  0.00000000000E+00 0. -1.
</event>
<event>
 7    1  0.2666594E-009  0.1030252E+03  0.7561462E-02  0.1274060E+00
          1   -1    0    0  501    0  0.00000000000E+00  0.00000000000E+00  0.33020133068E+03  0.33020133068E+03  0.00000000000E+00 0. -1.
         -1   -1    0    0    0  501 -0.00000000000E+00 -0.00000000000E+00 -0.53797482095E+02  0.53797482095E+02  0.00000000000E+00 0.  1.
         25    2    1    2    0    0 -0.53936459398E+02  0.31279554487E+02  0.88711065795E+02  0.16554165746E+03  0.12508730943E+03 0.  0.
          5    1    3    3  502    0  0.21127218418E+01 -0.22166992864E+02 -0.21194799643E+02  0.31024685302E+02  0.41800000000E+01 0.  1.
         -5    1    3    3    0  502 -0.56049181239E+02  0.53446547351E+02  0.10990586544E+03  0.13451697216E+03  0.41800000000E+01 0.  1.
        -11    1    1    2    0    0  0.68941272740E+02  0.23792569962E+01  0.15305509480E+03  0.16788216700E+03  0.00000000000E+00 0. -1.
         11    1    1    2    0    0 -0.15004813343E+02 -0.33658811483E+02  0.34637687986E+02  0.50574988313E+02  0.00000000000E+00 0.  1.
</event>
<event>
 7    1  0.2666594E-009  0.1457415E+03  0.7561462E-02  0.1205806E+00
         -2   -1    0    0    0  501 -0.00000000000E+00  0.00000000000E+00  0.35713450355E+02  0.35713450355E+02  0.00000000000E+00 0.  1.
          2   -1    0    0  501    0  0.00000000000E+00 -0.00000000000E+00 -0.76524656048E+03  0.76524656048E+03  0.00000000000E+00 0. -1.
         25    2    1    2    0    0 -0.10386144577E+03  0.59647117882E+02 -0.31097355088E+03  0.35594416746E+03  0.12508685950E+03 0.  0.
          5    1    3    3  502    0 -0.40874353603E+02  0.77715972892E+02 -0.91616170087E+02  0.12697039122E+03  0.41800000000E+01 0.  1.
         -5    1    3    3    0  502 -0.62987092162E+02 -0.18068855010E+02 -0.21935738079E+03  0.22897377624E+03  0.41800000000E+01 0.  1.
        -11    1    1    2    0    0  0.44092780965E+02  0.10931505504E+02 -0.63291966674E+02  0.77907279450E+02  0.00000000000E+00 0.  1.
         11    1    1    2    0    0  0.59768664800E+02 -0.70578623386E+02 -0.35526759257E+03  0.36710856392E+03  0.00000000000E+00 0. -1.
</event>
<event>
 7    1  0.2666594E-009  0.3063301E+03  0.7561462E-02  0.1082118E+00
         -2   -1    0    0    0  501 -0.00000000000E+00  0.00000000000E+00  0.21366235182E+03  0.21366235182E+03  0.00000000000E+00 0.  1.
          2   -1    0    0  501    0  0.00000000000E+00 -0.00000000000E+00 -0.47764496555E+03  0.47764496555E+03  0.00000000000E+00 0. -1.
         25    2    1    2    0    0 -0.23319077717E+03 -0.17280464078E+03 -0.51530781608E+02  0.32022003615E+03  0.12508424228E+03 0.  0.
          5    1    3    3  502    0 -0.17355420686E+03 -0.18581018163E+03 -0.49117423830E+02  0.25899127406E+03  0.41800000000E+01 0. -1.
         -5    1    3    3    0  502 -0.59636570313E+02  0.13005540849E+02 -0.24133577782E+01  0.61228762091E+02  0.41800000000E+01 0. -1.
        -11    1    1    2    0    0  0.41980215548E+02  0.65860575585E+02 -0.93374411061E+02  0.12173222480E+03  0.00000000000E+00 0. -1.
         11    1    1    2    0    0  0.19121056162E+03  0.10694406520E+03 -0.11907742106E+03  0.24935505642E+03  0.00000000000E+00 0.  1.
</event>
<event>
 7    1  0.2666594E-009  0.1843999E+03  0.7561462E-02  0.1163611E+00
         -1   -1    0    0    0  501 -0.00000000000E+00  0.00000000000E+00  0.78938572683E+02  0.78938572683E+02  0.00000000000E+00 0.  1.
          1   -1    0    0  501    0  0.00000000000E+00 -0.00000000000E+00 -0.57867080270E+03  0.57867080270E+03  0.00000000000E+00 0. -1.
         25    2    1    2    0    0 -0.35815843932E+02 -0.15322883116E+03 -0.40610746870E+03  0.45313479640E+03  0.12508404455E+03 0.  0.
          5    1    3    3  502    0 -0.81527780141E+02 -0.80587888150E+02 -0.21834516461E+03  0.24664401464E+03  0.41800000000E+01 0. -1.
         -5    1    3    3    0  502  0.45711936209E+02 -0.72640943006E+02 -0.18776230409E+03  0.20649078175E+03  0.41800000000E+01 0. -1.
        -11    1    1    2    0    0  0.51393904074E+02  0.96517558646E+02 -0.96150124611E+02  0.14560844400E+03  0.00000000000E+00 0. -1.
         11    1    1    2    0    0 -0.15578060142E+02  0.56711272510E+02  0.25253632940E+01  0.58866134978E+02  0.00000000000E+00 0.  1.
</event>
<event>
 7    1  0.2666594E-009  0.1219930E+03  0.7561462E-02  0.1239845E+00
          2   -1    0    0  501    0  0.00000000000E+00  0.00000000000E+00  0.18375738386E+04  0.18375738386E+04  0.00000000000E+00 0. -1.
         -2   -1    0    0    0  501 -0.00000000000E+00 -0.00000000000E+00 -0.13279738088E+02  0.13279738088E+02  0.00000000000E+00 0.  1.
         25    2    1    2    0    0  0.54796535922E+02  0.24611242421E+02  0.15233484409E+04  0.15296560820E+04  0.12509549650E+03 0.  0.
          5    1    3    3  502    0  0.20900889138E+02 -0.49854243185E+02  0.46735508676E+03  0.47048968346E+03  0.41800000000E+01 0.  1.
         -5    1    3    3    0  502  0.33895646784E+02  0.74465485606E+02  0.10559933541E+04  0.10591663985E+04  0.41800000000E+01 0.  1.
        -11    1    1    2    0    0 -0.44483607681E+02  0.29096044290E+02  0.10395203561E+03  0.11675357319E+03  0.00000000000E+00 0.  1.
         11    1    1    2    0    0 -0.10312928241E+02 -0.53707286710E+02  0.19699362407E+03  0.20444392155E+03  0.00000000000E+00 0. -1.
</event>
<event>
 7    1  0.2666594E-009  0.1526714E+03  0.7561462E-02  0.1197228E+00
          2   -1    0    0  501    0  0.00000000000E+00  0.00000000000E+00  0.33277879126E+03  0.33277879126E+03  0.00000000000E+00 0. -1.
         -2   -1    0    0    0  501 -0.00000000000E+00 -0.00000000000E+00 -0.94390235577E+02  0.94390235577E+02  0.00000000000E+00 0.  1.
         25    2    1    2    0    0 -0.57736791305E+02  0.12621059271E+03  0.13069479807E+03  0.22801127659E+03  0.12508141840E+03 0.  0.
          5    1    3    3  502    0 -0.51436749398E+02  0.72164392110E+02  0.14643546328E+03  0.17121406479E+03  0.41800000000E+01 0.  1.
         -5    1    3    3    0  502 -0.63000419072E+01  0.54046200599E+02 -0.15740665208E+02  0.56797211802E+02  0.41800000000E+01 0.  1.
        -11    1    1    2    0    0  0.52524863457E+02 -0.20769072079E+02  0.14440407310E+02  0.58298722109E+02  0.00000000000E+00 0.  1.
         11    1    1    2    0    0  0.52119278483E+01 -0.10544152063E+03  0.93253350307E+02  0.14085902814E+03  0.00000000000E+00 0. -1.
</event>
<event>
 7    1  0.2666594E-009  0.9601590E+02  0.7561462E-02  0.1288904E+00
          2   -1    0    0  501    0  0.00000000000E+00  0.00000000000E+00  0.40634828111E+03  0.40634828111E+03  0.00000000000E+00 0. -1.
         -2   -1    0    0    0  501 -0.00000000000E+00 -0.00000000000E+00 -0.39963650360E+02  0.39963650360E+02  0.00000000000E+00 0.  1.
         25    2    1    2    0    0  0.51018037238E+02  0.23970414159E+02  0.26678225936E+03  0.29999675052E+03  0.12509138874E+03 0.  0.
          5    1    3    3  502    0  0.78323002929E+02  0.22219708571E+02  0.25858377106E+03  0.27112957657E+03  0.41800000000E+01 0. -1.
         -5    1    3    3    0  502 -0.27304965692E+02  0.17507055879E+01  0.81984882971E+01  0.28867173950E+02  0.41800000000E+01 0. -1.
        -11    1    1    2    0    0  0.87326130182E+01 -0.21301557157E+02  0.80196442415E+02  0.83435509488E+02  0.00000000000E+00 0. -1.
         11    1    1    2    0    0 -0.59750650256E+02 -0.26688570025E+01  0.19405928981E+02  0.62879671463E+02  0.00000000000E+00 0.  1.
</event>
<event>
 7    1  0.2666594E-009  0.2260006E+03  0.7561462E-02  0.1129487E+00
          2   -1    0    0  501    0  0.00000000000E+00  0.00000000000E+00  0.87441890250E+03  0.87441890250E+03  0.00000000000E+00 0.  1.
         -2   -1    0    0    0  501 -0.00000000000E+00 -0.00000000000E+00 -0.75443638965E+02  0.75443638965E+02  0.00000000000E+00 0. -1.
         25    2    1    2    0    0  0.21767934520E+03  0.30183640475E+02  0.54061567711E+03  0.59683206571E+03  0.12509138593E+03 0.  0.
          5    1    3    3  502    0  0.61143381359E+02  0.40609128844E+02  0.73089974457E+02  0.10366885355E+03  0.41800000000E+01 0.  1.
         -5    1    3    3    0  502  0.15653596385E+03 -0.10425488368E+02  0.46752570266E+03  0.49316321216E+03  0.41800000000E+01 0.  1.
        -11    1    1    2    0    0 -0.14543049254E+03 -0.67410207023E+01  0.97729612931E+02  0.17534693258E+03  0.00000000000E+00 0.  1.
         11    1    1    2    0    0 -0.72248852662E+02 -0.23442619773E+02  0.16062997349E+03  0.17768354318E+03  0.00000000000E+00 0. -1.
</event>
<event>
 7    1  0.2666594E-009  0.1729269E+03  0.7561462E-02  0.1174830E+00
          4   -1    0    0  501    0  0.00000000000E+00  0.00000000000E+00  0.13555286985E+03  0.13555286985E+03  0.00000000000E+00 0. -1.
         -4   -1    0    0    0  501 -0.00000000000E+00 -0.00000000000E+00 -0.27613094901E+03  0.27613094901E+03  0.00000000000E+00 0.  1.
         25    2    1    2    0    0 -0.54680632714E+02  0.14368287653E+03 -0.11893718819E+03  0.23114834400E+03  0.12509501029E+03 0.  0.
          5    1    3    3  502    0 -0.82853193076E+02  0.13910204322E+03 -0.74751194263E+02  0.17837949287E+03  0.41800000000E+01 0.  1.
         -5    1    3    3    0  502  0.28172560362E+02  0.45808333085E+01 -0.44185993925E+02  0.52768851137E+02  0.41800000000E+01 0.  1.
        -11    1    1    2    0    0  0.13308663745E+01 -0.23685917496E+02 -0.41419618950E+02  0.47732365612E+02  0.00000000000E+00 0. -1.
         11    1    1    2    0    0  0.53349766339E+02 -0.11999695903E+03  0.19778727973E+02  0.13280310925E+03  0.00000000000E+00 0.  1.
</event>
<event>
 7    1  0.2666594E-009  0.9049739E+02  0.7561462E-02  0.1301652E+00
         -1   -1    0    0    0  501 -0.00000000000E+00  0.00000000000E+00  0.87635931958E+02  0.87635931958E+02  0.00000000000E+00 0.  1.
          1   -1    0    0  501    0  0.00000000000E+00 -0.00000000000E+00 -0.33184342503E+03  0.33184342503E+03  0.00000000000E+00 0. -1.
         25    2    1    2    0    0 -0.66925298490E+02 -0.28417242151E+02 -0.26259466697E+03  0.29981653817E+03  0.12508981659E+03 0.  0.
          5    1    3    3  502    0 -0.34587055804E+02 -0.33835155856E+01 -0.10056223118E+01  0.35017085589E+02  0.41800000000E+01 0.  1.
         -5    1    3    3    0  502 -0.32338242685E+02 -0.25033726565E+02 -0.26158904465E+03  0.26479945258E+03  0.41800000000E+01 0.  1.
        -11    1    1    2    0    0 -0.12471204428E+02  0.21922771772E+02  0.29962104539E+02  0.39164608647E+02  0.00000000000E+00 0.  1.
         11    1    1    2    0    0  0.79396502918E+02  0.64944703787E+01 -0.11574930648E+02  0.80498210170E+02  0.00000000000E+00 0. -1.
</event>
<event>
 7    1  0.2666594E-009  0.2314147E+03  0.7561462E-02  0.1125648E+00
          2   -1    0    0  501    0  0.00000000000E+00  0.00000000000E+00  0.37652762763E+03  0.37652762763E+03  0.00000000000E+00 0.  1.
         -2   -1    0    0    0  501 -0.00000000000E+00 -0.00000000000E+00 -0.23967518912E+03  0.23967518912E+03  0.00000000000E+00 0. -1.
         25    2    1    2    0    0  0.70977961400E+02 -0.20452033456E+03  0.25111667010E+03  0.35436329613E+03  0.12508926967E+03 0.  0.
          5    1    3    3  502    0 -0.11037155244E+02 -0.70937972356E+02  0.19237674443E+02  0.74441757340E+02  0.41800000000E+01 0. -1.
         -5    1    3    3    0  502  0.82015116644E+02 -0.13358236220E+03  0.23187899566E+03  0.27992153879E+03  0.41800000000E+01 0. -1.
        -11    1    1    2    0    0 -0.87475339674E+02  0.12297826352E+03 -0.59408642952E+02  0.16218808590E+03  0.00000000000E+00 0. -1.
         11    1    1    2    0    0  0.16497378274E+02  0.81542071037E+02 -0.54855588632E+02  0.99651434727E+02  0.00000000000E+00 0.  1.
</event>
<event>
 7    1  0.2666594E-009  0.9862042E+02  0.7561462E-02  0.1283224E+00
          1   -1    0    0  501    0  0.00000000000E+00  0.00000000000E+00  0.78004220893E+02  0.78004220893E+02  0.00000000000E+00 0. -1.
         -1   -1    0    0    0  501 -0.00000000000E+00 -0.00000000000E+00 -0.20316059988E+03  0.20316059988E+03  0.00000000000E+00 0.  1.
         25    2    1    2    0    0  0.49852575899E+02 -0.23335500012E+01 -0.11272512985E+03  0.17563560178E+03  0.12510069917E+03 0.  0.
          5    1    3    3  502    0  0.53205557841E+02 -0.41809497389E+02 -0.11735389493E+03  0.13552960751E+03  0.41800000000E+01 0.  1.
         -5    1    3    3    0  502 -0.33529819424E+01  0.39475947387E+02  0.46287650780E+01  0.40105994268E+02  0.41800000000E+01 0.  1.
        -11    1    1    2    0    0 -0.14742156786E+02  0.37267592056E+02  0.21511377215E+02  0.45485645582E+02  0.00000000000E+00 0.  1.
         11    1    1    2    0    0 -0.35110419113E+02 -0.34934042055E+02 -0.33942626355E+02  0.60043573415E+02  0.00000000000E+00 0. -1.
</event>
<event>
 7    1  0.2666594E-009  0.1364692E+03  0.7561462E-02  0.1218160E+00
          2   -1    0    0  501    0  0.00000000000E+00  0.00000000000E+00  0.84005116181E+02  0.84005116181E+02  0.00000000000E+00 0. -1.
         -2   -1    0    0    0  501 -0.00000000000E+00 -0.00000000000E+00 -0.24311763446E+03  0.24311763446E+03  0.00000000000E+00 0.  1.
         25    2    1    2    0    0  0.82727856136E+02  0.41753125602E+02 -0.72025752767E+02  0.17153627116E+03  0.12509900712E+03 0.  0.
          5    1    3    3  502    0 -0.29434243600E+02  0.28082410414E+01  0.45281726466E+01  0.30203272366E+02  0.41800000000E+01 0. -1.
         -5    1    3    3    0  502  0.11216209974E+03  0.38944884561E+02 -0.76553925413E+02  0.14133299879E+03  0.41800000000E+01 0. -1.
        -11    1    1    2    0    0 -0.99601995347E+02 -0.31220420313E+02 -0.86699564015E+02  0.13569114386E+03  0.00000000000E+00 0.  1.
         11    1    1    2    0    0  0.16874139211E+02 -0.10532705289E+02 -0.38720150072E+00  0.19895335630E+02  0.00000000000E+00 0. -1.
</event>
<event>
 7    1  0.2666594E-009  0.1172920E+03  0.7561462E-02  0.1247632E+00
         -2   -1    0    0    0  501 -0.00000000000E+00  0.00000000000E+00  0.25359652398E+03  0.25359652398E+03  0.00000000000E+00 0.  1.
          2   -1    0    0  501    0  0.00000000000E+00 -0.00000000000E+00 -0.73202547405E+02  0.73202547405E+02  0.00000000000E+00 0. -1.
         25    2    1    2    0    0  0.52299118194E+02 -0.32549452717E+02  0.16473996747E+03  0.21582909728E+03  0.12509307621E+03 0.  0.
          5    1    3    3  502    0 -0.40336884442E+02 -0.18418277453E+00  0.58079829575E+02  0.70836693692E+02  0.41800000000E+01 0.  1.
         -5    1    3    3    0  502  0.92636002635E+02 -0.32365269942E+02  0.10666013789E+03  0.14499240359E+03  0.41800000000E+01 0.  1.
        -11    1    1    2    0    0 -0.21563873326E+02 -0.23498023031E+02  0.31803126773E+02  0.45039944402E+02  0.00000000000E+00 0.  1.
         11    1    1    2    0    0 -0.30735244868E+02  0.56047475748E+02 -0.16149117670E+02  0.65930029701E+02  0.00000000000E+00 0. -1.
</event>
<event>
 7    1  0.2666594E-009  0.1521585E+03  0.7561462E-02  0.1197845E+00
         -1   -1    0    0    0  501 -0.00000000000E+00  0.00000000000E+00  0.47358340215E+02  0.47358340215E+02  0.00000000000E+00 0.  1.
          1   -1    0    0  501    0  0.00000000000E+00 -0.00000000000E+00 -0.80232527556E+03  0.80232527556E+03  0.00000000000E+00 0. -1.
         25    2    1    2    0    0 -0.87949612027E+01 -0.13800368617E+03 -0.21617871502E+03  0.28548521540E+03  0.12508478182E+03 0.  0.
          5    1    3    3  502    0 -0.29107859132E+02 -0.65789230784E+01  0.17137520111E+01  0.30182097973E+02  0.41800000000E+01 0. -1.
         -5    1    3    3    0  502  0.20312897929E+02 -0.13142476309E+03 -0.21789246703E+03  0.25530311742E+03  0.41800000000E+01 0. -1.
        -11    1    1    2    0    0  0.17873734634E+02  0.60094436548E+02 -0.96978063190E+02  0.11547967974E+03  0.00000000000E+00 0.  1.
         11    1    1    2    0    0 -0.90787734316E+01  0.77909249620E+02 -0.44181015713E+03  0.44871872063E+03  0.00000000000E+00 0. -1.
</event>
<event>
 7    1  0.2666594E-009  0.8390875E+02  0.7561462E-02  0.1318311E+00
          3   -1    0    0  501    0  0.00000000000E+00  0.00000000000E+00  0.10997879006E+03  0.10997879006E+03  0.00000000000E+00 0. -1.
         -3   -1    0    0    0  501 -0.00000000000E+00 -0.00000000000E+00 -0.14970596607E+03  0.14970596607E+03  0.00000000000E+00 0.  1.
         25    2    1    2    0    0  0.41498879027E+02 -0.55452822395E+02 -0.12627497590E+02  0.14355561341E+03  0.12510630670E+03 0.  0.
          5    1    3    3  502    0  0.47923151507E+02 -0.14592449781E+02 -0.61475259127E+02  0.79411887811E+02  0.41800000000E+01 0.  1.
         -5    1    3    3    0  502 -0.64242724802E+01 -0.40860372613E+02  0.48847761536E+02  0.64143725602E+02  0.41800000000E+01 0.  1.
        -11    1    1    2    0    0 -0.28619730781E+02  0.12676056655E+02 -0.55125477839E+02  0.63392347403E+02  0.00000000000E+00 0.  1.
         11    1    1    2    0    0 -0.12879148245E+02  0.42776765740E+02  0.28025799424E+02  0.52736795315E+02  0.00000000000E+00 0. -1.
</event>
<event>
 7    1  0.2666594E-009  0.8920921E+02  0.7561462E-02  0.1304778E+00
          2   -1    0    0  501    0  0.00000000000E+00  0.00000000000E+00  0.10152637955E+03  0.10152637955E+03  0.00000000000E+00 0. -1.
         -2   -1    0    0    0  501 -0.00000000000E+00 -0.00000000000E+00 -0.12785884174E+03  0.12785884174E+03  0.00000000000E+00 0.  1.
         25    2    1    2    0    0  0.23678450419E+02 -0.12815825453E+02 -0.38433239869E+02  0.13360390185E+03  0.12509186331E+03 0.  0.
          5    1    3    3  502    0  0.32422027394E+02  0.51936454646E+02 -0.98108571271E+01  0.62147473795E+02  0.41800000000E+01 0. -1.
         -5    1    3    3    0  502 -0.87435769751E+01 -0.64752280099E+02 -0.28622382742E+02  0.71456428053E+02  0.41800000000E+01 0. -1.
        -11    1    1    2    0    0 -0.28118425063E+02 -0.88362190357E+01 -0.33794067754E+02  0.44841538893E+02  0.00000000000E+00 0.  1.
         11    1    1    2    0    0  0.44399746443E+01  0.21652044488E+02  0.45894845428E+02  0.50939780548E+02  0.00000000000E+00 0. -1.
</event>
<event>
 7    1  0.2666594E-009  0.1075139E+03  0.7561462E-02  0.1265244E+00
          2   -1    0    0  501    0  0.00000000000E+00  0.00000000000E+00  0.41517748929E+02  0.41517748929E+02  0.00000000000E+00 0. -1.
         -2   -1    0    0    0  501 -0.00000000000E+00 -0.00000000000E+00 -0.32711958371E+03  0.32711958371E+03  0.00000000000E+00 0.  1.
         25    2    1    2    0    0  0.35651735463E+02  0.24040714830E+02 -0.14279943535E+03  0.19465992267E+03  0.12510717224E+03 0.  0.
          5    1    3    3  502    0  0.73146022943E+02 -0.14848981949E+02 -0.60710741501E+02  0.96302125994E+02  0.41800000000E+01 0.  1.
         -5    1    3    3    0  502 -0.37494287480E+02  0.38889696779E+02 -0.82088693850E+02  0.98357796677E+02  0.41800000000E+01 0.  1.
        -11    1    1    2    0    0 -0.48357892053E+02 -0.42027514990E+02 -0.58202556813E+02  0.86558277245E+02  0.00000000000E+00 0. -1.
         11    1    1    2    0    0  0.12706156589E+02  0.17986800160E+02 -0.84599842615E+02  0.87419132721E+02  0.00000000000E+00 0.  1.
</event>
<event>
 7    1  0.2666594E-009  0.8437416E+02  0.7561462E-02  0.1317077E+00
          1   -1    0    0  501    0  0.00000000000E+00  0.00000000000E+00  0.29198716490E+02  0.29198716490E+02  0.00000000000E+00 0. -1.
         -1   -1    0    0    0  501 -0.00000000000E+00 -0.00000000000E+00 -0.42500317442E+03  0.42500317442E+03  0.00000000000E+00 0.  1.
         25    2    1    2    0    0 -0.27924856741E+02  0.14920753461E+02 -0.21511086042E+03  0.25084650717E+03  0.12509540911E+03 0.  0.
          5    1    3    3  502    0 -0.30581132009E+02 -0.22310504437E+02 -0.61997263174E+01  0.38585920355E+02  0.41800000000E+01 0. -1.
         -5    1    3    3    0  502  0.26562752682E+01  0.37231257898E+02 -0.20891113411E+03  0.21226058682E+03  0.41800000000E+01 0. -1.
        -11    1    1    2    0    0  0.46400124948E+02  0.22352647646E+02 -0.93525644166E+02  0.10676918361E+03  0.00000000000E+00 0.  1.
         11    1    1    2    0    0 -0.18475268207E+02 -0.37273401107E+02 -0.87167953345E+02  0.96586200131E+02  0.00000000000E+00 0. -1.
</event>
<event>
 7    1  0.2666594E-009  0.8933321E+02  0.7561462E-02  0.1304474E+00
         -1   -1    0    0    0  501 -0.00000000000E+00  0.00000000000E+00  0.79225788448E+03  0.79225788448E+03  0.00000000000E+00 0.  1.
          1   -1    0    0  501    0  0.00000000000E+00 -0.00000000000E+00 -0.18161740642E+02  0.18161740642E+02  0.00000000000E+00 0. -1.
         25    2    1    2    0    0  0.19527385678E+02 -0.20810856021E+02  0.58918201125E+03  0.60299082285E+03  0.12509228410E+03 0.  0.
          5    1    3    3  502    0  0.15587938937E+02 -0.65759744283E+02  0.48039486774E+03  0.48514330786E+03  0.41800000000E+01 0.  1.
         -5    1    3    3    0  502  0.39394467406E+01  0.44948888262E+02  0.10878714351E+03  0.11784751499E+03  0.41800000000E+01 0.  1.
        -11    1    1    2    0    0  0.30858304490E+01  0.37442908915E+02  0.17283154758E+03  0.17686785354E+03  0.00000000000E+00 0.  1.
         11    1    1    2    0    0 -0.22613216127E+02 -0.16632052894E+02  0.12082585014E+02  0.30560948737E+02  0.00000000000E+00 0. -1.
</event>
<event>
 7    1  0.2666594E-009  0.1421664E+03  0.7561462E-02  0.1210443E+00
          3   -1    0    0  501    0  0.00000000000E+00  0.00000000000E+00  0.94295713139E+02  0.94295713139E+02  0.00000000000E+00 0. -1.
         -3   -1    0    0    0  501 -0.00000000000E+00 -0.00000000000E+00 -0.25533809544E+03  0.25533809544E+03  0.00000000000E+00 0.  1.
         25    2    1    2    0    0 -0.88717156601E+02 -0.31063040170E+02 -0.18447029011E+02  0.15755559498E+03  0.12509127184E+03 0.  0.
          5    1    3    3  502    0 -0.59258323617E+02  0.44649873815E+02 -0.82335596614E+00  0.74318977823E+02  0.41800000000E+01 0. -1.
         -5    1    3    3    0  502 -0.29458832984E+02 -0.75712913984E+02 -0.17623673045E+02  0.83236617161E+02  0.41800000000E+01 0. -1.
        -11    1    1    2    0    0  0.28496381665E+02  0.56513021031E+02 -0.71800654415E+02  0.95713631675E+02  0.00000000000E+00 0.  1.
         11    1    1    2    0    0  0.60220774936E+02 -0.25449980862E+02 -0.70794698872E+02  0.96364581918E+02  0.00000000000E+00 0. -1.
</event>
<event>
 7    1  0.2685663E-009  0.1935532E+03  0.7561462E-02  0.1155295E+00
         -1   -1    0    0    0  501 -0.00000000000E+00  0.00000000000E+00  0.25124294289E+03  0.25124294289E+03  0.00000000000E+00 0.  1.
          1   -1    0    0  501    0  0.00000000000E+00 -0.00000000000E+00 -0.17917245978E+03  0.17917245978E+03  0.00000000000E+00 0. -1.
         25    2    1    2    0    0  0.15140563327E+01 -0.17248957596E+03  0.96597709772E+02  0.23395338900E+03  0.12509246384E+03 0.  0.
          5    1    3    3  502    0 -0.44946320106E+02 -0.17851980934E+02  0.64205604822E+01  0.48964894683E+02  0.41800000000E+01 0. -1.
         -5    1    3    3    0  502  0.46460376439E+02 -0.15463759503E+03  0.90177149290E+02  0.18498849432E+03  0.41800000000E+01 0. -1.
        -11    1    1    2    0    0  0.17877707893E+02  0.51606832378E+02  0.30143064048E+02  0.62381743305E+02  0.00000000000E+00 0.  1.
         11    1    1    2    0    0 -0.19391764225E+02  0.12088274359E+03 -0.54670290710E+02  0.13408027037E+03  0.00000000000E+00 0. -1.
</event>
<event>
 7    1  0.2666594E-009  0.2233923E+03  0.7561462E-02  0.1131379E+00
          1   -1    0    0  501    0  0.00000000000E+00  0.00000000000E+00  0.54892571290E+03  0.54892571290E+03  0.00000000000E+00 0. -1.
         -1   -1    0    0    0  501 -0.00000000000E+00 -0.00000000000E+00 -0.10592554333E+03  0.10592554333E+03  0.00000000000E+00 0.  1.
         25    2    1    2    0    0  0.14331331390E+03 -0.14361294668E+03  0.13320090882E+03  0.27304463219E+03  0.12508998626E+03 0.  0.
          5    1    3    3  502    0  0.11236298852E+03 -0.24370807426E+02  0.66629336787E+02  0.13295231613E+03  0.41800000000E+01 0.  1.
         -5    1    3    3    0  502  0.30950325376E+02 -0.11924213926E+03  0.66571572035E+02  0.14009231606E+03  0.41800000000E+01 0.  1.
        -11    1    1    2    0    0 -0.13755934440E+03  0.11504225052E+03  0.30266750933E+03  0.35180237896E+03  0.00000000000E+00 0. -1.
         11    1    1    2    0    0 -0.57539694910E+01  0.28570696161E+02  0.71317514187E+01  0.30004245071E+02  0.00000000000E+00 0.  1.
</event>
<event>
 7    1  0.2666594E-009  0.9523599E+02  0.7561462E-02  0.1290645E+00
          2   -1    0    0  501    0  0.00000000000E+00  0.00000000000E+00  0.10051976725E+03  0.10051976725E+03  0.00000000000E+00 0.  1.
         -2   -1    0    0    0  501 -0.00000000000E+00 -0.00000000000E+00 -0.17518046008E+03  0.17518046008E+03  0.00000000000E+00 0. -1.
         25    2    1    2    0    0  0.45319882488E+02  0.62354915909E+01  0.19459270430E+02  0.13461960587E+03  0.12510396467E+03 0.  0.
          5    1    3    3  502    0 -0.19888037139E+02 -0.36334406709E+01 -0.40455807926E+02  0.45418946567E+02  0.41800000000E+01 0. -1.
         -5    1    3    3    0  502  0.65207919627E+02  0.98689322618E+01  0.59915078356E+02  0.89200659305E+02  0.41800000000E+01 0. -1.
        -11    1    1    2    0    0 -0.52495439410E+02 -0.42023579531E+02 -0.49865528322E+02  0.83715729169E+02  0.00000000000E+00 0.  1.
         11    1    1    2    0    0  0.71755569225E+01  0.35788087940E+02 -0.44254434943E+02  0.57364892292E+02  0.00000000000E+00 0. -1.
</event>
<event>
 7    1  0.2666594E-009  0.1748457E+03  0.7561462E-02  0.1172887E+00
          1   -1    0    0  501    0  0.00000000000E+00  0.00000000000E+00  0.74681135922E+02  0.74681135922E+02  0.00000000000E+00 0. -1.
         -1   -1    0    0    0  501 -0.00000000000E+00 -0.00000000000E+00 -0.48445294630E+03  0.48445294630E+03  0.00000000000E+00 0.  1.
         25    2    1    2    0    0  0.49342454260E+02 -0.13522101437E+03 -0.30286881839E+03  0.35790558269E+03  0.12508990546E+03 0.  0.
          5    1    3    3  502    0  0.82875251199E+02 -0.52031983966E+02 -0.18921941730E+03  0.21306594027E+03  0.41800000000E+01 0. -1.
         -5    1    3    3    0  502 -0.33532796939E+02 -0.83189030408E+02 -0.11364940108E+03  0.14483964242E+03  0.41800000000E+01 0. -1.
        -11    1    1    2    0    0 -0.64513616967E+02  0.70847601826E+02 -0.31350334645E+02  0.10081782055E+03  0.00000000000E+00 0. -1.
         11    1    1    2    0    0  0.15171162707E+02  0.64373412548E+02 -0.75552657347E+02  0.10041067898E+03  0.00000000000E+00 0.  1.
</event>
<event>
 7    1  0.2666594E-009  0.9334484E+02  0.7561462E-02  0.1294948E+00
          2   -1    0    0  501    0  0.00000000000E+00  0.00000000000E+00  0.51526113325E+02  0.51526113325E+02  0.00000000000E+00 0. -1.
         -2   -1    0    0    0  501 -0.00000000000E+00 -0.00000000000E+00 -0.32237400793E+03  0.32237400793E+03  0.00000000000E+00 0.  1.
         25    2    1    2    0    0  0.45052079094E+02  0.49705263453E+02 -0.14671134331E+03  0.20413711331E+03  0.12508972671E+03 0.  0.
          5    1    3    3  502    0  0.34828729134E+02  0.16175364781E+02  0.12855828941E+02  0.40711516020E+02  0.41800000000E+01 0. -1.
         -5    1    3    3    0  502  0.10223349960E+02  0.33529898672E+02 -0.15956717225E+03  0.16342559729E+03  0.41800000000E+01 0. -1.
        -11    1    1    2    0    0 -0.34332002832E+02  0.21659698470E+02 -0.26998352229E+02  0.48751820267E+02  0.00000000000E+00 0.  1.
         11    1    1    2    0    0 -0.10720076262E+02 -0.71364961923E+02 -0.97138199066E+02  0.12101118768E+03  0.00000000000E+00 0. -1.
</event>
<event>
 7    1  0.2666594E-009  0.8478392E+02  0.7561462E-02  0.1315999E+00
         -2   -1    0    0    0  501 -0.00000000000E+00  0.00000000000E+00  0.54584925768E+02  0.54584925768E+02  0.00000000000E+00 0.  1.
          2   -1    0    0  501    0  0.00000000000E+00 -0.00000000000E+00 -0.27597994434E+03  0.27597994434E+03  0.00000000000E+00 0. -1.
         25    2    1    2    0    0 -0.41108075032E+02  0.51179109344E+02 -0.11992126333E+03  0.18530278745E+03  0.12508732378E+03 0.  0.
          5    1    3    3  502    0 -0.17475941853E+02  0.19267767254E+02  0.24187121576E+02  0.35765131745E+02  0.41800000000E+01 0.  1.
         -5    1    3    3    0  502 -0.23632133179E+02  0.31911342090E+02 -0.14410838491E+03  0.14953765570E+03  0.41800000000E+01 0.  1.
        -11    1    1    2    0    0  0.37388061674E+02 -0.72541242016E+02 -0.73178810310E+02  0.10961403755E+03  0.00000000000E+00 0.  1.
         11    1    1    2    0    0  0.37200133577E+01  0.21362132672E+02 -0.28294944928E+02  0.35648045110E+02  0.00000000000E+00 0. -1.
</event>
<event>
 7    1  0.2666594E-009  0.1179812E+03  0.7561462E-02  0.1246465E+00
         -2   -1    0    0    0  501 -0.00000000000E+00  0.00000000000E+00  0.99123075907E+02  0.99123075907E+02  0.00000000000E+00 0.  1.
          2   -1    0    0  501    0  0.00000000000E+00 -0.00000000000E+00 -0.21996941290E+03  0.21996941290E+03  0.00000000000E+00 0. -1.
         25    2    1    2    0    0  0.27847610105E+02  0.62558616328E+02 -0.14433054098E+03  0.20289810535E+03  0.12508903320E+03 0.  0.
          5    1    3    3  502    0  0.77340738449E+02  0.30197459295E+02 -0.79030287495E+02  0.11470281214E+03  0.41800000000E+01 0.  1.
         -5    1    3    3    0  502 -0.49493128344E+02  0.32361157034E+02 -0.65300253487E+02  0.88195293204E+02  0.41800000000E+01 0.  1.
        -11    1    1    2    0    0  0.15541946989E+01 -0.64088438835E+02 -0.16824703938E+02  0.66278308489E+02  0.00000000000E+00 0. -1.
         11    1    1    2    0    0 -0.29401804804E+02  0.15298225071E+01  0.40308907925E+02  0.49916074974E+02  0.00000000000E+00 0.  1.
</event>
<event>
 7    1  0.2666594E-009  0.1623148E+03  0.7561462E-02  0.1186108E+00
          2   -1    0    0  501    0  0.00000000000E+00  0.00000000000E+00  0.98127358130E+03  0.98127358130E+03  0.00000000000E+00 0. -1.
         -2   -1    0    0    0  501 -0.00000000000E+00 -0.00000000000E+00 -0.50252763962E+02  0.50252763962E+02  0.00000000000E+00 0.  1.
         25    2    1    2    0    0 -0.26301168493E+02  0.13688751687E+03  0.17087359395E+03  0.25352794374E+03  0.12509472175E+03 0.  0.
          5    1    3    3  502    0 -0.38838400517E+02  0.24098914374E+02  0.12116082188E+03  0.12956309733E+03  0.41800000000E+01 0.  1.
         -5    1    3    3    0  502  0.12537232024E+02  0.11278860250E+03  0.49712772061E+02  0.12396484642E+03  0.41800000000E+01 0.  1.
        -11    1    1    2    0    0 -0.67960392640E+01 -0.13145549520E+03  0.57922382291E+03  0.59399239928E+03  0.00000000000E+00 0.  1.
         11    1    1    2    0    0  0.33097207757E+02 -0.54320216705E+01  0.18092340048E+03  0.18400600224E+03  0.00000000000E+00 0. -1.
</event>
<event>
 7    1  0.2666594E-009  0.1174566E+03  0.7561462E-02  0.1247353E+00
         -1   -1    0    0    0  501 -0.00000000000E+00  0.00000000000E+00  0.45256012523E+02  0.45256012523E+02  0.00000000000E+00 0.  1.
          1   -1    0    0  501    0  0.00000000000E+00 -0.00000000000E+00 -0.62376938026E+03  0.62376938026E+03  0.00000000000E+00 0. -1.
         25    2    1    2    0    0 -0.59997290288E+02  0.42841697994E+02 -0.48300837910E+03  0.50436068498E+03  0.12509004896E+03 0.  0.
          5    1    3    3  502    0 -0.95920050738E+01 -0.31762358389E+02 -0.39356023662E+02  0.51645164055E+02  0.41800000000E+01 0. -1.
         -5    1    3    3    0  502 -0.50405285214E+02  0.74604056382E+02 -0.44365235544E+03  0.45271552093E+03  0.41800000000E+01 0. -1.
        -11    1    1    2    0    0  0.63080873041E+02 -0.64055825243E+02 -0.28495571238E+02  0.94309823833E+02  0.00000000000E+00 0.  1.
         11    1    1    2    0    0 -0.30835827533E+01  0.21214127249E+02 -0.67009417400E+02  0.70354883966E+02  0.00000000000E+00 0. -1.
</event>
<event>
 7    1  0.2666594E-009  0.2057957E+03  0.7561462E-02  0.1144939E+00
          2   -1    0    0  501    0  0.00000000000E+00  0.00000000000E+00  0.66149534742E+03  0.66149534742E+03  0.00000000000E+00 0.  1.
         -2   -1    0    0    0  501 -0.00000000000E+00 -0.00000000000E+00 -0.71539787694E+02  0.71539787694E+02  0.00000000000E+00 0. -1.
         25    2    1    2    0    0 -0.51876554074E+02 -0.18148903686E+03  0.32170773269E+03  0.39341135056E+03  0.12508868101E+03 0.  0.
          5    1    3    3  502    0 -0.67007116941E+01 -0.17707452688E+03  0.22443153163E+03  0.28598474155E+03  0.41800000000E+01 0. -1.
         -5    1    3    3    0  502 -0.45175842380E+02 -0.44145099825E+01  0.97276201052E+02  0.10742660901E+03  0.41800000000E+01 0. -1.
        -11    1    1    2    0    0  0.32421811934E+02  0.11307613216E+03  0.23125425863E+03  0.25945311270E+03  0.00000000000E+00 0.  1.
         11    1    1    2    0    0  0.19454742140E+02  0.68412904707E+02  0.36993568407E+02  0.80170671855E+02  0.00000000000E+00 0. -1.
</event>
<event>
 7    1  0.2666594E-009  0.1014910E+03  0.7561462E-02  0.1277191E+00
         -1   -1    0    0    0  501 -0.00000000000E+00  0.00000000000E+00  0.75120108953E+02  0.75120108953E+02  0.00000000000E+00 0.  1.
          1   -1    0    0  501    0  0.00000000000E+00 -0.00000000000E+00 -0.16793420532E+03  0.16793420532E+03  0.00000000000E+00 0. -1.
         25    2    1    2    0    0  0.15409871707E+02 -0.20824804821E+02 -0.56113841650E+02  0.13952779907E+03  0.12509239324E+03 0.  0.
          5    1    3    3  502    0  0.28646989546E+02  0.37980143059E+02 -0.62625941819E+02  0.78756728382E+02  0.41800000000E+01 0.  1.
         -5    1    3    3    0  502 -0.13237117838E+02 -0.58804947880E+02  0.65121001689E+01  0.60771070687E+02  0.41800000000E+01 0.  1.
        -11    1    1    2    0    0  0.38166954645E+02  0.14615758053E+02 -0.26291009537E+02  0.48595822792E+02  0.00000000000E+00 0. -1.
         11    1    1    2    0    0 -0.53576826352E+02  0.62090467682E+01 -0.10409245182E+02  0.54930692414E+02  0.00000000000E+00 0.  1.
</event>
<event>
 7    1  0.2666594E-009  0.1234670E+03  0.7561462E-02  0.1237485E+00
          2   -1    0    0  501    0  0.00000000000E+00  0.00000000000E+00  0.31290311775E+03  0.31290311775E+03  0.00000000000E+00 0.  1.
         -2   -1    0    0    0  501 -0.00000000000E+00 -0.00000000000E+00 -0.56439290925E+02  0.56439290925E+02  0.00000000000E+00 0. -1.
         25    2    1    2    0    0  0.71700997855E+02  0.28039868034E+02  0.13144658436E+03  0.19711351793E+03  0.12509303385E+03 0.  0.
          5    1    3    3  502    0  0.54392145050E+02 -0.39267188386E+02  0.28898564924E+02  0.73164314946E+02  0.41800000000E+01 0. -1.
         -5    1    3    3    0  502  0.17308852804E+02  0.67307056419E+02  0.10254801944E+03  0.12394920298E+03  0.41800000000E+01 0. -1.
        -11    1    1    2    0    0  0.17220169642E+02 -0.77799494010E+01  0.52232102006E+02  0.55545065803E+02  0.00000000000E+00 0.  1.
         11    1    1    2    0    0 -0.88921167497E+02 -0.20259918633E+02  0.72785140459E+02  0.11668382494E+03  0.00000000000E+00 0. -1.
</event>
<event>
 7    1  0.2666594E-009  0.1274777E+03  0.7561462E-02  0.1231247E+00
          1   -1    0    0  501    0  0.00000000000E+00  0.00000000000E+00  0.11388965968E+04  0.11388965968E+04  0.00000000000E+00 0. -1.
         -1   -1    0    0    0  501 -0.00000000000E+00 -0.00000000000E+00 -0.15059388367E+02  0.15059388367E+02  0.00000000000E+00 0.  1.
         25    2    1    2    0    0 -0.28572195233E+02  0.61536496945E+02  0.74499183329E+03  0.75846156639E+03  0.12509198705E+03 0.  0.
          5    1    3    3  502    0  0.27899494470E+02 -0.25758248639E+02  0.20933998973E+03  0.21279702268E+03  0.41800000000E+01 0. -1.
         -5    1    3    3    0  502 -0.56471689703E+02  0.87294745585E+02  0.53565184357E+03  0.54566454371E+03  0.41800000000E+01 0. -1.
        -11    1    1    2    0    0  0.38825718985E+02 -0.81490705547E+02  0.32101785233E+03  0.33346758922E+03  0.00000000000E+00 0. -1.
         11    1    1    2    0    0 -0.10253523752E+02  0.19954208601E+02  0.57827522794E+02  0.62026829539E+02  0.00000000000E+00 0.  1.
</event>
<event>
 7    1  0.2666594E-009  0.1622354E+03  0.7561462E-02  0.1186196E+00
          1   -1    0    0  501    0  0.00000000000E+00  0.00000000000E+00  0.86302756520E+03  0.86302756520E+03  0.00000000000E+00 0. -1.
         -1   -1    0    0    0  501 -0.00000000000E+00 -0.00000000000E+00 -0.37024756605E+02  0.37024756605E+02  0.00000000000E+00 0.  1.
         25    2    1    2    0    0  0.84371325883E+02 -0.11186778387E+03  0.49189926485E+03  0.52653938070E+03  0.12508361590E+03 0.  0.
          5    1    3    3  502    0  0.11351533973E+02 -0.10805849018E+03  0.22693546354E+03  0.25163996431E+03  0.41800000000E+01 0.  1.
         -5    1    3    3    0  502  0.73019791910E+02 -0.38092936947E+01  0.26496380131E+03  0.27489941639E+03  0.41800000000E+01 0.  1.
        -11    1    1    2    0    0 -0.34984535382E+02  0.26551304053E+02  0.21240065825E+03  0.21689381985E+03  0.00000000000E+00 0. -1.
         11    1    1    2    0    0 -0.49386790502E+02  0.85316479822E+02  0.12170288548E+03  0.15661912125E+03  0.00000000000E+00 0.  1.
</event>
<event>
 7    1  0.2666594E-009  0.8960709E+02  0.7561462E-02  0.1303806E+00
         -4   -1    0    0    0  501 -0.00000000000E+00  0.00000000000E+00  0.30198223565E+03  0.30198223565E+03  0.00000000000E+00 0.  1.
          4   -1    0    0  501    0  0.00000000000E+00 -0.00000000000E+00 -0.53812654611E+02  0.53812654611E+02  0.00000000000E+00 0. -1.
         25    2    1    2    0    0 -0.16287442913E+02  0.62139717188E+02  0.16102345824E+03  0.21378176397E+03  0.12508982075E+03 0.  0.
          5    1    3    3  502    0 -0.69535449652E-01  0.35924248914E+02  0.17570083600E+03  0.17938453854E+03  0.41800000000E+01 0. -1.
         -5    1    3    3    0  502 -0.16217907464E+02  0.26215468275E+02 -0.14677377763E+02  0.34397225431E+02  0.41800000000E+01 0. -1.
        -11    1    1    2    0    0  0.52748190451E+02 -0.52056209117E+02  0.53719773716E+02  0.91531604332E+02  0.00000000000E+00 0. -1.
         11    1    1    2    0    0 -0.36460747538E+02 -0.10083508071E+02  0.33426349078E+02  0.50481521953E+02  0.00000000000E+00 0.  1.
</event>
<event>
 7    1  0.2666594E-009  0.9490595E+02  0.7561462E-02  0.1291388E+00
          1   -1    0    0  501    0  0.00000000000E+00  0.00000000000E+00  0.79453689262E+02  0.79453689262E+02  0.00000000000E+00 0. -1.
         -1   -1    0    0    0  501 -0.00000000000E+00 -0.00000000000E+00 -0.27323639934E+03  0.27323639934E+03  0.00000000000E+00 0.  1.
         25    2    1    2    0    0  0.43698016212E+02 -0.51437404546E+02 -0.19025404415E+03  0.23748334756E+03  0.12508563406E+03 0.  0.
          5    1    3    3  502    0  0.47071202304E+02  0.64058644366E+01 -0.10848530487E+02  0.48907015850E+02  0.41800000000E+01 0. -1.
         -5    1    3    3    0  502 -0.33731860921E+01 -0.57843268983E+02 -0.17940551366E+03  0.18857633171E+03  0.41800000000E+01 0. -1.
        -11    1    1    2    0    0  0.73189337866E+01  0.26026537292E+02 -0.39458131782E+02  0.47831909840E+02  0.00000000000E+00 0.  1.
         11    1    1    2    0    0 -0.51016949999E+02  0.25410867254E+02  0.35929465856E+02  0.67374831195E+02  0.00000000000E+00 0. -1.
</event>
<event>
 7    1  0.2666594E-009  0.9136062E+02  0.7561462E-02  0.1299590E+00
         -1   -1    0    0    0  501 -0.00000000000E+00  0.00000000000E+00  0.26360592288E+03  0.26360592288E+03  0.00000000000E+00 0.  1.
          1   -1    0    0  501    0  0.00000000000E+00 -0.00000000000E+00 -0.54694915214E+02  0.54694915214E+02  0.00000000000E+00 0. -1.
         25    2    1    2    0    0  0.51597568792E+02  0.52775485491E+01  0.12019859867E+03  0.18107633380E+03  0.12510305318E+03 0.  0.
          5    1    3    3  502    0  0.81816317327E+02 -0.25758681257E+02  0.10343979188E+03  0.13444211537E+03  0.41800000000E+01 0.  1.
         -5    1    3    3    0  502 -0.30218748535E+02  0.31036229806E+02  0.16758806792E+02  0.46634218431E+02  0.41800000000E+01 0.  1.
        -11    1    1    2    0    0 -0.19090803089E+02 -0.80113773299E+01  0.10044557009E+03  0.10255707425E+03  0.00000000000E+00 0.  1.
         11    1    1    2    0    0 -0.32506765703E+02  0.27338287808E+01 -0.11733161093E+02  0.34667430039E+02  0.00000000000E+00 0. -1.
</event>
<event>
 7    1  0.2666594E-009  0.1213906E+03  0.7561462E-02  0.1240821E+00
         -1   -1    0    0    0  501 -0.00000000000E+00  0.00000000000E+00  0.44209350808E+02  0.44209350808E+02  0.00000000000E+00 0.  1.
          1   -1    0    0  501    0  0.00000000000E+00 -0.00000000000E+00 -0.42348373903E+03  0.42348373903E+03  0.00000000000E+00 0. -1.
         25    2    1    2    0    0 -0.10761659537E+02 -0.71103937548E+02 -0.13748718087E+03  0.19930376136E+03  0.12509069165E+03 0.  0.
          5    1    3    3  502    0  0.15767588970E+01  0.29572855127E+02 -0.19603381161E+01  0.29972575040E+02  0.41800000000E+01 0. -1.
         -5    1    3    3    0  502 -0.12338418434E+02 -0.10067679267E+03 -0.13552684275E+03  0.16933118632E+03  0.41800000000E+01 0. -1.
        -11    1    1    2    0    0 -0.17952615793E+01  0.89261771846E+02 -0.15534946443E+03  0.17917684833E+03  0.00000000000E+00 0.  1.
         11    1    1    2    0    0  0.12556921116E+02 -0.18157834298E+02 -0.86437742920E+02  0.89212480155E+02  0.00000000000E+00 0. -1.
</event>
<event>
 7    1  0.2666594E-009  0.2423984E+03  0.7561462E-02  0.1118205E+00
         -1   -1    0    0    0  501 -0.00000000000E+00  0.00000000000E+00  0.72120524297E+02  0.72120524297E+02  0.00000000000E+00 0.  1.
          1   -1    0    0  501    0  0.00000000000E+00 -0.00000000000E+00 -0.89668636413E+03  0.89668636413E+03  0.00000000000E+00 0. -1.
         25    2    1    2    0    0 -0.72493316204E+02  0.21380677809E+03 -0.50221454214E+03  0.56465465532E+03  0.12508722627E+03 0.  0.
          5    1    3    3  502    0  0.43535601440E+01  0.16866502522E+03 -0.33609392628E+03  0.37608967535E+03  0.41800000000E+01 0.  1.
         -5    1    3    3    0  502 -0.76846876348E+02  0.45141752875E+02 -0.16612061586E+03  0.18856497997E+03  0.41800000000E+01 0.  1.
        -11    1    1    2    0    0  0.90882257661E+01 -0.10758071385E+02  0.39601691654E+01  0.14629247667E+02  0.00000000000E+00 0.  1.
         11    1    1    2    0    0  0.63405090438E+02 -0.20304870671E+03 -0.32631146685E+03  0.38952298544E+03  0.00000000000E+00 0. -1.
</event>
<event>
 7    1  0.2666594E-009  0.1123490E+03  0.7561462E-02  0.1256281E+00
          3   -1    0    0  501    0  0.00000000000E+00  0.00000000000E+00  0.13832692115E+03  0.13832692115E+03  0.00000000000E+00 0. -1.
         -3   -1    0    0    0  501 -0.00000000000E+00 -0.00000000000E+00 -0.10424772668E+03  0.10424772668E+03  0.00000000000E+00 0.  1.
         25    2    1    2    0    0  0.44732722915E+02 -0.70775617171E+00  0.46794864912E+02  0.14084493342E+03  0.12508404563E+03 0.  0.
          5    1    3    3  502    0  0.51078718199E+02 -0.56584242979E+02  0.29741364864E+02  0.81931881404E+02  0.41800000000E+01 0. -1.
         -5    1    3    3    0  502 -0.63459952848E+01  0.55876486808E+02  0.17053500048E+02  0.58913052017E+02  0.41800000000E+01 0. -1.
        -11    1    1    2    0    0  0.14954176552E+02 -0.23253572632E+02 -0.23781184711E+02  0.36467804743E+02  0.00000000000E+00 0.  1.
         11    1    1    2    0    0 -0.59686899466E+02  0.23961328804E+02  0.11065514268E+02  0.65261909656E+02  0.00000000000E+00 0. -1.
</event>
<event>
 7    1  0.2666594E-009  0.1836304E+03  0.7561462E-02  0.1164335E+00
          1   -1    0    0  501    0  0.00000000000E+00  0.00000000000E+00  0.68672705227E+03  0.68672705227E+03  0.00000000000E+00 0. -1.
         -1   -1    0    0    0  501 -0.00000000000E+00 -0.00000000000E+00 -0.74594516621E+02  0.74594516621E+02  0.00000000000E+00 0.  1.
         25    2    1    2    0    0 -0.19083782640E+02  0.15962493543E+03  0.12192661991E+03  0.23739923754E+03  0.12509191250E+03 0.  0.
          5    1    3    3  502    0  0.39529889965E+02  0.23177646756E+02  0.13017191069E+01  0.46032405786E+02  0.41800000000E+01 0. -1.
         -5    1    3    3    0  502 -0.58613672605E+02  0.13644728868E+03  0.12062490080E+03  0.19136683176E+03  0.41800000000E+01 0. -1.
        -11    1    1    2    0    0 -0.11450108303E+02 -0.12875938659E+03  0.26839954295E+03  0.29790669558E+03  0.00000000000E+00 0.  1.
         11    1    1    2    0    0  0.30533890944E+02 -0.30865548841E+02  0.22180637279E+03  0.22601563577E+03  0.00000000000E+00 0. -1.
</event>
<event>
 7    1  0.2666594E-009  0.8833703E+02  0.7561462E-02  0.1306930E+00
         -2   -1    0    0    0  501 -0.00000000000E+00  0.00000000000E+00  0.23170031266E+03  0.23170031266E+03  0.00000000000E+00 0.  1.
          2   -1    0    0  501    0  0.00000000000E+00 -0.00000000000E+00 -0.77664831958E+02  0.77664831958E+02  0.00000000000E+00 0. -1.
         25    2    1    2    0    0 -0.51373543134E+01 -0.54427908084E+02  0.15092334135E+03  0.20350577488E+03  0.12509178973E+03 0.  0.
          5    1    3    3  502    0 -0.13069560537E+02  0.18500867795E+02 -0.11122781397E+02  0.25578979413E+02  0.41800000000E+01 0. -1.
         -5    1    3    3    0  502  0.79322062238E+01 -0.72928775878E+02  0.16204612275E+03  0.17792679547E+03  0.41800000000E+01 0. -1.
        -11    1    1    2    0    0  0.19376877134E+02 -0.42024563112E+01  0.33022463718E+02  0.38517620858E+02  0.00000000000E+00 0.  1.
         11    1    1    2    0    0 -0.14239522821E+02  0.58630364395E+02 -0.29910324365E+02  0.67341748885E+02  0.00000000000E+00 0. -1.
</event>
<event>
 7    1  0.2666594E-009  0.1474170E+03  0.7561462E-02  0.1203683E+00
          4   -1    0    0  501    0  0.00000000000E+00  0.00000000000E+00  0.31938804301E+03  0.31938804301E+03  0.00000000000E+00 0. -1.
         -4   -1    0    0    0  501 -0.00000000000E+00 -0.00000000000E+00 -0.70952265364E+02  0.70952265364E+02  0.00000000000E+00 0.  1.
         25    2    1    2    0    0 -0.22714824527E+02  0.99272851819E+02  0.10016837904E+03  0.18987640864E+03  0.12509310148E+03 0.  0.
          5    1    3    3  502    0 -0.67558830654E+02  0.22943715087E+02  0.33265461024E+02  0.78833197059E+02  0.41800000000E+01 0.  1.
         -5    1    3    3    0  502  0.44844006127E+02  0.76329136732E+02  0.66902918019E+02  0.11104321159E+03  0.41800000000E+01 0.  1.
        -11    1    1    2    0    0 -0.15406644332E+02 -0.95154596457E+02  0.11065802300E+03  0.14675476132E+03  0.00000000000E+00 0. -1.
         11    1    1    2    0    0  0.38121468859E+02 -0.41182553623E+01  0.37609375603E+02  0.53709138407E+02  0.00000000000E+00 0.  1.
</event>
<event>
 7    1  0.2666594E-009  0.1147107E+03  0.7561462E-02  0.1252087E+00
         -2   -1    0    0    0  501 -0.00000000000E+00  0.00000000000E+00  0.46016919915E+02  0.46016919915E+02  0.00000000000E+00 0.  1.
          2   -1    0    0  501    0  0.00000000000E+00 -0.00000000000E+00 -0.33386159442E+03  0.33386159442E+03  0.00000000000E+00 0. -1.
         25    2    1    2    0    0 -0.14799087455E+02 -0.50937441612E+02 -0.12678323460E+03  0.18583656464E+03  0.12509038425E+03 0.  0.
          5    1    3    3  502    0 -0.26952350778E+02  0.31768815825E+02 -0.79124631729E+02  0.89520202288E+02  0.41800000000E+01 0.  1.
         -5    1    3    3    0  502  0.12153263322E+02 -0.82706257436E+02 -0.47658602870E+02  0.96316362348E+02  0.41800000000E+01 0.  1.
        -11    1    1    2    0    0 -0.26729001648E+02  0.55965152588E+02 -0.68141288024E+02  0.92139964006E+02  0.00000000000E+00 0.  1.
         11    1    1    2    0    0  0.41528089104E+02 -0.50277109768E+01 -0.92920151877E+02  0.10190198569E+03  0.00000000000E+00 0. -1.
</event>
<event>
 7    1  0.2666594E-009  0.1197305E+03  0.7561462E-02  0.1243542E+00
         -2   -1    0    0    0  501 -0.00000000000E+00  0.00000000000E+00  0.15850097159E+02  0.15850097159E+02  0.00000000000E+00 0.  1.
          2   -1    0    0  501    0  0.00000000000E+00 -0.00000000000E+00 -0.94982495882E+03  0.94982495882E+03  0.00000000000E+00 0. -1.
         25    2    1    2    0    0  0.44335580506E+01 -0.57284846365E+02 -0.54102128371E+03  0.55825924901E+03  0.12509256421E+03 0.  0.
          5    1    3    3  502    0 -0.56423413933E+02 -0.16094383544E+02 -0.31832682835E+03  0.32371603740E+03  0.41800000000E+01 0.  1.
         -5    1    3    3    0  502  0.60856971983E+02 -0.41190462821E+02 -0.22269445536E+03  0.23454321162E+03  0.41800000000E+01 0.  1.
        -11    1    1    2    0    0  0.17159550649E+02  0.76333871330E+02 -0.30464938287E+03  0.31453546156E+03  0.00000000000E+00 0. -1.
         11    1    1    2    0    0 -0.21593108699E+02 -0.19049024965E+02 -0.88304195070E+02  0.92880345404E+02  0.00000000000E+00 0.  1.
</event>
<event>
 7    1  0.2666594E-009  0.3653064E+03  0.7561462E-02  0.1056502E+00
          1   -1    0    0  501    0  0.00000000000E+00  0.00000000000E+00  0.14598618401E+04  0.14598618401E+04  0.00000000000E+00 0. -1.
         -1   -1    0    0    0  501 -0.00000000000E+00 -0.00000000000E+00 -0.98388155422E+02  0.98388155422E+02  0.00000000000E+00 0.  1.
         25    2    1    2    0    0  0.33135711533E+03 -0.12372879342E+03  0.51995921785E+03  0.64118045399E+03  0.12509370150E+03 0.  0.
          5    1    3    3  502    0  0.21112395569E+03 -0.13371079305E+03  0.30189257394E+03  0.39192920208E+03  0.41800000000E+01 0.  1.
         -5    1    3    3    0  502  0.12023315964E+03  0.99819996290E+01  0.21806664390E+03  0.24925125191E+03  0.41800000000E+01 0.  1.
        -11    1    1    2    0    0 -0.16334959435E+03  0.25469073853E+02  0.45940482758E+03  0.48824641248E+03  0.00000000000E+00 0.  1.
         11    1    1    2    0    0 -0.16800752098E+03  0.98259719565E+02  0.38210963923E+03  0.42882312903E+03  0.00000000000E+00 0. -1.
</event>
<event>
 7    1  0.2666594E-009  0.2648317E+03  0.7561462E-02  0.1104275E+00
          1   -1    0    0  501    0  0.00000000000E+00  0.00000000000E+00  0.12726718935E+03  0.12726718935E+03  0.00000000000E+00 0. -1.
         -1   -1    0    0    0  501 -0.00000000000E+00 -0.00000000000E+00 -0.61587459041E+03  0.61587459041E+03  0.00000000000E+00 0.  1.
         25    2    1    2    0    0 -0.18651919931E+03 -0.17736511960E+03 -0.22255365345E+03  0.36252682257E+03  0.12509105107E+03 0.  0.
          5    1    3    3  502    0 -0.98811907436E+02 -0.76034123806E+02 -0.30714619439E+02  0.12847506093E+03  0.41800000000E+01 0.  1.
         -5    1    3    3    0  502 -0.87707291879E+02 -0.10133099579E+03 -0.19183903401E+03  0.23405176164E+03  0.41800000000E+01 0.  1.
        -11    1    1    2    0    0  0.16099101403E+03  0.18396804391E+03 -0.22776204427E+03  0.33412257719E+03  0.00000000000E+00 0. -1.
         11    1    1    2    0    0  0.25528185282E+02 -0.66029243156E+01 -0.38291703331E+02  0.46492379991E+02  0.00000000000E+00 0.  1.
</event>
<event>
 7    1  0.2666594E-009  0.8961828E+02  0.7561462E-02  0.1303779E+00
          1   -1    0    0  501    0  0.00000000000E+00  0.00000000000E+00  0.36839076450E+03  0.36839076450E+03  0.00000000000E+00 0.  1.
         -1   -1    0    0    0  501 -0.00000000000E+00 -0.00000000000E+00 -0.35508913849E+02  0.35508913849E+02  0.00000000000E+00 0. -1.
         25    2    1    2    0    0  0.25541064978E+02 -0.26535982545E+02  0.18977159499E+03  0.23025450296E+03  0.12508946197E+03 0.  0.
          5    1    3    3  502    0  0.81472471267E+01 -0.53558799679E+02  0.20764554327E+02  0.58168391547E+02  0.41800000000E+01 0. -1.
         -5    1    3    3    0  502  0.17393817852E+02  0.27022817134E+02  0.16900704067E+03  0.17208611141E+03  0.41800000000E+01 0. -1.
        -11    1    1    2    0    0 -0.47203752836E+02 -0.11623220846E+02  0.10426752647E+03  0.11504351620E+03  0.00000000000E+00 0.  1.
         11    1    1    2    0    0  0.21662687857E+02  0.38159203391E+02  0.38842729184E+02  0.58601659184E+02  0.00000000000E+00 0. -1.
</event>
<event>
 7    1  0.2666594E-009  0.1532377E+03  0.7561462E-02  0.1196550E+00
          2   -1    0    0  501    0  0.00000000000E+00  0.00000000000E+00  0.56002765929E+03  0.56002765929E+03  0.00000000000E+00 0. -1.
         -2   -1    0    0    0  501 -0.00000000000E+00 -0.00000000000E+00 -0.62054280367E+02  0.62054280367E+02  0.00000000000E+00 0.  1.
         25    2    1    2    0    0 -0.13015539358E+03 -0.39128570517E+02  0.14700858249E+03  0.23607236402E+03  0.12508863346E+03 0.  0.
          5    1    3    3  502    0  0.12821030938E+02  0.10587712707E+02  0.57863666184E+02  0.60350267265E+02  0.41800000000E+01 0.  1.
         -5    1    3    3    0  502 -0.14297642452E+03 -0.49716283224E+02  0.89144916305E+02  0.17572209676E+03  0.41800000000E+01 0.  1.
        -11    1    1    2    0    0  0.70142872305E+02  0.33173511059E+02  0.29021603837E+03  0.30040947604E+03  0.00000000000E+00 0.  1.
         11    1    1    2    0    0  0.60012521278E+02  0.59550594574E+01  0.60748758070E+02  0.85600099593E+02  0.00000000000E+00 0. -1.
</event>
<event>
 7    1  0.2666594E-009  0.8542400E+02  0.7561462E-02  0.1314327E+00
         -4   -1    0    0    0  501 -0.00000000000E+00  0.00000000000E+00  0.19990688022E+03  0.19990688022E+03  0.00000000000E+00 0.  1.
          4   -1    0    0  501    0  0.00000000000E+00 -0.00000000000E+00 -0.66376372581E+02  0.66376372581E+02  0.00000000000E+00 0. -1.
         25    2    1    2    0    0  0.41756047833E+02  0.47256206190E+01  0.78814789297E+02  0.15370688003E+03  0.12509250552E+03 0.  0.
          5    1    3    3  502    0  0.16583259294E+02  0.37641205146E+02  0.99101978834E+02  0.10738034933E+03  0.41800000000E+01 0. -1.
         -5    1    3    3    0  502  0.25172788539E+02 -0.32915584527E+02 -0.20287189537E+02  0.46326530702E+02  0.41800000000E+01 0. -1.
        -11    1    1    2    0    0  0.22676236640E+02  0.33384023790E+01 -0.59838547199E+01  0.23688882538E+02  0.00000000000E+00 0. -1.
         11    1    1    2    0    0 -0.64432284473E+02 -0.80640229980E+01  0.60699573059E+02  0.88887490227E+02  0.00000000000E+00 0.  1.
</event>
<event>
 7    1  0.2666594E-009  0.1349357E+03  0.7561462E-02  0.1220311E+00
          2   -1    0    0  501    0  0.00000000000E+00  0.00000000000E+00  0.72248490797E+03  0.72248490797E+03  0.00000000000E+00 0. -1.
         -2   -1    0    0    0  501 -0.00000000000E+00 -0.00000000000E+00 -0.28768645591E+02  0.28768645591E+02  0.00000000000E+00 0.  1.
         25    2    1    2    0    0  0.11838524760E+02  0.90735726005E+02  0.44178919914E+03  0.46818552546E+03  0.12508743793E+03 0.  0.
          5    1    3    3  502    0  0.17712022984E+02  0.12166727055E+03  0.36046524970E+03  0.38087965175E+03  0.41800000000E+01 0. -1.
         -5    1    3    3    0  502 -0.58734982242E+01 -0.30931544549E+02  0.81323949445E+02  0.87305873702E+02  0.41800000000E+01 0. -1.
        -11    1    1    2    0    0  0.12527340825E+02  0.70085241233E+01  0.31871486213E+01  0.14704135298E+02  0.00000000000E+00 0.  1.
         11    1    1    2    0    0 -0.24365865585E+02 -0.97744250128E+02  0.24873991462E+03  0.26836389281E+03  0.00000000000E+00 0. -1.
</event>
<event>
 7    1  0.2666594E-009  0.1313356E+03  0.7561462E-02  0.1225487E+00
         -1   -1    0    0    0  501 -0.00000000000E+00  0.00000000000E+00  0.53793990864E+02  0.53793990864E+02  0.00000000000E+00 0.  1.
          1   -1    0    0  501    0  0.00000000000E+00 -0.00000000000E+00 -0.36680224936E+03  0.36680224936E+03  0.00000000000E+00 0. -1.
         25    2    1    2    0    0  0.19516424896E+02  0.86157486050E+02 -0.14715642407E+03  0.21237974780E+03  0.12508453498E+03 0.  0.
          5    1    3    3  502    0  0.49568200691E+02 -0.11343528901E+02 -0.48786302266E+02  0.70592194019E+02  0.41800000000E+01 0.  1.
         -5    1    3    3    0  502 -0.30051775795E+02  0.97501014952E+02 -0.98370121801E+02  0.14178755378E+03  0.41800000000E+01 0.  1.
        -11    1    1    2    0    0 -0.38175551545E+02 -0.81955751949E+02 -0.81496965653E+02  0.12172047249E+03  0.00000000000E+00 0.  1.
         11    1    1    2    0    0  0.18659126649E+02 -0.42017341010E+01 -0.84354868775E+02  0.86496019925E+02  0.00000000000E+00 0. -1.
</event>
<event>
 7    1  0.2666594E-009  0.1019347E+03  0.7561462E-02  0.1276279E+00
         -2   -1    0    0    0  501 -0.00000000000E+00  0.00000000000E+00  0.23932122702E+03  0.23932122702E+03  0.00000000000E+00 0.  1.
          2   -1    0    0  501    0  0.00000000000E+00 -0.00000000000E+00 -0.65327072458E+02  0.65327072458E+02  0.00000000000E+00 0. -1.
         25    2    1    2    0    0  0.44906683586E+02  0.21226932106E+02  0.53066240684E+02  0.14467258860E+03  0.12508772568E+03 0.  0.
          5    1    3    3  502    0 -0.65358533178E+01 -0.39843099376E+02 -0.11177838142E+02  0.42102332620E+02  0.41800000000E+01 0.  1.
         -5    1    3    3    0  502  0.51442536904E+02  0.61070031483E+02  0.64244078827E+02  0.10257025598E+03  0.41800000000E+01 0.  1.
        -11    1    1    2    0    0 -0.78233340847E+01  0.23762162175E+02  0.91126570306E+02  0.94498130792E+02  0.00000000000E+00 0.  1.
         11    1    1    2    0    0 -0.37083349501E+02 -0.44989094282E+02  0.29801343568E+02  0.65477580079E+02  0.00000000000E+00 0. -1.
</event>
<event>
 7    1  0.2666594E-009  0.8275746E+02  0.7561462E-02  0.1321403E+00
          1   -1    0    0  501    0  0.00000000000E+00  0.00000000000E+00  0.15917436472E+03  0.15917436472E+03  0.00000000000E+00 0. -1.
         -1   -1    0    0    0  501 -0.00000000000E+00 -0.00000000000E+00 -0.80456812720E+02  0.80456812720E+02  0.00000000000E+00 0.  1.
         25    2    1    2    0    0 -0.17399741566E+02  0.18496283169E+02  0.22477435907E+02  0.12960481597E+03  0.12508920697E+03 0.  0.
          5    1    3    3  502    0 -0.74627150578E+01  0.72191939912E+02  0.94400281417E+01  0.73307263185E+02  0.41800000000E+01 0. -1.
         -5    1    3    3    0  502 -0.99370265083E+01 -0.53695656743E+02  0.13037407765E+02  0.56297552790E+02  0.41800000000E+01 0. -1.
        -11    1    1    2    0    0 -0.72771166945E+01 -0.90852168023E+01 -0.23392357783E+02  0.26128528362E+02  0.00000000000E+00 0.  1.
         11    1    1    2    0    0  0.24676858261E+02 -0.94110663670E+01  0.79632473880E+02  0.83897833107E+02  0.00000000000E+00 0. -1.
</event>
<event>
 7    1  0.2666594E-009  0.1584319E+03  0.7561462E-02  0.1190479E+00
         -2   -1    0    0    0  501 -0.00000000000E+00  0.00000000000E+00  0.34055978947E+02  0.34055978947E+02  0.00000000000E+00 0.  1.
          2   -1    0    0  501    0  0.00000000000E+00 -0.00000000000E+00 -0.88252031537E+03  0.88252031537E+03  0.00000000000E+00 0. -1.
         25    2    1    2    0    0 -0.56290216931E+02  0.11135501283E+03 -0.57868387447E+03  0.60505468901E+03  0.12509045815E+03 0.  0.
          5    1    3    3  502    0  0.82149224327E+01 -0.16446908378E+02 -0.16956589333E+02  0.25357130507E+02  0.41800000000E+01 0. -1.
         -5    1    3    3    0  502 -0.64505139364E+02  0.12780192121E+03 -0.56172728514E+03  0.57969755850E+03  0.41800000000E+01 0. -1.
        -11    1    1    2    0    0  0.30914114994E+02 -0.12303260943E+03 -0.23348122784E+03  0.26571825162E+03  0.00000000000E+00 0. -1.
         11    1    1    2    0    0  0.25376101937E+02  0.11677596598E+02 -0.36299234111E+02  0.45803353686E+02  0.00000000000E+00 0.  1.
</event>
<event>
 7    1  0.2666594E-009  0.1258340E+03  0.7561462E-02  0.1233772E+00
         -3   -1    0    0    0  501 -0.00000000000E+00  0.00000000000E+00  0.26667688016E+03  0.26667688016E+03  0.00000000000E+00 0.  1.
          3   -1    0    0  501    0  0.00000000000E+00 -0.00000000000E+00 -0.80240227547E+02  0.80240227547E+02  0.00000000000E+00 0. -1.
         25    2    1    2    0    0  0.55638809408E+02 -0.71692438215E+02  0.57876300322E+02  0.16502815317E+03  0.12509653229E+03 0.  0.
          5    1    3    3  502    0  0.18736388518E+02 -0.82867639666E+02 -0.11212590975E+02  0.85797975238E+02  0.41800000000E+01 0.  1.
         -5    1    3    3    0  502  0.36902420889E+02  0.11175201451E+02  0.69088891296E+02  0.79230177934E+02  0.41800000000E+01 0.  1.
        -11    1    1    2    0    0  0.24226050262E+02  0.75085239111E+01  0.34358187048E+02  0.42705555375E+02  0.00000000000E+00 0.  1.
         11    1    1    2    0    0 -0.79864859670E+02  0.64183914304E+02  0.94202165242E+02  0.13918339916E+03  0.00000000000E+00 0. -1.
</event>
<event>
 7    1  0.3075454E-009  0.9313362E+02  0.7561462E-02  0.1295436E+00
          1   -1    0    0  501    0  0.00000000000E+00  0.00000000000E+00  0.18335820984E+04  0.18335820984E+04  0.00000000000E+00 0. -1.
         -1   -1    0    0    0  501 -0.00000000000E+00 -0.00000000000E+00 -0.12857465224E+02  0.12857465224E+02  0.00000000000E+00 0.  1.
         25    2    1    2    0    0 -0.52183728617E+01 -0.75187931229E+02  0.14472574339E+04  0.14546070907E+04  0.12508897617E+03 0.  0.
          5    1    3    3  502    0 -0.20590825142E+02 -0.18886776501E+02  0.62213309831E+02  0.68327598573E+02  0.41800000000E+01 0.  1.
         -5    1    3    3    0  502  0.15372452280E+02 -0.56301154728E+02  0.13850441240E+04  0.13862794921E+04  0.41800000000E+01 0.  1.
        -11    1    1    2    0    0 -0.28394024682E+02  0.19455271034E+02  0.43311206924E+02  0.55322589002E+02  0.00000000000E+00 0.  1.
         11    1    1    2    0    0  0.33612397544E+02  0.55732660195E+02  0.33015599235E+03  0.33650988390E+03  0.00000000000E+00 0. -1.
</event>
<event>
 7    1  0.2720250E-009  0.1805116E+03  0.7561462E-02  0.1167309E+00
          2   -1    0    0  501    0  0.00000000000E+00  0.00000000000E+00  0.48822359614E+03  0.48822359614E+03  0.00000000000E+00 0. -1.
         -2   -1    0    0    0  501 -0.00000000000E+00 -0.00000000000E+00 -0.71814175670E+02  0.71814175670E+02  0.00000000000E+00 0.  1.
         25    2    1    2    0    0 -0.13375177093E+01 -0.15216025094E+03  0.20727057408E+03  0.28594184882E+03  0.12508844513E+03 0.  0.
          5    1    3    3  502    0  0.29689652417E+02 -0.16144672765E+03  0.17649501447E+03  0.24106945859E+03  0.41800000000E+01 0. -1.
         -5    1    3    3    0  502 -0.31027170127E+02  0.92864767075E+01  0.30775559610E+02  0.44872390230E+02  0.41800000000E+01 0. -1.
        -11    1    1    2    0    0 -0.29450095974E+02  0.57237374149E+02  0.13570595574E+03  0.15019830750E+03  0.00000000000E+00 0. -1.
         11    1    1    2    0    0  0.30787613684E+02  0.94922876795E+02  0.73432890648E+02  0.12389761549E+03  0.00000000000E+00 0.  1.
</event>
<event>
 7    1  0.2666594E-009  0.1005739E+03  0.7561462E-02  0.1279094E+00
          1   -1    0    0  501    0  0.00000000000E+00  0.00000000000E+00  0.19893742897E+03  0.19893742897E+03  0.00000000000E+00 0. -1.
         -1   -1    0    0    0  501 -0.00000000000E+00 -0.00000000000E+00 -0.75227263355E+02  0.75227263355E+02  0.00000000000E+00 0.  1.
         25    2    1    2    0    0 -0.92036208154E+01  0.46446933225E+02  0.10067730584E+03  0.16741414667E+03  0.12509817086E+03 0.  0.
          5    1    3    3  502    0  0.32513853818E+02 -0.24299397587E+01 -0.14130449250E+02  0.35779844792E+02  0.41800000000E+01 0. -1.
         -5    1    3    3    0  502 -0.41717474634E+02  0.48876872983E+02  0.11480775509E+03  0.13163430188E+03  0.41800000000E+01 0. -1.
        -11    1    1    2    0    0  0.19948854276E+02  0.24800411741E+02  0.30262370826E+01  0.31971476668E+02  0.00000000000E+00 0. -1.
         11    1    1    2    0    0 -0.10745233461E+02 -0.71247344965E+02  0.20006622690E+02  0.74779068985E+02  0.00000000000E+00 0.  1.
</event>
<event>
 7    1  0.2666594E-009  0.1384928E+03  0.7561462E-02  0.1215372E+00
          1   -1    0    0  501    0  0.00000000000E+00  0.00000000000E+00  0.16850499777E+03  0.16850499777E+03  0.00000000000E+00 0. -1.
         -1   -1    0    0    0  501 -0.00000000000E+00 -0.00000000000E+00 -0.13812820560E+03  0.13812820560E+03  0.00000000000E+00 0.  1.
         25    2    1    2    0    0 -0.95348022249E+02 -0.43449861377E+02  0.29559126893E+02  0.16582995283E+03  0.12508675178E+03 0.  0.
          5    1    3    3  502    0 -0.91810715353E+02  0.57945848888E+01 -0.21623825009E+02  0.94593059342E+02  0.41800000000E+01 0.  1.
         -5    1    3    3    0  502 -0.35373068959E+01 -0.49244446266E+02  0.51182951902E+02  0.71236893486E+02  0.41800000000E+01 0.  1.
        -11    1    1    2    0    0  0.80378294623E+02  0.68870749651E+02  0.16922637387E+02  0.10719247203E+03  0.00000000000E+00 0. -1.
         11    1    1    2    0    0  0.14969727626E+02 -0.25420888274E+02 -0.16104972110E+02  0.33610778517E+02  0.00000000000E+00 0.  1.
</event>
<event>
 7    1  0.3784318E-009  0.1597756E+03  0.7561462E-02  0.1188950E+00
          2   -1    0    0  501    0  0.00000000000E+00  0.00000000000E+00  0.98205632198E+03  0.98205632198E+03  0.00000000000E+00 0. -1.
         -2   -1    0    0    0  501 -0.00000000000E+00 -0.00000000000E+00 -0.28296657745E+02  0.28296657745E+02  0.00000000000E+00 0.  1.
         25    2    1    2    0    0 -0.17908199912E+02  0.12335933440E+03  0.45084903529E+03  0.48420119709E+03  0.12509083753E+03 0.  0.
          5    1    3    3  502    0  0.36291849601E+02  0.11613685659E+03  0.31317777147E+03  0.33600990573E+03  0.41800000000E+01 0.  1.
         -5    1    3    3    0  502 -0.54200049513E+02  0.72224778038E+01  0.13767126382E+03  0.14819129136E+03  0.41800000000E+01 0.  1.
        -11    1    1    2    0    0 -0.27175103188E+02 -0.46929001973E+02  0.29737307870E+03  0.30227729885E+03  0.00000000000E+00 0. -1.
         11    1    1    2    0    0  0.45083303100E+02 -0.76430332424E+02  0.20553755024E+03  0.22387448379E+03  0.00000000000E+00 0.  1.
</event>
<event>
 7    1  0.2666594E-009  0.7864010E+02  0.7561462E-02  0.1332956E+00
          1   -1    0    0  501    0  0.00000000000E+00  0.00000000000E+00  0.22802590501E+03  0.22802590501E+03  0.00000000000E+00 0. -1.
         -1   -1    0    0    0  501 -0.00000000000E+00 -0.00000000000E+00 -0.67485870737E+02  0.67485870737E+02  0.00000000000E+00 0.  1.
         25    2    1    2    0    0 -0.81487373662E+01 -0.57839275317E+02  0.15032647981E+03  0.20410136496E+03  0.12509009936E+03 0.  0.
          5    1    3    3  502    0  0.15927713439E+02  0.44320519713E+01  0.13421503719E+03  0.13529406398E+03  0.41800000000E+01 0. -1.
         -5    1    3    3    0  502 -0.24076450805E+02 -0.62271327289E+02  0.16111442619E+02  0.68807300986E+02  0.41800000000E+01 0. -1.
        -11    1    1    2    0    0  0.24890204865E+02  0.47581873539E+02 -0.18351876475E+02  0.56748113254E+02  0.00000000000E+00 0.  1.
         11    1    1    2    0    0 -0.16741467499E+02  0.10257401778E+02  0.28565430944E+02  0.34662297533E+02  0.00000000000E+00 0. -1.
</event>
<event>
 7    1  0.2666594E-009  0.1553937E+03  0.7561462E-02  0.1193998E+00
          1   -1    0    0  501    0  0.00000000000E+00  0.00000000000E+00  0.59005016430E+03  0.59005016430E+03  0.00000000000E+00 0. -1.
         -1   -1    0    0    0  501 -0.00000000000E+00 -0.00000000000E+00 -0.57757280992E+02  0.57757280992E+02  0.00000000000E+00 0.  1.
         25    2    1    2    0    0  0.10320160385E+03  0.90398854681E+02  0.38405307004E+03  0.42657505867E+03  0.12508795347E+03 0.  0.
          5    1    3    3  502    0  0.21215807004E+02  0.83339535381E+02  0.28505689412E+03  0.29777591224E+03  0.41800000000E+01 0.  1.
         -5    1    3    3    0  502  0.81985796847E+02  0.70593193003E+01  0.98996175923E+02  0.12879914643E+03  0.41800000000E+01 0.  1.
        -11    1    1    2    0    0 -0.87137735186E+02 -0.91293589397E+02  0.76214159937E+02  0.14743168768E+03  0.00000000000E+00 0.  1.
         11    1    1    2    0    0 -0.16063868665E+02  0.89473471589E+00  0.72025653333E+02  0.73800698944E+02  0.00000000000E+00 0. -1.
</event>
<event>
 7    1  0.2666594E-009  0.9828544E+02  0.7561462E-02  0.1283943E+00
          2   -1    0    0  501    0  0.00000000000E+00  0.00000000000E+00  0.39167937640E+02  0.39167937640E+02  0.00000000000E+00 0. -1.
         -2   -1    0    0    0  501 -0.00000000000E+00 -0.00000000000E+00 -0.36455104872E+03  0.36455104872E+03  0.00000000000E+00 0.  1.
         25    2    1    2    0    0  0.49060760066E+02  0.14348319336E+02 -0.21693460391E+03  0.25558385475E+03  0.12509856911E+03 0.  0.
          5    1    3    3  502    0 -0.22649087780E+02  0.45335064758E+01 -0.16436139359E+03  0.16602913588E+03  0.41800000000E+01 0.  1.
         -5    1    3    3    0  502  0.71709847846E+02  0.98148128605E+01 -0.52573210319E+02  0.89554718876E+02  0.41800000000E+01 0.  1.
        -11    1    1    2    0    0 -0.74115575332E+02 -0.67782026621E+01 -0.74958813547E+02  0.10563089636E+03  0.00000000000E+00 0.  1.
         11    1    1    2    0    0  0.25054815266E+02 -0.75701166741E+01 -0.33489693625E+02  0.42504235243E+02  0.00000000000E+00 0. -1.
</event>
<event>
 7    1  0.2666594E-009  0.1189481E+03  0.7561462E-02  0.1244843E+00
          1   -1    0    0  501    0  0.00000000000E+00  0.00000000000E+00  0.33219396254E+03  0.33219396254E+03  0.00000000000E+00 0. -1.
         -1   -1    0    0    0  501 -0.00000000000E+00 -0.00000000000E+00 -0.51561571604E+02  0.51561571604E+02  0.00000000000E+00 0.  1.
         25    2    1    2    0    0 -0.43303040214E+02  0.49965140757E+02  0.19476726103E+03  0.24073499145E+03  0.12508949420E+03 0.  0.
          5    1    3    3  502    0 -0.10313799354E+02 -0.39791661670E+02  0.33466426993E+02  0.53171655337E+02  0.41800000000E+01 0. -1.
         -5    1    3    3    0  502 -0.32989240860E+02  0.89756802427E+02  0.16130083404E+03  0.18756333612E+03  0.41800000000E+01 0. -1.
        -11    1    1    2    0    0 -0.30390466110E+01 -0.54235511723E+02  0.11862476233E+02  0.55600763291E+02  0.00000000000E+00 0.  1.
         11    1    1    2    0    0  0.46342086825E+02  0.42703709659E+01  0.74002653673E+02  0.87419779399E+02  0.00000000000E+00 0. -1.
</event>
<event>
 7    1  0.2666594E-009  0.9392066E+02  0.7561462E-02  0.1293626E+00
          2   -1    0    0  501    0  0.00000000000E+00  0.00000000000E+00  0.20629776133E+03  0.20629776133E+03  0.00000000000E+00 0.  1.
         -2   -1    0    0    0  501 -0.00000000000E+00 -0.00000000000E+00 -0.85610716525E+02  0.85610716525E+02  0.00000000000E+00 0. -1.
         25    2    1    2    0    0  0.21616844895E+02 -0.25923111791E+02 -0.95702231057E+01  0.12989734682E+03  0.12506972388E+03 0.  0.
          5    1    3    3  502    0 -0.18853318213E+01 -0.74898862175E+02 -0.43692275686E+01  0.75166193070E+02  0.41800000000E+01 0. -1.
         -5    1    3    3    0  502  0.23502176716E+02  0.48975750384E+02 -0.52009955370E+01  0.54731153749E+02  0.41800000000E+01 0. -1.
        -11    1    1    2    0    0  0.53266457725E+01 -0.11227083131E+02 -0.90282670435E+01  0.15360018120E+02  0.00000000000E+00 0. -1.
         11    1    1    2    0    0 -0.26943490668E+02  0.37150194922E+02  0.13928553496E+03  0.14665111292E+03  0.00000000000E+00 0.  1.
</event>
<event>
 7    1  0.2666594E-009  0.8726808E+02  0.7561462E-02  0.1309606E+00
         -1   -1    0    0    0  501 -0.00000000000E+00  0.00000000000E+00  0.22191574693E+02  0.22191574693E+02  0.00000000000E+00 0.  1.
          1   -1    0    0  501    0  0.00000000000E+00 -0.00000000000E+00 -0.44160070162E+03  0.44160070162E+03  0.00000000000E+00 0. -1.
         25    2    1    2    0    0 -0.15919366861E+02  0.12110481510E+02 -0.24283621038E+03  0.27389180588E+03  0.12508879347E+03 0.  0.
          5    1    3    3  502    0 -0.12022806924E+02 -0.51094383270E+02 -0.57385498419E+02  0.77882935980E+02  0.41800000000E+01 0.  1.
         -5    1    3    3    0  502 -0.38965599378E+01  0.63204864781E+02 -0.18545071196E+03  0.19600886990E+03  0.41800000000E+01 0.  1.
        -11    1    1    2    0    0 -0.11665052962E+02 -0.25286718434E+02 -0.13749113767E+03  0.14028294453E+03  0.00000000000E+00 0. -1.
         11    1    1    2    0    0  0.27584419823E+02  0.13176236924E+02 -0.39081778885E+02  0.49617525908E+02  0.00000000000E+00 0.  1.
</event>
<event>
 7    1  0.2666594E-009  0.1510397E+03  0.7561462E-02  0.1199201E+00
          2   -1    0    0  501    0  0.00000000000E+00  0.00000000000E+00  0.43944156207E+03  0.43944156207E+03  0.00000000000E+00 0.  1.
         -2   -1    0    0    0  501 -0.00000000000E+00 -0.00000000000E+00 -0.55934002878E+02  0.55934002878E+02  0.00000000000E+00 0. -1.
         25    2    1    2    0    0 -0.10450974296E+03  0.39398794267E+02  0.24200843355E+03  0.29443346098E+03  0.12509368358E+03 0.  0.
          5    1    3    3  502    0 -0.13037506729E+03  0.28607854253E+02  0.16433918985E+03  0.21175672178E+03  0.41800000000E+01 0. -1.
         -5    1    3    3    0  502  0.25865324327E+02  0.10790940013E+02  0.77669243692E+02  0.82676739199E+02  0.41800000000E+01 0. -1.
        -11    1    1    2    0    0  0.19724716788E+02 -0.50948055227E+02  0.73855518787E+02  0.91866242108E+02  0.00000000000E+00 0.  1.
         11    1    1    2    0    0  0.84785026175E+02  0.11549260960E+02  0.67643606854E+02  0.10907586186E+03  0.00000000000E+00 0. -1.
</event>
<event>
 7    1  0.2666594E-009  0.9780991E+02  0.7561462E-02  0.1284970E+00
         -3   -1    0    0    0  501 -0.00000000000E+00  0.00000000000E+00  0.24770776977E+03  0.24770776977E+03  0.00000000000E+00 0.  1.
          3   -1    0    0  501    0  0.00000000000E+00 -0.00000000000E+00 -0.50271688982E+02  0.50271688982E+02  0.00000000000E+00 0. -1.
         25    2    1    2    0    0  0.23820860173E+02 -0.16041020476E+02  0.10336220922E+03  0.16480401653E+03  0.12510743324E+03 0.  0.
          5    1    3    3  502    0  0.56500317662E+02 -0.49366359891E+02  0.37528514552E+02  0.83995149796E+02  0.41800000000E+01 0. -1.
         -5    1    3    3    0  502 -0.32679457489E+02  0.33325339415E+02  0.65833694672E+02  0.80808866736E+02  0.41800000000E+01 0. -1.
        -11    1    1    2    0    0  0.10015308404E+02 -0.21108564548E+02 -0.33045280311E+01  0.23596563419E+02  0.00000000000E+00 0. -1.
         11    1    1    2    0    0 -0.33836168577E+02  0.37149585024E+02  0.97378399592E+02  0.10957887880E+03  0.00000000000E+00 0.  1.
</event>
<event>
 7    1  0.2666594E-009  0.1163806E+03  0.7561462E-02  0.1249190E+00
          1   -1    0    0  501    0  0.00000000000E+00  0.00000000000E+00  0.30447555881E+03  0.30447555881E+03  0.00000000000E+00 0. -1.
         -1   -1    0    0    0  501 -0.00000000000E+00 -0.00000000000E+00 -0.71189306106E+02  0.71189306106E+02  0.00000000000E+00 0.  1.
         25    2    1    2    0    0  0.18036643717E+02 -0.99648784912E+02  0.10929703511E+03  0.19454784172E+03  0.12509124663E+03 0.  0.
          5    1    3    3  502    0  0.90854065192E+01 -0.73440513291E+01 -0.26956973256E+02  0.29675419267E+02  0.41800000000E+01 0.  1.
         -5    1    3    3    0  502  0.89512371981E+01 -0.92304733583E+02  0.13625400837E+03  0.16487242245E+03  0.41800000000E+01 0.  1.
        -11    1    1    2    0    0  0.29940043905E+02  0.51370598452E+02  0.34696603056E+02  0.68841839589E+02  0.00000000000E+00 0.  1.
         11    1    1    2    0    0 -0.47976687623E+02  0.48278186461E+02  0.89292614531E+02  0.11227518360E+03  0.00000000000E+00 0. -1.
</event>
<event>
 7    1  0.2666594E-009  0.1128166E+03  0.7561462E-02  0.1255441E+00
         -1   -1    0    0    0  501 -0.00000000000E+00  0.00000000000E+00  0.92850869688E+02  0.92850869688E+02  0.00000000000E+00 0.  1.
          1   -1    0    0  501    0  0.00000000000E+00 -0.00000000000E+00 -0.16981321732E+03  0.16981321732E+03  0.00000000000E+00 0. -1.
         25    2    1    2    0    0 -0.60847093802E+02 -0.15211869232E+02 -0.60789338801E+02  0.15257532569E+03  0.12510042570E+03 0.  0.
          5    1    3    3  502    0 -0.27207612832E+02  0.54890073950E+02 -0.19436359487E+02  0.64408220627E+02  0.41800000000E+01 0. -1.
         -5    1    3    3    0  502 -0.33639480970E+02 -0.70101943182E+02 -0.41352979313E+02  0.88167105067E+02  0.41800000000E+01 0. -1.
        -11    1    1    2    0    0  0.72543941685E+02  0.89543643861E+01  0.16405604805E+02  0.74912936038E+02  0.00000000000E+00 0.  1.
         11    1    1    2    0    0 -0.11696847883E+02  0.62575048462E+01 -0.32578613638E+02  0.35175825276E+02  0.00000000000E+00 0. -1.
</event>
<event>
 7    1  0.2666594E-009  0.1334171E+03  0.7561462E-02  0.1222472E+00
          1   -1    0    0  501    0  0.00000000000E+00  0.00000000000E+00  0.11672449745E+04  0.11672449745E+04  0.00000000000E+00 0. -1.
         -1   -1    0    0    0  501 -0.00000000000E+00 -0.00000000000E+00 -0.22920045403E+02  0.22920045403E+02  0.00000000000E+00 0.  1.
         25    2    1    2    0    0  0.73937520228E+02 -0.82597331890E+02  0.79657835787E+03  0.81392497017E+03  0.12509076982E+03 0.  0.
          5    1    3    3  502    0  0.16971596510E+02  0.11431191783E+02  0.44600786053E+03  0.44649657478E+03  0.41800000000E+01 0. -1.
         -5    1    3    3    0  502  0.56965923718E+02 -0.94028523674E+02  0.35057049734E+03  0.36742839539E+03  0.41800000000E+01 0. -1.
        -11    1    1    2    0    0 -0.18541463835E+02  0.78192091379E+02  0.14243256004E+03  0.16353844562E+03  0.00000000000E+00 0.  1.
         11    1    1    2    0    0 -0.55396056393E+02  0.44052405113E+01  0.20531401123E+03  0.21270160416E+03  0.00000000000E+00 0. -1.
</event>
<event>
 7    1  0.2666594E-009  0.1770294E+03  0.7561462E-02  0.1170709E+00
         -2   -1    0    0    0  501 -0.00000000000E+00  0.00000000000E+00  0.42911702950E+02  0.42911702950E+02  0.00000000000E+00 0.  1.
          2   -1    0    0  501    0  0.00000000000E+00 -0.00000000000E+00 -0.95231650067E+03  0.95231650067E+03  0.00000000000E+00 0. -1.
         25    2    1    2    0    0 -0.56685137224E+02  0.15977158470E+03 -0.48274069558E+03  0.52671145776E+03  0.12508483724E+03 0.  0.
          5    1    3    3  502    0  0.59857879188E+01  0.10022326460E+02 -0.20206355079E+03  0.20244364066E+03  0.41800000000E+01 0. -1.
         -5    1    3    3    0  502 -0.62670925142E+02  0.14974925824E+03 -0.28067714479E+03  0.32426781710E+03  0.41800000000E+01 0. -1.
        -11    1    1    2    0    0  0.49478720984E+02 -0.53946951362E+02 -0.92726018987E+02  0.11813776699E+03  0.00000000000E+00 0.  1.
         11    1    1    2    0    0  0.72064162392E+01 -0.10582463334E+03 -0.33393808316E+03  0.35037897888E+03  0.00000000000E+00 0. -1.
</event>
<event>
 7    1  0.2666594E-009  0.1298967E+03  0.7561462E-02  0.1227609E+00
         -1   -1    0    0    0  501 -0.00000000000E+00  0.00000000000E+00  0.15196044885E+03  0.15196044885E+03  0.00000000000E+00 0.  1.
          1   -1    0    0  501    0  0.00000000000E+00 -0.00000000000E+00 -0.14223145649E+03  0.14223145649E+03  0.00000000000E+00 0. -1.
         25    2    1    2    0    0 -0.81281892025E+02 -0.42291425830E+02  0.39961315405E+02  0.16012220800E+03  0.12508758570E+03 0.  0.
          5    1    3    3  502    0 -0.10192679599E+02  0.35416205450E+02 -0.16449251855E+02  0.40573989358E+02  0.41800000000E+01 0.  1.
         -5    1    3    3    0  502 -0.71089212426E+02 -0.77707631280E+02  0.56410567260E+02  0.11954821864E+03  0.41800000000E+01 0.  1.
        -11    1    1    2    0    0  0.32209402805E+02  0.57516403108E+02  0.12676566527E+02  0.67128813445E+02  0.00000000000E+00 0.  1.
         11    1    1    2    0    0  0.49072489220E+02 -0.15224977278E+02 -0.42908889575E+02  0.66940883890E+02  0.00000000000E+00 0. -1.
</event>
<event>
 7    1  0.2666594E-009  0.1515550E+03  0.7561462E-02  0.1198575E+00
         -1   -1    0    0    0  501 -0.00000000000E+00  0.00000000000E+00  0.20857668857E+03  0.20857668857E+03  0.00000000000E+00 0.  1.
          1   -1    0    0  501    0  0.00000000000E+00 -0.00000000000E+00 -0.13267319933E+03  0.13267319933E+03  0.00000000000E+00 0. -1.
         25    2    1    2    0    0  0.26076394416E+02  0.12226518496E+03  0.36759229803E+02  0.18062995931E+03  0.12508871822E+03 0.  0.
          5    1    3    3  502    0  0.38582890791E+02  0.14331790508E+03  0.43808938542E+02  0.15480748326E+03  0.41800000000E+01 0.  1.
         -5    1    3    3    0  502 -0.12506496375E+02 -0.21052720119E+02 -0.70497087390E+01  0.25822476049E+02  0.41800000000E+01 0.  1.
        -11    1    1    2    0    0 -0.20644151328E+02 -0.25219465001E+02 -0.27603762546E+02  0.42710304444E+02  0.00000000000E+00 0. -1.
         11    1    1    2    0    0 -0.54322430881E+01 -0.97045719957E+02  0.66748021988E+02  0.11790962415E+03  0.00000000000E+00 0.  1.
</event>
<event>
 7    1  0.2666594E-009  0.7516685E+02  0.7561462E-02  0.1343355E+00
          2   -1    0    0  501    0  0.00000000000E+00  0.00000000000E+00  0.10829857425E+04  0.10829857425E+04  0.00000000000E+00 0. -1.
         -2   -1    0    0    0  501 -0.00000000000E+00 -0.00000000000E+00 -0.11985865532E+02  0.11985865532E+02  0.00000000000E+00 0.  1.
         25    2    1    2    0    0  0.32603157886E+02 -0.20238531317E+01  0.67087433941E+03  0.68321621629E+03  0.12507980267E+03 0.  0.
          5    1    3    3  502    0  0.32783866845E+02  0.14694796016E+02  0.47990108345E+02  0.60093609096E+02  0.41800000000E+01 0. -1.
         -5    1    3    3    0  502 -0.18070895842E+00 -0.16718649147E+02  0.62288423107E+03  0.62312260720E+03  0.41800000000E+01 0. -1.
        -11    1    1    2    0    0  0.18315779387E+02  0.32703584986E+02  0.14087491074E+03  0.14577631056E+03  0.00000000000E+00 0. -1.
         11    1    1    2    0    0 -0.50918937273E+02 -0.30679731854E+02  0.25925062684E+03  0.26597908120E+03  0.00000000000E+00 0.  1.
</event>
<event>
 7    1  0.2666594E-009  0.1013459E+03  0.7561462E-02  0.1277491E+00
          3   -1    0    0  501    0  0.00000000000E+00  0.00000000000E+00  0.14120973789E+03  0.14120973789E+03  0.00000000000E+00 0. -1.
         -3   -1    0    0    0  501 -0.00000000000E+00 -0.00000000000E+00 -0.94198240868E+02  0.94198240868E+02  0.00000000000E+00 0.  1.
         25    2    1    2    0    0  0.20154711425E+02 -0.33459249041E+02  0.13010772381E+02  0.13169372633E+03  0.12509285998E+03 0.  0.
          5    1    3    3  502    0 -0.51826268472E+02 -0.25295164368E+02 -0.80752758577E+00  0.57826740742E+02  0.41800000000E+01 0.  1.
         -5    1    3    3    0  502  0.71980979897E+02 -0.81640846736E+01  0.13818299967E+02  0.73866985585E+02  0.41800000000E+01 0.  1.
        -11    1    1    2    0    0 -0.40450404186E+02  0.32671622905E+02 -0.12057423562E+02  0.53376507989E+02  0.00000000000E+00 0.  1.
         11    1    1    2    0    0  0.20295692762E+02  0.78762613604E+00  0.46058148202E+02  0.50337744441E+02  0.00000000000E+00 0. -1.
</event>
<event>
 7    1  0.2666594E-009  0.9436017E+02  0.7561462E-02  0.1292624E+00
          2   -1    0    0  501    0  0.00000000000E+00  0.00000000000E+00  0.15322430028E+03  0.15322430028E+03  0.00000000000E+00 0. -1.
         -2   -1    0    0    0  501 -0.00000000000E+00 -0.00000000000E+00 -0.87883331907E+02  0.87883331907E+02  0.00000000000E+00 0.  1.
         25    2    1    2    0    0  0.38473098154E+02 -0.11040793696E+02  0.21743926881E+02  0.13312375359E+03  0.12508819692E+03 0.  0.
          5    1    3    3  502    0  0.52994756677E+02  0.26672559000E+02  0.54703741421E+02  0.80807433843E+02  0.41800000000E+01 0.  1.
         -5    1    3    3    0  502 -0.14521658523E+02 -0.37713352696E+02 -0.32959814540E+02  0.52316319751E+02  0.41800000000E+01 0.  1.
        -11    1    1    2    0    0 -0.61783443079E+02  0.17888967687E+02  0.79014276644E+01  0.64804641521E+02  0.00000000000E+00 0.  1.
         11    1    1    2    0    0  0.23310344925E+02 -0.68481739905E+01  0.35695613831E+02  0.43179237074E+02  0.00000000000E+00 0. -1.
</event>
<event>
 7    1  0.2666594E-009  0.1861237E+03  0.7561462E-02  0.1162005E+00
         -1   -1    0    0    0  501 -0.00000000000E+00  0.00000000000E+00  0.28644629731E+03  0.28644629731E+03  0.00000000000E+00 0.  1.
          1   -1    0    0  501    0  0.00000000000E+00 -0.00000000000E+00 -0.14686038572E+03  0.14686038572E+03  0.00000000000E+00 0. -1.
         25    2    1    2    0    0 -0.12463002288E+03 -0.11952825760E+03  0.50944017634E+02  0.21923056809E+03  0.12508837710E+03 0.  0.
          5    1    3    3  502    0 -0.11637718359E+03 -0.12598126731E+03  0.46917893732E+01  0.17162288269E+03  0.41800000000E+01 0.  1.
         -5    1    3    3    0  502 -0.82528392846E+01  0.64530097110E+01  0.46252228260E+02  0.47607685405E+02  0.41800000000E+01 0.  1.
        -11    1    1    2    0    0  0.79908946183E+02  0.23204004783E+02  0.64206813680E+02  0.10510176231E+03  0.00000000000E+00 0.  1.
         11    1    1    2    0    0  0.44721076695E+02  0.96324252820E+02  0.24435080281E+02  0.10897435263E+03  0.00000000000E+00 0. -1.
</event>
<event>
 7    1  0.2666594E-009  0.1077270E+03  0.7561462E-02  0.1264838E+00
         -1   -1    0    0    0  501 -0.00000000000E+00  0.00000000000E+00  0.60743272040E+03  0.60743272040E+03  0.00000000000E+00 0.  1.
          1   -1    0    0  501    0  0.00000000000E+00 -0.00000000000E+00 -0.24004057593E+02  0.24004057593E+02  0.00000000000E+00 0. -1.
         25    2    1    2    0    0  0.12623712997E+02 -0.30978995222E+02  0.22215951054E+03  0.25713836196E+03  0.12508490235E+03 0.  0.
          5    1    3    3  502    0  0.45292340897E+02  0.32470285580E+02  0.74978737314E+02  0.93514699587E+02  0.41800000000E+01 0. -1.
         -5    1    3    3    0  502 -0.32668627900E+02 -0.63449280803E+02  0.14718077322E+03  0.16362366238E+03  0.41800000000E+01 0. -1.
        -11    1    1    2    0    0  0.34211428808E+02  0.21162377733E+02  0.86540717025E+02  0.95433556968E+02  0.00000000000E+00 0. -1.
         11    1    1    2    0    0 -0.46835141804E+02  0.98166174889E+01  0.27472843525E+03  0.27886485906E+03  0.00000000000E+00 0.  1.
</event>
<event>
 7    1  0.2666594E-009  0.8257264E+02  0.7561462E-02  0.1321905E+00
          2   -1    0    0  501    0  0.00000000000E+00  0.00000000000E+00  0.32471663074E+02  0.32471663074E+02  0.00000000000E+00 0. -1.
         -2   -1    0    0    0  501 -0.00000000000E+00 -0.00000000000E+00 -0.46459347716E+03  0.46459347716E+03  0.00000000000E+00 0.  1.
         25    2    1    2    0    0 -0.11243453977E+02 -0.58069253095E+02 -0.22558434548E+03  0.26463888318E+03  0.12508792169E+03 0.  0.
          5    1    3    3  502    0 -0.49496011801E+01 -0.64314033654E+02 -0.23924608449E+03  0.24782444355E+03  0.41800000000E+01 0. -1.
         -5    1    3    3    0  502 -0.62938527970E+01  0.62447805586E+01  0.13661739012E+02  0.16814439630E+02  0.41800000000E+01 0. -1.
        -11    1    1    2    0    0 -0.27660953838E+02  0.11329759200E+02 -0.13621641071E+03  0.13945752886E+03  0.00000000000E+00 0.  1.
         11    1    1    2    0    0  0.38904407815E+02  0.46739493895E+02 -0.70321057898E+02  0.92968728188E+02  0.00000000000E+00 0. -1.
</event>
<event>
 7    1  0.2666594E-009  0.1092998E+03  0.7561462E-02  0.1261872E+00
          1   -1    0    0  501    0  0.00000000000E+00  0.00000000000E+00  0.70907239119E+03  0.70907239119E+03  0.00000000000E+00 0. -1.
         -1   -1    0    0    0  501 -0.00000000000E+00 -0.00000000000E+00 -0.37137005931E+02  0.37137005931E+02  0.00000000000E+00 0.  1.
         25    2    1    2    0    0 -0.45586166779E+02  0.84631128309E+02  0.53043661159E+03  0.55339951979E+03  0.12508998002E+03 0.  0.
          5    1    3    3  502    0  0.32769017844E+01  0.16486120750E+02  0.10022457692E+01  0.17349557899E+02  0.41800000000E+01 0. -1.
         -5    1    3    3    0  502 -0.48863068563E+02  0.68145007559E+02  0.52943436582E+03  0.53604996189E+03  0.41800000000E+01 0. -1.
        -11    1    1    2    0    0  0.58336737464E+02 -0.39568741413E+02  0.40049599709E+02  0.81072995947E+02  0.00000000000E+00 0.  1.
         11    1    1    2    0    0 -0.12750570685E+02 -0.45062386896E+02  0.10144917396E+03  0.11173688139E+03  0.00000000000E+00 0. -1.
</event>
<event>
 7    1  0.2666594E-009  0.1896978E+03  0.7561462E-02  0.1158734E+00
          2   -1    0    0  501    0  0.00000000000E+00  0.00000000000E+00  0.12350201820E+04  0.12350201820E+04  0.00000000000E+00 0. -1.
         -2   -1    0    0    0  501 -0.00000000000E+00 -0.00000000000E+00 -0.30753877760E+02  0.30753877760E+02  0.00000000000E+00 0.  1.
         25    2    1    2    0    0  0.15050295076E+03  0.39659123061E+02  0.77103977140E+03  0.79647625002E+03  0.12509238004E+03 0.  0.
          5    1    3    3  502    0  0.11585416348E+03  0.83704144225E+02  0.52745317324E+03  0.54649143938E+03  0.41800000000E+01 0.  1.
         -5    1    3    3    0  502  0.34648787275E+02 -0.44045021164E+02  0.24358659816E+03  0.24998481064E+03  0.41800000000E+01 0.  1.
        -11    1    1    2    0    0 -0.12567465662E+03 -0.67706126190E+02  0.35228735199E+03  0.38011132213E+03  0.00000000000E+00 0. -1.
         11    1    1    2    0    0 -0.24828294135E+02  0.28047003129E+02  0.80939180846E+02  0.89186487599E+02  0.00000000000E+00 0.  1.
</event>
<event>
 7    1  0.2666594E-009  0.1156483E+03  0.7561462E-02  0.1250454E+00
          1   -1    0    0  501    0  0.00000000000E+00  0.00000000000E+00  0.39406667417E+03  0.39406667417E+03  0.00000000000E+00 0. -1.
         -1   -1    0    0    0  501 -0.00000000000E+00 -0.00000000000E+00 -0.47151468458E+02  0.47151468458E+02  0.00000000000E+00 0.  1.
         25    2    1    2    0    0 -0.60706191956E+02  0.30639800945E+02  0.11470693761E+03  0.18283703347E+03  0.12509060768E+03 0.  0.
          5    1    3    3  502    0 -0.32175549120E+01  0.62130481218E+02  0.16171406714E+02  0.64416893368E+02  0.41800000000E+01 0.  1.
         -5    1    3    3    0  502 -0.57488637043E+02 -0.31490680274E+02  0.98535530897E+02  0.11842014010E+03  0.41800000000E+01 0.  1.
        -11    1    1    2    0    0  0.54329909299E+02  0.15646065077E+02  0.72269236449E+02  0.91757184644E+02  0.00000000000E+00 0.  1.
         11    1    1    2    0    0  0.63762826562E+01 -0.46285866022E+02  0.15993903165E+03  0.16662392451E+03  0.00000000000E+00 0. -1.
</event>
<event>
 7    1  0.2666594E-009  0.3294077E+03  0.7561462E-02  0.1071399E+00
         -1   -1    0    0    0  501 -0.00000000000E+00  0.00000000000E+00  0.63382327959E+03  0.63382327959E+03  0.00000000000E+00 0.  1.
          1   -1    0    0  501    0  0.00000000000E+00 -0.00000000000E+00 -0.17778882687E+03  0.17778882687E+03  0.00000000000E+00 0. -1.
         25    2    1    2    0    0  0.17425135007E+03  0.26363824400E+03  0.23613761396E+03  0.41385562398E+03  0.12508736177E+03 0.  0.
          5    1    3    3  502    0  0.16727450748E+03  0.15302339605E+03  0.13587287481E+03  0.26434036978E+03  0.41800000000E+01 0. -1.
         -5    1    3    3    0  502  0.69768425908E+01  0.11061484796E+03  0.10026473915E+03  0.14951525420E+03  0.41800000000E+01 0. -1.
        -11    1    1    2    0    0 -0.71860085042E+02 -0.61587614403E+02  0.22449510053E+02  0.97267088842E+02  0.00000000000E+00 0.  1.
         11    1    1    2    0    0 -0.10239126502E+03 -0.20205062960E+03  0.19744732871E+03  0.30048939364E+03  0.00000000000E+00 0. -1.
</event>
<event>
 7    1  0.2666594E-009  0.1911313E+03  0.7561462E-02  0.1157445E+00
         -1   -1    0    0    0  501 -0.00000000000E+00  0.00000000000E+00  0.20415178364E+03  0.20415178364E+03  0.00000000000E+00 0.  1.
          1   -1    0    0  501    0  0.00000000000E+00 -0.00000000000E+00 -0.21732933586E+03  0.21732933586E+03  0.00000000000E+00 0. -1.
         25    2    1    2    0    0 -0.16815527750E+03  0.30149455398E+02  0.46227837249E+02  0.21672598390E+03  0.12509177490E+03 0.  0.
          5    1    3    3  502    0 -0.18845912698E+03  0.26099732054E+02  0.38012688585E+02  0.19406307080E+03  0.41800000000E+01 0.  1.
         -5    1    3    3    0  502  0.20303849473E+02  0.40497233441E+01  0.82151486635E+01  0.22662913099E+02  0.41800000000E+01 0.  1.
        -11    1    1    2    0    0  0.18238538154E+02 -0.31217564638E+01  0.24609233030E+02  0.30789673395E+02  0.00000000000E+00 0.  1.
         11    1    1    2    0    0  0.14991673935E+03 -0.27027698934E+02 -0.84014622493E+02  0.17396546220E+03  0.00000000000E+00 0. -1.
</event>
<event>
 7    1  0.2666594E-009  0.9064858E+02  0.7561462E-02  0.1301289E+00
          1   -1    0    0  501    0  0.00000000000E+00  0.00000000000E+00  0.28691821713E+03  0.28691821713E+03  0.00000000000E+00 0. -1.
         -1   -1    0    0    0  501 -0.00000000000E+00 -0.00000000000E+00 -0.51592401167E+02  0.51592401167E+02  0.00000000000E+00 0.  1.
         25    2    1    2    0    0  0.14446604675E+02 -0.52452823012E+02  0.13503429877E+03  0.19194255654E+03  0.12509068766E+03 0.  0.
          5    1    3    3  502    0  0.29998697640E+02 -0.15256718736E+02  0.14605313976E+03  0.14993892544E+03  0.41800000000E+01 0. -1.
         -5    1    3    3    0  502 -0.15552092965E+02 -0.37196104276E+02 -0.11018840996E+02  0.42003631102E+02  0.41800000000E+01 0. -1.
        -11    1    1    2    0    0 -0.10182313092E+02  0.79156406672E+02  0.76446266623E+02  0.11051446918E+03  0.00000000000E+00 0.  1.
         11    1    1    2    0    0 -0.42642915829E+01 -0.26703583660E+02  0.23845250571E+02  0.36053592578E+02  0.00000000000E+00 0. -1.
</event>
<event>
 7    1  0.2666594E-009  0.1229378E+03  0.7561462E-02  0.1238328E+00
         -1   -1    0    0    0  501 -0.00000000000E+00  0.00000000000E+00  0.43555876386E+02  0.43555876386E+02  0.00000000000E+00 0.  1.
          1   -1    0    0  501    0  0.00000000000E+00 -0.00000000000E+00 -0.40871708589E+03  0.40871708589E+03  0.00000000000E+00 0. -1.
         25    2    1    2    0    0  0.78709786733E+02 -0.12455831525E+02 -0.21598499162E+03  0.26200507591E+03  0.12508702943E+03 0.  0.
          5    1    3    3  502    0  0.21822113674E+01  0.48102329043E+02 -0.50937109781E+02  0.70218641817E+02  0.41800000000E+01 0.  1.
         -5    1    3    3    0  502  0.76527575365E+02 -0.60558160568E+02 -0.16504788184E+03  0.19178643409E+03  0.41800000000E+01 0.  1.
        -11    1    1    2    0    0 -0.84294345824E+02  0.23481728725E+02 -0.75533289929E+02  0.11559500945E+03  0.00000000000E+00 0.  1.
         11    1    1    2    0    0  0.55845590913E+01 -0.11025897200E+02 -0.73642927960E+02  0.74672876922E+02  0.00000000000E+00 0. -1.
</event>
<event>
 7    1  0.2666594E-009  0.1152046E+03  0.7561462E-02  0.1251224E+00
         -1   -1    0    0    0  501 -0.00000000000E+00  0.00000000000E+00  0.47727772796E+02  0.47727772796E+02  0.00000000000E+00 0.  1.
          1   -1    0    0  501    0  0.00000000000E+00 -0.00000000000E+00 -0.47384017038E+03  0.47384017038E+03  0.00000000000E+00 0. -1.
         25    2    1    2    0    0  0.63001342327E+02 -0.57545986861E+02 -0.33342752551E+03  0.36619855174E+03  0.12508698891E+03 0.  0.
          5    1    3    3  502    0  0.34174193971E+02 -0.82333291464E+02 -0.12097080072E+03  0.15032648950E+03  0.41800000000E+01 0.  1.
         -5    1    3    3    0  502  0.28827148357E+02  0.24787304603E+02 -0.21245672479E+03  0.21587206225E+03  0.41800000000E+01 0.  1.
        -11    1    1    2    0    0 -0.12124369271E+02  0.50044798204E+02 -0.90223666745E+02  0.10388355114E+03  0.00000000000E+00 0. -1.
         11    1    1    2    0    0 -0.50876973057E+02  0.75011886573E+01 -0.24612053333E+01  0.51485840290E+02  0.00000000000E+00 0.  1.
</event>
<event>
 7    1  0.2666594E-009  0.1470032E+03  0.7561462E-02  0.1204205E+00
         -1   -1    0    0    0  501 -0.00000000000E+00  0.00000000000E+00  0.26037147432E+03  0.26037147432E+03  0.00000000000E+00 0.  1.
          1   -1    0    0  501    0  0.00000000000E+00 -0.00000000000E+00 -0.37941448495E+03  0.37941448495E+03  0.00000000000E+00 0. -1.
         25    2    1    2    0    0 -0.57918149920E+02  0.11303173083E+03  0.20954461560E+03  0.27511316974E+03  0.12509047115E+03 0.  0.
          5    1    3    3  502    0 -0.44107058125E+02  0.13215659679E+03  0.20891768216E+03  0.25114710623E+03  0.41800000000E+01 0.  1.
         -5    1    3    3    0  502 -0.13811091795E+02 -0.19124865961E+02  0.62693344859E+00  0.23966063510E+02  0.41800000000E+01 0.  1.
        -11    1    1    2    0    0  0.37731275812E+02 -0.99358440920E+02 -0.32247325280E+03  0.33953607721E+03  0.00000000000E+00 0. -1.
         11    1    1    2    0    0  0.20186874108E+02 -0.13673289914E+02 -0.61143734378E+01  0.25136712312E+02  0.00000000000E+00 0.  1.
</event>
<event>
 7    1  0.2666594E-009  0.8781731E+02  0.7561462E-02  0.1308225E+00
         -1   -1    0    0    0  501 -0.00000000000E+00  0.00000000000E+00  0.47075864151E+02  0.47075864151E+02  0.00000000000E+00 0.  1.
          1   -1    0    0  501    0  0.00000000000E+00 -0.00000000000E+00 -0.30256111433E+03  0.30256111433E+03  0.00000000000E+00 0. -1.
         25    2    1    2    0    0 -0.28150015204E+02 -0.40288843733E+02 -0.14708044196E+03  0.19923870723E+03  0.12509113385E+03 0.  0.
          5    1    3    3  502    0  0.11352581494E+02 -0.41536992347E+02 -0.15305274184E+03  0.15904973129E+03  0.41800000000E+01 0. -1.
         -5    1    3    3    0  502 -0.39502596698E+02  0.12481486139E+01  0.59722998839E+01  0.40188975936E+02  0.41800000000E+01 0. -1.
        -11    1    1    2    0    0 -0.37805131206E+01  0.56632669040E+02 -0.30049007828E+02  0.64222226320E+02  0.00000000000E+00 0.  1.
         11    1    1    2    0    0  0.31930528325E+02 -0.16343825307E+02 -0.78355800393E+02  0.86176044931E+02  0.00000000000E+00 0. -1.
</event>
<event>
 7    1  0.2666594E-009  0.1002541E+03  0.7561462E-02  0.1279763E+00
          2   -1    0    0  501    0  0.00000000000E+00  0.00000000000E+00  0.46636020780E+02  0.46636020780E+02  0.00000000000E+00 0. -1.
         -2   -1    0    0    0  501 -0.00000000000E+00 -0.00000000000E+00 -0.34323318480E+03  0.34323318480E+03  0.00000000000E+00 0.  1.
         25    2    1    2    0    0 -0.43303712570E+02  0.58011079605E+02 -0.15739961763E+03  0.21368748612E+03  0.12508878932E+03 0.  0.
          5    1    3    3  502    0 -0.18321663803E+02  0.71494189127E+02 -0.24729086885E+02  0.77949359084E+02  0.41800000000E+01 0. -1.
         -5    1    3    3    0  502 -0.24982048767E+02 -0.13483109522E+02 -0.13267053074E+03  0.13573812703E+03  0.41800000000E+01 0. -1.
        -11    1    1    2    0    0  0.24589875692E+02  0.10597279610E+02 -0.77631615450E+02  0.82119620305E+02  0.00000000000E+00 0.  1.
         11    1    1    2    0    0  0.18713836878E+02 -0.68608359215E+02 -0.61565930939E+02  0.94062099153E+02  0.00000000000E+00 0. -1.
</event>
<event>
 7    1  0.2666594E-009  0.8107881E+02  0.7561462E-02  0.1326018E+00
         -1   -1    0    0    0  501 -0.00000000000E+00  0.00000000000E+00  0.18367659209E+03  0.18367659209E+03  0.00000000000E+00 0.  1.
          1   -1    0    0  501    0  0.00000000000E+00 -0.00000000000E+00 -0.82054141893E+02  0.82054141893E+02  0.00000000000E+00 0. -1.
         25    2    1    2    0    0  0.50020572547E+02 -0.11562354282E+02  0.86271900573E+02  0.16039587652E+03  0.12509296807E+03 0.  0.
          5    1    3    3  502    0 -0.14476956548E+02 -0.29052674136E+01 -0.26213733051E+02  0.30375237450E+02  0.41800000000E+01 0. -1.
         -5    1    3    3    0  502  0.64497529095E+02 -0.86570868689E+01  0.11248563362E+03  0.13002063907E+03  0.41800000000E+01 0. -1.
        -11    1    1    2    0    0 -0.63616023284E+02  0.18618034628E+02  0.39186694966E+02  0.77001472026E+02  0.00000000000E+00 0.  1.
         11    1    1    2    0    0  0.13595450737E+02 -0.70556803456E+01 -0.23836145339E+02  0.28333385440E+02  0.00000000000E+00 0. -1.
</event>
<event>
 7    1  0.2666594E-009  0.1167683E+03  0.7561462E-02  0.1248526E+00
         -2   -1    0    0    0  501 -0.00000000000E+00  0.00000000000E+00  0.22080485646E+02  0.22080485646E+02  0.00000000000E+00 0.  1.
          2   -1    0    0  501    0  0.00000000000E+00 -0.00000000000E+00 -0.76763680954E+03  0.76763680954E+03  0.00000000000E+00 0. -1.
         25    2    1    2    0    0  0.56817115748E+02 -0.57362975224E+01 -0.28227141931E+03  0.31398351881E+03  0.12508959258E+03 0.  0.
          5    1    3    3  502    0  0.20186285368E+02 -0.59695031184E+02 -0.83165220140E+02  0.10442657280E+03  0.41800000000E+01 0. -1.
         -5    1    3    3    0  502  0.36630830380E+02  0.53958733662E+02 -0.19910619917E+03  0.20955694601E+03  0.41800000000E+01 0. -1.
        -11    1    1    2    0    0 -0.77431305247E+02 -0.11346471954E+02 -0.38843406646E+03  0.39623903574E+03  0.00000000000E+00 0. -1.
         11    1    1    2    0    0  0.20614189499E+02  0.17082769476E+02 -0.74850838124E+02  0.79494740641E+02  0.00000000000E+00 0.  1.
</event>
<event>
 7    1  0.2666594E-009  0.1550265E+03  0.7561462E-02  0.1194429E+00
          1   -1    0    0  501    0  0.00000000000E+00  0.00000000000E+00  0.35952184821E+02  0.35952184821E+02  0.00000000000E+00 0. -1.
         -1   -1    0    0    0  501 -0.00000000000E+00 -0.00000000000E+00 -0.72969082925E+03  0.72969082925E+03  0.00000000000E+00 0.  1.
         25    2    1    2    0    0  0.92762393708E+02 -0.70465200283E+02 -0.33138776245E+03  0.37287461566E+03  0.12508966289E+03 0.  0.
          5    1    3    3  502    0  0.39189551112E+02  0.29495927319E+02 -0.53479337227E+02  0.72686605059E+02  0.41800000000E+01 0.  1.
         -5    1    3    3    0  502  0.53572842596E+02 -0.99961127603E+02 -0.27790842523E+03  0.30018801060E+03  0.41800000000E+01 0.  1.
        -11    1    1    2    0    0 -0.37048223398E+02 -0.19233882832E+02 -0.65244285013E+02  0.77455340892E+02  0.00000000000E+00 0. -1.
         11    1    1    2    0    0 -0.55714170310E+02  0.89699083116E+02 -0.29710659697E+03  0.31531305753E+03  0.00000000000E+00 0.  1.
</event>
<event>
 7    1  0.2666594E-009  0.1464490E+03  0.7561462E-02  0.1204906E+00
         -2   -1    0    0    0  501 -0.00000000000E+00  0.00000000000E+00  0.14675282969E+02  0.14675282969E+02  0.00000000000E+00 0. -1.
          2   -1    0    0  501    0  0.00000000000E+00 -0.00000000000E+00 -0.23740025608E+04  0.23740025608E+04  0.00000000000E+00 0.  1.
         25    2    1    2    0    0  0.60818714496E+02 -0.84118805125E+02 -0.19721171428E+04  0.19788046816E+04  0.12508818341E+03 0.  0.
          5    1    3    3  502    0  0.64947659165E+02  0.11496019310E+02 -0.89439642624E+03  0.89683487698E+03  0.41800000000E+01 0. -1.
         -5    1    3    3    0  502 -0.41289446690E+01 -0.95614824435E+02 -0.10777207165E+04  0.10819698046E+04  0.41800000000E+01 0. -1.
        -11    1    1    2    0    0 -0.25505032933E+02  0.91455632767E+02 -0.31739496965E+03  0.33129172375E+03  0.00000000000E+00 0.  1.
         11    1    1    2    0    0 -0.35313681562E+02 -0.73368276429E+01 -0.69815165440E+02  0.78581438462E+02  0.00000000000E+00 0. -1.
</event>
<event>
 7    1  0.2666594E-009  0.1183095E+03  0.7561462E-02  0.1245912E+00
          1   -1    0    0  501    0  0.00000000000E+00  0.00000000000E+00  0.37350121805E+02  0.37350121805E+02  0.00000000000E+00 0. -1.
         -1   -1    0    0    0  501 -0.00000000000E+00 -0.00000000000E+00 -0.39393013379E+03  0.39393013379E+03  0.00000000000E+00 0.  1.
         25    2    1    2    0    0  0.33373074283E+02  0.35516556831E+02 -0.15744993811E+03  0.20691314119E+03  0.12508947634E+03 0.  0.
          5    1    3    3  502    0  0.28433419809E+02 -0.44692515303E+02 -0.52868893262E+02  0.74956471107E+02  0.41800000000E+01 0. -1.
         -5    1    3    3    0  502  0.49396544737E+01  0.80209072134E+02 -0.10458104484E+03  0.13195667008E+03  0.41800000000E+01 0. -1.
        -11    1    1    2    0    0  0.67869677103E+01 -0.57045255481E+02 -0.10157567509E+03  0.11669550923E+03  0.00000000000E+00 0.  1.
         11    1    1    2    0    0 -0.40160041993E+02  0.21528698650E+02 -0.97554398791E+02  0.10767160518E+03  0.00000000000E+00 0. -1.
</event>
<event>
 7    1  0.2666594E-009  0.1363233E+03  0.7561462E-02  0.1218364E+00
         -2   -1    0    0    0  501 -0.00000000000E+00  0.00000000000E+00  0.77550816571E+02  0.77550816571E+02  0.00000000000E+00 0.  1.
          2   -1    0    0  501    0  0.00000000000E+00 -0.00000000000E+00 -0.35716643996E+03  0.35716643996E+03  0.00000000000E+00 0. -1.
         25    2    1    2    0    0 -0.10016286662E+03  0.45256269735E+02 -0.22531750296E+03  0.28017168850E+03  0.12508984011E+03 0.  0.
          5    1    3    3  502    0 -0.13137420595E+02 -0.30133585114E+02 -0.78283998437E+01  0.34049684519E+02  0.41800000000E+01 0. -1.
         -5    1    3    3    0  502 -0.87025446028E+02  0.75389854849E+02 -0.21748910312E+03  0.24612200399E+03  0.41800000000E+01 0. -1.
        -11    1    1    2    0    0  0.39424399610E+02  0.11601039879E+02  0.17484638978E+02  0.44660721122E+02  0.00000000000E+00 0.  1.
         11    1    1    2    0    0  0.60738467013E+02 -0.56857309614E+02 -0.71782759405E+02  0.10988484691E+03  0.00000000000E+00 0. -1.
</event>
<event>
 7    1  0.2666594E-009  0.1298021E+03  0.7561462E-02  0.1227750E+00
         -1   -1    0    0    0  501 -0.00000000000E+00  0.00000000000E+00  0.10288922900E+03  0.10288922900E+03  0.00000000000E+00 0.  1.
          1   -1    0    0  501    0  0.00000000000E+00 -0.00000000000E+00 -0.32268444548E+03  0.32268444548E+03  0.00000000000E+00 0. -1.
         25    2    1    2    0    0 -0.91419422426E+02 -0.39698597913E+02 -0.24496999239E+03  0.29255790526E+03  0.12508533603E+03 0.  0.
          5    1    3    3  502    0 -0.54927954105E+02 -0.85071531883E+02 -0.16258840530E+03  0.19158994654E+03  0.41800000000E+01 0. -1.
         -5    1    3    3    0  502 -0.36491468321E+02  0.45372933970E+02 -0.82381587087E+02  0.10096795872E+03  0.41800000000E+01 0. -1.
        -11    1    1    2    0    0  0.56592560366E+02  0.21113720624E+02  0.56433039855E+02  0.82663142177E+02  0.00000000000E+00 0.  1.
         11    1    1    2    0    0  0.34826862060E+02  0.18584877289E+02 -0.31258263951E+02  0.50352627042E+02  0.00000000000E+00 0. -1.
</event>
<event>
 7    1  0.2666594E-009  0.9955207E+02  0.7561462E-02  0.1281241E+00
         -2   -1    0    0    0  501 -0.00000000000E+00  0.00000000000E+00  0.27952222494E+02  0.27952222494E+02  0.00000000000E+00 0.  1.
          2   -1    0    0  501    0  0.00000000000E+00 -0.00000000000E+00 -0.48996940272E+03  0.48996940272E+03  0.00000000000E+00 0. -1.
         25    2    1    2    0    0 -0.40927845401E+02  0.27542078657E+01 -0.30951932041E+03  0.33635244528E+03  0.12509230011E+03 0.  0.
          5    1    3    3  502    0 -0.20925277381E+02 -0.57284882494E+02 -0.97755031719E+02  0.11529502861E+03  0.41800000000E+01 0. -1.
         -5    1    3    3    0  502 -0.20002568019E+02  0.60039090360E+02 -0.21176428869E+03  0.22105741667E+03  0.41800000000E+01 0. -1.
        -11    1    1    2    0    0 -0.19058497668E+01 -0.25828880380E+02 -0.12069750044E+03  0.12344492674E+03  0.00000000000E+00 0. -1.
         11    1    1    2    0    0  0.42833695167E+02  0.23074672514E+02 -0.31800359372E+02  0.58124253195E+02  0.00000000000E+00 0.  1.
</event>
<event>
 7    1  0.2666594E-009  0.1082467E+03  0.7561462E-02  0.1263852E+00
         -2   -1    0    0    0  501 -0.00000000000E+00  0.00000000000E+00  0.79701227410E+02  0.79701227410E+02  0.00000000000E+00 0.  1.
          2   -1    0    0  501    0  0.00000000000E+00 -0.00000000000E+00 -0.53782573931E+03  0.53782573931E+03  0.00000000000E+00 0. -1.
         25    2    1    2    0    0 -0.38482754969E+02  0.19902293494E+02 -0.49366938096E+03  0.51110985176E+03  0.12508716623E+03 0.  0.
          5    1    3    3  502    0  0.35745617446E+02  0.40200478257E+02 -0.24008043257E+03  0.24606892149E+03  0.41800000000E+01 0.  1.
         -5    1    3    3    0  502 -0.74228372415E+02 -0.20298184763E+02 -0.25358894838E+03  0.26504093027E+03  0.41800000000E+01 0.  1.
        -11    1    1    2    0    0 -0.15711230649E+02 -0.26569673305E+02  0.41246551291E+02  0.51517650387E+02  0.00000000000E+00 0.  1.
         11    1    1    2    0    0  0.54193985618E+02  0.66673798111E+01 -0.57016822395E+01  0.54899464579E+02  0.00000000000E+00 0. -1.
</event>
<event>
 7    1  0.2666594E-009  0.1365422E+03  0.7561462E-02  0.1218059E+00
          1   -1    0    0  501    0  0.00000000000E+00  0.00000000000E+00  0.91868350630E+02  0.91868350630E+02  0.00000000000E+00 0. -1.
         -1   -1    0    0    0  501 -0.00000000000E+00 -0.00000000000E+00 -0.29170950363E+03  0.29170950363E+03  0.00000000000E+00 0.  1.
         25    2    1    2    0    0  0.10930775825E+03 -0.46868331789E+02 -0.14398234166E+03  0.22477438538E+03  0.12509109911E+03 0.  0.
          5    1    3    3  502    0  0.54972534875E+02  0.23376329052E+02 -0.53995198407E+01  0.60125365404E+02  0.41800000000E+01 0. -1.
         -5    1    3    3    0  502  0.54335223370E+02 -0.70244660841E+02 -0.13858282182E+03  0.16464901998E+03  0.41800000000E+01 0. -1.
        -11    1    1    2    0    0 -0.86609720941E+02  0.19566863522E+02  0.43575878345E+01  0.88899350286E+02  0.00000000000E+00 0. -1.
         11    1    1    2    0    0 -0.22698037305E+02  0.27301468267E+02 -0.60216399174E+02  0.69904118594E+02  0.00000000000E+00 0.  1.
</event>
<event>
 7    1  0.2666594E-009  0.1376924E+03  0.7561462E-02  0.1216468E+00
         -1   -1    0    0    0  501 -0.00000000000E+00  0.00000000000E+00  0.58531654333E+03  0.58531654333E+03  0.00000000000E+00 0.  1.
          1   -1    0    0  501    0  0.00000000000E+00 -0.00000000000E+00 -0.57694034132E+02  0.57694034132E+02  0.00000000000E+00 0. -1.
         25    2    1    2    0    0 -0.89043882286E+02  0.80051688975E+02  0.10719224887E+03  0.20365378360E+03  0.12509036524E+03 0.  0.
          5    1    3    3  502    0 -0.57181347773E+02 -0.10602874565E+02 -0.17454267603E+01  0.58332207200E+02  0.41800000000E+01 0. -1.
         -5    1    3    3    0  502 -0.31862534513E+02  0.90654563540E+02  0.10893767563E+03  0.14532157640E+03  0.41800000000E+01 0. -1.
        -11    1    1    2    0    0  0.73775801649E+02 -0.56922636754E+02  0.37262115243E+03  0.38409579368E+03  0.00000000000E+00 0.  1.
         11    1    1    2    0    0  0.15268080637E+02 -0.23129052222E+02  0.47809107900E+02  0.55261000183E+02  0.00000000000E+00 0. -1.
</event>
<event>
 7    1  0.2666594E-009  0.1135483E+03  0.7561462E-02  0.1254137E+00
          2   -1    0    0  501    0  0.00000000000E+00  0.00000000000E+00  0.86315103589E+02  0.86315103589E+02  0.00000000000E+00 0. -1.
         -2   -1    0    0    0  501 -0.00000000000E+00 -0.00000000000E+00 -0.15184310760E+03  0.15184310760E+03  0.00000000000E+00 0.  1.
         25    2    1    2    0    0  0.12428835819E+02  0.35987203940E+02 -0.36793315557E+02  0.13584088158E+03  0.12509773072E+03 0.  0.
          5    1    3    3  502    0 -0.18114402867E+02 -0.41998509461E+02 -0.21028323668E+02  0.50514049377E+02  0.41800000000E+01 0.  1.
         -5    1    3    3    0  502  0.30543238686E+02  0.77985713401E+02 -0.15764991890E+02  0.85326832200E+02  0.41800000000E+01 0.  1.
        -11    1    1    2    0    0 -0.35012411676E+02  0.17578922509E+02 -0.18361231543E+02  0.43266873145E+02  0.00000000000E+00 0.  1.
         11    1    1    2    0    0  0.22583575857E+02 -0.53566126449E+02 -0.10373456915E+02  0.59050456472E+02  0.00000000000E+00 0. -1.
</event>
<event>
 7    1  0.2666594E-009  0.2438195E+03  0.7561462E-02  0.1117274E+00
         -2   -1    0    0    0  501 -0.00000000000E+00  0.00000000000E+00  0.11922374482E+03  0.11922374482E+03  0.00000000000E+00 0. -1.
          2   -1    0    0  501    0  0.00000000000E+00 -0.00000000000E+00 -0.67304751203E+03  0.67304751203E+03  0.00000000000E+00 0.  1.
         25    2    1    2    0    0  0.46509582295E+02 -0.21951192811E+03 -0.10006905580E+03  0.27569698296E+03  0.12508550138E+03 0.  0.
          5    1    3    3  502    0  0.45019179440E+02 -0.23033974038E+03 -0.11102444987E+03  0.25966713959E+03  0.41800000000E+01 0.  1.
         -5    1    3    3    0  502  0.14904028545E+01  0.10827812267E+02  0.10955394071E+02  0.16029843368E+02  0.41800000000E+01 0.  1.
        -11    1    1    2    0    0  0.16857153507E+02  0.13246516006E+03 -0.19526865295E+03  0.23656083590E+03  0.00000000000E+00 0.  1.
         11    1    1    2    0    0 -0.63366735801E+02  0.87046768055E+02 -0.25848605846E+03  0.28001343799E+03  0.00000000000E+00 0. -1.
</event>
<event>
 7    1  0.2666594E-009  0.1221977E+03  0.7561462E-02  0.1239515E+00
         -2   -1    0    0    0  501 -0.00000000000E+00  0.00000000000E+00  0.56942132219E+02  0.56942132219E+02  0.00000000000E+00 0.  1.
          2   -1    0    0  501    0  0.00000000000E+00 -0.00000000000E+00 -0.38617134632E+03  0.38617134632E+03  0.00000000000E+00 0. -1.
         25    2    1    2    0    0 -0.72375573827E+02  0.53127325369E+02 -0.25112877332E+03  0.29457426295E+03  0.12509036421E+03 0.  0.
          5    1    3    3  502    0  0.14020749683E+02 -0.57374872460E+01 -0.14390910994E+03  0.14476465213E+03  0.41800000000E+01 0. -1.
         -5    1    3    3    0  502 -0.86396323510E+02  0.58864812615E+02 -0.10721966338E+03  0.14980961082E+03  0.41800000000E+01 0. -1.
        -11    1    1    2    0    0  0.72489400135E+02 -0.15813263625E+01 -0.31509158408E+02  0.79057199473E+02  0.00000000000E+00 0.  1.
         11    1    1    2    0    0 -0.11382630838E+00 -0.51545999007E+02 -0.46591282374E+02  0.69482016114E+02  0.00000000000E+00 0. -1.
</event>
<event>
 7    1  0.2666594E-009  0.1604008E+03  0.7561462E-02  0.1188245E+00
         -2   -1    0    0    0  501 -0.00000000000E+00  0.00000000000E+00  0.14415426704E+03  0.14415426704E+03  0.00000000000E+00 0.  1.
          2   -1    0    0  501    0  0.00000000000E+00 -0.00000000000E+00 -0.18967312308E+03  0.18967312308E+03  0.00000000000E+00 0. -1.
         25    2    1    2    0    0 -0.11815281008E+03  0.38338012544E+02 -0.13749169686E+02  0.17682254315E+03  0.12508909769E+03 0.  0.
          5    1    3    3  502    0 -0.29053014423E+02  0.73978671214E+02 -0.13749656201E+02  0.80767858009E+02  0.41800000000E+01 0.  1.
         -5    1    3    3    0  502 -0.89099795658E+02 -0.35640658670E+02  0.48651408393E-03  0.96054685138E+02  0.41800000000E+01 0.  1.
        -11    1    1    2    0    0  0.71179832218E+02 -0.60315343786E+02 -0.44853528233E+02  0.10351979620E+03  0.00000000000E+00 0.  1.
         11    1    1    2    0    0  0.46972977862E+02  0.21977331243E+02  0.13083841872E+02  0.53485050771E+02  0.00000000000E+00 0. -1.
</event>
<event>
 7    1  0.2666594E-009  0.1234730E+03  0.7561462E-02  0.1237475E+00
          1   -1    0    0  501    0  0.00000000000E+00  0.00000000000E+00  0.64056279654E+03  0.64056279654E+03  0.00000000000E+00 0. -1.
         -1   -1    0    0    0  501 -0.00000000000E+00 -0.00000000000E+00 -0.30797624216E+02  0.30797624216E+02  0.00000000000E+00 0.  1.
         25    2    1    2    0    0 -0.45999503378E+02  0.76432634559E+02  0.28927343264E+03  0.32754432527E+03  0.12509302238E+03 0.  0.
          5    1    3    3  502    0  0.21160621364E+02 -0.32896615897E+00  0.16643483739E+03  0.16782701693E+03  0.41800000000E+01 0.  1.
         -5    1    3    3    0  502 -0.67160124742E+02  0.76761600718E+02  0.12283859525E+03  0.15971730834E+03  0.41800000000E+01 0.  1.
        -11    1    1    2    0    0  0.26461514396E+01 -0.79768758765E+02  0.18395806259E+03  0.20052587310E+03  0.00000000000E+00 0. -1.
         11    1    1    2    0    0  0.43353351938E+02  0.33361242056E+01  0.13653367710E+03  0.14329022238E+03  0.00000000000E+00 0.  1.
</event>
<event>
 7    1  0.2666594E-009  0.2805646E+03  0.7561462E-02  0.1095381E+00
          2   -1    0    0  501    0  0.00000000000E+00  0.00000000000E+00  0.15881147151E+04  0.15881147151E+04  0.00000000000E+00 0. -1.
         -2   -1    0    0    0  501 -0.00000000000E+00 -0.00000000000E+00 -0.52889522357E+02  0.52889522357E+02  0.00000000000E+00 0.  1.
         25    2    1    2    0    0  0.26748627133E+03  0.15186714415E+02  0.74176804209E+03  0.79852772447E+03  0.12508859596E+03 0.  0.
          5    1    3    3  502    0 -0.62752688218E+01 -0.13777616341E+02  0.16594842189E+02  0.22848695763E+02  0.41800000000E+01 0.  1.
         -5    1    3    3    0  502  0.27376154015E+03  0.28964330756E+02  0.72517319990E+03  0.77567902871E+03  0.41800000000E+01 0.  1.
        -11    1    1    2    0    0 -0.11966677843E+03  0.10269495101E+02  0.48262930937E+03  0.49734962617E+03  0.00000000000E+00 0. -1.
         11    1    1    2    0    0 -0.14781949290E+03 -0.25456209516E+02  0.31082784123E+03  0.34512688677E+03  0.00000000000E+00 0.  1.
</event>
<event>
 7    1  0.2666594E-009  0.2185371E+03  0.7561462E-02  0.1134978E+00
         -2   -1    0    0    0  501 -0.00000000000E+00  0.00000000000E+00  0.13986960892E+03  0.13986960892E+03  0.00000000000E+00 0. -1.
          2   -1    0    0  501    0  0.00000000000E+00 -0.00000000000E+00 -0.38713997574E+03  0.38713997574E+03  0.00000000000E+00 0.  1.
         25    2    1    2    0    0 -0.13793743521E+03 -0.14486729895E+03 -0.17707430141E+03  0.29498699320E+03  0.12509495434E+03 0.  0.
          5    1    3    3  502    0 -0.46693595881E+02  0.16290384603E+02 -0.49277997836E+02  0.69938987679E+02  0.41800000000E+01 0.  1.
         -5    1    3    3    0  502 -0.91243839332E+02 -0.16115768355E+03 -0.12779630357E+03  0.22504800553E+03  0.41800000000E+01 0.  1.
        -11    1    1    2    0    0  0.71383847196E+02  0.96014341407E+02  0.58384025167E+01  0.11978520084E+03  0.00000000000E+00 0.  1.
         11    1    1    2    0    0  0.66553588018E+02  0.48852957543E+02 -0.76034467929E+02  0.11223739062E+03  0.00000000000E+00 0. -1.
</event>
<event>
 7    1  0.2666594E-009  0.1663219E+03  0.7561462E-02  0.1181739E+00
         -1   -1    0    0    0  501 -0.00000000000E+00  0.00000000000E+00  0.43018592953E+03  0.43018592953E+03  0.00000000000E+00 0. -1.
          1   -1    0    0  501    0  0.00000000000E+00 -0.00000000000E+00 -0.89416261542E+02  0.89416261542E+02  0.00000000000E+00 0.  1.
         25    2    1    2    0    0 -0.15533566603E+03  0.50141213797E+02  0.18234200450E+03  0.27484320214E+03  0.12508744420E+03 0.  0.
          5    1    3    3  502    0 -0.12528656069E+03  0.41487243437E+02  0.53962533391E+02  0.14264410632E+03  0.41800000000E+01 0.  1.
         -5    1    3    3    0  502 -0.30049105339E+02  0.86539703596E+01  0.12837947111E+03  0.13219909583E+03  0.41800000000E+01 0.  1.
        -11    1    1    2    0    0  0.63291599772E+02 -0.43438757209E+02  0.12483255725E+03  0.14654664643E+03  0.00000000000E+00 0.  1.
         11    1    1    2    0    0  0.92044066253E+02 -0.67024565881E+01  0.33595106236E+02  0.98212342502E+02  0.00000000000E+00 0. -1.
</event>
<event>
 7    1  0.2666594E-009  0.9514528E+02  0.7561462E-02  0.1290849E+00
         -2   -1    0    0    0  501 -0.00000000000E+00  0.00000000000E+00  0.51708450872E+03  0.51708450872E+03  0.00000000000E+00 0.  1.
          2   -1    0    0  501    0  0.00000000000E+00 -0.00000000000E+00 -0.20574053897E+02  0.20574053897E+02  0.00000000000E+00 0. -1.
         25    2    1    2    0    0 -0.27457454757E+02 -0.20147234732E+02  0.37671798334E+03  0.39839974107E+03  0.12508433885E+03 0.  0.
          5    1    3    3  502    0 -0.51906931939E+02 -0.57755942433E+02  0.29508593285E+03  0.30516103722E+03  0.41800000000E+01 0. -1.
         -5    1    3    3    0  502  0.24449477182E+02  0.37608707701E+02  0.81632050491E+02  0.93238703856E+02  0.41800000000E+01 0. -1.
        -11    1    1    2    0    0  0.43997184151E+02  0.24515015619E+02  0.67369668197E+02  0.84115458728E+02  0.00000000000E+00 0. -1.
         11    1    1    2    0    0 -0.16539729394E+02 -0.43677808866E+01  0.52422803281E+02  0.55143362811E+02  0.00000000000E+00 0.  1.
</event>
<event>
 7    1  0.2666594E-009  0.7288832E+02  0.7561462E-02  0.1350538E+00
          2   -1    0    0  501    0  0.00000000000E+00  0.00000000000E+00  0.43746416047E+02  0.43746416047E+02  0.00000000000E+00 0. -1.
         -2   -1    0    0    0  501 -0.00000000000E+00 -0.00000000000E+00 -0.33835897528E+03  0.33835897528E+03  0.00000000000E+00 0.  1.
         25    2    1    2    0    0  0.12863172607E+02 -0.41064720685E+02 -0.11345219790E+03  0.17427088423E+03  0.12508863812E+03 0.  0.
          5    1    3    3  502    0  0.21563215352E+01 -0.15448570878E+02 -0.13680310378E+03  0.13775292980E+03  0.41800000000E+01 0.  1.
         -5    1    3    3    0  502  0.10706851072E+02 -0.25616149807E+02  0.23350905875E+02  0.36517954434E+02  0.41800000000E+01 0.  1.
        -11    1    1    2    0    0  0.25577187262E+02  0.55005352188E+02 -0.11607808118E+03  0.13097290638E+03  0.00000000000E+00 0.  1.
         11    1    1    2    0    0 -0.38440359869E+02 -0.13940631503E+02 -0.65082280149E+02  0.76861600705E+02  0.00000000000E+00 0. -1.
</event>
<event>
 7    1  0.2666594E-009  0.2676178E+03  0.7561462E-02  0.1102651E+00
          2   -1    0    0  501    0  0.00000000000E+00  0.00000000000E+00  0.28626895220E+03  0.28626895220E+03  0.00000000000E+00 0. -1.
         -2   -1    0    0    0  501 -0.00000000000E+00 -0.00000000000E+00 -0.27352323135E+03  0.27352323135E+03  0.00000000000E+00 0.  1.
         25    2    1    2    0    0  0.25216845655E+03 -0.26822100800E+02  0.18340004620E+02  0.28335799669E+03  0.12508814072E+03 0.  0.
          5    1    3    3  502    0 -0.80196834360E+01 -0.10584720455E+02 -0.15048806384E+02  0.20500990296E+02  0.41800000000E+01 0. -1.
         -5    1    3    3    0  502  0.26018813998E+03 -0.16237380345E+02  0.33388811004E+02  0.26285700639E+03  0.41800000000E+01 0. -1.
        -11    1    1    2    0    0 -0.31182301604E+02 -0.16672757924E+02  0.32479516136E+02  0.48012870759E+02  0.00000000000E+00 0. -1.
         11    1    1    2    0    0 -0.22098615494E+03  0.43494858724E+02 -0.38073799905E+02  0.22842131610E+03  0.00000000000E+00 0.  1.
</event>
<event>
 7    1  0.2666594E-009  0.1197049E+03  0.7561462E-02  0.1243585E+00
          1   -1    0    0  501    0  0.00000000000E+00  0.00000000000E+00  0.11948218525E+03  0.11948218525E+03  0.00000000000E+00 0. -1.
         -1   -1    0    0    0  501 -0.00000000000E+00 -0.00000000000E+00 -0.20405603144E+03  0.20405603144E+03  0.00000000000E+00 0.  1.
         25    2    1    2    0    0 -0.58673903358E+02  0.65063480225E+02 -0.11949755790E+03  0.19390765708E+03  0.12507849429E+03 0.  0.
          5    1    3    3  502    0 -0.87394218664E+02  0.51413512840E+02 -0.12537677091E+03  0.16130066907E+03  0.41800000000E+01 0. -1.
         -5    1    3    3    0  502  0.28720315306E+02  0.13649967385E+02  0.58792130176E+01  0.32606988002E+02  0.41800000000E+01 0. -1.
        -11    1    1    2    0    0  0.48250156315E+02 -0.76459692992E+02  0.53826246282E+02  0.10522084882E+03  0.00000000000E+00 0. -1.
         11    1    1    2    0    0  0.10423747043E+02  0.11396212767E+02 -0.18902534575E+02  0.24409710797E+02  0.00000000000E+00 0.  1.
</event>
<event>
 7    1  0.2666594E-009  0.1757845E+03  0.7561462E-02  0.1171946E+00
          2   -1    0    0  501    0  0.00000000000E+00  0.00000000000E+00  0.46252898273E+03  0.46252898273E+03  0.00000000000E+00 0. -1.
         -2   -1    0    0    0  501 -0.00000000000E+00 -0.00000000000E+00 -0.99684853576E+02  0.99684853576E+02  0.00000000000E+00 0.  1.
         25    2    1    2    0    0  0.11223369273E+02  0.17029229758E+03  0.95969918975E+02  0.23234114627E+03  0.12508697882E+03 0.  0.
          5    1    3    3  502    0 -0.12519778866E+02  0.17361725485E+02  0.72554262393E+02  0.75761255045E+02  0.41800000000E+01 0. -1.
         -5    1    3    3    0  502  0.23743148139E+02  0.15293057209E+03  0.23415656582E+02  0.15657989123E+03  0.41800000000E+01 0. -1.
        -11    1    1    2    0    0 -0.24368806127E+02 -0.78033777729E+02  0.19732981546E+03  0.21359345787E+03  0.00000000000E+00 0. -1.
         11    1    1    2    0    0  0.13145436854E+02 -0.92258519846E+02  0.69544394722E+02  0.11627923216E+03  0.00000000000E+00 0.  1.
</event>
<event>
 7    1  0.2666594E-009  0.1137429E+03  0.7561462E-02  0.1253791E+00
          3   -1    0    0  501    0  0.00000000000E+00  0.00000000000E+00  0.33341117750E+02  0.33341117750E+02  0.00000000000E+00 0. -1.
         -3   -1    0    0    0  501 -0.00000000000E+00 -0.00000000000E+00 -0.53763816964E+03  0.53763816964E+03  0.00000000000E+00 0.  1.
         25    2    1    2    0    0 -0.48838914813E+02 -0.46432177656E+02 -0.36338821217E+03  0.39017952925E+03  0.12509150885E+03 0.  0.
          5    1    3    3  502    0  0.17534694218E+02 -0.61370643369E+02 -0.10496760720E+03  0.12292067495E+03  0.41800000000E+01 0. -1.
         -5    1    3    3    0  502 -0.66373609032E+02  0.14938465713E+02 -0.25842060496E+03  0.26725885430E+03  0.41800000000E+01 0. -1.
        -11    1    1    2    0    0  0.60015475160E+01  0.51837162734E+02 -0.12381444781E+03  0.13436192727E+03  0.00000000000E+00 0.  1.
         11    1    1    2    0    0  0.42837367297E+02 -0.54049850787E+01 -0.17094391913E+02  0.46437830866E+02  0.00000000000E+00 0. -1.
</event>
<event>
 7    1  0.2666594E-009  0.9713011E+02  0.7561462E-02  0.1286449E+00
         -1   -1    0    0    0  501 -0.00000000000E+00  0.00000000000E+00  0.24196958437E+03  0.24196958437E+03  0.00000000000E+00 0.  1.
          1   -1    0    0  501    0  0.00000000000E+00 -0.00000000000E+00 -0.86124942749E+02  0.86124942749E+02  0.00000000000E+00 0. -1.
         25    2    1    2    0    0 -0.79964541348E+01  0.90843914455E+02  0.51624647907E+02  0.16319121231E+03  0.12509879069E+03 0.  0.
          5    1    3    3  502    0 -0.15391758391E+02  0.49522355778E+02 -0.37804190156E+02  0.64311734090E+02  0.41800000000E+01 0. -1.
         -5    1    3    3    0  502  0.73953042566E+01  0.41321558677E+02  0.89428838064E+02  0.98879478225E+02  0.41800000000E+01 0. -1.
        -11    1    1    2    0    0  0.16845583730E+02 -0.11938385170E+02 -0.12202121681E+02  0.23983129595E+02  0.00000000000E+00 0. -1.
         11    1    1    2    0    0 -0.88491295956E+01 -0.78905529286E+02  0.11642211539E+03  0.14092018521E+03  0.00000000000E+00 0.  1.
</event>
<event>
 7    1  0.2666594E-009  0.1185026E+03  0.7561462E-02  0.1245588E+00
         -2   -1    0    0    0  501 -0.00000000000E+00  0.00000000000E+00  0.10246821981E+03  0.10246821981E+03  0.00000000000E+00 0. -1.
          2   -1    0    0  501    0  0.00000000000E+00 -0.00000000000E+00 -0.17837056983E+03  0.17837056983E+03  0.00000000000E+00 0.  1.
         25    2    1    2    0    0  0.75798030370E+02  0.11344897075E+02 -0.17520122225E+02  0.14774607214E+03  0.12509156268E+03 0.  0.
          5    1    3    3  502    0  0.60502233217E+02 -0.50106026403E+02 -0.27840200260E+02  0.83448686369E+02  0.41800000000E+01 0. -1.
         -5    1    3    3    0  502  0.15295797154E+02  0.61450923479E+02  0.10320078035E+02  0.64297385776E+02  0.41800000000E+01 0. -1.
        -11    1    1    2    0    0 -0.24996306577E+02 -0.31506237006E+02 -0.66620982693E+02  0.77819108501E+02  0.00000000000E+00 0.  1.
         11    1    1    2    0    0 -0.50801723793E+02  0.20161339931E+02  0.82387548998E+01  0.55273608987E+02  0.00000000000E+00 0. -1.
</event>
<event>
 7    1  0.2666594E-009  0.1277304E+03  0.7561462E-02  0.1230863E+00
          4   -1    0    0  501    0  0.00000000000E+00  0.00000000000E+00  0.96248480632E+02  0.96248480632E+02  0.00000000000E+00 0. -1.
         -4   -1    0    0    0  501 -0.00000000000E+00 -0.00000000000E+00 -0.17191342086E+03  0.17191342086E+03  0.00000000000E+00 0.  1.
         25    2    1    2    0    0  0.27584202753E+02  0.62558041480E+02 -0.44219229003E+02  0.14925489344E+03  0.12508911306E+03 0.  0.
          5    1    3    3  502    0 -0.19975966662E+02  0.86666349962E+02 -0.26086813001E+02  0.92779791293E+02  0.41800000000E+01 0. -1.
         -5    1    3    3    0  502  0.47560169415E+02 -0.24108308482E+02 -0.18132416002E+02  0.56475102149E+02  0.41800000000E+01 0. -1.
        -11    1    1    2    0    0  0.26538762865E+02  0.43370421770E+01 -0.16560445921E+02  0.31581074053E+02  0.00000000000E+00 0.  1.
         11    1    1    2    0    0 -0.54122965618E+02 -0.66895083657E+02 -0.14885265302E+02  0.87325933994E+02  0.00000000000E+00 0. -1.
</event>
<event>
 7    1  0.2666594E-009  0.1314236E+03  0.7561462E-02  0.1225359E+00
          4   -1    0    0  501    0  0.00000000000E+00  0.00000000000E+00  0.72209781486E+02  0.72209781486E+02  0.00000000000E+00 0. -1.
         -4   -1    0    0    0  501 -0.00000000000E+00 -0.00000000000E+00 -0.33632767273E+03  0.33632767273E+03  0.00000000000E+00 0.  1.
         25    2    1    2    0    0  0.10256449929E+03 -0.92766333428E+01 -0.86089652373E+02  0.18347989091E+03  0.12509160516E+03 0.  0.
          5    1    3    3  502    0  0.21527526485E+02 -0.56509541447E+02 -0.75744481588E+01  0.61086883502E+02  0.41800000000E+01 0. -1.
         -5    1    3    3    0  502  0.81036972804E+02  0.47232908104E+02 -0.78515204214E+02  0.12239300741E+03  0.41800000000E+01 0. -1.
        -11    1    1    2    0    0 -0.39333410026E+02 -0.12805198716E+02 -0.77555712507E+01  0.42086092048E+02  0.00000000000E+00 0. -1.
         11    1    1    2    0    0 -0.63231089263E+02  0.22081832059E+02 -0.17027266762E+03  0.18297147125E+03  0.00000000000E+00 0.  1.
</event>
<event>
 7    1  0.2666594E-009  0.9104379E+02  0.7561462E-02  0.1300344E+00
         -2   -1    0    0    0  501 -0.00000000000E+00  0.00000000000E+00  0.23043983113E+03  0.23043983113E+03  0.00000000000E+00 0.  1.
          2   -1    0    0  501    0  0.00000000000E+00 -0.00000000000E+00 -0.51654566705E+02  0.51654566705E+02  0.00000000000E+00 0. -1.
         25    2    1    2    0    0 -0.49995335405E+01  0.57874775496E+01  0.91581517817E+02  0.15522470567E+03  0.12509614147E+03 0.  0.
          5    1    3    3  502    0 -0.43439306223E+02 -0.43778645115E+02  0.53311027982E+02  0.81627698716E+02  0.41800000000E+01 0. -1.
         -5    1    3    3    0  502  0.38439772683E+02  0.49566122664E+02  0.38270489835E+02  0.73597006950E+02  0.41800000000E+01 0. -1.
        -11    1    1    2    0    0  0.29273562030E+02  0.68183156374E+01 -0.51992323136E+01  0.30503489615E+02  0.00000000000E+00 0. -1.
         11    1    1    2    0    0 -0.24274028489E+02 -0.12605793187E+02  0.92402978922E+02  0.96366202553E+02  0.00000000000E+00 0.  1.
</event>
<event>
 7    1  0.2666594E-009  0.8259493E+02  0.7561462E-02  0.1321845E+00
         -2   -1    0    0    0  501 -0.00000000000E+00  0.00000000000E+00  0.36414174787E+03  0.36414174787E+03  0.00000000000E+00 0.  1.
          2   -1    0    0  501    0  0.00000000000E+00 -0.00000000000E+00 -0.50405170759E+02  0.50405170759E+02  0.00000000000E+00 0. -1.
         25    2    1    2    0    0 -0.32445723888E+02 -0.46776444064E+02  0.26458546719E+03  0.29815012903E+03  0.12508904538E+03 0.  0.
          5    1    3    3  502    0 -0.10788115195E+02 -0.30269939171E+02  0.27403675241E+00  0.32406791619E+02  0.41800000000E+01 0.  1.
         -5    1    3    3    0  502 -0.21657608693E+02 -0.16506504893E+02  0.26431143044E+03  0.26574333741E+03  0.41800000000E+01 0.  1.
        -11    1    1    2    0    0  0.44352041228E+01  0.69207423071E+02  0.36336713999E+02  0.78292370178E+02  0.00000000000E+00 0. -1.
         11    1    1    2    0    0  0.28010519765E+02 -0.22430979007E+02  0.12814395923E+02  0.38104419423E+02  0.00000000000E+00 0.  1.
</event>
<event>
 7    1  0.2666594E-009  0.1133885E+03  0.7561462E-02  0.1254421E+00
          2   -1    0    0  501    0  0.00000000000E+00  0.00000000000E+00  0.98922249378E+03  0.98922249378E+03  0.00000000000E+00 0. -1.
         -2   -1    0    0    0  501 -0.00000000000E+00 -0.00000000000E+00 -0.19256233923E+02  0.19256233923E+02  0.00000000000E+00 0.  1.
         25    2    1    2    0    0 -0.74393528803E+02 -0.38509915837E+02  0.57780601007E+03  0.59709648484E+03  0.12508803373E+03 0.  0.
          5    1    3    3  502    0 -0.29975775635E+02  0.16471977741E+02  0.44725618791E+03  0.44858159035E+03  0.41800000000E+01 0. -1.
         -5    1    3    3    0  502 -0.44417753168E+02 -0.54981893578E+02  0.13054982216E+03  0.14851489448E+03  0.41800000000E+01 0. -1.
        -11    1    1    2    0    0 -0.12137251400E+02  0.32594385603E+02  0.15515024579E+03  0.15900096105E+03  0.00000000000E+00 0. -1.
         11    1    1    2    0    0  0.86530780203E+02  0.59155302340E+01  0.23701000400E+03  0.25238128182E+03  0.00000000000E+00 0.  1.
</event>
<event>
 7    1  0.2666594E-009  0.1299570E+03  0.7561462E-02  0.1227520E+00
         -3   -1    0    0    0  501 -0.00000000000E+00  0.00000000000E+00  0.51318921475E+03  0.51318921475E+03  0.00000000000E+00 0.  1.
          3   -1    0    0  501    0  0.00000000000E+00 -0.00000000000E+00 -0.36404969273E+02  0.36404969273E+02  0.00000000000E+00 0. -1.
         25    2    1    2    0    0  0.42920443153E+02 -0.61838397176E+02  0.33202579759E+03  0.36270481480E+03  0.12508997004E+03 0.  0.
          5    1    3    3  502    0 -0.78717022192E+01 -0.86328775186E+02  0.16605573652E+03  0.18736755630E+03  0.41800000000E+01 0.  1.
         -5    1    3    3    0  502  0.50792145373E+02  0.24490378011E+02  0.16597006107E+03  0.17533725850E+03  0.41800000000E+01 0.  1.
        -11    1    1    2    0    0 -0.68650005870E+02  0.59324277362E+02  0.12445744638E+03  0.15401898958E+03  0.00000000000E+00 0.  1.
         11    1    1    2    0    0  0.25729562717E+02  0.25141198131E+01  0.20301001498E+02  0.32870379643E+02  0.00000000000E+00 0. -1.
</event>
<event>
 7    1  0.2666594E-009  0.5243007E+02  0.7561462E-02  0.1432658E+00
          2   -1    0    0  501    0  0.00000000000E+00  0.00000000000E+00  0.32640671867E+03  0.32640671867E+03  0.00000000000E+00 0.  1.
         -2   -1    0    0    0  501 -0.00000000000E+00 -0.00000000000E+00 -0.42441501790E+02  0.42441501790E+02  0.00000000000E+00 0. -1.
         25    2    1    2    0    0  0.43834260117E+02  0.65524720392E+01  0.18686137433E+03  0.22919129420E+03  0.12508836425E+03 0.  0.
          5    1    3    3  502    0 -0.58627848767E+01  0.45664632616E+01 -0.17155642888E+02  0.19157591605E+02  0.41800000000E+01 0.  1.
         -5    1    3    3    0  502  0.49697044994E+02  0.19860087776E+01  0.20401701722E+03  0.21003370260E+03  0.41800000000E+01 0.  1.
        -11    1    1    2    0    0 -0.34398696516E+02 -0.10828142201E+02  0.11414936618E+03  0.11971047065E+03  0.00000000000E+00 0.  1.
         11    1    1    2    0    0 -0.94355636014E+01  0.42756701614E+01 -0.17045523623E+02  0.19946455610E+02  0.00000000000E+00 0. -1.
</event>
<event>
 7    1  0.2666594E-009  0.1419178E+03  0.7561462E-02  0.1210771E+00
         -2   -1    0    0    0  501 -0.00000000000E+00  0.00000000000E+00  0.12049956913E+03  0.12049956913E+03  0.00000000000E+00 0.  1.
          2   -1    0    0  501    0  0.00000000000E+00 -0.00000000000E+00 -0.39896055557E+03  0.39896055557E+03  0.00000000000E+00 0. -1.
         25    2    1    2    0    0 -0.82992671106E+02 -0.86770775190E+02  0.30204115526E+02  0.17600233277E+03  0.12509029403E+03 0.  0.
          5    1    3    3  502    0 -0.89484254553E+00 -0.40519251185E+02 -0.41014638001E+02  0.57812484725E+02  0.41800000000E+01 0. -1.
         -5    1    3    3    0  502 -0.82097828561E+02 -0.46251524005E+02  0.71218753527E+02  0.11818984805E+03  0.41800000000E+01 0. -1.
        -11    1    1    2    0    0 -0.18684370764E+02  0.88851338925E+01 -0.26795005560E+02  0.33852970890E+02  0.00000000000E+00 0.  1.
         11    1    1    2    0    0  0.10167704187E+03  0.77885641298E+02 -0.28187009641E+03  0.30960482104E+03  0.00000000000E+00 0. -1.
</event>
<event>
 7    1  0.2666594E-009  0.1052802E+03  0.7561462E-02  0.1269568E+00
          2   -1    0    0  501    0  0.00000000000E+00  0.00000000000E+00  0.42004977750E+03  0.42004977750E+03  0.00000000000E+00 0. -1.
         -2   -1    0    0    0  501 -0.00000000000E+00 -0.00000000000E+00 -0.28173263417E+02  0.28173263417E+02  0.00000000000E+00 0.  1.
         25    2    1    2    0    0  0.16361476842E+01  0.10958362408E+02  0.23276304688E+03  0.26447871873E+03  0.12509034329E+03 0.  0.
          5    1    3    3  502    0 -0.50451905612E+02 -0.23873730231E+02  0.15328144014E+03  0.16318094885E+03  0.41800000000E+01 0.  1.
         -5    1    3    3    0  502  0.52088053296E+02  0.34832092638E+02  0.79481606737E+02  0.10129776988E+03  0.41800000000E+01 0.  1.
        -11    1    1    2    0    0 -0.41887169850E+02  0.14308885009E+02  0.81182604476E+02  0.92465639336E+02  0.00000000000E+00 0. -1.
         11    1    1    2    0    0  0.40251022166E+02 -0.25267247417E+02  0.77930862730E+02  0.91278682852E+02  0.00000000000E+00 0.  1.
</event>
<event>
 7    1  0.2666594E-009  0.2461045E+03  0.7561462E-02  0.1115792E+00
         -2   -1    0    0    0  501 -0.00000000000E+00  0.00000000000E+00  0.95759014738E+02  0.95759014738E+02  0.00000000000E+00 0.  1.
          2   -1    0    0  501    0  0.00000000000E+00 -0.00000000000E+00 -0.76364998079E+03  0.76364998079E+03  0.00000000000E+00 0. -1.
         25    2    1    2    0    0 -0.23170986227E+03 -0.51034761668E+02 -0.23197219853E+03  0.35461548293E+03  0.12508809963E+03 0.  0.
          5    1    3    3  502    0 -0.10510367706E+03  0.50462940365E+01 -0.17621083796E+03  0.20528024705E+03  0.41800000000E+01 0.  1.
         -5    1    3    3    0  502 -0.12660618521E+03 -0.56081055705E+02 -0.55761360576E+02  0.14933523588E+03  0.41800000000E+01 0.  1.
        -11    1    1    2    0    0  0.94242734718E+02  0.58110133001E+02 -0.14051438742E+03  0.17889319069E+03  0.00000000000E+00 0.  1.
         11    1    1    2    0    0  0.13746712755E+03 -0.70753713324E+01 -0.29540438010E+03  0.32590032191E+03  0.00000000000E+00 0. -1.
</event>
<event>
 7    1  0.2666594E-009  0.6144674E+02  0.7561462E-02  0.1391859E+00
         -1   -1    0    0    0  501 -0.00000000000E+00  0.00000000000E+00  0.24269858333E+03  0.24269858333E+03  0.00000000000E+00 0.  1.
          1   -1    0    0  501    0  0.00000000000E+00 -0.00000000000E+00 -0.93250182694E+02  0.93250182694E+02  0.00000000000E+00 0. -1.
         25    2    1    2    0    0  0.41519526847E+02  0.12655775498E+02  0.18667131022E+03  0.22885488252E+03  0.12507733379E+03 0.  0.
          5    1    3    3  502    0  0.23096055138E+02  0.19530679272E+02  0.20154642199E+03  0.20384628476E+03  0.41800000000E+01 0.  1.
         -5    1    3    3    0  502  0.18423471709E+02 -0.68749037737E+01 -0.14875111763E+02  0.25008597755E+02  0.41800000000E+01 0.  1.
        -11    1    1    2    0    0 -0.24796993137E+02  0.22399346524E+02 -0.55018833756E+02  0.64371528343E+02  0.00000000000E+00 0. -1.
         11    1    1    2    0    0 -0.16722533710E+02 -0.35055122022E+02  0.17795924167E+02  0.42722355162E+02  0.00000000000E+00 0.  1.
</event>
<event>
 7    1  0.2666594E-009  0.8447125E+02  0.7561462E-02  0.1316821E+00
         -2   -1    0    0    0  501 -0.00000000000E+00  0.00000000000E+00  0.45469069603E+02  0.45469069603E+02  0.00000000000E+00 0.  1.
          2   -1    0    0  501    0  0.00000000000E+00 -0.00000000000E+00 -0.29526401837E+03  0.29526401837E+03  0.00000000000E+00 0. -1.
         25    2    1    2    0    0  0.33033737945E+02  0.55396601939E+01 -0.10498300129E+03  0.16671403187E+03  0.12510084806E+03 0.  0.
          5    1    3    3  502    0  0.51390112229E+02  0.27544308387E+02 -0.12044839843E+03  0.13388398576E+03  0.41800000000E+01 0. -1.
         -5    1    3    3    0  502 -0.18356374284E+02 -0.22004648193E+02  0.15465397140E+02  0.32830046111E+02  0.41800000000E+01 0. -1.
        -11    1    1    2    0    0 -0.54672618679E+02 -0.16718191891E+02 -0.13698468393E+03  0.14843650765E+03  0.00000000000E+00 0. -1.
         11    1    1    2    0    0  0.21638880734E+02  0.11178531697E+02 -0.78272635492E+01  0.25582548446E+02  0.00000000000E+00 0.  1.
</event>
<event>
 7    1  0.3497357E-009  0.1699998E+03  0.7561462E-02  0.1177848E+00
         -2   -1    0    0    0  501 -0.00000000000E+00  0.00000000000E+00  0.58397373826E+02  0.58397373826E+02  0.00000000000E+00 0.  1.
          2   -1    0    0  501    0  0.00000000000E+00 -0.00000000000E+00 -0.51557999338E+03  0.51557999338E+03  0.00000000000E+00 0. -1.
         25    2    1    2    0    0 -0.10452147716E+03  0.81903051494E+02 -0.20154083759E+03  0.27183879714E+03  0.12507906851E+03 0.  0.
          5    1    3    3  502    0 -0.41768411912E+02  0.10633958343E+03 -0.11570766967E+03  0.16266051905E+03  0.41800000000E+01 0.  1.
         -5    1    3    3    0  502 -0.62753065247E+02 -0.24436531931E+02 -0.85833167917E+02  0.10917827808E+03  0.41800000000E+01 0.  1.
        -11    1    1    2    0    0  0.18579992181E+02 -0.68803281056E+02 -0.14372504699E+03  0.16042442684E+03  0.00000000000E+00 0. -1.
         11    1    1    2    0    0  0.85941484979E+02 -0.13099770438E+02 -0.11191673498E+03  0.14171414324E+03  0.00000000000E+00 0.  1.
</event>
<event>
 7    1  0.2666594E-009  0.1829599E+03  0.7561462E-02  0.1164969E+00
          1   -1    0    0  501    0  0.00000000000E+00  0.00000000000E+00  0.28511586316E+03  0.28511586316E+03  0.00000000000E+00 0. -1.
         -1   -1    0    0    0  501 -0.00000000000E+00 -0.00000000000E+00 -0.14342556781E+03  0.14342556781E+03  0.00000000000E+00 0.  1.
         25    2    1    2    0    0 -0.10480244735E+03  0.11358213686E+03  0.14160603803E+03  0.24410123771E+03  0.12509472195E+03 0.  0.
          5    1    3    3  502    0 -0.88981863986E+02  0.54616786465E+01  0.69496716538E+02  0.11311440254E+03  0.41800000000E+01 0.  1.
         -5    1    3    3    0  502 -0.15820583366E+02  0.10812045822E+03  0.72109321494E+02  0.13098683517E+03  0.41800000000E+01 0.  1.
        -11    1    1    2    0    0  0.60338802391E+02 -0.19753214982E+02 -0.37827225049E+02  0.73904394531E+02  0.00000000000E+00 0.  1.
         11    1    1    2    0    0  0.44463644962E+02 -0.93828921879E+02  0.37911482365E+02  0.11053579872E+03  0.00000000000E+00 0. -1.
</event>
<event>
 7    1  0.2666594E-009  0.2076856E+03  0.7561462E-02  0.1143412E+00
         -2   -1    0    0    0  501 -0.00000000000E+00  0.00000000000E+00  0.35802170160E+03  0.35802170160E+03  0.00000000000E+00 0.  1.
          2   -1    0    0  501    0  0.00000000000E+00 -0.00000000000E+00 -0.13566083834E+03  0.13566083834E+03  0.00000000000E+00 0. -1.
         25    2    1    2    0    0  0.16597730708E+03 -0.94695599058E+02  0.12680482207E+03  0.26123330943E+03  0.12509059161E+03 0.  0.
          5    1    3    3  502    0  0.22687533066E+02  0.26137402870E+02  0.44369322276E+02  0.56426918617E+02  0.41800000000E+01 0.  1.
         -5    1    3    3    0  502  0.14328977402E+03 -0.12083300193E+03  0.82435499793E+02  0.20480639082E+03  0.41800000000E+01 0.  1.
        -11    1    1    2    0    0 -0.70256794391E+02  0.24812260321E+02  0.85644356727E+02  0.11351925502E+03  0.00000000000E+00 0.  1.
         11    1    1    2    0    0 -0.95720512692E+02  0.69883338737E+02  0.99116844616E+01  0.11892997550E+03  0.00000000000E+00 0. -1.
</event>
<event>
 7    1  0.2666594E-009  0.8951967E+02  0.7561462E-02  0.1304019E+00
         -2   -1    0    0    0  501 -0.00000000000E+00  0.00000000000E+00  0.28101658851E+02  0.28101658851E+02  0.00000000000E+00 0.  1.
          2   -1    0    0  501    0  0.00000000000E+00 -0.00000000000E+00 -0.46772765637E+03  0.46772765637E+03  0.00000000000E+00 0. -1.
         25    2    1    2    0    0  0.36528813815E+02  0.85401174021E+01 -0.23747970856E+03  0.27101636189E+03  0.12508384625E+03 0.  0.
          5    1    3    3  502    0  0.12696114350E+02 -0.31312620955E+02 -0.56094630286E+01  0.34505217376E+02  0.41800000000E+01 0. -1.
         -5    1    3    3    0  502  0.23832699465E+02  0.39852738357E+02 -0.23187024553E+03  0.23651114452E+03  0.41800000000E+01 0. -1.
        -11    1    1    2    0    0 -0.19382267821E+01 -0.46772194156E+02 -0.95017244106E+02  0.10592295099E+03  0.00000000000E+00 0.  1.
         11    1    1    2    0    0 -0.34590587033E+02  0.38232076754E+02 -0.10712904485E+03  0.11889000233E+03  0.00000000000E+00 0. -1.
</event>
<event>
 7    1  0.3256984E-009  0.9708569E+02  0.7561462E-02  0.1286547E+00
          1   -1    0    0  501    0  0.00000000000E+00  0.00000000000E+00  0.19293417218E+03  0.19293417218E+03  0.00000000000E+00 0. -1.
         -1   -1    0    0    0  501 -0.00000000000E+00 -0.00000000000E+00 -0.76750511914E+02  0.76750511914E+02  0.00000000000E+00 0.  1.
         25    2    1    2    0    0 -0.35374070655E+02  0.39123102435E+02  0.47928604114E+02  0.14396642048E+03  0.12508891684E+03 0.  0.
          5    1    3    3  502    0  0.46778863939E+02  0.12613406269E+02  0.24334713143E+02  0.54378403736E+02  0.41800000000E+01 0. -1.
         -5    1    3    3    0  502 -0.82152934594E+02  0.26509696166E+02  0.23593890970E+02  0.89588016745E+02  0.41800000000E+01 0. -1.
        -11    1    1    2    0    0  0.21584433088E+02 -0.47786575498E+01 -0.20129182836E+02  0.29898282917E+02  0.00000000000E+00 0.  1.
         11    1    1    2    0    0  0.13789637566E+02 -0.34344444886E+02  0.88384238989E+02  0.95819980694E+02  0.00000000000E+00 0. -1.
</event>
<event>
 7    1  0.2666594E-009  0.1764605E+03  0.7561462E-02  0.1171273E+00
         -1   -1    0    0    0  501 -0.00000000000E+00  0.00000000000E+00  0.93449007977E+02  0.93449007977E+02  0.00000000000E+00 0.  1.
          1   -1    0    0  501    0  0.00000000000E+00 -0.00000000000E+00 -0.37827550713E+03  0.37827550713E+03  0.00000000000E+00 0. -1.
         25    2    1    2    0    0  0.98141968877E+02  0.11339554302E+03 -0.19199522851E+03  0.27385979901E+03  0.12508647614E+03 0.  0.
          5    1    3    3  502    0  0.11691665179E+03  0.52219508454E+02 -0.14970765348E+03  0.19704373737E+03  0.41800000000E+01 0. -1.
         -5    1    3    3    0  502 -0.18774682909E+02  0.61176034567E+02 -0.42287575033E+02  0.76816061639E+02  0.41800000000E+01 0. -1.
        -11    1    1    2    0    0 -0.10589762066E+03 -0.10320861149E+03 -0.54740175207E+02  0.15767945437E+03  0.00000000000E+00 0.  1.
         11    1    1    2    0    0  0.77556517844E+01 -0.10186931526E+02 -0.38091095433E+02  0.40185261724E+02  0.00000000000E+00 0. -1.
</event>
<event>
 7    1  0.2666594E-009  0.1230266E+03  0.7561462E-02  0.1238186E+00
          1   -1    0    0  501    0  0.00000000000E+00  0.00000000000E+00  0.73619978702E+03  0.73619978702E+03  0.00000000000E+00 0. -1.
         -1   -1    0    0    0  501 -0.00000000000E+00 -0.00000000000E+00 -0.31620730952E+02  0.31620730952E+02  0.00000000000E+00 0.  1.
         25    2    1    2    0    0 -0.52986493759E+02  0.66904967120E+02  0.54022425807E+03  0.56104715661E+03  0.12509124587E+03 0.  0.
          5    1    3    3  502    0 -0.54949182298E+02  0.85495802884E+02  0.52932106087E+03  0.53900575398E+03  0.41800000000E+01 0. -1.
         -5    1    3    3    0  502  0.19626885390E+01 -0.18590835764E+02  0.10903197195E+02  0.22041402627E+02  0.41800000000E+01 0. -1.
        -11    1    1    2    0    0  0.71752116507E+02 -0.19738326040E+02  0.90736591341E+02  0.11735031635E+03  0.00000000000E+00 0. -1.
         11    1    1    2    0    0 -0.18765622747E+02 -0.47166641079E+02  0.73618206656E+02  0.89423045011E+02  0.00000000000E+00 0.  1.
</event>
<event>
 7    1  0.2666594E-009  0.1296010E+03  0.7561462E-02  0.1228049E+00
         -1   -1    0    0    0  501 -0.00000000000E+00  0.00000000000E+00  0.23921532805E+02  0.23921532805E+02  0.00000000000E+00 0.  1.
          1   -1    0    0  501    0  0.00000000000E+00 -0.00000000000E+00 -0.71438040391E+03  0.71438040391E+03  0.00000000000E+00 0. -1.
         25    2    1    2    0    0 -0.23864924669E+02  0.67968571102E+02 -0.35467173687E+03  0.38292119391E+03  0.12508932219E+03 0.  0.
          5    1    3    3  502    0  0.36773125932E+02 -0.15063252295E+02 -0.12549339801E+03  0.13170128969E+03  0.41800000000E+01 0. -1.
         -5    1    3    3    0  502 -0.60638050601E+02  0.83031823397E+02 -0.22917833886E+03  0.25121990422E+03  0.41800000000E+01 0. -1.
        -11    1    1    2    0    0 -0.14601349924E+02 -0.75709906339E+02 -0.21872534643E+03  0.23191801678E+03  0.00000000000E+00 0. -1.
         11    1    1    2    0    0  0.38466274593E+02  0.77413352374E+01 -0.11706178781E+03  0.12346272603E+03  0.00000000000E+00 0.  1.
</event>
<event>
 7    1  0.2666594E-009  0.1113262E+03  0.7561462E-02  0.1258133E+00
          1   -1    0    0  501    0  0.00000000000E+00  0.00000000000E+00  0.48088259966E+03  0.48088259966E+03  0.00000000000E+00 0. -1.
         -1   -1    0    0    0  501 -0.00000000000E+00 -0.00000000000E+00 -0.39312332971E+02  0.39312332971E+02  0.00000000000E+00 0.  1.
         25    2    1    2    0    0 -0.33511262585E+02 -0.55700364651E+02  0.33736856621E+03  0.36564090047E+03  0.12510069260E+03 0.  0.
          5    1    3    3  502    0  0.34333371514E+02  0.18367963364E+02  0.11812957771E+03  0.12445172561E+03  0.41800000000E+01 0.  1.
         -5    1    3    3    0  502 -0.67844634099E+02 -0.74068328015E+02  0.21923898850E+03  0.24118917486E+03  0.41800000000E+01 0.  1.
        -11    1    1    2    0    0  0.25099566337E+02 -0.14998548328E+01  0.92119727782E+02  0.95489695996E+02  0.00000000000E+00 0. -1.
         11    1    1    2    0    0  0.84116962481E+01  0.57200219484E+02  0.12081972703E+02  0.59064336169E+02  0.00000000000E+00 0.  1.
</event>
<event>
 7    1  0.2666594E-009  0.1182749E+03  0.7561462E-02  0.1245970E+00
          1   -1    0    0  501    0  0.00000000000E+00  0.00000000000E+00  0.53665533416E+03  0.53665533416E+03  0.00000000000E+00 0. -1.
         -1   -1    0    0    0  501 -0.00000000000E+00 -0.00000000000E+00 -0.35164893834E+02  0.35164893834E+02  0.00000000000E+00 0.  1.
         25    2    1    2    0    0 -0.79017220595E+02  0.31016685628E+02  0.26796471411E+03  0.30766592935E+03  0.12508988822E+03 0.  0.
          5    1    3    3  502    0 -0.89190855280E+02  0.67697765588E+02  0.21302130827E+03  0.24069388507E+03  0.41800000000E+01 0.  1.
         -5    1    3    3    0  502  0.10173634685E+02 -0.36681079960E+02  0.54943405843E+02  0.66972044282E+02  0.41800000000E+01 0.  1.
        -11    1    1    2    0    0  0.15356235047E+02 -0.12790598297E+02 -0.14387793147E+01  0.20037051817E+02  0.00000000000E+00 0.  1.
         11    1    1    2    0    0  0.63660985548E+02 -0.18226087331E+02  0.23496450552E+03  0.24411724682E+03  0.00000000000E+00 0. -1.
</event>
<event>
 7    1  0.2666594E-009  0.1366770E+03  0.7561462E-02  0.1217872E+00
         -2   -1    0    0    0  501 -0.00000000000E+00  0.00000000000E+00  0.71559205649E+02  0.71559205649E+02  0.00000000000E+00 0.  1.
          2   -1    0    0  501    0  0.00000000000E+00 -0.00000000000E+00 -0.33640039686E+03  0.33640039686E+03  0.00000000000E+00 0. -1.
         25    2    1    2    0    0 -0.89820634427E+02  0.38366706784E+02 -0.17623700749E+03  0.23716278438E+03  0.12508778088E+03 0.  0.
          5    1    3    3  502    0  0.58104011801E+00 -0.19673459161E+02  0.97338577729E+01  0.22351800601E+02  0.41800000000E+01 0. -1.
         -5    1    3    3    0  502 -0.90401674545E+02  0.58040165945E+02 -0.18597086527E+03  0.21481098378E+03  0.41800000000E+01 0. -1.
        -11    1    1    2    0    0 -0.21985743660E+02 -0.24725554672E+02 -0.24761351285E+02  0.41326147844E+02  0.00000000000E+00 0. -1.
         11    1    1    2    0    0  0.11180637809E+03 -0.13641152111E+02 -0.63842832434E+02  0.12947067029E+03  0.00000000000E+00 0.  1.
</event>
<event>
 7    1  0.2666594E-009  0.1471343E+03  0.7561462E-02  0.1204039E+00
          2   -1    0    0  501    0  0.00000000000E+00  0.00000000000E+00  0.16473078012E+04  0.16473078012E+04  0.00000000000E+00 0.  1.
         -2   -1    0    0    0  501 -0.00000000000E+00 -0.00000000000E+00 -0.19579131514E+02  0.19579131514E+02  0.00000000000E+00 0. -1.
         25    2    1    2    0    0  0.96974328582E+02 -0.75064865774E+02  0.12251779850E+04  0.12376374761E+04  0.12508666188E+03 0.  0.
          5    1    3    3  502    0  0.10108559956E+03 -0.87599566059E+02  0.72375702388E+03  0.73602560039E+03  0.41800000000E+01 0. -1.
         -5    1    3    3    0  502 -0.41112709821E+01  0.12534700285E+02  0.50142096109E+03  0.50161187574E+03  0.41800000000E+01 0. -1.
        -11    1    1    2    0    0 -0.11023470196E+03  0.56727214596E+02  0.30769305467E+03  0.33172983327E+03  0.00000000000E+00 0. -1.
         11    1    1    2    0    0  0.13260373379E+02  0.18337651178E+02  0.94857630008E+02  0.97519623275E+02  0.00000000000E+00 0.  1.
</event>
<event>
 7    1  0.2666594E-009  0.1338574E+03  0.7561462E-02  0.1221842E+00
         -1   -1    0    0    0  501 -0.00000000000E+00  0.00000000000E+00  0.16538176241E+03  0.16538176241E+03  0.00000000000E+00 0. -1.
          1   -1    0    0  501    0  0.00000000000E+00 -0.00000000000E+00 -0.16751930955E+03  0.16751930955E+03  0.00000000000E+00 0.  1.
         25    2    1    2    0    0  0.39644283128E+02  0.10370402226E+03  0.59832045323E+02  0.17763394364E+03  0.12509097036E+03 0.  0.
          5    1    3    3  502    0 -0.17124513542E+02  0.52400876319E+02 -0.27249265955E+02  0.61636804737E+02  0.41800000000E+01 0.  1.
         -5    1    3    3    0  502  0.56768796670E+02  0.51303145945E+02  0.87081311279E+02  0.11599713890E+03  0.41800000000E+01 0.  1.
        -11    1    1    2    0    0 -0.48095613864E+02 -0.20692996717E+02 -0.47274914033E+02  0.70542935031E+02  0.00000000000E+00 0.  1.
         11    1    1    2    0    0  0.84513307353E+01 -0.83011025547E+02 -0.14694678430E+02  0.84724193285E+02  0.00000000000E+00 0. -1.
</event>
<event>
 7    1  0.2666594E-009  0.2155438E+03  0.7561462E-02  0.1137250E+00
         -2   -1    0    0    0  501 -0.00000000000E+00  0.00000000000E+00  0.80585183437E+02  0.80585183437E+02  0.00000000000E+00 0.  1.
          2   -1    0    0  501    0  0.00000000000E+00 -0.00000000000E+00 -0.64586855676E+03  0.64586855676E+03  0.00000000000E+00 0. -1.
         25    2    1    2    0    0 -0.61468122102E+02 -0.18446120459E+03 -0.37087015700E+03  0.43703174950E+03  0.12509120947E+03 0.  0.
          5    1    3    3  502    0 -0.17770931090E+01 -0.14581745926E+03 -0.31273319795E+03  0.34508754684E+03  0.41800000000E+01 0. -1.
         -5    1    3    3    0  502 -0.59691028993E+02 -0.38643745330E+02 -0.58136959050E+02  0.91944202661E+02  0.41800000000E+01 0. -1.
        -11    1    1    2    0    0  0.84937512702E+02  0.14624850256E+03 -0.16093974716E+03  0.23346221918E+03  0.00000000000E+00 0. -1.
         11    1    1    2    0    0 -0.23469390600E+02  0.38212702024E+02 -0.33473469165E+02  0.55959771525E+02  0.00000000000E+00 0.  1.
</event>
<event>
 7    1  0.2666594E-009  0.9353668E+02  0.7561462E-02  0.1294506E+00
          3   -1    0    0  501    0  0.00000000000E+00  0.00000000000E+00  0.10402982234E+03  0.10402982234E+03  0.00000000000E+00 0. -1.
         -3   -1    0    0    0  501 -0.00000000000E+00 -0.00000000000E+00 -0.13194130834E+03  0.13194130834E+03  0.00000000000E+00 0.  1.
         25    2    1    2    0    0  0.34819897477E+02 -0.26400758008E+02 -0.49822061754E+00  0.13250523512E+03  0.12509182158E+03 0.  0.
          5    1    3    3  502    0  0.78763161733E+02 -0.34468617473E+02  0.92921164117E+01  0.86576769771E+02  0.41800000000E+01 0.  1.
         -5    1    3    3    0  502 -0.43943264256E+02  0.80678594649E+01 -0.97903370292E+01  0.45928465345E+02  0.41800000000E+01 0.  1.
        -11    1    1    2    0    0 -0.36082641175E+02  0.70909768989E+01  0.27060956493E+02  0.45656700645E+02  0.00000000000E+00 0. -1.
         11    1    1    2    0    0  0.12627436977E+01  0.19309781109E+02 -0.54474221878E+02  0.57809194920E+02  0.00000000000E+00 0.  1.
</event>
<event>
 7    1  0.2666594E-009  0.1152190E+03  0.7561462E-02  0.1251199E+00
          2   -1    0    0  501    0  0.00000000000E+00  0.00000000000E+00  0.58745963819E+03  0.58745963819E+03  0.00000000000E+00 0. -1.
         -2   -1    0    0    0  501 -0.00000000000E+00 -0.00000000000E+00 -0.40970330942E+02  0.40970330942E+02  0.00000000000E+00 0.  1.
         25    2    1    2    0    0  0.83277332154E+02 -0.22707684293E+02  0.42430514994E+03  0.45070202315E+03  0.12508677162E+03 0.  0.
          5    1    3    3  502    0  0.13199142753E+02  0.33681596460E+02  0.32914288216E+02  0.49086557001E+02  0.41800000000E+01 0.  1.
         -5    1    3    3    0  502  0.70078189402E+02 -0.56389280752E+02  0.39139086172E+03  0.40161546615E+03  0.41800000000E+01 0.  1.
        -11    1    1    2    0    0 -0.33764796793E+02  0.39248905647E+02  0.11357652490E+03  0.12482053159E+03  0.00000000000E+00 0. -1.
         11    1    1    2    0    0 -0.49512535361E+02 -0.16541221354E+02  0.86076324068E+01  0.52907414390E+02  0.00000000000E+00 0.  1.
</event>
<event>
 7    1  0.2666594E-009  0.1043470E+03  0.7561462E-02  0.1271412E+00
          1   -1    0    0  501    0  0.00000000000E+00  0.00000000000E+00  0.39433707451E+03  0.39433707451E+03  0.00000000000E+00 0. -1.
         -1   -1    0    0    0  501 -0.00000000000E+00 -0.00000000000E+00 -0.44322510389E+02  0.44322510389E+02  0.00000000000E+00 0.  1.
         25    2    1    2    0    0 -0.45407684567E+02  0.59711457724E+02  0.18696003312E+03  0.23712716400E+03  0.12509165409E+03 0.  0.
          5    1    3    3  502    0 -0.74381438473E+02  0.31135012351E+02  0.17769872465E+03  0.19518272599E+03  0.41800000000E+01 0. -1.
         -5    1    3    3    0  502  0.28973753906E+02  0.28576445373E+02  0.92613084712E+01  0.41944438012E+02  0.41800000000E+01 0. -1.
        -11    1    1    2    0    0  0.26018069303E+02 -0.19253608602E+01  0.12920301796E+03  0.13181072337E+03  0.00000000000E+00 0. -1.
         11    1    1    2    0    0  0.19389615264E+02 -0.57786096864E+02  0.33851513038E+02  0.69721697525E+02  0.00000000000E+00 0.  1.
</event>
<event>
 7    1  0.2666594E-009  0.2324660E+03  0.7561462E-02  0.1124916E+00
         -2   -1    0    0    0  501 -0.00000000000E+00  0.00000000000E+00  0.99260388570E+02  0.99260388570E+02  0.00000000000E+00 0.  1.
          2   -1    0    0  501    0  0.00000000000E+00 -0.00000000000E+00 -0.60916582481E+03  0.60916582481E+03  0.00000000000E+00 0. -1.
         25    2    1    2    0    0 -0.19081306373E+03  0.10947145335E+03 -0.27816858207E+03  0.37605497510E+03  0.12508381134E+03 0.  0.
          5    1    3    3  502    0 -0.18451603540E+03  0.61879513302E+02 -0.25945549674E+03  0.32436070766E+03  0.41800000000E+01 0. -1.
         -5    1    3    3    0  502 -0.62970283296E+01  0.47591940049E+02 -0.18713085325E+02  0.51694267437E+02  0.41800000000E+01 0. -1.
        -11    1    1    2    0    0  0.11686916778E+03 -0.49681420838E+02 -0.70675456165E+02  0.14533294898E+03  0.00000000000E+00 0.  1.
         11    1    1    2    0    0  0.73943895955E+02 -0.59790032513E+02 -0.16106139801E+03  0.18703828930E+03  0.00000000000E+00 0. -1.
</event>
<event>
 7    1  0.2666594E-009  0.8072061E+02  0.7561462E-02  0.1327019E+00
         -2   -1    0    0    0  501 -0.00000000000E+00  0.00000000000E+00  0.18221546279E+03  0.18221546279E+03  0.00000000000E+00 0. -1.
          2   -1    0    0  501    0  0.00000000000E+00 -0.00000000000E+00 -0.80429538566E+02  0.80429538566E+02  0.00000000000E+00 0.  1.
         25    2    1    2    0    0  0.47908979820E+02 -0.18859115895E+02  0.74216872418E+02  0.15428665781E+03  0.12508114177E+03 0.  0.
          5    1    3    3  502    0 -0.10340037000E+02  0.11563982818E+02  0.85917750026E+02  0.87406946139E+02  0.41800000000E+01 0. -1.
         -5    1    3    3    0  502  0.58249016820E+02 -0.30423098713E+02 -0.11700877608E+02  0.66879711666E+02  0.41800000000E+01 0. -1.
        -11    1    1    2    0    0 -0.33422557453E+02  0.41106262578E+02  0.50564212633E+02  0.73236137043E+02  0.00000000000E+00 0. -1.
         11    1    1    2    0    0 -0.14486422367E+02 -0.22247146684E+02 -0.22995160827E+02  0.35122206508E+02  0.00000000000E+00 0.  1.
</event>
<event>
 7    1  0.2666594E-009  0.9906898E+02  0.7561462E-02  0.1282266E+00
         -1   -1    0    0    0  501 -0.00000000000E+00  0.00000000000E+00  0.16481071454E+03  0.16481071454E+03  0.00000000000E+00 0.  1.
          1   -1    0    0  501    0  0.00000000000E+00 -0.00000000000E+00 -0.81667993625E+02  0.81667993625E+02  0.00000000000E+00 0. -1.
         25    2    1    2    0    0  0.16934981504E+02  0.36748717291E+02  0.42001934456E+02  0.13802307232E+03  0.12509574003E+03 0.  0.
          5    1    3    3  502    0 -0.48532137303E+02  0.34469297858E+02 -0.76732378046E+00  0.59678823981E+02  0.41800000000E+01 0.  1.
         -5    1    3    3    0  502  0.65467118807E+02  0.22794194333E+01  0.42769258236E+02  0.78344248340E+02  0.41800000000E+01 0.  1.
        -11    1    1    2    0    0  0.26892658255E+01  0.16165685253E+02 -0.19596457259E+02  0.25545697632E+02  0.00000000000E+00 0. -1.
         11    1    1    2    0    0 -0.19624247330E+02 -0.52914402544E+02  0.60737243717E+02  0.82909938212E+02  0.00000000000E+00 0.  1.
</event>
<event>
 7    1  0.2666594E-009  0.2473412E+03  0.7561462E-02  0.1114997E+00
          2   -1    0    0  501    0  0.00000000000E+00  0.00000000000E+00  0.29355672704E+03  0.29355672704E+03  0.00000000000E+00 0. -1.
         -2   -1    0    0    0  501 -0.00000000000E+00 -0.00000000000E+00 -0.24239723600E+03  0.24239723600E+03  0.00000000000E+00 0.  1.
         25    2    1    2    0    0  0.22375477456E+03  0.60507404061E+02  0.10583163874E+03  0.28385714387E+03  0.12508875762E+03 0.  0.
          5    1    3    3  502    0  0.16505772968E+03  0.84530135647E+02  0.11702181713E+03  0.21931934717E+03  0.41800000000E+01 0. -1.
         -5    1    3    3    0  502  0.58697044882E+02 -0.24022731587E+02 -0.11190178386E+02  0.64537796702E+02  0.41800000000E+01 0. -1.
        -11    1    1    2    0    0 -0.13239859651E+03 -0.76463328039E+02 -0.41521119151E+02  0.15842989689E+03  0.00000000000E+00 0.  1.
         11    1    1    2    0    0 -0.91356178052E+02  0.15955923979E+02 -0.13151028552E+02  0.93666922285E+02  0.00000000000E+00 0. -1.
</event>
<event>
 7    1  0.2666594E-009  0.1221759E+03  0.7561462E-02  0.1239550E+00
         -1   -1    0    0    0  501 -0.00000000000E+00  0.00000000000E+00  0.62355472464E+02  0.62355472464E+02  0.00000000000E+00 0.  1.
          1   -1    0    0  501    0  0.00000000000E+00 -0.00000000000E+00 -0.26593631817E+03  0.26593631817E+03  0.00000000000E+00 0. -1.
         25    2    1    2    0    0  0.68560802386E+02 -0.85894296578E+01 -0.12864558238E+03  0.19227818187E+03  0.12508737518E+03 0.  0.
          5    1    3    3  502    0 -0.33773244675E+02  0.11070283901E+02 -0.17398040188E+02  0.39791298595E+02  0.41800000000E+01 0. -1.
         -5    1    3    3    0  502  0.10233404706E+03 -0.19659713559E+02 -0.11124754220E+03  0.15248688327E+03  0.41800000000E+01 0. -1.
        -11    1    1    2    0    0  0.31221030268E+01  0.29453677775E+02  0.85077792948E+00  0.29630904220E+02  0.00000000000E+00 0.  1.
         11    1    1    2    0    0 -0.71682905413E+02 -0.20864248118E+02 -0.75786041248E+02  0.10638270454E+03  0.00000000000E+00 0. -1.
</event>
<event>
 7    1  0.2666594E-009  0.9718754E+02  0.7561462E-02  0.1286324E+00
          4   -1    0    0  501    0  0.00000000000E+00  0.00000000000E+00  0.82168313228E+02  0.82168313228E+02  0.00000000000E+00 0. -1.
         -4   -1    0    0    0  501 -0.00000000000E+00 -0.00000000000E+00 -0.16989085615E+03  0.16989085615E+03  0.00000000000E+00 0.  1.
         25    2    1    2    0    0 -0.44902669462E+02  0.12505977431E+02 -0.52892214285E+02  0.14359515396E+03  0.12509729298E+03 0.  0.
          5    1    3    3  502    0 -0.61770217878E+02 -0.33878449684E+02  0.75388496486E+00  0.70578678878E+02  0.41800000000E+01 0.  1.
         -5    1    3    3    0  502  0.16867548416E+02  0.46384427115E+02 -0.53646099250E+02  0.73016475080E+02  0.41800000000E+01 0.  1.
        -11    1    1    2    0    0 -0.12134528934E+02 -0.12231802469E+02 -0.47072923577E+02  0.50127077695E+02  0.00000000000E+00 0.  1.
         11    1    1    2    0    0  0.57037198396E+02 -0.27417496172E+00  0.12242594937E+02  0.58336937729E+02  0.00000000000E+00 0. -1.
</event>
<event>
 7    1  0.2666594E-009  0.8976033E+02  0.7561462E-02  0.1303433E+00
          2   -1    0    0  501    0  0.00000000000E+00  0.00000000000E+00  0.27383031395E+03  0.27383031395E+03  0.00000000000E+00 0.  1.
         -2   -1    0    0    0  501 -0.00000000000E+00 -0.00000000000E+00 -0.74307543268E+02  0.74307543268E+02  0.00000000000E+00 0. -1.
         25    2    1    2    0    0  0.15019950495E+02 -0.15857226795E+02  0.21931253387E+03  0.25341812221E+03  0.12508279898E+03 0.  0.
          5    1    3    3  502    0 -0.60197661038E+01  0.33892159735E+02  0.84271230024E+01  0.35684798970E+02  0.41800000000E+01 0.  1.
         -5    1    3    3    0  502  0.21039716599E+02 -0.49749386530E+02  0.21088541086E+03  0.21773332324E+03  0.41800000000E+01 0.  1.
        -11    1    1    2    0    0 -0.11479312837E+02  0.52558027754E+02 -0.21195181834E+02  0.57821766123E+02  0.00000000000E+00 0.  1.
         11    1    1    2    0    0 -0.35406376582E+01 -0.36700800959E+02  0.14054186490E+01  0.36897968883E+02  0.00000000000E+00 0. -1.
</event>
<event>
 7    1  0.2666594E-009  0.1168528E+03  0.7561462E-02  0.1248381E+00
          2   -1    0    0  501    0  0.00000000000E+00  0.00000000000E+00  0.24052645232E+03  0.24052645232E+03  0.00000000000E+00 0. -1.
         -2   -1    0    0    0  501 -0.00000000000E+00 -0.00000000000E+00 -0.97032383023E+02  0.97032383023E+02  0.00000000000E+00 0.  1.
         25    2    1    2    0    0  0.59980057239E+02 -0.61819556262E+02  0.66901223660E+01  0.15202164443E+03  0.12508620162E+03 0.  0.
          5    1    3    3  502    0  0.61713289983E+02 -0.94185179369E+02 -0.13687468336E+02  0.11350857837E+03  0.41800000000E+01 0.  1.
         -5    1    3    3    0  502 -0.17332327436E+01  0.32365623108E+02  0.20377590702E+02  0.38513066065E+02  0.41800000000E+01 0.  1.
        -11    1    1    2    0    0 -0.20321933060E+02  0.34991902372E+02  0.13123809971E+03  0.13733482082E+03  0.00000000000E+00 0. -1.
         11    1    1    2    0    0 -0.39658124179E+02  0.26827653890E+02  0.55658472162E+01  0.48202370086E+02  0.00000000000E+00 0.  1.
</event>
<event>
 7    1  0.2666594E-009  0.1123934E+03  0.7561462E-02  0.1256201E+00
         -2   -1    0    0    0  501 -0.00000000000E+00  0.00000000000E+00  0.27303190934E+02  0.27303190934E+02  0.00000000000E+00 0.  1.
          2   -1    0    0  501    0  0.00000000000E+00 -0.00000000000E+00 -0.61481187547E+03  0.61481187547E+03  0.00000000000E+00 0. -1.
         25    2    1    2    0    0  0.69392369135E+02  0.39635836388E+01 -0.29885451421E+03  0.33134821866E+03  0.12508641195E+03 0.  0.
          5    1    3    3  502    0  0.19710876831E+02 -0.43483790640E+02 -0.36849827743E+02  0.60454453257E+02  0.41800000000E+01 0. -1.
         -5    1    3    3    0  502  0.49681492303E+02  0.47447374279E+02 -0.26200468647E+03  0.27089376540E+03  0.41800000000E+01 0. -1.
        -11    1    1    2    0    0 -0.86603004282E+02  0.81558691352E+01 -0.17787256208E+03  0.19800314870E+03  0.00000000000E+00 0. -1.
         11    1    1    2    0    0  0.17210635147E+02 -0.12119452774E+02 -0.11078160824E+03  0.11276369905E+03  0.00000000000E+00 0.  1.
</event>
<event>
 7    1  0.2666594E-009  0.3107234E+03  0.7561462E-02  0.1080000E+00
          1   -1    0    0  501    0  0.00000000000E+00  0.00000000000E+00  0.20653967167E+04  0.20653967167E+04  0.00000000000E+00 0. -1.
         -1   -1    0    0    0  501 -0.00000000000E+00 -0.00000000000E+00 -0.50644586351E+02  0.50644586351E+02  0.00000000000E+00 0.  1.
         25    2    1    2    0    0 -0.29777544490E+03  0.24077486550E+02  0.84014938192E+03  0.90041544575E+03  0.12508816914E+03 0.  0.
          5    1    3    3  502    0 -0.13521087411E+03 -0.32356496853E+02  0.50286082782E+03  0.52174266447E+03  0.41800000000E+01 0. -1.
         -5    1    3    3    0  502 -0.16256457079E+03  0.56433983403E+02  0.33728855410E+03  0.37867278128E+03  0.41800000000E+01 0. -1.
        -11    1    1    2    0    0  0.14301505304E+03 -0.53493665652E+02  0.66101878862E+03  0.67842517389E+03  0.00000000000E+00 0. -1.
         11    1    1    2    0    0  0.15476039186E+03  0.29416179103E+02  0.51358395978E+03  0.53720068338E+03  0.00000000000E+00 0.  1.
</event>
<event>
 7    1  0.2666594E-009  0.9794457E+02  0.7561462E-02  0.1284679E+00
          1   -1    0    0  501    0  0.00000000000E+00  0.00000000000E+00  0.36036456981E+03  0.36036456981E+03  0.00000000000E+00 0. -1.
         -1   -1    0    0    0  501 -0.00000000000E+00 -0.00000000000E+00 -0.53574930596E+02  0.53574930596E+02  0.00000000000E+00 0.  1.
         25    2    1    2    0    0  0.63170467054E+02 -0.48534570333E+02  0.21262455874E+03  0.25923282576E+03  0.12508534107E+03 0.  0.
          5    1    3    3  502    0  0.11211377776E+01  0.13976886452E+02  0.15087768699E+03  0.15158548458E+03  0.41800000000E+01 0.  1.
         -5    1    3    3    0  502  0.62049329276E+02 -0.62511456785E+02  0.61746871748E+02  0.10764734118E+03  0.41800000000E+01 0.  1.
        -11    1    1    2    0    0 -0.67838644898E+02  0.30372130281E+02  0.18284583496E+02  0.76543282090E+02  0.00000000000E+00 0.  1.
         11    1    1    2    0    0  0.46681778443E+01  0.18162440052E+02  0.75880496979E+02  0.78163392549E+02  0.00000000000E+00 0. -1.
</event>
<event>
 7    1  0.2666594E-009  0.1178116E+03  0.7561462E-02  0.1246752E+00
          1   -1    0    0  501    0  0.00000000000E+00  0.00000000000E+00  0.10218538877E+04  0.10218538877E+04  0.00000000000E+00 0. -1.
         -1   -1    0    0    0  501 -0.00000000000E+00 -0.00000000000E+00 -0.18938019731E+02  0.18938019731E+02  0.00000000000E+00 0.  1.
         25    2    1    2    0    0 -0.55248400662E+02  0.26730885646E+02  0.77651784445E+03  0.78892007835E+03  0.12509197116E+03 0.  0.
          5    1    3    3  502    0 -0.51054175556E+02 -0.43603136636E+02  0.32171056165E+03  0.32866840469E+03  0.41800000000E+01 0. -1.
         -5    1    3    3    0  502 -0.41942251062E+01  0.70334022282E+02  0.45480728280E+03  0.46025167366E+03  0.41800000000E+01 0. -1.
        -11    1    1    2    0    0  0.21667750866E+02  0.26870798055E+02  0.30664034257E+02  0.46171573642E+02  0.00000000000E+00 0.  1.
         11    1    1    2    0    0  0.33580649796E+02 -0.53601683701E+02  0.19573398927E+03  0.20570025545E+03  0.00000000000E+00 0. -1.
</event>
<event>
 7    1  0.2666594E-009  0.1165436E+03  0.7561462E-02  0.1248910E+00
          3   -1    0    0  501    0  0.00000000000E+00  0.00000000000E+00  0.10043600894E+03  0.10043600894E+03  0.00000000000E+00 0. -1.
         -3   -1    0    0    0  501 -0.00000000000E+00 -0.00000000000E+00 -0.15833013409E+03  0.15833013409E+03  0.00000000000E+00 0.  1.
         25    2    1    2    0    0 -0.30476565282E+02  0.47640954744E+02 -0.37928708250E+01  0.13733032203E+03  0.12508696926E+03 0.  0.
          5    1    3    3  502    0  0.22252359976E+02  0.74195460067E+02  0.37616454169E+01  0.77664381768E+02  0.41800000000E+01 0. -1.
         -5    1    3    3    0  502 -0.52728925257E+02 -0.26554505324E+02 -0.75545162419E+01  0.59665940263E+02  0.41800000000E+01 0. -1.
        -11    1    1    2    0    0  0.52204429772E+02 -0.52528216668E+02 -0.63218705813E+02  0.97371047025E+02  0.00000000000E+00 0.  1.
         11    1    1    2    0    0 -0.21727864490E+02  0.48872619242E+01  0.91174514869E+01  0.24064773966E+02  0.00000000000E+00 0. -1.
</event>
<event>
 7    1  0.2666594E-009  0.1415665E+03  0.7561462E-02  0.1211237E+00
          1   -1    0    0  501    0  0.00000000000E+00  0.00000000000E+00  0.50721000792E+02  0.50721000792E+02  0.00000000000E+00 0. -1.
         -1   -1    0    0    0  501 -0.00000000000E+00 -0.00000000000E+00 -0.64685212791E+03  0.64685212791E+03  0.00000000000E+00 0.  1.
         25    2    1    2    0    0 -0.65154804463E+02  0.78992481573E+02 -0.51082064499E+03  0.53578959650E+03  0.12509116547E+03 0.  0.
          5    1    3    3  502    0 -0.96729607530E+01  0.10117696574E+03 -0.32673500052E+03  0.34220399987E+03  0.41800000000E+01 0.  1.
         -5    1    3    3    0  502 -0.55481843710E+02 -0.22184484170E+02 -0.18408564447E+03  0.19358559662E+03  0.41800000000E+01 0.  1.
        -11    1    1    2    0    0  0.78590356076E+02 -0.70767562189E+02 -0.95931564478E+02  0.14278430232E+03  0.00000000000E+00 0.  1.
         11    1    1    2    0    0 -0.13435551613E+02 -0.82249193841E+01  0.10621082347E+02  0.18999229885E+02  0.00000000000E+00 0. -1.
</event>
<event>
 7    1  0.2666594E-009  0.1513787E+03  0.7561462E-02  0.1198789E+00
         -2   -1    0    0    0  501 -0.00000000000E+00  0.00000000000E+00  0.26416952112E+02  0.26416952112E+02  0.00000000000E+00 0.  1.
          2   -1    0    0  501    0  0.00000000000E+00 -0.00000000000E+00 -0.89144945378E+03  0.89144945378E+03  0.00000000000E+00 0. -1.
         25    2    1    2    0    0 -0.88473418521E+02 -0.59728178574E+02 -0.45489756465E+03  0.48371060245E+03  0.12509656871E+03 0.  0.
          5    1    3    3  502    0 -0.12113278155E+02 -0.80282939327E+02 -0.28307022207E+03  0.29451367519E+03  0.41800000000E+01 0. -1.
         -5    1    3    3    0  502 -0.76360140366E+02  0.20554760753E+02 -0.17182734258E+03  0.18919692726E+03  0.41800000000E+01 0. -1.
        -11    1    1    2    0    0  0.81759124396E+02 -0.40768957104E+00 -0.22611304983E+03  0.24044091153E+03  0.00000000000E+00 0.  1.
         11    1    1    2    0    0  0.67142941246E+01  0.60135868145E+02 -0.18402188719E+03  0.19371489191E+03  0.00000000000E+00 0. -1.
</event>
<event>
 7    1  0.2666594E-009  0.1006348E+03  0.7561462E-02  0.1278967E+00
         -1   -1    0    0    0  501 -0.00000000000E+00  0.00000000000E+00  0.86244357776E+02  0.86244357776E+02  0.00000000000E+00 0.  1.
          1   -1    0    0  501    0  0.00000000000E+00 -0.00000000000E+00 -0.16479893570E+03  0.16479893570E+03  0.00000000000E+00 0. -1.
         25    2    1    2    0    0  0.25299557853E+02  0.31323192573E+02 -0.11813005170E+02  0.13193849251E+03  0.12508800380E+03 0.  0.
          5    1    3    3  502    0 -0.13850858789E+02 -0.28319259068E+02  0.34388216348E+02  0.46838536986E+02  0.41800000000E+01 0. -1.
         -5    1    3    3    0  502  0.39150416642E+02  0.59642451641E+02 -0.46201221518E+02  0.85099955528E+02  0.41800000000E+01 0. -1.
        -11    1    1    2    0    0 -0.46607767002E+02  0.13371656009E+02 -0.39830288247E+02  0.62749796742E+02  0.00000000000E+00 0. -1.
         11    1    1    2    0    0  0.21308209148E+02 -0.44694848582E+02 -0.26911284505E+02  0.56355004219E+02  0.00000000000E+00 0.  1.
</event>
<event>
 7    1  0.2666594E-009  0.1161536E+03  0.7561462E-02  0.1249581E+00
         -1   -1    0    0    0  501 -0.00000000000E+00  0.00000000000E+00  0.17065550416E+02  0.17065550416E+02  0.00000000000E+00 0.  1.
          1   -1    0    0  501    0  0.00000000000E+00 -0.00000000000E+00 -0.11137377271E+04  0.11137377271E+04  0.00000000000E+00 0. -1.
         25    2    1    2    0    0 -0.75240752824E+02  0.17368106263E+02 -0.75625202492E+03  0.77040743759E+03  0.12509065791E+03 0.  0.
          5    1    3    3  502    0 -0.10574609438E+03  0.49054632297E+01 -0.44730322555E+03  0.45967809175E+03  0.41800000000E+01 0.  1.
         -5    1    3    3    0  502  0.30505341554E+02  0.12462643034E+02 -0.30894879936E+03  0.31072934583E+03  0.41800000000E+01 0.  1.
        -11    1    1    2    0    0  0.18027043661E+02 -0.29584791415E+02 -0.34358255685E+02  0.48792662563E+02  0.00000000000E+00 0.  1.
         11    1    1    2    0    0  0.57213709163E+02  0.12216685152E+02 -0.30606189611E+03  0.31160317739E+03  0.00000000000E+00 0. -1.
</event>
<event>
 7    1  0.2666594E-009  0.9902112E+02  0.7561462E-02  0.1282368E+00
         -2   -1    0    0    0  501 -0.00000000000E+00  0.00000000000E+00  0.23594951867E+02  0.23594951867E+02  0.00000000000E+00 0.  1.
          2   -1    0    0  501    0  0.00000000000E+00 -0.00000000000E+00 -0.66613434494E+03  0.66613434494E+03  0.00000000000E+00 0. -1.
         25    2    1    2    0    0  0.52486369778E+02 -0.32088968838E+02 -0.38518025477E+03  0.40962800234E+03  0.12508697255E+03 0.  0.
          5    1    3    3  502    0 -0.25803150522E+02 -0.11468215401E+02 -0.18320699382E+02  0.33918180481E+02  0.41800000000E+01 0.  1.
         -5    1    3    3    0  502  0.78289520300E+02 -0.20620753436E+02 -0.36685955539E+03  0.37570982186E+03  0.41800000000E+01 0.  1.
        -11    1    1    2    0    0 -0.15552046756E+02 -0.19525414989E+02 -0.14037640993E+02  0.28638494260E+02  0.00000000000E+00 0.  1.
         11    1    1    2    0    0 -0.36934323022E+02  0.51614383827E+02 -0.24332149731E+03  0.25146280021E+03  0.00000000000E+00 0. -1.
</event>
<event>
 7    1  0.2666594E-009  0.1080900E+03  0.7561462E-02  0.1264148E+00
         -1   -1    0    0    0  501 -0.00000000000E+00  0.00000000000E+00  0.49192992466E+02  0.49192992466E+02  0.00000000000E+00 0.  1.
          1   -1    0    0  501    0  0.00000000000E+00 -0.00000000000E+00 -0.37732269460E+03  0.37732269460E+03  0.00000000000E+00 0. -1.
         25    2    1    2    0    0  0.54654633595E+02  0.17472167898E+02 -0.27271638918E+03  0.30546911717E+03  0.12507896302E+03 0.  0.
          5    1    3    3  502    0 -0.14249271499E+02 -0.27981131893E+02 -0.17335524145E+03  0.17622570079E+03  0.41800000000E+01 0. -1.
         -5    1    3    3    0  502  0.68903905094E+02  0.45453299791E+02 -0.99361147734E+02  0.12924341638E+03  0.41800000000E+01 0. -1.
        -11    1    1    2    0    0 -0.23864138234E+02  0.34198887217E+02 -0.39551976850E+01  0.41889193944E+02  0.00000000000E+00 0.  1.
         11    1    1    2    0    0 -0.30790495361E+02 -0.51671055115E+02 -0.51458115273E+02  0.79157375959E+02  0.00000000000E+00 0. -1.
</event>
<event>
 7    1  0.2666594E-009  0.1445983E+03  0.7561462E-02  0.1207272E+00
         -2   -1    0    0    0  501 -0.00000000000E+00  0.00000000000E+00  0.27669273350E+02  0.27669273350E+02  0.00000000000E+00 0.  1.
          2   -1    0    0  501    0  0.00000000000E+00 -0.00000000000E+00 -0.89435030705E+03  0.89435030705E+03  0.00000000000E+00 0. -1.
         25    2    1    2    0    0  0.67425073334E+02 -0.40236112905E+02 -0.62180843836E+03  0.63910684052E+03  0.12508690698E+03 0.  0.
          5    1    3    3  502    0  0.67970225527E+02  0.32050302293E+02 -0.32149484906E+03  0.33018719510E+03  0.41800000000E+01 0.  1.
         -5    1    3    3    0  502 -0.54515219297E+00 -0.72286415198E+02 -0.30031358930E+03  0.30891964543E+03  0.41800000000E+01 0.  1.
        -11    1    1    2    0    0  0.16922089805E+02 -0.28211749137E+02 -0.62933049503E+02  0.71012876526E+02  0.00000000000E+00 0.  1.
         11    1    1    2    0    0 -0.84347163139E+02  0.68447862042E+02 -0.18193954584E+03  0.21189986336E+03  0.00000000000E+00 0. -1.
</event>
<event>
 7    1  0.2666594E-009  0.1335416E+03  0.7561462E-02  0.1222293E+00
          1   -1    0    0  501    0  0.00000000000E+00  0.00000000000E+00  0.19016041670E+03  0.19016041670E+03  0.00000000000E+00 0. -1.
         -1   -1    0    0    0  501 -0.00000000000E+00 -0.00000000000E+00 -0.12378947551E+03  0.12378947551E+03  0.00000000000E+00 0.  1.
         25    2    1    2    0    0 -0.88064258824E+02  0.56701849452E+02  0.63989249166E+02  0.17524659054E+03  0.12508529120E+03 0.  0.
          5    1    3    3  502    0  0.31420210429E+02  0.72564547295E+01  0.21858235348E+02  0.39180870475E+02  0.41800000000E+01 0. -1.
         -5    1    3    3    0  502 -0.11948446925E+03  0.49445394722E+02  0.42131013818E+02  0.13606572007E+03  0.41800000000E+01 0. -1.
        -11    1    1    2    0    0  0.16939319566E+02 -0.15668858679E+02 -0.40090437304E+02  0.46256857253E+02  0.00000000000E+00 0.  1.
         11    1    1    2    0    0  0.71124939258E+02 -0.41032990772E+02  0.42472129322E+02  0.92446444417E+02  0.00000000000E+00 0. -1.
</event>
<event>
 7    1  0.2666594E-009  0.9921434E+02  0.7561462E-02  0.1281957E+00
          2   -1    0    0  501    0  0.00000000000E+00  0.00000000000E+00  0.11492745410E+04  0.11492745410E+04  0.00000000000E+00 0.  1.
         -2   -1    0    0    0  501 -0.00000000000E+00 -0.00000000000E+00 -0.14235965166E+02  0.14235965166E+02  0.00000000000E+00 0. -1.
         25    2    1    2    0    0  0.53978338854E+02 -0.29143151749E+02  0.80325072598E+03  0.81524364133E+03  0.12508989402E+03 0.  0.
          5    1    3    3  502    0 -0.82912911603E+01 -0.32446425700E+02  0.63275384308E+03  0.63365322881E+03  0.41800000000E+01 0.  1.
         -5    1    3    3    0  502  0.62269630015E+02  0.33032739507E+01  0.17049688290E+03  0.18159041252E+03  0.41800000000E+01 0.  1.
        -11    1    1    2    0    0  0.13195893623E+01  0.44714668448E+02  0.10148496605E+03  0.11090690341E+03  0.00000000000E+00 0. -1.
         11    1    1    2    0    0 -0.55297928217E+02 -0.15571516699E+02  0.23030288379E+03  0.23735996141E+03  0.00000000000E+00 0.  1.
</event>
<event>
 7    1  0.2666594E-009  0.2852158E+03  0.7561462E-02  0.1092874E+00
         -1   -1    0    0    0  501 -0.00000000000E+00  0.00000000000E+00  0.58869478332E+02  0.58869478332E+02  0.00000000000E+00 0.  1.
          1   -1    0    0  501    0  0.00000000000E+00 -0.00000000000E+00 -0.14382035911E+04  0.14382035911E+04  0.00000000000E+00 0. -1.
         25    2    1    2    0    0  0.59384036743E+02 -0.26188790046E+03 -0.77608511856E+03  0.83070275046E+03  0.12508881704E+03 0.  0.
          5    1    3    3  502    0  0.61784877796E+02 -0.27094103910E+03 -0.68790290300E+03  0.74192607054E+03  0.41800000000E+01 0.  1.
         -5    1    3    3    0  502 -0.24008410524E+01  0.90531386381E+01 -0.88182215557E+02  0.88776679919E+02  0.41800000000E+01 0.  1.
        -11    1    1    2    0    0  0.16528911467E+02  0.12176948335E+03 -0.28835621102E+03  0.31344906511E+03  0.00000000000E+00 0. -1.
         11    1    1    2    0    0 -0.75912948210E+02  0.14011841711E+03 -0.31489278323E+03  0.35292125389E+03  0.00000000000E+00 0.  1.
</event>
<event>
 7    1  0.2666594E-009  0.1090860E+03  0.7561462E-02  0.1262272E+00
          3   -1    0    0  501    0  0.00000000000E+00  0.00000000000E+00  0.93905750210E+02  0.93905750210E+02  0.00000000000E+00 0. -1.
         -3   -1    0    0    0  501 -0.00000000000E+00 -0.00000000000E+00 -0.16449653199E+03  0.16449653199E+03  0.00000000000E+00 0.  1.
         25    2    1    2    0    0 -0.44760624664E+02 -0.14727382466E+02 -0.75405974931E+02  0.15347366208E+03  0.12509074539E+03 0.  0.
          5    1    3    3  502    0 -0.41497603276E+02  0.50936153601E+02 -0.24594449599E+02  0.70277323315E+02  0.41800000000E+01 0.  1.
         -5    1    3    3    0  502 -0.32630213880E+01 -0.65663536067E+02 -0.50811525332E+02  0.83196338765E+02  0.41800000000E+01 0.  1.
        -11    1    1    2    0    0 -0.84368644203E+01  0.29960579186E+02  0.30806139104E+02  0.43793095265E+02  0.00000000000E+00 0. -1.
         11    1    1    2    0    0  0.53197489084E+02 -0.15233196720E+02 -0.25990945949E+02  0.61135524849E+02  0.00000000000E+00 0.  1.
</event>
<event>
 7    1  0.2666594E-009  0.1980766E+03  0.7561462E-02  0.1151372E+00
          2   -1    0    0  501    0  0.00000000000E+00  0.00000000000E+00  0.41311201780E+03  0.41311201780E+03  0.00000000000E+00 0. -1.
         -2   -1    0    0    0  501 -0.00000000000E+00 -0.00000000000E+00 -0.11781876431E+03  0.11781876431E+03  0.00000000000E+00 0.  1.
         25    2    1    2    0    0 -0.13351123331E+03 -0.13755825732E+03  0.16552213619E+03  0.28247911852E+03  0.12509736709E+03 0.  0.
          5    1    3    3  502    0 -0.54710139314E+02 -0.12986183081E+02  0.11238134878E+03  0.12573336967E+03  0.41800000000E+01 0. -1.
         -5    1    3    3    0  502 -0.78801093992E+02 -0.12457207424E+03  0.53140787407E+02  0.15674574885E+03  0.41800000000E+01 0. -1.
        -11    1    1    2    0    0  0.43585947970E+02  0.55482781557E+02  0.63345695246E-01  0.70555495338E+02  0.00000000000E+00 0.  1.
         11    1    1    2    0    0  0.89925285337E+02  0.82075475768E+02  0.12970777160E+03  0.17789616826E+03  0.00000000000E+00 0. -1.
</event>
<event>
 7    1  0.2666594E-009  0.3640206E+03  0.7561462E-02  0.1057003E+00
         -1   -1    0    0    0  501 -0.00000000000E+00  0.00000000000E+00  0.39960857171E+03  0.39960857171E+03  0.00000000000E+00 0.  1.
          1   -1    0    0  501    0  0.00000000000E+00 -0.00000000000E+00 -0.34838883095E+03  0.34838883095E+03  0.00000000000E+00 0. -1.
         25    2    1    2    0    0  0.25739733327E+03 -0.23486078110E+03 -0.51405837523E+02  0.37376814205E+03  0.12508832959E+03 0.  0.
          5    1    3    3  502    0  0.17524252651E+03 -0.22614458357E+03 -0.53181163804E+02  0.29102753196E+03  0.41800000000E+01 0. -1.
         -5    1    3    3    0  502  0.82154806768E+02 -0.87161975349E+01  0.17753262815E+01  0.82740610089E+02  0.41800000000E+01 0. -1.
        -11    1    1    2    0    0 -0.17296936481E+03  0.20815457970E+03  0.87216697105E+02  0.28434746784E+03  0.00000000000E+00 0.  1.
         11    1    1    2    0    0 -0.84427968464E+02  0.26706201407E+02  0.15408881179E+02  0.89881792771E+02  0.00000000000E+00 0. -1.
</event>
<event>
 7    1  0.2666594E-009  0.9085846E+02  0.7561462E-02  0.1300786E+00
          1   -1    0    0  501    0  0.00000000000E+00  0.00000000000E+00  0.19445082107E+03  0.19445082107E+03  0.00000000000E+00 0. -1.
         -1   -1    0    0    0  501 -0.00000000000E+00 -0.00000000000E+00 -0.96486439611E+02  0.96486439611E+02  0.00000000000E+00 0.  1.
         25    2    1    2    0    0 -0.31718267569E+02 -0.66107209449E+02  0.10160872770E+03  0.17705401683E+03  0.12509028616E+03 0.  0.
          5    1    3    3  502    0 -0.37574348194E+02 -0.25957898806E+02 -0.19071294314E+02  0.49667200640E+02  0.41800000000E+01 0.  1.
         -5    1    3    3    0  502  0.58560806256E+01 -0.40149310643E+02  0.12068002202E+03  0.12738681619E+03  0.41800000000E+01 0.  1.
        -11    1    1    2    0    0  0.97320559000E+01  0.71719733262E+02  0.25686256263E+02  0.76799849037E+02  0.00000000000E+00 0. -1.
         11    1    1    2    0    0  0.21986211669E+02 -0.56125238132E+01 -0.29330602510E+02  0.37083394810E+02  0.00000000000E+00 0.  1.
</event>
<event>
 7    1  0.2666594E-009  0.1773418E+03  0.7561462E-02  0.1170401E+00
         -2   -1    0    0    0  501 -0.00000000000E+00  0.00000000000E+00  0.17632700865E+02  0.17632700865E+02  0.00000000000E+00 0.  1.
          2   -1    0    0  501    0  0.00000000000E+00 -0.00000000000E+00 -0.19248545869E+04  0.19248545869E+04  0.00000000000E+00 0. -1.
         25    2    1    2    0    0  0.40940524536E+02  0.14139750476E+03 -0.11044420213E+04  0.11212071767E+04  0.12507587210E+03 0.  0.
          5    1    3    3  502    0  0.10943891936E+02  0.15361165654E+03 -0.77592705781E+03  0.79107305682E+03  0.41800000000E+01 0.  1.
         -5    1    3    3    0  502  0.29996632600E+02 -0.12214151781E+02 -0.32851496350E+03  0.33013411989E+03  0.41800000000E+01 0.  1.
        -11    1    1    2    0    0 -0.22217756283E+02  0.29497764390E+01 -0.53700763128E+02  0.58190221136E+02  0.00000000000E+00 0. -1.
         11    1    1    2    0    0 -0.18722768252E+02 -0.14434728120E+03 -0.74907910159E+03  0.76308988990E+03  0.00000000000E+00 0.  1.
</event>
<event>
 7    1  0.2666594E-009  0.9360352E+02  0.7561462E-02  0.1294353E+00
          1   -1    0    0  501    0  0.00000000000E+00  0.00000000000E+00  0.12796256762E+03  0.12796256762E+03  0.00000000000E+00 0. -1.
         -1   -1    0    0    0  501 -0.00000000000E+00 -0.00000000000E+00 -0.13232112057E+03  0.13232112057E+03  0.00000000000E+00 0.  1.
         25    2    1    2    0    0  0.53684534593E+01 -0.65999205060E+02  0.28922242149E+02  0.14445828233E+03  0.12508790462E+03 0.  0.
          5    1    3    3  502    0 -0.16474515091E+02 -0.81165059271E+02 -0.22928175208E+02  0.86036911337E+02  0.41800000000E+01 0. -1.
         -5    1    3    3    0  502  0.21842968550E+02  0.15165854212E+02  0.51850417356E+02  0.58421370996E+02  0.41800000000E+01 0. -1.
        -11    1    1    2    0    0 -0.14304975347E+02  0.41824355196E+01  0.25835366580E+02  0.29826016376E+02  0.00000000000E+00 0. -1.
         11    1    1    2    0    0  0.89365218880E+01  0.61816769540E+02 -0.59116161676E+02  0.85999389481E+02  0.00000000000E+00 0.  1.
</event>
<event>
 7    1  0.2666594E-009  0.1270537E+03  0.7561462E-02  0.1231894E+00
          1   -1    0    0  501    0  0.00000000000E+00  0.00000000000E+00  0.48914477374E+03  0.48914477374E+03  0.00000000000E+00 0. -1.
         -1   -1    0    0    0  501 -0.00000000000E+00 -0.00000000000E+00 -0.36735147405E+02  0.36735147405E+02  0.00000000000E+00 0.  1.
         25    2    1    2    0    0 -0.30962695936E+02  0.67325842133E+02  0.32600014506E+03  0.35695225392E+03  0.12508940580E+03 0.  0.
          5    1    3    3  502    0 -0.26361249352E+02 -0.32566092741E+02  0.13358272579E+03  0.14006171102E+03  0.41800000000E+01 0. -1.
         -5    1    3    3    0  502 -0.46014465836E+01  0.99891934874E+02  0.19241741927E+03  0.21689054291E+03  0.41800000000E+01 0. -1.
        -11    1    1    2    0    0  0.43218393086E+02 -0.82063517014E+02  0.10786955931E+03  0.14226064864E+03  0.00000000000E+00 0.  1.
         11    1    1    2    0    0 -0.12255697150E+02  0.14737674881E+02  0.18539921972E+02  0.26667018586E+02  0.00000000000E+00 0. -1.
</event>
<event>
 7    1  0.2666594E-009  0.2239155E+03  0.7561462E-02  0.1130997E+00
          4   -1    0    0  501    0  0.00000000000E+00  0.00000000000E+00  0.11880331963E+04  0.11880331963E+04  0.00000000000E+00 0. -1.
         -4   -1    0    0    0  501 -0.00000000000E+00 -0.00000000000E+00 -0.84831852011E+02  0.84831852011E+02  0.00000000000E+00 0.  1.
         25    2    1    2    0    0 -0.20233901498E+03 -0.78507079994E+02  0.97392601245E+03  0.10056259541E+04  0.12508894100E+03 0.  0.
          5    1    3    3  502    0 -0.21150117124E+02  0.36801024717E+01  0.15621098341E+02  0.26876787790E+02  0.41800000000E+01 0. -1.
         -5    1    3    3    0  502 -0.18118889786E+03 -0.82187182466E+02  0.95830491410E+03  0.97874916626E+03  0.41800000000E+01 0. -1.
        -11    1    1    2    0    0  0.27104978931E+02  0.38719706986E+02  0.55739261308E+02  0.73080509324E+02  0.00000000000E+00 0.  1.
         11    1    1    2    0    0  0.17523403605E+03  0.39787373008E+02  0.73536070571E+02  0.19415858497E+03  0.00000000000E+00 0. -1.
</event>
<event>
 7    1  0.2666594E-009  0.1277616E+03  0.7561462E-02  0.1230815E+00
          2   -1    0    0  501    0  0.00000000000E+00  0.00000000000E+00  0.24123822051E+03  0.24123822051E+03  0.00000000000E+00 0. -1.
         -2   -1    0    0    0  501 -0.00000000000E+00 -0.00000000000E+00 -0.85159913116E+02  0.85159913116E+02  0.00000000000E+00 0.  1.
         25    2    1    2    0    0  0.69667817303E+02  0.55083555571E+02  0.50001277215E+02  0.16135663250E+03  0.12509209515E+03 0.  0.
          5    1    3    3  502    0  0.78516532683E+02  0.80833333446E+02  0.64828056363E+02  0.13007314478E+03  0.41800000000E+01 0. -1.
         -5    1    3    3    0  502 -0.88487153800E+01 -0.25749777875E+02 -0.14826779148E+02  0.31283487727E+02  0.41800000000E+01 0. -1.
        -11    1    1    2    0    0  0.65264142262E+01 -0.36101439641E+02  0.49667406611E+01  0.37021298459E+02  0.00000000000E+00 0.  1.
         11    1    1    2    0    0 -0.76194231529E+02 -0.18982115929E+02  0.10111028952E+03  0.12802020267E+03  0.00000000000E+00 0. -1.
</event>
<event>
 7    1  0.2666594E-009  0.2379214E+03  0.7561462E-02  0.1121185E+00
         -1   -1    0    0    0  501 -0.00000000000E+00  0.00000000000E+00  0.48158942488E+03  0.48158942488E+03  0.00000000000E+00 0.  1.
          1   -1    0    0  501    0  0.00000000000E+00 -0.00000000000E+00 -0.17702665452E+03  0.17702665452E+03  0.00000000000E+00 0. -1.
         25    2    1    2    0    0  0.17308966284E+03 -0.13410676350E+03 -0.24190239243E+02  0.25333239407E+03  0.12508988294E+03 0.  0.
          5    1    3    3  502    0  0.10487831461E+03 -0.49125503730E+01  0.66508493094E+00  0.10507858376E+03  0.41800000000E+01 0.  1.
         -5    1    3    3    0  502  0.68211348224E+02 -0.12919421312E+03 -0.24855324174E+02  0.14825381031E+03  0.41800000000E+01 0.  1.
        -11    1    1    2    0    0 -0.10257432645E+02  0.29104244316E+02  0.10431469040E+03  0.10878339301E+03  0.00000000000E+00 0.  1.
         11    1    1    2    0    0 -0.16283223019E+03  0.10500251918E+03  0.22443831920E+03  0.29650029233E+03  0.00000000000E+00 0. -1.
</event>
<event>
 7    1  0.2666594E-009  0.1089027E+03  0.7561462E-02  0.1262616E+00
         -1   -1    0    0    0  501 -0.00000000000E+00  0.00000000000E+00  0.22596145291E+02  0.22596145291E+02  0.00000000000E+00 0.  1.
          1   -1    0    0  501    0  0.00000000000E+00 -0.00000000000E+00 -0.63866230217E+03  0.63866230217E+03  0.00000000000E+00 0. -1.
         25    2    1    2    0    0 -0.51914923236E-01  0.16094513704E+02 -0.48561866488E+03  0.50172580066E+03  0.12507699748E+03 0.  0.
          5    1    3    3  502    0 -0.62255645316E+02  0.38596203832E+01 -0.23311480497E+03  0.24135170755E+03  0.41800000000E+01 0.  1.
         -5    1    3    3    0  502  0.62203730393E+02  0.12234893321E+02 -0.25250385991E+03  0.26037409311E+03  0.41800000000E+01 0.  1.
        -11    1    1    2    0    0 -0.20309112573E+02  0.32920633977E+02 -0.58305000233E+02  0.69969287885E+02  0.00000000000E+00 0. -1.
         11    1    1    2    0    0  0.20361027496E+02 -0.49015147680E+02 -0.72142491764E+02  0.89563358918E+02  0.00000000000E+00 0.  1.
</event>
<event>
 7    1  0.2666594E-009  0.9653306E+02  0.7561462E-02  0.1287760E+00
         -1   -1    0    0    0  501 -0.00000000000E+00  0.00000000000E+00  0.29683764045E+02  0.29683764045E+02  0.00000000000E+00 0.  1.
          1   -1    0    0  501    0  0.00000000000E+00 -0.00000000000E+00 -0.68289084945E+03  0.68289084945E+03  0.00000000000E+00 0. -1.
         25    2    1    2    0    0 -0.61625567326E+02  0.42033810337E+01 -0.53024534865E+03  0.54829144346E+03  0.12509195918E+03 0.  0.
          5    1    3    3  502    0  0.12083999135E+02 -0.42084643335E+02 -0.27707910663E+03  0.28054846991E+03  0.41800000000E+01 0. -1.
         -5    1    3    3    0  502 -0.73709566462E+02  0.46288024369E+02 -0.25316624202E+03  0.26774297355E+03  0.41800000000E+01 0. -1.
        -11    1    1    2    0    0  0.31828437926E+02 -0.44973896133E+01 -0.12979077791E+03  0.13371208624E+03  0.00000000000E+00 0. -1.
         11    1    1    2    0    0  0.29797129400E+02  0.29400857960E+00  0.68290411550E+01  0.30571083798E+02  0.00000000000E+00 0.  1.
</event>
<event>
 7    1  0.2666594E-009  0.1332945E+03  0.7561462E-02  0.1222648E+00
         -1   -1    0    0    0  501 -0.00000000000E+00  0.00000000000E+00  0.22462705012E+03  0.22462705012E+03  0.00000000000E+00 0.  1.
          1   -1    0    0  501    0  0.00000000000E+00 -0.00000000000E+00 -0.12215392869E+03  0.12215392869E+03  0.00000000000E+00 0. -1.
         25    2    1    2    0    0  0.84506281443E+02 -0.32804422367E+02  0.14387868063E+03  0.21110643517E+03  0.12508960988E+03 0.  0.
          5    1    3    3  502    0  0.97222408528E+02 -0.64648511291E+02  0.91651549478E+02  0.14848941260E+03  0.41800000000E+01 0.  1.
         -5    1    3    3    0  502 -0.12716127085E+02  0.31844088924E+02  0.52227131147E+02  0.62617022569E+02  0.41800000000E+01 0.  1.
        -11    1    1    2    0    0  0.72101309351E+01 -0.11333244220E+02 -0.30476356469E+02  0.33305205543E+02  0.00000000000E+00 0. -1.
         11    1    1    2    0    0 -0.91716412378E+02  0.44137666587E+02 -0.10929202722E+02  0.10236933810E+03  0.00000000000E+00 0.  1.
</event>
<event>
 7    1  0.2666594E-009  0.5864552E+02  0.7561462E-02  0.1403605E+00
          2   -1    0    0  501    0  0.00000000000E+00  0.00000000000E+00  0.58974082573E+02  0.58974082573E+02  0.00000000000E+00 0. -1.
         -2   -1    0    0    0  501 -0.00000000000E+00 -0.00000000000E+00 -0.20028840140E+03  0.20028840140E+03  0.00000000000E+00 0.  1.
         25    2    1    2    0    0  0.67478710046E+01 -0.12436074374E+02 -0.75004783731E+02  0.14653984384E+03  0.12509204028E+03 0.  0.
          5    1    3    3  502    0 -0.20430505652E+02  0.25865513623E+00 -0.10312422938E+03  0.10521193634E+03  0.41800000000E+01 0. -1.
         -5    1    3    3    0  502  0.27178376656E+02 -0.12694729511E+02  0.28119445648E+02  0.41327907503E+02  0.41800000000E+01 0. -1.
        -11    1    1    2    0    0  0.21674204200E+02  0.26666099597E+02  0.49285111960E+01  0.34715158332E+02  0.00000000000E+00 0. -1.
         11    1    1    2    0    0 -0.28422075205E+02 -0.14230025223E+02 -0.71238046289E+02  0.78007481794E+02  0.00000000000E+00 0.  1.
</event>
<event>
 7    1  0.2666594E-009  0.1648439E+03  0.7561462E-02  0.1183334E+00
          4   -1    0    0  501    0  0.00000000000E+00  0.00000000000E+00  0.29700560021E+03  0.29700560021E+03  0.00000000000E+00 0. -1.
         -4   -1    0    0    0  501 -0.00000000000E+00 -0.00000000000E+00 -0.10945354262E+03  0.10945354262E+03  0.00000000000E+00 0.  1.
         25    2    1    2    0    0 -0.63502503791E+02 -0.11373489310E+03  0.16760848558E+03  0.24639132623E+03  0.12509151573E+03 0.  0.
          5    1    3    3  502    0  0.25378095405E+02 -0.80767903368E+02  0.66561753101E+02  0.10777495682E+03  0.41800000000E+01 0. -1.
         -5    1    3    3    0  502 -0.88880599196E+02 -0.32966989733E+02  0.10104673248E+03  0.13861636941E+03  0.41800000000E+01 0. -1.
        -11    1    1    2    0    0 -0.96194903777E+01  0.56126767370E+02  0.33390716398E+02  0.66012790822E+02  0.00000000000E+00 0. -1.
         11    1    1    2    0    0  0.73121994168E+02  0.57608125731E+02 -0.13447144396E+02  0.94055025776E+02  0.00000000000E+00 0.  1.
</event>
<event>
 7    1  0.2666594E-009  0.7819616E+02  0.7561462E-02  0.1334250E+00
          1   -1    0    0  501    0  0.00000000000E+00  0.00000000000E+00  0.32747605947E+03  0.32747605947E+03  0.00000000000E+00 0. -1.
         -1   -1    0    0    0  501 -0.00000000000E+00 -0.00000000000E+00 -0.44653215414E+02  0.44653215414E+02  0.00000000000E+00 0.  1.
         25    2    1    2    0    0 -0.65720191280E+01  0.18210327344E+02  0.23697860116E+03  0.26866606128E+03  0.12509111727E+03 0.  0.
          5    1    3    3  502    0 -0.52656389343E+02 -0.65601024629E+01  0.45185002905E+02  0.69820392225E+02  0.41800000000E+01 0. -1.
         -5    1    3    3    0  502  0.46084370215E+02  0.24770429807E+02  0.19179359825E+03  0.19884566905E+03  0.41800000000E+01 0. -1.
        -11    1    1    2    0    0 -0.19907121245E+02 -0.12755163223E+02 -0.20834003133E+02  0.31512590367E+02  0.00000000000E+00 0.  1.
         11    1    1    2    0    0  0.26479140373E+02 -0.54551641212E+01  0.66678246037E+02  0.71950623243E+02  0.00000000000E+00 0. -1.
</event>
<event>
 7    1  0.2666594E-009  0.5255593E+02  0.7561462E-02  0.1432024E+00
         -1   -1    0    0    0  501 -0.00000000000E+00  0.00000000000E+00  0.33423405105E+03  0.33423405105E+03  0.00000000000E+00 0.  1.
          1   -1    0    0  501    0  0.00000000000E+00 -0.00000000000E+00 -0.29787898988E+02  0.29787898988E+02  0.00000000000E+00 0. -1.
         25    2    1    2    0    0  0.34802733726E+02  0.87445052975E+01  0.18994745750E+03  0.23025417972E+03  0.12509697846E+03 0.  0.
          5    1    3    3  502    0  0.14819789666E+02  0.99238425331E+01 -0.15374969380E+02  0.23915913108E+02  0.41800000000E+01 0. -1.
         -5    1    3    3    0  502  0.19982944060E+02 -0.11793372356E+01  0.20532242688E+03  0.20633826661E+03  0.41800000000E+01 0. -1.
        -11    1    1    2    0    0 -0.46930504339E+02 -0.18832869095E+02  0.68529746911E+02  0.85167337680E+02  0.00000000000E+00 0. -1.
         11    1    1    2    0    0  0.12127770613E+02  0.10088363798E+02  0.45968947653E+02  0.48600432637E+02  0.00000000000E+00 0.  1.
</event>
<event>
 7    1  0.2666594E-009  0.1107518E+03  0.7561462E-02  0.1259184E+00
         -1   -1    0    0    0  501 -0.00000000000E+00  0.00000000000E+00  0.27257116380E+02  0.27257116380E+02  0.00000000000E+00 0.  1.
          1   -1    0    0  501    0  0.00000000000E+00 -0.00000000000E+00 -0.52188299417E+03  0.52188299417E+03  0.00000000000E+00 0. -1.
         25    2    1    2    0    0  0.10324737397E+02  0.30492638213E+02 -0.35206777875E+03  0.37501435744E+03  0.12509055226E+03 0.  0.
          5    1    3    3  502    0 -0.11799310165E+02  0.72757499239E+02 -0.14785418938E+03  0.16526103937E+03  0.41800000000E+01 0.  1.
         -5    1    3    3    0  502  0.22124047562E+02 -0.42264861026E+02 -0.20421358938E+03  0.20975331808E+03  0.41800000000E+01 0.  1.
        -11    1    1    2    0    0 -0.12204249383E+02  0.33559283841E+02 -0.45871252198E+02  0.58132099680E+02  0.00000000000E+00 0. -1.
         11    1    1    2    0    0  0.18795119862E+01 -0.64051922054E+02 -0.96686846841E+02  0.11599365343E+03  0.00000000000E+00 0.  1.
</event>
<event>
 7    1  0.2666594E-009  0.1363238E+03  0.7561462E-02  0.1218363E+00
          1   -1    0    0  501    0  0.00000000000E+00  0.00000000000E+00  0.38873608679E+02  0.38873608679E+02  0.00000000000E+00 0. -1.
         -1   -1    0    0    0  501 -0.00000000000E+00 -0.00000000000E+00 -0.61619998267E+03  0.61619998267E+03  0.00000000000E+00 0.  1.
         25    2    1    2    0    0 -0.39472067220E+02 -0.10006921953E+03 -0.34844261112E+03  0.38552813200E+03  0.12509114490E+03 0.  0.
          5    1    3    3  502    0 -0.20186765891E+02  0.25794780116E+02 -0.40388562020E+02  0.52168808118E+02  0.41800000000E+01 0.  1.
         -5    1    3    3    0  502 -0.19285301329E+02 -0.12586399964E+03 -0.30805404910E+03  0.33335932388E+03  0.41800000000E+01 0.  1.
        -11    1    1    2    0    0  0.30548712797E+02  0.34620253989E+02 -0.19732074194E+02  0.50210960873E+02  0.00000000000E+00 0. -1.
         11    1    1    2    0    0  0.89233544231E+01  0.65448965540E+02 -0.20915168868E+03  0.21933449848E+03  0.00000000000E+00 0.  1.
</event>
<event>
 7    1  0.2666594E-009  0.1189981E+03  0.7561462E-02  0.1244759E+00
          2   -1    0    0  501    0  0.00000000000E+00  0.00000000000E+00  0.44278222944E+03  0.44278222944E+03  0.00000000000E+00 0. -1.
         -2   -1    0    0    0  501 -0.00000000000E+00 -0.00000000000E+00 -0.42688899974E+02  0.42688899974E+02  0.00000000000E+00 0.  1.
         25    2    1    2    0    0 -0.72073279766E+02  0.39506758558E+02  0.18938028242E+03  0.24138721886E+03  0.12509019318E+03 0.  0.
          5    1    3    3  502    0  0.17927495175E+02  0.78814447436E+01 -0.84371761145E+01  0.21729486770E+02  0.41800000000E+01 0. -1.
         -5    1    3    3    0  502 -0.90000774941E+02  0.31625313814E+02  0.19781745854E+03  0.21965773209E+03  0.41800000000E+01 0. -1.
        -11    1    1    2    0    0  0.50349868630E+02  0.23700104510E+02  0.10887592155E+03  0.12227334345E+03  0.00000000000E+00 0. -1.
         11    1    1    2    0    0  0.21723411136E+02 -0.63206863067E+02  0.10183712549E+03  0.12181056710E+03  0.00000000000E+00 0.  1.
</event>
<event>
 7    1  0.2666594E-009  0.1767353E+03  0.7561462E-02  0.1171001E+00
         -1   -1    0    0    0  501 -0.00000000000E+00  0.00000000000E+00  0.46719492253E+02  0.46719492253E+02  0.00000000000E+00 0.  1.
          1   -1    0    0  501    0  0.00000000000E+00 -0.00000000000E+00 -0.75593343564E+03  0.75593343564E+03  0.00000000000E+00 0. -1.
         25    2    1    2    0    0 -0.86667391791E+02  0.12629558492E+03 -0.34940240459E+03  0.40148635972E+03  0.12508974835E+03 0.  0.
          5    1    3    3  502    0  0.17099702756E+02  0.38226755475E+02 -0.23317016027E+02  0.48112787332E+02  0.41800000000E+01 0. -1.
         -5    1    3    3    0  502 -0.10376709455E+03  0.88068829443E+02 -0.32608538856E+03  0.35337357239E+03  0.41800000000E+01 0. -1.
        -11    1    1    2    0    0  0.10406108034E+03 -0.10828937781E+03 -0.28305024374E+03  0.32042587016E+03  0.00000000000E+00 0.  1.
         11    1    1    2    0    0 -0.17393688551E+02 -0.18006207111E+02 -0.76761295058E+02  0.80740698008E+02  0.00000000000E+00 0. -1.
</event>
<event>
 7    1  0.2666594E-009  0.1199354E+03  0.7561462E-02  0.1243204E+00
          1   -1    0    0  501    0  0.00000000000E+00  0.00000000000E+00  0.17304003404E+02  0.17304003404E+02  0.00000000000E+00 0. -1.
         -1   -1    0    0    0  501 -0.00000000000E+00 -0.00000000000E+00 -0.11531026121E+04  0.11531026121E+04  0.00000000000E+00 0.  1.
         25    2    1    2    0    0  0.48139666831E+02 -0.58667550731E+02 -0.82587654479E+03  0.83873618051E+03  0.12508798598E+03 0.  0.
          5    1    3    3  502    0 -0.41566776311E+02 -0.99381214481E+01 -0.29602112851E+03  0.29911961499E+03  0.41800000000E+01 0.  1.
         -5    1    3    3    0  502  0.89706443142E+02 -0.48729429282E+02 -0.52985541628E+03  0.53961656552E+03  0.41800000000E+01 0.  1.
        -11    1    1    2    0    0 -0.47430800462E+02  0.13132540410E+02 -0.25780103933E+03  0.26245670182E+03  0.00000000000E+00 0. -1.
         11    1    1    2    0    0 -0.70886636964E+00  0.45535010321E+02 -0.52121024566E+02  0.69213733162E+02  0.00000000000E+00 0.  1.
</event>
<event>
 7    1  0.2666594E-009  0.1915950E+03  0.7561462E-02  0.1157031E+00
         -1   -1    0    0    0  501 -0.00000000000E+00  0.00000000000E+00  0.52881807441E+02  0.52881807441E+02  0.00000000000E+00 0.  1.
          1   -1    0    0  501    0  0.00000000000E+00 -0.00000000000E+00 -0.95371173883E+03  0.95371173883E+03  0.00000000000E+00 0. -1.
         25    2    1    2    0    0 -0.17020150966E+03  0.49730033448E+02 -0.59883940189E+03  0.63694383436E+03  0.12508872358E+03 0.  0.
          5    1    3    3  502    0 -0.18310379396E+03  0.53390992675E+02 -0.59062310518E+03  0.62066957573E+03  0.41800000000E+01 0.  1.
         -5    1    3    3    0  502  0.12902284300E+02 -0.36609592265E+01 -0.82162967059E+01  0.16274258637E+02  0.41800000000E+01 0.  1.
        -11    1    1    2    0    0  0.63141822839E+02 -0.88082725802E+01 -0.21914254940E+03  0.22822780815E+03  0.00000000000E+00 0. -1.
         11    1    1    2    0    0  0.10705968682E+03 -0.40921760868E+02 -0.82847980103E+02  0.14142190375E+03  0.00000000000E+00 0.  1.
</event>
<event>
 7    1  0.2666594E-009  0.1509138E+03  0.7561462E-02  0.1199355E+00
         -3   -1    0    0    0  501 -0.00000000000E+00  0.00000000000E+00  0.46415096643E+02  0.46415096643E+02  0.00000000000E+00 0.  1.
          3   -1    0    0  501    0  0.00000000000E+00 -0.00000000000E+00 -0.54751410694E+03  0.54751410694E+03  0.00000000000E+00 0. -1.
         25    2    1    2    0    0 -0.11092714541E+03  0.25702514455E+01 -0.20410278666E+03  0.26384517334E+03  0.12507953547E+03 0.  0.
          5    1    3    3  502    0 -0.96494787702E+02 -0.52109442841E+02 -0.14610930992E+03  0.18273489248E+03  0.41800000000E+01 0.  1.
         -5    1    3    3    0  502 -0.14432357704E+02  0.54679694287E+02 -0.57993476747E+02  0.81110280861E+02  0.41800000000E+01 0.  1.
        -11    1    1    2    0    0  0.48654723524E+02  0.37409364076E+02 -0.80089832404E+02  0.10090155547E+03  0.00000000000E+00 0.  1.
         11    1    1    2    0    0  0.62272421883E+02 -0.39979615522E+02 -0.21690639123E+03  0.22918247477E+03  0.00000000000E+00 0. -1.
</event>
<event>
 7    1  0.2666594E-009  0.1998761E+03  0.7561462E-02  0.1149844E+00
         -2   -1    0    0    0  501 -0.00000000000E+00  0.00000000000E+00  0.10665514650E+03  0.10665514650E+03  0.00000000000E+00 0.  1.
          2   -1    0    0  501    0  0.00000000000E+00 -0.00000000000E+00 -0.47502694955E+03  0.47502694955E+03  0.00000000000E+00 0. -1.
         25    2    1    2    0    0  0.13097782668E+03  0.14684024864E+03 -0.19728267705E+03  0.30542811170E+03  0.12509447251E+03 0.  0.
          5    1    3    3  502    0  0.73222305253E+02  0.49359377493E+02 -0.16557078873E+03  0.18769393334E+03  0.41800000000E+01 0. -1.
         -5    1    3    3    0  502  0.57755521429E+02  0.97480871143E+02 -0.31711888325E+02  0.11773417837E+03  0.41800000000E+01 0. -1.
        -11    1    1    2    0    0 -0.40174444230E+02 -0.30814392610E+02 -0.21429510408E+00  0.50631597678E+02  0.00000000000E+00 0. -1.
         11    1    1    2    0    0 -0.90803382452E+02 -0.11602585603E+03 -0.17087483090E+03  0.22562238667E+03  0.00000000000E+00 0.  1.
</event>
<event>
 7    1  0.2666594E-009  0.2064169E+03  0.7561462E-02  0.1144435E+00
         -1   -1    0    0    0  501 -0.00000000000E+00  0.00000000000E+00  0.50925369546E+02  0.50925369546E+02  0.00000000000E+00 0.  1.
          1   -1    0    0  501    0  0.00000000000E+00 -0.00000000000E+00 -0.91144022041E+03  0.91144022041E+03  0.00000000000E+00 0. -1.
         25    2    1    2    0    0 -0.17404697441E+02  0.18513107583E+03 -0.45102938632E+03  0.50363804517E+03  0.12508930605E+03 0.  0.
          5    1    3    3  502    0 -0.57007501284E+02  0.31285820866E+02 -0.12753533783E+03  0.14321798974E+03  0.41800000000E+01 0. -1.
         -5    1    3    3    0  502  0.39602803843E+02  0.15384525497E+03 -0.32349404850E+03  0.36042005544E+03  0.41800000000E+01 0. -1.
        -11    1    1    2    0    0  0.27108782952E+02 -0.13616864400E+03 -0.36965365371E+03  0.39486783792E+03  0.00000000000E+00 0. -1.
         11    1    1    2    0    0 -0.97040855103E+01 -0.48962431828E+02 -0.39831810824E+02  0.63859706855E+02  0.00000000000E+00 0.  1.
</event>
<event>
 7    1  0.2666594E-009  0.1166628E+03  0.7561462E-02  0.1248706E+00
          1   -1    0    0  501    0  0.00000000000E+00  0.00000000000E+00  0.34068513199E+02  0.34068513199E+02  0.00000000000E+00 0. -1.
         -1   -1    0    0    0  501 -0.00000000000E+00 -0.00000000000E+00 -0.47981887784E+03  0.47981887784E+03  0.00000000000E+00 0.  1.
         25    2    1    2    0    0  0.44765392262E+02  0.33368955685E+02 -0.15764385533E+03  0.20884597133E+03  0.12509047554E+03 0.  0.
          5    1    3    3  502    0 -0.12859158232E+02  0.66277794325E+02 -0.10066584057E+03  0.12128144058E+03  0.41800000000E+01 0.  1.
         -5    1    3    3    0  502  0.57624550495E+02 -0.32908838640E+02 -0.56978014766E+02  0.87564530759E+02  0.41800000000E+01 0.  1.
        -11    1    1    2    0    0  0.22009868359E+02  0.44431384930E+01 -0.48477117443E+02  0.53424776092E+02  0.00000000000E+00 0.  1.
         11    1    1    2    0    0 -0.66775260622E+02 -0.37812094178E+02 -0.23962939187E+03  0.25161664362E+03  0.00000000000E+00 0. -1.
</event>
<event>
 7    1  0.2666594E-009  0.2084885E+03  0.7561462E-02  0.1142769E+00
          1   -1    0    0  501    0  0.00000000000E+00  0.00000000000E+00  0.93432736962E+02  0.93432736962E+02  0.00000000000E+00 0. -1.
         -1   -1    0    0    0  501 -0.00000000000E+00 -0.00000000000E+00 -0.69565634903E+03  0.69565634903E+03  0.00000000000E+00 0.  1.
         25    2    1    2    0    0  0.72435955197E+02  0.18181272923E+03 -0.49692065325E+03  0.54852559946E+03  0.12508941410E+03 0.  0.
          5    1    3    3  502    0 -0.22116275981E+02  0.67748227288E+02 -0.86458387044E+02  0.11212259832E+03  0.41800000000E+01 0. -1.
         -5    1    3    3    0  502  0.94552231178E+02  0.11406450194E+03 -0.41046226620E+03  0.43640300114E+03  0.41800000000E+01 0. -1.
        -11    1    1    2    0    0 -0.35992359826E+02 -0.12321848674E+03 -0.18528880721E+02  0.12969797555E+03  0.00000000000E+00 0. -1.
         11    1    1    2    0    0 -0.36443595371E+02 -0.58594242492E+02 -0.86774078102E+02  0.11086551099E+03  0.00000000000E+00 0.  1.
</event>
<event>
 7    1  0.2666594E-009  0.1098363E+03  0.7561462E-02  0.1260873E+00
         -2   -1    0    0    0  501 -0.00000000000E+00  0.00000000000E+00  0.43110523403E+02  0.43110523403E+02  0.00000000000E+00 0.  1.
          2   -1    0    0  501    0  0.00000000000E+00 -0.00000000000E+00 -0.33932024665E+03  0.33932024665E+03  0.00000000000E+00 0. -1.
         25    2    1    2    0    0 -0.52983088754E+02 -0.25619208108E+01 -0.16963412471E+03  0.21734205957E+03  0.12509221981E+03 0.  0.
          5    1    3    3  502    0 -0.30447583311E+01  0.53964246481E+02 -0.40251345458E+02  0.67520764678E+02  0.41800000000E+01 0.  1.
         -5    1    3    3    0  502 -0.49938330423E+02 -0.56526167292E+02 -0.12938277925E+03  0.14982129489E+03  0.41800000000E+01 0.  1.
        -11    1    1    2    0    0 -0.17780770171E+02 -0.57074158209E+01  0.12850187085E+01  0.18718484349E+02  0.00000000000E+00 0.  1.
         11    1    1    2    0    0  0.70763858925E+02  0.82693366317E+01 -0.12786061724E+03  0.14637022614E+03  0.00000000000E+00 0. -1.
</event>
<event>
 7    1  0.2666594E-009  0.1722723E+03  0.7561462E-02  0.1175499E+00
         -3   -1    0    0    0  501 -0.00000000000E+00  0.00000000000E+00  0.34505640875E+03  0.34505640875E+03  0.00000000000E+00 0.  1.
          3   -1    0    0  501    0  0.00000000000E+00 -0.00000000000E+00 -0.10518032712E+03  0.10518032712E+03  0.00000000000E+00 0. -1.
         25    2    1    2    0    0 -0.34350559530E+01  0.12956438082E+03  0.21664165130E+03  0.28174228895E+03  0.12508550643E+03 0.  0.
          5    1    3    3  502    0 -0.32697922014E+02  0.14187559044E+03  0.19369059274E+03  0.24234552891E+03  0.41800000000E+01 0.  1.
         -5    1    3    3    0  502  0.29262866061E+02 -0.12311209625E+02  0.22951058567E+02  0.39396760043E+02  0.41800000000E+01 0.  1.
        -11    1    1    2    0    0  0.37817290035E+02 -0.56061806611E+01  0.43410863108E+01  0.38476248746E+02  0.00000000000E+00 0.  1.
         11    1    1    2    0    0 -0.34382234082E+02 -0.12395820016E+03  0.18893344017E+02  0.13001819817E+03  0.00000000000E+00 0. -1.
</event>
<event>
 7    1  0.2666594E-009  0.7681081E+02  0.7561462E-02  0.1338354E+00
         -1   -1    0    0    0  501 -0.00000000000E+00  0.00000000000E+00  0.47027126714E+02  0.47027126714E+02  0.00000000000E+00 0.  1.
          1   -1    0    0  501    0  0.00000000000E+00 -0.00000000000E+00 -0.28866174164E+03  0.28866174164E+03  0.00000000000E+00 0. -1.
         25    2    1    2    0    0 -0.32050932206E+02 -0.11307129045E+02 -0.98653457136E+02  0.16289387317E+03  0.12508715317E+03 0.  0.
          5    1    3    3  502    0  0.17354687309E+02 -0.11933430502E+02  0.23034738221E+02  0.31490689101E+02  0.41800000000E+01 0. -1.
         -5    1    3    3    0  502 -0.49405619516E+02  0.62630145696E+00 -0.12168819536E+03  0.13140318407E+03  0.41800000000E+01 0. -1.
        -11    1    1    2    0    0  0.34208170570E+02 -0.27379785092E+02 -0.29346129148E+02  0.52735631801E+02  0.00000000000E+00 0.  1.
         11    1    1    2    0    0 -0.21572383635E+01  0.38686914137E+02 -0.11363502864E+03  0.12005936338E+03  0.00000000000E+00 0. -1.
</event>
<event>
 7    1  0.2666594E-009  0.1724387E+03  0.7561462E-02  0.1175328E+00
          1   -1    0    0  501    0  0.00000000000E+00  0.00000000000E+00  0.87188485316E+03  0.87188485316E+03  0.00000000000E+00 0. -1.
         -1   -1    0    0    0  501 -0.00000000000E+00 -0.00000000000E+00 -0.42751528114E+02  0.42751528114E+02  0.00000000000E+00 0.  1.
         25    2    1    2    0    0 -0.46388366146E+02 -0.14807370463E+03  0.35677388176E+03  0.40867176481E+03  0.12508919270E+03 0.  0.
          5    1    3    3  502    0 -0.14539804122E+02 -0.12052539267E+03  0.12974590235E+03  0.17773364273E+03  0.41800000000E+01 0.  1.
         -5    1    3    3    0  502 -0.31848562024E+02 -0.27548311963E+02  0.22702797941E+03  0.23093812208E+03  0.41800000000E+01 0.  1.
        -11    1    1    2    0    0 -0.27487437370E+02  0.23061042722E+02  0.83789511830E+02  0.91148522737E+02  0.00000000000E+00 0.  1.
         11    1    1    2    0    0  0.73875803515E+02  0.12501266191E+03  0.38856993146E+03  0.41481609373E+03  0.00000000000E+00 0. -1.
</event>
<event>
 7    1  0.2666594E-009  0.7967673E+02  0.7561462E-02  0.1329971E+00
          3   -1    0    0  501    0  0.00000000000E+00  0.00000000000E+00  0.70093382437E+03  0.70093382437E+03  0.00000000000E+00 0. -1.
         -3   -1    0    0    0  501 -0.00000000000E+00 -0.00000000000E+00 -0.22280847215E+02  0.22280847215E+02  0.00000000000E+00 0.  1.
         25    2    1    2    0    0  0.36569415030E+02  0.43803490393E+01  0.52639458181E+03  0.54230610149E+03  0.12509253528E+03 0.  0.
          5    1    3    3  502    0  0.33392888952E+02  0.25774036135E+02  0.51636478561E+03  0.51810177590E+03  0.41800000000E+01 0.  1.
         -5    1    3    3    0  502  0.31765260777E+01 -0.21393687095E+02  0.10029796196E+02  0.24204325588E+02  0.41800000000E+01 0.  1.
        -11    1    1    2    0    0 -0.48736065951E+02  0.30839252761E+02  0.11247777656E+03  0.12640219087E+03  0.00000000000E+00 0. -1.
         11    1    1    2    0    0  0.12166650921E+02 -0.35219601801E+02  0.39780618779E+02  0.54506379223E+02  0.00000000000E+00 0.  1.
</event>
<event>
 7    1  0.2666594E-009  0.1172827E+03  0.7561462E-02  0.1247648E+00
          2   -1    0    0  501    0  0.00000000000E+00  0.00000000000E+00  0.25430700905E+03  0.25430700905E+03  0.00000000000E+00 0. -1.
         -2   -1    0    0    0  501 -0.00000000000E+00 -0.00000000000E+00 -0.58174164879E+02  0.58174164879E+02  0.00000000000E+00 0.  1.
         25    2    1    2    0    0  0.48419480185E+02  0.26396601084E+02  0.12575799189E+03  0.18575293519E+03  0.12509138179E+03 0.  0.
          5    1    3    3  502    0 -0.35318009204E+02 -0.16161740416E+02  0.18832124101E+02  0.43366864373E+02  0.41800000000E+01 0. -1.
         -5    1    3    3    0  502  0.83737489388E+02  0.42558341501E+02  0.10692586779E+03  0.14238607082E+03  0.41800000000E+01 0. -1.
        -11    1    1    2    0    0 -0.48774083231E+02  0.21696243644E+02  0.19797526919E+02  0.56934877319E+02  0.00000000000E+00 0.  1.
         11    1    1    2    0    0  0.35460304597E+00 -0.48092844728E+02  0.50577325358E+02  0.69793361416E+02  0.00000000000E+00 0. -1.
</event>
<event>
 7    1  0.2666594E-009  0.7750689E+02  0.7561462E-02  0.1336279E+00
          2   -1    0    0  501    0  0.00000000000E+00  0.00000000000E+00  0.87219609221E+03  0.87219609221E+03  0.00000000000E+00 0. -1.
         -2   -1    0    0    0  501 -0.00000000000E+00 -0.00000000000E+00 -0.20627584256E+02  0.20627584256E+02  0.00000000000E+00 0.  1.
         25    2    1    2    0    0 -0.51982017373E+02 -0.25610873706E+02  0.65044192907E+03  0.66489068838E+03  0.12508747910E+03 0.  0.
          5    1    3    3  502    0 -0.42698980521E+02 -0.25341877919E+02  0.79284711967E+02  0.93642680790E+02  0.41800000000E+01 0.  1.
         -5    1    3    3    0  502 -0.92830368517E+01 -0.26899578655E+00  0.57115721710E+03  0.57124800759E+03  0.41800000000E+01 0.  1.
        -11    1    1    2    0    0 -0.41019887628E+01  0.37455807020E+02  0.13623580186E+03  0.14135047754E+03  0.00000000000E+00 0. -1.
         11    1    1    2    0    0  0.56084006135E+02 -0.11844933314E+02  0.64890777023E+02  0.86582510544E+02  0.00000000000E+00 0.  1.
</event>
<event>
 7    1  0.2666594E-009  0.4494279E+03  0.7561462E-02  0.1027893E+00
          2   -1    0    0  501    0  0.00000000000E+00  0.00000000000E+00  0.67527487423E+03  0.67527487423E+03  0.00000000000E+00 0. -1.
         -2   -1    0    0    0  501 -0.00000000000E+00 -0.00000000000E+00 -0.35390935097E+03  0.35390935097E+03  0.00000000000E+00 0.  1.
         25    2    1    2    0    0 -0.37980006657E+03  0.23039702433E+03  0.34090437823E+03  0.57375426663E+03  0.12508910420E+03 0.  0.
          5    1    3    3  502    0 -0.65839811125E+02  0.28289815495E+02  0.12018125467E+03  0.13998643064E+03  0.41800000000E+01 0.  1.
         -5    1    3    3    0  502 -0.31396025544E+03  0.20210720884E+03  0.22072312356E+03  0.43376783599E+03  0.41800000000E+01 0.  1.
        -11    1    1    2    0    0  0.17351679172E+03 -0.15906926615E+03 -0.27639675356E+02  0.23701278466E+03  0.00000000000E+00 0. -1.
         11    1    1    2    0    0  0.20628327485E+03 -0.71327758187E+02  0.81008203814E+01  0.21841717392E+03  0.00000000000E+00 0.  1.
</event>
<event>
 7    1  0.2666594E-009  0.2351741E+03  0.7561462E-02  0.1123050E+00
         -1   -1    0    0    0  501 -0.00000000000E+00  0.00000000000E+00  0.11424356325E+03  0.11424356325E+03  0.00000000000E+00 0. -1.
          1   -1    0    0  501    0  0.00000000000E+00 -0.00000000000E+00 -0.57809787238E+03  0.57809787238E+03  0.00000000000E+00 0.  1.
         25    2    1    2    0    0 -0.13610760953E+03  0.17166195055E+03 -0.13422347864E+03  0.28575391988E+03  0.12508498660E+03 0.  0.
          5    1    3    3  502    0 -0.90208661106E+02  0.25336968117E+02 -0.23892002897E+02  0.96787730082E+02  0.41800000000E+01 0. -1.
         -5    1    3    3    0  502 -0.45898948427E+02  0.14632498243E+03 -0.11033147574E+03  0.18896618980E+03  0.41800000000E+01 0. -1.
        -11    1    1    2    0    0  0.67160958843E+02 -0.51604247299E+02 -0.19885600752E+03  0.21614186189E+03  0.00000000000E+00 0.  1.
         11    1    1    2    0    0  0.68946650690E+02 -0.12005770325E+03 -0.13077482297E+03  0.19044565386E+03  0.00000000000E+00 0. -1.
</event>
<event>
 7    1  0.2666594E-009  0.1194335E+03  0.7561462E-02  0.1244034E+00
          4   -1    0    0  501    0  0.00000000000E+00  0.00000000000E+00  0.27294227399E+03  0.27294227399E+03  0.00000000000E+00 0. -1.
         -4   -1    0    0    0  501 -0.00000000000E+00 -0.00000000000E+00 -0.57703220411E+02  0.57703220411E+02  0.00000000000E+00 0.  1.
         25    2    1    2    0    0 -0.58601580379E+02 -0.23331498047E+02  0.10439828367E+03  0.17471434841E+03  0.12509035887E+03 0.  0.
          5    1    3    3  502    0 -0.19995249167E+02  0.49028775083E+02  0.19455285352E+02  0.56565106767E+02  0.41800000000E+01 0.  1.
         -5    1    3    3    0  502 -0.38606331212E+02 -0.72360273130E+02  0.84942998322E+02  0.11814924164E+03  0.41800000000E+01 0.  1.
        -11    1    1    2    0    0  0.76346710490E+02  0.33283435292E+02  0.64568402135E+02  0.10538351779E+03  0.00000000000E+00 0. -1.
         11    1    1    2    0    0 -0.17745130111E+02 -0.99519372448E+01  0.46272367772E+02  0.50547628202E+02  0.00000000000E+00 0.  1.
</event>
<event>
 7    1  0.2666594E-009  0.1104086E+03  0.7561462E-02  0.1259815E+00
         -2   -1    0    0    0  501 -0.00000000000E+00  0.00000000000E+00  0.45826648735E+02  0.45826648735E+02  0.00000000000E+00 0.  1.
          2   -1    0    0  501    0  0.00000000000E+00 -0.00000000000E+00 -0.57624899923E+03  0.57624899923E+03  0.00000000000E+00 0. -1.
         25    2    1    2    0    0  0.55135365047E+02 -0.86979768987E+02 -0.16292706604E+03  0.22978266193E+03  0.12509777849E+03 0.  0.
          5    1    3    3  502    0  0.34888884647E+02 -0.25915807350E+02 -0.15934070030E+03  0.16521438955E+03  0.41800000000E+01 0. -1.
         -5    1    3    3    0  502  0.20246480400E+02 -0.61063961636E+02 -0.35863657441E+01  0.64568272383E+02  0.41800000000E+01 0. -1.
        -11    1    1    2    0    0 -0.60001980173E+01  0.52066205600E+02 -0.28691657487E+03  0.29166421288E+03  0.00000000000E+00 0. -1.
         11    1    1    2    0    0 -0.49135167030E+02  0.34913563386E+02 -0.80578709582E+02  0.10062877315E+03  0.00000000000E+00 0.  1.
</event>
<event>
 7    1  0.2666594E-009  0.1808902E+03  0.7561462E-02  0.1166944E+00
          1   -1    0    0  501    0  0.00000000000E+00  0.00000000000E+00  0.48738820296E+02  0.48738820296E+02  0.00000000000E+00 0. -1.
         -1   -1    0    0    0  501 -0.00000000000E+00 -0.00000000000E+00 -0.88372889419E+03  0.88372889419E+03  0.00000000000E+00 0.  1.
         25    2    1    2    0    0 -0.12961687897E+03  0.94120198630E+02 -0.60895162226E+03  0.64197181231E+03  0.12508630000E+03 0.  0.
          5    1    3    3  502    0 -0.24420552285E+02  0.89414877458E+02 -0.21495967028E+03  0.23412927184E+03  0.41800000000E+01 0.  1.
         -5    1    3    3    0  502 -0.10519632668E+03  0.47053211718E+01 -0.39399195199E+03  0.40784254048E+03  0.41800000000E+01 0.  1.
        -11    1    1    2    0    0  0.68201503054E+02 -0.69708254361E+02 -0.19381901665E+03  0.21697118924E+03  0.00000000000E+00 0.  1.
         11    1    1    2    0    0  0.61415375912E+02 -0.24411944269E+02 -0.32219434986E+02  0.73524712936E+02  0.00000000000E+00 0. -1.
</event>
<event>
 7    1  0.2666594E-009  0.1094735E+03  0.7561462E-02  0.1261548E+00
          1   -1    0    0  501    0  0.00000000000E+00  0.00000000000E+00  0.48569066091E+03  0.48569066091E+03  0.00000000000E+00 0. -1.
         -1   -1    0    0    0  501 -0.00000000000E+00 -0.00000000000E+00 -0.27477978651E+02  0.27477978651E+02  0.00000000000E+00 0.  1.
         25    2    1    2    0    0 -0.44362801038E+02 -0.84853706160E+01  0.25960188325E+03  0.29168586263E+03  0.12508974794E+03 0.  0.
          5    1    3    3  502    0 -0.64985765760E+02 -0.49098469083E+02  0.12258476423E+03  0.14723554679E+03  0.41800000000E+01 0.  1.
         -5    1    3    3    0  502  0.20622964723E+02  0.40613098467E+02  0.13701711902E+03  0.14445031584E+03  0.41800000000E+01 0.  1.
        -11    1    1    2    0    0  0.29780902100E+02 -0.34900814852E+02  0.60134898713E+02  0.75638449550E+02  0.00000000000E+00 0. -1.
         11    1    1    2    0    0  0.14581898938E+02  0.43386185468E+02  0.13847590030E+03  0.14584432739E+03  0.00000000000E+00 0.  1.
</event>
<event>
 7    1  0.2666594E-009  0.1145727E+03  0.7561462E-02  0.1252329E+00
          2   -1    0    0  501    0  0.00000000000E+00  0.00000000000E+00  0.64807921502E+03  0.64807921502E+03  0.00000000000E+00 0. -1.
         -2   -1    0    0    0  501 -0.00000000000E+00 -0.00000000000E+00 -0.31032162648E+02  0.31032162648E+02  0.00000000000E+00 0.  1.
         25    2    1    2    0    0 -0.82921184924E+02  0.33742755542E+02  0.36827161351E+03  0.39910604046E+03  0.12508858363E+03 0.  0.
          5    1    3    3  502    0 -0.53017367907E+01 -0.21954641075E+02  0.22909412818E+03  0.23024271247E+03  0.41800000000E+01 0.  1.
         -5    1    3    3    0  502 -0.77619448134E+02  0.55697396618E+02  0.13917748533E+03  0.16886332799E+03  0.41800000000E+01 0.  1.
        -11    1    1    2    0    0  0.14006355309E+02 -0.38995581257E+02  0.17104249257E+03  0.17598968041E+03  0.00000000000E+00 0. -1.
         11    1    1    2    0    0  0.68914829615E+02  0.52528257144E+01  0.77732946285E+02  0.10401565679E+03  0.00000000000E+00 0.  1.
</event>
<event>
 7    1  0.2666594E-009  0.3954966E+03  0.7561462E-02  0.1045350E+00
          2   -1    0    0  501    0  0.00000000000E+00  0.00000000000E+00  0.97430299058E+03  0.97430299058E+03  0.00000000000E+00 0. -1.
         -2   -1    0    0    0  501 -0.00000000000E+00 -0.00000000000E+00 -0.16467642124E+03  0.16467642124E+03  0.00000000000E+00 0.  1.
         25    2    1    2    0    0  0.94923677596E+02  0.37316225211E+03  0.42313440160E+03  0.58561983508E+03  0.12508916202E+03 0.  0.
          5    1    3    3  502    0  0.10651003300E+03  0.16589906487E+03  0.20998020998E+03  0.28805563324E+03  0.41800000000E+01 0.  1.
         -5    1    3    3    0  502 -0.11586355404E+02  0.20726318724E+03  0.21315419161E+03  0.29756420185E+03  0.41800000000E+01 0.  1.
        -11    1    1    2    0    0 -0.35260758348E+02 -0.87320723637E+02  0.15222269149E+03  0.17899714428E+03  0.00000000000E+00 0. -1.
         11    1    1    2    0    0 -0.59662919248E+02 -0.28584152848E+03  0.23426947625E+03  0.37436243246E+03  0.00000000000E+00 0.  1.
</event>
<event>
 7    1  0.2666594E-009  0.1475924E+03  0.7561462E-02  0.1203463E+00
          1   -1    0    0  501    0  0.00000000000E+00  0.00000000000E+00  0.24992761322E+03  0.24992761322E+03  0.00000000000E+00 0.  1.
         -1   -1    0    0    0  501 -0.00000000000E+00 -0.00000000000E+00 -0.87751620412E+02  0.87751620412E+02  0.00000000000E+00 0. -1.
         25    2    1    2    0    0  0.10879769667E+03  0.17223952544E+02  0.93359042057E+02  0.19104255326E+03  0.12509093924E+03 0.  0.
          5    1    3    3  502    0 -0.14680322681E+02 -0.29840488601E+02  0.10990199039E+02  0.35273552541E+02  0.41800000000E+01 0.  1.
         -5    1    3    3    0  502  0.12347801936E+03  0.47064441146E+02  0.82368843019E+02  0.15576900072E+03  0.41800000000E+01 0.  1.
        -11    1    1    2    0    0 -0.95329946576E+02 -0.39691342064E+02  0.56112572388E+02  0.11752370880E+03  0.00000000000E+00 0. -1.
         11    1    1    2    0    0 -0.13467750099E+02  0.22467389520E+02  0.12704378363E+02  0.29112971579E+02  0.00000000000E+00 0.  1.
</event>
<event>
 7    1  0.2666594E-009  0.6712594E+02  0.7561462E-02  0.1370148E+00
          1   -1    0    0  501    0  0.00000000000E+00  0.00000000000E+00  0.11674172976E+03  0.11674172976E+03  0.00000000000E+00 0. -1.
         -1   -1    0    0    0  501 -0.00000000000E+00 -0.00000000000E+00 -0.12472032210E+03  0.12472032210E+03  0.00000000000E+00 0.  1.
         25    2    1    2    0    0  0.16826262649E+02  0.15924391003E+01  0.41155894621E+02  0.13278007580E+03  0.12510428406E+03 0.  0.
          5    1    3    3  502    0 -0.37551493686E+02 -0.12547467368E+02  0.61173917546E+02  0.72988178518E+02  0.41800000000E+01 0.  1.
         -5    1    3    3    0  502  0.54377756335E+02  0.14139906469E+02 -0.20018022925E+02  0.59791897283E+02  0.41800000000E+01 0.  1.
        -11    1    1    2    0    0 -0.91806056338E+00  0.15048557104E+02 -0.73576402249E+02  0.75105185401E+02  0.00000000000E+00 0.  1.
         11    1    1    2    0    0 -0.15908202086E+02 -0.16640996205E+02  0.24441915288E+02  0.33576790663E+02  0.00000000000E+00 0. -1.
</event>
<event>
 7    1  0.2666594E-009  0.6822841E+02  0.7561462E-02  0.1366223E+00
         -1   -1    0    0    0  501 -0.00000000000E+00  0.00000000000E+00  0.72923984945E+02  0.72923984945E+02  0.00000000000E+00 0.  1.
          1   -1    0    0  501    0  0.00000000000E+00 -0.00000000000E+00 -0.18866752736E+03  0.18866752736E+03  0.00000000000E+00 0. -1.
         25    2    1    2    0    0  0.13532730299E+02 -0.29946834203E+02 -0.97628865713E+02  0.16204478699E+03  0.12508864818E+03 0.  0.
          5    1    3    3  502    0  0.33120474549E+02 -0.15829577531E+01 -0.11741611420E+03  0.12207984217E+03  0.41800000000E+01 0.  1.
         -5    1    3    3    0  502 -0.19587744250E+02 -0.28363876450E+02  0.19787248488E+02  0.39964944824E+02  0.41800000000E+01 0.  1.
        -11    1    1    2    0    0  0.13010061171E+02  0.38330416572E+02  0.25475187444E+02  0.47827478520E+02  0.00000000000E+00 0.  1.
         11    1    1    2    0    0 -0.26542791470E+02 -0.83835823696E+01 -0.43589864142E+02  0.51719246788E+02  0.00000000000E+00 0. -1.
</event>
<event>
 7    1  0.2666594E-009  0.2123216E+03  0.7561462E-02  0.1139741E+00
          1   -1    0    0  501    0  0.00000000000E+00  0.00000000000E+00  0.96181677663E+03  0.96181677663E+03  0.00000000000E+00 0. -1.
         -1   -1    0    0    0  501 -0.00000000000E+00 -0.00000000000E+00 -0.89807841141E+02  0.89807841141E+02  0.00000000000E+00 0.  1.
         25    2    1    2    0    0  0.17168853741E+03  0.12163347517E+03  0.13488267029E+03  0.27948690510E+03  0.12509172321E+03 0.  0.
          5    1    3    3  502    0  0.10069858794E+02  0.14647474956E+02 -0.23069137828E+02  0.29421218514E+02  0.41800000000E+01 0. -1.
         -5    1    3    3    0  502  0.16161867861E+03  0.10698600022E+03  0.15795180812E+03  0.25006568658E+03  0.41800000000E+01 0. -1.
        -11    1    1    2    0    0 -0.96102787272E+02 -0.49787261569E+02  0.52155941163E+03  0.53267132173E+03  0.00000000000E+00 0. -1.
         11    1    1    2    0    0 -0.75585750134E+02 -0.71846213605E+02  0.21556685357E+03  0.23946639095E+03  0.00000000000E+00 0.  1.
</event>
<event>
 7    1  0.2666594E-009  0.5981437E+02  0.7561462E-02  0.1398612E+00
          2   -1    0    0  501    0  0.00000000000E+00  0.00000000000E+00  0.20491570712E+03  0.20491570712E+03  0.00000000000E+00 0.  1.
         -2   -1    0    0    0  501 -0.00000000000E+00 -0.00000000000E+00 -0.68362597176E+02  0.68362597176E+02  0.00000000000E+00 0. -1.
         25    2    1    2    0    0 -0.36102392233E+02 -0.31559381083E+02  0.86475568740E+02  0.15945167194E+03  0.12508970556E+03 0.  0.
          5    1    3    3  502    0 -0.20524713778E+02 -0.13540886361E+02 -0.30843440168E+02  0.39666228464E+02  0.41800000000E+01 0. -1.
         -5    1    3    3    0  502 -0.15577678455E+02 -0.18018494721E+02  0.11731900891E+03  0.11978544348E+03  0.41800000000E+01 0. -1.
        -11    1    1    2    0    0  0.99065475707E+01 -0.14473814572E+02 -0.19601253334E+02  0.26302853938E+02  0.00000000000E+00 0. -1.
         11    1    1    2    0    0  0.26195844663E+02  0.46033195655E+02  0.69678794538E+02  0.87523778415E+02  0.00000000000E+00 0.  1.
</event>
<event>
 7    1  0.2666594E-009  0.8915659E+02  0.7561462E-02  0.1304907E+00
          3   -1    0    0  501    0  0.00000000000E+00  0.00000000000E+00  0.40320653483E+02  0.40320653483E+02  0.00000000000E+00 0. -1.
         -3   -1    0    0    0  501 -0.00000000000E+00 -0.00000000000E+00 -0.49699990720E+03  0.49699990720E+03  0.00000000000E+00 0.  1.
         25    2    1    2    0    0 -0.61241253007E+02  0.22508949992E+02 -0.13134174090E+03  0.19275633604E+03  0.12508880159E+03 0.  0.
          5    1    3    3  502    0 -0.39088434247E+02 -0.59788259965E+01 -0.14766781010E+03  0.15292778228E+03  0.41800000000E+01 0.  1.
         -5    1    3    3    0  502 -0.22152818760E+02  0.28487775988E+02  0.16326069199E+02  0.39828553768E+02  0.41800000000E+01 0.  1.
        -11    1    1    2    0    0 -0.56962682838E+01  0.21414587829E+02 -0.23545416956E+02  0.32332935281E+02  0.00000000000E+00 0. -1.
         11    1    1    2    0    0  0.66937521291E+02 -0.43923537821E+02 -0.30179209586E+03  0.31223128935E+03  0.00000000000E+00 0.  1.
</event>
<event>
 7    1  0.2666594E-009  0.1033511E+03  0.7561462E-02  0.1273403E+00
          2   -1    0    0  501    0  0.00000000000E+00  0.00000000000E+00  0.70404247226E+03  0.70404247226E+03  0.00000000000E+00 0. -1.
         -2   -1    0    0    0  501 -0.00000000000E+00 -0.00000000000E+00 -0.18211009734E+02  0.18211009734E+02  0.00000000000E+00 0.  1.
         25    2    1    2    0    0 -0.24680283571E+02  0.22131330695E+02  0.38610193690E+03  0.40721106713E+03  0.12508890968E+03 0.  0.
          5    1    3    3  502    0 -0.32732252738E+02  0.62994356842E+02  0.13441915228E+03  0.15207126705E+03  0.41800000000E+01 0.  1.
         -5    1    3    3    0  502  0.80519691666E+01 -0.40863026147E+02  0.25168278462E+03  0.25513980008E+03  0.41800000000E+01 0.  1.
        -11    1    1    2    0    0  0.52992535360E+02 -0.34074421422E+02  0.15963694192E+03  0.17161942846E+03  0.00000000000E+00 0.  1.
         11    1    1    2    0    0 -0.28312251789E+02  0.11943090727E+02  0.14009258372E+03  0.14342298641E+03  0.00000000000E+00 0. -1.
</event>
<event>
 7    1  0.2666594E-009  0.1010966E+03  0.7561462E-02  0.1278007E+00
         -1   -1    0    0    0  501 -0.00000000000E+00  0.00000000000E+00  0.19677610011E+02  0.19677610011E+02  0.00000000000E+00 0.  1.
          1   -1    0    0  501    0  0.00000000000E+00 -0.00000000000E+00 -0.87123878166E+03  0.87123878166E+03  0.00000000000E+00 0. -1.
         25    2    1    2    0    0  0.39969781388E+02 -0.46577719667E+02 -0.33977577170E+03  0.36723580030E+03  0.12508993004E+03 0.  0.
          5    1    3    3  502    0  0.44293737386E+02 -0.16788873346E+00 -0.29343921083E+02  0.53296355061E+02  0.41800000000E+01 0. -1.
         -5    1    3    3    0  502 -0.43239559984E+01 -0.46409830934E+02 -0.31043185061E+03  0.31393944524E+03  0.41800000000E+01 0. -1.
        -11    1    1    2    0    0 -0.56301293732E+02 -0.52681121757E+01 -0.27074067346E+03  0.27658290068E+03  0.00000000000E+00 0. -1.
         11    1    1    2    0    0  0.16331512344E+02  0.51845831843E+02 -0.24104472649E+03  0.24709769069E+03  0.00000000000E+00 0.  1.
</event>
<event>
 7    1  0.2666594E-009  0.3097944E+03  0.7561462E-02  0.1080444E+00
         -2   -1    0    0    0  501 -0.00000000000E+00  0.00000000000E+00  0.80982394842E+02  0.80982394842E+02  0.00000000000E+00 0.  1.
          2   -1    0    0  501    0  0.00000000000E+00 -0.00000000000E+00 -0.12397870657E+04  0.12397870657E+04  0.00000000000E+00 0. -1.
         25    2    1    2    0    0  0.24393931691E+02  0.29642644962E+03 -0.60349773437E+03  0.68433878166E+03  0.12508536584E+03 0.  0.
          5    1    3    3  502    0  0.34143994118E+02  0.12015411747E+02 -0.92675072617E+02  0.99580740800E+02  0.41800000000E+01 0. -1.
         -5    1    3    3    0  502 -0.97500624269E+01  0.28441103787E+03 -0.51082266176E+03  0.58475804086E+03  0.41800000000E+01 0. -1.
        -11    1    1    2    0    0  0.30407978512E+01 -0.11625156505E+03 -0.30800358124E+03  0.32922618195E+03  0.00000000000E+00 0. -1.
         11    1    1    2    0    0 -0.27434729542E+02 -0.18017488457E+03 -0.24730335522E+03  0.30720449690E+03  0.00000000000E+00 0.  1.
</event>
<event>
 7    1  0.2666594E-009  0.9160736E+02  0.7561462E-02  0.1299005E+00
          2   -1    0    0  501    0  0.00000000000E+00  0.00000000000E+00  0.24180732073E+03  0.24180732073E+03  0.00000000000E+00 0. -1.
         -2   -1    0    0    0  501 -0.00000000000E+00 -0.00000000000E+00 -0.64571964899E+02  0.64571964899E+02  0.00000000000E+00 0.  1.
         25    2    1    2    0    0 -0.18854280479E+02  0.48499829203E+02  0.54346175536E+02  0.14597645375E+03  0.12509157017E+03 0.  0.
          5    1    3    3  502    0 -0.43222192911E+02  0.43989605802E+02 -0.21992086044E+02  0.65607679636E+02  0.41800000000E+01 0.  1.
         -5    1    3    3    0  502  0.24367912431E+02  0.45102234013E+01  0.76338261580E+02  0.80368774113E+02  0.41800000000E+01 0.  1.
        -11    1    1    2    0    0  0.17311805320E+02 -0.71323903177E+02  0.64561762197E+02  0.97749777012E+02  0.00000000000E+00 0.  1.
         11    1    1    2    0    0  0.15424751593E+01  0.22824073974E+02  0.58327418096E+02  0.62653054867E+02  0.00000000000E+00 0. -1.
</event>
<event>
 7    1  0.2666594E-009  0.1457061E+03  0.7561462E-02  0.1205851E+00
         -2   -1    0    0    0  501 -0.00000000000E+00  0.00000000000E+00  0.29055550450E+03  0.29055550450E+03  0.00000000000E+00 0.  1.
          2   -1    0    0  501    0  0.00000000000E+00 -0.00000000000E+00 -0.91244319626E+02  0.91244319626E+02  0.00000000000E+00 0. -1.
         25    2    1    2    0    0  0.27500025204E+00 -0.10795645534E+03  0.17408585015E+03  0.24001744847E+03  0.12509124858E+03 0.  0.
          5    1    3    3  502    0  0.51735408131E+02 -0.99195720745E+02  0.10651318784E+03  0.15452791027E+03  0.41800000000E+01 0. -1.
         -5    1    3    3    0  502 -0.51460407879E+02 -0.87607345934E+01  0.67572662303E+02  0.85489538193E+02  0.41800000000E+01 0. -1.
        -11    1    1    2    0    0 -0.24382111785E+02  0.98034002975E+02  0.43456182548E+02  0.10997087303E+03  0.00000000000E+00 0.  1.
         11    1    1    2    0    0  0.24107111533E+02  0.99224523629E+01 -0.18230847817E+02  0.31811502628E+02  0.00000000000E+00 0. -1.
</event>
<event>
 7    1  0.2666594E-009  0.9237604E+02  0.7561462E-02  0.1297198E+00
         -1   -1    0    0    0  501 -0.00000000000E+00  0.00000000000E+00  0.14740679400E+03  0.14740679400E+03  0.00000000000E+00 0.  1.
          1   -1    0    0  501    0  0.00000000000E+00 -0.00000000000E+00 -0.13756418485E+03  0.13756418485E+03  0.00000000000E+00 0. -1.
         25    2    1    2    0    0 -0.37964880917E+02  0.60291991040E+02 -0.55325009994E+02  0.15421925481E+03  0.12508503290E+03 0.  0.
          5    1    3    3  502    0 -0.17147395656E+02  0.16375079769E+02  0.40258186628E+02  0.46908105971E+02  0.41800000000E+01 0.  1.
         -5    1    3    3    0  502 -0.20817485261E+02  0.43916911271E+02 -0.95583196622E+02  0.10731114884E+03  0.41800000000E+01 0.  1.
        -11    1    1    2    0    0 -0.27997984469E+02 -0.22140758916E+02  0.30853625857E+02  0.47180997958E+02  0.00000000000E+00 0.  1.
         11    1    1    2    0    0  0.65962865386E+02 -0.38151232123E+02  0.34313993294E+02  0.83570726085E+02  0.00000000000E+00 0. -1.
</event>
<event>
 7    1  0.2666594E-009  0.5902451E+02  0.7561462E-02  0.1401972E+00
          1   -1    0    0  501    0  0.00000000000E+00  0.00000000000E+00  0.82772971760E+03  0.82772971760E+03  0.00000000000E+00 0. -1.
         -1   -1    0    0    0  501 -0.00000000000E+00 -0.00000000000E+00 -0.15345352709E+02  0.15345352709E+02  0.00000000000E+00 0.  1.
         25    2    1    2    0    0 -0.41568023108E+01 -0.99376776873E+01  0.58275619980E+03  0.59612750696E+03  0.12508868736E+03 0.  0.
          5    1    3    3  502    0 -0.11995554608E+02  0.15064186513E+01 -0.39333942083E+00  0.12798036701E+02  0.41800000000E+01 0. -1.
         -5    1    3    3    0  502  0.78387522969E+01 -0.11444096339E+02  0.58314953922E+03  0.58332947026E+03  0.41800000000E+01 0. -1.
        -11    1    1    2    0    0  0.27979567917E+01  0.50303330269E+02  0.12221933625E+03  0.13219614121E+03  0.00000000000E+00 0. -1.
         11    1    1    2    0    0  0.13588455191E+01 -0.40365652581E+02  0.10740882885E+03  0.11475142214E+03  0.00000000000E+00 0.  1.
</event>
<event>
 7    1  0.2666594E-009  0.4267137E+03  0.7561462E-02  0.1034903E+00
          1   -1    0    0  501    0  0.00000000000E+00  0.00000000000E+00  0.54268031455E+03  0.54268031455E+03  0.00000000000E+00 0. -1.
         -1   -1    0    0    0  501 -0.00000000000E+00 -0.00000000000E+00 -0.39249035432E+03  0.39249035432E+03  0.00000000000E+00 0.  1.
         25    2    1    2    0    0  0.40945053319E+03  0.96514505736E+02 -0.81418210759E+02  0.44636480821E+03  0.12509127875E+03 0.  0.
          5    1    3    3  502    0  0.18266910300E+02 -0.10336634774E+02 -0.31053345400E+02  0.37713508069E+02  0.41800000000E+01 0. -1.
         -5    1    3    3    0  502  0.39118362289E+03  0.10685114051E+03 -0.50364865360E+02  0.40865130015E+03  0.41800000000E+01 0. -1.
        -11    1    1    2    0    0 -0.29022346763E+03 -0.10068037226E+03  0.13612425377E+03  0.33600001635E+03  0.00000000000E+00 0.  1.
         11    1    1    2    0    0 -0.11922706556E+03  0.41658665271E+01  0.95483917219E+02  0.15280584431E+03  0.00000000000E+00 0. -1.
</event>
<event>
 7    1  0.2666594E-009  0.1268310E+03  0.7561462E-02  0.1232235E+00
          1   -1    0    0  501    0  0.00000000000E+00  0.00000000000E+00  0.11022500759E+03  0.11022500759E+03  0.00000000000E+00 0. -1.
         -1   -1    0    0    0  501 -0.00000000000E+00 -0.00000000000E+00 -0.14967201217E+03  0.14967201217E+03  0.00000000000E+00 0.  1.
         25    2    1    2    0    0  0.24685300449E+01 -0.68065867320E+02 -0.26169291142E+02  0.14481579403E+03  0.12509087283E+03 0.  0.
          5    1    3    3  502    0  0.63021099998E+02 -0.26412701542E+02 -0.17735209069E+02  0.70719869121E+02  0.41800000000E+01 0. -1.
         -5    1    3    3    0  502 -0.60552569953E+02 -0.41653165777E+02 -0.84340820726E+01  0.74095924906E+02  0.41800000000E+01 0. -1.
        -11    1    1    2    0    0  0.29773799019E+02 -0.63889641385E+01 -0.14959322584E+02  0.33927559638E+02  0.00000000000E+00 0.  1.
         11    1    1    2    0    0 -0.32242329064E+02  0.74454831458E+02  0.16816091421E+01  0.81153666093E+02  0.00000000000E+00 0. -1.
</event>
<event>
 7    1  0.2666594E-009  0.1927892E+03  0.7561462E-02  0.1155969E+00
         -1   -1    0    0    0  501 -0.00000000000E+00  0.00000000000E+00  0.23599670851E+03  0.23599670851E+03  0.00000000000E+00 0.  1.
          1   -1    0    0  501    0  0.00000000000E+00 -0.00000000000E+00 -0.19175335077E+03  0.19175335077E+03  0.00000000000E+00 0. -1.
         25    2    1    2    0    0 -0.16633787459E+03 -0.45153373283E+02 -0.41040250517E+02  0.21688382597E+03  0.12508867320E+03 0.  0.
          5    1    3    3  502    0 -0.64124666689E+02  0.40327929195E+02 -0.34687384221E+02  0.83420631592E+02  0.41800000000E+01 0.  1.
         -5    1    3    3    0  502 -0.10221320790E+03 -0.85481302478E+02 -0.63528662958E+01  0.13346319438E+03  0.41800000000E+01 0.  1.
        -11    1    1    2    0    0  0.70435151806E+02  0.85623990437E-01 -0.64246324259E+01  0.70727603121E+02  0.00000000000E+00 0. -1.
         11    1    1    2    0    0  0.95902722784E+02  0.45067749293E+02  0.91708240687E+02  0.14013863020E+03  0.00000000000E+00 0.  1.
</event>
<event>
 7    1  0.2666594E-009  0.1002331E+03  0.7561462E-02  0.1279807E+00
          1   -1    0    0  501    0  0.00000000000E+00  0.00000000000E+00  0.16351618003E+03  0.16351618003E+03  0.00000000000E+00 0. -1.
         -1   -1    0    0    0  501 -0.00000000000E+00 -0.00000000000E+00 -0.78899651178E+02  0.78899651178E+02  0.00000000000E+00 0.  1.
         25    2    1    2    0    0  0.51467518892E+01 -0.25793075508E+02  0.82448686346E+02  0.15210938981E+03  0.12509080217E+03 0.  0.
          5    1    3    3  502    0  0.17440234352E+02 -0.65964707423E+02  0.85865131190E+02  0.10975334871E+03  0.41800000000E+01 0.  1.
         -5    1    3    3    0  502 -0.12293482462E+02  0.40171631914E+02 -0.34164448432E+01  0.42356041093E+02  0.41800000000E+01 0.  1.
        -11    1    1    2    0    0  0.40467254866E+02  0.10990568123E+02  0.52031453926E+01  0.42254751521E+02  0.00000000000E+00 0.  1.
         11    1    1    2    0    0 -0.45614006756E+02  0.14802507385E+02 -0.30353028829E+01  0.48051689885E+02  0.00000000000E+00 0. -1.
</event>
<event>
 7    1  0.2666594E-009  0.2549662E+03  0.7561462E-02  0.1110206E+00
          1   -1    0    0  501    0  0.00000000000E+00  0.00000000000E+00  0.69098868452E+03  0.69098868452E+03  0.00000000000E+00 0. -1.
         -1   -1    0    0    0  501 -0.00000000000E+00 -0.00000000000E+00 -0.10346127208E+03  0.10346127208E+03  0.00000000000E+00 0.  1.
         25    2    1    2    0    0 -0.11202462855E+03  0.20301990381E+03  0.18807676004E+03  0.32370878535E+03  0.12509161165E+03 0.  0.
          5    1    3    3  502    0 -0.47917687657E+02 -0.16839599373E+00  0.19144365992E+02  0.51769801012E+02  0.41800000000E+01 0. -1.
         -5    1    3    3    0  502 -0.64106940888E+02  0.20318829980E+03  0.16893239405E+03  0.27193898434E+03  0.41800000000E+01 0. -1.
        -11    1    1    2    0    0  0.74476882181E+02 -0.19712150381E+03  0.32915923333E+03  0.39083179774E+03  0.00000000000E+00 0. -1.
         11    1    1    2    0    0  0.37547746364E+02 -0.58984000027E+01  0.70291419069E+02  0.79909373507E+02  0.00000000000E+00 0.  1.
</event>
<event>
 7    1  0.5033916E-009  0.1282495E+03  0.7561462E-02  0.1230077E+00
          1   -1    0    0  501    0  0.00000000000E+00  0.00000000000E+00  0.11356941488E+04  0.11356941488E+04  0.00000000000E+00 0. -1.
         -1   -1    0    0    0  501 -0.00000000000E+00 -0.00000000000E+00 -0.30009609799E+02  0.30009609799E+02  0.00000000000E+00 0.  1.
         25    2    1    2    0    0 -0.98534781116E+02  0.65450954676E+02  0.86854387323E+03  0.88544348892E+03  0.12509509100E+03 0.  0.
          5    1    3    3  502    0 -0.29501252397E+02  0.51696256249E+02  0.12443880508E+03  0.13800476590E+03  0.41800000000E+01 0.  1.
         -5    1    3    3    0  502 -0.69033528719E+02  0.13754698427E+02  0.74410506815E+03  0.74743872301E+03  0.41800000000E+01 0.  1.
        -11    1    1    2    0    0  0.39032373551E+02 -0.52501233479E+02  0.46857746645E+02  0.80470827773E+02  0.00000000000E+00 0. -1.
         11    1    1    2    0    0  0.59502407565E+02 -0.12949721196E+02  0.19028291914E+03  0.19978944191E+03  0.00000000000E+00 0.  1.
</event>
<event>
 7    1  0.2666594E-009  0.1163936E+03  0.7561462E-02  0.1249168E+00
          2   -1    0    0  501    0  0.00000000000E+00  0.00000000000E+00  0.47287117348E+03  0.47287117348E+03  0.00000000000E+00 0. -1.
         -2   -1    0    0    0  501 -0.00000000000E+00 -0.00000000000E+00 -0.34789899917E+02  0.34789899917E+02  0.00000000000E+00 0.  1.
         25    2    1    2    0    0 -0.52515790151E+02  0.36680982575E+02  0.21323543261E+03  0.25538441891E+03  0.12509376086E+03 0.  0.
          5    1    3    3  502    0 -0.49853378094E+02 -0.34130288832E+02  0.54391574096E+02  0.81401177238E+02  0.41800000000E+01 0.  1.
         -5    1    3    3    0  502 -0.26624120571E+01  0.70811271407E+02  0.15884385852E+03  0.17398324168E+03  0.41800000000E+01 0.  1.
        -11    1    1    2    0    0  0.13782685163E+02  0.24918473107E+02  0.19748637672E+02  0.34654024329E+02  0.00000000000E+00 0.  1.
         11    1    1    2    0    0  0.38733104988E+02 -0.61599455682E+02  0.20509720328E+03  0.21762263016E+03  0.00000000000E+00 0. -1.
</event>
<event>
 7    1  0.2666594E-009  0.1220535E+03  0.7561462E-02  0.1239747E+00
         -2   -1    0    0    0  501 -0.00000000000E+00  0.00000000000E+00  0.10150340395E+04  0.10150340395E+04  0.00000000000E+00 0.  1.
          2   -1    0    0  501    0  0.00000000000E+00 -0.00000000000E+00 -0.25980330955E+02  0.25980330955E+02  0.00000000000E+00 0. -1.
         25    2    1    2    0    0 -0.51216008844E+02 -0.78128216291E+02  0.77564041221E+03  0.79119715614E+03  0.12509113915E+03 0.  0.
          5    1    3    3  502    0 -0.89829242726E+02 -0.53439035589E+02  0.43178256032E+03  0.44427319880E+03  0.41800000000E+01 0.  1.
         -5    1    3    3    0  502  0.38613233882E+02 -0.24689180702E+02  0.34385785188E+03  0.34692395734E+03  0.41800000000E+01 0.  1.
        -11    1    1    2    0    0  0.16493406186E+02  0.28066051305E+02  0.53161690410E+01  0.32984804634E+02  0.00000000000E+00 0. -1.
         11    1    1    2    0    0  0.34722602659E+02  0.50062164986E+02  0.20809712730E+03  0.21683240968E+03  0.00000000000E+00 0.  1.
</event>
<event>
 7    1  0.2666594E-009  0.1339335E+03  0.7561462E-02  0.1221733E+00
          2   -1    0    0  501    0  0.00000000000E+00  0.00000000000E+00  0.94424266783E+03  0.94424266783E+03  0.00000000000E+00 0. -1.
         -2   -1    0    0    0  501 -0.00000000000E+00 -0.00000000000E+00 -0.20489181582E+02  0.20489181582E+02  0.00000000000E+00 0.  1.
         25    2    1    2    0    0 -0.10575428402E+02  0.85626433752E+02  0.45716274517E+03  0.48175600597E+03  0.12508935955E+03 0.  0.
          5    1    3    3  502    0  0.51463150363E+02  0.47793825451E+02  0.14430188841E+03  0.16054037809E+03  0.41800000000E+01 0.  1.
         -5    1    3    3    0  502 -0.62038578764E+02  0.37832608300E+02  0.31286085676E+03  0.32121562789E+03  0.41800000000E+01 0.  1.
        -11    1    1    2    0    0  0.14728831334E+02  0.16727003580E+02  0.81108174384E+02  0.84114606776E+02  0.00000000000E+00 0. -1.
         11    1    1    2    0    0 -0.41534029324E+01 -0.10235343733E+03  0.38548256669E+03  0.39886123666E+03  0.00000000000E+00 0.  1.
</event>
<event>
 7    1  0.2666594E-009  0.8260089E+02  0.7561462E-02  0.1321828E+00
         -4   -1    0    0    0  501 -0.00000000000E+00  0.00000000000E+00  0.94739370597E+02  0.94739370597E+02  0.00000000000E+00 0.  1.
          4   -1    0    0  501    0  0.00000000000E+00 -0.00000000000E+00 -0.13635330480E+03  0.13635330480E+03  0.00000000000E+00 0. -1.
         25    2    1    2    0    0 -0.36106450607E+01  0.17170028680E+02 -0.18432779548E+02  0.12764295750E+03  0.12508041651E+03 0.  0.
          5    1    3    3  502    0  0.32451354238E+02 -0.14015325015E+02 -0.56304591219E+02  0.66612304565E+02  0.41800000000E+01 0. -1.
         -5    1    3    3    0  502 -0.36061999298E+02  0.31185353695E+02  0.37871811671E+02  0.61030652935E+02  0.41800000000E+01 0. -1.
        -11    1    1    2    0    0  0.33438109023E+02 -0.33844006910E+02  0.17163961147E+02  0.50577915151E+02  0.00000000000E+00 0. -1.
         11    1    1    2    0    0 -0.29827463962E+02  0.16673978230E+02 -0.40345115798E+02  0.52871802742E+02  0.00000000000E+00 0.  1.
</event>
<event>
 7    1  0.2666594E-009  0.1926065E+03  0.7561462E-02  0.1156131E+00
          1   -1    0    0  501    0  0.00000000000E+00  0.00000000000E+00  0.12740350232E+04  0.12740350232E+04  0.00000000000E+00 0. -1.
         -1   -1    0    0    0  501 -0.00000000000E+00 -0.00000000000E+00 -0.30302847681E+02  0.30302847681E+02  0.00000000000E+00 0.  1.
         25    2    1    2    0    0  0.51404536833E+02  0.15509870612E+03  0.67380009577E+03  0.70452086237E+03  0.12508013993E+03 0.  0.
          5    1    3    3  502    0  0.78577248447E+02  0.15479212422E+03  0.62313038923E+03  0.64687242952E+03  0.41800000000E+01 0. -1.
         -5    1    3    3    0  502 -0.27172711614E+02  0.30658190562E+00  0.50669706543E+02  0.57648432850E+02  0.41800000000E+01 0. -1.
        -11    1    1    2    0    0  0.20645287597E+02 -0.12047983868E+02  0.44492891059E+02  0.50507416981E+02  0.00000000000E+00 0.  1.
         11    1    1    2    0    0 -0.72049824430E+02 -0.14305072226E+03  0.52543918873E+03  0.54930959158E+03  0.00000000000E+00 0. -1.
</event>
<event>
 7    1  0.2666594E-009  0.1189868E+03  0.7561462E-02  0.1244778E+00
         -1   -1    0    0    0  501 -0.00000000000E+00  0.00000000000E+00  0.23979403980E+03  0.23979403980E+03  0.00000000000E+00 0. -1.
          1   -1    0    0  501    0  0.00000000000E+00 -0.00000000000E+00 -0.84425759869E+02  0.84425759869E+02  0.00000000000E+00 0.  1.
         25    2    1    2    0    0 -0.92676128367E+01  0.91855039182E+02  0.86022706686E+02  0.17767866636E+03  0.12508623243E+03 0.  0.
          5    1    3    3  502    0 -0.37549981151E+02  0.46860522313E+02 -0.16247232828E+02  0.62348653638E+02  0.41800000000E+01 0.  1.
         -5    1    3    3    0  502  0.28282368314E+02  0.44994516869E+02  0.10226993951E+03  0.11533001272E+03  0.41800000000E+01 0.  1.
        -11    1    1    2    0    0 -0.47911087580E+01 -0.10506770918E+03  0.71424635709E+02  0.12713637096E+03  0.00000000000E+00 0. -1.
         11    1    1    2    0    0  0.14058721595E+02  0.13212669995E+02 -0.20790624611E+01  0.19404762353E+02  0.00000000000E+00 0.  1.
</event>
<event>
 7    1  0.2666594E-009  0.9747172E+02  0.7561462E-02  0.1285704E+00
         -4   -1    0    0    0  501 -0.00000000000E+00  0.00000000000E+00  0.36873769368E+02  0.36873769368E+02  0.00000000000E+00 0. -1.
          4   -1    0    0  501    0  0.00000000000E+00 -0.00000000000E+00 -0.33594370443E+03  0.33594370443E+03  0.00000000000E+00 0.  1.
         25    2    1    2    0    0  0.36766753950E+01  0.22914262480E+02 -0.16768601965E+03  0.21048149703E+03  0.12508108586E+03 0.  0.
          5    1    3    3  502    0  0.12409940046E+00 -0.44969609045E+02 -0.11750537693E+03  0.12588592910E+03  0.41800000000E+01 0.  1.
         -5    1    3    3    0  502  0.35525759945E+01  0.67883871525E+02 -0.50180642720E+02  0.84595567929E+02  0.41800000000E+01 0.  1.
        -11    1    1    2    0    0  0.14643232603E+02  0.25779850650E+02 -0.93197100429E+02  0.97799409451E+02  0.00000000000E+00 0.  1.
         11    1    1    2    0    0 -0.18319907998E+02 -0.48694113130E+02 -0.38186814987E+02  0.64536567320E+02  0.00000000000E+00 0. -1.
</event>
<event>
 7    1  0.2666594E-009  0.9347897E+02  0.7561462E-02  0.1294639E+00
          2   -1    0    0  501    0  0.00000000000E+00  0.00000000000E+00  0.21557587456E+03  0.21557587456E+03  0.00000000000E+00 0. -1.
         -2   -1    0    0    0  501 -0.00000000000E+00 -0.00000000000E+00 -0.89789743714E+02  0.89789743714E+02  0.00000000000E+00 0.  1.
         25    2    1    2    0    0  0.59143515275E+02 -0.34790403229E+02  0.12699951599E+03  0.19100863715E+03  0.12508834817E+03 0.  0.
          5    1    3    3  502    0 -0.13382204230E+02  0.17040567497E+02  0.92884065104E+02  0.95469294964E+02  0.41800000000E+01 0. -1.
         -5    1    3    3    0  502  0.72525719506E+02 -0.51830970726E+02  0.34115450885E+02  0.95539342186E+02  0.41800000000E+01 0. -1.
        -11    1    1    2    0    0 -0.31894886792E+02  0.56114636231E+00  0.42081350655E+02  0.52805669787E+02  0.00000000000E+00 0. -1.
         11    1    1    2    0    0 -0.27248628483E+02  0.34229256867E+02 -0.43294735797E+02  0.61551311339E+02  0.00000000000E+00 0.  1.
</event>
<event>
 7    1  0.2666594E-009  0.1161136E+03  0.7561462E-02  0.1249650E+00
          1   -1    0    0  501    0  0.00000000000E+00  0.00000000000E+00  0.10282731552E+04  0.10282731552E+04  0.00000000000E+00 0. -1.
         -1   -1    0    0    0  501 -0.00000000000E+00 -0.00000000000E+00 -0.15460581199E+02  0.15460581199E+02  0.00000000000E+00 0.  1.
         25    2    1    2    0    0  0.94974298650E+01  0.59467946457E+02  0.46850677030E+03  0.48864344527E+03  0.12508870838E+03 0.  0.
          5    1    3    3  502    0 -0.11322659947E+02  0.87774914609E+02  0.21292343963E+03  0.23062198899E+03  0.41800000000E+01 0.  1.
         -5    1    3    3    0  502  0.20820089812E+02 -0.28306968152E+02  0.25558333067E+03  0.25802145628E+03  0.41800000000E+01 0.  1.
        -11    1    1    2    0    0  0.14808861214E+02  0.20142900828E+02  0.10191780066E+03  0.10493939640E+03  0.00000000000E+00 0.  1.
         11    1    1    2    0    0 -0.24306291079E+02 -0.79610847286E+02  0.44238800306E+03  0.45015089475E+03  0.00000000000E+00 0. -1.
</event>
<event>
 7    1  0.2666594E-009  0.9660390E+02  0.7561462E-02  0.1287604E+00
          1   -1    0    0  501    0  0.00000000000E+00  0.00000000000E+00  0.22758184440E+03  0.22758184440E+03  0.00000000000E+00 0. -1.
         -1   -1    0    0    0  501 -0.00000000000E+00 -0.00000000000E+00 -0.12389446065E+03  0.12389446065E+03  0.00000000000E+00 0.  1.
         25    2    1    2    0    0  0.44403879186E+02 -0.23806075080E+02 -0.73469013362E+02  0.15356912464E+03  0.12508935374E+03 0.  0.
          5    1    3    3  502    0  0.73369882662E+02 -0.39808094827E+02 -0.84093970429E+02  0.11856260944E+03  0.41800000000E+01 0.  1.
         -5    1    3    3    0  502 -0.28966003476E+02  0.16002019747E+02  0.10624957067E+02  0.35006515194E+02  0.41800000000E+01 0.  1.
        -11    1    1    2    0    0 -0.22809777086E+02 -0.18108810074E+02  0.24256648522E+02  0.37902505596E+02  0.00000000000E+00 0.  1.
         11    1    1    2    0    0 -0.21594102100E+02  0.41914885154E+02  0.15289974859E+03  0.16000467481E+03  0.00000000000E+00 0. -1.
</event>
<event>
 7    1  0.2666594E-009  0.2111328E+03  0.7561462E-02  0.1140672E+00
          1   -1    0    0  501    0  0.00000000000E+00  0.00000000000E+00  0.60975702954E+03  0.60975702954E+03  0.00000000000E+00 0. -1.
         -1   -1    0    0    0  501 -0.00000000000E+00 -0.00000000000E+00 -0.99888133116E+02  0.99888133116E+02  0.00000000000E+00 0.  1.
         25    2    1    2    0    0 -0.18728128423E+03 -0.27506103339E+01  0.43227777736E+03  0.48743488404E+03  0.12508734589E+03 0.  0.
          5    1    3    3  502    0 -0.12912166310E+03  0.46962076324E+02  0.34453241728E+03  0.37094190846E+03  0.41800000000E+01 0. -1.
         -5    1    3    3    0  502 -0.58159621132E+02 -0.49712686658E+02  0.87745360080E+02  0.11649297558E+03  0.41800000000E+01 0. -1.
        -11    1    1    2    0    0  0.87509114882E+02 -0.44057438120E+02  0.34263490676E+02  0.10379253265E+03  0.00000000000E+00 0. -1.
         11    1    1    2    0    0  0.99772169350E+02  0.46808048454E+02  0.43327628391E+02  0.11841774596E+03  0.00000000000E+00 0.  1.
</event>
<event>
 7    1  0.2666594E-009  0.1266722E+03  0.7561462E-02  0.1232479E+00
         -2   -1    0    0    0  501 -0.00000000000E+00  0.00000000000E+00  0.85721729132E+02  0.85721729132E+02  0.00000000000E+00 0.  1.
          2   -1    0    0  501    0  0.00000000000E+00 -0.00000000000E+00 -0.22110099886E+03  0.22110099886E+03  0.00000000000E+00 0. -1.
         25    2    1    2    0    0 -0.54340129850E+02  0.61249696318E+02 -0.50221969491E+02  0.15771492951E+03  0.12508947902E+03 0.  0.
          5    1    3    3  502    0  0.29042941679E+02  0.50510421985E+02 -0.44334578259E+02  0.73333637711E+02  0.41800000000E+01 0. -1.
         -5    1    3    3    0  502 -0.83383071529E+02  0.10739274333E+02 -0.58873912316E+01  0.84381291803E+02  0.41800000000E+01 0. -1.
        -11    1    1    2    0    0 -0.18902330308E+02 -0.15007047275E+02  0.43799821236E+01  0.24529447658E+02  0.00000000000E+00 0.  1.
         11    1    1    2    0    0  0.73242460158E+02 -0.46242649043E+02 -0.89537282358E+02  0.12457835082E+03  0.00000000000E+00 0. -1.
</event>
<event>
 7    1  0.2666594E-009  0.1417278E+03  0.7561462E-02  0.1211023E+00
          2   -1    0    0  501    0  0.00000000000E+00  0.00000000000E+00  0.64600819284E+03  0.64600819284E+03  0.00000000000E+00 0. -1.
         -2   -1    0    0    0  501 -0.00000000000E+00 -0.00000000000E+00 -0.47134536352E+02  0.47134536352E+02  0.00000000000E+00 0.  1.
         25    2    1    2    0    0 -0.11955983218E+03 -0.36610048326E+02  0.43023219323E+03  0.46517200971E+03  0.12510159637E+03 0.  0.
          5    1    3    3  502    0 -0.24525179859E+02 -0.25073181608E+02  0.13905934110E+02  0.37960456880E+02  0.41800000000E+01 0.  1.
         -5    1    3    3    0  502 -0.95034652321E+02 -0.11536866718E+02  0.41632625912E+03  0.42721155283E+03  0.41800000000E+01 0.  1.
        -11    1    1    2    0    0  0.29378593431E+02 -0.28616793208E+02  0.57999327427E+02  0.71034812504E+02  0.00000000000E+00 0. -1.
         11    1    1    2    0    0  0.90181238748E+02  0.65226841534E+02  0.11064213583E+03  0.15693590698E+03  0.00000000000E+00 0.  1.
</event>
<event>
 7    1  0.2666594E-009  0.6476585E+02  0.7561462E-02  0.1378854E+00
         -1   -1    0    0    0  501 -0.00000000000E+00  0.00000000000E+00  0.88411182967E+02  0.88411182967E+02  0.00000000000E+00 0.  1.
          1   -1    0    0  501    0  0.00000000000E+00 -0.00000000000E+00 -0.19365348728E+03  0.19365348728E+03  0.00000000000E+00 0. -1.
         25    2    1    2    0    0  0.37202007502E+02 -0.58546897485E+01 -0.12385808711E+03  0.18001771761E+03  0.12508911287E+03 0.  0.
          5    1    3    3  502    0  0.19342709850E+01  0.99088085802E+01 -0.13817636034E+03  0.13860773733E+03  0.41800000000E+01 0.  1.
         -5    1    3    3    0  502  0.35267736517E+02 -0.15763498329E+02  0.14318273229E+02  0.41409980280E+02  0.41800000000E+01 0.  1.
        -11    1    1    2    0    0  0.14849785999E+01 -0.28181651527E+02  0.37705013428E+02  0.47096482691E+02  0.00000000000E+00 0.  1.
         11    1    1    2    0    0 -0.38686986101E+02  0.34036341275E+02 -0.19089230631E+02  0.54950469944E+02  0.00000000000E+00 0. -1.
</event>
<event>
 7    1  0.2666594E-009  0.6677690E+02  0.7561462E-02  0.1371409E+00
          2   -1    0    0  501    0  0.00000000000E+00  0.00000000000E+00  0.31094942606E+03  0.31094942606E+03  0.00000000000E+00 0. -1.
         -2   -1    0    0    0  501 -0.00000000000E+00 -0.00000000000E+00 -0.66926805400E+02  0.66926805400E+02  0.00000000000E+00 0.  1.
         25    2    1    2    0    0 -0.28124013395E+02 -0.54322305839E+02  0.23034474732E+03  0.26916226467E+03  0.12509096316E+03 0.  0.
          5    1    3    3  502    0 -0.16907570581E+02 -0.18169828102E+02  0.22969940004E+03  0.23107422049E+03  0.41800000000E+01 0. -1.
         -5    1    3    3    0  502 -0.11216442814E+02 -0.36152477737E+02  0.64534727340E+00  0.38088044175E+02  0.41800000000E+01 0. -1.
        -11    1    1    2    0    0  0.21012376196E+02  0.65589329947E+01  0.45731943921E+02  0.50753820056E+02  0.00000000000E+00 0. -1.
         11    1    1    2    0    0  0.71116371992E+01  0.47763372845E+02 -0.32054070578E+02  0.57960146737E+02  0.00000000000E+00 0.  1.
</event>
<event>
 7    1  0.2666594E-009  0.8776070E+02  0.7561462E-02  0.1308367E+00
          2   -1    0    0  501    0  0.00000000000E+00  0.00000000000E+00  0.72519664336E+03  0.72519664336E+03  0.00000000000E+00 0. -1.
         -2   -1    0    0    0  501 -0.00000000000E+00 -0.00000000000E+00 -0.20032629174E+02  0.20032629174E+02  0.00000000000E+00 0.  1.
         25    2    1    2    0    0  0.51687723987E+02 -0.74169093740E+01  0.37600059064E+03  0.39968822921E+03  0.12509038753E+03 0.  0.
          5    1    3    3  502    0  0.11690970306E+02  0.26830159130E+02  0.12050838249E+02  0.31925402552E+02  0.41800000000E+01 0.  1.
         -5    1    3    3    0  502  0.39996753681E+02 -0.34247068504E+02  0.36394975239E+03  0.36776282666E+03  0.41800000000E+01 0.  1.
        -11    1    1    2    0    0 -0.71404837597E+02 -0.16744184775E+01  0.30412638668E+03  0.31240088602E+03  0.00000000000E+00 0. -1.
         11    1    1    2    0    0  0.19717113610E+02  0.90913278515E+01  0.25037036861E+02  0.33140157302E+02  0.00000000000E+00 0.  1.
</event>
<event>
 7    1  0.2666594E-009  0.1240672E+03  0.7561462E-02  0.1236534E+00
          2   -1    0    0  501    0  0.00000000000E+00  0.00000000000E+00  0.90428531672E+03  0.90428531672E+03  0.00000000000E+00 0. -1.
         -2   -1    0    0    0  501 -0.00000000000E+00 -0.00000000000E+00 -0.19196332917E+02  0.19196332917E+02  0.00000000000E+00 0.  1.
         25    2    1    2    0    0  0.73156430959E+02  0.28029570360E+01  0.55072711447E+03  0.56947957822E+03  0.12508763103E+03 0.  0.
          5    1    3    3  502    0  0.10093050118E+03 -0.12208144757E+02  0.30107430956E+03  0.31780373998E+03  0.41800000000E+01 0.  1.
         -5    1    3    3    0  502 -0.27774070225E+02  0.15011101793E+02  0.24965280492E+03  0.25167583825E+03  0.41800000000E+01 0.  1.
        -11    1    1    2    0    0  0.10651798919E+02  0.24236267851E+02  0.54090720953E+02  0.60221786695E+02  0.00000000000E+00 0. -1.
         11    1    1    2    0    0 -0.83808229878E+02 -0.27039224887E+02  0.28027114837E+03  0.29378028472E+03  0.00000000000E+00 0.  1.
</event>
<event>
 7    1  0.2666594E-009  0.1375946E+03  0.7561462E-02  0.1216603E+00
         -1   -1    0    0    0  501 -0.00000000000E+00  0.00000000000E+00  0.29941870983E+02  0.29941870983E+02  0.00000000000E+00 0.  1.
          1   -1    0    0  501    0  0.00000000000E+00 -0.00000000000E+00 -0.67463655948E+03  0.67463655948E+03  0.00000000000E+00 0. -1.
         25    2    1    2    0    0 -0.28393910982E+02 -0.86770002833E+02 -0.34708143003E+03  0.38006354373E+03  0.12509009006E+03 0.  0.
          5    1    3    3  502    0 -0.45806182600E+02 -0.10986506667E+03 -0.31449056420E+03  0.33628905216E+03  0.41800000000E+01 0.  1.
         -5    1    3    3    0  502  0.17412271618E+02  0.23095063833E+02 -0.32590865832E+02  0.43774491568E+02  0.41800000000E+01 0.  1.
        -11    1    1    2    0    0 -0.57170600149E+01  0.92150331475E+02 -0.18554793302E+03  0.20724961716E+03  0.00000000000E+00 0.  1.
         11    1    1    2    0    0  0.34110970997E+02 -0.53803286421E+01 -0.11206532545E+03  0.11726526957E+03  0.00000000000E+00 0. -1.
</event>
<event>
 7    1  0.2666594E-009  0.7696785E+02  0.7561462E-02  0.1337883E+00
         -1   -1    0    0    0  501 -0.00000000000E+00  0.00000000000E+00  0.34233342273E+03  0.34233342273E+03  0.00000000000E+00 0.  1.
          1   -1    0    0  501    0  0.00000000000E+00 -0.00000000000E+00 -0.44406839526E+02  0.44406839526E+02  0.00000000000E+00 0. -1.
         25    2    1    2    0    0  0.41420468764E+01  0.17129588388E+02  0.25741285917E+03  0.28674026321E+03  0.12509204264E+03 0.  0.
          5    1    3    3  502    0  0.44894726450E+01  0.39396231178E+02  0.13973424172E+02  0.42248637596E+02  0.41800000000E+01 0. -1.
         -5    1    3    3    0  502 -0.34742576860E+00 -0.22266642789E+02  0.24343943500E+03  0.24449162562E+03  0.41800000000E+01 0. -1.
        -11    1    1    2    0    0  0.38432307101E+02 -0.27899225911E+02  0.20028861240E+02  0.51541869564E+02  0.00000000000E+00 0.  1.
         11    1    1    2    0    0 -0.42574353977E+02  0.10769637523E+02  0.20484862798E+02  0.48458129481E+02  0.00000000000E+00 0. -1.
</event>
<event>
 7    1  0.2666594E-009  0.1872050E+03  0.7561462E-02  0.1161007E+00
          2   -1    0    0  501    0  0.00000000000E+00  0.00000000000E+00  0.13862928823E+04  0.13862928823E+04  0.00000000000E+00 0. -1.
         -2   -1    0    0    0  501 -0.00000000000E+00 -0.00000000000E+00 -0.29108205221E+02  0.29108205221E+02  0.00000000000E+00 0.  1.
         25    2    1    2    0    0  0.56572685711E+02 -0.15657476342E+03  0.78578327538E+03  0.81290728410E+03  0.12508705515E+03 0.  0.
          5    1    3    3  502    0  0.56978509823E+00  0.21137231554E+02  0.95913226137E+02  0.98305272294E+02  0.41800000000E+01 0.  1.
         -5    1    3    3    0  502  0.56002900613E+02 -0.17771199497E+03  0.68987004924E+03  0.71460201181E+03  0.41800000000E+01 0.  1.
        -11    1    1    2    0    0 -0.35926501122E+02  0.99446342081E+02  0.48795202693E+03  0.49927694621E+03  0.00000000000E+00 0. -1.
         11    1    1    2    0    0 -0.20646184590E+02  0.57128421335E+02  0.83449374771E+02  0.10321685721E+03  0.00000000000E+00 0.  1.
</event>
<event>
 7    1  0.2666594E-009  0.1224738E+03  0.7561462E-02  0.1239071E+00
          1   -1    0    0  501    0  0.00000000000E+00  0.00000000000E+00  0.12741831402E+03  0.12741831402E+03  0.00000000000E+00 0. -1.
         -1   -1    0    0    0  501 -0.00000000000E+00 -0.00000000000E+00 -0.14363572582E+03  0.14363572582E+03  0.00000000000E+00 0.  1.
         25    2    1    2    0    0 -0.22558947988E+02 -0.75666441407E+02 -0.10797791664E+02  0.14831992560E+03  0.12509153263E+03 0.  0.
          5    1    3    3  502    0 -0.42239261461E+02 -0.10419310826E+03 -0.29754058588E+01  0.11254636581E+03  0.41800000000E+01 0. -1.
         -5    1    3    3    0  502  0.19680313473E+02  0.28526666853E+02 -0.78223858050E+01  0.35773559786E+02  0.41800000000E+01 0. -1.
        -11    1    1    2    0    0 -0.14597346133E+02  0.16203748688E+01 -0.32426490444E+02  0.35597547828E+02  0.00000000000E+00 0.  1.
         11    1    1    2    0    0  0.37156294121E+02  0.74046066538E+02  0.27006870306E+02  0.87136566413E+02  0.00000000000E+00 0. -1.
</event>
<event>
 7    1  0.2666594E-009  0.1636278E+03  0.7561462E-02  0.1184661E+00
         -1   -1    0    0    0  501 -0.00000000000E+00  0.00000000000E+00  0.42840896867E+02  0.42840896867E+02  0.00000000000E+00 0.  1.
          1   -1    0    0  501    0  0.00000000000E+00 -0.00000000000E+00 -0.86614255450E+03  0.86614255450E+03  0.00000000000E+00 0. -1.
         25    2    1    2    0    0 -0.12132063841E+03 -0.82843383717E+02 -0.29269126932E+03  0.35056685138E+03  0.12508882690E+03 0.  0.
          5    1    3    3  502    0 -0.12562734698E+03 -0.55676568895E+02 -0.29199155290E+03  0.32273619257E+03  0.41800000000E+01 0. -1.
         -5    1    3    3    0  502  0.43067085699E+01 -0.27166814822E+02 -0.69971642688E+00  0.27830658802E+02  0.41800000000E+01 0. -1.
        -11    1    1    2    0    0  0.33561395613E+02  0.63900225532E+02 -0.34192959691E+03  0.34946452659E+03  0.00000000000E+00 0. -1.
         11    1    1    2    0    0  0.87759242796E+02  0.18943158186E+02 -0.18868079140E+03  0.20895207341E+03  0.00000000000E+00 0.  1.
</event>
<event>
 7    1  0.2666594E-009  0.1376659E+03  0.7561462E-02  0.1216505E+00
          1   -1    0    0  501    0  0.00000000000E+00  0.00000000000E+00  0.26422621366E+02  0.26422621366E+02  0.00000000000E+00 0. -1.
         -1   -1    0    0    0  501 -0.00000000000E+00 -0.00000000000E+00 -0.77621309536E+03  0.77621309536E+03  0.00000000000E+00 0.  1.
         25    2    1    2    0    0  0.64523115677E+02  0.49111626703E+02 -0.47763769845E+03  0.50036030505E+03  0.12508988591E+03 0.  0.
          5    1    3    3  502    0  0.13565334429E+02 -0.39488053246E+02 -0.87602417213E+02  0.97133828036E+02  0.41800000000E+01 0.  1.
         -5    1    3    3    0  502  0.50957781248E+02  0.88599679949E+02 -0.39003528123E+03  0.40322647701E+03  0.41800000000E+01 0.  1.
        -11    1    1    2    0    0 -0.78368642576E+02  0.17249740603E+01 -0.15010133137E+03  0.16933702889E+03  0.00000000000E+00 0.  1.
         11    1    1    2    0    0  0.13845526899E+02 -0.50836600763E+02 -0.12205144419E+03  0.13293838279E+03  0.00000000000E+00 0. -1.
</event>
<event>
 7    1  0.2666594E-009  0.2742495E+03  0.7561462E-02  0.1098872E+00
         -2   -1    0    0    0  501 -0.00000000000E+00  0.00000000000E+00  0.72773406712E+02  0.72773406712E+02  0.00000000000E+00 0. -1.
          2   -1    0    0  501    0  0.00000000000E+00 -0.00000000000E+00 -0.11822059985E+04  0.11822059985E+04  0.00000000000E+00 0.  1.
         25    2    1    2    0    0 -0.16868466308E+03 -0.20083505202E+03 -0.71975478255E+03  0.77619973768E+03  0.12509936889E+03 0.  0.
          5    1    3    3  502    0 -0.24677045371E+02 -0.89776124465E+02 -0.13686000834E+03  0.16558032303E+03  0.41800000000E+01 0. -1.
         -5    1    3    3    0  502 -0.14400761770E+03 -0.11105892755E+03 -0.58289477421E+03  0.61061941465E+03  0.41800000000E+01 0. -1.
        -11    1    1    2    0    0  0.54622307385E+02  0.12502360927E+03 -0.15028456733E+03  0.20297770941E+03  0.00000000000E+00 0.  1.
         11    1    1    2    0    0  0.11406235569E+03  0.75811442746E+02 -0.23939324196E+03  0.27580195817E+03  0.00000000000E+00 0. -1.
</event>
<event>
 7    1  0.2666594E-009  0.1483464E+03  0.7561462E-02  0.1202520E+00
         -2   -1    0    0    0  501 -0.00000000000E+00  0.00000000000E+00  0.13391676705E+03  0.13391676705E+03  0.00000000000E+00 0.  1.
          2   -1    0    0  501    0  0.00000000000E+00 -0.00000000000E+00 -0.17747489300E+03  0.17747489300E+03  0.00000000000E+00 0. -1.
         25    2    1    2    0    0 -0.93498712302E+01 -0.10709139818E+03 -0.42020648235E+02  0.17020395305E+03  0.12509061956E+03 0.  0.
          5    1    3    3  502    0  0.13123892047E+02 -0.12962532190E+03 -0.45151038981E+02  0.13795306934E+03  0.41800000000E+01 0. -1.
         -5    1    3    3    0  502 -0.22473763277E+02  0.22533923719E+02  0.31303907459E+01  0.32250883713E+02  0.41800000000E+01 0. -1.
        -11    1    1    2    0    0 -0.23168076772E+02  0.90540950516E+00  0.16797229008E+02  0.28630865339E+02  0.00000000000E+00 0. -1.
         11    1    1    2    0    0  0.32517948002E+02  0.10618598867E+03 -0.18334706725E+02  0.11255684166E+03  0.00000000000E+00 0.  1.
</event>
<event>
 7    1  0.2666594E-009  0.9654469E+02  0.7561462E-02  0.1287734E+00
         -2   -1    0    0    0  501 -0.00000000000E+00  0.00000000000E+00  0.43871294590E+02  0.43871294590E+02  0.00000000000E+00 0.  1.
          2   -1    0    0  501    0  0.00000000000E+00 -0.00000000000E+00 -0.40478044151E+03  0.40478044151E+03  0.00000000000E+00 0. -1.
         25    2    1    2    0    0  0.17581802462E+02  0.74613658854E+02 -0.12511873166E+03  0.19280904890E+03  0.12507723398E+03 0.  0.
          5    1    3    3  502    0 -0.28295102219E+02  0.25317733258E+02 -0.11909449626E+03  0.12507026772E+03  0.41800000000E+01 0.  1.
         -5    1    3    3    0  502  0.45876904681E+02  0.49295925597E+02 -0.60242353933E+01  0.67738781179E+02  0.41800000000E+01 0.  1.
        -11    1    1    2    0    0  0.12267332856E+02 -0.39364341690E+02 -0.52139490830E+02  0.66472290137E+02  0.00000000000E+00 0.  1.
         11    1    1    2    0    0 -0.29849135318E+02 -0.35249317165E+02 -0.18365092443E+03  0.18937039706E+03  0.00000000000E+00 0. -1.
</event>
<event>
 7    1  0.2666594E-009  0.9745095E+02  0.7561462E-02  0.1285749E+00
          1   -1    0    0  501    0  0.00000000000E+00  0.00000000000E+00  0.28334142792E+03  0.28334142792E+03  0.00000000000E+00 0. -1.
         -1   -1    0    0    0  501 -0.00000000000E+00 -0.00000000000E+00 -0.60866508634E+02  0.60866508634E+02  0.00000000000E+00 0.  1.
         25    2    1    2    0    0 -0.12075921790E+02  0.31722544314E+02  0.22282797950E+03  0.25778437829E+03  0.12509328335E+03 0.  0.
          5    1    3    3  502    0 -0.52619663652E+01 -0.48373567276E+02  0.75986743828E+02  0.90328001963E+02  0.41800000000E+01 0. -1.
         -5    1    3    3    0  502 -0.68139554245E+01  0.80096111590E+02  0.14684123567E+03  0.16745637633E+03  0.41800000000E+01 0. -1.
        -11    1    1    2    0    0  0.30352039617E+02 -0.16720757092E+01 -0.28275618274E+02  0.41515692634E+02  0.00000000000E+00 0.  1.
         11    1    1    2    0    0 -0.18276117828E+02 -0.30050468605E+02  0.27922558057E+02  0.44907865621E+02  0.00000000000E+00 0. -1.
</event>
<event>
 7    1  0.2666594E-009  0.1160458E+03  0.7561462E-02  0.1249767E+00
         -2   -1    0    0    0  501 -0.00000000000E+00  0.00000000000E+00  0.42549697794E+02  0.42549697794E+02  0.00000000000E+00 0.  1.
          2   -1    0    0  501    0  0.00000000000E+00 -0.00000000000E+00 -0.63766921139E+03  0.63766921139E+03  0.00000000000E+00 0. -1.
         25    2    1    2    0    0  0.78255613504E+02  0.68709801792E+02 -0.45895732269E+03  0.48696456725E+03  0.12509071828E+03 0.  0.
          5    1    3    3  502    0  0.17805359915E+02  0.54047763175E+02 -0.38939683237E+03  0.39355502411E+03  0.41800000000E+01 0.  1.
         -5    1    3    3    0  502  0.60450253588E+02  0.14662038617E+02 -0.69560490320E+02  0.93409543136E+02  0.41800000000E+01 0.  1.
        -11    1    1    2    0    0 -0.41330670167E+02 -0.87102357913E+01 -0.11046113687E+03  0.11826138534E+03  0.00000000000E+00 0. -1.
         11    1    1    2    0    0 -0.36924943337E+02 -0.59999566001E+02 -0.25701054043E+02  0.74992956600E+02  0.00000000000E+00 0.  1.
</event>
<event>
 7    1  0.2666594E-009  0.1027140E+03  0.7561462E-02  0.1274690E+00
         -2   -1    0    0    0  501 -0.00000000000E+00  0.00000000000E+00  0.35786288203E+02  0.35786288203E+02  0.00000000000E+00 0.  1.
          2   -1    0    0  501    0  0.00000000000E+00 -0.00000000000E+00 -0.48453197913E+03  0.48453197913E+03  0.00000000000E+00 0. -1.
         25    2    1    2    0    0 -0.16512960593E+02  0.71745407405E+02 -0.24618500615E+03  0.28578774666E+03  0.12508995777E+03 0.  0.
          5    1    3    3  502    0  0.34939377634E+02  0.43525199322E+02 -0.20859208188E+03  0.21597067418E+03  0.41800000000E+01 0.  1.
         -5    1    3    3    0  502 -0.51452338227E+02  0.28220208083E+02 -0.37592924278E+02  0.69817072476E+02  0.41800000000E+01 0.  1.
        -11    1    1    2    0    0 -0.10871436512E+02 -0.59747125856E+02 -0.19421787945E+03  0.20349076607E+03  0.00000000000E+00 0. -1.
         11    1    1    2    0    0  0.27384397105E+02 -0.11998281549E+02 -0.83428053223E+01  0.31039754599E+02  0.00000000000E+00 0.  1.
</event>
<event>
 7    1  0.2666594E-009  0.1471088E+03  0.7561462E-02  0.1204071E+00
         -1   -1    0    0    0  501 -0.00000000000E+00  0.00000000000E+00  0.74930013568E+03  0.74930013568E+03  0.00000000000E+00 0.  1.
          1   -1    0    0  501    0  0.00000000000E+00 -0.00000000000E+00 -0.39593452395E+02  0.39593452395E+02  0.00000000000E+00 0. -1.
         25    2    1    2    0    0 -0.89400065731E+02  0.99010630005E+02  0.40338782634E+03  0.44290525514E+03  0.12509136655E+03 0.  0.
          5    1    3    3  502    0 -0.10290487078E+02  0.61561088494E+02  0.30415706477E+03  0.31052319429E+03  0.41800000000E+01 0.  1.
         -5    1    3    3    0  502 -0.79109578652E+02  0.37449541512E+02  0.99230761565E+02  0.13238206085E+03  0.41800000000E+01 0.  1.
        -11    1    1    2    0    0  0.72858422232E+02 -0.40763894521E+02  0.96474396671E+02  0.12758273394E+03  0.00000000000E+00 0. -1.
         11    1    1    2    0    0  0.16541643499E+02 -0.58246735484E+02  0.20984446027E+03  0.21840559899E+03  0.00000000000E+00 0.  1.
</event>
<event>
 7    1  0.2666594E-009  0.9162607E+02  0.7561462E-02  0.1298961E+00
          1   -1    0    0  501    0  0.00000000000E+00  0.00000000000E+00  0.19262409967E+03  0.19262409967E+03  0.00000000000E+00 0. -1.
         -1   -1    0    0    0  501 -0.00000000000E+00 -0.00000000000E+00 -0.77812979796E+02  0.77812979796E+02  0.00000000000E+00 0.  1.
         25    2    1    2    0    0 -0.17871016209E+02  0.16545440722E+02  0.68125546805E+01  0.12763806685E+03  0.12510771511E+03 0.  0.
          5    1    3    3  502    0 -0.58793737647E+02  0.25062363252E+02 -0.30965208693E+02  0.71141704982E+02  0.41800000000E+01 0.  1.
         -5    1    3    3    0  502  0.40922721438E+02 -0.85169225302E+01  0.37777763374E+02  0.56496361873E+02  0.41800000000E+01 0.  1.
        -11    1    1    2    0    0  0.44240636131E+02 -0.23261664815E+02  0.25873166145E+02  0.56282854064E+02  0.00000000000E+00 0. -1.
         11    1    1    2    0    0 -0.26369619922E+02  0.67162240936E+01  0.82125399047E+02  0.86516158546E+02  0.00000000000E+00 0.  1.
</event>
<event>
 7    1  0.2666594E-009  0.1008323E+03  0.7561462E-02  0.1278556E+00
          1   -1    0    0  501    0  0.00000000000E+00  0.00000000000E+00  0.25520845175E+03  0.25520845175E+03  0.00000000000E+00 0. -1.
         -1   -1    0    0    0  501 -0.00000000000E+00 -0.00000000000E+00 -0.54761229171E+02  0.54761229171E+02  0.00000000000E+00 0.  1.
         25    2    1    2    0    0 -0.18515000281E+01  0.37266488564E+02  0.15276758713E+03  0.20093958155E+03  0.12508621241E+03 0.  0.
          5    1    3    3  502    0 -0.42499858568E+02  0.45018477939E+02  0.14621242618E+03  0.15883465398E+03  0.41800000000E+01 0.  1.
         -5    1    3    3    0  502  0.40648358540E+02 -0.77519893741E+01  0.65551609536E+01  0.42104927578E+02  0.41800000000E+01 0.  1.
        -11    1    1    2    0    0 -0.40373632892E+02  0.19138774425E+01  0.18324526819E+02  0.44378840035E+02  0.00000000000E+00 0.  1.
         11    1    1    2    0    0  0.42225132920E+02 -0.39180366007E+02  0.29355108622E+02  0.64651259328E+02  0.00000000000E+00 0. -1.
</event>
<event>
 7    1  0.2666594E-009  0.1284887E+03  0.7561462E-02  0.1229716E+00
         -1   -1    0    0    0  501 -0.00000000000E+00  0.00000000000E+00  0.15916213212E+03  0.15916213212E+03  0.00000000000E+00 0.  1.
          1   -1    0    0  501    0  0.00000000000E+00 -0.00000000000E+00 -0.12549458624E+03  0.12549458624E+03  0.00000000000E+00 0. -1.
         25    2    1    2    0    0  0.19373832979E+02 -0.89526524628E+02  0.22027902487E+02  0.15659881082E+03  0.12509042748E+03 0.  0.
          5    1    3    3  502    0 -0.37586593301E+02 -0.10432522484E+02 -0.26791604447E+02  0.47506336316E+02  0.41800000000E+01 0.  1.
         -5    1    3    3    0  502  0.56960426280E+02 -0.79094002144E+02  0.48819506934E+02  0.10909247451E+03  0.41800000000E+01 0.  1.
        -11    1    1    2    0    0  0.11648465657E+02  0.88379440468E+02 -0.10740123224E+02  0.89788431863E+02  0.00000000000E+00 0. -1.
         11    1    1    2    0    0 -0.31022298636E+02  0.11470841603E+01  0.22379766617E+02  0.38269475676E+02  0.00000000000E+00 0.  1.
</event>
<event>
 7    1  0.2666594E-009  0.1387095E+03  0.7561462E-02  0.1215076E+00
         -1   -1    0    0    0  501 -0.00000000000E+00  0.00000000000E+00  0.17411744155E+03  0.17411744155E+03  0.00000000000E+00 0.  1.
          1   -1    0    0  501    0  0.00000000000E+00 -0.00000000000E+00 -0.14734236308E+03  0.14734236308E+03  0.00000000000E+00 0. -1.
         25    2    1    2    0    0 -0.91665984875E+01 -0.88797765792E+02  0.72934184396E+02  0.17010701031E+03  0.12509168624E+03 0.  0.
          5    1    3    3  502    0  0.38078948662E+02 -0.18481259330E+01 -0.11412135837E+02  0.40014136815E+02  0.41800000000E+01 0. -1.
         -5    1    3    3    0  502 -0.47245547150E+02 -0.86949639859E+02  0.84346320233E+02  0.13009287349E+03  0.41800000000E+01 0. -1.
        -11    1    1    2    0    0  0.51224410928E+02  0.83045162093E+02 -0.15054597957E+02  0.98727301906E+02  0.00000000000E+00 0.  1.
         11    1    1    2    0    0 -0.42057812441E+02  0.57526036992E+01 -0.31104507967E+02  0.52625492420E+02  0.00000000000E+00 0. -1.
</event>
<event>
 7    1  0.2666594E-009  0.7432229E+02  0.7561462E-02  0.1345983E+00
         -2   -1    0    0    0  501 -0.00000000000E+00  0.00000000000E+00  0.57805620911E+02  0.57805620911E+02  0.00000000000E+00 0.  1.
          2   -1    0    0  501    0  0.00000000000E+00 -0.00000000000E+00 -0.23137070927E+03  0.23137070927E+03  0.00000000000E+00 0. -1.
         25    2    1    2    0    0  0.86085416073E+01 -0.39405778397E+02 -0.98020567825E+02  0.16395913082E+03  0.12509053722E+03 0.  0.
          5    1    3    3  502    0  0.18764017228E+02 -0.11067366039E+02 -0.12277422107E+03  0.12476200020E+03  0.41800000000E+01 0. -1.
         -5    1    3    3    0  502 -0.10155475620E+02 -0.28338412357E+02  0.24753653247E+02  0.39197130623E+02  0.41800000000E+01 0. -1.
        -11    1    1    2    0    0  0.38651843651E+02  0.84210834226E+01 -0.48442778430E+02  0.62542645016E+02  0.00000000000E+00 0.  1.
         11    1    1    2    0    0 -0.47260385258E+02  0.30984694974E+02 -0.27101742107E+02  0.62674554347E+02  0.00000000000E+00 0. -1.
</event>
<event>
 7    1  0.2666594E-009  0.1829632E+03  0.7561462E-02  0.1164966E+00
          4   -1    0    0  501    0  0.00000000000E+00  0.00000000000E+00  0.45029424599E+02  0.45029424599E+02  0.00000000000E+00 0. -1.
         -4   -1    0    0    0  501 -0.00000000000E+00 -0.00000000000E+00 -0.96747815771E+03  0.96747815771E+03  0.00000000000E+00 0.  1.
         25    2    1    2    0    0  0.15656139628E+03 -0.51569344819E+02 -0.64192812982E+03  0.67445552694E+03  0.12509063045E+03 0.  0.
          5    1    3    3  502    0  0.78237145752E+02 -0.70102255491E+02 -0.20748963928E+03  0.23260438519E+03  0.41800000000E+01 0. -1.
         -5    1    3    3    0  502  0.78324250528E+02  0.18532910671E+02 -0.43443849054E+03  0.44185114175E+03  0.41800000000E+01 0. -1.
        -11    1    1    2    0    0 -0.42950872602E+02  0.50881028504E+02 -0.15529719819E+03  0.16897004553E+03  0.00000000000E+00 0.  1.
         11    1    1    2    0    0 -0.11361052368E+03  0.68831631553E+00 -0.12522340510E+03  0.16908200985E+03  0.00000000000E+00 0. -1.
</event>
<event>
 7    1  0.2666594E-009  0.1146630E+03  0.7561462E-02  0.1252170E+00
          3   -1    0    0  501    0  0.00000000000E+00  0.00000000000E+00  0.77066930616E+02  0.77066930616E+02  0.00000000000E+00 0. -1.
         -3   -1    0    0    0  501 -0.00000000000E+00 -0.00000000000E+00 -0.21440983486E+03  0.21440983486E+03  0.00000000000E+00 0.  1.
         25    2    1    2    0    0  0.25632033667E+02  0.61773013692E+02 -0.49464476573E+02  0.15022217307E+03  0.12508821075E+03 0.  0.
          5    1    3    3  502    0  0.70732328319E+02  0.65104425061E+02 -0.37343756382E+02  0.10321665066E+03  0.41800000000E+01 0. -1.
         -5    1    3    3    0  502 -0.45100294652E+02 -0.33314113684E+01 -0.12120720191E+02  0.47005522414E+02  0.41800000000E+01 0. -1.
        -11    1    1    2    0    0 -0.41822981345E+02 -0.28286633697E+02 -0.54017226945E+01  0.50778676850E+02  0.00000000000E+00 0. -1.
         11    1    1    2    0    0  0.16190947678E+02 -0.33486379995E+02 -0.82476704981E+02  0.90475915560E+02  0.00000000000E+00 0.  1.
</event>
<event>
 7    1  0.2666594E-009  0.1063044E+03  0.7561462E-02  0.1267571E+00
          2   -1    0    0  501    0  0.00000000000E+00  0.00000000000E+00  0.84805114910E+03  0.84805114910E+03  0.00000000000E+00 0.  1.
         -2   -1    0    0    0  501 -0.00000000000E+00 -0.00000000000E+00 -0.14380436054E+02  0.14380436054E+02  0.00000000000E+00 0. -1.
         25    2    1    2    0    0 -0.30376686828E+02  0.16723673676E+02  0.40831167629E+03  0.42844568132E+03  0.12507938473E+03 0.  0.
          5    1    3    3  502    0 -0.50726400766E+02 -0.41700928002E+02  0.17268407236E+03  0.18479555292E+03  0.41800000000E+01 0.  1.
         -5    1    3    3    0  502  0.20349713938E+02  0.58424601678E+02  0.23562760392E+03  0.24365012840E+03  0.41800000000E+01 0.  1.
        -11    1    1    2    0    0  0.17056872702E+02  0.30929575340E+02  0.14117232267E+03  0.14552388198E+03  0.00000000000E+00 0.  1.
         11    1    1    2    0    0  0.13319814126E+02 -0.47653249016E+02  0.28418671408E+03  0.28846202185E+03  0.00000000000E+00 0. -1.
</event>
<event>
 7    1  0.2666594E-009  0.3739757E+03  0.7561462E-02  0.1053183E+00
          1   -1    0    0  501    0  0.00000000000E+00  0.00000000000E+00  0.10783890987E+04  0.10783890987E+04  0.00000000000E+00 0. -1.
         -1   -1    0    0    0  501 -0.00000000000E+00 -0.00000000000E+00 -0.13382656216E+03  0.13382656216E+03  0.00000000000E+00 0.  1.
         25    2    1    2    0    0  0.31556472349E+03  0.17033166514E+03  0.57732237549E+03  0.69104446933E+03  0.12508941801E+03 0.  0.
          5    1    3    3  502    0  0.52434268221E+02  0.90686977668E+02  0.15840984743E+03  0.18995955508E+03  0.41800000000E+01 0.  1.
         -5    1    3    3    0  502  0.26313045527E+03  0.79644687471E+02  0.41891252805E+03  0.50108491425E+03  0.41800000000E+01 0.  1.
        -11    1    1    2    0    0 -0.49047369519E+02 -0.65362315435E+02  0.10283667205E+03  0.13135165722E+03  0.00000000000E+00 0.  1.
         11    1    1    2    0    0 -0.26651735397E+03 -0.10496934970E+03  0.26440348905E+03  0.38981953435E+03  0.00000000000E+00 0. -1.
</event>
<event>
 7    1  0.2666594E-009  0.2477316E+03  0.7561462E-02  0.1114747E+00
         -2   -1    0    0    0  501 -0.00000000000E+00  0.00000000000E+00  0.65048668091E+02  0.65048668091E+02  0.00000000000E+00 0.  1.
          2   -1    0    0  501    0  0.00000000000E+00 -0.00000000000E+00 -0.11186302371E+04  0.11186302371E+04  0.00000000000E+00 0. -1.
         25    2    1    2    0    0 -0.12309518838E+03  0.19425070850E+03 -0.34510122090E+03  0.43316276298E+03  0.12509741567E+03 0.  0.
          5    1    3    3  502    0 -0.13901174279E+03  0.11416584834E+03 -0.23163315202E+03  0.29330785035E+03  0.41800000000E+01 0. -1.
         -5    1    3    3    0  502  0.15916554408E+02  0.80084860159E+02 -0.11346806888E+03  0.13985491263E+03  0.41800000000E+01 0. -1.
        -11    1    1    2    0    0  0.10593681692E+03 -0.13228468663E+03 -0.38413339201E+03  0.41985748814E+03  0.00000000000E+00 0.  1.
         11    1    1    2    0    0  0.17158371459E+02 -0.61966021869E+02 -0.32434695605E+03  0.33065865402E+03  0.00000000000E+00 0. -1.
</event>
<event>
 7    1  0.2666594E-009  0.1138550E+03  0.7561462E-02  0.1253593E+00
          1   -1    0    0  501    0  0.00000000000E+00  0.00000000000E+00  0.17211239382E+03  0.17211239382E+03  0.00000000000E+00 0. -1.
         -1   -1    0    0    0  501 -0.00000000000E+00 -0.00000000000E+00 -0.21296943278E+03  0.21296943278E+03  0.00000000000E+00 0.  1.
         25    2    1    2    0    0  0.48215081024E+00 -0.65667945995E+02  0.12261922924E+03  0.18707175752E+03  0.12509138852E+03 0.  0.
          5    1    3    3  502    0  0.57170921222E+02 -0.40936195305E+02  0.32217758019E+02  0.77458005727E+02  0.41800000000E+01 0.  1.
         -5    1    3    3    0  502 -0.56688770412E+02 -0.24731750690E+02  0.90401471226E+02  0.10961375180E+03  0.41800000000E+01 0.  1.
        -11    1    1    2    0    0  0.15231966945E+02  0.75315919659E+02 -0.16225459985E+03  0.17953009705E+03  0.00000000000E+00 0.  1.
         11    1    1    2    0    0 -0.15714117755E+02 -0.96479736634E+01 -0.12216683443E+01  0.18479972028E+02  0.00000000000E+00 0. -1.
</event>
<event>
 7    1  0.2666594E-009  0.8805534E+02  0.7561462E-02  0.1307630E+00
          2   -1    0    0  501    0  0.00000000000E+00  0.00000000000E+00  0.23181717955E+03  0.23181717955E+03  0.00000000000E+00 0.  1.
         -2   -1    0    0    0  501 -0.00000000000E+00 -0.00000000000E+00 -0.61683048830E+02  0.61683048830E+02  0.00000000000E+00 0. -1.
         25    2    1    2    0    0  0.70460812628E+01  0.46943161530E+02  0.92530479091E+02  0.16267042813E+03  0.12508585432E+03 0.  0.
          5    1    3    3  502    0  0.58763404383E+02  0.18735656318E+02  0.81982742099E+02  0.10267816182E+03  0.41800000000E+01 0. -1.
         -5    1    3    3    0  502 -0.51717323120E+02  0.28207505212E+02  0.10547736993E+02  0.59992266307E+02  0.41800000000E+01 0. -1.
        -11    1    1    2    0    0 -0.16461548249E+02 -0.16259157047E+02  0.92568604372E+02  0.95416399398E+02  0.00000000000E+00 0.  1.
         11    1    1    2    0    0  0.94154669862E+01 -0.30684004483E+02 -0.14964952743E+02  0.35413400857E+02  0.00000000000E+00 0. -1.
</event>
<event>
 7    1  0.2666594E-009  0.1292612E+03  0.7561462E-02  0.1228556E+00
          1   -1    0    0  501    0  0.00000000000E+00  0.00000000000E+00  0.75250033404E+03  0.75250033404E+03  0.00000000000E+00 0. -1.
         -1   -1    0    0    0  501 -0.00000000000E+00 -0.00000000000E+00 -0.31300002366E+02  0.31300002366E+02  0.00000000000E+00 0.  1.
         25    2    1    2    0    0  0.48936043000E+02 -0.47751733360E+02  0.17757209043E+03  0.22771416139E+03  0.12508767987E+03 0.  0.
          5    1    3    3  502    0 -0.12464325117E+02  0.36040516205E+02  0.42291532288E+02  0.57099249664E+02  0.41800000000E+01 0. -1.
         -5    1    3    3    0  502  0.61400368117E+02 -0.83792249565E+02  0.13528055814E+03  0.17061491173E+03  0.41800000000E+01 0. -1.
        -11    1    1    2    0    0  0.27105644403E+01 -0.26009003085E+02  0.96437498923E+02  0.99920000998E+02  0.00000000000E+00 0.  1.
         11    1    1    2    0    0 -0.51646607440E+02  0.73760736444E+02  0.44719074232E+03  0.45616617402E+03  0.00000000000E+00 0. -1.
</event>
<event>
 7    1  0.2666594E-009  0.1064623E+03  0.7561462E-02  0.1267265E+00
          2   -1    0    0  501    0  0.00000000000E+00  0.00000000000E+00  0.30270323121E+03  0.30270323121E+03  0.00000000000E+00 0. -1.
         -2   -1    0    0    0  501 -0.00000000000E+00 -0.00000000000E+00 -0.55590097478E+02  0.55590097478E+02  0.00000000000E+00 0.  1.
         25    2    1    2    0    0  0.41513953902E+02  0.54137511609E+02  0.11380188376E+03  0.18235357984E+03  0.12509069031E+03 0.  0.
          5    1    3    3  502    0  0.81648013625E+02  0.97632439466E+01  0.61399897047E+02  0.10270900067E+03  0.41800000000E+01 0.  1.
         -5    1    3    3    0  502 -0.40134059723E+02  0.44374267662E+02  0.52401986709E+02  0.79644579172E+02  0.41800000000E+01 0.  1.
        -11    1    1    2    0    0 -0.19056095294E+02 -0.39352308496E+02  0.14128385604E+03  0.14789478331E+03  0.00000000000E+00 0. -1.
         11    1    1    2    0    0 -0.22457858609E+02 -0.14785203113E+02 -0.79726060680E+01  0.28044965536E+02  0.00000000000E+00 0.  1.
</event>
<event>
 7    1  0.2666594E-009  0.9750325E+02  0.7561462E-02  0.1285636E+00
          2   -1    0    0  501    0  0.00000000000E+00  0.00000000000E+00  0.26605340044E+03  0.26605340044E+03  0.00000000000E+00 0. -1.
         -2   -1    0    0    0  501 -0.00000000000E+00 -0.00000000000E+00 -0.56976235554E+02  0.56976235554E+02  0.00000000000E+00 0.  1.
         25    2    1    2    0    0  0.43399089423E+02 -0.34772189656E+02  0.98232568693E+02  0.16849003064E+03  0.12508663693E+03 0.  0.
          5    1    3    3  502    0  0.59370249161E+02 -0.46862459169E+02  0.11788019734E+03  0.14012183945E+03  0.41800000000E+01 0. -1.
         -5    1    3    3    0  502 -0.15971159738E+02  0.12090269513E+02 -0.19647628647E+02  0.28368191196E+02  0.41800000000E+01 0. -1.
        -11    1    1    2    0    0 -0.55703785895E+02  0.52940936049E+02  0.10779766185E+03  0.13238576348E+03  0.00000000000E+00 0.  1.
         11    1    1    2    0    0  0.12304696472E+02 -0.18168746394E+02  0.30469343470E+01  0.22153841872E+02  0.00000000000E+00 0. -1.
</event>
<event>
 7    1  0.2666594E-009  0.1189484E+03  0.7561462E-02  0.1244842E+00
          2   -1    0    0  501    0  0.00000000000E+00  0.00000000000E+00  0.11108608076E+03  0.11108608076E+03  0.00000000000E+00 0. -1.
         -2   -1    0    0    0  501 -0.00000000000E+00 -0.00000000000E+00 -0.14649903287E+03  0.14649903287E+03  0.00000000000E+00 0.  1.
         25    2    1    2    0    0  0.57510417568E+02 -0.37151402181E+02 -0.28262211300E+02  0.14537465141E+03  0.12508941551E+03 0.  0.
          5    1    3    3  502    0 -0.36542114581E+02  0.82947841016E+01 -0.12061110647E+02  0.39586264933E+02  0.41800000000E+01 0.  1.
         -5    1    3    3    0  502  0.94052532149E+02 -0.45446186282E+02 -0.16201100653E+02  0.10578838648E+03  0.41800000000E+01 0.  1.
        -11    1    1    2    0    0 -0.34653207560E+02  0.56115015073E+02 -0.32167121731E+02  0.73378903176E+02  0.00000000000E+00 0.  1.
         11    1    1    2    0    0 -0.22857210008E+02 -0.18963612892E+02  0.25016380927E+02  0.38831559046E+02  0.00000000000E+00 0. -1.
</event>
<event>
 7    1  0.2666594E-009  0.7743268E+02  0.7561462E-02  0.1336499E+00
         -1   -1    0    0    0  501 -0.00000000000E+00  0.00000000000E+00  0.15443318221E+03  0.15443318221E+03  0.00000000000E+00 0.  1.
          1   -1    0    0  501    0  0.00000000000E+00 -0.00000000000E+00 -0.14228964422E+03  0.14228964422E+03  0.00000000000E+00 0. -1.
         25    2    1    2    0    0  0.10100224433E+02 -0.14246366924E+02  0.10513848049E+03  0.16433649609E+03  0.12508960933E+03 0.  0.
          5    1    3    3  502    0  0.50333222909E+02 -0.37675946856E+02  0.18132065280E+02  0.65567937982E+02  0.41800000000E+01 0. -1.
         -5    1    3    3    0  502 -0.40232998476E+02  0.23429579933E+02  0.87006415212E+02  0.98768558106E+02  0.41800000000E+01 0. -1.
        -11    1    1    2    0    0  0.15266573508E+02  0.12413181446E+02  0.12868489596E+02  0.23510707449E+02  0.00000000000E+00 0.  1.
         11    1    1    2    0    0 -0.25366797940E+02  0.18331854775E+01 -0.10586343210E+03  0.10887562290E+03  0.00000000000E+00 0. -1.
</event>
<event>
 7    1  0.2666594E-009  0.1497058E+03  0.7561462E-02  0.1200835E+00
         -2   -1    0    0    0  501 -0.00000000000E+00  0.00000000000E+00  0.25525601460E+02  0.25525601460E+02  0.00000000000E+00 0.  1.
          2   -1    0    0  501    0  0.00000000000E+00 -0.00000000000E+00 -0.16857264109E+04  0.16857264109E+04  0.00000000000E+00 0. -1.
         25    2    1    2    0    0  0.99761384939E+02 -0.72545076688E+02 -0.13861986146E+04  0.13972862464E+04  0.12508850071E+03 0.  0.
          5    1    3    3  502    0  0.65401439009E+02  0.26515844815E+02 -0.54226258604E+03  0.54685155470E+03  0.41800000000E+01 0. -1.
         -5    1    3    3    0  502  0.34359945930E+02 -0.99060921503E+02 -0.84393602860E+03  0.85043469169E+03  0.41800000000E+01 0. -1.
        -11    1    1    2    0    0 -0.37387590540E+02  0.21108165760E+02 -0.19919073379E+02  0.47330287052E+02  0.00000000000E+00 0.  1.
         11    1    1    2    0    0 -0.62373794399E+02  0.51436910927E+02 -0.25408312145E+03  0.26663547896E+03  0.00000000000E+00 0. -1.
</event>
<event>
 7    1  0.2666594E-009  0.1024547E+03  0.7561462E-02  0.1275217E+00
          1   -1    0    0  501    0  0.00000000000E+00  0.00000000000E+00  0.14324190816E+03  0.14324190816E+03  0.00000000000E+00 0. -1.
         -1   -1    0    0    0  501 -0.00000000000E+00 -0.00000000000E+00 -0.11014056292E+03  0.11014056292E+03  0.00000000000E+00 0.  1.
         25    2    1    2    0    0 -0.43700466213E+02  0.31263404951E+02 -0.13979997936E+02  0.13684751156E+03  0.12507865462E+03 0.  0.
          5    1    3    3  502    0 -0.15546287693E+02  0.61537251423E+02  0.35011634569E+02  0.72607212651E+02  0.41800000000E+01 0.  1.
         -5    1    3    3    0  502 -0.28154178520E+02 -0.30273846471E+02 -0.48991632506E+02  0.64240298909E+02  0.41800000000E+01 0.  1.
        -11    1    1    2    0    0  0.22149856580E+01 -0.52909114450E+02  0.42947527724E+01  0.53129327633E+02  0.00000000000E+00 0. -1.
         11    1    1    2    0    0  0.41485480555E+02  0.21645709499E+02  0.42786590401E+02  0.63405631885E+02  0.00000000000E+00 0.  1.
</event>
<event>
 7    1  0.2666594E-009  0.9183894E+02  0.7561462E-02  0.1298459E+00
          3   -1    0    0  501    0  0.00000000000E+00  0.00000000000E+00  0.26001612570E+03  0.26001612570E+03  0.00000000000E+00 0. -1.
         -3   -1    0    0    0  501 -0.00000000000E+00 -0.00000000000E+00 -0.66677506504E+02  0.66677506504E+02  0.00000000000E+00 0.  1.
         25    2    1    2    0    0  0.57127228836E+02  0.23719121389E+02  0.12719112165E+03  0.18880940432E+03  0.12508114461E+03 0.  0.
          5    1    3    3  502    0  0.33262377053E+02  0.16815005090E+02  0.15012650123E+03  0.15474032730E+03  0.41800000000E+01 0.  1.
         -5    1    3    3    0  502  0.23864851783E+02  0.69041162988E+01 -0.22935379574E+02  0.34069077015E+02  0.41800000000E+01 0.  1.
        -11    1    1    2    0    0 -0.65741261540E+02  0.25870429592E+02  0.38329169275E+02  0.80376102253E+02  0.00000000000E+00 0.  1.
         11    1    1    2    0    0  0.86140327040E+01 -0.49589550981E+02  0.27818328266E+02  0.57508125629E+02  0.00000000000E+00 0. -1.
</event>
<event>
 7    1  0.2666594E-009  0.8480209E+02  0.7561462E-02  0.1315951E+00
         -1   -1    0    0    0  501 -0.00000000000E+00  0.00000000000E+00  0.35694329867E+03  0.35694329867E+03  0.00000000000E+00 0.  1.
          1   -1    0    0  501    0  0.00000000000E+00 -0.00000000000E+00 -0.42713579174E+02  0.42713579174E+02  0.00000000000E+00 0. -1.
         25    2    1    2    0    0 -0.55792219602E+02  0.11912713166E+02  0.19364790814E+03  0.23749178325E+03  0.12509256686E+03 0.  0.
          5    1    3    3  502    0 -0.53894895643E+02  0.38861727902E+01  0.11872617162E+02  0.55481470363E+02  0.41800000000E+01 0.  1.
         -5    1    3    3    0  502 -0.18973239588E+01  0.80265403758E+01  0.18177529098E+03  0.18201031289E+03  0.41800000000E+01 0.  1.
        -11    1    1    2    0    0  0.50252253450E+02 -0.48094254983E+02  0.93956985469E+02  0.11690278636E+03  0.00000000000E+00 0.  1.
         11    1    1    2    0    0  0.55399661517E+01  0.36181541817E+02  0.26624825890E+02  0.45262308237E+02  0.00000000000E+00 0. -1.
</event>
<event>
 7    1  0.2666594E-009  0.1319464E+03  0.7561462E-02  0.1224596E+00
         -1   -1    0    0    0  501 -0.00000000000E+00  0.00000000000E+00  0.61823573363E+02  0.61823573363E+02  0.00000000000E+00 0.  1.
          1   -1    0    0  501    0  0.00000000000E+00 -0.00000000000E+00 -0.30228254304E+03  0.30228254304E+03  0.00000000000E+00 0. -1.
         25    2    1    2    0    0  0.18285669856E+02  0.75479247909E+02 -0.93653102186E+02  0.17449370388E+03  0.12508263891E+03 0.  0.
          5    1    3    3  502    0  0.70314414631E+02  0.30008991203E+02 -0.61307164658E+02  0.98085153292E+02  0.41800000000E+01 0. -1.
         -5    1    3    3    0  502 -0.52028744775E+02  0.45470256706E+02 -0.32345937528E+02  0.76408550584E+02  0.41800000000E+01 0. -1.
        -11    1    1    2    0    0 -0.50607877560E+02 -0.68279365335E+02 -0.89479465894E+02  0.12340909131E+03  0.00000000000E+00 0. -1.
         11    1    1    2    0    0  0.32322207704E+02 -0.71998825741E+01 -0.57326401597E+02  0.66203321216E+02  0.00000000000E+00 0.  1.
</event>
<event>
 7    1  0.2666594E-009  0.7106972E+02  0.7561462E-02  0.1356493E+00
          1   -1    0    0  501    0  0.00000000000E+00  0.00000000000E+00  0.58288480012E+03  0.58288480012E+03  0.00000000000E+00 0. -1.
         -1   -1    0    0    0  501 -0.00000000000E+00 -0.00000000000E+00 -0.21907781836E+02  0.21907781836E+02  0.00000000000E+00 0.  1.
         25    2    1    2    0    0 -0.22053691277E+02 -0.12575572020E+02  0.39776106598E+03  0.41774013696E+03  0.12509374926E+03 0.  0.
          5    1    3    3  502    0  0.84965602987E+01 -0.43486678743E+02  0.35082397608E+03  0.35363571278E+03  0.41800000000E+01 0. -1.
         -5    1    3    3    0  502 -0.30550251576E+02  0.30911106723E+02  0.46937089909E+02  0.64104424179E+02  0.41800000000E+01 0. -1.
        -11    1    1    2    0    0  0.29696371366E+02  0.25377721068E+02  0.16713246209E+03  0.17163671834E+03  0.00000000000E+00 0. -1.
         11    1    1    2    0    0 -0.76426800890E+01 -0.12802149047E+02 -0.39165097951E+01  0.15415726650E+02  0.00000000000E+00 0.  1.
</event>
<event>
 7    1  0.2666594E-009  0.9490947E+02  0.7561462E-02  0.1291380E+00
         -1   -1    0    0    0  501 -0.00000000000E+00  0.00000000000E+00  0.13777300302E+02  0.13777300302E+02  0.00000000000E+00 0.  1.
          1   -1    0    0  501    0  0.00000000000E+00 -0.00000000000E+00 -0.10539946005E+04  0.10539946005E+04  0.00000000000E+00 0. -1.
         25    2    1    2    0    0 -0.10677482212E+02 -0.24756097047E+02 -0.77671519563E+03  0.78718480022E+03  0.12508613674E+03 0.  0.
          5    1    3    3  502    0  0.19959104886E+02  0.31864505469E+02 -0.92531956164E+02  0.99966733907E+02  0.41800000000E+01 0.  1.
         -5    1    3    3    0  502 -0.30636587098E+02 -0.56620602516E+02 -0.68418323947E+03  0.68721806632E+03  0.41800000000E+01 0.  1.
        -11    1    1    2    0    0  0.47251018751E+02  0.12131902016E+02 -0.85589674964E+02  0.98516162532E+02  0.00000000000E+00 0.  1.
         11    1    1    2    0    0 -0.36573536539E+02  0.12624195031E+02 -0.17791242957E+03  0.18207093802E+03  0.00000000000E+00 0. -1.
</event>
<event>
 7    1  0.2666594E-009  0.1415045E+03  0.7561462E-02  0.1211319E+00
          2   -1    0    0  501    0  0.00000000000E+00  0.00000000000E+00  0.11105052204E+04  0.11105052204E+04  0.00000000000E+00 0.  1.
         -2   -1    0    0    0  501 -0.00000000000E+00 -0.00000000000E+00 -0.19163494728E+02  0.19163494728E+02  0.00000000000E+00 0. -1.
         25    2    1    2    0    0 -0.88100154423E+02 -0.29354752914E+02  0.47725756211E+03  0.50204145482E+03  0.12508997977E+03 0.  0.
          5    1    3    3  502    0 -0.11760279290E+03 -0.36609872480E+02  0.34741550335E+03  0.36862678149E+03  0.41800000000E+01 0.  1.
         -5    1    3    3    0  502  0.29502638481E+02  0.72551195665E+01  0.12984205876E+03  0.13341467333E+03  0.41800000000E+01 0.  1.
        -11    1    1    2    0    0 -0.13535472206E+02  0.23718754725E+02  0.15570213058E+03  0.15807891005E+03  0.00000000000E+00 0.  1.
         11    1    1    2    0    0  0.10163562663E+03  0.56359981893E+01  0.45838203297E+03  0.46954835025E+03  0.00000000000E+00 0. -1.
</event>
<event>
 7    1  0.2666594E-009  0.1355967E+03  0.7561462E-02  0.1219380E+00
         -1   -1    0    0    0  501 -0.00000000000E+00  0.00000000000E+00  0.20497383104E+02  0.20497383104E+02  0.00000000000E+00 0.  1.
          1   -1    0    0  501    0  0.00000000000E+00 -0.00000000000E+00 -0.90454256313E+03  0.90454256313E+03  0.00000000000E+00 0. -1.
         25    2    1    2    0    0  0.10669387080E+02  0.80784565577E+02 -0.49783718323E+03  0.51974012689E+03  0.12509179283E+03 0.  0.
          5    1    3    3  502    0 -0.49699988375E+02  0.71767581999E+02 -0.31739051268E+03  0.32920340917E+03  0.41800000000E+01 0. -1.
         -5    1    3    3    0  502  0.60369375455E+02  0.90169835785E+01 -0.18044667055E+03  0.19053671772E+03  0.41800000000E+01 0. -1.
        -11    1    1    2    0    0 -0.43797976026E+02 -0.10686781215E+02 -0.15620617018E+03  0.16258178741E+03  0.00000000000E+00 0.  1.
         11    1    1    2    0    0  0.33128588946E+02 -0.70097784362E+02 -0.23000182662E+03  0.24271803193E+03  0.00000000000E+00 0. -1.
</event>
<event>
 7    1  0.2666594E-009  0.2380267E+03  0.7561462E-02  0.1121114E+00
         -4   -1    0    0    0  501 -0.00000000000E+00  0.00000000000E+00  0.70623444505E+03  0.70623444505E+03  0.00000000000E+00 0.  1.
          4   -1    0    0  501    0  0.00000000000E+00 -0.00000000000E+00 -0.93070274232E+02  0.93070274232E+02  0.00000000000E+00 0. -1.
         25    2    1    2    0    0  0.11167512041E+03  0.19801570628E+03  0.24529015308E+03  0.35706805251E+03  0.12509509373E+03 0.  0.
          5    1    3    3  502    0 -0.17787708719E+02  0.37889819901E+02  0.79242198277E+01  0.42805451680E+02  0.41800000000E+01 0. -1.
         -5    1    3    3    0  502  0.12946282913E+03  0.16012588637E+03  0.23736593325E+03  0.31426260083E+03  0.41800000000E+01 0. -1.
        -11    1    1    2    0    0 -0.53717667827E+02 -0.77421525722E+02  0.23711783951E+03  0.25515593329E+03  0.00000000000E+00 0.  1.
         11    1    1    2    0    0 -0.57957452584E+02 -0.12059418055E+03  0.13075617824E+03  0.18708073348E+03  0.00000000000E+00 0. -1.
</event>
<event>
 7    1  0.2666594E-009  0.1514343E+03  0.7561462E-02  0.1198721E+00
         -2   -1    0    0    0  501 -0.00000000000E+00  0.00000000000E+00  0.87257023348E+02  0.87257023348E+02  0.00000000000E+00 0.  1.
          2   -1    0    0  501    0  0.00000000000E+00 -0.00000000000E+00 -0.32091668764E+03  0.32091668764E+03  0.00000000000E+00 0. -1.
         25    2    1    2    0    0  0.11774098836E+03  0.46241281585E+02 -0.13265763116E+03  0.22191475261E+03  0.12508762472E+03 0.  0.
          5    1    3    3  502    0  0.73574346598E+02  0.88428720614E+02 -0.72231918526E+02  0.13589608368E+03  0.41800000000E+01 0.  1.
         -5    1    3    3    0  502  0.44166641763E+02 -0.42187439029E+02 -0.60425712629E+02  0.86018668922E+02  0.41800000000E+01 0.  1.
        -11    1    1    2    0    0 -0.47863513019E+02 -0.17071439778E+02  0.10096001077E+02  0.51810029650E+02  0.00000000000E+00 0.  1.
         11    1    1    2    0    0 -0.69877475342E+02 -0.29169841807E+02 -0.11109803422E+03  0.13444892874E+03  0.00000000000E+00 0. -1.
</event>
<event>
 7    1  0.2666594E-009  0.1070554E+03  0.7561462E-02  0.1266122E+00
          2   -1    0    0  501    0  0.00000000000E+00  0.00000000000E+00  0.10311938020E+03  0.10311938020E+03  0.00000000000E+00 0.  1.
         -2   -1    0    0    0  501 -0.00000000000E+00 -0.00000000000E+00 -0.19499837865E+03  0.19499837865E+03  0.00000000000E+00 0. -1.
         25    2    1    2    0    0 -0.33167749528E+02  0.71478446880E+02  0.72981964214E-01  0.14783859875E+03  0.12508788101E+03 0.  0.
          5    1    3    3  502    0 -0.82650349870E+01 -0.97617548349E+01 -0.48186258252E+02  0.50029896513E+02  0.41800000000E+01 0. -1.
         -5    1    3    3    0  502 -0.24902714541E+02  0.81240201715E+02  0.48259240216E+02  0.97808702233E+02  0.41800000000E+01 0. -1.
        -11    1    1    2    0    0  0.14745920905E+02  0.18544061141E+02 -0.59612113502E+01  0.24430727121E+02  0.00000000000E+00 0.  1.
         11    1    1    2    0    0  0.18421828623E+02 -0.90022508021E+02 -0.85990769064E+02  0.12584843298E+03  0.00000000000E+00 0. -1.
</event>
<event>
 7    1  0.2666594E-009  0.1339766E+03  0.7561462E-02  0.1221672E+00
         -4   -1    0    0    0  501 -0.00000000000E+00  0.00000000000E+00  0.36961297127E+02  0.36961297127E+02  0.00000000000E+00 0.  1.
          4   -1    0    0  501    0  0.00000000000E+00 -0.00000000000E+00 -0.66206460016E+03  0.66206460016E+03  0.00000000000E+00 0. -1.
         25    2    1    2    0    0  0.50521760825E+02 -0.96952016469E+02 -0.39303123706E+03  0.42670012698E+03  0.12508918117E+03 0.  0.
          5    1    3    3  502    0 -0.35579068011E+02 -0.15493654958E+02 -0.48071667640E+02  0.61921571800E+02  0.41800000000E+01 0.  1.
         -5    1    3    3    0  502  0.86100828835E+02 -0.81458361511E+02 -0.34495956942E+03  0.36477855518E+03  0.41800000000E+01 0.  1.
        -11    1    1    2    0    0 -0.35739385121E+02  0.81209901678E+02 -0.23437628072E+03  0.25060844508E+03  0.00000000000E+00 0. -1.
         11    1    1    2    0    0 -0.14782375704E+02  0.15742114791E+02  0.23042147464E+01  0.21717325230E+02  0.00000000000E+00 0.  1.
</event>
<event>
 7    1  0.2666594E-009  0.1395151E+03  0.7561462E-02  0.1213983E+00
         -1   -1    0    0    0  501 -0.00000000000E+00  0.00000000000E+00  0.22304430002E+03  0.22304430002E+03  0.00000000000E+00 0.  1.
          1   -1    0    0  501    0  0.00000000000E+00 -0.00000000000E+00 -0.10976889084E+03  0.10976889084E+03  0.00000000000E+00 0. -1.
         25    2    1    2    0    0  0.58056387347E+02 -0.75605051353E+02  0.12323466418E+03  0.19980040411E+03  0.12508697424E+03 0.  0.
          5    1    3    3  502    0 -0.27606517708E+02 -0.51746035900E+02  0.83956895688E+02  0.10249880382E+03  0.41800000000E+01 0.  1.
         -5    1    3    3    0  502  0.85662905055E+02 -0.23859015453E+02  0.39277768495E+02  0.97301600289E+02  0.41800000000E+01 0.  1.
        -11    1    1    2    0    0 -0.81462158452E+02  0.69348491037E+02 -0.15662153047E+02  0.10812307574E+03  0.00000000000E+00 0.  1.
         11    1    1    2    0    0  0.23405771105E+02  0.62565603159E+01  0.57028980410E+01  0.24889711008E+02  0.00000000000E+00 0. -1.
</event>
<event>
 7    1  0.2666594E-009  0.9860673E+02  0.7561462E-02  0.1283253E+00
         -1   -1    0    0    0  501 -0.00000000000E+00  0.00000000000E+00  0.24381054237E+03  0.24381054237E+03  0.00000000000E+00 0.  1.
          1   -1    0    0  501    0  0.00000000000E+00 -0.00000000000E+00 -0.51406221342E+02  0.51406221342E+02  0.00000000000E+00 0. -1.
         25    2    1    2    0    0 -0.40508890681E+01  0.11963935833E+02  0.14383346460E+03  0.19103775019E+03  0.12509121070E+03 0.  0.
          5    1    3    3  502    0 -0.53414916777E+02  0.14704665565E+02  0.12703738011E+03  0.13865550429E+03  0.41800000000E+01 0.  1.
         -5    1    3    3    0  502  0.49364027709E+02 -0.27407297320E+01  0.16796084492E+02  0.52382245899E+02  0.41800000000E+01 0.  1.
        -11    1    1    2    0    0  0.36292221534E+02 -0.36537854997E+02  0.24465154776E+02  0.57014769927E+02  0.00000000000E+00 0.  1.
         11    1    1    2    0    0 -0.32241332466E+02  0.24573919165E+02  0.24105701652E+02  0.47164243601E+02  0.00000000000E+00 0. -1.
</event>
<event>
 7    1  0.2666594E-009  0.9409379E+02  0.7561462E-02  0.1293230E+00
         -2   -1    0    0    0  501 -0.00000000000E+00  0.00000000000E+00  0.31653285265E+03  0.31653285265E+03  0.00000000000E+00 0.  1.
          2   -1    0    0  501    0  0.00000000000E+00 -0.00000000000E+00 -0.57279646442E+02  0.57279646442E+02  0.00000000000E+00 0. -1.
         25    2    1    2    0    0  0.43510857473E+01 -0.55763513002E+02  0.22144135515E+03  0.26041266258E+03  0.12509987903E+03 0.  0.
          5    1    3    3  502    0 -0.10993588150E+02  0.29408675248E+02  0.12200383180E+02  0.33941875463E+02  0.41800000000E+01 0. -1.
         -5    1    3    3    0  502  0.15344673897E+02 -0.85172188250E+02  0.20924097197E+03  0.22647078712E+03  0.41800000000E+01 0. -1.
        -11    1    1    2    0    0  0.64985666843E+01  0.58354461911E+02  0.62837851620E+02  0.86000408080E+02  0.00000000000E+00 0.  1.
         11    1    1    2    0    0 -0.10849652432E+02 -0.25909489088E+01 -0.25026000560E+02  0.27399428428E+02  0.00000000000E+00 0. -1.
</event>
<event>
 7    1  0.2666594E-009  0.1644756E+03  0.7561462E-02  0.1183735E+00
          1   -1    0    0  501    0  0.00000000000E+00  0.00000000000E+00  0.57245721195E+03  0.57245721195E+03  0.00000000000E+00 0. -1.
         -1   -1    0    0    0  501 -0.00000000000E+00 -0.00000000000E+00 -0.47589987547E+02  0.47589987547E+02  0.00000000000E+00 0.  1.
         25    2    1    2    0    0  0.29015373003E+02  0.12013752822E+03  0.29922978527E+03  0.34707332845E+03  0.12508602390E+03 0.  0.
          5    1    3    3  502    0  0.45584245899E+02 -0.78970044118E+01  0.87041812090E+02  0.98661216315E+02  0.41800000000E+01 0.  1.
         -5    1    3    3    0  502 -0.16568872896E+02  0.12803453264E+03  0.21218797318E+03  0.24841211214E+03  0.41800000000E+01 0.  1.
        -11    1    1    2    0    0 -0.45798059616E+02 -0.17024713807E+02  0.80026238189E+02  0.93763009463E+02  0.00000000000E+00 0. -1.
         11    1    1    2    0    0  0.16782686613E+02 -0.10311281442E+03  0.14561120094E+03  0.17921086158E+03  0.00000000000E+00 0.  1.
</event>
<event>
 7    1  0.2666594E-009  0.1406740E+03  0.7561462E-02  0.1212425E+00
          1   -1    0    0  501    0  0.00000000000E+00  0.00000000000E+00  0.33155577092E+03  0.33155577092E+03  0.00000000000E+00 0. -1.
         -1   -1    0    0    0  501 -0.00000000000E+00 -0.00000000000E+00 -0.76908487140E+02  0.76908487140E+02  0.00000000000E+00 0.  1.
         25    2    1    2    0    0 -0.11612525791E+02 -0.90276682427E+02  0.43386497488E+02  0.16067326721E+03  0.12509508578E+03 0.  0.
          5    1    3    3  502    0 -0.68012799099E+02 -0.53230298482E+02  0.31506621580E+02  0.92029044987E+02  0.41800000000E+01 0. -1.
         -5    1    3    3    0  502  0.56400273308E+02 -0.37046383946E+02  0.11879875908E+02  0.68644222220E+02  0.41800000000E+01 0. -1.
        -11    1    1    2    0    0  0.43578982740E+02  0.16026073192E+02  0.10009002698E+03  0.11033574334E+03  0.00000000000E+00 0. -1.
         11    1    1    2    0    0 -0.31966456948E+02  0.74250609235E+02  0.11117075932E+03  0.13745524751E+03  0.00000000000E+00 0.  1.
</event>
<event>
 7    1  0.2666594E-009  0.9765254E+02  0.7561462E-02  0.1285311E+00
          2   -1    0    0  501    0  0.00000000000E+00  0.00000000000E+00  0.28856312560E+03  0.28856312560E+03  0.00000000000E+00 0. -1.
         -2   -1    0    0    0  501 -0.00000000000E+00 -0.00000000000E+00 -0.62181243885E+02  0.62181243885E+02  0.00000000000E+00 0.  1.
         25    2    1    2    0    0  0.31353133543E+02 -0.59814057909E+01  0.21836625954E+03  0.25367405028E+03  0.12509158359E+03 0.  0.
          5    1    3    3  502    0 -0.47852720121E+02  0.68423610742E+01  0.89708413564E+02  0.10198908075E+03  0.41800000000E+01 0.  1.
         -5    1    3    3    0  502  0.79205853664E+02 -0.12823766865E+02  0.12865784597E+03  0.15168496953E+03  0.41800000000E+01 0.  1.
        -11    1    1    2    0    0 -0.17131434527E+02  0.32278423275E+02 -0.30997793732E+02  0.47919159783E+02  0.00000000000E+00 0.  1.
         11    1    1    2    0    0 -0.14221699016E+02 -0.26297017484E+02  0.39013415912E+02  0.49151159422E+02  0.00000000000E+00 0. -1.
</event>
<event>
 7    1  0.2666594E-009  0.9069762E+02  0.7561462E-02  0.1301171E+00
         -1   -1    0    0    0  501 -0.00000000000E+00  0.00000000000E+00  0.13421984888E+03  0.13421984888E+03  0.00000000000E+00 0.  1.
          1   -1    0    0  501    0  0.00000000000E+00 -0.00000000000E+00 -0.12359207432E+03  0.12359207432E+03  0.00000000000E+00 0. -1.
         25    2    1    2    0    0 -0.66755670024E+02 -0.16635333954E+02  0.11835089189E+01  0.14277673131E+03  0.12510291961E+03 0.  0.
          5    1    3    3  502    0 -0.52148769480E+02 -0.39569360320E+02 -0.51464595375E+02  0.83374488973E+02  0.41800000000E+01 0. -1.
         -5    1    3    3    0  502 -0.14606900544E+02  0.22934026367E+02  0.52648104294E+02  0.59402242337E+02  0.41800000000E+01 0. -1.
        -11    1    1    2    0    0  0.34533280387E+02 -0.19674409557E+02 -0.32140166383E+02  0.51113795993E+02  0.00000000000E+00 0. -1.
         11    1    1    2    0    0  0.32222389637E+02  0.36309743511E+02  0.41584432025E+02  0.63921395906E+02  0.00000000000E+00 0.  1.
</event>
<event>
 7    1  0.2666594E-009  0.2198346E+03  0.7561462E-02  0.1134006E+00
          1   -1    0    0  501    0  0.00000000000E+00  0.00000000000E+00  0.13170702707E+04  0.13170702707E+04  0.00000000000E+00 0. -1.
         -1   -1    0    0    0  501 -0.00000000000E+00 -0.00000000000E+00 -0.40341709288E+02  0.40341709288E+02  0.00000000000E+00 0.  1.
         25    2    1    2    0    0 -0.15525863748E+03 -0.12363246478E+03  0.78876619611E+03  0.82291584729E+03  0.12509256067E+03 0.  0.
          5    1    3    3  502    0 -0.16328415233E+03 -0.14002666193E+03  0.74132184122E+03  0.77190979079E+03  0.41800000000E+01 0.  1.
         -5    1    3    3    0  502  0.80255148471E+01  0.16394197144E+02  0.47444354894E+02  0.51006056501E+02  0.41800000000E+01 0.  1.
        -11    1    1    2    0    0  0.46351929165E+02  0.81462659487E+01  0.50050636582E+02  0.68701740943E+02  0.00000000000E+00 0. -1.
         11    1    1    2    0    0  0.10890670831E+03  0.11548619884E+03  0.43791172867E+03  0.46579439171E+03  0.00000000000E+00 0.  1.
</event>
<event>
 7    1  0.2666594E-009  0.8291854E+02  0.7561462E-02  0.1320967E+00
          1   -1    0    0  501    0  0.00000000000E+00  0.00000000000E+00  0.67164221899E+03  0.67164221899E+03  0.00000000000E+00 0. -1.
         -1   -1    0    0    0  501 -0.00000000000E+00 -0.00000000000E+00 -0.22648151127E+02  0.22648151127E+02  0.00000000000E+00 0.  1.
         25    2    1    2    0    0 -0.28706944391E+01 -0.30536849106E+02  0.51166358920E+03  0.52762549763E+03  0.12509315403E+03 0.  0.
          5    1    3    3  502    0  0.56957251406E+00 -0.51443224796E+02  0.78655286314E+02  0.94078989447E+02  0.41800000000E+01 0.  1.
         -5    1    3    3    0  502 -0.34402669532E+01  0.20906375690E+02  0.43300830289E+03  0.43354650818E+03  0.41800000000E+01 0.  1.
        -11    1    1    2    0    0  0.39915730613E+02 -0.62683998665E+01  0.76336517258E+02  0.86370262558E+02  0.00000000000E+00 0. -1.
         11    1    1    2    0    0 -0.37045036174E+02  0.36805248973E+02  0.60993961398E+02  0.80294609931E+02  0.00000000000E+00 0.  1.
</event>
<event>
 7    1  0.2666594E-009  0.1903144E+03  0.7561462E-02  0.1158178E+00
         -1   -1    0    0    0  501 -0.00000000000E+00  0.00000000000E+00  0.11983526950E+03  0.11983526950E+03  0.00000000000E+00 0.  1.
          1   -1    0    0  501    0  0.00000000000E+00 -0.00000000000E+00 -0.33572493800E+03  0.33572493800E+03  0.00000000000E+00 0. -1.
         25    2    1    2    0    0 -0.16475729339E+02 -0.15905415866E+03 -0.51026386205E+02  0.20933484789E+03  0.12509081264E+03 0.  0.
          5    1    3    3  502    0 -0.54321786752E+02 -0.15532579347E+03 -0.38141622699E+02  0.16896512781E+03  0.41800000000E+01 0. -1.
         -5    1    3    3    0  502  0.37846057414E+02 -0.37283651932E+01 -0.12884763505E+02  0.40369720080E+02  0.41800000000E+01 0. -1.
        -11    1    1    2    0    0  0.37897848917E+02  0.34073267815E+02 -0.22885775572E+02  0.55865850532E+02  0.00000000000E+00 0.  1.
         11    1    1    2    0    0 -0.21422119578E+02  0.12498089085E+03 -0.14197750672E+03  0.19035950908E+03  0.00000000000E+00 0. -1.
</event>
<event>
 7    1  0.2666594E-009  0.1358968E+03  0.7561462E-02  0.1218959E+00
          1   -1    0    0  501    0  0.00000000000E+00  0.00000000000E+00  0.38498707985E+03  0.38498707985E+03  0.00000000000E+00 0. -1.
         -1   -1    0    0    0  501 -0.00000000000E+00 -0.00000000000E+00 -0.82530376596E+02  0.82530376596E+02  0.00000000000E+00 0.  1.
         25    2    1    2    0    0 -0.98122138018E+02 -0.22025279203E+01  0.26148759050E+02  0.16113349276E+03  0.12508972696E+03 0.  0.
          5    1    3    3  502    0 -0.97626593051E+02  0.37242771948E+02 -0.13026489658E+02  0.10538091652E+03  0.41800000000E+01 0.  1.
         -5    1    3    3    0  502 -0.49554496688E+00 -0.39445299869E+02  0.39175248707E+02  0.55752576244E+02  0.41800000000E+01 0.  1.
        -11    1    1    2    0    0  0.31538396459E+02  0.40038828559E+02  0.72167401473E+02  0.88351072879E+02  0.00000000000E+00 0.  1.
         11    1    1    2    0    0  0.66583741559E+02 -0.37836300638E+02  0.20414054273E+03  0.21803289081E+03  0.00000000000E+00 0. -1.
</event>
<event>
 7    1  0.2666594E-009  0.9818139E+02  0.7561462E-02  0.1284167E+00
          1   -1    0    0  501    0  0.00000000000E+00  0.00000000000E+00  0.56612756833E+02  0.56612756833E+02  0.00000000000E+00 0. -1.
         -1   -1    0    0    0  501 -0.00000000000E+00 -0.00000000000E+00 -0.29053200912E+03  0.29053200912E+03  0.00000000000E+00 0.  1.
         25    2    1    2    0    0 -0.54460673659E+01  0.65117846324E+02 -0.12639605199E+03  0.18945674675E+03  0.12509157993E+03 0.  0.
          5    1    3    3  502    0  0.28502460762E+02  0.41302175375E+02  0.59467414885E+01  0.50705976911E+02  0.41800000000E+01 0.  1.
         -5    1    3    3    0  502 -0.33948528128E+02  0.23815670949E+02 -0.13234279348E+03  0.13875076983E+03  0.41800000000E+01 0.  1.
        -11    1    1    2    0    0  0.40715690221E+02 -0.15751478283E+02 -0.13329587986E+02  0.45645968213E+02  0.00000000000E+00 0. -1.
         11    1    1    2    0    0 -0.35269622855E+02 -0.49366368041E+02 -0.94193612313E+02  0.11204205099E+03  0.00000000000E+00 0.  1.
</event>
<event>
 7    1  0.2666594E-009  0.1940969E+03  0.7561462E-02  0.1154817E+00
         -2   -1    0    0    0  501 -0.00000000000E+00  0.00000000000E+00  0.18086146990E+03  0.18086146990E+03  0.00000000000E+00 0.  1.
          2   -1    0    0  501    0  0.00000000000E+00 -0.00000000000E+00 -0.24031409257E+03  0.24031409257E+03  0.00000000000E+00 0. -1.
         25    2    1    2    0    0 -0.16594048122E+03  0.39936274445E+02  0.31368263877E+02  0.21392158468E+03  0.12508927648E+03 0.  0.
          5    1    3    3  502    0 -0.17228676000E+03  0.65264411591E+02  0.20827750453E+02  0.18545468093E+03  0.41800000000E+01 0. -1.
         -5    1    3    3    0  502  0.63462787822E+01 -0.25328137145E+02  0.10540513424E+02  0.28466903746E+02  0.41800000000E+01 0. -1.
        -11    1    1    2    0    0  0.11115305961E+03 -0.49802429795E+02 -0.31301011736E+02  0.12575785467E+03  0.00000000000E+00 0.  1.
         11    1    1    2    0    0  0.54787421606E+02  0.98661553500E+01 -0.59519874805E+02  0.81496123125E+02  0.00000000000E+00 0. -1.
</event>
<event>
 7    1  0.2666594E-009  0.1496657E+03  0.7561462E-02  0.1200884E+00
          1   -1    0    0  501    0  0.00000000000E+00  0.00000000000E+00  0.28409295307E+02  0.28409295307E+02  0.00000000000E+00 0. -1.
         -1   -1    0    0    0  501 -0.00000000000E+00 -0.00000000000E+00 -0.11435266345E+04  0.11435266345E+04  0.00000000000E+00 0.  1.
         25    2    1    2    0    0  0.93487718595E+02  0.83483140229E+02 -0.82429677713E+03  0.84310272503E+03  0.12509052695E+03 0.  0.
          5    1    3    3  502    0  0.10447033232E+03  0.54017285160E+02 -0.77878315367E+03  0.78762465062E+03  0.41800000000E+01 0. -1.
         -5    1    3    3    0  502 -0.10982613723E+02  0.29465855069E+02 -0.45513623459E+02  0.55478074403E+02  0.41800000000E+01 0. -1.
        -11    1    1    2    0    0 -0.69214372744E+02 -0.99235340745E+02 -0.20247557846E+03  0.23586996867E+03  0.00000000000E+00 0. -1.
         11    1    1    2    0    0 -0.24273345851E+02  0.15752200516E+02 -0.88344983573E+02  0.92963236079E+02  0.00000000000E+00 0.  1.
</event>
<event>
 7    1  0.2666594E-009  0.1008282E+03  0.7561462E-02  0.1278564E+00
         -1   -1    0    0    0  501 -0.00000000000E+00  0.00000000000E+00  0.61095166533E+02  0.61095166533E+02  0.00000000000E+00 0.  1.
          1   -1    0    0  501    0  0.00000000000E+00 -0.00000000000E+00 -0.17595200077E+03  0.17595200077E+03  0.00000000000E+00 0. -1.
         25    2    1    2    0    0 -0.17181878292E+02  0.11595420689E+02 -0.68998267096E+02  0.14436894104E+03  0.12510779174E+03 0.  0.
          5    1    3    3  502    0 -0.55724964715E+02 -0.31708511110E+02 -0.17197250210E+02  0.66512549072E+02  0.41800000000E+01 0.  1.
         -5    1    3    3    0  502  0.38543086423E+02  0.43303931798E+02 -0.51801016886E+02  0.77856391970E+02  0.41800000000E+01 0.  1.
        -11    1    1    2    0    0 -0.20477359815E+02 -0.30818179735E+02 -0.13319691961E+02  0.39325521753E+02  0.00000000000E+00 0.  1.
         11    1    1    2    0    0  0.37659238107E+02  0.19222759047E+02 -0.32538875177E+02  0.53352704505E+02  0.00000000000E+00 0. -1.
</event>
<event>
 7    1  0.2666594E-009  0.9530129E+02  0.7561462E-02  0.1290499E+00
          1   -1    0    0  501    0  0.00000000000E+00  0.00000000000E+00  0.17652137283E+03  0.17652137283E+03  0.00000000000E+00 0. -1.
         -1   -1    0    0    0  501 -0.00000000000E+00 -0.00000000000E+00 -0.77133380179E+02  0.77133380179E+02  0.00000000000E+00 0.  1.
         25    2    1    2    0    0 -0.51705309842E+01  0.39346856876E+02  0.69929048780E+02  0.14870087838E+03  0.12508784846E+03 0.  0.
          5    1    3    3  502    0 -0.37805144272E+02 -0.14998851876E+02 -0.14198132562E+02  0.43281102796E+02  0.41800000000E+01 0. -1.
         -5    1    3    3    0  502  0.32634613287E+02  0.54345708751E+02  0.84127181342E+02  0.10541977559E+03  0.41800000000E+01 0. -1.
        -11    1    1    2    0    0  0.33716169794E+02 -0.45848242121E+02  0.44309539478E+02  0.72126116628E+02  0.00000000000E+00 0. -1.
         11    1    1    2    0    0 -0.28545638810E+02  0.65013852450E+01 -0.14850595609E+02  0.32827757997E+02  0.00000000000E+00 0.  1.
</event>
<event>
 7    1  0.2666594E-009  0.8877773E+02  0.7561462E-02  0.1305839E+00
          3   -1    0    0  501    0  0.00000000000E+00  0.00000000000E+00  0.49494922416E+02  0.49494922416E+02  0.00000000000E+00 0. -1.
         -3   -1    0    0    0  501 -0.00000000000E+00 -0.00000000000E+00 -0.29985771441E+03  0.29985771441E+03  0.00000000000E+00 0.  1.
         25    2    1    2    0    0 -0.40639567310E+02 -0.75374653473E+01 -0.19186140946E+03  0.23273992780E+03  0.12509470706E+03 0.  0.
          5    1    3    3  502    0  0.34414463744E+02 -0.18344688519E+02 -0.18279973668E+02  0.43272540357E+02  0.41800000000E+01 0.  1.
         -5    1    3    3    0  502 -0.75054031054E+02  0.10807223171E+02 -0.17358143579E+03  0.18946738744E+03  0.41800000000E+01 0.  1.
        -11    1    1    2    0    0  0.45298657619E+01 -0.17742099726E+02 -0.68926681363E+02  0.71317523724E+02  0.00000000000E+00 0.  1.
         11    1    1    2    0    0  0.36109701548E+02  0.25279565073E+02  0.10425298831E+02  0.45295185306E+02  0.00000000000E+00 0. -1.
</event>
<event>
 7    1  0.5074911E-009  0.1040950E+03  0.7561462E-02  0.1271913E+00
         -2   -1    0    0    0  501 -0.00000000000E+00  0.00000000000E+00  0.56811110838E+02  0.56811110838E+02  0.00000000000E+00 0.  1.
          2   -1    0    0  501    0  0.00000000000E+00 -0.00000000000E+00 -0.27826873141E+03  0.27826873141E+03  0.00000000000E+00 0. -1.
         25    2    1    2    0    0  0.12060679986E+02 -0.62023178964E+02 -0.11507101200E+03  0.18133252978E+03  0.12509122201E+03 0.  0.
          5    1    3    3  502    0 -0.29497598296E+02 -0.86560822098E+02 -0.79289742235E+02  0.12110829803E+03  0.41800000000E+01 0. -1.
         -5    1    3    3    0  502  0.41558278282E+02  0.24537643133E+02 -0.35781269768E+02  0.60224231755E+02  0.41800000000E+01 0. -1.
        -11    1    1    2    0    0 -0.16843095344E+02  0.21083172021E+02  0.11146265278E+02  0.29196390751E+02  0.00000000000E+00 0.  1.
         11    1    1    2    0    0  0.47824153580E+01  0.40940006944E+02 -0.11753287385E+03  0.12455092171E+03  0.00000000000E+00 0. -1.
</event>
<event>
 7    1  0.2666594E-009  0.1083487E+03  0.7561462E-02  0.1263659E+00
          1   -1    0    0  501    0  0.00000000000E+00  0.00000000000E+00  0.49696062055E+02  0.49696062055E+02  0.00000000000E+00 0. -1.
         -1   -1    0    0    0  501 -0.00000000000E+00 -0.00000000000E+00 -0.41755222272E+03  0.41755222272E+03  0.00000000000E+00 0.  1.
         25    2    1    2    0    0 -0.30160979463E+02 -0.53127389703E+02 -0.30726033685E+03  0.33732694083E+03  0.12509334992E+03 0.  0.
          5    1    3    3  502    0 -0.75636489368E+02 -0.45213515275E+02 -0.23950844052E+03  0.25523891938E+03  0.41800000000E+01 0.  1.
         -5    1    3    3    0  502  0.45475509905E+02 -0.79138744276E+01 -0.67751896327E+02  0.82088021449E+02  0.41800000000E+01 0.  1.
        -11    1    1    2    0    0  0.26679462871E+02 -0.21292243931E+01 -0.68918619841E+02  0.73933101493E+02  0.00000000000E+00 0.  1.
         11    1    1    2    0    0  0.34815165917E+01  0.55256614096E+02  0.83227960223E+01  0.55988242451E+02  0.00000000000E+00 0. -1.
</event>
<event>
 7    1  0.2870804E-009  0.1637880E+03  0.7561462E-02  0.1184485E+00
         -2   -1    0    0    0  501 -0.00000000000E+00  0.00000000000E+00  0.10154380721E+03  0.10154380721E+03  0.00000000000E+00 0. -1.
          2   -1    0    0  501    0  0.00000000000E+00 -0.00000000000E+00 -0.36534633087E+03  0.36534633087E+03  0.00000000000E+00 0.  1.
         25    2    1    2    0    0  0.25537873191E+02  0.13358902235E+03 -0.23783092206E+03  0.30118100732E+03  0.12509293273E+03 0.  0.
          5    1    3    3  502    0  0.74009676736E+02  0.71163892489E+02 -0.10758558703E+03  0.14877453674E+03  0.41800000000E+01 0. -1.
         -5    1    3    3    0  502 -0.48471803545E+02  0.62425129858E+02 -0.13024533503E+03  0.15240647058E+03  0.41800000000E+01 0. -1.
        -11    1    1    2    0    0  0.12106520985E+02 -0.75422731238E+02 -0.51215692090E+02  0.91968491093E+02  0.00000000000E+00 0.  1.
         11    1    1    2    0    0 -0.37644394176E+02 -0.58166291109E+02  0.25244090493E+02  0.73740639671E+02  0.00000000000E+00 0. -1.
</event>
<event>
 7    1  0.2666594E-009  0.1618430E+03  0.7561462E-02  0.1186632E+00
         -1   -1    0    0    0  501 -0.00000000000E+00  0.00000000000E+00  0.13668533790E+03  0.13668533790E+03  0.00000000000E+00 0.  1.
          1   -1    0    0  501    0  0.00000000000E+00 -0.00000000000E+00 -0.25068165087E+03  0.25068165087E+03  0.00000000000E+00 0. -1.
         25    2    1    2    0    0  0.49415661239E+02  0.13800228476E+03 -0.32033457441E+02  0.19535444992E+03  0.12510267996E+03 0.  0.
          5    1    3    3  502    0  0.46919429152E+02  0.82252117943E+02  0.41060743235E+02  0.10329714794E+03  0.41800000000E+01 0. -1.
         -5    1    3    3    0  502  0.24962320864E+01  0.55750166815E+02 -0.73094200676E+02  0.92057301976E+02  0.41800000000E+01 0. -1.
        -11    1    1    2    0    0  0.26495369615E+02 -0.22695352638E+02 -0.23669130284E+02  0.42158170867E+02  0.00000000000E+00 0. -1.
         11    1    1    2    0    0 -0.75911030854E+02 -0.11530693212E+03 -0.58293725244E+02  0.14985436798E+03  0.00000000000E+00 0.  1.
</event>
<event>
 7    1  0.2666594E-009  0.1110542E+03  0.7561462E-02  0.1258630E+00
         -2   -1    0    0    0  501 -0.00000000000E+00  0.00000000000E+00  0.31712906232E+02  0.31712906232E+02  0.00000000000E+00 0.  1.
          2   -1    0    0  501    0  0.00000000000E+00 -0.00000000000E+00 -0.60049027063E+03  0.60049027063E+03  0.00000000000E+00 0. -1.
         25    2    1    2    0    0  0.38908276397E+02  0.42576235972E+02 -0.16895604030E+03  0.21799907699E+03  0.12510341391E+03 0.  0.
          5    1    3    3  502    0  0.28111475347E+02 -0.34063043872E+02 -0.11581996405E+03  0.12402532998E+03  0.41800000000E+01 0.  1.
         -5    1    3    3    0  502  0.10796801051E+02  0.76639279844E+02 -0.53136076246E+02  0.93973747008E+02  0.41800000000E+01 0.  1.
        -11    1    1    2    0    0 -0.13252714968E+01  0.23865633227E+02 -0.41946520318E+02  0.48278725757E+02  0.00000000000E+00 0.  1.
         11    1    1    2    0    0 -0.37583004901E+02 -0.66441869199E+02 -0.35787480379E+03  0.36592537412E+03  0.00000000000E+00 0. -1.
</event>
<event>
 7    1  0.2666594E-009  0.1859218E+03  0.7561462E-02  0.1162192E+00
         -2   -1    0    0    0  501 -0.00000000000E+00  0.00000000000E+00  0.23312391533E+02  0.23312391533E+02  0.00000000000E+00 0.  1.
          2   -1    0    0  501    0  0.00000000000E+00 -0.00000000000E+00 -0.17014075163E+04  0.17014075163E+04  0.00000000000E+00 0. -1.
         25    2    1    2    0    0 -0.13803228481E+03 -0.90411374678E+02 -0.76151553110E+03  0.78916528240E+03  0.12509520579E+03 0.  0.
          5    1    3    3  502    0 -0.85389750392E+02 -0.99513065280E+02 -0.67319579990E+03  0.68586027516E+03  0.41800000000E+01 0.  1.
         -5    1    3    3    0  502 -0.52642534415E+02  0.91016906023E+01 -0.88319731202E+02  0.10330500724E+03  0.41800000000E+01 0.  1.
        -11    1    1    2    0    0  0.12219306561E+03  0.31679214031E+02 -0.58903274513E+03  0.60240708223E+03  0.00000000000E+00 0. -1.
         11    1    1    2    0    0  0.15839219197E+02  0.58732160647E+02 -0.32754684853E+03  0.33314754320E+03  0.00000000000E+00 0.  1.
</event>
<event>
 7    1  0.2666594E-009  0.1419269E+03  0.7561462E-02  0.1210759E+00
         -1   -1    0    0    0  501 -0.00000000000E+00  0.00000000000E+00  0.95524835124E+02  0.95524835124E+02  0.00000000000E+00 0.  1.
          1   -1    0    0  501    0  0.00000000000E+00 -0.00000000000E+00 -0.32080267108E+03  0.32080267108E+03  0.00000000000E+00 0. -1.
         25    2    1    2    0    0  0.35335826741E+02 -0.86123261127E+02  0.29237142938E+00  0.15592641990E+03  0.12508847342E+03 0.  0.
          5    1    3    3  502    0  0.58282009109E+02 -0.10741528797E+03 -0.10058265872E+02  0.12269261505E+03  0.41800000000E+01 0. -1.
         -5    1    3    3    0  502 -0.22946182367E+02  0.21292026842E+02  0.10350637302E+02  0.33233804850E+02  0.41800000000E+01 0. -1.
        -11    1    1    2    0    0  0.11581736197E+02  0.82089746115E+02 -0.13866484816E+03  0.16155742987E+03  0.00000000000E+00 0.  1.
         11    1    1    2    0    0 -0.46917562938E+02  0.40335150114E+01 -0.86905359222E+02  0.98843656432E+02  0.00000000000E+00 0. -1.
</event>
<event>
 7    1  0.2666594E-009  0.1212125E+03  0.7561462E-02  0.1241110E+00
          2   -1    0    0  501    0  0.00000000000E+00  0.00000000000E+00  0.14602168290E+03  0.14602168290E+03  0.00000000000E+00 0.  1.
         -2   -1    0    0    0  501 -0.00000000000E+00 -0.00000000000E+00 -0.10945867393E+03  0.10945867393E+03  0.00000000000E+00 0. -1.
         25    2    1    2    0    0 -0.22432248437E+02  0.58879096665E+02  0.12227334113E+02  0.14059554617E+03  0.12509055164E+03 0.  0.
          5    1    3    3  502    0 -0.29570311374E+02  0.92829466123E+02 -0.11744630227E+02  0.98219762953E+02  0.41800000000E+01 0. -1.
         -5    1    3    3    0  502  0.71380629375E+01 -0.33950369458E+02  0.23971964340E+02  0.42375783215E+02  0.41800000000E+01 0. -1.
        -11    1    1    2    0    0  0.13591993431E+02  0.23482066324E+02  0.16323553380E+02  0.31663987734E+02  0.00000000000E+00 0.  1.
         11    1    1    2    0    0  0.88402550063E+01 -0.82361162989E+02  0.80121214830E+01  0.83220822924E+02  0.00000000000E+00 0. -1.
</event>
<event>
 7    1  0.2666594E-009  0.1206618E+03  0.7561462E-02  0.1242009E+00
         -1   -1    0    0    0  501 -0.00000000000E+00  0.00000000000E+00  0.59221850190E+03  0.59221850190E+03  0.00000000000E+00 0.  1.
          1   -1    0    0  501    0  0.00000000000E+00 -0.00000000000E+00 -0.27148451219E+02  0.27148451219E+02  0.00000000000E+00 0. -1.
         25    2    1    2    0    0  0.30223376917E+02 -0.44273015431E+02  0.22153753522E+03  0.26000017454E+03  0.12509060253E+03 0.  0.
          5    1    3    3  502    0 -0.23119350652E+02 -0.71932400919E+02  0.11652880571E+03  0.13894318853E+03  0.41800000000E+01 0. -1.
         -5    1    3    3    0  502  0.53342727570E+02  0.27659385487E+02  0.10500872951E+03  0.12105698601E+03  0.41800000000E+01 0. -1.
        -11    1    1    2    0    0 -0.35523489602E+02  0.70349300184E+02  0.26274479466E+03  0.27430962336E+03  0.00000000000E+00 0. -1.
         11    1    1    2    0    0  0.53001126848E+01 -0.26076284752E+02  0.80787720800E+02  0.85057155214E+02  0.00000000000E+00 0.  1.
</event>
<event>
 7    1  0.2666594E-009  0.2469574E+03  0.7561462E-02  0.1115243E+00
         -1   -1    0    0    0  501 -0.00000000000E+00  0.00000000000E+00  0.24892849908E+03  0.24892849908E+03  0.00000000000E+00 0.  1.
          1   -1    0    0  501    0  0.00000000000E+00 -0.00000000000E+00 -0.27240223964E+03  0.27240223964E+03  0.00000000000E+00 0. -1.
         25    2    1    2    0    0  0.66550716523E+02  0.21973549739E+03 -0.69128498434E+02  0.27044219820E+03  0.12509015384E+03 0.  0.
          5    1    3    3  502    0  0.10089628091E+03  0.17283094461E+03 -0.70270301674E+02  0.21214613504E+03  0.41800000000E+01 0.  1.
         -5    1    3    3    0  502 -0.34345564388E+02  0.46904552783E+02  0.11418032396E+01  0.58296063156E+02  0.41800000000E+01 0.  1.
        -11    1    1    2    0    0  0.86373359839E+01 -0.34067157976E+02  0.36045724202E+02  0.50343510592E+02  0.00000000000E+00 0.  1.
         11    1    1    2    0    0 -0.75188052507E+02 -0.18566833942E+03  0.96090336723E+01  0.20054502993E+03  0.00000000000E+00 0. -1.
</event>
<event>
 7    1  0.2666594E-009  0.1463882E+03  0.7561462E-02  0.1204983E+00
          1   -1    0    0  501    0  0.00000000000E+00  0.00000000000E+00  0.96897718661E+03  0.96897718661E+03  0.00000000000E+00 0. -1.
         -1   -1    0    0    0  501 -0.00000000000E+00 -0.00000000000E+00 -0.42277031437E+02  0.42277031437E+02  0.00000000000E+00 0.  1.
         25    2    1    2    0    0 -0.64492285017E+02  0.99575294137E+02  0.79322024170E+03  0.81173921521E+03  0.12509079753E+03 0.  0.
          5    1    3    3  502    0  0.27278722492E+02  0.17628412502E+02  0.60918936155E+02  0.69162698114E+02  0.41800000000E+01 0.  1.
         -5    1    3    3    0  502 -0.91771007509E+02  0.81946881635E+02  0.73230130555E+03  0.74257651709E+03  0.41800000000E+01 0.  1.
        -11    1    1    2    0    0 -0.53282792164E+01 -0.52379160137E+02  0.16180418045E+02  0.55079695934E+02  0.00000000000E+00 0.  1.
         11    1    1    2    0    0  0.69820564233E+02 -0.47196134000E+02  0.11729949542E+03  0.14443530690E+03  0.00000000000E+00 0. -1.
</event>
<event>
 7    1  0.2666594E-009  0.2523834E+03  0.7561462E-02  0.1111808E+00
          1   -1    0    0  501    0  0.00000000000E+00  0.00000000000E+00  0.14027609858E+03  0.14027609858E+03  0.00000000000E+00 0. -1.
         -1   -1    0    0    0  501 -0.00000000000E+00 -0.00000000000E+00 -0.53627926352E+03  0.53627926352E+03  0.00000000000E+00 0.  1.
         25    2    1    2    0    0 -0.23118570004E+03  0.97036876950E+02 -0.22894575933E+03  0.36183991112E+03  0.12509587193E+03 0.  0.
          5    1    3    3  502    0 -0.21467382105E+03  0.96808583467E+02 -0.14588387310E+03  0.27704932432E+03  0.41800000000E+01 0.  1.
         -5    1    3    3    0  502 -0.16511878996E+02  0.22829348355E+00 -0.83061886235E+02  0.84790586806E+02  0.41800000000E+01 0.  1.
        -11    1    1    2    0    0  0.45451734310E+02 -0.76957231657E+01  0.48181441450E+01  0.46349744550E+02  0.00000000000E+00 0. -1.
         11    1    1    2    0    0  0.18573396573E+03 -0.89341153785E+02 -0.17187554975E+03  0.26836570643E+03  0.00000000000E+00 0.  1.
</event>
<event>
 7    1  0.2827463E-009  0.1165551E+03  0.7561462E-02  0.1248891E+00
         -1   -1    0    0    0  501 -0.00000000000E+00  0.00000000000E+00  0.17905104344E+03  0.17905104344E+03  0.00000000000E+00 0.  1.
          1   -1    0    0  501    0  0.00000000000E+00 -0.00000000000E+00 -0.87723656505E+02  0.87723656505E+02  0.00000000000E+00 0. -1.
         25    2    1    2    0    0  0.36570929360E+02 -0.49697553236E+02  0.63526546800E+02  0.15326653593E+03  0.12509088382E+03 0.  0.
          5    1    3    3  502    0  0.75216855123E+02  0.13132233710E+01  0.34862162197E+02  0.83018929186E+02  0.41800000000E+01 0.  1.
         -5    1    3    3    0  502 -0.38645925763E+02 -0.51010776607E+02  0.28664384603E+02  0.70247606741E+02  0.41800000000E+01 0.  1.
        -11    1    1    2    0    0  0.92691953317E+01 -0.12999028805E+02  0.31964174876E+02  0.35729556497E+02  0.00000000000E+00 0.  1.
         11    1    1    2    0    0 -0.45840124691E+02  0.62696582041E+02 -0.41633347443E+01  0.77778607519E+02  0.00000000000E+00 0. -1.
</event>
<event>
 7    1  0.2666594E-009  0.2580963E+03  0.7561462E-02  0.1108292E+00
          2   -1    0    0  501    0  0.00000000000E+00  0.00000000000E+00  0.87957309727E+03  0.87957309727E+03  0.00000000000E+00 0. -1.
         -2   -1    0    0    0  501 -0.00000000000E+00 -0.00000000000E+00 -0.11023238624E+03  0.11023238624E+03  0.00000000000E+00 0.  1.
         25    2    1    2    0    0 -0.24735974153E+01 -0.24828166300E+03  0.14696457732E+03  0.31447300148E+03  0.12507909019E+03 0.  0.
          5    1    3    3  502    0 -0.49915736003E+02 -0.10022592876E+03  0.10459238313E+03  0.15327705799E+03  0.41800000000E+01 0. -1.
         -5    1    3    3    0  502  0.47442138588E+02 -0.14805573425E+03  0.42372194191E+02  0.16119594349E+03  0.41800000000E+01 0. -1.
        -11    1    1    2    0    0 -0.45451021812E+01  0.47951790869E+02  0.52588738461E+02  0.71313446237E+02  0.00000000000E+00 0.  1.
         11    1    1    2    0    0  0.70186995965E+01  0.20032987214E+03  0.56978739525E+03  0.60401903579E+03  0.00000000000E+00 0. -1.
</event>
<event>
 7    1  0.2666594E-009  0.2182998E+03  0.7561462E-02  0.1135157E+00
         -3   -1    0    0    0  501 -0.00000000000E+00  0.00000000000E+00  0.44073684752E+03  0.44073684752E+03  0.00000000000E+00 0.  1.
          3   -1    0    0  501    0  0.00000000000E+00 -0.00000000000E+00 -0.11554402944E+03  0.11554402944E+03  0.00000000000E+00 0. -1.
         25    2    1    2    0    0  0.80091875152E+02 -0.17961495907E+03  0.12921299897E+03  0.26649603437E+03  0.12509154745E+03 0.  0.
          5    1    3    3  502    0  0.52942876763E+02 -0.11661284734E+02  0.64651955641E+02  0.84476514664E+02  0.41800000000E+01 0.  1.
         -5    1    3    3    0  502  0.27148998389E+02 -0.16795367434E+03  0.64561043329E+02  0.18201951970E+03  0.41800000000E+01 0.  1.
        -11    1    1    2    0    0 -0.93953958412E+02  0.17257837150E+03  0.17163984036E+03  0.26090395821E+03  0.00000000000E+00 0.  1.
         11    1    1    2    0    0  0.13862083260E+02  0.70365875698E+01  0.24339978748E+02  0.28880884377E+02  0.00000000000E+00 0. -1.
</event>
<event>
 7    1  0.2666594E-009  0.1685720E+03  0.7561462E-02  0.1179345E+00
         -4   -1    0    0    0  501 -0.00000000000E+00  0.00000000000E+00  0.28423995170E+03  0.28423995170E+03  0.00000000000E+00 0.  1.
          4   -1    0    0  501    0  0.00000000000E+00 -0.00000000000E+00 -0.13227650875E+03  0.13227650875E+03  0.00000000000E+00 0. -1.
         25    2    1    2    0    0 -0.15217649964E+03  0.23752443867E+02  0.13291747006E+03  0.23882337695E+03  0.12509071068E+03 0.  0.
          5    1    3    3  502    0 -0.71913431700E+02  0.36900706487E+02  0.13494747274E+03  0.15735786157E+03  0.41800000000E+01 0. -1.
         -5    1    3    3    0  502 -0.80263067944E+02 -0.13148262619E+02 -0.20300026820E+01  0.81465515383E+02  0.41800000000E+01 0. -1.
        -11    1    1    2    0    0  0.15465327050E+03 -0.38858075293E+02  0.24725948875E+02  0.16136590916E+03  0.00000000000E+00 0.  1.
         11    1    1    2    0    0 -0.24767708528E+01  0.15105631425E+02 -0.56799759825E+01  0.16327174335E+02  0.00000000000E+00 0. -1.
</event>
<event>
 7    1  0.2666594E-009  0.6752188E+02  0.7561462E-02  0.1368729E+00
          2   -1    0    0  501    0  0.00000000000E+00  0.00000000000E+00  0.60972238536E+03  0.60972238536E+03  0.00000000000E+00 0. -1.
         -2   -1    0    0    0  501 -0.00000000000E+00 -0.00000000000E+00 -0.20255361500E+02  0.20255361500E+02  0.00000000000E+00 0.  1.
         25    2    1    2    0    0 -0.21702788501E+02  0.19117542157E+01  0.30904375747E+03  0.33411072731E+03  0.12508904123E+03 0.  0.
          5    1    3    3  502    0 -0.30549145760E+02  0.65661595463E-01  0.31873100535E+03  0.32021895758E+03  0.41800000000E+01 0.  1.
         -5    1    3    3    0  502  0.88463572587E+01  0.18460926202E+01 -0.96872478808E+01  0.13891769729E+02  0.41800000000E+01 0.  1.
        -11    1    1    2    0    0 -0.29441044794E+00  0.43654258140E+02  0.13624476560E+03  0.14306787579E+03  0.00000000000E+00 0. -1.
         11    1    1    2    0    0  0.21997198949E+02 -0.45566012356E+02  0.14417850079E+03  0.15279914376E+03  0.00000000000E+00 0.  1.
</event>
<event>
 7    1  0.2666594E-009  0.1461440E+03  0.7561462E-02  0.1205293E+00
          2   -1    0    0  501    0  0.00000000000E+00  0.00000000000E+00  0.27523418626E+03  0.27523418626E+03  0.00000000000E+00 0.  1.
         -2   -1    0    0    0  501 -0.00000000000E+00 -0.00000000000E+00 -0.10825267211E+03  0.10825267211E+03  0.00000000000E+00 0. -1.
         25    2    1    2    0    0  0.11967174900E+03 -0.52886112722E+02  0.56845536166E+02  0.18972982249E+03  0.12509085551E+03 0.  0.
          5    1    3    3  502    0  0.70031619871E+02 -0.12578911774E+02 -0.33669799586E+02  0.78827562485E+02  0.41800000000E+01 0.  1.
         -5    1    3    3    0  502  0.49640129125E+02 -0.40307200949E+02  0.90515335752E+02  0.11090226000E+03  0.41800000000E+01 0.  1.
        -11    1    1    2    0    0 -0.11058524769E+03  0.77120512708E+01  0.92644549565E+02  0.14447001525E+03  0.00000000000E+00 0.  1.
         11    1    1    2    0    0 -0.90865013035E+01  0.45174061452E+02  0.17491428423E+02  0.49287020627E+02  0.00000000000E+00 0. -1.
</event>
<event>
 7    1  0.2666594E-009  0.1024789E+03  0.7561462E-02  0.1275168E+00
          2   -1    0    0  501    0  0.00000000000E+00  0.00000000000E+00  0.59082235630E+03  0.59082235630E+03  0.00000000000E+00 0. -1.
         -2   -1    0    0    0  501 -0.00000000000E+00 -0.00000000000E+00 -0.31427665104E+02  0.31427665104E+02  0.00000000000E+00 0.  1.
         25    2    1    2    0    0  0.58454656284E+02  0.45687554936E+02  0.38987620880E+03  0.41611870377E+03  0.12508804068E+03 0.  0.
          5    1    3    3  502    0  0.53782495004E+02  0.14051979738E+02  0.50513513904E+02  0.75227005725E+02  0.41800000000E+01 0.  1.
         -5    1    3    3    0  502  0.46721612800E+01  0.31635575198E+02  0.33936269489E+03  0.34089169804E+03  0.41800000000E+01 0.  1.
        -11    1    1    2    0    0 -0.11320520586E+02 -0.65034134403E+02  0.88146619643E+02  0.11012456301E+03  0.00000000000E+00 0. -1.
         11    1    1    2    0    0 -0.47134135698E+02  0.19346579468E+02  0.81371862752E+02  0.96006754621E+02  0.00000000000E+00 0.  1.
</event>
<event>
 7    1  0.2666594E-009  0.1119636E+03  0.7561462E-02  0.1256976E+00
          2   -1    0    0  501    0  0.00000000000E+00  0.00000000000E+00  0.21235532830E+03  0.21235532830E+03  0.00000000000E+00 0. -1.
         -2   -1    0    0    0  501 -0.00000000000E+00 -0.00000000000E+00 -0.11483881449E+03  0.11483881449E+03  0.00000000000E+00 0.  1.
         25    2    1    2    0    0  0.79245781399E+02  0.12023977472E+02 -0.30258987681E+02  0.15161403889E+03  0.12508693197E+03 0.  0.
          5    1    3    3  502    0  0.13401846918E+02 -0.49331223476E+02  0.11101449887E+02  0.52477554250E+02  0.41800000000E+01 0. -1.
         -5    1    3    3    0  502  0.65843934482E+02  0.61355200948E+02 -0.41360437568E+02  0.99136484643E+02  0.41800000000E+01 0. -1.
        -11    1    1    2    0    0 -0.18091999205E+02 -0.11399844216E+02  0.10976167402E+03  0.11182531899E+03  0.00000000000E+00 0. -1.
         11    1    1    2    0    0 -0.61153782194E+02 -0.62413325614E+00  0.18013827469E+02  0.63754784911E+02  0.00000000000E+00 0.  1.
</event>
<event>
 7    1  0.2666594E-009  0.1269775E+03  0.7561462E-02  0.1232011E+00
          4   -1    0    0  501    0  0.00000000000E+00  0.00000000000E+00  0.38123266984E+02  0.38123266984E+02  0.00000000000E+00 0. -1.
         -4   -1    0    0    0  501 -0.00000000000E+00 -0.00000000000E+00 -0.44952564165E+03  0.44952564165E+03  0.00000000000E+00 0.  1.
         25    2    1    2    0    0 -0.39935487328E+02  0.59258810883E+02 -0.26913851406E+03  0.30526894125E+03  0.12508851638E+03 0.  0.
          5    1    3    3  502    0  0.39029322978E+02 -0.58955358416E+01 -0.99003273332E+02  0.10666379857E+03  0.41800000000E+01 0.  1.
         -5    1    3    3    0  502 -0.78964810307E+02  0.65154346725E+02 -0.17013524072E+03  0.19860514268E+03  0.41800000000E+01 0.  1.
        -11    1    1    2    0    0 -0.21514088444E+02  0.58292905004E+01 -0.44858974722E+02  0.50091558594E+02  0.00000000000E+00 0.  1.
         11    1    1    2    0    0  0.61449575772E+02 -0.65088101383E+02 -0.97404885888E+02  0.13228840879E+03  0.00000000000E+00 0. -1.
</event>
<event>
 7    1  0.2666594E-009  0.1128582E+03  0.7561462E-02  0.1255367E+00
         -2   -1    0    0    0  501 -0.00000000000E+00  0.00000000000E+00  0.18763361258E+02  0.18763361258E+02  0.00000000000E+00 0. -1.
          2   -1    0    0  501    0  0.00000000000E+00 -0.00000000000E+00 -0.86865864428E+03  0.86865864428E+03  0.00000000000E+00 0.  1.
         25    2    1    2    0    0  0.65043023195E+02  0.13199326577E+02 -0.52845818820E+03  0.54710202152E+03  0.12509095966E+03 0.  0.
          5    1    3    3  502    0 -0.28652708263E+02  0.56822230434E+01 -0.27786065615E+03  0.27942312357E+03  0.41800000000E+01 0.  1.
         -5    1    3    3    0  502  0.93695731458E+02  0.75171035332E+01 -0.25059753206E+03  0.26767889796E+03  0.41800000000E+01 0.  1.
        -11    1    1    2    0    0 -0.26890607643E+02 -0.45018915887E+02 -0.23353849570E+03  0.23935337169E+03  0.00000000000E+00 0.  1.
         11    1    1    2    0    0 -0.38152415552E+02  0.31819589311E+02 -0.87898599120E+02  0.10096661232E+03  0.00000000000E+00 0. -1.
</event>
<event>
 7    1  0.2666594E-009  0.4163267E+03  0.7561462E-02  0.1038268E+00
          2   -1    0    0  501    0  0.00000000000E+00  0.00000000000E+00  0.18827717431E+04  0.18827717431E+04  0.00000000000E+00 0.  1.
         -2   -1    0    0    0  501 -0.00000000000E+00 -0.00000000000E+00 -0.14112250647E+03  0.14112250647E+03  0.00000000000E+00 0. -1.
         25    2    1    2    0    0  0.22102880273E+03 -0.33562859221E+03  0.14729205476E+04  0.15318755027E+04  0.12508929837E+03 0.  0.
          5    1    3    3  502    0  0.22927416837E+03 -0.26986669156E+03  0.12621288175E+04  0.13108704360E+04  0.41800000000E+01 0. -1.
         -5    1    3    3    0  502 -0.82453656420E+01 -0.65761900644E+02  0.21079173009E+03  0.22100506669E+03  0.41800000000E+01 0. -1.
        -11    1    1    2    0    0 -0.10492346781E+03  0.81988308747E+02  0.90063446792E+02  0.16075584380E+03  0.00000000000E+00 0.  1.
         11    1    1    2    0    0 -0.11610533492E+03  0.25364028346E+03  0.17866524221E+03  0.33126290309E+03  0.00000000000E+00 0. -1.
</event>
<event>
 7    1  0.2666594E-009  0.1147348E+03  0.7561462E-02  0.1252045E+00
         -1   -1    0    0    0  501 -0.00000000000E+00  0.00000000000E+00  0.22646002589E+03  0.22646002589E+03  0.00000000000E+00 0.  1.
          1   -1    0    0  501    0  0.00000000000E+00 -0.00000000000E+00 -0.66276857241E+02  0.66276857241E+02  0.00000000000E+00 0. -1.
         25    2    1    2    0    0  0.46682626036E+02  0.28120177940E+02  0.64729337540E+02  0.15101562019E+03  0.12508324597E+03 0.  0.
          5    1    3    3  502    0 -0.10082249913E+02  0.63680094304E+02  0.51471585032E+02  0.82605100567E+02  0.41800000000E+01 0.  1.
         -5    1    3    3    0  502  0.56764875949E+02 -0.35559916364E+02  0.13257752508E+02  0.68410519621E+02  0.41800000000E+01 0.  1.
        -11    1    1    2    0    0 -0.30744364441E+02  0.26661319685E+02  0.65940488021E+02  0.77486707716E+02  0.00000000000E+00 0.  1.
         11    1    1    2    0    0 -0.15938261595E+02 -0.54781497625E+02  0.29513343084E+02  0.64234555223E+02  0.00000000000E+00 0. -1.
</event>
<event>
 7    1  0.2666594E-009  0.7349257E+02  0.7561462E-02  0.1348604E+00
          1   -1    0    0  501    0  0.00000000000E+00  0.00000000000E+00  0.27277234444E+02  0.27277234444E+02  0.00000000000E+00 0. -1.
         -1   -1    0    0    0  501 -0.00000000000E+00 -0.00000000000E+00 -0.53630620252E+03  0.53630620252E+03  0.00000000000E+00 0.  1.
         25    2    1    2    0    0 -0.16704339739E+02  0.43993283441E+02 -0.34863576916E+03  0.37337243997E+03  0.12508251450E+03 0.  0.
          5    1    3    3  502    0  0.19529261209E+02  0.23494602373E+02 -0.10376022932E+02  0.32534944843E+02  0.41800000000E+01 0. -1.
         -5    1    3    3    0  502 -0.36233600948E+02  0.20498681068E+02 -0.33825974623E+03  0.34083749513E+03  0.41800000000E+01 0. -1.
        -11    1    1    2    0    0 -0.79720175243E+01  0.11260011281E+02  0.45423645448E+01  0.14524943825E+02  0.00000000000E+00 0. -1.
         11    1    1    2    0    0  0.24676357264E+02 -0.55253294722E+02 -0.16493556346E+03  0.17568605317E+03  0.00000000000E+00 0.  1.
</event>
<event>
 7    1  0.2666594E-009  0.1141786E+03  0.7561462E-02  0.1253022E+00
          2   -1    0    0  501    0  0.00000000000E+00  0.00000000000E+00  0.15532640697E+03  0.15532640697E+03  0.00000000000E+00 0. -1.
         -2   -1    0    0    0  501 -0.00000000000E+00 -0.00000000000E+00 -0.12589986082E+03  0.12589986082E+03  0.00000000000E+00 0.  1.
         25    2    1    2    0    0 -0.51141643860E+02 -0.25597103228E+02  0.82402212623E+02  0.16033941299E+03  0.12509165952E+03 0.  0.
          5    1    3    3  502    0 -0.15145331543E+02 -0.68931448138E+02  0.14781704511E+02  0.72228088707E+02  0.41800000000E+01 0. -1.
         -5    1    3    3    0  502 -0.35996312318E+02  0.43334344910E+02  0.67620508111E+02  0.88111324281E+02  0.41800000000E+01 0. -1.
        -11    1    1    2    0    0 -0.20864744234E+02 -0.71626705057E+01 -0.32312150818E+02  0.39124372087E+02  0.00000000000E+00 0.  1.
         11    1    1    2    0    0  0.72006388095E+02  0.32759773734E+02 -0.20663515656E+02  0.81762482721E+02  0.00000000000E+00 0. -1.
</event>
<event>
 7    1  0.2666594E-009  0.7688702E+02  0.7561462E-02  0.1338125E+00
          1   -1    0    0  501    0  0.00000000000E+00  0.00000000000E+00  0.11941987769E+03  0.11941987769E+03  0.00000000000E+00 0. -1.
         -1   -1    0    0    0  501 -0.00000000000E+00 -0.00000000000E+00 -0.10288610272E+03  0.10288610272E+03  0.00000000000E+00 0.  1.
         25    2    1    2    0    0  0.11299537094E+02  0.14946158486E+02 -0.26790473301E+01  0.12651231954E+03  0.12508845873E+03 0.  0.
          5    1    3    3  502    0 -0.16496195886E+02 -0.23531462808E+02  0.48534644888E+02  0.56559158189E+02  0.41800000000E+01 0. -1.
         -5    1    3    3    0  502  0.27795732981E+02  0.38477621294E+02 -0.51213692218E+02  0.69953161351E+02  0.41800000000E+01 0. -1.
        -11    1    1    2    0    0  0.31626748372E+02  0.76157721894E-02 -0.18578325650E+02  0.36679769009E+02  0.00000000000E+00 0.  1.
         11    1    1    2    0    0 -0.42926285467E+02 -0.14953774258E+02  0.37791147950E+02  0.59113891869E+02  0.00000000000E+00 0. -1.
</event>
<event>
 7    1  0.2666594E-009  0.1512456E+03  0.7561462E-02  0.1198951E+00
         -2   -1    0    0    0  501 -0.00000000000E+00  0.00000000000E+00  0.52051254229E+02  0.52051254229E+02  0.00000000000E+00 0.  1.
          2   -1    0    0  501    0  0.00000000000E+00 -0.00000000000E+00 -0.52006333432E+03  0.52006333432E+03  0.00000000000E+00 0. -1.
         25    2    1    2    0    0  0.11594466046E+03 -0.22115658902E+02 -0.31068516833E+03  0.35511045467E+03  0.12508355022E+03 0.  0.
          5    1    3    3  502    0  0.11039849459E+03 -0.64058557717E+02 -0.25353196726E+03  0.28387894823E+03  0.41800000000E+01 0.  1.
         -5    1    3    3    0  502  0.55461658656E+01  0.41942898815E+02 -0.57153201077E+02  0.71231506443E+02  0.41800000000E+01 0.  1.
        -11    1    1    2    0    0 -0.45605694121E+02  0.38917211790E+02 -0.22556016619E+02  0.64056245562E+02  0.00000000000E+00 0.  1.
         11    1    1    2    0    0 -0.70338966334E+02 -0.16801552888E+02 -0.13477089514E+03  0.15294788832E+03  0.00000000000E+00 0. -1.
</event>
<event>
 7    1  0.2666594E-009  0.1436485E+03  0.7561462E-02  0.1208502E+00
          1   -1    0    0  501    0  0.00000000000E+00  0.00000000000E+00  0.17569723313E+02  0.17569723313E+02  0.00000000000E+00 0. -1.
         -1   -1    0    0    0  501 -0.00000000000E+00 -0.00000000000E+00 -0.16214610440E+04  0.16214610440E+04  0.00000000000E+00 0.  1.
         25    2    1    2    0    0  0.27309564025E+02 -0.91993829268E+02 -0.12708381543E+04  0.12805799801E+04  0.12508714600E+03 0.  0.
          5    1    3    3  502    0  0.44357106169E+02 -0.11808347432E+03 -0.10202537624E+04  0.10280303847E+04  0.41800000000E+01 0. -1.
         -5    1    3    3    0  502 -0.17047542144E+02  0.26089645052E+02 -0.25058439196E+03  0.25254959546E+03  0.41800000000E+01 0. -1.
        -11    1    1    2    0    0 -0.45731231875E+02  0.11618556915E+02 -0.87340806909E+02  0.99271108512E+02  0.00000000000E+00 0.  1.
         11    1    1    2    0    0  0.18421667851E+02  0.80375272353E+02 -0.24571235947E+03  0.25917967869E+03  0.00000000000E+00 0. -1.
</event>
<event>
 7    1  0.2666594E-009  0.8931268E+02  0.7561462E-02  0.1304525E+00
          2   -1    0    0  501    0  0.00000000000E+00  0.00000000000E+00  0.61369367969E+03  0.61369367969E+03  0.00000000000E+00 0. -1.
         -2   -1    0    0    0  501 -0.00000000000E+00 -0.00000000000E+00 -0.22092582651E+02  0.22092582651E+02  0.00000000000E+00 0.  1.
         25    2    1    2    0    0 -0.35167297934E+02  0.14581558262E+02  0.29163671150E+03  0.31960814619E+03  0.12509210578E+03 0.  0.
          5    1    3    3  502    0 -0.38646250774E+01  0.41077945942E+02  0.26977978104E+03  0.27294859521E+03  0.41800000000E+01 0. -1.
         -5    1    3    3    0  502 -0.31302672857E+02 -0.26496387680E+02  0.21856930458E+02  0.46659550974E+02  0.41800000000E+01 0. -1.
        -11    1    1    2    0    0  0.41804953460E+02  0.29619549051E+02  0.11511646146E+03  0.12600306154E+03  0.00000000000E+00 0.  1.
         11    1    1    2    0    0 -0.66376555262E+01 -0.44201107312E+02  0.18484792408E+03  0.19017505461E+03  0.00000000000E+00 0. -1.
</event>
<event>
 7    1  0.2666594E-009  0.1187061E+03  0.7561462E-02  0.1245247E+00
          1   -1    0    0  501    0  0.00000000000E+00  0.00000000000E+00  0.10178172570E+04  0.10178172570E+04  0.00000000000E+00 0. -1.
         -1   -1    0    0    0  501 -0.00000000000E+00 -0.00000000000E+00 -0.18306744053E+02  0.18306744053E+02  0.00000000000E+00 0.  1.
         25    2    1    2    0    0  0.23546346503E+02 -0.69112383504E+02  0.69351447453E+03  0.70847704916E+03  0.12508577388E+03 0.  0.
          5    1    3    3  502    0 -0.50879834119E+02 -0.23321871497E+02  0.22742499545E+03  0.23424830451E+03  0.41800000000E+01 0.  1.
         -5    1    3    3    0  502  0.74426180621E+02 -0.45790512007E+02  0.46608947908E+03  0.47422874466E+03  0.41800000000E+01 0.  1.
        -11    1    1    2    0    0 -0.40103574013E+02  0.26453827885E+02  0.25347661076E+03  0.25798932896E+03  0.00000000000E+00 0. -1.
         11    1    1    2    0    0  0.16557227511E+02  0.42658555619E+02  0.52519427691E+02  0.69657622952E+02  0.00000000000E+00 0.  1.
</event>
<event>
 7    1  0.2666594E-009  0.1381170E+03  0.7561462E-02  0.1215885E+00
         -3   -1    0    0    0  501 -0.00000000000E+00  0.00000000000E+00  0.16336658921E+03  0.16336658921E+03  0.00000000000E+00 0.  1.
          3   -1    0    0  501    0  0.00000000000E+00 -0.00000000000E+00 -0.13437108636E+03  0.13437108636E+03  0.00000000000E+00 0. -1.
         25    2    1    2    0    0 -0.74197452463E+02  0.65670651861E+02 -0.65901708917E+01  0.15971868331E+03  0.12509488789E+03 0.  0.
          5    1    3    3  502    0 -0.87853357159E+02  0.93423660148E+02 -0.70355927699E+01  0.12850355873E+03  0.41800000000E+01 0.  1.
         -5    1    3    3    0  502  0.13655904696E+02 -0.27753008287E+02  0.44542187822E+00  0.31215124582E+02  0.41800000000E+01 0.  1.
        -11    1    1    2    0    0  0.48770996724E+02 -0.27513564025E+01  0.48614466269E+02  0.68916953024E+02  0.00000000000E+00 0.  1.
         11    1    1    2    0    0  0.25426455738E+02 -0.62919295458E+02 -0.13028792526E+02  0.69102039240E+02  0.00000000000E+00 0. -1.
</event>
<event>
 7    1  0.2666594E-009  0.1582526E+03  0.7561462E-02  0.1190684E+00
         -2   -1    0    0    0  501 -0.00000000000E+00  0.00000000000E+00  0.21896735998E+02  0.21896735998E+02  0.00000000000E+00 0. -1.
          2   -1    0    0  501    0  0.00000000000E+00 -0.00000000000E+00 -0.18247680602E+04  0.18247680602E+04  0.00000000000E+00 0.  1.
         25    2    1    2    0    0 -0.14341581274E+03  0.45889101860E+02 -0.12726568561E+04  0.12876246484E+04  0.12509139371E+03 0.  0.
          5    1    3    3  502    0 -0.15030244200E+02  0.13402712066E+02 -0.68111490408E+03  0.68142536340E+03  0.41800000000E+01 0.  1.
         -5    1    3    3    0  502 -0.12838556854E+03  0.32486389794E+02 -0.59154195200E+03  0.60619928497E+03  0.41800000000E+01 0.  1.
        -11    1    1    2    0    0  0.81134693228E+02  0.74013857064E+01 -0.15643935868E+03  0.17638279933E+03  0.00000000000E+00 0. -1.
         11    1    1    2    0    0  0.62281119510E+02 -0.53290487566E+02 -0.37377510947E+03  0.38265734852E+03  0.00000000000E+00 0.  1.
</event>
<event>
 7    1  0.2666594E-009  0.4581212E+02  0.7561462E-02  0.1469335E+00
          1   -1    0    0  501    0  0.00000000000E+00  0.00000000000E+00  0.16554052648E+02  0.16554052648E+02  0.00000000000E+00 0. -1.
         -1   -1    0    0    0  501 -0.00000000000E+00 -0.00000000000E+00 -0.81254257746E+03  0.81254257746E+03  0.00000000000E+00 0.  1.
         25    2    1    2    0    0 -0.13257520394E+02 -0.99414622431E+01 -0.62039828409E+03  0.63310215106E+03  0.12509879399E+03 0.  0.
          5    1    3    3  502    0 -0.20027909992E+02 -0.21493904085E+00 -0.62019666662E+03  0.62053407728E+03  0.41800000000E+01 0. -1.
         -5    1    3    3    0  502  0.67703895976E+01 -0.97265232023E+01 -0.20161746684E+00  0.12568073779E+02  0.41800000000E+01 0. -1.
        -11    1    1    2    0    0  0.35455079915E+02  0.77456780278E+01 -0.16883024763E+03  0.17268674163E+03  0.00000000000E+00 0.  1.
         11    1    1    2    0    0 -0.22197559521E+02  0.21957842153E+01 -0.67599930942E+01  0.23307737420E+02  0.00000000000E+00 0. -1.
</event>
<event>
 7    1  0.2666594E-009  0.8416075E+02  0.7561462E-02  0.1317642E+00
          2   -1    0    0  501    0  0.00000000000E+00  0.00000000000E+00  0.80186227695E+03  0.80186227695E+03  0.00000000000E+00 0. -1.
         -2   -1    0    0    0  501 -0.00000000000E+00 -0.00000000000E+00 -0.20762526461E+02  0.20762526461E+02  0.00000000000E+00 0.  1.
         25    2    1    2    0    0 -0.38883440743E+02 -0.26867515559E+02  0.59228481390E+03  0.60719268255E+03  0.12509143697E+03 0.  0.
          5    1    3    3  502    0  0.16986623775E+02  0.68251620806E+01  0.45234572944E+03  0.45273530850E+03  0.41800000000E+01 0. -1.
         -5    1    3    3    0  502 -0.55870064518E+02 -0.33692677639E+02  0.13993908446E+03  0.15445737404E+03  0.41800000000E+01 0. -1.
        -11    1    1    2    0    0 -0.19934438107E+02  0.12800337448E+02  0.83749897728E+01  0.25127095239E+02  0.00000000000E+00 0.  1.
         11    1    1    2    0    0  0.58817878850E+02  0.14067178110E+02  0.18043994681E+03  0.19030502562E+03  0.00000000000E+00 0. -1.
</event>
<event>
 7    1  0.2666594E-009  0.1394746E+03  0.7561462E-02  0.1214038E+00
          2   -1    0    0  501    0  0.00000000000E+00  0.00000000000E+00  0.98817616010E+03  0.98817616010E+03  0.00000000000E+00 0. -1.
         -2   -1    0    0    0  501 -0.00000000000E+00 -0.00000000000E+00 -0.23654269954E+02  0.23654269954E+02  0.00000000000E+00 0.  1.
         25    2    1    2    0    0 -0.10480174523E+03  0.15762228239E+02  0.56429456969E+03  0.58762936674E+03  0.12509219650E+03 0.  0.
          5    1    3    3  502    0 -0.24852552366E+02 -0.35487951167E+02  0.58148577623E+02  0.72634520145E+02  0.41800000000E+01 0.  1.
         -5    1    3    3    0  502 -0.79949192865E+02  0.51250179406E+02  0.50614599207E+03  0.51499484659E+03  0.41800000000E+01 0.  1.
        -11    1    1    2    0    0  0.74201865367E+02 -0.53722326404E+02  0.24968704088E+03  0.26596169567E+03  0.00000000000E+00 0.  1.
         11    1    1    2    0    0  0.30599879865E+02  0.37960098164E+02  0.15054027957E+03  0.15823936765E+03  0.00000000000E+00 0. -1.
</event>
<event>
 7    1  0.2666594E-009  0.1832088E+03  0.7561462E-02  0.1164733E+00
          2   -1    0    0  501    0  0.00000000000E+00  0.00000000000E+00  0.60024003813E+03  0.60024003813E+03  0.00000000000E+00 0. -1.
         -2   -1    0    0    0  501 -0.00000000000E+00 -0.00000000000E+00 -0.58619019992E+02  0.58619019992E+02  0.00000000000E+00 0.  1.
         25    2    1    2    0    0  0.14911764926E+03  0.32902119415E+02  0.29149445118E+03  0.35204316965E+03  0.12508699153E+03 0.  0.
          5    1    3    3  502    0 -0.55180763912E+01 -0.28674577496E+02  0.60382598025E+02  0.67202761147E+02  0.41800000000E+01 0.  1.
         -5    1    3    3    0  502  0.15463572565E+03  0.61576696910E+02  0.23111185315E+03  0.28484040850E+03  0.41800000000E+01 0.  1.
        -11    1    1    2    0    0 -0.15647705387E+03 -0.23112878737E+02  0.19880121897E+03  0.25404959795E+03  0.00000000000E+00 0.  1.
         11    1    1    2    0    0  0.73594046194E+01 -0.97892406775E+01  0.51325347982E+02  0.52766290517E+02  0.00000000000E+00 0. -1.
</event>
<event>
 7    1  0.2666594E-009  0.1277680E+03  0.7561462E-02  0.1230806E+00
         -1   -1    0    0    0  501 -0.00000000000E+00  0.00000000000E+00  0.28307147701E+02  0.28307147701E+02  0.00000000000E+00 0.  1.
          1   -1    0    0  501    0  0.00000000000E+00 -0.00000000000E+00 -0.71584385408E+03  0.71584385408E+03  0.00000000000E+00 0. -1.
         25    2    1    2    0    0  0.30681498113E+02  0.83462821239E+02 -0.43714407101E+03  0.46330376088E+03  0.12509212272E+03 0.  0.
          5    1    3    3  502    0 -0.17552311994E+02 -0.21159307979E+02 -0.33591145360E+02  0.43607767853E+02  0.41800000000E+01 0. -1.
         -5    1    3    3    0  502  0.48233810107E+02  0.10462212922E+03 -0.40355292565E+03  0.41969599303E+03  0.41800000000E+01 0. -1.
        -11    1    1    2    0    0 -0.33333918274E+02 -0.47279724852E+01 -0.24575376345E+02  0.41682765669E+02  0.00000000000E+00 0.  1.
         11    1    1    2    0    0  0.26524201616E+01 -0.78734848754E+02 -0.22581725902E+03  0.23916447523E+03  0.00000000000E+00 0. -1.
</event>
<event>
 7    1  0.2666594E-009  0.1463561E+03  0.7561462E-02  0.1205023E+00
         -1   -1    0    0    0  501 -0.00000000000E+00  0.00000000000E+00  0.60075375536E+02  0.60075375536E+02  0.00000000000E+00 0.  1.
          1   -1    0    0  501    0  0.00000000000E+00 -0.00000000000E+00 -0.82718704638E+03  0.82718704638E+03  0.00000000000E+00 0. -1.
         25    2    1    2    0    0  0.98297415342E+02  0.79828079025E+02 -0.10469725466E+03  0.20650460372E+03  0.12509089560E+03 0.  0.
          5    1    3    3  502    0  0.56586807798E+02  0.76951716831E+02 -0.12697520289E+03  0.15894592819E+03  0.41800000000E+01 0.  1.
         -5    1    3    3    0  502  0.41710607544E+02  0.28763621941E+01  0.22277948228E+02  0.47558675532E+02  0.41800000000E+01 0.  1.
        -11    1    1    2    0    0  0.70044816307E+01 -0.42941970113E+02 -0.14196309477E+03  0.14848096120E+03  0.00000000000E+00 0.  1.
         11    1    1    2    0    0 -0.10530189697E+03 -0.36886108912E+02 -0.52045132142E+03  0.53227685700E+03  0.00000000000E+00 0. -1.
</event>
<event>
 7    1  0.2666594E-009  0.1004468E+03  0.7561462E-02  0.1279359E+00
          2   -1    0    0  501    0  0.00000000000E+00  0.00000000000E+00  0.63580588688E+03  0.63580588688E+03  0.00000000000E+00 0. -1.
         -2   -1    0    0    0  501 -0.00000000000E+00 -0.00000000000E+00 -0.22577611514E+02  0.22577611514E+02  0.00000000000E+00 0.  1.
         25    2    1    2    0    0  0.38198732927E+01 -0.42824834858E+02  0.37665452657E+03  0.39920417158E+03  0.12508709087E+03 0.  0.
          5    1    3    3  502    0  0.44120120763E+02 -0.24439358760E+02  0.56012819530E+02  0.75490235557E+02  0.41800000000E+01 0. -1.
         -5    1    3    3    0  502 -0.40300247470E+02 -0.18385476098E+02  0.32064170704E+03  0.32371393602E+03  0.41800000000E+01 0. -1.
        -11    1    1    2    0    0 -0.51115701654E+01  0.74206780326E+02  0.17060824054E+03  0.18611809729E+03  0.00000000000E+00 0. -1.
         11    1    1    2    0    0  0.12916968727E+01 -0.31381945468E+02  0.65965508247E+02  0.73061229530E+02  0.00000000000E+00 0.  1.
</event>
<event>
 7    1  0.2666594E-009  0.8864364E+02  0.7561462E-02  0.1306170E+00
         -2   -1    0    0    0  501 -0.00000000000E+00  0.00000000000E+00  0.29644461248E+03  0.29644461248E+03  0.00000000000E+00 0.  1.
          2   -1    0    0  501    0  0.00000000000E+00 -0.00000000000E+00 -0.42385503003E+02  0.42385503003E+02  0.00000000000E+00 0. -1.
         25    2    1    2    0    0 -0.11510586010E+02 -0.30104283866E+01  0.10041252509E+03  0.16084850539E+03  0.12509200702E+03 0.  0.
          5    1    3    3  502    0 -0.41457476237E+02 -0.27045185438E+02 -0.36889873393E+01  0.49812101129E+02  0.41800000000E+01 0.  1.
         -5    1    3    3    0  502  0.29946890227E+02  0.24034757051E+02  0.10410151243E+03  0.11103640426E+03  0.41800000000E+01 0.  1.
        -11    1    1    2    0    0 -0.37912510715E+02 -0.70159686114E+01  0.54672924891E+02  0.66900754857E+02  0.00000000000E+00 0.  1.
         11    1    1    2    0    0  0.49423096725E+02  0.10026396998E+02  0.98973659495E+02  0.11108085524E+03  0.00000000000E+00 0. -1.
</event>
<event>
 7    1  0.2666594E-009  0.1951434E+03  0.7561462E-02  0.1153902E+00
          2   -1    0    0  501    0  0.00000000000E+00  0.00000000000E+00  0.25906673832E+03  0.25906673832E+03  0.00000000000E+00 0. -1.
         -2   -1    0    0    0  501 -0.00000000000E+00 -0.00000000000E+00 -0.17549752832E+03  0.17549752832E+03  0.00000000000E+00 0.  1.
         25    2    1    2    0    0 -0.15104661506E+03 -0.10354357482E+03  0.49252078570E+02  0.22717823035E+03  0.12509128384E+03 0.  0.
          5    1    3    3  502    0 -0.57025082069E+01 -0.16078700461E+02  0.54655704250E+02  0.57408724210E+02  0.41800000000E+01 0. -1.
         -5    1    3    3    0  502 -0.14534410685E+03 -0.87464874361E+02 -0.54036256801E+01  0.16976950614E+03  0.41800000000E+01 0. -1.
        -11    1    1    2    0    0  0.10197323312E+03  0.16760229387E+02  0.29946840397E+02  0.10759302400E+03  0.00000000000E+00 0. -1.
         11    1    1    2    0    0  0.49073381936E+02  0.86783345435E+02  0.43702910319E+01  0.99793012297E+02  0.00000000000E+00 0.  1.
</event>
<event>
 7    1  0.2666594E-009  0.1119444E+03  0.7561462E-02  0.1257011E+00
          3   -1    0    0  501    0  0.00000000000E+00  0.00000000000E+00  0.34936264607E+02  0.34936264607E+02  0.00000000000E+00 0. -1.
         -3   -1    0    0    0  501 -0.00000000000E+00 -0.00000000000E+00 -0.62232645410E+03  0.62232645410E+03  0.00000000000E+00 0.  1.
         25    2    1    2    0    0  0.34108869090E+02 -0.33228459558E+02 -0.47623539760E+03  0.49468745963E+03  0.12509189948E+03 0.  0.
          5    1    3    3  502    0  0.59321143719E+02  0.15059054930E+02 -0.12514672398E+03  0.13937341263E+03  0.41800000000E+01 0. -1.
         -5    1    3    3    0  502 -0.25212274629E+02 -0.48287514488E+02 -0.35108867362E+03  0.35531404699E+03  0.41800000000E+01 0. -1.
        -11    1    1    2    0    0  0.23949125597E+02 -0.18412256298E+02 -0.43856683910E+01  0.30525495673E+02  0.00000000000E+00 0.  1.
         11    1    1    2    0    0 -0.58057994687E+02  0.51640715856E+02 -0.10676912351E+03  0.13204976341E+03  0.00000000000E+00 0. -1.
</event>
<event>
 7    1  0.2666594E-009  0.1209991E+03  0.7561462E-02  0.1241458E+00
          2   -1    0    0  501    0  0.00000000000E+00  0.00000000000E+00  0.46120116656E+03  0.46120116656E+03  0.00000000000E+00 0. -1.
         -2   -1    0    0    0  501 -0.00000000000E+00 -0.00000000000E+00 -0.34246281972E+02  0.34246281972E+02  0.00000000000E+00 0.  1.
         25    2    1    2    0    0  0.77261068033E+01  0.62182472859E+02  0.28701028101E+03  0.31929111923E+03  0.12508223197E+03 0.  0.
          5    1    3    3  502    0 -0.56732204641E+02  0.32317704175E+02  0.10326039094E+03  0.12224220950E+03  0.41800000000E+01 0. -1.
         -5    1    3    3    0  502  0.64458311444E+02  0.29864768684E+02  0.18374989007E+03  0.19704890973E+03  0.41800000000E+01 0. -1.
        -11    1    1    2    0    0  0.35185765861E+02 -0.76326015234E+01  0.62772734568E+02  0.72365122334E+02  0.00000000000E+00 0. -1.
         11    1    1    2    0    0 -0.42911872665E+02 -0.54549871336E+02  0.77171869008E+02  0.10379120697E+03  0.00000000000E+00 0.  1.
</event>
<event>
 7    1  0.2666594E-009  0.9553528E+02  0.7561462E-02  0.1289975E+00
          3   -1    0    0  501    0  0.00000000000E+00  0.00000000000E+00  0.38278907017E+03  0.38278907017E+03  0.00000000000E+00 0. -1.
         -3   -1    0    0    0  501 -0.00000000000E+00 -0.00000000000E+00 -0.32496031392E+02  0.32496031392E+02  0.00000000000E+00 0.  1.
         25    2    1    2    0    0 -0.94887122888E+01  0.72760839902E+01  0.24603664081E+03  0.27626621109E+03  0.12508402660E+03 0.  0.
          5    1    3    3  502    0 -0.64223492721E+02 -0.14451786429E+02  0.14381980538E+03  0.15822490312E+03  0.41800000000E+01 0.  1.
         -5    1    3    3    0  502  0.54734780432E+02  0.21727870419E+02  0.10221683543E+03  0.11804130797E+03  0.41800000000E+01 0.  1.
        -11    1    1    2    0    0 -0.25595040262E+02 -0.15651283718E+02  0.14138164826E+01  0.30034440982E+02  0.00000000000E+00 0.  1.
         11    1    1    2    0    0  0.35083752551E+02  0.83751997278E+01  0.10284258148E+03  0.10898444949E+03  0.00000000000E+00 0. -1.
</event>
<event>
 7    1  0.2666594E-009  0.1320713E+03  0.7561462E-02  0.1224414E+00
          2   -1    0    0  501    0  0.00000000000E+00  0.00000000000E+00  0.37922500370E+03  0.37922500370E+03  0.00000000000E+00 0. -1.
         -2   -1    0    0    0  501 -0.00000000000E+00 -0.00000000000E+00 -0.29940412421E+03  0.29940412421E+03  0.00000000000E+00 0.  1.
         25    2    1    2    0    0  0.92215901157E+02  0.45696607338E+02  0.34420450547E+03  0.38041487185E+03  0.12508709283E+03 0.  0.
          5    1    3    3  502    0 -0.28485405968E+02  0.16209346997E+02  0.40616264677E+02  0.52357565256E+02  0.41800000000E+01 0.  1.
         -5    1    3    3    0  502  0.12070130712E+03  0.29487260341E+02  0.30358824079E+03  0.32805730660E+03  0.41800000000E+01 0.  1.
        -11    1    1    2    0    0 -0.72878432110E+02 -0.21857594175E+02 -0.25501067051E+03  0.26611926343E+03  0.00000000000E+00 0.  1.
         11    1    1    2    0    0 -0.19337469047E+02 -0.23839013162E+02 -0.93729554638E+01  0.32094992628E+02  0.00000000000E+00 0. -1.
</event>
<event>
 7    1  0.2666594E-009  0.9465895E+02  0.7561462E-02  0.1291946E+00
         -1   -1    0    0    0  501 -0.00000000000E+00  0.00000000000E+00  0.17904900330E+03  0.17904900330E+03  0.00000000000E+00 0.  1.
          1   -1    0    0  501    0  0.00000000000E+00 -0.00000000000E+00 -0.87394231147E+02  0.87394231147E+02  0.00000000000E+00 0. -1.
         25    2    1    2    0    0  0.40550504727E+02  0.16204783766E+02  0.98954962704E+02  0.16536505998E+03  0.12508629009E+03 0.  0.
          5    1    3    3  502    0  0.19906399061E+02  0.60106345446E+02  0.10393882467E+02  0.64300409635E+02  0.41800000000E+01 0.  1.
         -5    1    3    3    0  502  0.20644105666E+02 -0.43901561681E+02  0.88561080237E+02  0.10106465035E+03  0.41800000000E+01 0.  1.
        -11    1    1    2    0    0  0.91688085127E+00  0.21263151295E+02  0.27853645069E+02  0.35054069908E+02  0.00000000000E+00 0.  1.
         11    1    1    2    0    0 -0.41467385578E+02 -0.37467935060E+02 -0.35153835618E+02  0.66024104561E+02  0.00000000000E+00 0. -1.
</event>
<event>
 7    1  0.2666594E-009  0.1459255E+03  0.7561462E-02  0.1205571E+00
         -1   -1    0    0    0  501 -0.00000000000E+00  0.00000000000E+00  0.56863565416E+02  0.56863565416E+02  0.00000000000E+00 0.  1.
          1   -1    0    0  501    0  0.00000000000E+00 -0.00000000000E+00 -0.98174798565E+03  0.98174798565E+03  0.00000000000E+00 0. -1.
         25    2    1    2    0    0 -0.75326156279E+02 -0.63945261410E+02 -0.88525788332E+03  0.89949560757E+03  0.12509117387E+03 0.  0.
          5    1    3    3  502    0 -0.10847276919E+01 -0.82007355209E+02 -0.41410684300E+03  0.42217097574E+03  0.41800000000E+01 0.  1.
         -5    1    3    3    0  502 -0.74241428587E+02  0.18062093798E+02 -0.47115104032E+03  0.47732463182E+03  0.41800000000E+01 0.  1.
        -11    1    1    2    0    0 -0.27865250660E+01  0.54449847441E+02 -0.13047812932E+02  0.56060646006E+02  0.00000000000E+00 0.  1.
         11    1    1    2    0    0  0.78112681345E+02  0.94954139697E+01 -0.26578723987E+02  0.83055297496E+02  0.00000000000E+00 0. -1.
</event>
<event>
 7    1  0.2666594E-009  0.9523400E+02  0.7561462E-02  0.1290650E+00
         -2   -1    0    0    0  501 -0.00000000000E+00  0.00000000000E+00  0.45871180201E+02  0.45871180201E+02  0.00000000000E+00 0. -1.
          2   -1    0    0  501    0  0.00000000000E+00 -0.00000000000E+00 -0.33790529115E+03  0.33790529115E+03  0.00000000000E+00 0.  1.
         25    2    1    2    0    0  0.30715040737E+02  0.35082696123E+02 -0.22868012736E+03  0.26479463316E+03  0.12508951915E+03 0.  0.
          5    1    3    3  502    0 -0.22709608520E+02  0.66142595306E+02 -0.10145026222E+03  0.12328908037E+03  0.41800000000E+01 0.  1.
         -5    1    3    3    0  502  0.53424649257E+02 -0.31059899183E+02 -0.12722986515E+03  0.14150555279E+03  0.41800000000E+01 0.  1.
        -11    1    1    2    0    0 -0.16249761447E+02 -0.40015308565E+02 -0.83313830539E+02  0.93842815525E+02  0.00000000000E+00 0.  1.
         11    1    1    2    0    0 -0.14465279289E+02  0.49326124414E+01  0.19959846954E+02  0.25139022671E+02  0.00000000000E+00 0. -1.
</event>
<event>
 7    1  0.2666594E-009  0.2185064E+03  0.7561462E-02  0.1135002E+00
          2   -1    0    0  501    0  0.00000000000E+00  0.00000000000E+00  0.61889242138E+02  0.61889242138E+02  0.00000000000E+00 0. -1.
         -2   -1    0    0    0  501 -0.00000000000E+00 -0.00000000000E+00 -0.82865201135E+03  0.82865201135E+03  0.00000000000E+00 0.  1.
         25    2    1    2    0    0 -0.12205429760E+02  0.17602462936E+03 -0.28543712026E+03  0.35812919989E+03  0.12509409073E+03 0.  0.
          5    1    3    3  502    0 -0.15450524262E+02 -0.16223109708E+02 -0.43072666355E+02  0.48730226508E+02  0.41800000000E+01 0.  1.
         -5    1    3    3    0  502  0.32450945023E+01  0.19224773907E+03 -0.24236445390E+03  0.30939897338E+03  0.41800000000E+01 0.  1.
        -11    1    1    2    0    0  0.73658887994E+02 -0.95315173069E+02 -0.31910982175E+03  0.34108898008E+03  0.00000000000E+00 0.  1.
         11    1    1    2    0    0 -0.61453458234E+02 -0.80709456289E+02 -0.16221582720E+03  0.19132307351E+03  0.00000000000E+00 0. -1.
</event>
<event>
 7    1  0.2666594E-009  0.9688171E+02  0.7561462E-02  0.1286993E+00
         -1   -1    0    0    0  501 -0.00000000000E+00  0.00000000000E+00  0.71028527943E+02  0.71028527943E+02  0.00000000000E+00 0.  1.
          1   -1    0    0  501    0  0.00000000000E+00 -0.00000000000E+00 -0.18832351358E+03  0.18832351358E+03  0.00000000000E+00 0. -1.
         25    2    1    2    0    0  0.15025703641E+02  0.27384178186E+02 -0.99245971641E+02  0.16269356912E+03  0.12507505571E+03 0.  0.
          5    1    3    3  502    0  0.51066972570E+02 -0.30354980508E+02 -0.57234202796E+02  0.82598346828E+02  0.41800000000E+01 0. -1.
         -5    1    3    3    0  502 -0.36041268929E+02  0.57739158694E+02 -0.42011768844E+02  0.80095222293E+02  0.41800000000E+01 0. -1.
        -11    1    1    2    0    0 -0.34567172114E+02 -0.30656128243E+02  0.22602838836E+02  0.51435162197E+02  0.00000000000E+00 0.  1.
         11    1    1    2    0    0  0.19541468473E+02  0.32719500570E+01 -0.40651852832E+02  0.45223310205E+02  0.00000000000E+00 0. -1.
</event>
<event>
 7    1  0.2666594E-009  0.1217111E+03  0.7561462E-02  0.1240301E+00
          2   -1    0    0  501    0  0.00000000000E+00  0.00000000000E+00  0.20528999670E+03  0.20528999670E+03  0.00000000000E+00 0. -1.
         -2   -1    0    0    0  501 -0.00000000000E+00 -0.00000000000E+00 -0.11394852399E+03  0.11394852399E+03  0.00000000000E+00 0.  1.
         25    2    1    2    0    0  0.38543737096E+02 -0.10060506900E+03  0.56267480947E+02  0.17441107514E+03  0.12508474784E+03 0.  0.
          5    1    3    3  502    0 -0.66428931791E+01 -0.75314937785E+02 -0.23440361067E+02  0.79267842221E+02  0.41800000000E+01 0. -1.
         -5    1    3    3    0  502  0.45186630275E+02 -0.25290131216E+02  0.79707842014E+02  0.95143232923E+02  0.41800000000E+01 0. -1.
        -11    1    1    2    0    0 -0.23041225982E+02  0.12349970954E+02 -0.25617826395E+02  0.36601815617E+02  0.00000000000E+00 0.  1.
         11    1    1    2    0    0 -0.15502511114E+02  0.88255098048E+02  0.60691818155E+02  0.10822562993E+03  0.00000000000E+00 0. -1.
</event>
<event>
 7    1  0.2666594E-009  0.2624654E+03  0.7561462E-02  0.1105671E+00
          2   -1    0    0  501    0  0.00000000000E+00  0.00000000000E+00  0.11928552594E+04  0.11928552594E+04  0.00000000000E+00 0.  1.
         -2   -1    0    0    0  501 -0.00000000000E+00 -0.00000000000E+00 -0.61415433548E+02  0.61415433548E+02  0.00000000000E+00 0. -1.
         25    2    1    2    0    0  0.83569205834E+02 -0.23318068208E+03  0.59535118290E+03  0.65684707137E+03  0.12509197229E+03 0.  0.
          5    1    3    3  502    0  0.88595617554E+02 -0.10441433448E+03  0.21218141830E+03  0.25256675031E+03  0.41800000000E+01 0.  1.
         -5    1    3    3    0  502 -0.50264117198E+01 -0.12876634761E+03  0.38316976460E+03  0.40428032106E+03  0.41800000000E+01 0.  1.
        -11    1    1    2    0    0 -0.18382933821E+02  0.15976717801E+03  0.27619860102E+03  0.31960780752E+03  0.00000000000E+00 0. -1.
         11    1    1    2    0    0 -0.65186272013E+02  0.73413504072E+02  0.25989004189E+03  0.27781581401E+03  0.00000000000E+00 0.  1.
</event>
<event>
 7    1  0.2666594E-009  0.1765725E+03  0.7561462E-02  0.1171162E+00
          2   -1    0    0  501    0  0.00000000000E+00  0.00000000000E+00  0.16013425702E+03  0.16013425702E+03  0.00000000000E+00 0. -1.
         -2   -1    0    0    0  501 -0.00000000000E+00 -0.00000000000E+00 -0.21549990349E+03  0.21549990349E+03  0.00000000000E+00 0.  1.
         25    2    1    2    0    0  0.28503045989E+02  0.14621670687E+03 -0.51563168260E+02  0.20124204684E+03  0.12509137499E+03 0.  0.
          5    1    3    3  502    0 -0.37564586852E+01 -0.22239915890E+02 -0.69287052114E+01  0.23962558223E+02  0.41800000000E+01 0.  1.
         -5    1    3    3    0  502  0.32259504675E+02  0.16845662276E+03 -0.44634463049E+02  0.17727948862E+03  0.41800000000E+01 0.  1.
        -11    1    1    2    0    0  0.11526659562E+02 -0.63602581488E+01  0.22971405770E+02  0.26476447032E+02  0.00000000000E+00 0. -1.
         11    1    1    2    0    0 -0.40029705551E+02 -0.13985644872E+03 -0.26773883978E+02  0.14791566664E+03  0.00000000000E+00 0.  1.
</event>
<event>
 7    1  0.2666594E-009  0.1161116E+03  0.7561462E-02  0.1249653E+00
          2   -1    0    0  501    0  0.00000000000E+00  0.00000000000E+00  0.20888307831E+03  0.20888307831E+03  0.00000000000E+00 0.  1.
         -2   -1    0    0    0  501 -0.00000000000E+00 -0.00000000000E+00 -0.79811360542E+02  0.79811360542E+02  0.00000000000E+00 0. -1.
         25    2    1    2    0    0  0.61781845268E+02  0.51940791231E+02  0.66591127035E+02  0.16308748381E+03  0.12509319316E+03 0.  0.
          5    1    3    3  502    0  0.23528267593E+02  0.77647311973E+02  0.80896562922E+02  0.11464907643E+03  0.41800000000E+01 0. -1.
         -5    1    3    3    0  502  0.38253577675E+02 -0.25706520742E+02 -0.14305435887E+02  0.48438407380E+02  0.41800000000E+01 0. -1.
        -11    1    1    2    0    0  0.25565615667E+01  0.13023569730E+02  0.21824794262E+02  0.25543512290E+02  0.00000000000E+00 0.  1.
         11    1    1    2    0    0 -0.64338406835E+02 -0.64964360961E+02  0.40655796467E+02  0.10006344275E+03  0.00000000000E+00 0. -1.
</event>
<event>
 7    1  0.2666594E-009  0.3266594E+03  0.7561462E-02  0.1072625E+00
          2   -1    0    0  501    0  0.00000000000E+00  0.00000000000E+00  0.15004386936E+04  0.15004386936E+04  0.00000000000E+00 0.  1.
         -2   -1    0    0    0  501 -0.00000000000E+00 -0.00000000000E+00 -0.79754422053E+02  0.79754422053E+02  0.00000000000E+00 0. -1.
         25    2    1    2    0    0  0.31745594068E+03  0.70748859075E+02  0.82144186462E+03  0.89229918296E+03  0.12508964635E+03 0.  0.
          5    1    3    3  502    0  0.27470993545E+02 -0.48916674109E+00  0.13430300250E+02  0.30866488872E+02  0.41800000000E+01 0.  1.
         -5    1    3    3    0  502  0.28998494714E+03  0.71238025816E+02  0.80801156437E+03  0.86143269409E+03  0.41800000000E+01 0.  1.
        -11    1    1    2    0    0 -0.11666989803E+03 -0.99088092445E+01  0.30340335922E+03  0.32521323465E+03  0.00000000000E+00 0.  1.
         11    1    1    2    0    0 -0.20078604265E+03 -0.60840049831E+02  0.29583904773E+03  0.36268069807E+03  0.00000000000E+00 0. -1.
</event>
<event>
 7    1  0.2666594E-009  0.8600793E+02  0.7561462E-02  0.1312818E+00
         -2   -1    0    0    0  501 -0.00000000000E+00  0.00000000000E+00  0.14726909144E+02  0.14726909144E+02  0.00000000000E+00 0.  1.
          2   -1    0    0  501    0  0.00000000000E+00 -0.00000000000E+00 -0.10276247741E+04  0.10276247741E+04  0.00000000000E+00 0. -1.
         25    2    1    2    0    0  0.32431664188E+02 -0.41992301111E+02 -0.66054798302E+03  0.67437835192E+03  0.12508939794E+03 0.  0.
          5    1    3    3  502    0  0.21635442208E+02  0.15703443366E+02 -0.53542579860E+03  0.53610908284E+03  0.41800000000E+01 0. -1.
         -5    1    3    3    0  502  0.10796221980E+02 -0.57695744476E+02 -0.12512218442E+03  0.13826926908E+03  0.41800000000E+01 0. -1.
        -11    1    1    2    0    0  0.21364078694E+02  0.11069430730E+02 -0.24635621512E+02  0.34436463268E+02  0.00000000000E+00 0.  1.
         11    1    1    2    0    0 -0.53795742882E+02  0.30922870381E+02 -0.32771426044E+03  0.33353686807E+03  0.00000000000E+00 0. -1.
</event>
<event>
 7    1  0.2666594E-009  0.9701175E+02  0.7561462E-02  0.1286708E+00
         -2   -1    0    0    0  501 -0.00000000000E+00  0.00000000000E+00  0.39156718673E+02  0.39156718673E+02  0.00000000000E+00 0. -1.
          2   -1    0    0  501    0  0.00000000000E+00 -0.00000000000E+00 -0.39412071087E+03  0.39412071087E+03  0.00000000000E+00 0.  1.
         25    2    1    2    0    0 -0.15366131299E+02 -0.53033232141E+02 -0.23452571935E+03  0.27147471776E+03  0.12509023799E+03 0.  0.
          5    1    3    3  502    0  0.24562228818E+02 -0.92633877037E+01 -0.20203357106E+03  0.20377475229E+03  0.41800000000E+01 0.  1.
         -5    1    3    3    0  502 -0.39928360116E+02 -0.43769844438E+02 -0.32492148297E+02  0.67699965470E+02  0.41800000000E+01 0.  1.
        -11    1    1    2    0    0  0.48374092566E+02  0.57048983928E+02 -0.83045015888E+02  0.11176365269E+03  0.00000000000E+00 0.  1.
         11    1    1    2    0    0 -0.33007961268E+02 -0.40157517866E+01 -0.37393256959E+02  0.50039059098E+02  0.00000000000E+00 0. -1.
</event>
<event>
 7    1  0.2666594E-009  0.1269424E+03  0.7561462E-02  0.1232064E+00
         -1   -1    0    0    0  501 -0.00000000000E+00  0.00000000000E+00  0.19107143236E+03  0.19107143236E+03  0.00000000000E+00 0.  1.
          1   -1    0    0  501    0  0.00000000000E+00 -0.00000000000E+00 -0.91802996442E+02  0.91802996442E+02  0.00000000000E+00 0. -1.
         25    2    1    2    0    0 -0.69144683580E+02 -0.34785775521E+02  0.35220936925E+02  0.15125749479E+03  0.12508907980E+03 0.  0.
          5    1    3    3  502    0  0.36163174164E+02 -0.11105643497E+02  0.14682965613E+01  0.38088564923E+02  0.41800000000E+01 0.  1.
         -5    1    3    3    0  502 -0.10530785774E+03 -0.23680132024E+02  0.33752640363E+02  0.11316892986E+03  0.41800000000E+01 0.  1.
        -11    1    1    2    0    0  0.42358688731E+02  0.58368017121E+02  0.63242331270E+02  0.95920156371E+02  0.00000000000E+00 0.  1.
         11    1    1    2    0    0  0.26785994849E+02 -0.23582241600E+02  0.80516772070E+00  0.35696777641E+02  0.00000000000E+00 0. -1.
</event>
<event>
 7    1  0.2666594E-009  0.1044313E+03  0.7561462E-02  0.1271244E+00
          2   -1    0    0  501    0  0.00000000000E+00  0.00000000000E+00  0.78971446983E+03  0.78971446983E+03  0.00000000000E+00 0. -1.
         -2   -1    0    0    0  501 -0.00000000000E+00 -0.00000000000E+00 -0.28153574758E+02  0.28153574758E+02  0.00000000000E+00 0.  1.
         25    2    1    2    0    0  0.45162752540E+01  0.79965105048E+02  0.23402636061E+03  0.27718591159E+03  0.12509547297E+03 0.  0.
          5    1    3    3  502    0  0.21549986926E+02  0.27360406160E+02 -0.16079571246E+01  0.35114835723E+02  0.41800000000E+01 0.  1.
         -5    1    3    3    0  502 -0.17033711672E+02  0.52604698888E+02  0.23563431773E+03  0.24207107587E+03  0.41800000000E+01 0.  1.
        -11    1    1    2    0    0  0.18640362720E+02 -0.90852221753E+02  0.40086632182E+03  0.41145521906E+03  0.00000000000E+00 0.  1.
         11    1    1    2    0    0 -0.23156637974E+02  0.10887116705E+02  0.12666821264E+03  0.12922691394E+03  0.00000000000E+00 0. -1.
</event>
<event>
 7    1  0.2666594E-009  0.1091361E+03  0.7561462E-02  0.1262178E+00
          1   -1    0    0  501    0  0.00000000000E+00  0.00000000000E+00  0.39261045952E+03  0.39261045952E+03  0.00000000000E+00 0. -1.
         -1   -1    0    0    0  501 -0.00000000000E+00 -0.00000000000E+00 -0.33957658757E+02  0.33957658757E+02  0.00000000000E+00 0.  1.
         25    2    1    2    0    0 -0.26584471224E+02  0.37581450996E+01  0.25838519830E+03  0.28832521895E+03  0.12509062082E+03 0.  0.
          5    1    3    3  502    0 -0.26458341916E+02  0.60699513810E+02  0.10041804574E+03  0.12035668300E+03  0.41800000000E+01 0.  1.
         -5    1    3    3    0  502 -0.12612930752E+00 -0.56941368711E+02  0.15796715256E+03  0.16796853594E+03  0.41800000000E+01 0.  1.
        -11    1    1    2    0    0 -0.27899092294E+02 -0.23906356170E+02  0.44622048696E+02  0.57801387925E+02  0.00000000000E+00 0.  1.
         11    1    1    2    0    0  0.54483563518E+02  0.20148211071E+02  0.55645553772E+02  0.80441511408E+02  0.00000000000E+00 0. -1.
</event>
<event>
 7    1  0.2666594E-009  0.2117342E+03  0.7561462E-02  0.1140200E+00
         -1   -1    0    0    0  501 -0.00000000000E+00  0.00000000000E+00  0.42270925449E+02  0.42270925449E+02  0.00000000000E+00 0.  1.
          1   -1    0    0  501    0  0.00000000000E+00 -0.00000000000E+00 -0.14485564039E+04  0.14485564039E+04  0.00000000000E+00 0. -1.
         25    2    1    2    0    0  0.12772672607E+03 -0.15300818381E+03 -0.10211293139E+04  0.10478923790E+04  0.12509093221E+03 0.  0.
          5    1    3    3  502    0  0.14177423717E+03 -0.13700770189E+03 -0.99286542317E+03  0.10122599793E+04  0.41800000000E+01 0.  1.
         -5    1    3    3    0  502 -0.14047511093E+02 -0.16000481919E+02 -0.28263890776E+02  0.35632399742E+02  0.41800000000E+01 0.  1.
        -11    1    1    2    0    0 -0.97377273053E+01  0.40080038790E+02 -0.15712841942E+03  0.16245175602E+03  0.00000000000E+00 0. -1.
         11    1    1    2    0    0 -0.11798899877E+03  0.11292814502E+03 -0.22802774506E+03  0.28048319431E+03  0.00000000000E+00 0.  1.
</event>
<event>
 7    1  0.2666594E-009  0.8505188E+02  0.7561462E-02  0.1315297E+00
          1   -1    0    0  501    0  0.00000000000E+00  0.00000000000E+00  0.81898464672E+02  0.81898464672E+02  0.00000000000E+00 0.  1.
         -1   -1    0    0    0  501 -0.00000000000E+00 -0.00000000000E+00 -0.19212148894E+03  0.19212148894E+03  0.00000000000E+00 0. -1.
         25    2    1    2    0    0 -0.20808583149E+01 -0.26166690785E+01 -0.13655222587E+03  0.18521399259E+03  0.12508611328E+03 0.  0.
          5    1    3    3  502    0  0.57354041808E+02  0.11810989756E+02 -0.40701760614E+02  0.71435924491E+02  0.41800000000E+01 0.  1.
         -5    1    3    3    0  502 -0.59434900123E+02 -0.14427658835E+02 -0.95850465254E+02  0.11377806810E+03  0.41800000000E+01 0.  1.
        -11    1    1    2    0    0 -0.10821807508E+02  0.23314374448E+02  0.49111231919E+02  0.55430899995E+02  0.00000000000E+00 0.  1.
         11    1    1    2    0    0  0.12902665823E+02 -0.20697705369E+02 -0.22782030323E+02  0.33375061026E+02  0.00000000000E+00 0. -1.
</event>
<event>
 7    1  0.2666594E-009  0.2086023E+03  0.7561462E-02  0.1142678E+00
         -2   -1    0    0    0  501 -0.00000000000E+00  0.00000000000E+00  0.79160710584E+02  0.79160710584E+02  0.00000000000E+00 0.  1.
          2   -1    0    0  501    0  0.00000000000E+00 -0.00000000000E+00 -0.69498263948E+03  0.69498263948E+03  0.00000000000E+00 0. -1.
         25    2    1    2    0    0 -0.11080808232E+03  0.15610720160E+03 -0.45046635378E+03  0.50519098645E+03  0.12510038929E+03 0.  0.
          5    1    3    3  502    0 -0.12544929347E+03  0.15870939128E+03 -0.35614513758E+03  0.40961326582E+03  0.41800000000E+01 0.  1.
         -5    1    3    3    0  502  0.14641211146E+02 -0.26021896842E+01 -0.94321216201E+02  0.95577720629E+02  0.41800000000E+01 0.  1.
        -11    1    1    2    0    0  0.69381219716E+02 -0.13746994594E+03 -0.83078177879E+02  0.17496777797E+03  0.00000000000E+00 0.  1.
         11    1    1    2    0    0  0.41426862607E+02 -0.18637255657E+02 -0.82277397237E+02  0.93984585651E+02  0.00000000000E+00 0. -1.
</event>
<event>
 7    1  0.2666594E-009  0.1197069E+03  0.7561462E-02  0.1243581E+00
          3   -1    0    0  501    0  0.00000000000E+00  0.00000000000E+00  0.12663943434E+03  0.12663943434E+03  0.00000000000E+00 0. -1.
         -3   -1    0    0    0  501 -0.00000000000E+00 -0.00000000000E+00 -0.16437986911E+03  0.16437986911E+03  0.00000000000E+00 0.  1.
         25    2    1    2    0    0 -0.93574602536E+02 -0.11340468770E+02 -0.23463656058E+02  0.15838100719E+03  0.12509671383E+03 0.  0.
          5    1    3    3  502    0 -0.74183531822E+02  0.15956548605E+02 -0.68360428962E+02  0.10221755468E+03  0.41800000000E+01 0.  1.
         -5    1    3    3    0  502 -0.19391070713E+02 -0.27297017375E+02  0.44896772904E+02  0.56163452512E+02  0.41800000000E+01 0.  1.
        -11    1    1    2    0    0  0.37660613265E+02  0.49340284531E+02 -0.18876281557E+02  0.64877572970E+02  0.00000000000E+00 0.  1.
         11    1    1    2    0    0  0.55913989271E+02 -0.37999815761E+02  0.45995028495E+01  0.67760723288E+02  0.00000000000E+00 0. -1.
</event>
<event>
 7    1  0.2666594E-009  0.1011507E+03  0.7561462E-02  0.1277895E+00
          1   -1    0    0  501    0  0.00000000000E+00  0.00000000000E+00  0.31659286117E+03  0.31659286117E+03  0.00000000000E+00 0.  1.
         -1   -1    0    0    0  501 -0.00000000000E+00 -0.00000000000E+00 -0.46310462583E+02  0.46310462583E+02  0.00000000000E+00 0. -1.
         25    2    1    2    0    0  0.18201413789E+02 -0.41005167618E+02  0.18703113739E+03  0.22943482126E+03  0.12508787158E+03 0.  0.
          5    1    3    3  502    0  0.41306388955E+02  0.30822601866E+02  0.10988830669E+03  0.12144613169E+03  0.41800000000E+01 0. -1.
         -5    1    3    3    0  502 -0.23104975166E+02 -0.71827769484E+02  0.77142830705E+02  0.10798868957E+03  0.41800000000E+01 0. -1.
        -11    1    1    2    0    0 -0.29334976606E+02  0.51792362476E+02  0.96296468435E+02  0.11320777136E+03  0.00000000000E+00 0.  1.
         11    1    1    2    0    0  0.11133562817E+02 -0.10787194858E+02 -0.13045207246E+02  0.20260731132E+02  0.00000000000E+00 0. -1.
</event>
<event>
 7    1  0.2666594E-009  0.9963464E+02  0.7561462E-02  0.1281066E+00
          1   -1    0    0  501    0  0.00000000000E+00  0.00000000000E+00  0.28523296300E+03  0.28523296300E+03  0.00000000000E+00 0. -1.
         -1   -1    0    0    0  501 -0.00000000000E+00 -0.00000000000E+00 -0.64421705202E+02  0.64421705202E+02  0.00000000000E+00 0.  1.
         25    2    1    2    0    0 -0.43722186834E+02  0.62710038587E+02  0.82500204225E+02  0.16821567133E+03  0.12508417095E+03 0.  0.
          5    1    3    3  502    0 -0.46245745850E+02  0.38579799432E+02 -0.19378890553E+02  0.63404130248E+02  0.41800000000E+01 0. -1.
         -5    1    3    3    0  502  0.25235590162E+01  0.24130239155E+02  0.10187909478E+03  0.10481154108E+03  0.41800000000E+01 0. -1.
        -11    1    1    2    0    0  0.68731290447E+02 -0.55241626082E+02  0.12245356748E+03  0.15089898518E+03  0.00000000000E+00 0. -1.
         11    1    1    2    0    0 -0.25009103613E+02 -0.74684125054E+01  0.15857486085E+02  0.30540011686E+02  0.00000000000E+00 0.  1.
</event>
<event>
 7    1  0.2666594E-009  0.9576074E+02  0.7561462E-02  0.1289472E+00
          1   -1    0    0  501    0  0.00000000000E+00  0.00000000000E+00  0.56412976400E+02  0.56412976400E+02  0.00000000000E+00 0. -1.
         -1   -1    0    0    0  501 -0.00000000000E+00 -0.00000000000E+00 -0.23743398517E+03  0.23743398517E+03  0.00000000000E+00 0.  1.
         25    2    1    2    0    0 -0.30202720416E+02 -0.11454147772E+02 -0.66045386124E+02  0.14509653864E+03  0.12509041000E+03 0.  0.
          5    1    3    3  502    0  0.26991770410E+02  0.21114281693E+02 -0.71012807167E+02  0.78959861595E+02  0.41800000000E+01 0. -1.
         -5    1    3    3    0  502 -0.57194490826E+02 -0.32568429464E+02  0.49674210437E+01  0.66136677044E+02  0.41800000000E+01 0. -1.
        -11    1    1    2    0    0  0.57154822290E+02  0.23153817701E+02 -0.94859903834E+02  0.11314227477E+03  0.00000000000E+00 0.  1.
         11    1    1    2    0    0 -0.26952101874E+02 -0.11699669929E+02 -0.20115718810E+02  0.35608148157E+02  0.00000000000E+00 0. -1.
</event>
<event>
 7    1  0.2666594E-009  0.1052972E+03  0.7561462E-02  0.1269535E+00
         -3   -1    0    0    0  501 -0.00000000000E+00  0.00000000000E+00  0.26137445774E+02  0.26137445774E+02  0.00000000000E+00 0.  1.
          3   -1    0    0  501    0  0.00000000000E+00 -0.00000000000E+00 -0.55209876349E+03  0.55209876349E+03  0.00000000000E+00 0. -1.
         25    2    1    2    0    0  0.80768142112E+01 -0.44164974429E+02 -0.23480709388E+03  0.26980993741E+03  0.12508897270E+03 0.  0.
          5    1    3    3  502    0  0.66185277210E+02 -0.26333058708E+02 -0.11357761501E+03  0.13413153221E+03  0.41800000000E+01 0.  1.
         -5    1    3    3    0  502 -0.58108462999E+02 -0.17831915721E+02 -0.12122947887E+03  0.13567840520E+03  0.41800000000E+01 0.  1.
        -11    1    1    2    0    0  0.81933647514E+01 -0.14924363346E+02 -0.81756615388E+01  0.18886749028E+02  0.00000000000E+00 0.  1.
         11    1    1    2    0    0 -0.16270178963E+02  0.59089337775E+02 -0.28297856229E+03  0.28953952283E+03  0.00000000000E+00 0. -1.
</event>
<event>
 7    1  0.2876850E-009  0.1309339E+03  0.7561462E-02  0.1226076E+00
          2   -1    0    0  501    0  0.00000000000E+00  0.00000000000E+00  0.13568036720E+04  0.13568036720E+04  0.00000000000E+00 0. -1.
         -2   -1    0    0    0  501 -0.00000000000E+00 -0.00000000000E+00 -0.13569619848E+02  0.13569619848E+02  0.00000000000E+00 0.  1.
         25    2    1    2    0    0 -0.71011460022E+02  0.39633208537E+02  0.71851912579E+03  0.73384607550E+03  0.12508760821E+03 0.  0.
          5    1    3    3  502    0  0.97304631382E+01 -0.30898997261E+02  0.30078990708E+03  0.30255821018E+03  0.41800000000E+01 0.  1.
         -5    1    3    3    0  502 -0.80741923161E+02  0.70532205798E+02  0.41772921871E+03  0.43128786532E+03  0.41800000000E+01 0.  1.
        -11    1    1    2    0    0  0.86765916048E+02 -0.87030780534E+01  0.46054388113E+03  0.46872671591E+03  0.00000000000E+00 0. -1.
         11    1    1    2    0    0 -0.15754456026E+02 -0.30930130484E+02  0.16417104518E+03  0.16780050039E+03  0.00000000000E+00 0.  1.
</event>
<event>
 7    1  0.2666594E-009  0.1059653E+03  0.7561462E-02  0.1268229E+00
          4   -1    0    0  501    0  0.00000000000E+00  0.00000000000E+00  0.14209189378E+02  0.14209189378E+02  0.00000000000E+00 0. -1.
         -4   -1    0    0    0  501 -0.00000000000E+00 -0.00000000000E+00 -0.90519776488E+03  0.90519776488E+03  0.00000000000E+00 0.  1.
         25    2    1    2    0    0 -0.19021722168E+02  0.23446325081E+02 -0.54480087295E+03  0.55979178643E+03  0.12508915586E+03 0.  0.
          5    1    3    3  502    0  0.24517043305E+02 -0.38258926565E+02 -0.12149459996E+03  0.12978151291E+03  0.41800000000E+01 0.  1.
         -5    1    3    3    0  502 -0.43538765473E+02  0.61705251646E+02 -0.42330627299E+03  0.43001027352E+03  0.41800000000E+01 0.  1.
        -11    1    1    2    0    0 -0.19149575340E+02 -0.43512073216E+02 -0.24582920749E+03  0.25038371754E+03  0.00000000000E+00 0.  1.
         11    1    1    2    0    0  0.38171297508E+02  0.20065748135E+02 -0.10035849506E+03  0.10923145029E+03  0.00000000000E+00 0. -1.
</event>
<event>
 7    1  0.2666594E-009  0.1198458E+03  0.7561462E-02  0.1243352E+00
         -1   -1    0    0    0  501 -0.00000000000E+00  0.00000000000E+00  0.43156918901E+02  0.43156918901E+02  0.00000000000E+00 0.  1.
          1   -1    0    0  501    0  0.00000000000E+00 -0.00000000000E+00 -0.49137533637E+03  0.49137533637E+03  0.00000000000E+00 0. -1.
         25    2    1    2    0    0  0.62972489738E+02  0.52197323537E+02 -0.31468550362E+03  0.34837458454E+03  0.12509112644E+03 0.  0.
          5    1    3    3  502    0  0.62227119042E+01 -0.24839103395E+02 -0.81040859475E+01  0.27181828672E+02  0.41800000000E+01 0.  1.
         -5    1    3    3    0  502  0.56749777834E+02  0.77036426932E+02 -0.30658141768E+03  0.32119275587E+03  0.41800000000E+01 0.  1.
        -11    1    1    2    0    0 -0.65139935797E+02  0.58775033672E+00 -0.34019871744E+02  0.73490872628E+02  0.00000000000E+00 0.  1.
         11    1    1    2    0    0  0.21674460590E+01 -0.52785073874E+02 -0.99513042103E+02  0.11266679810E+03  0.00000000000E+00 0. -1.
</event>
<event>
 7    1  0.2666594E-009  0.1417927E+03  0.7561462E-02  0.1210937E+00
         -1   -1    0    0    0  501 -0.00000000000E+00  0.00000000000E+00  0.76595935666E+02  0.76595935666E+02  0.00000000000E+00 0.  1.
          1   -1    0    0  501    0  0.00000000000E+00 -0.00000000000E+00 -0.27893367752E+03  0.27893367752E+03  0.00000000000E+00 0. -1.
         25    2    1    2    0    0  0.48784333891E+02 -0.84985027749E+02 -0.10595873236E+03  0.19099132419E+03  0.12509223309E+03 0.  0.
          5    1    3    3  502    0  0.87145996483E+02 -0.31097550005E+02 -0.61305443766E+02  0.11107345387E+03  0.41800000000E+01 0.  1.
         -5    1    3    3    0  502 -0.38361662592E+02 -0.53887477743E+02 -0.44653288593E+02  0.79917870320E+02  0.41800000000E+01 0.  1.
        -11    1    1    2    0    0 -0.66543575736E+02  0.83628081765E+02 -0.10000156693E+03  0.14636262132E+03  0.00000000000E+00 0.  1.
         11    1    1    2    0    0  0.17759241845E+02  0.13569459837E+01  0.36225574276E+01  0.18175667681E+02  0.00000000000E+00 0. -1.
</event>
<event>
 7    1  0.2666594E-009  0.1294513E+03  0.7561462E-02  0.1228272E+00
          2   -1    0    0  501    0  0.00000000000E+00  0.00000000000E+00  0.11458694635E+03  0.11458694635E+03  0.00000000000E+00 0.  1.
         -2   -1    0    0    0  501 -0.00000000000E+00 -0.00000000000E+00 -0.18722175656E+03  0.18722175656E+03  0.00000000000E+00 0. -1.
         25    2    1    2    0    0  0.86309522018E+02  0.26178091984E+02 -0.65418247627E+02  0.16751549534E+03  0.12508904016E+03 0.  0.
          5    1    3    3  502    0  0.80402861187E+02 -0.33327241221E+02 -0.13425090370E+02  0.88164791986E+02  0.41800000000E+01 0.  1.
         -5    1    3    3    0  502  0.59066608311E+01  0.59505333205E+02 -0.51993157256E+02  0.79350703359E+02  0.41800000000E+01 0.  1.
        -11    1    1    2    0    0  0.34999714334E+00  0.15609740160E+02  0.27821203995E+02  0.31903070034E+02  0.00000000000E+00 0.  1.
         11    1    1    2    0    0 -0.86659519161E+02 -0.41787832143E+02 -0.35037766581E+02  0.10239013753E+03  0.00000000000E+00 0. -1.
</event>
<event>
 7    1  0.2666594E-009  0.9572532E+02  0.7561462E-02  0.1289551E+00
          1   -1    0    0  501    0  0.00000000000E+00  0.00000000000E+00  0.14402730156E+03  0.14402730156E+03  0.00000000000E+00 0. -1.
         -1   -1    0    0    0  501 -0.00000000000E+00 -0.00000000000E+00 -0.93261810666E+02  0.93261810666E+02  0.00000000000E+00 0.  1.
         25    2    1    2    0    0  0.93757130015E+01  0.10075492845E+01  0.72789375159E+02  0.14503397462E+03  0.12509053325E+03 0.  0.
          5    1    3    3  502    0  0.52816461427E+02  0.16942643837E+02 -0.34743330022E+01  0.55733070683E+02  0.41800000000E+01 0.  1.
         -5    1    3    3    0  502 -0.43440748426E+02 -0.15935094553E+02  0.76263708161E+02  0.89300903941E+02  0.41800000000E+01 0.  1.
        -11    1    1    2    0    0 -0.40033599723E+02  0.26636772256E+02 -0.86148073963E+01  0.48851014826E+02  0.00000000000E+00 0. -1.
         11    1    1    2    0    0  0.30657886722E+02 -0.27644321541E+02 -0.13409076867E+02  0.43404122778E+02  0.00000000000E+00 0.  1.
</event>
<event>
 7    1  0.2666594E-009  0.9525260E+02  0.7561462E-02  0.1290608E+00
          1   -1    0    0  501    0  0.00000000000E+00  0.00000000000E+00  0.13279351951E+03  0.13279351951E+03  0.00000000000E+00 0. -1.
         -1   -1    0    0    0  501 -0.00000000000E+00 -0.00000000000E+00 -0.11111575584E+03  0.11111575584E+03  0.00000000000E+00 0.  1.
         25    2    1    2    0    0  0.26156293368E+02 -0.37794846302E+02 -0.15694570897E+02  0.13418316713E+03  0.12508477404E+03 0.  0.
          5    1    3    3  502    0 -0.14102010004E+02 -0.74294874152E+02  0.49593687310E+01  0.75899029965E+02  0.41800000000E+01 0.  1.
         -5    1    3    3    0  502  0.40258303372E+02  0.36500027850E+02 -0.20653939628E+02  0.58284137170E+02  0.41800000000E+01 0.  1.
        -11    1    1    2    0    0 -0.21918971713E+02 -0.31555371423E+00 -0.27012221508E+02  0.34787943399E+02  0.00000000000E+00 0.  1.
         11    1    1    2    0    0 -0.42373216551E+01  0.38110400016E+02  0.64384556078E+02  0.74938164814E+02  0.00000000000E+00 0. -1.
</event>
<event>
 7    1  0.2666594E-009  0.1427950E+03  0.7561462E-02  0.1209617E+00
         -1   -1    0    0    0  501 -0.00000000000E+00  0.00000000000E+00  0.20636665364E+03  0.20636665364E+03  0.00000000000E+00 0.  1.
          1   -1    0    0  501    0  0.00000000000E+00 -0.00000000000E+00 -0.12174824459E+03  0.12174824459E+03  0.00000000000E+00 0. -1.
         25    2    1    2    0    0 -0.92926049033E+02 -0.59560999154E+02  0.99060446119E+02  0.19401598428E+03  0.12508583837E+03 0.  0.
          5    1    3    3  502    0  0.18198713834E+02 -0.35848433727E+02  0.62776322882E+02  0.74663528584E+02  0.41800000000E+01 0.  1.
         -5    1    3    3    0  502 -0.11112476287E+03 -0.23712565426E+02  0.36284123236E+02  0.11935245569E+03  0.41800000000E+01 0.  1.
        -11    1    1    2    0    0  0.80246658818E+01  0.44527100015E+02  0.55666336939E+01  0.45585582248E+02  0.00000000000E+00 0.  1.
         11    1    1    2    0    0  0.84901383151E+02  0.15033899139E+02 -0.20008670763E+02  0.88513331708E+02  0.00000000000E+00 0. -1.
</event>
<event>
 7    1  0.2666594E-009  0.1702977E+03  0.7561462E-02  0.1177538E+00
         -2   -1    0    0    0  501 -0.00000000000E+00  0.00000000000E+00  0.75022324689E+03  0.75022324689E+03  0.00000000000E+00 0.  1.
          2   -1    0    0  501    0  0.00000000000E+00 -0.00000000000E+00 -0.49988639327E+02  0.49988639327E+02  0.00000000000E+00 0. -1.
         25    2    1    2    0    0  0.91261303197E+02  0.13420700177E+03  0.37859573809E+03  0.43049095231E+03  0.12509029672E+03 0.  0.
          5    1    3    3  502    0  0.77451523042E+02  0.89788756513E+02  0.36196410314E+03  0.38091500834E+03  0.41800000000E+01 0. -1.
         -5    1    3    3    0  502  0.13809780155E+02  0.44418245255E+02  0.16631634958E+02  0.49575943973E+02  0.41800000000E+01 0. -1.
        -11    1    1    2    0    0 -0.84254630579E+02 -0.66939196951E+02  0.24449590781E+03  0.26712908453E+03  0.00000000000E+00 0. -1.
         11    1    1    2    0    0 -0.70066726184E+01 -0.67267804817E+02  0.77142961658E+02  0.10259184938E+03  0.00000000000E+00 0.  1.
</event>
<event>
 7    1  0.2666594E-009  0.1041568E+03  0.7561462E-02  0.1271790E+00
          2   -1    0    0  501    0  0.00000000000E+00  0.00000000000E+00  0.11512994323E+04  0.11512994323E+04  0.00000000000E+00 0.  1.
         -2   -1    0    0    0  501 -0.00000000000E+00 -0.00000000000E+00 -0.12467711973E+02  0.12467711973E+02  0.00000000000E+00 0. -1.
         25    2    1    2    0    0 -0.27655518229E+02 -0.26997019981E+02  0.74366414861E+03  0.75509980814E+03  0.12508272283E+03 0.  0.
          5    1    3    3  502    0  0.33607941500E+02  0.60592269590E+01  0.51229726239E+03  0.51345122983E+03  0.41800000000E+01 0. -1.
         -5    1    3    3    0  502 -0.61263459728E+02 -0.33056246940E+02  0.23136688622E+03  0.24164857831E+03  0.41800000000E+01 0. -1.
        -11    1    1    2    0    0  0.23339374367E+02 -0.34975770607E+02  0.15971700330E+03  0.16515917192E+03  0.00000000000E+00 0. -1.
         11    1    1    2    0    0  0.43161438615E+01  0.61972790588E+02  0.23545056842E+03  0.24350816421E+03  0.00000000000E+00 0.  1.
</event>
<event>
 7    1  0.2666594E-009  0.1056029E+03  0.7561462E-02  0.1268936E+00
          2   -1    0    0  501    0  0.00000000000E+00  0.00000000000E+00  0.65668894620E+03  0.65668894620E+03  0.00000000000E+00 0. -1.
         -2   -1    0    0    0  501 -0.00000000000E+00 -0.00000000000E+00 -0.19612868508E+02  0.19612868508E+02  0.00000000000E+00 0.  1.
         25    2    1    2    0    0 -0.15041769794E+02  0.26036409323E+02  0.43028432793E+03  0.44910429112E+03  0.12508362000E+03 0.  0.
          5    1    3    3  502    0 -0.10571485652E+02  0.73098900896E+02  0.32953544933E+03  0.33773701365E+03  0.41800000000E+01 0.  1.
         -5    1    3    3    0  502 -0.44702841424E+01 -0.47062491573E+02  0.10074887860E+03  0.11136727748E+03  0.41800000000E+01 0.  1.
        -11    1    1    2    0    0  0.49347096341E+02 -0.51714925166E+01  0.14722908492E+03  0.15536500152E+03  0.00000000000E+00 0.  1.
         11    1    1    2    0    0 -0.34305326546E+02 -0.20864916806E+02  0.59562664845E+02  0.71832522065E+02  0.00000000000E+00 0. -1.
</event>
<event>
 7    1  0.2666594E-009  0.1444094E+03  0.7561462E-02  0.1207516E+00
          2   -1    0    0  501    0  0.00000000000E+00  0.00000000000E+00  0.84410284083E+03  0.84410284083E+03  0.00000000000E+00 0. -1.
         -2   -1    0    0    0  501 -0.00000000000E+00 -0.00000000000E+00 -0.27979090217E+02  0.27979090217E+02  0.00000000000E+00 0.  1.
         25    2    1    2    0    0 -0.72908984812E+02 -0.40871052391E+02  0.44512830160E+03  0.46986454254E+03  0.12508924997E+03 0.  0.
          5    1    3    3  502    0 -0.20875596082E+02 -0.76722267721E+02  0.17266574225E+03  0.19013949569E+03  0.41800000000E+01 0. -1.
         -5    1    3    3    0  502 -0.52033388730E+02  0.35851215330E+02  0.27246255935E+03  0.27972504685E+03  0.41800000000E+01 0. -1.
        -11    1    1    2    0    0 -0.33321341487E+02  0.14963665669E+02  0.16505991821E+03  0.16905324512E+03  0.00000000000E+00 0. -1.
         11    1    1    2    0    0  0.10623032630E+03  0.25907386723E+02  0.20593553081E+03  0.23316414339E+03  0.00000000000E+00 0.  1.
</event>
<event>
 7    1  0.2666594E-009  0.5921352E+02  0.7561462E-02  0.1401162E+00
          2   -1    0    0  501    0  0.00000000000E+00  0.00000000000E+00  0.32794845108E+02  0.32794845108E+02  0.00000000000E+00 0. -1.
         -2   -1    0    0    0  501 -0.00000000000E+00 -0.00000000000E+00 -0.37459500937E+03  0.37459500937E+03  0.00000000000E+00 0.  1.
         25    2    1    2    0    0  0.24659563543E+02 -0.72552076523E+01 -0.21005273504E+03  0.24582841350E+03  0.12509486510E+03 0.  0.
          5    1    3    3  502    0  0.23690699751E+02 -0.69209433378E+01 -0.22698326698E+03  0.22835941978E+03  0.41800000000E+01 0. -1.
         -5    1    3    3    0  502  0.96886379227E+00 -0.33426431452E+00  0.16930531946E+02  0.17468993722E+02  0.41800000000E+01 0. -1.
        -11    1    1    2    0    0 -0.36197351233E+02  0.40252701331E+02 -0.10277060236E+03  0.11615646736E+03  0.00000000000E+00 0.  1.
         11    1    1    2    0    0  0.11537787690E+02 -0.32997493679E+02 -0.28976826864E+02  0.45404973615E+02  0.00000000000E+00 0. -1.
</event>
<event>
 7    1  0.2666594E-009  0.1326152E+03  0.7561462E-02  0.1223626E+00
         -1   -1    0    0    0  501 -0.00000000000E+00  0.00000000000E+00  0.25780065238E+03  0.25780065238E+03  0.00000000000E+00 0.  1.
          1   -1    0    0  501    0  0.00000000000E+00 -0.00000000000E+00 -0.82494077987E+02  0.82494077987E+02  0.00000000000E+00 0. -1.
         25    2    1    2    0    0 -0.69607799522E+02  0.61944894426E+02  0.12809455964E+03  0.20183069778E+03  0.12507996906E+03 0.  0.
          5    1    3    3  502    0 -0.41456404560E+02  0.87721056390E+02  0.13128592775E+03  0.16330059534E+03  0.41800000000E+01 0.  1.
         -5    1    3    3    0  502 -0.28151394962E+02 -0.25776161964E+02 -0.31913681108E+01  0.38530102444E+02  0.41800000000E+01 0.  1.
        -11    1    1    2    0    0 -0.69276369446E+01  0.17853264293E+02  0.30003207195E+01  0.19383836668E+02  0.00000000000E+00 0.  1.
         11    1    1    2    0    0  0.76535436467E+02 -0.79798158720E+02  0.44211694037E+02  0.11908019592E+03  0.00000000000E+00 0. -1.
</event>
<event>
 7    1  0.2666594E-009  0.1530998E+03  0.7561462E-02  0.1196715E+00
          1   -1    0    0  501    0  0.00000000000E+00  0.00000000000E+00  0.17480512132E+03  0.17480512132E+03  0.00000000000E+00 0. -1.
         -1   -1    0    0    0  501 -0.00000000000E+00 -0.00000000000E+00 -0.16538734639E+03  0.16538734639E+03  0.00000000000E+00 0.  1.
         25    2    1    2    0    0  0.11004144836E+03 -0.64204965223E+02  0.32701023215E+02  0.18152100257E+03  0.12509644096E+03 0.  0.
          5    1    3    3  502    0  0.44422928567E+02  0.19246983508E+02 -0.31005020726E+02  0.57642229891E+02  0.41800000000E+01 0.  1.
         -5    1    3    3    0  502  0.65618519789E+02 -0.83451948731E+02  0.63706043941E+02  0.12387877268E+03  0.41800000000E+01 0.  1.
        -11    1    1    2    0    0  0.72875007582E+01 -0.10122535212E+02  0.98382491687E+01  0.15885985431E+02  0.00000000000E+00 0. -1.
         11    1    1    2    0    0 -0.11732894911E+03  0.74327500435E+02 -0.33121497460E+02  0.14278547971E+03  0.00000000000E+00 0.  1.
</event>
<event>
 7    1  0.2666594E-009  0.6790771E+02  0.7561462E-02  0.1367356E+00
          2   -1    0    0  501    0  0.00000000000E+00  0.00000000000E+00  0.72456151872E+03  0.72456151872E+03  0.00000000000E+00 0. -1.
         -2   -1    0    0    0  501 -0.00000000000E+00 -0.00000000000E+00 -0.18131804835E+02  0.18131804835E+02  0.00000000000E+00 0.  1.
         25    2    1    2    0    0 -0.24746566082E+01  0.83670798323E+01  0.52623677435E+03  0.54096882649E+03  0.12508395823E+03 0.  0.
          5    1    3    3  502    0  0.21564794314E+02 -0.64226055513E+01  0.11813766181E+02  0.25755148752E+02  0.41800000000E+01 0.  1.
         -5    1    3    3    0  502 -0.24039450922E+02  0.14789685384E+02  0.51442300816E+03  0.51521367773E+03  0.41800000000E+01 0.  1.
        -11    1    1    2    0    0  0.37540072972E+02  0.16907881560E+02  0.12508495165E+03  0.13168666852E+03  0.00000000000E+00 0. -1.
         11    1    1    2    0    0 -0.35065416363E+02 -0.25274961392E+02  0.55107987891E+02  0.70037828546E+02  0.00000000000E+00 0.  1.
</event>
<event>
 7    1  0.2666594E-009  0.1044946E+03  0.7561462E-02  0.1271119E+00
         -2   -1    0    0    0  501 -0.00000000000E+00  0.00000000000E+00  0.16258484748E+02  0.16258484748E+02  0.00000000000E+00 0.  1.
          2   -1    0    0  501    0  0.00000000000E+00 -0.00000000000E+00 -0.10807244404E+04  0.10807244404E+04  0.00000000000E+00 0. -1.
         25    2    1    2    0    0 -0.40063117903E+02 -0.63463112486E+02 -0.64403752845E+03  0.66035215068E+03  0.12509198534E+03 0.  0.
          5    1    3    3  502    0 -0.55108766180E+02 -0.49745733191E+02 -0.16634873686E+03  0.18221138475E+03  0.41800000000E+01 0. -1.
         -5    1    3    3    0  502  0.15045648276E+02 -0.13717379295E+02 -0.47768879160E+03  0.47814076593E+03  0.41800000000E+01 0. -1.
        -11    1    1    2    0    0  0.39093371565E+02 -0.10019876550E+02 -0.20719642058E+03  0.21109013792E+03  0.00000000000E+00 0. -1.
         11    1    1    2    0    0  0.96974633801E+00  0.73482989036E+02 -0.21323200663E+03  0.22554063655E+03  0.00000000000E+00 0.  1.
</event>
<event>
 7    1  0.2666594E-009  0.1029846E+03  0.7561462E-02  0.1274142E+00
         -1   -1    0    0    0  501 -0.00000000000E+00  0.00000000000E+00  0.38081762311E+02  0.38081762311E+02  0.00000000000E+00 0.  1.
          1   -1    0    0  501    0  0.00000000000E+00 -0.00000000000E+00 -0.35502929003E+03  0.35502929003E+03  0.00000000000E+00 0. -1.
         25    2    1    2    0    0  0.23320701291E+02 -0.26743117625E+02 -0.18109586729E+03  0.22294161877E+03  0.12509277670E+03 0.  0.
          5    1    3    3  502    0 -0.45406206997E+02 -0.38443995266E+02 -0.93640142124E+02  0.11102077744E+03  0.41800000000E+01 0. -1.
         -5    1    3    3    0  502  0.68726908287E+02  0.11700877641E+02 -0.87455725167E+02  0.11192084133E+03  0.41800000000E+01 0. -1.
        -11    1    1    2    0    0 -0.45270690276E+02  0.29982041219E+02 -0.30035878857E+02  0.62052495618E+02  0.00000000000E+00 0.  1.
         11    1    1    2    0    0  0.21949988986E+02 -0.32389235935E+01 -0.10581578157E+03  0.10811693795E+03  0.00000000000E+00 0. -1.
</event>
<event>
 7    1  0.2666594E-009  0.1473480E+03  0.7561462E-02  0.1203770E+00
         -3   -1    0    0    0  501 -0.00000000000E+00  0.00000000000E+00  0.13545578720E+03  0.13545578720E+03  0.00000000000E+00 0.  1.
          3   -1    0    0  501    0  0.00000000000E+00 -0.00000000000E+00 -0.17407572336E+03  0.17407572336E+03  0.00000000000E+00 0. -1.
         25    2    1    2    0    0  0.91772925981E+02  0.44659445936E+02  0.19557375653E+02  0.16262877652E+03  0.12509553132E+03 0.  0.
          5    1    3    3  502    0 -0.24461279809E+01 -0.36349295391E+02  0.95867913311E+01  0.37902952200E+02  0.41800000000E+01 0.  1.
         -5    1    3    3    0  502  0.94219053962E+02  0.81008741326E+02  0.99705843215E+01  0.12472582432E+03  0.41800000000E+01 0.  1.
        -11    1    1    2    0    0 -0.18401478478E+02  0.25988456590E+02 -0.57930287683E+01  0.32366239640E+02  0.00000000000E+00 0. -1.
         11    1    1    2    0    0 -0.73371447503E+02 -0.70647902526E+02 -0.52384283041E+02  0.11453649440E+03  0.00000000000E+00 0.  1.
</event>
<event>
 7    1  0.2666594E-009  0.9035149E+02  0.7561462E-02  0.1302003E+00
          2   -1    0    0  501    0  0.00000000000E+00  0.00000000000E+00  0.46771609793E+03  0.46771609793E+03  0.00000000000E+00 0. -1.
         -2   -1    0    0    0  501 -0.00000000000E+00 -0.00000000000E+00 -0.30742719140E+02  0.30742719140E+02  0.00000000000E+00 0.  1.
         25    2    1    2    0    0  0.47819955526E+02 -0.12898050170E+02  0.27170796860E+03  0.30319302801E+03  0.12509070384E+03 0.  0.
          5    1    3    3  502    0  0.67454028916E+02 -0.16058635671E+02  0.63873630892E+02  0.94367573456E+02  0.41800000000E+01 0. -1.
         -5    1    3    3    0  502 -0.19634073389E+02  0.31605855006E+01  0.20783433771E+03  0.20882545455E+03  0.41800000000E+01 0. -1.
        -11    1    1    2    0    0 -0.57756549250E+02  0.34403350725E+02  0.69818222975E+02  0.96922617493E+02  0.00000000000E+00 0.  1.
         11    1    1    2    0    0  0.99365937240E+01 -0.21505300555E+02  0.95447187213E+02  0.98343171566E+02  0.00000000000E+00 0. -1.
</event>
<event>
 7    1  0.2666594E-009  0.9880071E+02  0.7561462E-02  0.1282838E+00
         -2   -1    0    0    0  501 -0.00000000000E+00  0.00000000000E+00  0.89772308730E+02  0.89772308730E+02  0.00000000000E+00 0.  1.
          2   -1    0    0  501    0  0.00000000000E+00 -0.00000000000E+00 -0.18533102180E+03  0.18533102180E+03  0.00000000000E+00 0. -1.
         25    2    1    2    0    0  0.92574112993E+01 -0.25362250607E+02 -0.12227627409E+03  0.17699576671E+03  0.12508825208E+03 0.  0.
          5    1    3    3  502    0 -0.69938644181E+01  0.38555977658E+02 -0.99627497354E+02  0.10713817332E+03  0.41800000000E+01 0.  1.
         -5    1    3    3    0  502  0.16251275717E+02 -0.63918228266E+02 -0.22648776740E+02  0.69857593395E+02  0.41800000000E+01 0.  1.
        -11    1    1    2    0    0  0.37303424397E+02  0.26126403949E+02  0.24794198665E+01  0.45610108287E+02  0.00000000000E+00 0.  1.
         11    1    1    2    0    0 -0.46560835696E+02 -0.76415334116E+00  0.24238141154E+02  0.52497455535E+02  0.00000000000E+00 0. -1.
</event>
<event>
 7    1  0.2666594E-009  0.9335736E+02  0.7561462E-02  0.1294919E+00
          2   -1    0    0  501    0  0.00000000000E+00  0.00000000000E+00  0.22527659567E+02  0.22527659567E+02  0.00000000000E+00 0. -1.
         -2   -1    0    0    0  501 -0.00000000000E+00 -0.00000000000E+00 -0.50173205031E+03  0.50173205031E+03  0.00000000000E+00 0.  1.
         25    2    1    2    0    0 -0.59408183066E+01  0.16379022899E+02 -0.27989186828E+03  0.30706733922E+03  0.12508927679E+03 0.  0.
          5    1    3    3  502    0 -0.56654162612E+02  0.36792900405E+02 -0.19088575710E+03  0.20252964308E+03  0.41800000000E+01 0. -1.
         -5    1    3    3    0  502  0.50713344306E+02 -0.20413877507E+02 -0.89006111186E+02  0.10453769614E+03  0.41800000000E+01 0. -1.
        -11    1    1    2    0    0  0.23485866735E+02  0.15273304359E+02 -0.16486739485E+03  0.16723073177E+03  0.00000000000E+00 0.  1.
         11    1    1    2    0    0 -0.17545048429E+02 -0.31652327257E+02 -0.34445127607E+02  0.49961638895E+02  0.00000000000E+00 0. -1.
</event>
<event>
 7    1  0.2666594E-009  0.6595217E+02  0.7561462E-02  0.1374425E+00
         -3   -1    0    0    0  501 -0.00000000000E+00  0.00000000000E+00  0.25532378552E+03  0.25532378552E+03  0.00000000000E+00 0.  1.
          3   -1    0    0  501    0  0.00000000000E+00 -0.00000000000E+00 -0.55035068422E+02  0.55035068422E+02  0.00000000000E+00 0. -1.
         25    2    1    2    0    0 -0.34295140941E+02  0.31174786058E+02  0.96607086755E+02  0.16470545294E+03  0.12508770139E+03 0.  0.
          5    1    3    3  502    0 -0.37924277132E+02  0.17473045305E+02  0.12545784981E+03  0.13229022106E+03  0.41800000000E+01 0. -1.
         -5    1    3    3    0  502  0.36291361903E+01  0.13701740753E+02 -0.28850763056E+02  0.32415231884E+02  0.41800000000E+01 0. -1.
        -11    1    1    2    0    0  0.40004167718E+02  0.33725953991E+01  0.10309143611E+03  0.11063250893E+03  0.00000000000E+00 0.  1.
         11    1    1    2    0    0 -0.57090267763E+01 -0.34547381457E+02  0.59019424030E+00  0.35020892072E+02  0.00000000000E+00 0. -1.
</event>
<event>
 7    1  0.2666594E-009  0.1313963E+03  0.7561462E-02  0.1225398E+00
          2   -1    0    0  501    0  0.00000000000E+00  0.00000000000E+00  0.12526275396E+03  0.12526275396E+03  0.00000000000E+00 0. -1.
         -2   -1    0    0    0  501 -0.00000000000E+00 -0.00000000000E+00 -0.20794327527E+03  0.20794327527E+03  0.00000000000E+00 0.  1.
         25    2    1    2    0    0 -0.48541566317E+02  0.81470550358E+02  0.30347343985E+02  0.15988596253E+03  0.12509526566E+03 0.  0.
          5    1    3    3  502    0 -0.34415569905E+02  0.10422574337E+03 -0.11058845021E+02  0.11039568599E+03  0.41800000000E+01 0. -1.
         -5    1    3    3    0  502 -0.14125996413E+02 -0.22755193008E+02  0.41406189007E+02  0.49490276535E+02  0.41800000000E+01 0. -1.
        -11    1    1    2    0    0  0.70953494662E+02 -0.48376810486E+02 -0.52075500655E+02  0.10043192703E+03  0.00000000000E+00 0. -1.
         11    1    1    2    0    0 -0.22411928345E+02 -0.33093739872E+02 -0.60952364636E+02  0.72888139677E+02  0.00000000000E+00 0.  1.
</event>
<event>
 7    1  0.2666594E-009  0.9377546E+02  0.7561462E-02  0.1293958E+00
         -1   -1    0    0    0  501 -0.00000000000E+00  0.00000000000E+00  0.47797090280E+02  0.47797090280E+02  0.00000000000E+00 0.  1.
          1   -1    0    0  501    0  0.00000000000E+00 -0.00000000000E+00 -0.37287784624E+03  0.37287784624E+03  0.00000000000E+00 0. -1.
         25    2    1    2    0    0 -0.15882505649E+02 -0.76071660206E+02 -0.17007815003E+03  0.22497489389E+03  0.12509186341E+03 0.  0.
          5    1    3    3  502    0 -0.26570108895E+02 -0.71311694991E+02 -0.18817504490E+03  0.20302376327E+03  0.41800000000E+01 0.  1.
         -5    1    3    3    0  502  0.10687603246E+02 -0.47599652153E+01  0.18096894863E+02  0.21951130624E+02  0.41800000000E+01 0.  1.
        -11    1    1    2    0    0  0.21904869496E+02 -0.68824776068E+00  0.77879488554E+00  0.21929512400E+02  0.00000000000E+00 0. -1.
         11    1    1    2    0    0 -0.60223638470E+01  0.76759907967E+02 -0.15578140081E+03  0.17377053023E+03  0.00000000000E+00 0.  1.
</event>
<event>
 7    1  0.2666594E-009  0.3328922E+03  0.7561462E-02  0.1069864E+00
          2   -1    0    0  501    0  0.00000000000E+00  0.00000000000E+00  0.44309269126E+03  0.44309269126E+03  0.00000000000E+00 0. -1.
         -2   -1    0    0    0  501 -0.00000000000E+00 -0.00000000000E+00 -0.28425905151E+03  0.28425905151E+03  0.00000000000E+00 0.  1.
         25    2    1    2    0    0 -0.31771070168E+03  0.63267570025E+02 -0.26242231863E+02  0.34825198543E+03  0.12509162738E+03 0.  0.
          5    1    3    3  502    0 -0.67469091246E+02 -0.30006381111E+02  0.21291660673E+02  0.76962772787E+02  0.41800000000E+01 0.  1.
         -5    1    3    3    0  502 -0.25024161044E+03  0.93273951137E+02 -0.47533892536E+02  0.27128921264E+03  0.41800000000E+01 0.  1.
        -11    1    1    2    0    0  0.27793216176E+02 -0.12196619506E+02 -0.18122682832E+01  0.30405669030E+02  0.00000000000E+00 0.  1.
         11    1    1    2    0    0  0.28991748551E+03 -0.51070950519E+02  0.18688813990E+03  0.34869408831E+03  0.00000000000E+00 0. -1.
</event>
<event>
 7    1  0.2666594E-009  0.1067288E+03  0.7561462E-02  0.1266750E+00
         -1   -1    0    0    0  501 -0.00000000000E+00  0.00000000000E+00  0.33814320332E+02  0.33814320332E+02  0.00000000000E+00 0.  1.
          1   -1    0    0  501    0  0.00000000000E+00 -0.00000000000E+00 -0.51419972305E+03  0.51419972305E+03  0.00000000000E+00 0. -1.
         25    2    1    2    0    0  0.36404663904E+02 -0.59412211434E+02 -0.31719212999E+03  0.34801615677E+03  0.12509711277E+03 0.  0.
          5    1    3    3  502    0 -0.32467756101E+02  0.67139051573E+00 -0.23233015715E+02  0.40147868818E+02  0.41800000000E+01 0.  1.
         -5    1    3    3    0  502  0.68872420004E+02 -0.60083601950E+02 -0.29395911427E+03  0.30786828795E+03  0.41800000000E+01 0.  1.
        -11    1    1    2    0    0  0.10872292849E+02  0.33689982002E+02 -0.87797821479E+01  0.36473363070E+02  0.00000000000E+00 0.  1.
         11    1    1    2    0    0 -0.47276956753E+02  0.25722229432E+02 -0.15441349057E+03  0.16352452354E+03  0.00000000000E+00 0. -1.
</event>
<event>
 7    1  0.2666594E-009  0.1453932E+03  0.7561462E-02  0.1206251E+00
         -2   -1    0    0    0  501 -0.00000000000E+00  0.00000000000E+00  0.14072534104E+03  0.14072534104E+03  0.00000000000E+00 0.  1.
          2   -1    0    0  501    0  0.00000000000E+00 -0.00000000000E+00 -0.21619044301E+03  0.21619044301E+03  0.00000000000E+00 0. -1.
         25    2    1    2    0    0 -0.14353384242E+02 -0.13025291430E+03 -0.11885787460E+01  0.18116444092E+03  0.12508917065E+03 0.  0.
          5    1    3    3  502    0 -0.36141877623E+02 -0.51003155546E+02 -0.54559408763E+02  0.83076823954E+02  0.41800000000E+01 0.  1.
         -5    1    3    3    0  502  0.21788493381E+02 -0.79249758750E+02  0.53370830017E+02  0.98087616968E+02  0.41800000000E+01 0.  1.
        -11    1    1    2    0    0  0.39899473671E+02  0.84224708297E+02 -0.11624943213E+02  0.93919693312E+02  0.00000000000E+00 0.  1.
         11    1    1    2    0    0 -0.25546089429E+02  0.46028205999E+02 -0.62651580018E+02  0.81831649814E+02  0.00000000000E+00 0. -1.
</event>
<event>
 7    1  0.2666594E-009  0.1220218E+03  0.7561462E-02  0.1239798E+00
         -2   -1    0    0    0  501 -0.00000000000E+00  0.00000000000E+00  0.20636143519E+02  0.20636143519E+02  0.00000000000E+00 0.  1.
          2   -1    0    0  501    0  0.00000000000E+00 -0.00000000000E+00 -0.89438967938E+03  0.89438967938E+03  0.00000000000E+00 0. -1.
         25    2    1    2    0    0 -0.69831021534E+02 -0.40763551525E+02 -0.46928956818E+03  0.49236010575E+03  0.12509091187E+03 0.  0.
          5    1    3    3  502    0 -0.10295050190E+03 -0.12008756909E+02 -0.29986171634E+03  0.31729723826E+03  0.41800000000E+01 0. -1.
         -5    1    3    3    0  502  0.33119480371E+02 -0.28754794616E+02 -0.16942785184E+03  0.17506286748E+03  0.41800000000E+01 0. -1.
        -11    1    1    2    0    0 -0.79801809845E+01  0.94688365265E+01 -0.32816068719E+01  0.12810585364E+02  0.00000000000E+00 0.  1.
         11    1    1    2    0    0  0.77811202518E+02  0.31294714999E+02 -0.40118236081E+03  0.40985513179E+03  0.00000000000E+00 0. -1.
</event>
<event>
 7    1  0.2666594E-009  0.1122269E+03  0.7561462E-02  0.1256501E+00
         -3   -1    0    0    0  501 -0.00000000000E+00  0.00000000000E+00  0.55603514808E+03  0.55603514808E+03  0.00000000000E+00 0.  1.
          3   -1    0    0  501    0  0.00000000000E+00 -0.00000000000E+00 -0.49265313795E+02  0.49265313795E+02  0.00000000000E+00 0. -1.
         25    2    1    2    0    0 -0.51078340392E+02  0.45123650898E+02  0.46341156008E+03  0.48481212940E+03  0.12508951223E+03 0.  0.
          5    1    3    3  502    0 -0.56127752826E+02  0.71662825205E+02  0.43836663863E+03  0.44773727499E+03  0.41800000000E+01 0.  1.
         -5    1    3    3    0  502  0.50494124335E+01 -0.26539174307E+02  0.25044921448E+02  0.37074854405E+02  0.41800000000E+01 0.  1.
        -11    1    1    2    0    0 -0.20000278070E+02 -0.25207701479E+02 -0.45352303572E+01  0.32496271342E+02  0.00000000000E+00 0. -1.
         11    1    1    2    0    0  0.71078618462E+02 -0.19915949419E+02  0.47893504566E+02  0.87992061138E+02  0.00000000000E+00 0.  1.
</event>
<event>
 7    1  0.2666594E-009  0.1272996E+03  0.7561462E-02  0.1231519E+00
         -2   -1    0    0    0  501 -0.00000000000E+00  0.00000000000E+00  0.69930325192E+03  0.69930325192E+03  0.00000000000E+00 0.  1.
          2   -1    0    0  501    0  0.00000000000E+00 -0.00000000000E+00 -0.27660209327E+02  0.27660209327E+02  0.00000000000E+00 0. -1.
         25    2    1    2    0    0  0.51859368060E+02 -0.66922039888E+02  0.43903937093E+03  0.46429458674E+03  0.12508373424E+03 0.  0.
          5    1    3    3  502    0  0.39311701979E+02  0.20402203887E+02  0.26932397256E+03  0.27297350500E+03  0.41800000000E+01 0. -1.
         -5    1    3    3    0  502  0.12547666081E+02 -0.87324243775E+02  0.16971539837E+03  0.19132108174E+03  0.41800000000E+01 0. -1.
        -11    1    1    2    0    0 -0.66793934227E+02  0.15943421167E+02  0.12301372708E+03  0.14088292791E+03  0.00000000000E+00 0.  1.
         11    1    1    2    0    0  0.14934566167E+02  0.50978618721E+02  0.10958994459E+03  0.12178594660E+03  0.00000000000E+00 0. -1.
</event>
<event>
 7    1  0.2666594E-009  0.1327434E+03  0.7561462E-02  0.1223441E+00
         -4   -1    0    0    0  501 -0.00000000000E+00  0.00000000000E+00  0.54513417719E+03  0.54513417719E+03  0.00000000000E+00 0.  1.
          4   -1    0    0  501    0  0.00000000000E+00 -0.00000000000E+00 -0.47107793390E+02  0.47107793390E+02  0.00000000000E+00 0. -1.
         25    2    1    2    0    0 -0.66167668532E+02  0.92589305547E+02  0.22056149369E+03  0.27793203934E+03  0.12509159097E+03 0.  0.
          5    1    3    3  502    0 -0.48574228844E+02  0.91908407181E+02  0.67975893142E+02  0.12427713171E+03  0.41800000000E+01 0. -1.
         -5    1    3    3    0  502 -0.17593439688E+02  0.68089836597E+00  0.15258560055E+03  0.15365490762E+03  0.41800000000E+01 0. -1.
        -11    1    1    2    0    0  0.77448727235E+02 -0.35568073888E+02  0.12639873878E+03  0.15244682482E+03  0.00000000000E+00 0. -1.
         11    1    1    2    0    0 -0.11281058703E+02 -0.57021231659E+02  0.15106615133E+03  0.16186310643E+03  0.00000000000E+00 0.  1.
</event>
<event>
 7    1  0.3293003E-009  0.2824568E+03  0.7561462E-02  0.1094355E+00
          1   -1    0    0  501    0  0.00000000000E+00  0.00000000000E+00  0.12415169624E+04  0.12415169624E+04  0.00000000000E+00 0. -1.
         -1   -1    0    0    0  501 -0.00000000000E+00 -0.00000000000E+00 -0.73156305650E+02  0.73156305650E+02  0.00000000000E+00 0.  1.
         25    2    1    2    0    0 -0.24936091310E+03  0.81410560209E+02  0.81511406280E+03  0.86537102203E+03  0.12509007193E+03 0.  0.
          5    1    3    3  502    0 -0.23538458862E+03  0.30202018263E+02  0.66218783027E+03  0.70344030409E+03  0.41800000000E+01 0.  1.
         -5    1    3    3    0  502 -0.13976324477E+02  0.51208541946E+02  0.15292623253E+03  0.16193071794E+03  0.41800000000E+01 0.  1.
        -11    1    1    2    0    0  0.90468858009E+02 -0.71146872037E+02  0.11462394526E+03  0.16243503469E+03  0.00000000000E+00 0.  1.
         11    1    1    2    0    0  0.15889205509E+03 -0.10263688172E+02  0.23862264869E+03  0.28686721132E+03  0.00000000000E+00 0. -1.
</event>
<event>
 7    1  0.2666594E-009  0.1426748E+03  0.7561462E-02  0.1209774E+00
         -1   -1    0    0    0  501 -0.00000000000E+00  0.00000000000E+00  0.56862378476E+02  0.56862378476E+02  0.00000000000E+00 0.  1.
          1   -1    0    0  501    0  0.00000000000E+00 -0.00000000000E+00 -0.51548983035E+03  0.51548983035E+03  0.00000000000E+00 0. -1.
         25    2    1    2    0    0  0.11181528292E+03  0.24126696148E+02 -0.35421018583E+03  0.39267823588E+03  0.12508631511E+03 0.  0.
          5    1    3    3  502    0  0.13052130005E+03  0.46889222758E+02 -0.27405503499E+03  0.30717754407E+03  0.41800000000E+01 0. -1.
         -5    1    3    3    0  502 -0.18706017123E+02 -0.22762526610E+02 -0.80155150840E+02  0.85500691813E+02  0.41800000000E+01 0. -1.
        -11    1    1    2    0    0 -0.95154686295E+02 -0.11317685775E+02 -0.27146454207E+02  0.99596356917E+02  0.00000000000E+00 0.  1.
         11    1    1    2    0    0 -0.16660596628E+02 -0.12809010373E+02 -0.77270811832E+02  0.80077616023E+02  0.00000000000E+00 0. -1.
</event>
<event>
 7    1  0.2666594E-009  0.6871811E+02  0.7561462E-02  0.1364507E+00
         -2   -1    0    0    0  501 -0.00000000000E+00  0.00000000000E+00  0.29889585072E+02  0.29889585072E+02  0.00000000000E+00 0.  1.
          2   -1    0    0  501    0  0.00000000000E+00 -0.00000000000E+00 -0.18891896916E+04  0.18891896916E+04  0.00000000000E+00 0. -1.
         25    2    1    2    0    0  0.36820697785E+02  0.38014471979E+02 -0.17832568989E+04  0.17884222240E+04  0.12509204580E+03 0.  0.
          5    1    3    3  502    0  0.38999726392E+02  0.50319846730E+02 -0.39630766795E+03  0.40141039561E+03  0.41800000000E+01 0.  1.
         -5    1    3    3    0  502 -0.21790286073E+01 -0.12305374751E+02 -0.13869492309E+04  0.13870118283E+04  0.41800000000E+01 0.  1.
        -11    1    1    2    0    0 -0.24811966023E+02 -0.49775697989E+01 -0.89506539487E+02  0.93015216336E+02  0.00000000000E+00 0. -1.
         11    1    1    2    0    0 -0.12008731761E+02 -0.33036902180E+02  0.13463331806E+02  0.37641836399E+02  0.00000000000E+00 0.  1.
</event>
<event>
 7    1  0.2666594E-009  0.9516003E+02  0.7561462E-02  0.1290816E+00
         -2   -1    0    0    0  501 -0.00000000000E+00  0.00000000000E+00  0.55659158914E+02  0.55659158914E+02  0.00000000000E+00 0.  1.
          2   -1    0    0  501    0  0.00000000000E+00 -0.00000000000E+00 -0.36967757977E+03  0.36967757977E+03  0.00000000000E+00 0. -1.
         25    2    1    2    0    0 -0.70917490983E+02  0.46979240754E+02 -0.11507571595E+03  0.19006955515E+03  0.12509067033E+03 0.  0.
          5    1    3    3  502    0 -0.34323664994E+02  0.37839709776E+02  0.15931121201E+02  0.53677096021E+02  0.41800000000E+01 0.  1.
         -5    1    3    3    0  502 -0.36593825989E+02  0.91395309786E+01 -0.13100683715E+03  0.13639245913E+03  0.41800000000E+01 0.  1.
        -11    1    1    2    0    0 -0.90266735980E+01 -0.84651056212E+01  0.46156620475E+01  0.13207694180E+02  0.00000000000E+00 0.  1.
         11    1    1    2    0    0  0.79944164581E+02 -0.38514135133E+02 -0.20355836696E+03  0.22205948936E+03  0.00000000000E+00 0. -1.
</event>
<event>
 7    1  0.2666594E-009  0.8622362E+02  0.7561462E-02  0.1312263E+00
          1   -1    0    0  501    0  0.00000000000E+00  0.00000000000E+00  0.72192757643E+03  0.72192757643E+03  0.00000000000E+00 0. -1.
         -1   -1    0    0    0  501 -0.00000000000E+00 -0.00000000000E+00 -0.38633956703E+02  0.38633956703E+02  0.00000000000E+00 0.  1.
         25    2    1    2    0    0  0.34580568489E+02  0.54468252265E+02  0.60416200812E+03  0.62034051718E+03  0.12509204202E+03 0.  0.
          5    1    3    3  502    0 -0.77038813043E+00  0.39813042865E+02  0.46547675007E+02  0.61398944035E+02  0.41800000000E+01 0.  1.
         -5    1    3    3    0  502  0.35350956619E+02  0.14655209399E+02  0.55761433311E+03  0.55894157315E+03  0.41800000000E+01 0.  1.
        -11    1    1    2    0    0 -0.33579248513E+02  0.54213161892E+01 -0.75650161444E+01  0.34845172824E+02  0.00000000000E+00 0.  1.
         11    1    1    2    0    0 -0.10013199762E+01 -0.59889568454E+02  0.86696627745E+02  0.10537584312E+03  0.00000000000E+00 0. -1.
</event>
<event>
 7    1  0.2666594E-009  0.1837911E+03  0.7561462E-02  0.1164184E+00
         -2   -1    0    0    0  501 -0.00000000000E+00  0.00000000000E+00  0.17852675066E+02  0.17852675066E+02  0.00000000000E+00 0. -1.
          2   -1    0    0  501    0  0.00000000000E+00 -0.00000000000E+00 -0.19362432580E+04  0.19362432580E+04  0.00000000000E+00 0.  1.
         25    2    1    2    0    0  0.57113538901E+00  0.14976724775E+03 -0.11003846195E+04  0.11175532527E+04  0.12509359310E+03 0.  0.
          5    1    3    3  502    0 -0.30047730119E+00 -0.21237412178E+02 -0.77596232248E+02  0.80559081560E+02  0.41800000000E+01 0.  1.
         -5    1    3    3    0  502  0.87161269021E+00  0.17100465993E+03 -0.10227883873E+04  0.10369941712E+04  0.41800000000E+01 0.  1.
        -11    1    1    2    0    0  0.16764681254E+02 -0.15566535962E+03 -0.74516672135E+03  0.76143693195E+03  0.00000000000E+00 0.  1.
         11    1    1    2    0    0 -0.17335816643E+02  0.58981118765E+01 -0.72839242071E+02  0.75105748434E+02  0.00000000000E+00 0. -1.
</event>
<event>
 7    1  0.2666594E-009  0.1629270E+03  0.7561462E-02  0.1185431E+00
          1   -1    0    0  501    0  0.00000000000E+00  0.00000000000E+00  0.12915711159E+04  0.12915711159E+04  0.00000000000E+00 0. -1.
         -1   -1    0    0    0  501 -0.00000000000E+00 -0.00000000000E+00 -0.29562051765E+02  0.29562051765E+02  0.00000000000E+00 0.  1.
         25    2    1    2    0    0  0.75869358093E+01 -0.14732382075E+03  0.88466840495E+03  0.90556480326E+03  0.12509019322E+03 0.  0.
          5    1    3    3  502    0 -0.12254411651E+02 -0.14047469598E+03  0.47923229158E+03  0.49956418257E+03  0.41800000000E+01 0. -1.
         -5    1    3    3    0  502  0.19841347461E+02 -0.68491247707E+01  0.40543611337E+03  0.40600062069E+03  0.41800000000E+01 0. -1.
        -11    1    1    2    0    0  0.28257083078E+02  0.10059568271E+03  0.30431799003E+03  0.32175672981E+03  0.00000000000E+00 0. -1.
         11    1    1    2    0    0 -0.35844018888E+02  0.46728138040E+02  0.73022669183E+02  0.93811634616E+02  0.00000000000E+00 0.  1.
</event>
<event>
 7    1  0.2666594E-009  0.1178704E+03  0.7561462E-02  0.1246652E+00
          3   -1    0    0  501    0  0.00000000000E+00  0.00000000000E+00  0.34605579746E+02  0.34605579746E+02  0.00000000000E+00 0. -1.
         -3   -1    0    0    0  501 -0.00000000000E+00 -0.00000000000E+00 -0.43832194706E+03  0.43832194706E+03  0.00000000000E+00 0.  1.
         25    2    1    2    0    0  0.59313196444E+02  0.58768443312E+01 -0.21591530410E+03  0.25655487704E+03  0.12509354027E+03 0.  0.
          5    1    3    3  502    0 -0.33658036163E+02 -0.19137017126E+02 -0.89430022846E+02  0.97541223127E+02  0.41800000000E+01 0. -1.
         -5    1    3    3    0  502  0.92971232608E+02  0.25013861458E+02 -0.12648528125E+03  0.15901365391E+03  0.41800000000E+01 0. -1.
        -11    1    1    2    0    0 -0.79307640589E+02 -0.10235966545E+02 -0.11043905186E+03  0.13634977463E+03  0.00000000000E+00 0.  1.
         11    1    1    2    0    0  0.19994444145E+02  0.43591222139E+01 -0.77362011355E+02  0.80022875130E+02  0.00000000000E+00 0. -1.
</event>
<event>
 7    1  0.2930571E-009  0.2028863E+03  0.7561462E-02  0.1147326E+00
         -1   -1    0    0    0  501 -0.00000000000E+00  0.00000000000E+00  0.66348357225E+02  0.66348357225E+02  0.00000000000E+00 0.  1.
          1   -1    0    0  501    0  0.00000000000E+00 -0.00000000000E+00 -0.88301127928E+03  0.88301127928E+03  0.00000000000E+00 0. -1.
         25    2    1    2    0    0 -0.14606355184E+03 -0.12777196268E+03 -0.60664666496E+03  0.64909773023E+03  0.12508977438E+03 0.  0.
          5    1    3    3  502    0 -0.12435652813E+02 -0.12013538348E+02 -0.62423566522E+00  0.17799793108E+02  0.41800000000E+01 0. -1.
         -5    1    3    3    0  502 -0.13362789903E+03 -0.11575842434E+03 -0.60602242930E+03  0.63129793712E+03  0.41800000000E+01 0. -1.
        -11    1    1    2    0    0  0.10897447716E+03  0.40401562600E+02 -0.88570675636E+02  0.14612490382E+03  0.00000000000E+00 0.  1.
         11    1    1    2    0    0  0.37089074683E+02  0.87370400083E+02 -0.12144558146E+03  0.15413700246E+03  0.00000000000E+00 0. -1.
</event>
<event>
 7    1  0.2666594E-009  0.9971101E+02  0.7561462E-02  0.1280905E+00
         -1   -1    0    0    0  501 -0.00000000000E+00  0.00000000000E+00  0.82637762387E+02  0.82637762387E+02  0.00000000000E+00 0.  1.
          1   -1    0    0  501    0  0.00000000000E+00 -0.00000000000E+00 -0.19990372215E+03  0.19990372215E+03  0.00000000000E+00 0. -1.
         25    2    1    2    0    0 -0.49003388925E+02 -0.13725002233E+02 -0.12779263114E+02  0.13565805055E+03  0.12510031695E+03 0.  0.
          5    1    3    3  502    0 -0.73823246357E+01 -0.49434320844E+02  0.36323756573E+02  0.61928494943E+02  0.41800000000E+01 0.  1.
         -5    1    3    3    0  502 -0.41621064290E+02  0.35709318611E+02 -0.49103019686E+02  0.73729555611E+02  0.41800000000E+01 0.  1.
        -11    1    1    2    0    0  0.21687746340E+02 -0.33383934410E+02 -0.15837765520E+02  0.42844839067E+02  0.00000000000E+00 0.  1.
         11    1    1    2    0    0  0.27315642585E+02  0.47108936643E+02 -0.88648931127E+02  0.10403859491E+03  0.00000000000E+00 0. -1.
</event>
<event>
 7    1  0.2666594E-009  0.7178447E+02  0.7561462E-02  0.1354128E+00
         -2   -1    0    0    0  501 -0.00000000000E+00  0.00000000000E+00  0.79253440611E+02  0.79253440611E+02  0.00000000000E+00 0.  1.
          2   -1    0    0  501    0  0.00000000000E+00 -0.00000000000E+00 -0.15963910366E+03  0.15963910366E+03  0.00000000000E+00 0. -1.
         25    2    1    2    0    0 -0.19781019436E+02  0.13191617173E+02 -0.57978374910E+02  0.13990588372E+03  0.12508739684E+03 0.  0.
          5    1    3    3  502    0 -0.32072353718E+02  0.13664507656E+02  0.32892071102E+02  0.48111489104E+02  0.41800000000E+01 0. -1.
         -5    1    3    3    0  502  0.12291334282E+02 -0.47289048285E+00 -0.90870446012E+02  0.91794394612E+02  0.41800000000E+01 0. -1.
        -11    1    1    2    0    0 -0.50451266727E+01 -0.50445893131E+02 -0.18807426003E+02  0.54073660037E+02  0.00000000000E+00 0. -1.
         11    1    1    2    0    0  0.24826146109E+02  0.37254275958E+02 -0.35998621327E+01  0.44913000514E+02  0.00000000000E+00 0.  1.
</event>
<event>
 7    1  0.2666594E-009  0.1114866E+03  0.7561462E-02  0.1257841E+00
         -1   -1    0    0    0  501 -0.00000000000E+00  0.00000000000E+00  0.15798157403E+02  0.15798157403E+02  0.00000000000E+00 0.  1.
          1   -1    0    0  501    0  0.00000000000E+00 -0.00000000000E+00 -0.11307670605E+04  0.11307670605E+04  0.00000000000E+00 0. -1.
         25    2    1    2    0    0  0.21776420629E+02 -0.43215468579E+02 -0.84482534435E+03  0.85540688779E+03  0.12509713028E+03 0.  0.
          5    1    3    3  502    0  0.23999455876E+02 -0.78754404651E+02 -0.36269825010E+03  0.37194854908E+03  0.41800000000E+01 0. -1.
         -5    1    3    3    0  502 -0.22230352463E+01  0.35538936072E+02 -0.48212709425E+03  0.48345833872E+03  0.41800000000E+01 0. -1.
        -11    1    1    2    0    0  0.19922613164E+02 -0.20468215099E+02 -0.43202082562E+02  0.51790716178E+02  0.00000000000E+00 0.  1.
         11    1    1    2    0    0 -0.41699033793E+02  0.63683683678E+02 -0.22694147615E+03  0.23936761390E+03  0.00000000000E+00 0. -1.
</event>
<event>
 7    1  0.2666594E-009  0.9981952E+02  0.7561462E-02  0.1280676E+00
         -2   -1    0    0    0  501 -0.00000000000E+00  0.00000000000E+00  0.13615548567E+02  0.13615548567E+02  0.00000000000E+00 0.  1.
          2   -1    0    0  501    0  0.00000000000E+00 -0.00000000000E+00 -0.17205634425E+04  0.17205634425E+04  0.00000000000E+00 0. -1.
         25    2    1    2    0    0  0.38752738779E+02 -0.39201631479E+02 -0.14359381603E+04  0.14424299571E+04  0.12508892116E+03 0.  0.
          5    1    3    3  502    0  0.58970155353E+02 -0.40278124368E+02 -0.13923647025E+04  0.13942011131E+04  0.41800000000E+01 0. -1.
         -5    1    3    3    0  502 -0.20217416574E+02  0.10764928891E+01 -0.43573457843E+02  0.48228844048E+02  0.41800000000E+01 0. -1.
        -11    1    1    2    0    0 -0.15770798143E+02 -0.30337833384E+02 -0.72456646596E+02  0.80119085395E+02  0.00000000000E+00 0.  1.
         11    1    1    2    0    0 -0.22981940636E+02  0.69539464864E+02 -0.19855308698E+03  0.21162994854E+03  0.00000000000E+00 0. -1.
</event>
<event>
 7    1  0.2666594E-009  0.9866124E+02  0.7561462E-02  0.1283137E+00
         -2   -1    0    0    0  501 -0.00000000000E+00  0.00000000000E+00  0.67582120325E+02  0.67582120325E+02  0.00000000000E+00 0.  1.
          2   -1    0    0  501    0  0.00000000000E+00 -0.00000000000E+00 -0.23072209394E+03  0.23072209394E+03  0.00000000000E+00 0. -1.
         25    2    1    2    0    0  0.20353984641E+02 -0.18631315359E+02 -0.26714257872E+02  0.13084745314E+03  0.12508394708E+03 0.  0.
          5    1    3    3  502    0 -0.43142292927E+02 -0.68457652475E+01 -0.45747131550E+02  0.63390806793E+02  0.41800000000E+01 0. -1.
         -5    1    3    3    0  502  0.63496277568E+02 -0.11785550111E+02  0.19032873678E+02  0.67456646351E+02  0.41800000000E+01 0. -1.
        -11    1    1    2    0    0  0.21707198812E+02  0.36944703070E+02 -0.10028451590E+03  0.10905547989E+03  0.00000000000E+00 0. -1.
         11    1    1    2    0    0 -0.42061183453E+02 -0.18313387712E+02 -0.36141199838E+02  0.58401281225E+02  0.00000000000E+00 0.  1.
</event>
<event>
 7    1  0.2666594E-009  0.1057376E+03  0.7561462E-02  0.1268673E+00
          2   -1    0    0  501    0  0.00000000000E+00  0.00000000000E+00  0.19190011868E+03  0.19190011868E+03  0.00000000000E+00 0. -1.
         -2   -1    0    0    0  501 -0.00000000000E+00 -0.00000000000E+00 -0.68288653766E+02  0.68288653766E+02  0.00000000000E+00 0.  1.
         25    2    1    2    0    0 -0.26078302745E+02 -0.20962303666E+02  0.55171316514E+02  0.14074937762E+03  0.12508803734E+03 0.  0.
          5    1    3    3  502    0  0.36879685887E+02  0.29332963972E+02  0.30836106326E+02  0.56470097041E+02  0.41800000000E+01 0.  1.
         -5    1    3    3    0  502 -0.62957988632E+02 -0.50295267638E+02  0.24335210189E+02  0.84279280576E+02  0.41800000000E+01 0.  1.
        -11    1    1    2    0    0 -0.26664561103E+02  0.14468379003E+02  0.57750413261E+02  0.65233756918E+02  0.00000000000E+00 0. -1.
         11    1    1    2    0    0  0.52742863848E+02  0.64939246626E+01  0.10689735144E+02  0.54205637916E+02  0.00000000000E+00 0.  1.
</event>
<event>
 7    1  0.2666594E-009  0.1797575E+03  0.7561462E-02  0.1168038E+00
          2   -1    0    0  501    0  0.00000000000E+00  0.00000000000E+00  0.21678744831E+03  0.21678744831E+03  0.00000000000E+00 0. -1.
         -2   -1    0    0    0  501 -0.00000000000E+00 -0.00000000000E+00 -0.16497930635E+03  0.16497930635E+03  0.00000000000E+00 0.  1.
         25    2    1    2    0    0 -0.12369625099E+03  0.88757627058E+02  0.54487051823E+02  0.20443809864E+03  0.12508964182E+03 0.  0.
          5    1    3    3  502    0 -0.12174775203E+03  0.11164680137E+03  0.66570235602E+02  0.17814766922E+03  0.41800000000E+01 0. -1.
         -5    1    3    3    0  502 -0.19484989587E+01 -0.22889174313E+02 -0.12083183778E+02  0.26290429421E+02  0.41800000000E+01 0. -1.
        -11    1    1    2    0    0 -0.55695380656E+00 -0.35884217540E+02 -0.20165784650E+02  0.41166079927E+02  0.00000000000E+00 0.  1.
         11    1    1    2    0    0  0.12425320480E+03 -0.52873409518E+02  0.17486874784E+02  0.13616257608E+03  0.00000000000E+00 0. -1.
</event>
<event>
 7    1  0.2666594E-009  0.1163134E+03  0.7561462E-02  0.1249306E+00
         -2   -1    0    0    0  501 -0.00000000000E+00  0.00000000000E+00  0.20187746035E+02  0.20187746035E+02  0.00000000000E+00 0.  1.
          2   -1    0    0  501    0  0.00000000000E+00 -0.00000000000E+00 -0.78350806182E+03  0.78350806182E+03  0.00000000000E+00 0. -1.
         25    2    1    2    0    0 -0.25923815657E+01 -0.61215499304E+02 -0.45742156239E+03  0.47815927331E+03  0.12509095534E+03 0.  0.
          5    1    3    3  502    0 -0.18858796543E+02  0.35663721182E+02 -0.11751634363E+03  0.12431861742E+03  0.41800000000E+01 0.  1.
         -5    1    3    3    0  502  0.16266414977E+02 -0.96879220486E+02 -0.33990521876E+03  0.35384065589E+03  0.41800000000E+01 0.  1.
        -11    1    1    2    0    0 -0.18442607510E+02  0.68917855965E+02 -0.28845045985E+03  0.29714216872E+03  0.00000000000E+00 0. -1.
         11    1    1    2    0    0  0.21034989076E+02 -0.77023566610E+01 -0.17448293540E+02  0.28394365832E+02  0.00000000000E+00 0.  1.
</event>
<event>
 7    1  0.2666594E-009  0.6980482E+02  0.7561462E-02  0.1360758E+00
         -2   -1    0    0    0  501 -0.00000000000E+00  0.00000000000E+00  0.32821988302E+02  0.32821988302E+02  0.00000000000E+00 0.  1.
          2   -1    0    0  501    0  0.00000000000E+00 -0.00000000000E+00 -0.41582611683E+03  0.41582611683E+03  0.00000000000E+00 0. -1.
         25    2    1    2    0    0  0.38680023254E+01  0.40288806616E+02 -0.19237394761E+03  0.23300909075E+03  0.12508937313E+03 0.  0.
          5    1    3    3  502    0 -0.15132951894E+01  0.30006894801E+02  0.86998516612E+01  0.31557306870E+02  0.41800000000E+01 0. -1.
         -5    1    3    3    0  502  0.53812975148E+01  0.10281911814E+02 -0.20107379927E+03  0.20145178388E+03  0.41800000000E+01 0. -1.
        -11    1    1    2    0    0  0.42023092120E+02 -0.22961600087E+02 -0.12379672868E+03  0.13273584814E+03  0.00000000000E+00 0.  1.
         11    1    1    2    0    0 -0.45891094446E+02 -0.17327206529E+02 -0.66833452241E+02  0.82903166248E+02  0.00000000000E+00 0. -1.
</event>
<event>
 7    1  0.2666594E-009  0.1650756E+03  0.7561462E-02  0.1183083E+00
          2   -1    0    0  501    0  0.00000000000E+00  0.00000000000E+00  0.17682083772E+03  0.17682083772E+03  0.00000000000E+00 0. -1.
         -2   -1    0    0    0  501 -0.00000000000E+00 -0.00000000000E+00 -0.18564955085E+03  0.18564955085E+03  0.00000000000E+00 0.  1.
         25    2    1    2    0    0  0.47813862759E+02  0.13622730689E+03  0.75826704770E+00  0.19102699505E+03  0.12508674292E+03 0.  0.
          5    1    3    3  502    0 -0.63048045188E+00 -0.11038609282E+02  0.30860554755E+02  0.33046855225E+02  0.41800000000E+01 0.  1.
         -5    1    3    3    0  502  0.48444343211E+02  0.14726591617E+03 -0.30102287707E+02  0.15798013982E+03  0.41800000000E+01 0.  1.
        -11    1    1    2    0    0 -0.66925864983E+02 -0.82576265587E+02 -0.30805547006E+02  0.11066568017E+03  0.00000000000E+00 0.  1.
         11    1    1    2    0    0  0.19112002223E+02 -0.53651041299E+02  0.21218566824E+02  0.60777713345E+02  0.00000000000E+00 0. -1.
</event>
<event>
 7    1  0.2666594E-009  0.8609474E+02  0.7561462E-02  0.1312594E+00
          3   -1    0    0  501    0  0.00000000000E+00  0.00000000000E+00  0.28816804770E+03  0.28816804770E+03  0.00000000000E+00 0. -1.
         -3   -1    0    0    0  501 -0.00000000000E+00 -0.00000000000E+00 -0.49287860028E+02  0.49287860028E+02  0.00000000000E+00 0.  1.
         25    2    1    2    0    0 -0.31563115930E+02  0.15122962464E+02  0.18153340632E+03  0.22321978961E+03  0.12509101719E+03 0.  0.
          5    1    3    3  502    0 -0.37246819898E+02 -0.22106010134E+02  0.63375659261E+01  0.43973155657E+02  0.41800000000E+01 0. -1.
         -5    1    3    3    0  502  0.56837039678E+01  0.37228972599E+02  0.17519584040E+03  0.17924663395E+03  0.41800000000E+01 0. -1.
        -11    1    1    2    0    0 -0.28842794850E+02 -0.81793352927E+01  0.41864677286E+02  0.51492325106E+02  0.00000000000E+00 0. -1.
         11    1    1    2    0    0  0.60405910780E+02 -0.69436271717E+01  0.15482104067E+02  0.62743793014E+02  0.00000000000E+00 0.  1.
</event>
<event>
 7    1  0.2666594E-009  0.2462514E+03  0.7561462E-02  0.1115697E+00
          2   -1    0    0  501    0  0.00000000000E+00  0.00000000000E+00  0.45213965132E+03  0.45213965132E+03  0.00000000000E+00 0.  1.
         -2   -1    0    0    0  501 -0.00000000000E+00 -0.00000000000E+00 -0.18981657857E+03  0.18981657857E+03  0.00000000000E+00 0. -1.
         25    2    1    2    0    0 -0.23672288566E+03  0.44614984708E+02  0.27169157998E+03  0.38404759724E+03  0.12509204957E+03 0.  0.
          5    1    3    3  502    0 -0.37604315887E+02  0.48465536655E+01  0.13237811241E+03  0.13776433029E+03  0.41800000000E+01 0.  1.
         -5    1    3    3    0  502 -0.19911856977E+03  0.39768431042E+02  0.13931346757E+03  0.24628326695E+03  0.41800000000E+01 0.  1.
        -11    1    1    2    0    0  0.22934649923E+03 -0.25481629636E+02 -0.25022580769E+02  0.23211044721E+03  0.00000000000E+00 0. -1.
         11    1    1    2    0    0  0.73763864280E+01 -0.19133355072E+02  0.15654073542E+02  0.25798185430E+02  0.00000000000E+00 0.  1.
</event>
<event>
 7    1  0.2666594E-009  0.7598553E+02  0.7561462E-02  0.1340846E+00
         -2   -1    0    0    0  501 -0.00000000000E+00  0.00000000000E+00  0.41749415977E+02  0.41749415977E+02  0.00000000000E+00 0.  1.
          2   -1    0    0  501    0  0.00000000000E+00 -0.00000000000E+00 -0.32425154827E+03  0.32425154827E+03  0.00000000000E+00 0. -1.
         25    2    1    2    0    0 -0.36509114522E+02  0.17794101353E+02 -0.19860367294E+03  0.23820256569E+03  0.12508995926E+03 0.  0.
          5    1    3    3  502    0  0.13407993866E+02 -0.81287330119E+01 -0.17709768698E+03  0.17783957302E+03  0.41800000000E+01 0.  1.
         -5    1    3    3    0  502 -0.49917108388E+02  0.25922834365E+02 -0.21505985965E+02  0.60362992667E+02  0.41800000000E+01 0.  1.
        -11    1    1    2    0    0  0.72750313146E+01  0.25826180783E+02  0.22311326152E+01  0.26923886183E+02  0.00000000000E+00 0. -1.
         11    1    1    2    0    0  0.29234083208E+02 -0.43620282136E+02 -0.86129591965E+02  0.10087451237E+03  0.00000000000E+00 0.  1.
</event>
<event>
 7    1  0.2666594E-009  0.1094233E+03  0.7561462E-02  0.1261642E+00
          2   -1    0    0  501    0  0.00000000000E+00  0.00000000000E+00  0.24112215857E+03  0.24112215857E+03  0.00000000000E+00 0. -1.
         -2   -1    0    0    0  501 -0.00000000000E+00 -0.00000000000E+00 -0.11132454154E+03  0.11132454154E+03  0.00000000000E+00 0.  1.
         25    2    1    2    0    0 -0.28128459700E+02 -0.10172178867E+03  0.85933990938E+00  0.16366580166E+03  0.12508886295E+03 0.  0.
          5    1    3    3  502    0  0.81952390429E+01 -0.31555995223E+02  0.57588767458E+02  0.66308983666E+02  0.41800000000E+01 0. -1.
         -5    1    3    3    0  502 -0.36323698743E+02 -0.70165793449E+02 -0.56729427549E+02  0.97356817998E+02  0.41800000000E+01 0. -1.
        -11    1    1    2    0    0  0.40175099735E+01  0.45566444402E+02 -0.38517736142E+00  0.45744831440E+02  0.00000000000E+00 0.  1.
         11    1    1    2    0    0  0.24110949726E+02  0.56155344269E+02  0.12932345448E+03  0.14303606701E+03  0.00000000000E+00 0. -1.
</event>
<event>
 7    1  0.2666594E-009  0.1092261E+03  0.7561462E-02  0.1262010E+00
          1   -1    0    0  501    0  0.00000000000E+00  0.00000000000E+00  0.31002154262E+02  0.31002154262E+02  0.00000000000E+00 0. -1.
         -1   -1    0    0    0  501 -0.00000000000E+00 -0.00000000000E+00 -0.47141296372E+03  0.47141296372E+03  0.00000000000E+00 0.  1.
         25    2    1    2    0    0 -0.13321995482E+02  0.26660183291E+02 -0.20972543111E+03  0.24600930267E+03  0.12509028582E+03 0.  0.
          5    1    3    3  502    0  0.43725560696E+02 -0.16932347723E+02 -0.40364943900E+02  0.62011532425E+02  0.41800000000E+01 0. -1.
         -5    1    3    3    0  502 -0.57047556178E+02  0.43592531014E+02 -0.16936048721E+03  0.18399777024E+03  0.41800000000E+01 0. -1.
        -11    1    1    2    0    0 -0.34063955673E+02 -0.37693629374E+02 -0.17611056325E+03  0.18329237098E+03  0.00000000000E+00 0.  1.
         11    1    1    2    0    0  0.47385951155E+02  0.11033446083E+02 -0.54574815094E+02  0.73113444331E+02  0.00000000000E+00 0. -1.
</event>
<event>
 7    1  0.2666594E-009  0.6900807E+02  0.7561462E-02  0.1363499E+00
         -2   -1    0    0    0  501 -0.00000000000E+00  0.00000000000E+00  0.51739858841E+02  0.51739858841E+02  0.00000000000E+00 0.  1.
          2   -1    0    0  501    0  0.00000000000E+00 -0.00000000000E+00 -0.28395046725E+03  0.28395046725E+03  0.00000000000E+00 0. -1.
         25    2    1    2    0    0  0.10402581821E+02 -0.32799925308E+02 -0.70699100447E+02  0.14775031834E+03  0.12509094674E+03 0.  0.
          5    1    3    3  502    0  0.17701906771E+02  0.30302110508E+00 -0.10067591185E+03  0.10230621170E+03  0.41800000000E+01 0. -1.
         -5    1    3    3    0  502 -0.72993249500E+01 -0.33102946413E+02  0.29976811406E+02  0.45444106637E+02  0.41800000000E+01 0. -1.
        -11    1    1    2    0    0 -0.15505496237E+02 -0.24037150579E+02 -0.18766461871E+02  0.34210891725E+02  0.00000000000E+00 0.  1.
         11    1    1    2    0    0  0.51029144154E+01  0.56837075887E+02 -0.14274504609E+03  0.15372911602E+03  0.00000000000E+00 0. -1.
</event>
<event>
 7    1  0.2666594E-009  0.1964191E+03  0.7561462E-02  0.1152796E+00
          3   -1    0    0  501    0  0.00000000000E+00  0.00000000000E+00  0.10157381329E+03  0.10157381329E+03  0.00000000000E+00 0. -1.
         -3   -1    0    0    0  501 -0.00000000000E+00 -0.00000000000E+00 -0.46582650738E+03  0.46582650738E+03  0.00000000000E+00 0.  1.
         25    2    1    2    0    0  0.18369333729E+03  0.24625118605E+02 -0.23322365165E+03  0.32309568578E+03  0.12509161383E+03 0.  0.
          5    1    3    3  502    0  0.94982603396E+02  0.17374446472E+01 -0.29306137141E+02  0.99503948343E+02  0.41800000000E+01 0.  1.
         -5    1    3    3    0  502  0.88710733890E+02  0.22887673958E+02 -0.20391751451E+03  0.22359173744E+03  0.41800000000E+01 0.  1.
        -11    1    1    2    0    0 -0.10716043535E+03 -0.58786117566E+02 -0.82403730871E+02  0.14740943452E+03  0.00000000000E+00 0. -1.
         11    1    1    2    0    0 -0.76532901934E+02  0.34160998960E+02 -0.48625311572E+02  0.96895200366E+02  0.00000000000E+00 0.  1.
</event>
<event>
 7    1  0.2666594E-009  0.8446058E+02  0.7561462E-02  0.1316849E+00
          2   -1    0    0  501    0  0.00000000000E+00  0.00000000000E+00  0.42996707611E+02  0.42996707611E+02  0.00000000000E+00 0. -1.
         -2   -1    0    0    0  501 -0.00000000000E+00 -0.00000000000E+00 -0.35157205190E+03  0.35157205190E+03  0.00000000000E+00 0.  1.
         25    2    1    2    0    0  0.38258813517E+02  0.34847578674E+02 -0.20107139977E+03  0.24239643830E+03  0.12509290527E+03 0.  0.
          5    1    3    3  502    0  0.64018059385E+02  0.30530155555E+02 -0.20377686097E+03  0.21580751560E+03  0.41800000000E+01 0. -1.
         -5    1    3    3    0  502 -0.25759245868E+02  0.43174231189E+01  0.27054612007E+01  0.26588922701E+02  0.41800000000E+01 0. -1.
        -11    1    1    2    0    0 -0.15080222158E+02  0.11922094875E+02 -0.97052569008E+02  0.98938114989E+02  0.00000000000E+00 0.  1.
         11    1    1    2    0    0 -0.23178591359E+02 -0.46769673549E+02 -0.10451375514E+02  0.53234206215E+02  0.00000000000E+00 0. -1.
</event>
<event>
 7    1  0.2666594E-009  0.1014789E+03  0.7561462E-02  0.1277216E+00
          2   -1    0    0  501    0  0.00000000000E+00  0.00000000000E+00  0.88122147785E+02  0.88122147785E+02  0.00000000000E+00 0. -1.
         -2   -1    0    0    0  501 -0.00000000000E+00 -0.00000000000E+00 -0.15358096294E+03  0.15358096294E+03  0.00000000000E+00 0.  1.
         25    2    1    2    0    0 -0.76622795163E+01 -0.12149421882E+02  0.72337209948E+01  0.12611776945E+03  0.12508815320E+03 0.  0.
          5    1    3    3  502    0 -0.33948486960E+02 -0.57117007315E+02  0.24717445551E+02  0.71016032035E+02  0.41800000000E+01 0.  1.
         -5    1    3    3    0  502  0.26286207444E+02  0.44967585433E+02 -0.17483724556E+02  0.55101737412E+02  0.41800000000E+01 0.  1.
        -11    1    1    2    0    0 -0.33915304835E+02 -0.12083529950E+02 -0.51890745089E+02  0.63157810474E+02  0.00000000000E+00 0.  1.
         11    1    1    2    0    0  0.41577584351E+02  0.24232951831E+02 -0.20801791065E+02  0.52427530806E+02  0.00000000000E+00 0. -1.
</event>
<event>
 7    1  0.2666594E-009  0.1306786E+03  0.7561462E-02  0.1226452E+00
          2   -1    0    0  501    0  0.00000000000E+00  0.00000000000E+00  0.10970877918E+03  0.10970877918E+03  0.00000000000E+00 0. -1.
         -2   -1    0    0    0  501 -0.00000000000E+00 -0.00000000000E+00 -0.17102748524E+03  0.17102748524E+03  0.00000000000E+00 0.  1.
         25    2    1    2    0    0 -0.78461265421E+02  0.19558349707E+02 -0.44243016818E+02  0.15538158631E+03  0.12508914266E+03 0.  0.
          5    1    3    3  502    0  0.38891734442E+01  0.57302143549E+02 -0.10001902781E+02  0.58448026354E+02  0.41800000000E+01 0.  1.
         -5    1    3    3    0  502 -0.82350438865E+02 -0.37743793842E+02 -0.34241114038E+02  0.96933559954E+02  0.41800000000E+01 0.  1.
        -11    1    1    2    0    0  0.33992290232E+02 -0.49086412715E+02 -0.34800862746E+02  0.69108984628E+02  0.00000000000E+00 0.  1.
         11    1    1    2    0    0  0.44468975188E+02  0.29528063008E+02  0.17725173501E+02  0.56245693479E+02  0.00000000000E+00 0. -1.
</event>
<event>
 7    1  0.2666594E-009  0.1102114E+03  0.7561462E-02  0.1260179E+00
          4   -1    0    0  501    0  0.00000000000E+00  0.00000000000E+00  0.33558935530E+03  0.33558935530E+03  0.00000000000E+00 0. -1.
         -4   -1    0    0    0  501 -0.00000000000E+00 -0.00000000000E+00 -0.39168920449E+02  0.39168920449E+02  0.00000000000E+00 0.  1.
         25    2    1    2    0    0 -0.27732545085E+02 -0.46200561964E+01  0.12602187741E+03  0.17976695644E+03  0.12507680067E+03 0.  0.
          5    1    3    3  502    0 -0.61731751648E+01  0.59080343378E+02  0.46607330139E+02  0.75619512614E+02  0.41800000000E+01 0.  1.
         -5    1    3    3    0  502 -0.21559369920E+02 -0.63700399575E+02  0.79414547271E+02  0.10414744383E+03  0.41800000000E+01 0.  1.
        -11    1    1    2    0    0  0.45743769045E+02 -0.29836450440E+02  0.83278555387E+02  0.99589276374E+02  0.00000000000E+00 0. -1.
         11    1    1    2    0    0 -0.18011223960E+02  0.34456506636E+02  0.87120002057E+02  0.95402042937E+02  0.00000000000E+00 0.  1.
</event>
<event>
 7    1  0.2666594E-009  0.2503116E+03  0.7561462E-02  0.1113108E+00
          1   -1    0    0  501    0  0.00000000000E+00  0.00000000000E+00  0.15527091827E+03  0.15527091827E+03  0.00000000000E+00 0. -1.
         -1   -1    0    0    0  501 -0.00000000000E+00 -0.00000000000E+00 -0.44718027711E+03  0.44718027711E+03  0.00000000000E+00 0.  1.
         25    2    1    2    0    0 -0.21614874932E+03 -0.10003835881E+03 -0.18079558627E+03  0.32413479529E+03  0.12509343082E+03 0.  0.
          5    1    3    3  502    0 -0.10025865532E+03 -0.14574410374E+02 -0.14282475223E+03  0.17515876699E+03  0.41800000000E+01 0.  1.
         -5    1    3    3    0  502 -0.11589009400E+03 -0.85463948433E+02 -0.37970834042E+02  0.14897602830E+03  0.41800000000E+01 0.  1.
        -11    1    1    2    0    0  0.46181426122E+02 -0.16550452907E+02 -0.22062843199E+02  0.53790432794E+02  0.00000000000E+00 0.  1.
         11    1    1    2    0    0  0.16996732320E+03  0.11658881171E+03 -0.89050929371E+02  0.22452596730E+03  0.00000000000E+00 0. -1.
</event>
<event>
 7    1  0.2666594E-009  0.4080583E+03  0.7561462E-02  0.1041025E+00
          2   -1    0    0  501    0  0.00000000000E+00  0.00000000000E+00  0.52554079578E+03  0.52554079578E+03  0.00000000000E+00 0. -1.
         -2   -1    0    0    0  501 -0.00000000000E+00 -0.00000000000E+00 -0.35220098985E+03  0.35220098985E+03  0.00000000000E+00 0.  1.
         25    2    1    2    0    0  0.37325650767E+03 -0.13985546585E+03  0.20915998394E+03  0.46719862067E+03  0.12508669167E+03 0.  0.
          5    1    3    3  502    0  0.29301641711E+03 -0.63740840183E+02  0.11266427437E+03  0.32036264845E+03  0.41800000000E+01 0. -1.
         -5    1    3    3    0  502  0.80240090556E+02 -0.76114625666E+02  0.96495709565E+02  0.14683597222E+03  0.41800000000E+01 0. -1.
        -11    1    1    2    0    0 -0.28015470097E+03  0.13828813925E+03 -0.49845932503E+02  0.31637775352E+03  0.00000000000E+00 0.  1.
         11    1    1    2    0    0 -0.93101806692E+02  0.15673265958E+01  0.14025754500E+02  0.94165411438E+02  0.00000000000E+00 0. -1.
</event>
<event>
 7    1  0.2666594E-009  0.1197029E+03  0.7561462E-02  0.1243588E+00
         -2   -1    0    0    0  501 -0.00000000000E+00  0.00000000000E+00  0.32322764378E+03  0.32322764378E+03  0.00000000000E+00 0.  1.
          2   -1    0    0  501    0  0.00000000000E+00 -0.00000000000E+00 -0.53966015024E+02  0.53966015024E+02  0.00000000000E+00 0. -1.
         25    2    1    2    0    0 -0.50394478431E+02 -0.53048705699E+02  0.20045193225E+03  0.24734967926E+03  0.12508844093E+03 0.  0.
          5    1    3    3  502    0 -0.71458340518E+02 -0.78528618519E+02  0.17754763105E+03  0.20691464919E+03  0.41800000000E+01 0. -1.
         -5    1    3    3    0  502  0.21063862087E+02  0.25479912821E+02  0.22904301197E+02  0.40435030069E+02  0.41800000000E+01 0. -1.
        -11    1    1    2    0    0  0.51721364545E+02  0.52251690076E+01  0.62956827483E+02  0.81645355460E+02  0.00000000000E+00 0.  1.
         11    1    1    2    0    0 -0.13268861140E+01  0.47823536691E+02  0.58528690264E+01  0.48198624091E+02  0.00000000000E+00 0. -1.
</event>
<event>
 7    1  0.2666594E-009  0.9870431E+02  0.7561462E-02  0.1283044E+00
          2   -1    0    0  501    0  0.00000000000E+00  0.00000000000E+00  0.94922640906E+03  0.94922640906E+03  0.00000000000E+00 0. -1.
         -2   -1    0    0    0  501 -0.00000000000E+00 -0.00000000000E+00 -0.13091005507E+02  0.13091005507E+02  0.00000000000E+00 0.  1.
         25    2    1    2    0    0  0.25825506075E+02  0.86186909052E+00  0.55448820319E+03  0.56900958853E+03  0.12508814802E+03 0.  0.
          5    1    3    3  502    0  0.29525468754E+02 -0.46293639680E+02  0.12115149799E+03  0.13307896996E+03  0.41800000000E+01 0. -1.
         -5    1    3    3    0  502 -0.36999626789E+01  0.47155508770E+02  0.43333670520E+03  0.43593061857E+03  0.41800000000E+01 0. -1.
        -11    1    1    2    0    0  0.29543326347E+02 -0.20665189815E+02  0.13278021048E+03  0.13758794459E+03  0.00000000000E+00 0.  1.
         11    1    1    2    0    0 -0.55368832422E+02  0.19803320725E+02  0.24886698988E+03  0.25571988145E+03  0.00000000000E+00 0. -1.
</event>
<event>
 7    1  0.2666594E-009  0.1360897E+03  0.7561462E-02  0.1218690E+00
          3   -1    0    0  501    0  0.00000000000E+00  0.00000000000E+00  0.50803782104E+02  0.50803782104E+02  0.00000000000E+00 0. -1.
         -3   -1    0    0    0  501 -0.00000000000E+00 -0.00000000000E+00 -0.37702195759E+03  0.37702195759E+03  0.00000000000E+00 0.  1.
         25    2    1    2    0    0 -0.59589352824E+02  0.65251117351E+02 -0.19327995709E+03  0.24660282385E+03  0.12508881497E+03 0.  0.
          5    1    3    3  502    0  0.38496852290E+02  0.22031848648E+02 -0.72223224415E+02  0.84859157054E+02  0.41800000000E+01 0. -1.
         -5    1    3    3    0  502 -0.98086205114E+02  0.43219268703E+02 -0.12105673268E+03  0.16174366679E+03  0.41800000000E+01 0. -1.
        -11    1    1    2    0    0 -0.13184265666E+02 -0.41909899329E+02 -0.67874884446E+02  0.80853351578E+02  0.00000000000E+00 0.  1.
         11    1    1    2    0    0  0.72773618491E+02 -0.23341218023E+02 -0.65063333947E+02  0.10036956427E+03  0.00000000000E+00 0. -1.
</event>
<event>
 7    1  0.2666594E-009  0.9850874E+02  0.7561462E-02  0.1283463E+00
         -1   -1    0    0    0  501 -0.00000000000E+00  0.00000000000E+00  0.38512118241E+02  0.38512118241E+02  0.00000000000E+00 0.  1.
          1   -1    0    0  501    0  0.00000000000E+00 -0.00000000000E+00 -0.40550584395E+03  0.40550584395E+03  0.00000000000E+00 0. -1.
         25    2    1    2    0    0 -0.46636356312E+02  0.34052487748E+02 -0.24158030763E+03  0.27810678478E+03  0.12509123491E+03 0.  0.
          5    1    3    3  502    0 -0.18620137244E+02 -0.34820578748E+02 -0.17083830169E+03  0.17539207491E+03  0.41800000000E+01 0. -1.
         -5    1    3    3    0  502 -0.28016219068E+02  0.68873066496E+02 -0.70742005938E+02  0.10271470987E+03  0.41800000000E+01 0. -1.
        -11    1    1    2    0    0  0.52986209959E+02 -0.51363542748E+01 -0.20740641871E+02  0.57132257143E+02  0.00000000000E+00 0.  1.
         11    1    1    2    0    0 -0.63498536467E+01 -0.28916133474E+02 -0.10467277621E+03  0.10877892027E+03  0.00000000000E+00 0. -1.
</event>
<event>
 7    1  0.2666594E-009  0.3713570E+03  0.7561462E-02  0.1054175E+00
          2   -1    0    0  501    0  0.00000000000E+00  0.00000000000E+00  0.29782540528E+04  0.29782540528E+04  0.00000000000E+00 0.  1.
         -2   -1    0    0    0  501 -0.00000000000E+00 -0.00000000000E+00 -0.49656941806E+02  0.49656941806E+02  0.00000000000E+00 0. -1.
         25    2    1    2    0    0  0.26180526989E+03 -0.25569254009E+03  0.16621808451E+04  0.17065793744E+04  0.12508926777E+03 0.  0.
          5    1    3    3  502    0  0.12284115442E+03 -0.11823614070E+03  0.50558393930E+03  0.53357504277E+03  0.41800000000E+01 0. -1.
         -5    1    3    3    0  502  0.13896411547E+03 -0.13745639940E+03  0.11565969058E+04  0.11730043316E+04  0.41800000000E+01 0. -1.
        -11    1    1    2    0    0 -0.56638199029E+02  0.11407241476E+03  0.45402394624E+03  0.47154866680E+03  0.00000000000E+00 0. -1.
         11    1    1    2    0    0 -0.20516707086E+03  0.14162012533E+03  0.81239231959E+03  0.84978295335E+03  0.00000000000E+00 0.  1.
</event>
<event>
 7    1  0.2666594E-009  0.1149251E+03  0.7561462E-02  0.1251712E+00
         -1   -1    0    0    0  501 -0.00000000000E+00  0.00000000000E+00  0.79108692569E+02  0.79108692569E+02  0.00000000000E+00 0.  1.
          1   -1    0    0  501    0  0.00000000000E+00 -0.00000000000E+00 -0.32871104652E+03  0.32871104652E+03  0.00000000000E+00 0. -1.
         25    2    1    2    0    0 -0.78001822601E+02 -0.41612429211E+02 -0.23522103378E+03  0.28069838871E+03  0.12508705807E+03 0.  0.
          5    1    3    3  502    0  0.18431008361E+02 -0.31002484162E+02 -0.14024332759E+03  0.14486724760E+03  0.41800000000E+01 0.  1.
         -5    1    3    3    0  502 -0.96432830963E+02 -0.10609945049E+02 -0.94977706188E+02  0.13583114111E+03  0.41800000000E+01 0.  1.
        -11    1    1    2    0    0  0.89217707792E+01 -0.75182364542E+01 -0.37485868831E+02  0.39259549605E+02  0.00000000000E+00 0. -1.
         11    1    1    2    0    0  0.69080051822E+02  0.49130665665E+02  0.23104548653E+02  0.87861800784E+02  0.00000000000E+00 0.  1.
</event>
<event>
 7    1  0.2666594E-009  0.9285632E+02  0.7561462E-02  0.1296078E+00
         -1   -1    0    0    0  501 -0.00000000000E+00  0.00000000000E+00  0.28104366501E+03  0.28104366501E+03  0.00000000000E+00 0.  1.
          1   -1    0    0  501    0  0.00000000000E+00 -0.00000000000E+00 -0.45389349241E+02  0.45389349241E+02  0.00000000000E+00 0. -1.
         25    2    1    2    0    0  0.26721278164E+02 -0.23274167952E+02  0.81434783014E+02  0.15340985729E+03  0.12508895566E+03 0.  0.
          5    1    3    3  502    0 -0.19564912329E+02  0.40936210863E+02  0.98736386320E+01  0.46621028454E+02  0.41800000000E+01 0.  1.
         -5    1    3    3    0  502  0.46286190493E+02 -0.64210378815E+02  0.71561144382E+02  0.10678882883E+03  0.41800000000E+01 0.  1.
        -11    1    1    2    0    0 -0.32351537952E+02 -0.43948073866E+01  0.13493858189E+03  0.13883211884E+03  0.00000000000E+00 0.  1.
         11    1    1    2    0    0  0.56302597881E+01  0.27668975339E+02  0.19280950859E+02  0.34191038119E+02  0.00000000000E+00 0. -1.
</event>
<event>
 7    1  0.2666594E-009  0.5573245E+02  0.7561462E-02  0.1416667E+00
         -2   -1    0    0    0  501 -0.00000000000E+00  0.00000000000E+00  0.80078211437E+02  0.80078211437E+02  0.00000000000E+00 0.  1.
          2   -1    0    0  501    0  0.00000000000E+00 -0.00000000000E+00 -0.16643797233E+03  0.16643797233E+03  0.00000000000E+00 0. -1.
         25    2    1    2    0    0 -0.30053578307E+02  0.42269912928E+01 -0.78087547221E+02  0.15055360314E+03  0.12509051668E+03 0.  0.
          5    1    3    3  502    0 -0.31945261299E+02  0.42888698944E-01 -0.11176118281E+03  0.11631223470E+03  0.41800000000E+01 0.  1.
         -5    1    3    3    0  502  0.18916829923E+01  0.41841025939E+01  0.33673635585E+02  0.34241368439E+02  0.41800000000E+01 0.  1.
        -11    1    1    2    0    0  0.50068188706E+02  0.62330877124E+01 -0.34673494382E+02  0.61220308031E+02  0.00000000000E+00 0. -1.
         11    1    1    2    0    0 -0.20014610399E+02 -0.10460079005E+02  0.26401280708E+02  0.34742272597E+02  0.00000000000E+00 0.  1.
</event>
<event>
 7    1  0.2666594E-009  0.1445149E+03  0.7561462E-02  0.1207380E+00
         -1   -1    0    0    0  501 -0.00000000000E+00  0.00000000000E+00  0.13922901446E+03  0.13922901446E+03  0.00000000000E+00 0.  1.
          1   -1    0    0  501    0  0.00000000000E+00 -0.00000000000E+00 -0.27763553252E+03  0.27763553252E+03  0.00000000000E+00 0. -1.
         25    2    1    2    0    0  0.92509988386E+02 -0.40062099383E+02  0.64135226397E+02  0.17298546998E+03  0.12509027061E+03 0.  0.
          5    1    3    3  502    0  0.12375994736E+03 -0.35160300235E+02  0.50186816009E+02  0.13816280318E+03  0.41800000000E+01 0.  1.
         -5    1    3    3    0  502 -0.31249958972E+02 -0.49017991483E+01  0.13948410388E+02  0.34822666799E+02  0.41800000000E+01 0.  1.
        -11    1    1    2    0    0 -0.60572730788E+02 -0.17080978292E+02 -0.59676192296E+02  0.86729830287E+02  0.00000000000E+00 0.  1.
         11    1    1    2    0    0 -0.31937257598E+02  0.57143077675E+02 -0.14286555216E+03  0.15714924671E+03  0.00000000000E+00 0. -1.
</event>
<event>
 7    1  0.2666594E-009  0.1338683E+03  0.7561462E-02  0.1221826E+00
          2   -1    0    0  501    0  0.00000000000E+00  0.00000000000E+00  0.54589656301E+03  0.54589656301E+03  0.00000000000E+00 0. -1.
         -2   -1    0    0    0  501 -0.00000000000E+00 -0.00000000000E+00 -0.34173707293E+02  0.34173707293E+02  0.00000000000E+00 0.  1.
         25    2    1    2    0    0 -0.79666496769E+02 -0.13456092749E+02  0.25901284583E+03  0.29876867614E+03  0.12508896992E+03 0.  0.
          5    1    3    3  502    0  0.25721421426E+02  0.25439198554E+02  0.67701997380E+02  0.76875075236E+02  0.41800000000E+01 0. -1.
         -5    1    3    3    0  502 -0.10538791819E+03 -0.38895291303E+02  0.19131084845E+03  0.22189360090E+03  0.41800000000E+01 0. -1.
        -11    1    1    2    0    0 -0.34741589808E+01  0.33258039090E+02  0.40455998429E+02  0.52486710257E+02  0.00000000000E+00 0.  1.
         11    1    1    2    0    0  0.83140655749E+02 -0.19801946341E+02  0.21225401146E+03  0.22881488391E+03  0.00000000000E+00 0. -1.
</event>
<event>
 7    1  0.2666594E-009  0.9932683E+02  0.7561462E-02  0.1281718E+00
         -1   -1    0    0    0  501 -0.00000000000E+00  0.00000000000E+00  0.74437105392E+02  0.74437105392E+02  0.00000000000E+00 0.  1.
          1   -1    0    0  501    0  0.00000000000E+00 -0.00000000000E+00 -0.21450194969E+03  0.21450194969E+03  0.00000000000E+00 0. -1.
         25    2    1    2    0    0  0.26115502591E+02  0.17108991137E+02 -0.14174202793E+03  0.19160708475E+03  0.12509090851E+03 0.  0.
          5    1    3    3  502    0 -0.45584425077E+02  0.78582122918E+01 -0.21356573983E+02  0.51120122871E+02  0.41800000000E+01 0. -1.
         -5    1    3    3    0  502  0.71699927668E+02  0.92507788450E+01 -0.12038545395E+03  0.14048696188E+03  0.41800000000E+01 0. -1.
        -11    1    1    2    0    0 -0.46765267699E+02  0.78286011001E+01 -0.26580122022E+02  0.54357889445E+02  0.00000000000E+00 0. -1.
         11    1    1    2    0    0  0.20649765108E+02 -0.24937592237E+02  0.28257305651E+02  0.42974080889E+02  0.00000000000E+00 0.  1.
</event>
<event>
 7    1  0.2666594E-009  0.2227384E+03  0.7561462E-02  0.1131858E+00
          2   -1    0    0  501    0  0.00000000000E+00  0.00000000000E+00  0.10219240236E+04  0.10219240236E+04  0.00000000000E+00 0. -1.
         -2   -1    0    0    0  501 -0.00000000000E+00 -0.00000000000E+00 -0.57665267986E+02  0.57665267986E+02  0.00000000000E+00 0.  1.
         25    2    1    2    0    0 -0.17445622623E+03  0.12718946391E+03  0.52892685452E+03  0.58482725125E+03  0.12508861567E+03 0.  0.
          5    1    3    3  502    0 -0.12608642237E+03  0.96661350217E+02  0.22459767226E+03  0.27514139877E+03  0.41800000000E+01 0.  1.
         -5    1    3    3    0  502 -0.48369803859E+02  0.30528113696E+02  0.30432918226E+03  0.30968585248E+03  0.41800000000E+01 0.  1.
        -11    1    1    2    0    0  0.13001597410E+03 -0.48389231797E+02  0.20727365277E+03  0.24941539328E+03  0.00000000000E+00 0. -1.
         11    1    1    2    0    0  0.44440252131E+02 -0.78800232116E+02  0.22805824835E+03  0.24534664708E+03  0.00000000000E+00 0.  1.
</event>
<event>
 7    1  0.2666594E-009  0.1266452E+03  0.7561462E-02  0.1232520E+00
         -2   -1    0    0    0  501 -0.00000000000E+00  0.00000000000E+00  0.26513718203E+03  0.26513718203E+03  0.00000000000E+00 0.  1.
          2   -1    0    0  501    0  0.00000000000E+00 -0.00000000000E+00 -0.91989517263E+02  0.91989517263E+02  0.00000000000E+00 0. -1.
         25    2    1    2    0    0 -0.93149687147E+02 -0.48335553127E+02  0.13950077982E+03  0.21475964897E+03  0.12509216339E+03 0.  0.
          5    1    3    3  502    0 -0.38994413602E+02 -0.54954855291E+02  0.28645388506E+01  0.67574243577E+02  0.41800000000E+01 0. -1.
         -5    1    3    3    0  502 -0.54155273545E+02  0.66193021642E+01  0.13663624097E+03  0.14718540539E+03  0.41800000000E+01 0. -1.
        -11    1    1    2    0    0  0.13598261449E+02 -0.21342710128E+02 -0.10978081367E+02  0.27585181901E+02  0.00000000000E+00 0. -1.
         11    1    1    2    0    0  0.79551425699E+02  0.69678263254E+02  0.44624966318E+02  0.11478186843E+03  0.00000000000E+00 0.  1.
</event>
<event>
 7    1  0.2666594E-009  0.8863522E+02  0.7561462E-02  0.1306191E+00
         -1   -1    0    0    0  501 -0.00000000000E+00  0.00000000000E+00  0.37927566121E+02  0.37927566121E+02  0.00000000000E+00 0.  1.
          1   -1    0    0  501    0  0.00000000000E+00 -0.00000000000E+00 -0.54044924354E+03  0.54044924354E+03  0.00000000000E+00 0. -1.
         25    2    1    2    0    0  0.53938760455E+02  0.23837275496E+02 -0.41043716014E+03  0.43310957429E+03  0.12509050857E+03 0.  0.
          5    1    3    3  502    0 -0.40505746842E+00  0.64714022064E+01  0.78046206093E+01  0.10973951928E+02  0.41800000000E+01 0.  1.
         -5    1    3    3    0  502  0.54343817924E+02  0.17365873290E+02 -0.41824178075E+03  0.42213562236E+03  0.41800000000E+01 0.  1.
        -11    1    1    2    0    0 -0.71406860063E+01  0.35822560857E+02 -0.30107202406E+02  0.47335915537E+02  0.00000000000E+00 0.  1.
         11    1    1    2    0    0 -0.46798074449E+02 -0.59659836353E+02 -0.61977314872E+02  0.97931319835E+02  0.00000000000E+00 0. -1.
</event>
<event>
 7    1  0.2666594E-009  0.9797061E+02  0.7561462E-02  0.1284622E+00
          2   -1    0    0  501    0  0.00000000000E+00  0.00000000000E+00  0.40970505665E+03  0.40970505665E+03  0.00000000000E+00 0. -1.
         -2   -1    0    0    0  501 -0.00000000000E+00 -0.00000000000E+00 -0.46324282710E+02  0.46324282710E+02  0.00000000000E+00 0.  1.
         25    2    1    2    0    0 -0.35555143906E+02 -0.74104915166E+02  0.23629755962E+03  0.27971431732E+03  0.12509139027E+03 0.  0.
          5    1    3    3  502    0  0.95793034661E+01  0.81102961878E+01 -0.97042483582E+01  0.16406852085E+02  0.41800000000E+01 0. -1.
         -5    1    3    3    0  502 -0.45134447372E+02 -0.82215211354E+02  0.24600180798E+03  0.26330746523E+03  0.41800000000E+01 0. -1.
        -11    1    1    2    0    0  0.40343669369E+02  0.49965407992E+02  0.21228616184E+02  0.67637325487E+02  0.00000000000E+00 0.  1.
         11    1    1    2    0    0 -0.47885254634E+01  0.24139507175E+02  0.10585459814E+03  0.10867769656E+03  0.00000000000E+00 0. -1.
</event>
<event>
 7    1  0.2666594E-009  0.1077925E+03  0.7561462E-02  0.1264713E+00
          3   -1    0    0  501    0  0.00000000000E+00  0.00000000000E+00  0.23762857363E+02  0.23762857363E+02  0.00000000000E+00 0. -1.
         -3   -1    0    0    0  501 -0.00000000000E+00 -0.00000000000E+00 -0.55110030019E+03  0.55110030019E+03  0.00000000000E+00 0.  1.
         25    2    1    2    0    0  0.32063095694E+02 -0.26690216917E+01 -0.25816563201E+03  0.28867390810E+03  0.12509182981E+03 0.  0.
          5    1    3    3  502    0 -0.43162568577E+02 -0.92884969713E+00 -0.15474018716E+03  0.16070428747E+03  0.41800000000E+01 0.  1.
         -5    1    3    3    0  502  0.75225664270E+02 -0.17401719946E+01 -0.10342544485E+03  0.12796962064E+03  0.41800000000E+01 0.  1.
        -11    1    1    2    0    0  0.28627353694E+02 -0.16700086271E+02 -0.80646010560E+02  0.87190580226E+02  0.00000000000E+00 0.  1.
         11    1    1    2    0    0 -0.60690449388E+02  0.19369107962E+02 -0.18852580026E+03  0.19899866923E+03  0.00000000000E+00 0. -1.
</event>
<event>
 7    1  0.2666594E-009  0.1897938E+03  0.7561462E-02  0.1158647E+00
         -2   -1    0    0    0  501 -0.00000000000E+00  0.00000000000E+00  0.17314741576E+03  0.17314741576E+03  0.00000000000E+00 0.  1.
          2   -1    0    0  501    0  0.00000000000E+00 -0.00000000000E+00 -0.35594092106E+03  0.35594092106E+03  0.00000000000E+00 0. -1.
         25    2    1    2    0    0 -0.17141689612E+03  0.36192363551E+02  0.56974660772E+02  0.22268089289E+03  0.12508808350E+03 0.  0.
          5    1    3    3  502    0 -0.18135421921E+03  0.48752224826E+02  0.71175306093E+02  0.20087192150E+03  0.41800000000E+01 0. -1.
         -5    1    3    3    0  502  0.99373230894E+01 -0.12559861275E+02 -0.14200645321E+02  0.21808971387E+02  0.41800000000E+01 0. -1.
        -11    1    1    2    0    0  0.23210514522E+02 -0.49536787207E+01 -0.91222874941E+02  0.94259640513E+02  0.00000000000E+00 0. -1.
         11    1    1    2    0    0  0.14820638160E+03 -0.31238684831E+02 -0.14854529114E+03  0.21214780342E+03  0.00000000000E+00 0.  1.
</event>
<event>
 7    1  0.2666594E-009  0.1005634E+03  0.7561462E-02  0.1279116E+00
          2   -1    0    0  501    0  0.00000000000E+00  0.00000000000E+00  0.21846055728E+03  0.21846055728E+03  0.00000000000E+00 0. -1.
         -2   -1    0    0    0  501 -0.00000000000E+00 -0.00000000000E+00 -0.61735582816E+02  0.61735582816E+02  0.00000000000E+00 0.  1.
         25    2    1    2    0    0  0.33041752560E+02 -0.26149460677E+02  0.96951883955E+02  0.16377623002E+03  0.12508970385E+03 0.  0.
          5    1    3    3  502    0 -0.13323488674E+02  0.32699501192E+02 -0.63290460025E+01  0.36115120822E+02  0.41800000000E+01 0. -1.
         -5    1    3    3    0  502  0.46365241234E+02 -0.58848961869E+02  0.10328092996E+03  0.12766110919E+03  0.41800000000E+01 0. -1.
        -11    1    1    2    0    0  0.17391272662E+02 -0.16882471423E+02  0.40809227257E+02  0.47464378595E+02  0.00000000000E+00 0. -1.
         11    1    1    2    0    0 -0.50433025221E+02  0.43031932100E+02  0.18963863255E+02  0.68955531488E+02  0.00000000000E+00 0.  1.
</event>
<event>
 7    1  0.2666594E-009  0.1745477E+03  0.7561462E-02  0.1173187E+00
          2   -1    0    0  501    0  0.00000000000E+00  0.00000000000E+00  0.64993772941E+03  0.64993772941E+03  0.00000000000E+00 0.  1.
         -2   -1    0    0    0  501 -0.00000000000E+00 -0.00000000000E+00 -0.57522197874E+02  0.57522197874E+02  0.00000000000E+00 0. -1.
         25    2    1    2    0    0  0.14316407199E+03 -0.65508844305E+02  0.36417420543E+03  0.41600591562E+03  0.12510279669E+03 0.  0.
          5    1    3    3  502    0  0.11050931107E+03  0.65485967595E+01  0.14181678592E+03  0.17995739807E+03  0.41800000000E+01 0.  1.
         -5    1    3    3    0  502  0.32654760916E+02 -0.72057441065E+02  0.22235741952E+03  0.23604851755E+03  0.41800000000E+01 0.  1.
        -11    1    1    2    0    0 -0.93364828442E+02  0.30508712049E+02  0.66443302856E+02  0.11858534983E+03  0.00000000000E+00 0. -1.
         11    1    1    2    0    0 -0.49799243546E+02  0.35000132256E+02  0.16179802325E+03  0.17286866183E+03  0.00000000000E+00 0.  1.
</event>
<event>
 7    1  0.2666594E-009  0.1186108E+03  0.7561462E-02  0.1245407E+00
          2   -1    0    0  501    0  0.00000000000E+00  0.00000000000E+00  0.77126605911E+02  0.77126605911E+02  0.00000000000E+00 0. -1.
         -2   -1    0    0    0  501 -0.00000000000E+00 -0.00000000000E+00 -0.22128619466E+03  0.22128619466E+03  0.00000000000E+00 0.  1.
         25    2    1    2    0    0  0.50066327060E+02  0.52269133749E+02 -0.69516763423E+02  0.16037090490E+03  0.12509015666E+03 0.  0.
          5    1    3    3  502    0  0.57739458637E+02 -0.14759535890E+02  0.47708614056E+01  0.59932649716E+02  0.41800000000E+01 0.  1.
         -5    1    3    3    0  502 -0.76731315775E+01  0.67028669639E+02 -0.74287624828E+02  0.10043825518E+03  0.41800000000E+01 0.  1.
        -11    1    1    2    0    0 -0.62907917197E+02 -0.75528985542E+01 -0.64522767100E+02  0.90430303532E+02  0.00000000000E+00 0.  1.
         11    1    1    2    0    0  0.12841590137E+02 -0.44716235195E+02 -0.10120058224E+02  0.47611592136E+02  0.00000000000E+00 0. -1.
</event>
<event>
 7    1  0.2666594E-009  0.1446833E+03  0.7561462E-02  0.1207163E+00
         -2   -1    0    0    0  501 -0.00000000000E+00  0.00000000000E+00  0.15018310375E+02  0.15018310375E+02  0.00000000000E+00 0.  1.
          2   -1    0    0  501    0  0.00000000000E+00 -0.00000000000E+00 -0.16372594916E+04  0.16372594916E+04  0.00000000000E+00 0. -1.
         25    2    1    2    0    0  0.10512972814E+03 -0.35992092739E+02 -0.80385792545E+03  0.82108628677E+03  0.12508970996E+03 0.  0.
          5    1    3    3  502    0  0.35926177302E+02 -0.60818479667E+02 -0.18860678074E+03  0.20144370882E+03  0.41800000000E+01 0. -1.
         -5    1    3    3    0  502  0.69203550837E+02  0.24826386928E+02 -0.61525114471E+03  0.61964257795E+03  0.41800000000E+01 0. -1.
        -11    1    1    2    0    0 -0.10292589677E+02 -0.28483966953E+02 -0.14748568347E+03  0.15056327774E+03  0.00000000000E+00 0.  1.
         11    1    1    2    0    0 -0.94837138462E+02  0.64476059692E+02 -0.67089757227E+03  0.68062823743E+03  0.00000000000E+00 0. -1.
</event>
<event>
 7    1  0.2666594E-009  0.9269196E+02  0.7561462E-02  0.1296461E+00
         -1   -1    0    0    0  501 -0.00000000000E+00  0.00000000000E+00  0.29997873444E+02  0.29997873444E+02  0.00000000000E+00 0.  1.
          1   -1    0    0  501    0  0.00000000000E+00 -0.00000000000E+00 -0.49893307072E+03  0.49893307072E+03  0.00000000000E+00 0. -1.
         25    2    1    2    0    0  0.25081609543E+01 -0.49579378856E+01 -0.14173099896E+03  0.18911862410E+03  0.12508919177E+03 0.  0.
          5    1    3    3  502    0 -0.48361558154E+02  0.73800867744E+01 -0.12453312407E+03  0.13386290517E+03  0.41800000000E+01 0.  1.
         -5    1    3    3    0  502  0.50869719108E+02 -0.12338024660E+02 -0.17197874886E+02  0.55255718937E+02  0.41800000000E+01 0.  1.
        -11    1    1    2    0    0  0.37783825024E+01 -0.39093308998E+02 -0.86081230462E+02  0.94617869457E+02  0.00000000000E+00 0.  1.
         11    1    1    2    0    0 -0.62865434567E+01  0.44051246884E+02 -0.24112296786E+03  0.24519445061E+03  0.00000000000E+00 0. -1.
</event>
<event>
 7    1  0.2941611E-009  0.9376805E+02  0.7561462E-02  0.1293975E+00
         -1   -1    0    0    0  501 -0.00000000000E+00  0.00000000000E+00  0.11495294181E+03  0.11495294181E+03  0.00000000000E+00 0.  1.
          1   -1    0    0  501    0  0.00000000000E+00 -0.00000000000E+00 -0.18392696462E+03  0.18392696462E+03  0.00000000000E+00 0. -1.
         25    2    1    2    0    0  0.30070472123E+02 -0.48843127248E+02 -0.11738556232E+03  0.18087439374E+03  0.12508513779E+03 0.  0.
          5    1    3    3  502    0 -0.36750659143E+02 -0.43549582114E+02 -0.93532244083E+02  0.10960351332E+03  0.41800000000E+01 0.  1.
         -5    1    3    3    0  502  0.66821131267E+02 -0.52935451347E+01 -0.23853318242E+02  0.71270880414E+02  0.41800000000E+01 0.  1.
        -11    1    1    2    0    0 -0.32661028730E+02  0.30417505967E+02  0.73969836759E+02  0.86391574920E+02  0.00000000000E+00 0.  1.
         11    1    1    2    0    0  0.25905566068E+01  0.18425621281E+02 -0.25558297248E+02  0.31613937771E+02  0.00000000000E+00 0. -1.
</event>
<event>
 7    1  0.2666594E-009  0.1071453E+03  0.7561462E-02  0.1265950E+00
          1   -1    0    0  501    0  0.00000000000E+00  0.00000000000E+00  0.40684908010E+02  0.40684908010E+02  0.00000000000E+00 0. -1.
         -1   -1    0    0    0  501 -0.00000000000E+00 -0.00000000000E+00 -0.35090188660E+03  0.35090188660E+03  0.00000000000E+00 0.  1.
         25    2    1    2    0    0 -0.41971112214E+02 -0.31348219354E+02 -0.18176333199E+03  0.22678090514E+03  0.12508950781E+03 0.  0.
          5    1    3    3  502    0  0.25721489727E+02 -0.43299642016E+02 -0.13333608715E+03  0.14259186010E+03  0.41800000000E+01 0. -1.
         -5    1    3    3    0  502 -0.67692601941E+02  0.11951422662E+02 -0.48427244844E+02  0.84189045038E+02  0.41800000000E+01 0. -1.
        -11    1    1    2    0    0  0.12424302653E+02 -0.26868546344E+02 -0.74312948283E+02  0.79991851845E+02  0.00000000000E+00 0. -1.
         11    1    1    2    0    0  0.29546809561E+02  0.58216765697E+02 -0.54140698312E+02  0.84814037619E+02  0.00000000000E+00 0.  1.
</event>
<event>
 7    1  0.2666594E-009  0.1045519E+03  0.7561462E-02  0.1271005E+00
         -2   -1    0    0    0  501 -0.00000000000E+00  0.00000000000E+00  0.18333952152E+02  0.18333952152E+02  0.00000000000E+00 0.  1.
          2   -1    0    0  501    0  0.00000000000E+00 -0.00000000000E+00 -0.73065260988E+03  0.73065260988E+03  0.00000000000E+00 0. -1.
         25    2    1    2    0    0 -0.29143979528E+02 -0.21461691711E+02 -0.46672984503E+03  0.48455547105E+03  0.12508909037E+03 0.  0.
          5    1    3    3  502    0  0.38720558641E+02  0.21212089589E+02 -0.10420645138E+03  0.11325056872E+03  0.41800000000E+01 0.  1.
         -5    1    3    3    0  502 -0.67864538169E+02 -0.42673781300E+02 -0.36252339365E+03  0.37130490233E+03  0.41800000000E+01 0.  1.
        -11    1    1    2    0    0 -0.12493873009E+02  0.37755162899E+02 -0.50473620405E+02  0.64258350002E+02  0.00000000000E+00 0.  1.
         11    1    1    2    0    0  0.41637852537E+02 -0.16293471188E+02 -0.19511519230E+03  0.20017274098E+03  0.00000000000E+00 0. -1.
</event>
<event>
 7    1  0.2666594E-009  0.3204533E+03  0.7561462E-02  0.1075441E+00
          2   -1    0    0  501    0  0.00000000000E+00  0.00000000000E+00  0.17761677964E+04  0.17761677964E+04  0.00000000000E+00 0. -1.
         -2   -1    0    0    0  501 -0.00000000000E+00 -0.00000000000E+00 -0.63634565437E+02  0.63634565437E+02  0.00000000000E+00 0.  1.
         25    2    1    2    0    0 -0.26120720862E+03  0.16463217867E+03  0.66198796124E+03  0.74108624381E+03  0.12509116615E+03 0.  0.
          5    1    3    3  502    0 -0.73992724539E+02  0.10025954833E+03  0.17061453088E+03  0.21131419939E+03  0.41800000000E+01 0.  1.
         -5    1    3    3    0  502 -0.18721448408E+03  0.64372630338E+02  0.49137343036E+03  0.52977204442E+03  0.41800000000E+01 0.  1.
        -11    1    1    2    0    0  0.86875342540E+02 -0.14361380348E+02  0.22283068630E+03  0.23959776532E+03  0.00000000000E+00 0.  1.
         11    1    1    2    0    0  0.17433186608E+03 -0.15027079832E+03  0.82771458342E+03  0.85911835271E+03  0.00000000000E+00 0. -1.
</event>
<event>
 7    1  0.2666594E-009  0.1270539E+03  0.7561462E-02  0.1231894E+00
          2   -1    0    0  501    0  0.00000000000E+00  0.00000000000E+00  0.16260604229E+03  0.16260604229E+03  0.00000000000E+00 0. -1.
         -2   -1    0    0    0  501 -0.00000000000E+00 -0.00000000000E+00 -0.14202520492E+03  0.14202520492E+03  0.00000000000E+00 0.  1.
         25    2    1    2    0    0  0.65412313981E+02 -0.66072982169E+02 -0.40051490918E+02  0.16091800237E+03  0.12508425868E+03 0.  0.
          5    1    3    3  502    0  0.87494380364E+02 -0.87805823786E+02 -0.37396915544E+02  0.12954200469E+03  0.41800000000E+01 0.  1.
         -5    1    3    3    0  502 -0.22082066383E+02  0.21732841616E+02 -0.26545753746E+01  0.31375997688E+02  0.41800000000E+01 0.  1.
        -11    1    1    2    0    0 -0.53122094676E+02  0.30665516346E+02  0.80569224652E+02  0.10126070707E+03  0.00000000000E+00 0. -1.
         11    1    1    2    0    0 -0.12290219305E+02  0.35407465824E+02 -0.19936896366E+02  0.42452537773E+02  0.00000000000E+00 0.  1.
</event>
<event>
 7    1  0.2666594E-009  0.1542722E+03  0.7561462E-02  0.1195320E+00
          2   -1    0    0  501    0  0.00000000000E+00  0.00000000000E+00  0.33892800234E+03  0.33892800234E+03  0.00000000000E+00 0. -1.
         -2   -1    0    0    0  501 -0.00000000000E+00 -0.00000000000E+00 -0.11817471184E+03  0.11817471184E+03  0.00000000000E+00 0.  1.
         25    2    1    2    0    0 -0.16879810940E+02 -0.13367484349E+03  0.23418422524E+03  0.29773122932E+03  0.12509093397E+03 0.  0.
          5    1    3    3  502    0  0.14963755980E+02 -0.35145495921E+01  0.12167317055E+03  0.12271144561E+03  0.41800000000E+01 0. -1.
         -5    1    3    3    0  502 -0.31843566919E+02 -0.13016029390E+03  0.11251105469E+03  0.17501978371E+03  0.41800000000E+01 0. -1.
        -11    1    1    2    0    0  0.47963288577E+02  0.10822815925E+03 -0.61003980453E+01  0.11853702528E+03  0.00000000000E+00 0. -1.
         11    1    1    2    0    0 -0.31083477637E+02  0.25446684236E+02 -0.73305366887E+01  0.40834459575E+02  0.00000000000E+00 0.  1.
</event>
<event>
 7    1  0.2666594E-009  0.1080293E+03  0.7561462E-02  0.1264263E+00
          4   -1    0    0  501    0  0.00000000000E+00  0.00000000000E+00  0.23870230801E+02  0.23870230801E+02  0.00000000000E+00 0. -1.
         -4   -1    0    0    0  501 -0.00000000000E+00 -0.00000000000E+00 -0.52777506259E+03  0.52777506259E+03  0.00000000000E+00 0.  1.
         25    2    1    2    0    0  0.25927423623E+02 -0.29793486288E+01 -0.31644074768E+03  0.34126795091E+03  0.12509180514E+03 0.  0.
          5    1    3    3  502    0  0.26940512460E+02 -0.58961562569E+02 -0.11424895593E+03  0.13142508666E+03  0.41800000000E+01 0.  1.
         -5    1    3    3    0  502 -0.10130888363E+01  0.55982213940E+02 -0.20219179175E+03  0.20984286425E+03  0.41800000000E+01 0.  1.
        -11    1    1    2    0    0  0.28737031516E+02  0.22926319147E+02 -0.62076178646E+02  0.72144889253E+02  0.00000000000E+00 0.  1.
         11    1    1    2    0    0 -0.54664455140E+02 -0.19946970519E+02 -0.12538790546E+03  0.13823245322E+03  0.00000000000E+00 0. -1.
</event>
<event>
 7    1  0.2666594E-009  0.1525403E+03  0.7561462E-02  0.1197386E+00
          1   -1    0    0  501    0  0.00000000000E+00  0.00000000000E+00  0.51808502276E+03  0.51808502276E+03  0.00000000000E+00 0. -1.
         -1   -1    0    0    0  501 -0.00000000000E+00 -0.00000000000E+00 -0.91551627294E+02  0.91551627294E+02  0.00000000000E+00 0.  1.
         25    2    1    2    0    0  0.21495411102E+02  0.13057795170E+03  0.33261794990E+02  0.18511057012E+03  0.12508765725E+03 0.  0.
          5    1    3    3  502    0 -0.45030283037E+02  0.56246415892E+02 -0.15775937376E+02  0.73876507031E+02  0.41800000000E+01 0. -1.
         -5    1    3    3    0  502  0.66525694139E+02  0.74331535807E+02  0.49037732366E+02  0.11123406309E+03  0.41800000000E+01 0. -1.
        -11    1    1    2    0    0 -0.14589766492E+01 -0.50471576009E+02  0.48530820169E+02  0.70033913956E+02  0.00000000000E+00 0.  1.
         11    1    1    2    0    0 -0.20036434453E+02 -0.80106375690E+02  0.34474078031E+03  0.35449216598E+03  0.00000000000E+00 0. -1.
</event>
<event>
 7    1  0.2666594E-009  0.1204753E+03  0.7561462E-02  0.1242315E+00
         -2   -1    0    0    0  501 -0.00000000000E+00  0.00000000000E+00  0.27947432651E+02  0.27947432651E+02  0.00000000000E+00 0.  1.
          2   -1    0    0  501    0  0.00000000000E+00 -0.00000000000E+00 -0.13395487380E+04  0.13395487380E+04  0.00000000000E+00 0. -1.
         25    2    1    2    0    0 -0.66921152209E+02  0.28809073007E+02 -0.11921252867E+04  0.12008827072E+04  0.12509266103E+03 0.  0.
          5    1    3    3  502    0 -0.71926219988E+02  0.70979741415E+02 -0.77226795264E+03  0.77886248329E+03  0.41800000000E+01 0. -1.
         -5    1    3    3    0  502  0.50050677792E+01 -0.42170668408E+02 -0.41985733410E+03  0.42202022389E+03  0.41800000000E+01 0. -1.
        -11    1    1    2    0    0  0.27350847159E+02  0.20308558399E+02 -0.30533319342E+01  0.34202766269E+02  0.00000000000E+00 0.  1.
         11    1    1    2    0    0  0.39570305050E+02 -0.49117631406E+02 -0.11642268664E+03  0.13241069715E+03  0.00000000000E+00 0. -1.
</event>
<event>
 7    1  0.2666594E-009  0.9553417E+02  0.7561462E-02  0.1289978E+00
         -1   -1    0    0    0  501 -0.00000000000E+00  0.00000000000E+00  0.74638234837E+02  0.74638234837E+02  0.00000000000E+00 0. -1.
          1   -1    0    0  501    0  0.00000000000E+00 -0.00000000000E+00 -0.23650699572E+03  0.23650699572E+03  0.00000000000E+00 0.  1.
         25    2    1    2    0    0  0.34561777455E+02 -0.10625260984E+02 -0.18832002376E+03  0.22895148357E+03  0.12508772063E+03 0.  0.
          5    1    3    3  502    0  0.43604717802E+02 -0.53629788621E+02 -0.16518753057E+03  0.17911426045E+03  0.41800000000E+01 0. -1.
         -5    1    3    3    0  502 -0.90429403468E+01  0.43004527637E+02 -0.23132493185E+02  0.49837223120E+02  0.41800000000E+01 0. -1.
        -11    1    1    2    0    0 -0.44282044031E+02  0.31707805971E+02  0.16252517277E+02  0.56836860406E+02  0.00000000000E+00 0. -1.
         11    1    1    2    0    0  0.97202665754E+01 -0.21082544987E+02  0.10198745592E+02  0.25356886581E+02  0.00000000000E+00 0.  1.
</event>
<event>
 7    1  0.2666594E-009  0.1211701E+03  0.7561462E-02  0.1241179E+00
         -3   -1    0    0    0  501 -0.00000000000E+00  0.00000000000E+00  0.40020138816E+03  0.40020138816E+03  0.00000000000E+00 0.  1.
          3   -1    0    0  501    0  0.00000000000E+00 -0.00000000000E+00 -0.53669954030E+02  0.53669954030E+02  0.00000000000E+00 0. -1.
         25    2    1    2    0    0  0.82273960991E+02  0.51359201636E+02  0.19936830916E+03  0.25456228207E+03  0.12508980976E+03 0.  0.
          5    1    3    3  502    0  0.11072510648E+02  0.34946642855E+02 -0.52322786852E+01  0.37265499850E+02  0.41800000000E+01 0. -1.
         -5    1    3    3    0  502  0.71201450343E+02  0.16412558781E+02  0.20460058785E+03  0.21729678222E+03  0.41800000000E+01 0. -1.
        -11    1    1    2    0    0 -0.24346234086E+02  0.25995102941E+02  0.56558824013E+02  0.66838499869E+02  0.00000000000E+00 0.  1.
         11    1    1    2    0    0 -0.57927726905E+02 -0.77354304577E+02  0.90604300957E+02  0.13247056025E+03  0.00000000000E+00 0. -1.
</event>
<event>
 7    1  0.2666594E-009  0.1164324E+03  0.7561462E-02  0.1249101E+00
          2   -1    0    0  501    0  0.00000000000E+00  0.00000000000E+00  0.56059530618E+03  0.56059530618E+03  0.00000000000E+00 0. -1.
         -2   -1    0    0    0  501 -0.00000000000E+00 -0.00000000000E+00 -0.50961544271E+02  0.50961544271E+02  0.00000000000E+00 0.  1.
         25    2    1    2    0    0 -0.89575827711E+02  0.25611705524E+02  0.43285951944E+03  0.46010365153E+03  0.12509283837E+03 0.  0.
          5    1    3    3  502    0 -0.86259653681E+02 -0.13407910623E+02  0.39808469635E+03  0.40756520679E+03  0.41800000000E+01 0.  1.
         -5    1    3    3    0  502 -0.33161740303E+01  0.39019616147E+02  0.34774823091E+02  0.52538444738E+02  0.41800000000E+01 0.  1.
        -11    1    1    2    0    0  0.81394136339E+02 -0.23501329951E+01  0.12207489389E+02  0.82338031022E+02  0.00000000000E+00 0.  1.
         11    1    1    2    0    0  0.81816913724E+01 -0.23261572529E+02  0.64566753082E+02  0.69115167900E+02  0.00000000000E+00 0. -1.
</event>
<event>
 7    1  0.3349004E-009  0.1279789E+03  0.7561462E-02  0.1230486E+00
          2   -1    0    0  501    0  0.00000000000E+00  0.00000000000E+00  0.90152984220E+03  0.90152984220E+03  0.00000000000E+00 0. -1.
         -2   -1    0    0    0  501 -0.00000000000E+00 -0.00000000000E+00 -0.27945572846E+02  0.27945572846E+02  0.00000000000E+00 0.  1.
         25    2    1    2    0    0  0.29978873967E+02 -0.10577630375E+03  0.57842678526E+03  0.60192396120E+03  0.12509016684E+03 0.  0.
          5    1    3    3  502    0  0.47965716247E+02 -0.11033117928E+02  0.78382303718E+02  0.92648246407E+02  0.41800000000E+01 0. -1.
         -5    1    3    3    0  502 -0.17986842280E+02 -0.94743185823E+02  0.50004448154E+03  0.50927571479E+03  0.41800000000E+01 0. -1.
        -11    1    1    2    0    0 -0.12684754346E+02  0.36792353430E+02  0.20802347064E+02  0.44128425160E+02  0.00000000000E+00 0.  1.
         11    1    1    2    0    0 -0.17294119621E+02  0.68983950321E+02  0.27435513703E+03  0.28342302869E+03  0.00000000000E+00 0. -1.
</event>
<event>
 7    1  0.2666594E-009  0.5867411E+02  0.7561462E-02  0.1403482E+00
          1   -1    0    0  501    0  0.00000000000E+00  0.00000000000E+00  0.23427394662E+03  0.23427394662E+03  0.00000000000E+00 0. -1.
         -1   -1    0    0    0  501 -0.00000000000E+00 -0.00000000000E+00 -0.54890491434E+02  0.54890491434E+02  0.00000000000E+00 0.  1.
         25    2    1    2    0    0  0.30145603447E+02  0.10271577005E+02  0.11729825033E+03  0.17441600019E+03  0.12509116231E+03 0.  0.
          5    1    3    3  502    0  0.13617218676E+02  0.30543601745E+02  0.13720374841E+03  0.14128227501E+03  0.41800000000E+01 0.  1.
         -5    1    3    3    0  502  0.16528384771E+02 -0.20272024740E+02 -0.19905498086E+02  0.33133725179E+02  0.41800000000E+01 0.  1.
        -11    1    1    2    0    0  0.97088777928E+00  0.16246261799E+02  0.71053113712E+02  0.72893268645E+02  0.00000000000E+00 0. -1.
         11    1    1    2    0    0 -0.31116491226E+02 -0.26517838804E+02 -0.89679088602E+01  0.41855169219E+02  0.00000000000E+00 0.  1.
</event>
<event>
 7    1  0.2666594E-009  0.7756414E+02  0.7561462E-02  0.1336110E+00
          1   -1    0    0  501    0  0.00000000000E+00  0.00000000000E+00  0.78490654593E+03  0.78490654593E+03  0.00000000000E+00 0. -1.
         -1   -1    0    0    0  501 -0.00000000000E+00 -0.00000000000E+00 -0.14804933471E+02  0.14804933471E+02  0.00000000000E+00 0.  1.
         25    2    1    2    0    0 -0.27937247975E+02 -0.86478269672E+01  0.60482341941E+03  0.61831422746E+03  0.12508333415E+03 0.  0.
          5    1    3    3  502    0 -0.40840770543E+02 -0.39228113118E+02  0.12461840667E+03  0.13694536530E+03  0.41800000000E+01 0. -1.
         -5    1    3    3    0  502  0.12903522568E+02  0.30580286151E+02  0.48020501274E+03  0.48136886216E+03  0.41800000000E+01 0. -1.
        -11    1    1    2    0    0  0.26517952688E+02  0.31964507082E+02  0.14375242242E+03  0.14963184982E+03  0.00000000000E+00 0. -1.
         11    1    1    2    0    0  0.14192952872E+01 -0.23316680114E+02  0.21525770623E+02  0.31765402116E+02  0.00000000000E+00 0.  1.
</event>
<event>
 7    1  0.3618740E-009  0.9698681E+02  0.7561462E-02  0.1286763E+00
          1   -1    0    0  501    0  0.00000000000E+00  0.00000000000E+00  0.90820086810E+02  0.90820086810E+02  0.00000000000E+00 0.  1.
         -1   -1    0    0    0  501 -0.00000000000E+00 -0.00000000000E+00 -0.20038766837E+03  0.20038766837E+03  0.00000000000E+00 0. -1.
         25    2    1    2    0    0  0.58227194209E+02  0.53599751441E+02 -0.73962423520E+02  0.16547423799E+03  0.12509174172E+03 0.  0.
          5    1    3    3  502    0  0.65379797469E+02  0.51951432224E+02 -0.10447550835E+03  0.13381357731E+03  0.41800000000E+01 0.  1.
         -5    1    3    3    0  502 -0.71526032599E+01  0.16483192176E+01  0.30513084825E+02  0.31660660688E+02  0.41800000000E+01 0.  1.
        -11    1    1    2    0    0 -0.50563987612E+02 -0.29083373755E+01  0.15877644205E+02  0.53078007263E+02  0.00000000000E+00 0.  1.
         11    1    1    2    0    0 -0.76632065973E+01 -0.50691414066E+02 -0.51482802247E+02  0.72655509925E+02  0.00000000000E+00 0. -1.
</event>
<event>
 7    1  0.2666594E-009  0.8955756E+02  0.7561462E-02  0.1303927E+00
          1   -1    0    0  501    0  0.00000000000E+00  0.00000000000E+00  0.26202205419E+03  0.26202205419E+03  0.00000000000E+00 0. -1.
         -1   -1    0    0    0  501 -0.00000000000E+00 -0.00000000000E+00 -0.53387767919E+02  0.53387767919E+02  0.00000000000E+00 0.  1.
         25    2    1    2    0    0 -0.19775456126E+02  0.40429835454E+02  0.92039453557E+02  0.16169291159E+03  0.12509075260E+03 0.  0.
          5    1    3    3  502    0 -0.37783213305E+02 -0.36311915346E+02  0.48598827944E+02  0.71592212435E+02  0.41800000000E+01 0. -1.
         -5    1    3    3    0  502  0.18007757179E+02  0.76741750799E+02  0.43440625612E+02  0.90100699154E+02  0.41800000000E+01 0. -1.
        -11    1    1    2    0    0  0.24214881395E+01 -0.22592289034E+02  0.12530633325E+03  0.12734972431E+03  0.00000000000E+00 0. -1.
         11    1    1    2    0    0  0.17353967987E+02 -0.17837546420E+02 -0.87115005365E+01  0.26367186213E+02  0.00000000000E+00 0.  1.
</event>
<event>
 7    1  0.2666594E-009  0.1258819E+03  0.7561462E-02  0.1233697E+00
          3   -1    0    0  501    0  0.00000000000E+00  0.00000000000E+00  0.94334205482E+02  0.94334205482E+02  0.00000000000E+00 0. -1.
         -3   -1    0    0    0  501 -0.00000000000E+00 -0.00000000000E+00 -0.23832742089E+03  0.23832742089E+03  0.00000000000E+00 0.  1.
         25    2    1    2    0    0 -0.22181385147E+02  0.94296217427E+02 -0.39200090432E+02  0.16299731215E+03  0.12509071193E+03 0.  0.
          5    1    3    3  502    0  0.36394623482E+02  0.14053976345E+02  0.23220250297E+02  0.45593149632E+02  0.41800000000E+01 0. -1.
         -5    1    3    3    0  502 -0.58576008628E+02  0.80242241081E+02 -0.62420340729E+02  0.11740416252E+03  0.41800000000E+01 0. -1.
        -11    1    1    2    0    0 -0.19019604155E+02 -0.17046185742E+02  0.81061826040E+01  0.26796044241E+02  0.00000000000E+00 0. -1.
         11    1    1    2    0    0  0.41200989301E+02 -0.77250031684E+02 -0.11289930758E+03  0.14286826998E+03  0.00000000000E+00 0.  1.
</event>
<event>
 7    1  0.2666594E-009  0.1651905E+03  0.7561462E-02  0.1182958E+00
         -1   -1    0    0    0  501 -0.00000000000E+00  0.00000000000E+00  0.77114989499E+02  0.77114989499E+02  0.00000000000E+00 0. -1.
          1   -1    0    0  501    0  0.00000000000E+00 -0.00000000000E+00 -0.48828192986E+03  0.48828192986E+03  0.00000000000E+00 0.  1.
         25    2    1    2    0    0  0.34146393009E+02 -0.12398308059E+03 -0.35581795666E+03  0.39848595713E+03  0.12508740671E+03 0.  0.
          5    1    3    3  502    0 -0.43289809727E+02 -0.35733042199E+02 -0.72570838963E+02  0.91841477551E+02  0.41800000000E+01 0.  1.
         -5    1    3    3    0  502  0.77436202736E+02 -0.88250038396E+02 -0.28324711770E+03  0.30664447958E+03  0.41800000000E+01 0.  1.
        -11    1    1    2    0    0 -0.57979838430E+02  0.42974575487E+02 -0.34188790013E+02  0.79858306802E+02  0.00000000000E+00 0. -1.
         11    1    1    2    0    0  0.23833445422E+02  0.81008505108E+02 -0.21160193689E+02  0.87052655430E+02  0.00000000000E+00 0.  1.
</event>
<event>
 7    1  0.2666594E-009  0.1254210E+03  0.7561462E-02  0.1234413E+00
         -2   -1    0    0    0  501 -0.00000000000E+00  0.00000000000E+00  0.52505095974E+02  0.52505095974E+02  0.00000000000E+00 0. -1.
          2   -1    0    0  501    0  0.00000000000E+00 -0.00000000000E+00 -0.43132807065E+03  0.43132807065E+03  0.00000000000E+00 0.  1.
         25    2    1    2    0    0  0.65886555910E+02  0.80099031303E+02 -0.18407885530E+03  0.24554197410E+03  0.12509573538E+03 0.  0.
          5    1    3    3  502    0 -0.69874020138E+01  0.72798352084E+02 -0.39038217473E+02  0.83005293063E+02  0.41800000000E+01 0. -1.
         -5    1    3    3    0  502  0.72873957924E+02  0.73006792193E+01 -0.14504063783E+03  0.16253668104E+03  0.41800000000E+01 0. -1.
        -11    1    1    2    0    0 -0.13932522975E+02 -0.24148405560E+02 -0.14386034297E+03  0.14653688603E+03  0.00000000000E+00 0.  1.
         11    1    1    2    0    0 -0.51954032935E+02 -0.55950625744E+02 -0.50883776404E+02  0.91754306495E+02  0.00000000000E+00 0. -1.
</event>
<event>
 7    1  0.2666594E-009  0.1056004E+03  0.7561462E-02  0.1268941E+00
         -2   -1    0    0    0  501 -0.00000000000E+00  0.00000000000E+00  0.10574437845E+02  0.10574437845E+02  0.00000000000E+00 0.  1.
          2   -1    0    0  501    0  0.00000000000E+00 -0.00000000000E+00 -0.15074546065E+04  0.15074546065E+04  0.00000000000E+00 0. -1.
         25    2    1    2    0    0 -0.67340451919E+01 -0.34935114046E+02 -0.11646835023E+04  0.11719218701E+04  0.12508956585E+03 0.  0.
          5    1    3    3  502    0 -0.37504694694E+02 -0.67883667800E+02 -0.53442450465E+03  0.54003871902E+03  0.41800000000E+01 0. -1.
         -5    1    3    3    0  502  0.30770649502E+02  0.32948553754E+02 -0.63025899767E+03  0.63188315107E+03  0.41800000000E+01 0. -1.
        -11    1    1    2    0    0 -0.29868405455E+02  0.41438893435E+02 -0.11616290055E+03  0.12689808114E+03  0.00000000000E+00 0.  1.
         11    1    1    2    0    0  0.36602450647E+02 -0.65037793892E+01 -0.21603376584E+03  0.21920909316E+03  0.00000000000E+00 0. -1.
</event>
<event>
 7    1  0.2666594E-009  0.9937983E+02  0.7561462E-02  0.1281606E+00
         -1   -1    0    0    0  501 -0.00000000000E+00  0.00000000000E+00  0.67382558007E+02  0.67382558007E+02  0.00000000000E+00 0.  1.
          1   -1    0    0  501    0  0.00000000000E+00 -0.00000000000E+00 -0.23380633619E+03  0.23380633619E+03  0.00000000000E+00 0. -1.
         25    2    1    2    0    0  0.62347158194E+01 -0.62218238546E+02 -0.88209061990E+02  0.16534164837E+03  0.12508813364E+03 0.  0.
          5    1    3    3  502    0 -0.15124985349E+02  0.27294962781E+02  0.76426817830E+01  0.32398505519E+02  0.41800000000E+01 0. -1.
         -5    1    3    3    0  502  0.21359701169E+02 -0.89513201328E+02 -0.95851743773E+02  0.13294314285E+03  0.41800000000E+01 0. -1.
        -11    1    1    2    0    0 -0.22553521141E+02  0.20973546599E+02  0.13762333396E+02  0.33733555895E+02  0.00000000000E+00 0.  1.
         11    1    1    2    0    0  0.16318805322E+02  0.41244691948E+02 -0.91977049584E+02  0.10211368993E+03  0.00000000000E+00 0. -1.
</event>
<event>
 7    1  0.2666594E-009  0.9734517E+02  0.7561462E-02  0.1285980E+00
         -3   -1    0    0    0  501 -0.00000000000E+00  0.00000000000E+00  0.58214491977E+02  0.58214491977E+02  0.00000000000E+00 0.  1.
          3   -1    0    0  501    0  0.00000000000E+00 -0.00000000000E+00 -0.22679682892E+03  0.22679682892E+03  0.00000000000E+00 0. -1.
         25    2    1    2    0    0 -0.32546785395E+02  0.86213277439E+01 -0.11534217261E+03  0.17345020639E+03  0.12509011465E+03 0.  0.
          5    1    3    3  502    0  0.41242276676E+02  0.31333931599E+02 -0.41020561293E+02  0.66203470481E+02  0.41800000000E+01 0.  1.
         -5    1    3    3    0  502 -0.73789062072E+02 -0.22712603855E+02 -0.74321611318E+02  0.10724673591E+03  0.41800000000E+01 0.  1.
        -11    1    1    2    0    0 -0.14563012698E+02 -0.10981426238E+02 -0.61080035526E+02  0.63745147274E+02  0.00000000000E+00 0. -1.
         11    1    1    2    0    0  0.47109798093E+02  0.23600984938E+01  0.78398711971E+01  0.47815967225E+02  0.00000000000E+00 0.  1.
</event>
<event>
 7    1  0.4021160E-009  0.1031533E+03  0.7561462E-02  0.1273801E+00
          2   -1    0    0  501    0  0.00000000000E+00  0.00000000000E+00  0.55780502020E+03  0.55780502020E+03  0.00000000000E+00 0. -1.
         -2   -1    0    0    0  501 -0.00000000000E+00 -0.00000000000E+00 -0.25615099828E+02  0.25615099828E+02  0.00000000000E+00 0.  1.
         25    2    1    2    0    0  0.15932349427E+02  0.47646778819E+02  0.28479204350E+03  0.31508410157E+03  0.12508967874E+03 0.  0.
          5    1    3    3  502    0 -0.51979042807E+02  0.40461490743E+02  0.12803063573E+03  0.14404259512E+03  0.41800000000E+01 0.  1.
         -5    1    3    3    0  502  0.67911392233E+02  0.71852880761E+01  0.15676140777E+03  0.17104150644E+03  0.41800000000E+01 0.  1.
        -11    1    1    2    0    0 -0.32910586948E+02 -0.43248588457E+02  0.24461320574E+03  0.25057766772E+03  0.00000000000E+00 0. -1.
         11    1    1    2    0    0  0.16978237521E+02 -0.43981903622E+01  0.27846711286E+01  0.17758350742E+02  0.00000000000E+00 0.  1.
</event>
<event>
 7    1  0.2666594E-009  0.1184774E+03  0.7561462E-02  0.1245630E+00
         -2   -1    0    0    0  501 -0.00000000000E+00  0.00000000000E+00  0.93388139476E+02  0.93388139476E+02  0.00000000000E+00 0.  1.
          2   -1    0    0  501    0  0.00000000000E+00 -0.00000000000E+00 -0.21885850091E+03  0.21885850091E+03  0.00000000000E+00 0. -1.
         25    2    1    2    0    0 -0.40550248739E+01  0.45785574490E+02 -0.14841695022E+03  0.19946828506E+03  0.12508894264E+03 0.  0.
          5    1    3    3  502    0 -0.51379983825E+02 -0.17197467278E+02 -0.62680395624E+02  0.82957579606E+02  0.41800000000E+01 0.  1.
         -5    1    3    3    0  502  0.47324958951E+02  0.62983041768E+02 -0.85736554598E+02  0.11651070545E+03  0.41800000000E+01 0.  1.
        -11    1    1    2    0    0 -0.53254465772E+01  0.28424568071E+02  0.24589019672E+02  0.37959667276E+02  0.00000000000E+00 0.  1.
         11    1    1    2    0    0  0.93804714511E+01 -0.74210142561E+02 -0.16424308894E+01  0.74818688058E+02  0.00000000000E+00 0. -1.
</event>
<event>
 7    1  0.2666594E-009  0.9931264E+02  0.7561462E-02  0.1281748E+00
          2   -1    0    0  501    0  0.00000000000E+00  0.00000000000E+00  0.11523166589E+03  0.11523166589E+03  0.00000000000E+00 0.  1.
         -2   -1    0    0    0  501 -0.00000000000E+00 -0.00000000000E+00 -0.12995287103E+03  0.12995287103E+03  0.00000000000E+00 0. -1.
         25    2    1    2    0    0  0.27213494914E+02 -0.44795718928E+02  0.15285736576E+02  0.13648243516E+03  0.12508625274E+03 0.  0.
          5    1    3    3  502    0  0.47738429673E+02 -0.58440872973E+02  0.52235048757E+02  0.91870920428E+02  0.41800000000E+01 0. -1.
         -5    1    3    3    0  502 -0.20524934759E+02  0.13645154046E+02 -0.36949312181E+02  0.44611514729E+02  0.41800000000E+01 0. -1.
        -11    1    1    2    0    0 -0.48196176990E+02 -0.42570930898E+00  0.39870918129E+01  0.48362688160E+02  0.00000000000E+00 0.  1.
         11    1    1    2    0    0  0.20982682076E+02  0.45221428236E+02 -0.33994033525E+02  0.60339413605E+02  0.00000000000E+00 0. -1.
</event>
<event>
 7    1  0.3045234E-009  0.2383146E+03  0.7561462E-02  0.1120921E+00
          2   -1    0    0  501    0  0.00000000000E+00  0.00000000000E+00  0.33392539227E+03  0.33392539227E+03  0.00000000000E+00 0. -1.
         -2   -1    0    0    0  501 -0.00000000000E+00 -0.00000000000E+00 -0.22696469632E+03  0.22696469632E+03  0.00000000000E+00 0.  1.
         25    2    1    2    0    0  0.14307907784E+03  0.17283668357E+03 -0.63523333184E+02  0.26462428319E+03  0.12508659278E+03 0.  0.
          5    1    3    3  502    0  0.22463353580E+02  0.10434175645E+03 -0.66497678397E+02  0.12582216826E+03  0.41800000000E+01 0.  1.
         -5    1    3    3    0  502  0.12061572426E+03  0.68494927121E+02  0.29743452134E+01  0.13880211493E+03  0.41800000000E+01 0.  1.
        -11    1    1    2    0    0 -0.11505124443E+03 -0.97999679673E+02  0.15178322169E+03  0.21419353969E+03  0.00000000000E+00 0. -1.
         11    1    1    2    0    0 -0.28027833411E+02 -0.74837003899E+02  0.18700807442E+02  0.82072265701E+02  0.00000000000E+00 0.  1.
</event>
<event>
 7    1  0.2666594E-009  0.1064763E+03  0.7561462E-02  0.1267238E+00
         -1   -1    0    0    0  501 -0.00000000000E+00  0.00000000000E+00  0.22536653427E+03  0.22536653427E+03  0.00000000000E+00 0.  1.
          1   -1    0    0  501    0  0.00000000000E+00 -0.00000000000E+00 -0.97190235987E+02  0.97190235987E+02  0.00000000000E+00 0. -1.
         25    2    1    2    0    0 -0.20836293750E+02 -0.30172404144E+02 -0.34330330714E+02  0.13479777865E+03  0.12508934572E+03 0.  0.
          5    1    3    3  502    0 -0.69202056681E+02  0.29806388231E+01 -0.30756400589E+02  0.75902815718E+02  0.41800000000E+01 0.  1.
         -5    1    3    3    0  502  0.48365762931E+02 -0.33153042967E+02 -0.35739301248E+01  0.58894962929E+02  0.41800000000E+01 0.  1.
        -11    1    1    2    0    0 -0.24963580288E+02 -0.68447901783E+01  0.17485635591E+02  0.31237460611E+02  0.00000000000E+00 0. -1.
         11    1    1    2    0    0  0.45799874039E+02  0.37017194323E+02  0.14502099341E+03  0.15652153100E+03  0.00000000000E+00 0.  1.
</event>
<event>
 7    1  0.2666594E-009  0.9790505E+02  0.7561462E-02  0.1284764E+00
          1   -1    0    0  501    0  0.00000000000E+00  0.00000000000E+00  0.71879443443E+02  0.71879443443E+02  0.00000000000E+00 0. -1.
         -1   -1    0    0    0  501 -0.00000000000E+00 -0.00000000000E+00 -0.16874757596E+03  0.16874757596E+03  0.00000000000E+00 0.  1.
         25    2    1    2    0    0  0.11018696875E+02  0.14552764931E+02 -0.90438913247E+02  0.15543983066E+03  0.12509655982E+03 0.  0.
          5    1    3    3  502    0  0.19605893693E+02  0.67312597070E+02 -0.35586875091E+02  0.78735474029E+02  0.41800000000E+01 0. -1.
         -5    1    3    3    0  502 -0.85871968178E+01 -0.52759832140E+02 -0.54852038156E+02  0.76704356633E+02  0.41800000000E+01 0. -1.
        -11    1    1    2    0    0  0.15148311989E+02 -0.35398315201E+02  0.19217348300E+02  0.43032761367E+02  0.00000000000E+00 0. -1.
         11    1    1    2    0    0 -0.26167008864E+02  0.20845550271E+02 -0.25646567566E+02  0.42154427370E+02  0.00000000000E+00 0.  1.
</event>
<event>
 7    1  0.2666594E-009  0.1290992E+03  0.7561462E-02  0.1228799E+00
         -2   -1    0    0    0  501 -0.00000000000E+00  0.00000000000E+00  0.24379607238E+03  0.24379607238E+03  0.00000000000E+00 0. -1.
          2   -1    0    0  501    0  0.00000000000E+00 -0.00000000000E+00 -0.75257661615E+02  0.75257661615E+02  0.00000000000E+00 0.  1.
         25    2    1    2    0    0  0.71856166425E+02 -0.15769252201E+02  0.53725684242E+02  0.15474472239E+03  0.12508997559E+03 0.  0.
          5    1    3    3  502    0  0.95478951904E+02  0.20035698242E+02  0.54122833562E+02  0.11164413542E+03  0.41800000000E+01 0.  1.
         -5    1    3    3    0  502 -0.23622785479E+02 -0.35804950443E+02 -0.39714932044E+00  0.43100586975E+02  0.41800000000E+01 0.  1.
        -11    1    1    2    0    0  0.14955386140E+02 -0.18788998748E+02  0.20965080430E+02  0.31878278592E+02  0.00000000000E+00 0.  1.
         11    1    1    2    0    0 -0.86811552565E+02  0.34558250949E+02  0.93847646091E+02  0.13243073301E+03  0.00000000000E+00 0. -1.
</event>
<event>
 7    1  0.2666594E-009  0.9372329E+02  0.7561462E-02  0.1294078E+00
          1   -1    0    0  501    0  0.00000000000E+00  0.00000000000E+00  0.26666096274E+03  0.26666096274E+03  0.00000000000E+00 0. -1.
         -1   -1    0    0    0  501 -0.00000000000E+00 -0.00000000000E+00 -0.66129352882E+02  0.66129352882E+02  0.00000000000E+00 0.  1.
         25    2    1    2    0    0 -0.47203913624E+02 -0.57024029862E+02  0.10333277549E+03  0.17833968073E+03  0.12508968699E+03 0.  0.
          5    1    3    3  502    0 -0.20542124911E+02 -0.77022485315E+02  0.11615290515E+02  0.80664921210E+02  0.41800000000E+01 0.  1.
         -5    1    3    3    0  502 -0.26661788714E+02  0.19998455453E+02  0.91717484973E+02  0.97674759523E+02  0.41800000000E+01 0.  1.
        -11    1    1    2    0    0  0.19442737053E+02  0.22760757042E+02  0.10542434932E+03  0.10959181318E+03  0.00000000000E+00 0. -1.
         11    1    1    2    0    0  0.27761176571E+02  0.34263272821E+02 -0.82255149553E+01  0.44858821711E+02  0.00000000000E+00 0.  1.
</event>
<event>
 7    1  0.2666594E-009  0.1305121E+03  0.7561462E-02  0.1226698E+00
          1   -1    0    0  501    0  0.00000000000E+00  0.00000000000E+00  0.58788205978E+02  0.58788205978E+02  0.00000000000E+00 0. -1.
         -1   -1    0    0    0  501 -0.00000000000E+00 -0.00000000000E+00 -0.47848447333E+03  0.47848447333E+03  0.00000000000E+00 0.  1.
         25    2    1    2    0    0  0.83656895114E+02  0.60703182744E+02 -0.34769386711E+03  0.38369502296E+03  0.12508993935E+03 0.  0.
          5    1    3    3  502    0  0.95785395213E+02  0.41519288384E+02 -0.34498428351E+03  0.36045848792E+03  0.41800000000E+01 0. -1.
         -5    1    3    3    0  502 -0.12128500100E+02  0.19183894360E+02 -0.27095835958E+01  0.23236535042E+02  0.41800000000E+01 0. -1.
        -11    1    1    2    0    0 -0.98064849618E+02 -0.65898648446E+02 -0.71809352485E+02  0.13826036924E+03  0.00000000000E+00 0.  1.
         11    1    1    2    0    0  0.14407954504E+02  0.51954657021E+01 -0.19304775741E+00  0.15317287106E+02  0.00000000000E+00 0. -1.
</event>
<event>
 7    1  0.2666594E-009  0.1040620E+03  0.7561462E-02  0.1271979E+00
         -2   -1    0    0    0  501 -0.00000000000E+00  0.00000000000E+00  0.24597338732E+03  0.24597338732E+03  0.00000000000E+00 0.  1.
          2   -1    0    0  501    0  0.00000000000E+00 -0.00000000000E+00 -0.66747393809E+02  0.66747393809E+02  0.00000000000E+00 0. -1.
         25    2    1    2    0    0  0.31554766721E+02 -0.27231640801E+02  0.33065231004E+02  0.13593556033E+03  0.12509157245E+03 0.  0.
          5    1    3    3  502    0 -0.30080651470E+02 -0.48082993399E+02  0.41203825980E+02  0.70228537806E+02  0.41800000000E+01 0. -1.
         -5    1    3    3    0  502  0.61635418191E+02  0.20851352598E+02 -0.81385949761E+01  0.65707022523E+02  0.41800000000E+01 0. -1.
        -11    1    1    2    0    0 -0.37711382795E+02  0.49908730704E+02  0.57166426810E+02  0.84740959087E+02  0.00000000000E+00 0. -1.
         11    1    1    2    0    0  0.61566160744E+01 -0.22677089903E+02  0.88994335693E+02  0.92044261708E+02  0.00000000000E+00 0.  1.
</event>
<event>
 7    1  0.3434162E-009  0.8123738E+02  0.7561462E-02  0.1325576E+00
          1   -1    0    0  501    0  0.00000000000E+00  0.00000000000E+00  0.11217431665E+03  0.11217431665E+03  0.00000000000E+00 0. -1.
         -1   -1    0    0    0  501 -0.00000000000E+00 -0.00000000000E+00 -0.14432569707E+03  0.14432569707E+03  0.00000000000E+00 0.  1.
         25    2    1    2    0    0 -0.31578241447E+02 -0.94316050178E+00  0.41335656947E+02  0.13547813259E+03  0.12509041926E+03 0.  0.
          5    1    3    3  502    0 -0.57369596223E+02  0.11702573458E+01  0.73912023552E+02  0.93664826369E+02  0.41800000000E+01 0. -1.
         -5    1    3    3    0  502  0.25791354776E+02 -0.21134178475E+01 -0.32576366606E+02  0.41813306224E+02  0.41800000000E+01 0. -1.
        -11    1    1    2    0    0 -0.23221160577E+02  0.50879554370E+01 -0.59851477875E+02  0.64399603981E+02  0.00000000000E+00 0.  1.
         11    1    1    2    0    0  0.54799402024E+02 -0.41447949353E+01 -0.13635559491E+02  0.56622277152E+02  0.00000000000E+00 0. -1.
</event>
<event>
 7    1  0.2666594E-009  0.8024724E+02  0.7561462E-02  0.1328351E+00
          1   -1    0    0  501    0  0.00000000000E+00  0.00000000000E+00  0.99959442256E+02  0.99959442256E+02  0.00000000000E+00 0.  1.
         -1   -1    0    0    0  501 -0.00000000000E+00 -0.00000000000E+00 -0.15574654785E+03  0.15574654785E+03  0.00000000000E+00 0. -1.
         25    2    1    2    0    0  0.19719272260E+02  0.55730013550E+02 -0.43510929467E+02  0.14503137266E+03  0.12508482707E+03 0.  0.
          5    1    3    3  502    0  0.54540855045E+01  0.38935567262E+02  0.41377431781E+02  0.57230146842E+02  0.41800000000E+01 0.  1.
         -5    1    3    3    0  502  0.14265186755E+02  0.16794446288E+02 -0.84888361247E+02  0.87801225815E+02  0.41800000000E+01 0.  1.
        -11    1    1    2    0    0 -0.49743209753E+02 -0.25404311344E+02  0.17622365887E+02  0.58568880225E+02  0.00000000000E+00 0.  1.
         11    1    1    2    0    0  0.30023937493E+02 -0.30325702207E+02 -0.29898542010E+02  0.52105737220E+02  0.00000000000E+00 0. -1.
</event>
<event>
 7    1  0.2666594E-009  0.1202561E+03  0.7561462E-02  0.1242675E+00
          1   -1    0    0  501    0  0.00000000000E+00  0.00000000000E+00  0.96637603829E+02  0.96637603829E+02  0.00000000000E+00 0. -1.
         -1   -1    0    0    0  501 -0.00000000000E+00 -0.00000000000E+00 -0.24285026321E+03  0.24285026321E+03  0.00000000000E+00 0.  1.
         25    2    1    2    0    0  0.94194862492E+02  0.22912036646E+02 -0.32719935766E+02  0.16161131308E+03  0.12509991517E+03 0.  0.
          5    1    3    3  502    0  0.89235517911E+01 -0.33645460988E+02 -0.46548037920E+02  0.58273828224E+02  0.41800000000E+01 0.  1.
         -5    1    3    3    0  502  0.85271310700E+02  0.56557497634E+02  0.13828102154E+02  0.10333748486E+03  0.41800000000E+01 0.  1.
        -11    1    1    2    0    0 -0.71717275911E+02 -0.11020067087E+01 -0.13359190864E+02  0.72959235628E+02  0.00000000000E+00 0. -1.
         11    1    1    2    0    0 -0.22477586580E+02 -0.21810029937E+02 -0.10013353275E+03  0.10491731833E+03  0.00000000000E+00 0.  1.
</event>
<event>
 7    1  0.2666594E-009  0.4838707E+02  0.7561462E-02  0.1454241E+00
          1   -1    0    0  501    0  0.00000000000E+00  0.00000000000E+00  0.11121326628E+03  0.11121326628E+03  0.00000000000E+00 0. -1.
         -1   -1    0    0    0  501 -0.00000000000E+00 -0.00000000000E+00 -0.11374320756E+03  0.11374320756E+03  0.00000000000E+00 0.  1.
         25    2    1    2    0    0  0.23207805556E+01 -0.88749655520E+01 -0.25160367583E+02  0.12792431509E+03  0.12508970885E+03 0.  0.
          5    1    3    3  502    0  0.64139946766E+01 -0.16072029444E+02  0.49544549393E+02  0.52645837753E+02  0.41800000000E+01 0.  1.
         -5    1    3    3    0  502 -0.40932141210E+01  0.71970638917E+01 -0.74704916975E+02  0.75278477341E+02  0.41800000000E+01 0.  1.
        -11    1    1    2    0    0 -0.34855558891E+02 -0.31806015346E+01 -0.21361501799E+02  0.41004145776E+02  0.00000000000E+00 0.  1.
         11    1    1    2    0    0  0.32534778335E+02  0.12055567087E+02  0.43991928098E+02  0.56028012966E+02  0.00000000000E+00 0. -1.
</event>
<event>
 7    1  0.2666594E-009  0.9003538E+02  0.7561462E-02  0.1302766E+00
         -1   -1    0    0    0  501 -0.00000000000E+00  0.00000000000E+00  0.19606224357E+03  0.19606224357E+03  0.00000000000E+00 0.  1.
          1   -1    0    0  501    0  0.00000000000E+00 -0.00000000000E+00 -0.61150158335E+02  0.61150158335E+02  0.00000000000E+00 0. -1.
         25    2    1    2    0    0  0.11282938936E+02 -0.93448623449E+01  0.95943532204E+02  0.15832842403E+03  0.12509235517E+03 0.  0.
          5    1    3    3  502    0 -0.45552413808E+02  0.24968549090E+02  0.69207661230E+02  0.86635002282E+02  0.41800000000E+01 0. -1.
         -5    1    3    3    0  502  0.56835352745E+02 -0.34313411435E+02  0.26735870974E+02  0.71693421753E+02  0.41800000000E+01 0. -1.
        -11    1    1    2    0    0 -0.29213466189E+02  0.24367857675E+02 -0.14350703420E+02  0.40659092256E+02  0.00000000000E+00 0. -1.
         11    1    1    2    0    0  0.17930527252E+02 -0.15022995330E+02  0.53319256453E+02  0.58224885615E+02  0.00000000000E+00 0.  1.
</event>
<event>
 7    1  0.2666594E-009  0.1342949E+03  0.7561462E-02  0.1221219E+00
          2   -1    0    0  501    0  0.00000000000E+00  0.00000000000E+00  0.12318735832E+04  0.12318735832E+04  0.00000000000E+00 0. -1.
         -2   -1    0    0    0  501 -0.00000000000E+00 -0.00000000000E+00 -0.18446782062E+02  0.18446782062E+02  0.00000000000E+00 0.  1.
         25    2    1    2    0    0 -0.21527055954E+01  0.10000663336E+03  0.78455226170E+03  0.80073444746E+03  0.12508974038E+03 0.  0.
          5    1    3    3  502    0 -0.29819102971E+02  0.12093876147E+03  0.63962624686E+03  0.65165525471E+03  0.41800000000E+01 0.  1.
         -5    1    3    3    0  502  0.27666397376E+02 -0.20932128108E+02  0.14492601485E+03  0.14907919275E+03  0.41800000000E+01 0.  1.
        -11    1    1    2    0    0 -0.19598228862E+02 -0.31126003925E+02  0.41160692918E+02  0.55200736738E+02  0.00000000000E+00 0.  1.
         11    1    1    2    0    0  0.21750934458E+02 -0.68880629438E+02  0.38771384655E+03  0.39438518110E+03  0.00000000000E+00 0. -1.
</event>
<event>
 7    1  0.2666594E-009  0.1189299E+03  0.7561462E-02  0.1244873E+00
         -1   -1    0    0    0  501 -0.00000000000E+00  0.00000000000E+00  0.26557447980E+03  0.26557447980E+03  0.00000000000E+00 0.  1.
          1   -1    0    0  501    0  0.00000000000E+00 -0.00000000000E+00 -0.16880122906E+03  0.16880122906E+03  0.00000000000E+00 0. -1.
         25    2    1    2    0    0  0.10229640105E+03 -0.58180071689E+02 -0.91463154733E+02  0.19458202215E+03  0.12508868958E+03 0.  0.
          5    1    3    3  502    0  0.40659246783E+02 -0.15817739198E+02  0.29124655884E+02  0.52622174059E+02  0.41800000000E+01 0. -1.
         -5    1    3    3    0  502  0.61637154266E+02 -0.42362332491E+02 -0.12058781062E+03  0.14195984809E+03  0.41800000000E+01 0. -1.
        -11    1    1    2    0    0 -0.32506843778E+02  0.89432789752E+01  0.13501068233E+03  0.13915660773E+03  0.00000000000E+00 0.  1.
         11    1    1    2    0    0 -0.69789557272E+02  0.49236792714E+02  0.53225723136E+02  0.10063707897E+03  0.00000000000E+00 0. -1.
</event>
<event>
 7    1  0.2666594E-009  0.1160144E+03  0.7561462E-02  0.1249821E+00
          1   -1    0    0  501    0  0.00000000000E+00  0.00000000000E+00  0.11222145266E+04  0.11222145266E+04  0.00000000000E+00 0. -1.
         -1   -1    0    0    0  501 -0.00000000000E+00 -0.00000000000E+00 -0.18691346884E+02  0.18691346884E+02  0.00000000000E+00 0.  1.
         25    2    1    2    0    0  0.12901731759E+02  0.92485205469E+02  0.68674538737E+03  0.70426338865E+03  0.12509086937E+03 0.  0.
          5    1    3    3  502    0  0.39713822633E+02  0.51269855535E+02  0.60711158751E+03  0.61057983743E+03  0.41800000000E+01 0.  1.
         -5    1    3    3    0  502 -0.26812090874E+02  0.41215349933E+02  0.79633799866E+02  0.93683551215E+02  0.41800000000E+01 0.  1.
        -11    1    1    2    0    0 -0.34652807108E+02 -0.15982175162E+02  0.60002469752E+02  0.71109375892E+02  0.00000000000E+00 0.  1.
         11    1    1    2    0    0  0.21751075349E+02 -0.76503030306E+02  0.35677532264E+03  0.36553310899E+03  0.00000000000E+00 0. -1.
</event>
<event>
 7    1  0.2666594E-009  0.1146083E+03  0.7561462E-02  0.1252266E+00
         -1   -1    0    0    0  501 -0.00000000000E+00  0.00000000000E+00  0.54334260595E+02  0.54334260595E+02  0.00000000000E+00 0.  1.
          1   -1    0    0  501    0  0.00000000000E+00 -0.00000000000E+00 -0.44201336142E+03  0.44201336142E+03  0.00000000000E+00 0. -1.
         25    2    1    2    0    0  0.94022832020E+02 -0.12903075022E+02 -0.11851610773E+03  0.19673118755E+03  0.12510119934E+03 0.  0.
          5    1    3    3  502    0  0.99444363985E+02 -0.56319279922E+01 -0.25126482781E+02  0.10280910795E+03  0.41800000000E+01 0.  1.
         -5    1    3    3    0  502 -0.54215319649E+01 -0.72711470301E+01 -0.93389624945E+02  0.93922079594E+02  0.41800000000E+01 0.  1.
        -11    1    1    2    0    0 -0.10208585687E+03 -0.25397052537E+01 -0.16527301832E+03  0.19427594514E+03  0.00000000000E+00 0.  1.
         11    1    1    2    0    0  0.80630248473E+01  0.15442780276E+02 -0.10388997478E+03  0.10534048933E+03  0.00000000000E+00 0. -1.
</event>
<event>
 7    1  0.2666594E-009  0.8273332E+02  0.7561462E-02  0.1321469E+00
         -2   -1    0    0    0  501 -0.00000000000E+00  0.00000000000E+00  0.93066352311E+02  0.93066352311E+02  0.00000000000E+00 0.  1.
          2   -1    0    0  501    0  0.00000000000E+00 -0.00000000000E+00 -0.15040238937E+03  0.15040238937E+03  0.00000000000E+00 0. -1.
         25    2    1    2    0    0  0.28145068615E+02  0.28292510456E+02 -0.44662861342E+02  0.13869335441E+03  0.12509382215E+03 0.  0.
          5    1    3    3  502    0 -0.42081248295E+02  0.14976814548E+02 -0.49655343351E+02  0.66919817359E+02  0.41800000000E+01 0.  1.
         -5    1    3    3    0  502  0.70226316910E+02  0.13315695908E+02  0.49924820096E+01  0.71773537051E+02  0.41800000000E+01 0.  1.
        -11    1    1    2    0    0 -0.10238083916E+02 -0.29332283557E+02  0.39124855250E+02  0.49959538821E+02  0.00000000000E+00 0.  1.
         11    1    1    2    0    0 -0.17906984699E+02  0.10397731006E+01 -0.51798030970E+02  0.54815848452E+02  0.00000000000E+00 0. -1.
</event>
<event>
 7    1  0.2666594E-009  0.1704768E+03  0.7561462E-02  0.1177351E+00
          2   -1    0    0  501    0  0.00000000000E+00  0.00000000000E+00  0.23753897637E+04  0.23753897637E+04  0.00000000000E+00 0. -1.
         -2   -1    0    0    0  501 -0.00000000000E+00 -0.00000000000E+00 -0.15306730289E+02  0.15306730289E+02  0.00000000000E+00 0.  1.
         25    2    1    2    0    0 -0.24661672333E+02 -0.14111318791E+03  0.16332658604E+04  0.16443010860E+04  0.12509021174E+03 0.  0.
          5    1    3    3  502    0 -0.43852011139E+02  0.23698344479E+01  0.46670980138E+03  0.46879006613E+03  0.41800000000E+01 0. -1.
         -5    1    3    3    0  502  0.19190338806E+02 -0.14348302236E+03  0.11665560590E+04  0.11755110199E+04  0.41800000000E+01 0. -1.
        -11    1    1    2    0    0  0.29979979631E+02  0.36341338938E+02  0.96251786623E+02  0.10716295313E+03  0.00000000000E+00 0.  1.
         11    1    1    2    0    0 -0.53183072981E+01  0.10477184897E+03  0.63056538642E+03  0.63923245481E+03  0.00000000000E+00 0. -1.
</event>
<event>
 7    1  0.2666594E-009  0.8736569E+02  0.7561462E-02  0.1309359E+00
          2   -1    0    0  501    0  0.00000000000E+00  0.00000000000E+00  0.10538833521E+03  0.10538833521E+03  0.00000000000E+00 0. -1.
         -2   -1    0    0    0  501 -0.00000000000E+00 -0.00000000000E+00 -0.11229207046E+03  0.11229207046E+03  0.00000000000E+00 0.  1.
         25    2    1    2    0    0 -0.27463709981E+01  0.20951721102E+01 -0.70884104184E+01  0.12533753353E+03  0.12508924594E+03 0.  0.
          5    1    3    3  502    0 -0.15537774344E+02 -0.54276021094E+02  0.21698421642E+02  0.60626749864E+02  0.41800000000E+01 0. -1.
         -5    1    3    3    0  502  0.12791403346E+02  0.56371193204E+02 -0.28786832061E+02  0.64710783668E+02  0.41800000000E+01 0. -1.
        -11    1    1    2    0    0  0.60099171836E+01  0.28636791157E+02 -0.34929301242E+02  0.45565787578E+02  0.00000000000E+00 0.  1.
         11    1    1    2    0    0 -0.32635461856E+01 -0.30731963268E+02  0.35113976412E+02  0.46777084555E+02  0.00000000000E+00 0. -1.
</event>
<event>
 7    1  0.2666594E-009  0.7250915E+02  0.7561462E-02  0.1351763E+00
         -1   -1    0    0    0  501 -0.00000000000E+00  0.00000000000E+00  0.67839202354E+02  0.67839202354E+02  0.00000000000E+00 0.  1.
          1   -1    0    0  501    0  0.00000000000E+00 -0.00000000000E+00 -0.29944166922E+03  0.29944166922E+03  0.00000000000E+00 0. -1.
         25    2    1    2    0    0 -0.34196036776E+02  0.51442794948E+02 -0.21505457240E+03  0.25633945496E+03  0.12508284046E+03 0.  0.
          5    1    3    3  502    0  0.69221740230E+01 -0.15381866403E+01  0.14761498232E+02  0.16901382825E+02  0.41800000000E+01 0.  1.
         -5    1    3    3    0  502 -0.41118210799E+02  0.52980981588E+02 -0.22981607063E+03  0.23943807214E+03  0.41800000000E+01 0.  1.
        -11    1    1    2    0    0  0.26978434388E+01 -0.32962493504E+02  0.34749715074E+02  0.47972356988E+02  0.00000000000E+00 0.  1.
         11    1    1    2    0    0  0.31498193337E+02 -0.18480301444E+02 -0.51297609538E+02  0.62969059619E+02  0.00000000000E+00 0. -1.
</event>
<event>
 7    1  0.2666594E-009  0.1281811E+03  0.7561462E-02  0.1230180E+00
          1   -1    0    0  501    0  0.00000000000E+00  0.00000000000E+00  0.63032405181E+03  0.63032405181E+03  0.00000000000E+00 0. -1.
         -1   -1    0    0    0  501 -0.00000000000E+00 -0.00000000000E+00 -0.31838554020E+02  0.31838554020E+02  0.00000000000E+00 0.  1.
         25    2    1    2    0    0  0.47946786652E+02  0.71407601345E+02  0.39854426272E+03  0.42647705506E+03  0.12508880554E+03 0.  0.
          5    1    3    3  502    0  0.77654681116E+02  0.13373506152E+02  0.14998710784E+03  0.16947774215E+03  0.41800000000E+01 0.  1.
         -5    1    3    3    0  502 -0.29707894464E+02  0.58034095193E+02  0.24855715488E+03  0.25699931292E+03  0.41800000000E+01 0.  1.
        -11    1    1    2    0    0 -0.57226698263E+01 -0.69627374665E+02  0.69399736526E+02  0.98473568447E+02  0.00000000000E+00 0.  1.
         11    1    1    2    0    0 -0.42224116826E+02 -0.17802266791E+01  0.13054149854E+03  0.13721198232E+03  0.00000000000E+00 0. -1.
</event>
<event>
 7    1  0.2666594E-009  0.1082370E+03  0.7561462E-02  0.1263870E+00
         -2   -1    0    0    0  501 -0.00000000000E+00  0.00000000000E+00  0.32811355719E+03  0.32811355719E+03  0.00000000000E+00 0. -1.
          2   -1    0    0  501    0  0.00000000000E+00 -0.00000000000E+00 -0.52020060831E+02  0.52020060831E+02  0.00000000000E+00 0.  1.
         25    2    1    2    0    0  0.11322497599E+02  0.63963124139E+02  0.21593799568E+03  0.25786830854E+03  0.12508943349E+03 0.  0.
          5    1    3    3  502    0 -0.43313823231E+02  0.79769021479E+01  0.14700904313E+03  0.15352149495E+03  0.41800000000E+01 0.  1.
         -5    1    3    3    0  502  0.54636320830E+02  0.55986221991E+02  0.68928952558E+02  0.10434681359E+03  0.41800000000E+01 0.  1.
        -11    1    1    2    0    0 -0.32288192383E+02 -0.67845044144E+01  0.50910223723E+02  0.60666364215E+02  0.00000000000E+00 0. -1.
         11    1    1    2    0    0  0.20965694783E+02 -0.57178619725E+02  0.92452769512E+01  0.61598945261E+02  0.00000000000E+00 0.  1.
</event>
<event>
 7    1  0.2666594E-009  0.8517642E+02  0.7561462E-02  0.1314972E+00
          1   -1    0    0  501    0  0.00000000000E+00  0.00000000000E+00  0.51988832600E+03  0.51988832600E+03  0.00000000000E+00 0. -1.
         -1   -1    0    0    0  501 -0.00000000000E+00 -0.00000000000E+00 -0.22396670677E+02  0.22396670677E+02  0.00000000000E+00 0.  1.
         25    2    1    2    0    0 -0.69592577553E+01  0.49036238568E+01  0.27929519153E+03  0.30614628548E+03  0.12508903753E+03 0.  0.
          5    1    3    3  502    0 -0.47271122188E+02  0.11003478957E+02  0.25255420821E+03  0.25720951776E+03  0.41800000000E+01 0.  1.
         -5    1    3    3    0  502  0.40311864433E+02 -0.60998551004E+01  0.26740983317E+02  0.48936767722E+02  0.41800000000E+01 0.  1.
        -11    1    1    2    0    0  0.38487933362E+02 -0.22464681791E+02  0.65413423653E+02  0.79151114562E+02  0.00000000000E+00 0.  1.
         11    1    1    2    0    0 -0.31528675606E+02  0.17561057934E+02  0.15278304014E+03  0.15698759663E+03  0.00000000000E+00 0. -1.
</event>
<event>
 7    1  0.2666594E-009  0.1236096E+03  0.7561462E-02  0.1237258E+00
         -1   -1    0    0    0  501 -0.00000000000E+00  0.00000000000E+00  0.87783107368E+02  0.87783107368E+02  0.00000000000E+00 0.  1.
          1   -1    0    0  501    0  0.00000000000E+00 -0.00000000000E+00 -0.32652171020E+03  0.32652171020E+03  0.00000000000E+00 0. -1.
         25    2    1    2    0    0  0.10517063599E+03 -0.50882691330E+02 -0.19514326024E+03  0.25957379259E+03  0.12509097022E+03 0.  0.
          5    1    3    3  502    0  0.34793068399E+02  0.10462092803E+02  0.66679559094E+01  0.37174548154E+02  0.41800000000E+01 0. -1.
         -5    1    3    3    0  502  0.70377567593E+02 -0.61344784133E+02 -0.20181121615E+03  0.22239924444E+03  0.41800000000E+01 0. -1.
        -11    1    1    2    0    0 -0.40950441467E+02  0.14880357290E+02  0.28197100018E+02  0.51898363547E+02  0.00000000000E+00 0.  1.
         11    1    1    2    0    0 -0.64220194525E+02  0.36002334041E+02 -0.71792442606E+02  0.10283266143E+03  0.00000000000E+00 0. -1.
</event>
<event>
 7    1  0.2666594E-009  0.1049019E+03  0.7561462E-02  0.1270313E+00
          1   -1    0    0  501    0  0.00000000000E+00  0.00000000000E+00  0.12882444263E+03  0.12882444263E+03  0.00000000000E+00 0. -1.
         -1   -1    0    0    0  501 -0.00000000000E+00 -0.00000000000E+00 -0.11782101632E+03  0.11782101632E+03  0.00000000000E+00 0.  1.
         25    2    1    2    0    0  0.25640568216E+02  0.82861214259E+01  0.60032155222E+02  0.14134511851E+03  0.12509390201E+03 0.  0.
          5    1    3    3  502    0  0.42195651669E+01  0.60111943846E+02  0.59959941257E+02  0.85111206540E+02  0.41800000000E+01 0.  1.
         -5    1    3    3    0  502  0.21421003049E+02 -0.51825822420E+02  0.72213964711E-01  0.56233911975E+02  0.41800000000E+01 0.  1.
        -11    1    1    2    0    0 -0.56478974635E+02  0.99348893542E+01 -0.28999745600E+02  0.64261667012E+02  0.00000000000E+00 0.  1.
         11    1    1    2    0    0  0.30838406419E+02 -0.18221010780E+02 -0.20028983305E+02  0.41038673425E+02  0.00000000000E+00 0. -1.
</event>
<event>
 7    1  0.3930503E-009  0.1398648E+03  0.7561462E-02  0.1213511E+00
          2   -1    0    0  501    0  0.00000000000E+00  0.00000000000E+00  0.10478914567E+04  0.10478914567E+04  0.00000000000E+00 0. -1.
         -2   -1    0    0    0  501 -0.00000000000E+00 -0.00000000000E+00 -0.27210314030E+02  0.27210314030E+02  0.00000000000E+00 0.  1.
         25    2    1    2    0    0  0.52778363476E+02  0.11648844050E+03  0.48475737061E+03  0.51671324872E+03  0.12509100932E+03 0.  0.
          5    1    3    3  502    0 -0.55617181987E+01  0.41509051909E+02  0.28929442218E+02  0.51071705735E+02  0.41800000000E+01 0. -1.
         -5    1    3    3    0  502  0.58340081674E+02  0.74979388594E+02  0.45582792840E+03  0.46564154298E+03  0.41800000000E+01 0. -1.
        -11    1    1    2    0    0 -0.41960093160E+02 -0.21879997756E+02  0.82817201662E+02  0.95383817343E+02  0.00000000000E+00 0.  1.
         11    1    1    2    0    0 -0.10818270315E+02 -0.94608442747E+02  0.45310657038E+03  0.46300470465E+03  0.00000000000E+00 0. -1.
</event>
<event>
 7    1  0.2666594E-009  0.1068218E+03  0.7561462E-02  0.1266571E+00
          1   -1    0    0  501    0  0.00000000000E+00  0.00000000000E+00  0.37092156184E+03  0.37092156184E+03  0.00000000000E+00 0. -1.
         -1   -1    0    0    0  501 -0.00000000000E+00 -0.00000000000E+00 -0.45474423955E+02  0.45474423955E+02  0.00000000000E+00 0.  1.
         25    2    1    2    0    0 -0.48738062397E+02  0.49204513594E+02  0.14973420964E+03  0.20703706635E+03  0.12509008922E+03 0.  0.
          5    1    3    3  502    0  0.25226638516E+02  0.60906340701E+02  0.87142821179E+02  0.10934948245E+03  0.41800000000E+01 0.  1.
         -5    1    3    3    0  502 -0.73964700913E+02 -0.11701827107E+02  0.62591388466E+02  0.97687583903E+02  0.41800000000E+01 0.  1.
        -11    1    1    2    0    0  0.24165132761E+02 -0.39209762416E+02  0.17690687347E+03  0.18280426962E+03  0.00000000000E+00 0. -1.
         11    1    1    2    0    0  0.24572929636E+02 -0.99947511786E+01 -0.11939452322E+01  0.26554649824E+02  0.00000000000E+00 0.  1.
</event>
<event>
 7    1  0.2666594E-009  0.1598305E+03  0.7561462E-02  0.1188888E+00
         -2   -1    0    0    0  501 -0.00000000000E+00  0.00000000000E+00  0.17085938673E+03  0.17085938673E+03  0.00000000000E+00 0.  1.
          2   -1    0    0  501    0  0.00000000000E+00 -0.00000000000E+00 -0.17161266548E+03  0.17161266548E+03  0.00000000000E+00 0. -1.
         25    2    1    2    0    0 -0.31287693379E+02  0.12613852324E+03  0.26273189940E+02  0.18228347455E+03  0.12508851979E+03 0.  0.
          5    1    3    3  502    0  0.28228272657E+02  0.11397187174E+03  0.30062848954E+02  0.12127518382E+03  0.41800000000E+01 0.  1.
         -5    1    3    3    0  502 -0.59515966036E+02  0.12166651507E+02 -0.37896590135E+01  0.61008290728E+02  0.41800000000E+01 0.  1.
        -11    1    1    2    0    0 -0.27592482823E+01 -0.95311071552E+02 -0.51261878546E+02  0.10825707369E+03  0.00000000000E+00 0.  1.
         11    1    1    2    0    0  0.34046941661E+02 -0.30827451691E+02  0.24235409849E+02  0.51931503972E+02  0.00000000000E+00 0. -1.
</event>
<event>
 7    1  0.2666594E-009  0.1248439E+03  0.7561462E-02  0.1235313E+00
         -2   -1    0    0    0  501 -0.00000000000E+00  0.00000000000E+00  0.41751078730E+02  0.41751078730E+02  0.00000000000E+00 0.  1.
          2   -1    0    0  501    0  0.00000000000E+00 -0.00000000000E+00 -0.45736972530E+03  0.45736972530E+03  0.00000000000E+00 0. -1.
         25    2    1    2    0    0 -0.65125133426E+02 -0.80333799722E+01 -0.32811161828E+03  0.35722720564E+03  0.12509286233E+03 0.  0.
          5    1    3    3  502    0  0.34217368798E+02  0.12908642279E+02 -0.12195783971E+03  0.12739171260E+03  0.41800000000E+01 0.  1.
         -5    1    3    3    0  502 -0.99342502223E+02 -0.20942022251E+02 -0.20615377857E+03  0.22983549304E+03  0.41800000000E+01 0.  1.
        -11    1    1    2    0    0 -0.20597066237E+02 -0.11153815963E+02 -0.23702713379E+02  0.33323645803E+02  0.00000000000E+00 0.  1.
         11    1    1    2    0    0  0.85722199662E+02  0.19187195935E+02 -0.63804314918E+02  0.10856995259E+03  0.00000000000E+00 0. -1.
</event>
<event>
 7    1  0.2666594E-009  0.9051255E+02  0.7561462E-02  0.1301615E+00
         -3   -1    0    0    0  501 -0.00000000000E+00  0.00000000000E+00  0.27023496828E+02  0.27023496828E+02  0.00000000000E+00 0.  1.
          3   -1    0    0  501    0  0.00000000000E+00 -0.00000000000E+00 -0.47780406567E+03  0.47780406567E+03  0.00000000000E+00 0. -1.
         25    2    1    2    0    0 -0.14868506447E+02 -0.27736661324E+02 -0.28306744421E+03  0.31107443026E+03  0.12509887418E+03 0.  0.
          5    1    3    3  502    0  0.26881452934E+02 -0.32762809563E+02 -0.24609350826E+02  0.49184415727E+02  0.41800000000E+01 0.  1.
         -5    1    3    3    0  502 -0.41749959381E+02  0.50261482384E+01 -0.25845809339E+03  0.26189001453E+03  0.41800000000E+01 0.  1.
        -11    1    1    2    0    0  0.38938068060E+02 -0.19213937197E+02 -0.88492531274E+02  0.98571175391E+02  0.00000000000E+00 0.  1.
         11    1    1    2    0    0 -0.24069561613E+02  0.46950598521E+02 -0.79220593353E+02  0.95181956846E+02  0.00000000000E+00 0. -1.
</event>
<event>
 7    1  0.2666594E-009  0.9966720E+02  0.7561462E-02  0.1280997E+00
         -4   -1    0    0    0  501 -0.00000000000E+00  0.00000000000E+00  0.15630610729E+03  0.15630610729E+03  0.00000000000E+00 0.  1.
          4   -1    0    0  501    0  0.00000000000E+00 -0.00000000000E+00 -0.13792663300E+03  0.13792663300E+03  0.00000000000E+00 0. -1.
         25    2    1    2    0    0 -0.20333171445E+02 -0.25720094700E+02 -0.76943689146E+02  0.15047389855E+03  0.12508837561E+03 0.  0.
          5    1    3    3  502    0 -0.53978036020E+02 -0.16727847093E+02 -0.95308583763E+02  0.11088123277E+03  0.41800000000E+01 0. -1.
         -5    1    3    3    0  502  0.33644864576E+02 -0.89922476076E+01  0.18364894616E+02  0.39592665781E+02  0.41800000000E+01 0. -1.
        -11    1    1    2    0    0 -0.32577758271E+02  0.41144527433E+02  0.45209777719E+02  0.69268365601E+02  0.00000000000E+00 0.  1.
         11    1    1    2    0    0  0.52910929716E+02 -0.15424432732E+02  0.50113385712E+02  0.74490476143E+02  0.00000000000E+00 0. -1.
</event>
<event>
 7    1  0.2666594E-009  0.1449325E+03  0.7561462E-02  0.1206842E+00
          4   -1    0    0  501    0  0.00000000000E+00  0.00000000000E+00  0.12000190112E+03  0.12000190112E+03  0.00000000000E+00 0.  1.
         -4   -1    0    0    0  501 -0.00000000000E+00 -0.00000000000E+00 -0.19855661196E+03  0.19855661196E+03  0.00000000000E+00 0. -1.
         25    2    1    2    0    0  0.18742721495E+02  0.10351003679E+03 -0.72819052976E+02  0.17893072728E+03  0.12509185970E+03 0.  0.
          5    1    3    3  502    0  0.75046890184E+01 -0.29013591136E+02 -0.16182687924E+02  0.34314146009E+02  0.41800000000E+01 0. -1.
         -5    1    3    3    0  502  0.11238032477E+02  0.13252362793E+03 -0.56636365052E+02  0.14461658127E+03  0.41800000000E+01 0. -1.
        -11    1    1    2    0    0  0.46465700672E+01  0.97983124485E+01  0.18476960106E+02  0.21424182481E+02  0.00000000000E+00 0.  1.
         11    1    1    2    0    0 -0.23389291562E+02 -0.11330834924E+03 -0.24212617976E+02  0.11820360331E+03  0.00000000000E+00 0. -1.
</event>
<event>
 7    1  0.2666594E-009  0.3772588E+03  0.7561462E-02  0.1051952E+00
         -2   -1    0    0    0  501 -0.00000000000E+00  0.00000000000E+00  0.28858205937E+03  0.28858205937E+03  0.00000000000E+00 0.  1.
          2   -1    0    0  501    0  0.00000000000E+00 -0.00000000000E+00 -0.68269215758E+03  0.68269215758E+03  0.00000000000E+00 0. -1.
         25    2    1    2    0    0  0.36895337132E+03  0.42708368879E+02 -0.43555895712E+03  0.58592649393E+03  0.12509059187E+03 0.  0.
          5    1    3    3  502    0  0.30427758405E+03  0.13312083590E+02 -0.40901106152E+03  0.50997017616E+03  0.41800000000E+01 0.  1.
         -5    1    3    3    0  502  0.64675787268E+02  0.29396285289E+02 -0.26547895598E+02  0.75956317763E+02  0.41800000000E+01 0.  1.
        -11    1    1    2    0    0 -0.46024190416E+02  0.19332586523E+02  0.25673581779E+02  0.56134729058E+02  0.00000000000E+00 0.  1.
         11    1    1    2    0    0 -0.32292918090E+03 -0.62040955402E+02  0.15775277135E+02  0.32921299397E+03  0.00000000000E+00 0. -1.
</event>
<event>
 7    1  0.2666594E-009  0.8425794E+02  0.7561462E-02  0.1317385E+00
          1   -1    0    0  501    0  0.00000000000E+00  0.00000000000E+00  0.56319314158E+03  0.56319314158E+03  0.00000000000E+00 0. -1.
         -1   -1    0    0    0  501 -0.00000000000E+00 -0.00000000000E+00 -0.27933698563E+02  0.27933698563E+02  0.00000000000E+00 0.  1.
         25    2    1    2    0    0 -0.47798467923E+02  0.10568118184E+01  0.39968912912E+03  0.42152761130E+03  0.12509323229E+03 0.  0.
          5    1    3    3  502    0  0.15170638121E+02 -0.15162154168E+02  0.30946243610E+03  0.31023299460E+03  0.41800000000E+01 0. -1.
         -5    1    3    3    0  502 -0.62969106044E+02  0.16218965987E+02  0.90226693020E+02  0.11129461670E+03  0.41800000000E+01 0. -1.
        -11    1    1    2    0    0  0.17708321027E+01 -0.28076938673E+02  0.10367134044E+03  0.10742065518E+03  0.00000000000E+00 0. -1.
         11    1    1    2    0    0  0.46027635820E+02  0.27020126855E+02  0.31898973454E+02  0.62178573656E+02  0.00000000000E+00 0.  1.
</event>
<event>
 7    1  0.2666594E-009  0.8712998E+02  0.7561462E-02  0.1309955E+00
         -1   -1    0    0    0  501 -0.00000000000E+00  0.00000000000E+00  0.57600740668E+02  0.57600740668E+02  0.00000000000E+00 0.  1.
          1   -1    0    0  501    0  0.00000000000E+00 -0.00000000000E+00 -0.20875681545E+03  0.20875681545E+03  0.00000000000E+00 0. -1.
         25    2    1    2    0    0 -0.13973954131E+00  0.13662608941E+02 -0.10687539771E+03  0.16509226763E+03  0.12508564979E+03 0.  0.
          5    1    3    3  502    0 -0.23408056524E+02 -0.39557247503E+02 -0.33041483170E+01  0.46272051352E+02  0.41800000000E+01 0. -1.
         -5    1    3    3    0  502  0.23268316983E+02  0.53219856444E+02 -0.10357124939E+03  0.11882021627E+03  0.41800000000E+01 0. -1.
        -11    1    1    2    0    0  0.29740014038E+02  0.10626506365E+02 -0.53275518044E+02  0.61932801449E+02  0.00000000000E+00 0. -1.
         11    1    1    2    0    0 -0.29600274497E+02 -0.24289115307E+02  0.89948409720E+01  0.39332487040E+02  0.00000000000E+00 0.  1.
</event>
<event>
 7    1  0.2666594E-009  0.1275025E+03  0.7561462E-02  0.1231209E+00
         -1   -1    0    0    0  501 -0.00000000000E+00  0.00000000000E+00  0.28272577422E+02  0.28272577422E+02  0.00000000000E+00 0.  1.
          1   -1    0    0  501    0  0.00000000000E+00 -0.00000000000E+00 -0.69929961803E+03  0.69929961803E+03  0.00000000000E+00 0. -1.
         25    2    1    2    0    0 -0.65797665684E+02 -0.47445145536E+02 -0.47139604152E+03  0.49441018187E+03  0.12508727088E+03 0.  0.
          5    1    3    3  502    0 -0.10147129403E+01 -0.76123316665E+02 -0.28297109832E+03  0.29306296911E+03  0.41800000000E+01 0.  1.
         -5    1    3    3    0  502 -0.64782952744E+02  0.28678171129E+02 -0.18842494320E+03  0.20134721276E+03  0.41800000000E+01 0.  1.
        -11    1    1    2    0    0  0.12287114453E+02  0.52614904027E+02 -0.47962072708E+02  0.72247226422E+02  0.00000000000E+00 0.  1.
         11    1    1    2    0    0  0.53510551231E+02 -0.51697584901E+01 -0.15166892639E+03  0.16091478716E+03  0.00000000000E+00 0. -1.
</event>
<event>
 7    1  0.2666594E-009  0.1295389E+03  0.7561462E-02  0.1228142E+00
         -3   -1    0    0    0  501 -0.00000000000E+00  0.00000000000E+00  0.27842592105E+02  0.27842592105E+02  0.00000000000E+00 0.  1.
          3   -1    0    0  501    0  0.00000000000E+00 -0.00000000000E+00 -0.64217295256E+03  0.64217295256E+03  0.00000000000E+00 0. -1.
         25    2    1    2    0    0 -0.69411590628E+02 -0.20662804767E+02 -0.40085611682E+03  0.42611948138E+03  0.12508903070E+03 0.  0.
          5    1    3    3  502    0 -0.10436202210E+03 -0.13709438995E+02 -0.25471890707E+03  0.27564211289E+03  0.41800000000E+01 0.  1.
         -5    1    3    3    0  502  0.34950431474E+02 -0.69533657719E+01 -0.14613720975E+03  0.15047736849E+03  0.41800000000E+01 0.  1.
        -11    1    1    2    0    0  0.60924147783E+02  0.55248579868E+02 -0.15353893660E+03  0.17417911015E+03  0.00000000000E+00 0.  1.
         11    1    1    2    0    0  0.84874428449E+01 -0.34585775101E+02 -0.59935307036E+02  0.69716953138E+02  0.00000000000E+00 0. -1.
</event>
<event>
 7    1  0.2666594E-009  0.1268631E+03  0.7561462E-02  0.1232186E+00
         -2   -1    0    0    0  501 -0.00000000000E+00  0.00000000000E+00  0.12587566958E+04  0.12587566958E+04  0.00000000000E+00 0.  1.
          2   -1    0    0  501    0  0.00000000000E+00 -0.00000000000E+00 -0.13068262445E+02  0.13068262445E+02  0.00000000000E+00 0. -1.
         25    2    1    2    0    0 -0.35732329723E+02 -0.55787013598E+02  0.77108184231E+03  0.78396719158E+03  0.12509340374E+03 0.  0.
          5    1    3    3  502    0  0.40590308032E+02  0.81673349823E+01  0.25004710388E+03  0.25348630146E+03  0.41800000000E+01 0.  1.
         -5    1    3    3    0  502 -0.76322637755E+02 -0.63954348581E+02  0.52103473842E+03  0.53048089012E+03  0.41800000000E+01 0.  1.
        -11    1    1    2    0    0 -0.29836690431E+02  0.29034020460E+02  0.15444483071E+03  0.15995751990E+03  0.00000000000E+00 0. -1.
         11    1    1    2    0    0  0.65569020154E+02  0.26752993138E+02  0.32016176029E+03  0.32790024672E+03  0.00000000000E+00 0.  1.
</event>
<event>
 7    1  0.2666594E-009  0.1143338E+03  0.7561462E-02  0.1252748E+00
          2   -1    0    0  501    0  0.00000000000E+00  0.00000000000E+00  0.31843115919E+03  0.31843115919E+03  0.00000000000E+00 0. -1.
         -2   -1    0    0    0  501 -0.00000000000E+00 -0.00000000000E+00 -0.60032340674E+02  0.60032340674E+02  0.00000000000E+00 0.  1.
         25    2    1    2    0    0 -0.27508684482E+01 -0.88570894406E+02  0.11482763538E+03  0.19153498038E+03  0.12509153549E+03 0.  0.
          5    1    3    3  502    0  0.19560373360E+01 -0.10636956475E+03  0.12948284617E+03  0.16763528936E+03  0.41800000000E+01 0. -1.
         -5    1    3    3    0  502 -0.47069057841E+01  0.17798670340E+02 -0.14655210788E+02  0.23899691027E+02  0.41800000000E+01 0. -1.
        -11    1    1    2    0    0  0.26224173698E+02  0.64828976748E+02  0.13564951336E+03  0.15261485507E+03  0.00000000000E+00 0. -1.
         11    1    1    2    0    0 -0.23473305250E+02  0.23741917659E+02  0.79216697775E+01  0.34313664414E+02  0.00000000000E+00 0.  1.
</event>
<event>
 7    1  0.2666594E-009  0.1206137E+03  0.7561462E-02  0.1242088E+00
         -1   -1    0    0    0  501 -0.00000000000E+00  0.00000000000E+00  0.37859365849E+02  0.37859365849E+02  0.00000000000E+00 0.  1.
          1   -1    0    0  501    0  0.00000000000E+00 -0.00000000000E+00 -0.48113160106E+03  0.48113160106E+03  0.00000000000E+00 0. -1.
         25    2    1    2    0    0  0.54903265654E+02  0.47073470871E+02 -0.30278232716E+03  0.33549005331E+03  0.12508460331E+03 0.  0.
          5    1    3    3  502    0  0.43385217840E+02  0.89759226331E+02 -0.21918886246E+03  0.24083236009E+03  0.41800000000E+01 0. -1.
         -5    1    3    3    0  502  0.11518047814E+02 -0.42685755460E+02 -0.83593464704E+02  0.94657693221E+02  0.41800000000E+01 0. -1.
        -11    1    1    2    0    0 -0.10218531083E+02 -0.51154339095E+02 -0.12596292148E+03  0.13633723766E+03  0.00000000000E+00 0. -1.
         11    1    1    2    0    0 -0.44684734571E+02  0.40808682232E+01 -0.14526986563E+02  0.47163675935E+02  0.00000000000E+00 0.  1.
</event>
<event>
 7    1  0.2666594E-009  0.1403517E+03  0.7561462E-02  0.1212856E+00
         -1   -1    0    0    0  501 -0.00000000000E+00  0.00000000000E+00  0.49789689324E+02  0.49789689324E+02  0.00000000000E+00 0.  1.
          1   -1    0    0  501    0  0.00000000000E+00 -0.00000000000E+00 -0.59219759900E+03  0.59219759900E+03  0.00000000000E+00 0. -1.
         25    2    1    2    0    0  0.54275303405E+02 -0.96554760934E+02 -0.15267000835E+03  0.22632925507E+03  0.12509264499E+03 0.  0.
          5    1    3    3  502    0 -0.39006074775E+02 -0.14312706015E+02 -0.28602018057E+02  0.50614970708E+02  0.41800000000E+01 0.  1.
         -5    1    3    3    0  502  0.93281378180E+02 -0.82242054919E+02 -0.12406799029E+03  0.17571428436E+03  0.41800000000E+01 0.  1.
        -11    1    1    2    0    0 -0.50810199248E+02  0.63718579892E+02 -0.36607268068E+03  0.37503458682E+03  0.00000000000E+00 0. -1.
         11    1    1    2    0    0 -0.34651041564E+01  0.32836181042E+02 -0.23665220651E+02  0.40623446440E+02  0.00000000000E+00 0.  1.
</event>
<event>
 7    1  0.2666594E-009  0.1488811E+03  0.7561462E-02  0.1201855E+00
          2   -1    0    0  501    0  0.00000000000E+00  0.00000000000E+00  0.76887718307E+02  0.76887718307E+02  0.00000000000E+00 0. -1.
         -2   -1    0    0    0  501 -0.00000000000E+00 -0.00000000000E+00 -0.33402065311E+03  0.33402065311E+03  0.00000000000E+00 0.  1.
         25    2    1    2    0    0  0.42845319505E+02  0.10582319586E+03 -0.16804969642E+03  0.23858517809E+03  0.12509163263E+03 0.  0.
          5    1    3    3  502    0  0.19151813823E+02  0.12421981488E+03 -0.16596222281E+03  0.20822652613E+03  0.41800000000E+01 0.  1.
         -5    1    3    3    0  502  0.23693505682E+02 -0.18396619024E+02 -0.20874736070E+01  0.30358651964E+02  0.41800000000E+01 0.  1.
        -11    1    1    2    0    0 -0.31235046538E+02  0.38150210825E+01 -0.14740875565E+01  0.31501673800E+02  0.00000000000E+00 0. -1.
         11    1    1    2    0    0 -0.11610272967E+02 -0.10963821694E+03 -0.87609150820E+02  0.14082151952E+03  0.00000000000E+00 0.  1.
</event>
<event>
 7    1  0.2666594E-009  0.8381024E+02  0.7561462E-02  0.1318574E+00
         -2   -1    0    0    0  501 -0.00000000000E+00  0.00000000000E+00  0.11224086056E+03  0.11224086056E+03  0.00000000000E+00 0. -1.
          2   -1    0    0  501    0  0.00000000000E+00 -0.00000000000E+00 -0.12424073593E+03  0.12424073593E+03  0.00000000000E+00 0.  1.
         25    2    1    2    0    0 -0.25535135923E+02 -0.22569547708E+02 -0.38546592018E+02  0.13524754374E+03  0.12507849807E+03 0.  0.
          5    1    3    3  502    0 -0.60968994504E+02 -0.13180144982E+02  0.20352934409E+02  0.65746854310E+02  0.41800000000E+01 0. -1.
         -5    1    3    3    0  502  0.35433858581E+02 -0.93894027262E+01 -0.58899526427E+02  0.69500689427E+02  0.41800000000E+01 0. -1.
        -11    1    1    2    0    0  0.20741826957E+02 -0.17935701432E+02  0.47900966357E+02  0.55194341642E+02  0.00000000000E+00 0. -1.
         11    1    1    2    0    0  0.47933089660E+01  0.40505249140E+02 -0.21354249702E+02  0.46039711110E+02  0.00000000000E+00 0.  1.
</event>
<event>
 7    1  0.2666594E-009  0.1152953E+03  0.7561462E-02  0.1251066E+00
         -1   -1    0    0    0  501 -0.00000000000E+00  0.00000000000E+00  0.23304044586E+03  0.23304044586E+03  0.00000000000E+00 0.  1.
          1   -1    0    0  501    0  0.00000000000E+00 -0.00000000000E+00 -0.26698225645E+03  0.26698225645E+03  0.00000000000E+00 0. -1.
         25    2    1    2    0    0 -0.14544104138E+02  0.62476954797E+02 -0.23280603626E+03  0.27195630516E+03  0.12508669214E+03 0.  0.
          5    1    3    3  502    0  0.48864199798E+02  0.23987702981E+02 -0.15519644532E+03  0.16451908387E+03  0.41800000000E+01 0. -1.
         -5    1    3    3    0  502 -0.63408303936E+02  0.38489251816E+02 -0.77609590941E+02  0.10743722129E+03  0.41800000000E+01 0. -1.
        -11    1    1    2    0    0 -0.26481329521E+02 -0.53516447218E+02  0.16027331228E+03  0.17103451571E+03  0.00000000000E+00 0.  1.
         11    1    1    2    0    0  0.41025433658E+02 -0.89605075788E+01  0.38590913397E+02  0.57031881432E+02  0.00000000000E+00 0. -1.
</event>
<event>
 7    1  0.2666594E-009  0.7024376E+02  0.7561462E-02  0.1359266E+00
          2   -1    0    0  501    0  0.00000000000E+00  0.00000000000E+00  0.30415165487E+03  0.30415165487E+03  0.00000000000E+00 0.  1.
         -2   -1    0    0    0  501 -0.00000000000E+00 -0.00000000000E+00 -0.72703275569E+02  0.72703275569E+02  0.00000000000E+00 0. -1.
         25    2    1    2    0    0 -0.32870974904E+02  0.19665592499E+02  0.24071352965E+03  0.27396577304E+03  0.12508798872E+03 0.  0.
          5    1    3    3  502    0 -0.17379847098E+02  0.89648619308E+01  0.25121247242E+03  0.25200715572E+03  0.41800000000E+01 0. -1.
         -5    1    3    3    0  502 -0.15491127806E+02  0.10700730568E+02 -0.10498942768E+02  0.21958617321E+02  0.41800000000E+01 0. -1.
        -11    1    1    2    0    0  0.10032740660E+02  0.37935878334E+02 -0.11482669719E+02  0.40885675413E+02  0.00000000000E+00 0.  1.
         11    1    1    2    0    0  0.22838234244E+02 -0.57601470833E+02  0.22175193626E+01  0.62003481980E+02  0.00000000000E+00 0. -1.
</event>
<event>
 7    1  0.2666594E-009  0.9507041E+02  0.7561462E-02  0.1291018E+00
          1   -1    0    0  501    0  0.00000000000E+00  0.00000000000E+00  0.88864093100E+02  0.88864093100E+02  0.00000000000E+00 0. -1.
         -1   -1    0    0    0  501 -0.00000000000E+00 -0.00000000000E+00 -0.19038344496E+03  0.19038344496E+03  0.00000000000E+00 0.  1.
         25    2    1    2    0    0  0.22954599630E+02 -0.67501914503E+02 -0.69883962868E+02  0.16004237467E+03  0.12508545606E+03 0.  0.
          5    1    3    3  502    0  0.36270598829E+02 -0.19855341544E+02 -0.95517146402E+02  0.10416711854E+03  0.41800000000E+01 0.  1.
         -5    1    3    3    0  502 -0.13315999199E+02 -0.47646572959E+02  0.25633183535E+02  0.55875256129E+02  0.41800000000E+01 0.  1.
        -11    1    1    2    0    0 -0.46459608474E+02  0.32225315508E+02 -0.47598181099E+02  0.73909086201E+02  0.00000000000E+00 0.  1.
         11    1    1    2    0    0  0.23505008844E+02  0.35276598995E+02  0.15962792105E+02  0.45296077195E+02  0.00000000000E+00 0. -1.
</event>
<event>
 7    1  0.2666594E-009  0.9608203E+02  0.7561462E-02  0.1288758E+00
         -2   -1    0    0    0  501 -0.00000000000E+00  0.00000000000E+00  0.16598193912E+02  0.16598193912E+02  0.00000000000E+00 0.  1.
          2   -1    0    0  501    0  0.00000000000E+00 -0.00000000000E+00 -0.75547747451E+03  0.75547747451E+03  0.00000000000E+00 0. -1.
         25    2    1    2    0    0 -0.29318116323E+02  0.14713318326E+02 -0.45601716780E+03  0.47400051519E+03  0.12509515333E+03 0.  0.
          5    1    3    3  502    0 -0.40345682667E+02  0.65527024523E+02 -0.28079490655E+03  0.29117832508E+03  0.41800000000E+01 0. -1.
         -5    1    3    3    0  502  0.11027566344E+02 -0.50813706196E+02 -0.17522226125E+03  0.18282219010E+03  0.41800000000E+01 0. -1.
        -11    1    1    2    0    0 -0.13549356292E+02  0.65883623783E+01 -0.46391073752E+01  0.15764291674E+02  0.00000000000E+00 0.  1.
         11    1    1    2    0    0  0.42867472615E+02 -0.21301680705E+02 -0.27822300542E+03  0.28231086156E+03  0.00000000000E+00 0. -1.
</event>
<event>
 7    1  0.2666594E-009  0.1472175E+03  0.7561462E-02  0.1203934E+00
          1   -1    0    0  501    0  0.00000000000E+00  0.00000000000E+00  0.17876380818E+04  0.17876380818E+04  0.00000000000E+00 0. -1.
         -1   -1    0    0    0  501 -0.00000000000E+00 -0.00000000000E+00 -0.15007296426E+02  0.15007296426E+02  0.00000000000E+00 0.  1.
         25    2    1    2    0    0 -0.11932603854E+03  0.24682773270E+02  0.11602151804E+04  0.11732816563E+04  0.12507052953E+03 0.  0.
          5    1    3    3  502    0 -0.39912938875E+02  0.54792781462E+02  0.24864047060E+03  0.25774958314E+03  0.41800000000E+01 0. -1.
         -5    1    3    3    0  502 -0.79413099668E+02 -0.30110008191E+02  0.91157470981E+03  0.91553207315E+03  0.41800000000E+01 0. -1.
        -11    1    1    2    0    0  0.42428720540E+02 -0.45102462755E+02  0.20087073627E+03  0.21019867070E+03  0.00000000000E+00 0.  1.
         11    1    1    2    0    0  0.76897318003E+02  0.20419689484E+02  0.41154486871E+03  0.41916505126E+03  0.00000000000E+00 0. -1.
</event>
<event>
 7    1  0.2666594E-009  0.6793747E+02  0.7561462E-02  0.1367251E+00
         -1   -1    0    0    0  501 -0.00000000000E+00  0.00000000000E+00  0.69604398120E+03  0.69604398120E+03  0.00000000000E+00 0.  1.
          1   -1    0    0  501    0  0.00000000000E+00 -0.00000000000E+00 -0.18443190586E+02  0.18443190586E+02  0.00000000000E+00 0. -1.
         25    2    1    2    0    0 -0.69725131655E+01 -0.28530923386E+02  0.45244093386E+03  0.47033211273E+03  0.12508744186E+03 0.  0.
          5    1    3    3  502    0 -0.18467475317E+02 -0.44880700854E+02  0.59657344626E+02  0.77018154494E+02  0.41800000000E+01 0. -1.
         -5    1    3    3    0  502  0.11494962151E+02  0.16349777468E+02  0.39278358923E+03  0.39331395824E+03  0.41800000000E+01 0. -1.
        -11    1    1    2    0    0 -0.42211664901E+01  0.45893277402E+02  0.21716918249E+03  0.22200555169E+03  0.00000000000E+00 0.  1.
         11    1    1    2    0    0  0.11193679656E+02 -0.17362354016E+02  0.79906742701E+01  0.22149507365E+02  0.00000000000E+00 0. -1.
</event>
<event>
 7    1  0.2666594E-009  0.1226800E+03  0.7561462E-02  0.1238740E+00
         -2   -1    0    0    0  501 -0.00000000000E+00  0.00000000000E+00  0.29279933673E+02  0.29279933673E+02  0.00000000000E+00 0.  1.
          2   -1    0    0  501    0  0.00000000000E+00 -0.00000000000E+00 -0.52267611887E+03  0.52267611887E+03  0.00000000000E+00 0. -1.
         25    2    1    2    0    0 -0.50427676428E+02 -0.28948142924E+02 -0.25745663755E+03  0.29208246055E+03  0.12508916025E+03 0.  0.
          5    1    3    3  502    0 -0.75192463151E+02  0.22999776589E+02 -0.16937766313E+03  0.18678640584E+03  0.41800000000E+01 0.  1.
         -5    1    3    3    0  502  0.24764786723E+02 -0.51947919513E+02 -0.88078974422E+02  0.10529605471E+03  0.41800000000E+01 0.  1.
        -11    1    1    2    0    0 -0.87211624618E+01  0.46427531840E+02 -0.10000476102E+03  0.11060075323E+03  0.00000000000E+00 0. -1.
         11    1    1    2    0    0  0.59148838889E+02 -0.17479388916E+02 -0.13593478663E+03  0.14927283877E+03  0.00000000000E+00 0.  1.
</event>
<event>
 7    1  0.5769157E-009  0.1146325E+03  0.7561462E-02  0.1252224E+00
         -2   -1    0    0    0  501 -0.00000000000E+00  0.00000000000E+00  0.22764382560E+03  0.22764382560E+03  0.00000000000E+00 0.  1.
          2   -1    0    0  501    0  0.00000000000E+00 -0.00000000000E+00 -0.82721001643E+02  0.82721001643E+02  0.00000000000E+00 0. -1.
         25    2    1    2    0    0 -0.55569989632E+02 -0.58269004743E+02  0.52080473096E+02  0.15761717415E+03  0.12508995662E+03 0.  0.
          5    1    3    3  502    0 -0.95449705752E+02 -0.32154736201E+02  0.32533831532E+02  0.10592684260E+03  0.41800000000E+01 0. -1.
         -5    1    3    3    0  502  0.39879716120E+02 -0.26114268543E+02  0.19546641563E+02  0.51690331550E+02  0.41800000000E+01 0. -1.
        -11    1    1    2    0    0  0.30672945777E+02  0.29454813075E+02  0.10458310285E+03  0.11289836588E+03  0.00000000000E+00 0.  1.
         11    1    1    2    0    0  0.24897043855E+02  0.28814191668E+02 -0.11740751993E+02  0.39849287215E+02  0.00000000000E+00 0. -1.
</event>
<event>
 7    1  0.2666594E-009  0.1369006E+03  0.7561462E-02  0.1217561E+00
         -1   -1    0    0    0  501 -0.00000000000E+00  0.00000000000E+00  0.13130628584E+03  0.13130628584E+03  0.00000000000E+00 0.  1.
          1   -1    0    0  501    0  0.00000000000E+00 -0.00000000000E+00 -0.15445867981E+03  0.15445867981E+03  0.00000000000E+00 0. -1.
         25    2    1    2    0    0  0.25228378720E+01  0.91192686832E+02 -0.22402862230E+02  0.15643778009E+03  0.12509364477E+03 0.  0.
          5    1    3    3  502    0  0.44479848882E+02  0.94979324417E+02 -0.37548045609E+02  0.11147581420E+03  0.41800000000E+01 0. -1.
         -5    1    3    3    0  502 -0.41957011010E+02 -0.37866375853E+01  0.15145183380E+02  0.44961965890E+02  0.41800000000E+01 0. -1.
        -11    1    1    2    0    0  0.29277811607E+02  0.67838081675E+00  0.11245991373E+02  0.31370731183E+02  0.00000000000E+00 0.  1.
         11    1    1    2    0    0 -0.31800649479E+02 -0.91871067648E+02 -0.11995523107E+02  0.97956454370E+02  0.00000000000E+00 0. -1.
</event>
<event>
 7    1  0.2666594E-009  0.3643175E+03  0.7561462E-02  0.1056887E+00
          2   -1    0    0  501    0  0.00000000000E+00  0.00000000000E+00  0.11633295625E+03  0.11633295625E+03  0.00000000000E+00 0. -1.
         -2   -1    0    0    0  501 -0.00000000000E+00 -0.00000000000E+00 -0.12082176445E+04  0.12082176445E+04  0.00000000000E+00 0.  1.
         25    2    1    2    0    0 -0.22863696818E+03  0.26957603710E+03 -0.44529798901E+03  0.58213766188E+03  0.12509138804E+03 0.  0.
          5    1    3    3  502    0 -0.24303310846E+03  0.24235500248E+03 -0.39831513946E+03  0.52580743791E+03  0.41800000000E+01 0.  1.
         -5    1    3    3    0  502  0.14396140279E+02  0.27221034619E+02 -0.46982849549E+02  0.56330223969E+02  0.41800000000E+01 0.  1.
        -11    1    1    2    0    0  0.93103202910E+02 -0.91643452555E+02 -0.15765665220E+03  0.20474947808E+03  0.00000000000E+00 0.  1.
         11    1    1    2    0    0  0.13553376527E+03 -0.17793258455E+03 -0.48893004705E+03  0.53766346080E+03  0.00000000000E+00 0. -1.
</event>
<event>
 7    1  0.2666594E-009  0.8643619E+02  0.7561462E-02  0.1311719E+00
          2   -1    0    0  501    0  0.00000000000E+00  0.00000000000E+00  0.11751082540E+04  0.11751082540E+04  0.00000000000E+00 0.  1.
         -2   -1    0    0    0  501 -0.00000000000E+00 -0.00000000000E+00 -0.17096009294E+02  0.17096009294E+02  0.00000000000E+00 0. -1.
         25    2    1    2    0    0  0.55989993706E+02 -0.61629551053E+02  0.77397697823E+03  0.78843002468E+03  0.12509380490E+03 0.  0.
          5    1    3    3  502    0  0.22159279937E+02 -0.42728281747E+02  0.80690732654E+02  0.94048957913E+02  0.41800000000E+01 0.  1.
         -5    1    3    3    0  502  0.33830713769E+02 -0.18901269306E+02  0.69328624558E+03  0.69438106677E+03  0.41800000000E+01 0.  1.
        -11    1    1    2    0    0 -0.43522869619E+02  0.58157196501E+02  0.38402292159E+03  0.39083257795E+03  0.00000000000E+00 0.  1.
         11    1    1    2    0    0 -0.12467124087E+02  0.34723545522E+01  0.12344918593E-01  0.12941660695E+02  0.00000000000E+00 0. -1.
</event>
<event>
 7    1  0.2666594E-009  0.1094927E+03  0.7561462E-02  0.1261512E+00
         -1   -1    0    0    0  501 -0.00000000000E+00  0.00000000000E+00  0.55068470178E+02  0.55068470178E+02  0.00000000000E+00 0.  1.
          1   -1    0    0  501    0  0.00000000000E+00 -0.00000000000E+00 -0.29027878110E+03  0.29027878110E+03  0.00000000000E+00 0. -1.
         25    2    1    2    0    0  0.80482558735E+01 -0.60677679175E+02 -0.16456862842E+03  0.21558455163E+03  0.12508920924E+03 0.  0.
          5    1    3    3  502    0  0.59805623817E+02 -0.24937475493E+01 -0.57334617372E+02  0.82991940369E+02  0.41800000000E+01 0.  1.
         -5    1    3    3    0  502 -0.51757367943E+02 -0.58183931626E+02 -0.10723401105E+03  0.13259261126E+03  0.41800000000E+01 0.  1.
        -11    1    1    2    0    0  0.77010939785E+01  0.64363026014E+02 -0.82933934416E+01  0.65350488452E+02  0.00000000000E+00 0.  1.
         11    1    1    2    0    0 -0.15749349852E+02 -0.36853468388E+01 -0.62348289061E+02  0.64412211194E+02  0.00000000000E+00 0. -1.
</event>
<event>
 7    1  0.2666594E-009  0.8256686E+02  0.7561462E-02  0.1321921E+00
          2   -1    0    0  501    0  0.00000000000E+00  0.00000000000E+00  0.10741273885E+03  0.10741273885E+03  0.00000000000E+00 0. -1.
         -2   -1    0    0    0  501 -0.00000000000E+00 -0.00000000000E+00 -0.13191361464E+03  0.13191361464E+03  0.00000000000E+00 0.  1.
         25    2    1    2    0    0 -0.48524985049E+02 -0.10726561874E+02 -0.18908288572E+02  0.13592176425E+03  0.12508984498E+03 0.  0.
          5    1    3    3  502    0 -0.46667986663E+02 -0.27798571321E+02  0.44344274233E+02  0.70246342282E+02  0.41800000000E+01 0.  1.
         -5    1    3    3    0  502 -0.18569983860E+01  0.17072009447E+02 -0.63252562805E+02  0.65675421970E+02  0.41800000000E+01 0.  1.
        -11    1    1    2    0    0  0.39691138637E+02 -0.30978077816E+02 -0.25405217083E+02  0.56395503779E+02  0.00000000000E+00 0.  1.
         11    1    1    2    0    0  0.88338464116E+01  0.41704639690E+02  0.19812629858E+02  0.47009085462E+02  0.00000000000E+00 0. -1.
</event>
<event>
 7    1  0.2666594E-009  0.8679996E+02  0.7561462E-02  0.1310791E+00
         -2   -1    0    0    0  501 -0.00000000000E+00  0.00000000000E+00  0.29970839954E+02  0.29970839954E+02  0.00000000000E+00 0.  1.
          2   -1    0    0  501    0  0.00000000000E+00 -0.00000000000E+00 -0.45674349615E+03  0.45674349615E+03  0.00000000000E+00 0. -1.
         25    2    1    2    0    0 -0.12064470981E+02 -0.38145843893E+02 -0.21004069652E+03  0.24771966468E+03  0.12508909309E+03 0.  0.
          5    1    3    3  502    0 -0.25095801735E+02 -0.54251031907E+02 -0.31053455279E+02  0.67488985861E+02  0.41800000000E+01 0.  1.
         -5    1    3    3    0  502  0.13031330755E+02  0.16105188014E+02 -0.17898724124E+03  0.18023067882E+03  0.41800000000E+01 0.  1.
        -11    1    1    2    0    0 -0.30342978574E+01  0.63210919499E+02 -0.97594998807E+02  0.11631685647E+03  0.00000000000E+00 0.  1.
         11    1    1    2    0    0  0.15098768838E+02 -0.25065075605E+02 -0.11913696087E+03  0.12267781495E+03  0.00000000000E+00 0. -1.
</event>
<event>
 7    1  0.2666594E-009  0.3265270E+03  0.7561462E-02  0.1072684E+00
         -1   -1    0    0    0  501 -0.00000000000E+00  0.00000000000E+00  0.19453180390E+03  0.19453180390E+03  0.00000000000E+00 0.  1.
          1   -1    0    0  501    0  0.00000000000E+00 -0.00000000000E+00 -0.61824047671E+03  0.61824047671E+03  0.00000000000E+00 0. -1.
         25    2    1    2    0    0 -0.22471874981E+03 -0.21714347417E+03 -0.33876299709E+03  0.47755378801E+03  0.12508975720E+03 0.  0.
          5    1    3    3  502    0 -0.93173155354E+01  0.15568286757E+02 -0.11709264930E+02  0.21994617672E+02  0.41800000000E+01 0. -1.
         -5    1    3    3    0  502 -0.21540143427E+03 -0.23271176093E+03 -0.32705373216E+03  0.45555917034E+03  0.41800000000E+01 0. -1.
        -11    1    1    2    0    0  0.98119397174E+02  0.13307647864E+03 -0.96526521945E+01  0.16561986283E+03  0.00000000000E+00 0.  1.
         11    1    1    2    0    0  0.12659935263E+03  0.84066995532E+02 -0.75293023526E+02  0.16959862976E+03  0.00000000000E+00 0. -1.
</event>
<event>
 7    1  0.2666594E-009  0.8757448E+02  0.7561462E-02  0.1308834E+00
         -1   -1    0    0    0  501 -0.00000000000E+00  0.00000000000E+00  0.87464333077E+02  0.87464333077E+02  0.00000000000E+00 0.  1.
          1   -1    0    0  501    0  0.00000000000E+00 -0.00000000000E+00 -0.15078538461E+03  0.15078538461E+03  0.00000000000E+00 0. -1.
         25    2    1    2    0    0  0.12135506547E+02  0.58546990042E+00 -0.34933568593E+01  0.12572768223E+03  0.12509050021E+03 0.  0.
          5    1    3    3  502    0 -0.36232532790E+02  0.76115856321E+01 -0.47126506544E+02  0.60075891065E+02  0.41800000000E+01 0.  1.
         -5    1    3    3    0  502  0.48368039337E+02 -0.70261157317E+01  0.43633149685E+02  0.65651791164E+02  0.41800000000E+01 0.  1.
        -11    1    1    2    0    0  0.17891083252E+02 -0.37322632752E+02 -0.78172073775E+01  0.42120998405E+02  0.00000000000E+00 0. -1.
         11    1    1    2    0    0 -0.30026589799E+02  0.36737162851E+02 -0.52010487295E+02  0.70401037052E+02  0.00000000000E+00 0.  1.
</event>
<event>
 7    1  0.2666594E-009  0.1247159E+03  0.7561462E-02  0.1235514E+00
          2   -1    0    0  501    0  0.00000000000E+00  0.00000000000E+00  0.87083955263E+02  0.87083955263E+02  0.00000000000E+00 0. -1.
         -2   -1    0    0    0  501 -0.00000000000E+00 -0.00000000000E+00 -0.25268182181E+03  0.25268182181E+03  0.00000000000E+00 0.  1.
         25    2    1    2    0    0 -0.28333856016E+02 -0.62706919566E+02 -0.44095035242E+01  0.14283381312E+03  0.12508832596E+03 0.  0.
          5    1    3    3  502    0 -0.77578977059E+02 -0.46173710032E+02 -0.70594084060E+01  0.90652174969E+02  0.41800000000E+01 0. -1.
         -5    1    3    3    0  502  0.49245121043E+02 -0.16533209534E+02  0.26499048818E+01  0.52181638149E+02  0.41800000000E+01 0. -1.
        -11    1    1    2    0    0  0.26055772995E+02  0.82756852532E+02 -0.99436510442E+02  0.13196673655E+03  0.00000000000E+00 0. -1.
         11    1    1    2    0    0  0.22780830213E+01 -0.20049932966E+02 -0.61751852580E+02  0.64965227401E+02  0.00000000000E+00 0.  1.
</event>
<event>
 7    1  0.2666594E-009  0.1683111E+03  0.7561462E-02  0.1179621E+00
          1   -1    0    0  501    0  0.00000000000E+00  0.00000000000E+00  0.14560133697E+03  0.14560133697E+03  0.00000000000E+00 0. -1.
         -1   -1    0    0    0  501 -0.00000000000E+00 -0.00000000000E+00 -0.30257319825E+03  0.30257319825E+03  0.00000000000E+00 0.  1.
         25    2    1    2    0    0  0.80176304660E+02 -0.14083030829E+03 -0.87199311723E+00  0.20472593746E+03  0.12510209245E+03 0.  0.
          5    1    3    3  502    0  0.54212412084E+02 -0.56089108296E+02  0.58820804701E+02  0.97787183000E+02  0.41800000000E+01 0. -1.
         -5    1    3    3    0  502  0.25963892576E+02 -0.84741199996E+02 -0.59692797818E+02  0.10693875446E+03  0.41800000000E+01 0. -1.
        -11    1    1    2    0    0 -0.65644421373E+02  0.64340208646E+02 -0.13403421589E+03  0.16252391681E+03  0.00000000000E+00 0.  1.
         11    1    1    2    0    0 -0.14531883287E+02  0.76490099646E+02 -0.22065652274E+02  0.80924680945E+02  0.00000000000E+00 0. -1.
</event>
<event>
 7    1  0.2666594E-009  0.1288176E+03  0.7561462E-02  0.1229221E+00
         -3   -1    0    0    0  501 -0.00000000000E+00  0.00000000000E+00  0.61232177235E+02  0.61232177235E+02  0.00000000000E+00 0.  1.
          3   -1    0    0  501    0  0.00000000000E+00 -0.00000000000E+00 -0.28238165501E+03  0.28238165501E+03  0.00000000000E+00 0. -1.
         25    2    1    2    0    0  0.43768564887E+02 -0.56647860768E+02 -0.13011499122E+03  0.19417240397E+03  0.12509334164E+03 0.  0.
          5    1    3    3  502    0  0.82679711114E+02 -0.11080668028E+02 -0.67330251492E+02  0.10728257547E+03  0.41800000000E+01 0. -1.
         -5    1    3    3    0  502 -0.38911146226E+02 -0.45567192740E+02 -0.62784739727E+02  0.86889828504E+02  0.41800000000E+01 0. -1.
        -11    1    1    2    0    0 -0.66318317871E+02  0.17046259448E+02 -0.73921636498E+02  0.10076260511E+03  0.00000000000E+00 0. -1.
         11    1    1    2    0    0  0.22549752983E+02  0.39601601320E+02 -0.17112850054E+02  0.48678823154E+02  0.00000000000E+00 0.  1.
</event>
<event>
 7    1  0.2666594E-009  0.1442791E+03  0.7561462E-02  0.1207684E+00
         -1   -1    0    0    0  501 -0.00000000000E+00  0.00000000000E+00  0.21254837892E+03  0.21254837892E+03  0.00000000000E+00 0.  1.
          1   -1    0    0  501    0  0.00000000000E+00 -0.00000000000E+00 -0.17062390364E+03  0.17062390364E+03  0.00000000000E+00 0. -1.
         25    2    1    2    0    0 -0.11254557609E+03  0.38678087369E+02 -0.79565080238E+02  0.19010879859E+03  0.12509297410E+03 0.  0.
          5    1    3    3  502    0 -0.32018421224E+02 -0.37870170681E+02  0.55643143087E+01  0.50077571015E+02  0.41800000000E+01 0.  1.
         -5    1    3    3    0  502 -0.80527154868E+02  0.76548258050E+02 -0.85129394547E+02  0.14003122758E+03  0.41800000000E+01 0.  1.
        -11    1    1    2    0    0  0.65938851749E+02 -0.46041922872E+02  0.12170714898E+03  0.14587810303E+03  0.00000000000E+00 0.  1.
         11    1    1    2    0    0  0.46606724342E+02  0.73638355030E+01 -0.21759345020E+00  0.47185380937E+02  0.00000000000E+00 0. -1.
</event>
<event>
 7    1  0.2666594E-009  0.1381191E+03  0.7561462E-02  0.1215882E+00
          2   -1    0    0  501    0  0.00000000000E+00  0.00000000000E+00  0.15730468876E+03  0.15730468876E+03  0.00000000000E+00 0. -1.
         -2   -1    0    0    0  501 -0.00000000000E+00 -0.00000000000E+00 -0.12635544043E+03  0.12635544043E+03  0.00000000000E+00 0.  1.
         25    2    1    2    0    0  0.82214096359E+02  0.35909112522E+02  0.15098434973E+02  0.15467065321E+03  0.12508567553E+03 0.  0.
          5    1    3    3  502    0 -0.16130941843E+02  0.46388446414E+02 -0.14449135622E+02  0.51364824206E+02  0.41800000000E+01 0.  1.
         -5    1    3    3    0  502  0.98345038203E+02 -0.10479333892E+02  0.29547570595E+02  0.10330582900E+03  0.41800000000E+01 0.  1.
        -11    1    1    2    0    0  0.19349444389E+02 -0.14455388945E+02  0.15252656104E+01  0.24200944256E+02  0.00000000000E+00 0.  1.
         11    1    1    2    0    0 -0.10156354075E+03 -0.21453723578E+02  0.14325547745E+02  0.10478853173E+03  0.00000000000E+00 0. -1.
</event>
<event>
 7    1  0.2666594E-009  0.8824973E+02  0.7561462E-02  0.1307146E+00
         -2   -1    0    0    0  501 -0.00000000000E+00  0.00000000000E+00  0.18177340913E+02  0.18177340913E+02  0.00000000000E+00 0.  1.
          2   -1    0    0  501    0  0.00000000000E+00 -0.00000000000E+00 -0.74380472490E+03  0.74380472490E+03  0.00000000000E+00 0. -1.
         25    2    1    2    0    0  0.10297335176E+01 -0.27626313884E+02 -0.30712807352E+03  0.33277450237E+03  0.12508773848E+03 0.  0.
          5    1    3    3  502    0  0.33987522509E+02  0.62200453911E+01 -0.16887508036E+02  0.38684634916E+02  0.41800000000E+01 0. -1.
         -5    1    3    3    0  502 -0.32957788991E+02 -0.33846359275E+02 -0.29024056548E+03  0.29408986746E+03  0.41800000000E+01 0. -1.
        -11    1    1    2    0    0 -0.45235688993E+02  0.81549745743E+01 -0.17306308493E+03  0.17906312444E+03  0.00000000000E+00 0. -1.
         11    1    1    2    0    0  0.44205955475E+02  0.19471339309E+02 -0.24543622554E+03  0.25014443900E+03  0.00000000000E+00 0.  1.
</event>
<event>
 7    1  0.2666594E-009  0.3006001E+03  0.7561462E-02  0.1084941E+00
         -1   -1    0    0    0  501 -0.00000000000E+00  0.00000000000E+00  0.24011724102E+03  0.24011724102E+03  0.00000000000E+00 0.  1.
          1   -1    0    0  501    0  0.00000000000E+00 -0.00000000000E+00 -0.39570436293E+03  0.39570436293E+03  0.00000000000E+00 0. -1.
         25    2    1    2    0    0  0.28177735658E+03  0.95153155955E+01 -0.18273509036E+02  0.30898281445E+03  0.12508972212E+03 0.  0.
          5    1    3    3  502    0  0.84758736971E+02 -0.53077446269E+02 -0.20663437387E+02  0.10220425060E+03  0.41800000000E+01 0. -1.
         -5    1    3    3    0  502  0.19701861961E+03  0.62592761865E+02  0.23899283501E+01  0.20677856385E+03  0.41800000000E+01 0. -1.
        -11    1    1    2    0    0 -0.26961877425E+02  0.25525819747E+02 -0.46203181508E+01  0.37414671559E+02  0.00000000000E+00 0.  1.
         11    1    1    2    0    0 -0.25481547916E+03 -0.35041135343E+02 -0.13269329472E+03  0.28942411794E+03  0.00000000000E+00 0. -1.
</event>
<event>
 7    1  0.2666594E-009  0.1178467E+03  0.7561462E-02  0.1246692E+00
         -1   -1    0    0    0  501 -0.00000000000E+00  0.00000000000E+00  0.21579916491E+02  0.21579916491E+02  0.00000000000E+00 0.  1.
          1   -1    0    0  501    0  0.00000000000E+00 -0.00000000000E+00 -0.74656728639E+03  0.74656728639E+03  0.00000000000E+00 0. -1.
         25    2    1    2    0    0 -0.63920794853E+02 -0.11746015326E+01 -0.44673088126E+03  0.46829866812E+03  0.12509162477E+03 0.  0.
          5    1    3    3  502    0  0.33073519780E+02 -0.21461846236E+02 -0.16225829421E+03  0.16703201787E+03  0.41800000000E+01 0. -1.
         -5    1    3    3    0  502 -0.96994314633E+02  0.20287244703E+02 -0.28447258705E+03  0.30126665025E+03  0.41800000000E+01 0. -1.
        -11    1    1    2    0    0 -0.16429131359E+02  0.16619178175E+01 -0.88917800417E+01  0.18754788198E+02  0.00000000000E+00 0.  1.
         11    1    1    2    0    0  0.80349926212E+02 -0.48731628485E+00 -0.26936470860E+03  0.28109374657E+03  0.00000000000E+00 0. -1.
</event>
<event>
 7    1  0.2666594E-009  0.9941587E+02  0.7561462E-02  0.1281529E+00
          1   -1    0    0  501    0  0.00000000000E+00  0.00000000000E+00  0.47921683989E+03  0.47921683989E+03  0.00000000000E+00 0. -1.
         -1   -1    0    0    0  501 -0.00000000000E+00 -0.00000000000E+00 -0.33225126600E+02  0.33225126600E+02  0.00000000000E+00 0.  1.
         25    2    1    2    0    0 -0.48109028675E+02  0.14946120724E+02  0.16870611233E+03  0.21597391897E+03  0.12508043881E+03 0.  0.
          5    1    3    3  502    0 -0.69377363674E+02  0.35479152968E+02  0.16896671587E+03  0.18611612600E+03  0.41800000000E+01 0. -1.
         -5    1    3    3    0  502  0.21268334999E+02 -0.20533032243E+02 -0.26060354018E+00  0.29857792969E+02  0.41800000000E+01 0. -1.
        -11    1    1    2    0    0  0.27300293198E+02 -0.46040102650E+02  0.23012928356E+03  0.23627205550E+03  0.00000000000E+00 0. -1.
         11    1    1    2    0    0  0.20808735477E+02  0.31093981925E+02  0.47156317403E+02  0.60195992018E+02  0.00000000000E+00 0.  1.
</event>
<event>
 7    1  0.2666594E-009  0.9889586E+02  0.7561462E-02  0.1282635E+00
         -3   -1    0    0    0  501 -0.00000000000E+00  0.00000000000E+00  0.12361812907E+03  0.12361812907E+03  0.00000000000E+00 0.  1.
          3   -1    0    0  501    0  0.00000000000E+00 -0.00000000000E+00 -0.12528520139E+03  0.12528520139E+03  0.00000000000E+00 0. -1.
         25    2    1    2    0    0 -0.41647220781E+02  0.44142370890E+02  0.11251334288E+02  0.13949175933E+03  0.12509323919E+03 0.  0.
          5    1    3    3  502    0 -0.31011097622E+02  0.78780725254E+02 -0.24684081211E+02  0.88288544628E+02  0.41800000000E+01 0.  1.
         -5    1    3    3    0  502 -0.10636123159E+02 -0.34638354364E+02  0.35935415498E+02  0.51203214703E+02  0.41800000000E+01 0.  1.
        -11    1    1    2    0    0  0.10528957048E+02  0.97292295823E+01 -0.39302046849E+02  0.41835006051E+02  0.00000000000E+00 0. -1.
         11    1    1    2    0    0  0.31118263732E+02 -0.53871600472E+02  0.26383640247E+02  0.67576565079E+02  0.00000000000E+00 0.  1.
</event>
<event>
 7    1  0.2666594E-009  0.1634212E+03  0.7561462E-02  0.1184887E+00
         -3   -1    0    0    0  501 -0.00000000000E+00  0.00000000000E+00  0.26917324216E+03  0.26917324216E+03  0.00000000000E+00 0.  1.
          3   -1    0    0  501    0  0.00000000000E+00 -0.00000000000E+00 -0.23707627554E+03  0.23707627554E+03  0.00000000000E+00 0. -1.
         25    2    1    2    0    0  0.49927668204E+02 -0.10687270047E+03 -0.17631078613E+03  0.24627037443E+03  0.12509619441E+03 0.  0.
          5    1    3    3  502    0  0.49855174937E+02 -0.13474943784E+03 -0.14859301303E+03  0.20673728591E+03  0.41800000000E+01 0. -1.
         -5    1    3    3    0  502  0.72493267261E-01  0.27876737371E+02 -0.27717773107E+02  0.39533088518E+02  0.41800000000E+01 0. -1.
        -11    1    1    2    0    0 -0.58477551496E+02  0.12046149832E+02  0.70298610558E+02  0.92231385120E+02  0.00000000000E+00 0.  1.
         11    1    1    2    0    0  0.85498832916E+01  0.94826550634E+02  0.13810914219E+03  0.16774775815E+03  0.00000000000E+00 0. -1.
</event>
<event>
 7    1  0.2666594E-009  0.1157638E+03  0.7561462E-02  0.1250254E+00
          2   -1    0    0  501    0  0.00000000000E+00  0.00000000000E+00  0.54600199101E+02  0.54600199101E+02  0.00000000000E+00 0. -1.
         -2   -1    0    0    0  501 -0.00000000000E+00 -0.00000000000E+00 -0.34678928905E+03  0.34678928905E+03  0.00000000000E+00 0.  1.
         25    2    1    2    0    0 -0.12337421389E+02  0.32352066961E+02 -0.26139413364E+03  0.29184616904E+03  0.12509366523E+03 0.  0.
          5    1    3    3  502    0 -0.44502510878E+02  0.66460286447E+02 -0.13498171492E+03  0.15695534050E+03  0.41800000000E+01 0.  1.
         -5    1    3    3    0  502  0.32165089489E+02 -0.34108219486E+02 -0.12641241872E+03  0.13489082854E+03  0.41800000000E+01 0.  1.
        -11    1    1    2    0    0  0.55747074844E+02 -0.16266189064E+02 -0.10578368130E+02  0.59027342246E+02  0.00000000000E+00 0. -1.
         11    1    1    2    0    0 -0.43409653455E+02 -0.16085877897E+02 -0.20216588182E+02  0.50515976864E+02  0.00000000000E+00 0.  1.
</event>
<event>
 7    1  0.2666594E-009  0.1110155E+03  0.7561462E-02  0.1258701E+00
          2   -1    0    0  501    0  0.00000000000E+00  0.00000000000E+00  0.31630327484E+03  0.31630327484E+03  0.00000000000E+00 0. -1.
         -2   -1    0    0    0  501 -0.00000000000E+00 -0.00000000000E+00 -0.44536059992E+02  0.44536059992E+02  0.00000000000E+00 0.  1.
         25    2    1    2    0    0 -0.34364072964E+02 -0.97794891635E+01  0.20716020124E+03  0.24462276618E+03  0.12509364826E+03 0.  0.
          5    1    3    3  502    0 -0.21990351237E+02 -0.64973978320E+02  0.80505347622E+02  0.10584789465E+03  0.41800000000E+01 0.  1.
         -5    1    3    3    0  502 -0.12373721727E+02  0.55194489156E+02  0.12665485362E+03  0.13877487153E+03  0.41800000000E+01 0.  1.
        -11    1    1    2    0    0  0.40809482014E+02 -0.33521810714E+02  0.36269185389E+02  0.64066991693E+02  0.00000000000E+00 0. -1.
         11    1    1    2    0    0 -0.64454090499E+01  0.43301299877E+02  0.28337828216E+02  0.52149576957E+02  0.00000000000E+00 0.  1.
</event>
<event>
 7    1  0.2840658E-009  0.1246115E+03  0.7561462E-02  0.1235678E+00
         -1   -1    0    0    0  501 -0.00000000000E+00  0.00000000000E+00  0.73888871979E+02  0.73888871979E+02  0.00000000000E+00 0. -1.
          1   -1    0    0  501    0  0.00000000000E+00 -0.00000000000E+00 -0.30430424641E+03  0.30430424641E+03  0.00000000000E+00 0.  1.
         25    2    1    2    0    0  0.70133885712E+02 -0.74419951123E+02 -0.11391953759E+03  0.19769146612E+03  0.12508862331E+03 0.  0.
          5    1    3    3  502    0 -0.17976517808E+02 -0.49401714960E+02 -0.16818843202E+01  0.52763488971E+02  0.41800000000E+01 0. -1.
         -5    1    3    3    0  502  0.88110403520E+02 -0.25018236164E+02 -0.11223765326E+03  0.14492797715E+03  0.41800000000E+01 0. -1.
        -11    1    1    2    0    0 -0.60688199924E+02  0.50060722126E+02 -0.12934143090E+03  0.15138804199E+03  0.00000000000E+00 0.  1.
         11    1    1    2    0    0 -0.94456857875E+01  0.24359228998E+02  0.12845594052E+02  0.29113610286E+02  0.00000000000E+00 0. -1.
</event>
<event>
 7    1  0.2666594E-009  0.1039445E+03  0.7561462E-02  0.1272213E+00
         -4   -1    0    0    0  501 -0.00000000000E+00  0.00000000000E+00  0.14367454159E+03  0.14367454159E+03  0.00000000000E+00 0. -1.
          4   -1    0    0  501    0  0.00000000000E+00 -0.00000000000E+00 -0.10875398351E+03  0.10875398351E+03  0.00000000000E+00 0.  1.
         25    2    1    2    0    0  0.14884268646E+02  0.54668627764E+02 -0.87847142287E+01  0.13760270107E+03  0.12508849597E+03 0.  0.
          5    1    3    3  502    0  0.15400761079E+02  0.82574637784E+02 -0.42008414398E+02  0.94010284157E+02  0.41800000000E+01 0.  1.
         -5    1    3    3    0  502 -0.51649243243E+00 -0.27906010020E+02  0.33223700169E+02  0.43592416916E+02  0.41800000000E+01 0.  1.
        -11    1    1    2    0    0  0.27733591261E+02 -0.43361758476E+02 -0.17457648908E+01  0.51501862854E+02  0.00000000000E+00 0.  1.
         11    1    1    2    0    0 -0.42617859908E+02 -0.11306869288E+02  0.45451037199E+02  0.63323961173E+02  0.00000000000E+00 0. -1.
</event>
<event>
 7    1  0.2666594E-009  0.9300905E+02  0.7561462E-02  0.1295724E+00
          1   -1    0    0  501    0  0.00000000000E+00  0.00000000000E+00  0.28040438127E+03  0.28040438127E+03  0.00000000000E+00 0. -1.
         -1   -1    0    0    0  501 -0.00000000000E+00 -0.00000000000E+00 -0.52634503269E+02  0.52634503269E+02  0.00000000000E+00 0.  1.
         25    2    1    2    0    0  0.37485719735E+01 -0.51347661921E+02  0.96144472610E+02  0.16595888712E+03  0.12509179999E+03 0.  0.
          5    1    3    3  502    0  0.28151404472E+02 -0.50998781194E+02  0.11881156155E+03  0.13238971566E+03  0.41800000000E+01 0. -1.
         -5    1    3    3    0  502 -0.24402832498E+02 -0.34888072756E+00 -0.22667088935E+02  0.33569171460E+02  0.41800000000E+01 0. -1.
        -11    1    1    2    0    0  0.53969786655E+01  0.76190875641E+02  0.10010429859E+03  0.12591682773E+03  0.00000000000E+00 0.  1.
         11    1    1    2    0    0 -0.91455506390E+01 -0.24843213720E+02  0.31521106806E+02  0.41163169687E+02  0.00000000000E+00 0. -1.
</event>
<event>
 7    1  0.2666594E-009  0.9751715E+02  0.7561462E-02  0.1285605E+00
          4   -1    0    0  501    0  0.00000000000E+00  0.00000000000E+00  0.35025721915E+03  0.35025721915E+03  0.00000000000E+00 0. -1.
         -4   -1    0    0    0  501 -0.00000000000E+00 -0.00000000000E+00 -0.45177939417E+02  0.45177939417E+02  0.00000000000E+00 0.  1.
         25    2    1    2    0    0 -0.14868519402E+02 -0.34114078851E+02  0.26543761092E+03  0.29578156901E+03  0.12507904714E+03 0.  0.
          5    1    3    3  502    0 -0.35403152986E+02  0.23733723606E+02  0.20539640457E+03  0.20981379433E+03  0.41800000000E+01 0.  1.
         -5    1    3    3    0  502  0.20534633584E+02 -0.57847802457E+02  0.60041206345E+02  0.85967774688E+02  0.41800000000E+01 0.  1.
        -11    1    1    2    0    0  0.36467234412E+02 -0.13109763512E+02  0.23285064902E+02  0.45209726083E+02  0.00000000000E+00 0.  1.
         11    1    1    2    0    0 -0.21598715010E+02  0.47223842363E+02  0.16356603908E+02  0.54443863465E+02  0.00000000000E+00 0. -1.
</event>
<event>
 7    1  0.2666594E-009  0.8476523E+02  0.7561462E-02  0.1316048E+00
         -1   -1    0    0    0  501 -0.00000000000E+00  0.00000000000E+00  0.46528609668E+02  0.46528609668E+02  0.00000000000E+00 0.  1.
          1   -1    0    0  501    0  0.00000000000E+00 -0.00000000000E+00 -0.43951603610E+03  0.43951603610E+03  0.00000000000E+00 0. -1.
         25    2    1    2    0    0  0.73737746113E+02 -0.81577673123E+01 -0.30401837919E+03  0.33701358373E+03  0.12508867400E+03 0.  0.
          5    1    3    3  502    0  0.13307570093E+02 -0.19030308169E+02 -0.26067300940E+03  0.26173867555E+03  0.41800000000E+01 0.  1.
         -5    1    3    3    0  502  0.60430176020E+02  0.10872540857E+02 -0.43345369788E+02  0.75274908174E+02  0.41800000000E+01 0.  1.
        -11    1    1    2    0    0 -0.37578283962E+02  0.24345660305E+02 -0.98573206618E+02  0.10826594877E+03  0.00000000000E+00 0. -1.
         11    1    1    2    0    0 -0.36159462151E+02 -0.16187892993E+02  0.96041593701E+01  0.40765113269E+02  0.00000000000E+00 0.  1.
</event>
<event>
 7    1  0.2666594E-009  0.1026429E+03  0.7561462E-02  0.1274834E+00
          1   -1    0    0  501    0  0.00000000000E+00  0.00000000000E+00  0.10650555477E+04  0.10650555477E+04  0.00000000000E+00 0. -1.
         -1   -1    0    0    0  501 -0.00000000000E+00 -0.00000000000E+00 -0.13944566083E+02  0.13944566083E+02  0.00000000000E+00 0.  1.
         25    2    1    2    0    0 -0.37441082551E+02  0.23657132947E+02  0.70296418762E+03  0.71537797829E+03  0.12508200568E+03 0.  0.
          5    1    3    3  502    0  0.55873381291E+00  0.54333564230E+02  0.58640889436E+03  0.58893574536E+03  0.41800000000E+01 0. -1.
         -5    1    3    3    0  502 -0.37999816364E+02 -0.30676431284E+02  0.11655529326E+03  0.12644223293E+03  0.41800000000E+01 0. -1.
        -11    1    1    2    0    0 -0.27539611974E+02  0.90986852333E+01  0.63322232544E+02  0.69648556589E+02  0.00000000000E+00 0.  1.
         11    1    1    2    0    0  0.64980694526E+02 -0.32755818180E+02  0.28482456143E+03  0.29397357888E+03  0.00000000000E+00 0. -1.
</event>
<event>
 7    1  0.2666594E-009  0.1128972E+03  0.7561462E-02  0.1255297E+00
          2   -1    0    0  501    0  0.00000000000E+00  0.00000000000E+00  0.24478046934E+03  0.24478046934E+03  0.00000000000E+00 0. -1.
         -2   -1    0    0    0  501 -0.00000000000E+00 -0.00000000000E+00 -0.66267624392E+02  0.66267624392E+02  0.00000000000E+00 0.  1.
         25    2    1    2    0    0 -0.23616104026E+02  0.50801297474E+02  0.14024756729E+03  0.19610035624E+03  0.12508987726E+03 0.  0.
          5    1    3    3  502    0 -0.34954031594E+02  0.89426009320E+02  0.90950646483E+02  0.13231888740E+03  0.41800000000E+01 0. -1.
         -5    1    3    3    0  502  0.11337927568E+02 -0.38624711845E+02  0.49296920806E+02  0.63781468842E+02  0.41800000000E+01 0. -1.
        -11    1    1    2    0    0  0.38246175052E+01 -0.64840310180E+02 -0.52074735511E+01  0.65161424970E+02  0.00000000000E+00 0.  1.
         11    1    1    2    0    0  0.19791486521E+02  0.14039012706E+02  0.43472751205E+02  0.49786312515E+02  0.00000000000E+00 0. -1.
</event>
<event>
 7    1  0.2666594E-009  0.1036592E+03  0.7561462E-02  0.1272784E+00
         -2   -1    0    0    0  501 -0.00000000000E+00  0.00000000000E+00  0.38706920881E+03  0.38706920881E+03  0.00000000000E+00 0.  1.
          2   -1    0    0  501    0  0.00000000000E+00 -0.00000000000E+00 -0.44045355750E+02  0.44045355750E+02  0.00000000000E+00 0. -1.
         25    2    1    2    0    0 -0.57039592606E+02 -0.45451279278E+02  0.19674616206E+03  0.24428874841E+03  0.12509438998E+03 0.  0.
          5    1    3    3  502    0  0.13587047528E+02  0.68160544072E+01 -0.10639492162E+02  0.19019401980E+02  0.41800000000E+01 0.  1.
         -5    1    3    3    0  502 -0.70626640134E+02 -0.52267333685E+02  0.20738565422E+03  0.22526934643E+03  0.41800000000E+01 0.  1.
        -11    1    1    2    0    0 -0.15924775015E+02  0.21581353696E+02  0.83356925635E+02  0.87565577357E+02  0.00000000000E+00 0.  1.
         11    1    1    2    0    0  0.72964367621E+02  0.23869925582E+02  0.62920765365E+02  0.99260238785E+02  0.00000000000E+00 0. -1.
</event>
<event>
 7    1  0.2666594E-009  0.1108356E+03  0.7561462E-02  0.1259030E+00
          1   -1    0    0  501    0  0.00000000000E+00  0.00000000000E+00  0.15064766364E+04  0.15064766364E+04  0.00000000000E+00 0. -1.
         -1   -1    0    0    0  501 -0.00000000000E+00 -0.00000000000E+00 -0.32942489599E+02  0.32942489599E+02  0.00000000000E+00 0.  1.
         25    2    1    2    0    0 -0.99186231421E+02  0.35974603767E+02  0.13265976070E+04  0.13366537544E+04  0.12509983079E+03 0.  0.
          5    1    3    3  502    0 -0.35151619787E+02  0.11257069348E+02  0.10802432486E+04  0.10808817264E+04  0.41800000000E+01 0. -1.
         -5    1    3    3    0  502 -0.64034611634E+02  0.24717534419E+02  0.24635435838E+03  0.25577202796E+03  0.41800000000E+01 0. -1.
        -11    1    1    2    0    0  0.51015258539E+02 -0.43449899494E+02  0.13771525668E+03  0.15315332935E+03  0.00000000000E+00 0. -1.
         11    1    1    2    0    0  0.48170972882E+02  0.74752957268E+01  0.92212831525E+01  0.49612042264E+02  0.00000000000E+00 0.  1.
</event>
<event>
 7    1  0.2666594E-009  0.7346548E+02  0.7561462E-02  0.1348690E+00
          1   -1    0    0  501    0  0.00000000000E+00  0.00000000000E+00  0.25794398474E+03  0.25794398474E+03  0.00000000000E+00 0. -1.
         -1   -1    0    0    0  501 -0.00000000000E+00 -0.00000000000E+00 -0.46989884836E+02  0.46989884836E+02  0.00000000000E+00 0.  1.
         25    2    1    2    0    0  0.16159991022E+02  0.39018078362E+01  0.16236923754E+03  0.20563906472E+03  0.12508911313E+03 0.  0.
          5    1    3    3  502    0 -0.25141649979E+02  0.19221993113E+02 -0.51844103727E+01  0.32340966185E+02  0.41800000000E+01 0. -1.
         -5    1    3    3    0  502  0.41301641001E+02 -0.15320185277E+02  0.16755364791E+03  0.17329809853E+03  0.41800000000E+01 0. -1.
        -11    1    1    2    0    0 -0.30488922292E+02  0.24390817806E+02  0.54490855267E+02  0.67035361440E+02  0.00000000000E+00 0. -1.
         11    1    1    2    0    0  0.14328931270E+02 -0.28292625642E+02 -0.59059929079E+01  0.32259443413E+02  0.00000000000E+00 0.  1.
</event>
<event>
 7    1  0.2666594E-009  0.9844355E+02  0.7561462E-02  0.1283603E+00
          2   -1    0    0  501    0  0.00000000000E+00  0.00000000000E+00  0.18887975505E+03  0.18887975505E+03  0.00000000000E+00 0. -1.
         -2   -1    0    0    0  501 -0.00000000000E+00 -0.00000000000E+00 -0.58174509822E+02  0.58174509822E+02  0.00000000000E+00 0.  1.
         25    2    1    2    0    0  0.29249114959E+02  0.51812538430E+02  0.10222086074E+03  0.17215438488E+03  0.12509187822E+03 0.  0.
          5    1    3    3  502    0  0.27244841589E+02 -0.34359536881E+02  0.64187175825E+02  0.77848089946E+02  0.41800000000E+01 0.  1.
         -5    1    3    3    0  502  0.20042733702E+01  0.86172075312E+02  0.38033684918E+02  0.94306294931E+02  0.41800000000E+01 0.  1.
        -11    1    1    2    0    0 -0.32296158627E+02 -0.28629779148E+02  0.81696790571E+01  0.43925502525E+02  0.00000000000E+00 0.  1.
         11    1    1    2    0    0  0.30470436686E+01 -0.23182759282E+02  0.20314705431E+02  0.30974377472E+02  0.00000000000E+00 0. -1.
</event>
<event>
 7    1  0.2666594E-009  0.9699825E+02  0.7561462E-02  0.1286738E+00
         -2   -1    0    0    0  501 -0.00000000000E+00  0.00000000000E+00  0.46387577676E+02  0.46387577676E+02  0.00000000000E+00 0.  1.
          2   -1    0    0  501    0  0.00000000000E+00 -0.00000000000E+00 -0.26305865844E+03  0.26305865844E+03  0.00000000000E+00 0. -1.
         25    2    1    2    0    0  0.10526506410E+01  0.41492497873E+01 -0.15856730080E+03  0.20201394770E+03  0.12509085433E+03 0.  0.
          5    1    3    3  502    0 -0.27654960345E+00 -0.58060897355E+02 -0.10383067734E+03  0.11903539910E+03  0.41800000000E+01 0.  1.
         -5    1    3    3    0  502  0.13292002445E+01  0.62210147142E+02 -0.54736623456E+02  0.82978548602E+02  0.41800000000E+01 0.  1.
        -11    1    1    2    0    0  0.31433589585E+02 -0.20016729575E+02 -0.60654817647E+02  0.71188109407E+02  0.00000000000E+00 0. -1.
         11    1    1    2    0    0 -0.32486240226E+02  0.15867479788E+02  0.25510376794E+01  0.36244179010E+02  0.00000000000E+00 0.  1.
</event>
<event>
 7    1  0.2666594E-009  0.1578094E+03  0.7561462E-02  0.1191192E+00
          1   -1    0    0  501    0  0.00000000000E+00  0.00000000000E+00  0.48122702393E+02  0.48122702393E+02  0.00000000000E+00 0. -1.
         -1   -1    0    0    0  501 -0.00000000000E+00 -0.00000000000E+00 -0.75391955892E+03  0.75391955892E+03  0.00000000000E+00 0.  1.
         25    2    1    2    0    0  0.28027859774E+02  0.11863841265E+03 -0.16523188645E+03  0.24043559541E+03  0.12508823030E+03 0.  0.
          5    1    3    3  502    0  0.73983895378E+02  0.88936846067E+02 -0.13479850552E+03  0.17768367639E+03  0.41800000000E+01 0.  1.
         -5    1    3    3    0  502 -0.45956035604E+02  0.29701566579E+02 -0.30433380928E+02  0.62751919018E+02  0.41800000000E+01 0.  1.
        -11    1    1    2    0    0  0.82963471517E+01 -0.10628927700E+03 -0.46242986947E+03  0.47456045343E+03  0.00000000000E+00 0.  1.
         11    1    1    2    0    0 -0.36324206926E+02 -0.12349135643E+02 -0.78135100597E+02  0.87046212469E+02  0.00000000000E+00 0. -1.
</event>
<event>
 7    1  0.2666594E-009  0.1191541E+03  0.7561462E-02  0.1244499E+00
          2   -1    0    0  501    0  0.00000000000E+00  0.00000000000E+00  0.48008208091E+03  0.48008208091E+03  0.00000000000E+00 0.  1.
         -2   -1    0    0    0  501 -0.00000000000E+00 -0.00000000000E+00 -0.31956432112E+02  0.31956432112E+02  0.00000000000E+00 0. -1.
         25    2    1    2    0    0  0.48883682348E+02 -0.75766827928E+01  0.18988872788E+03  0.23270665746E+03  0.12509052294E+03 0.  0.
          5    1    3    3  502    0  0.89951453110E+02  0.83133136045E+00  0.14835837411E+03  0.17355009247E+03  0.41800000000E+01 0.  1.
         -5    1    3    3    0  502 -0.41067770762E+02 -0.84080141532E+01  0.41530353767E+02  0.59156564989E+02  0.41800000000E+01 0.  1.
        -11    1    1    2    0    0  0.44667803579E+01  0.42259671262E+02  0.92312443257E+02  0.10162391019E+03  0.00000000000E+00 0. -1.
         11    1    1    2    0    0 -0.53350462706E+02 -0.34682988469E+02  0.16592447767E+03  0.17770794538E+03  0.00000000000E+00 0.  1.
</event>
<event>
 7    1  0.2666594E-009  0.9526707E+02  0.7561462E-02  0.1290576E+00
         -2   -1    0    0    0  501 -0.00000000000E+00  0.00000000000E+00  0.46239492902E+02  0.46239492902E+02  0.00000000000E+00 0.  1.
          2   -1    0    0  501    0  0.00000000000E+00 -0.00000000000E+00 -0.30295182810E+03  0.30295182810E+03  0.00000000000E+00 0. -1.
         25    2    1    2    0    0 -0.17271325703E+02 -0.29722508412E+01 -0.21000219766E+03  0.24506180022E+03  0.12508888814E+03 0.  0.
          5    1    3    3  502    0  0.38572252361E+02  0.38812569879E+02 -0.73626260805E+02  0.91828823977E+02  0.41800000000E+01 0. -1.
         -5    1    3    3    0  502 -0.55843578064E+02 -0.41784820720E+02 -0.13637593686E+03  0.15323297624E+03  0.41800000000E+01 0. -1.
        -11    1    1    2    0    0  0.35463493825E+02  0.20129090078E+02  0.10142599939E+02  0.42020375953E+02  0.00000000000E+00 0.  1.
         11    1    1    2    0    0 -0.18192168122E+02 -0.17156839237E+02 -0.56852737474E+02  0.62109144833E+02  0.00000000000E+00 0. -1.
</event>
<event>
 7    1  0.2666594E-009  0.2266078E+03  0.7561462E-02  0.1129050E+00
          1   -1    0    0  501    0  0.00000000000E+00  0.00000000000E+00  0.10492203312E+04  0.10492203312E+04  0.00000000000E+00 0. -1.
         -1   -1    0    0    0  501 -0.00000000000E+00 -0.00000000000E+00 -0.50650768746E+02  0.50650768746E+02  0.00000000000E+00 0.  1.
         25    2    1    2    0    0 -0.57343001983E+02  0.19369952305E+03  0.46440529031E+03  0.52165810349E+03  0.12508868120E+03 0.  0.
          5    1    3    3  502    0 -0.87685886772E+02  0.88716678795E+02  0.20298345702E+03  0.23828390642E+03  0.41800000000E+01 0. -1.
         -5    1    3    3    0  502  0.30342884789E+02  0.10498284425E+03  0.26142183328E+03  0.28337419706E+03  0.41800000000E+01 0. -1.
        -11    1    1    2    0    0  0.78639024270E+02 -0.13056035477E+03  0.40789366752E+03  0.43543925682E+03  0.00000000000E+00 0. -1.
         11    1    1    2    0    0 -0.21296022287E+02 -0.63139168283E+02  0.12627060460E+03  0.14277373962E+03  0.00000000000E+00 0.  1.
</event>
<event>
 7    1  0.2666594E-009  0.8828085E+02  0.7561462E-02  0.1307069E+00
          3   -1    0    0  501    0  0.00000000000E+00  0.00000000000E+00  0.48673326969E+02  0.48673326969E+02  0.00000000000E+00 0. -1.
         -3   -1    0    0    0  501 -0.00000000000E+00 -0.00000000000E+00 -0.25191316762E+03  0.25191316762E+03  0.00000000000E+00 0.  1.
         25    2    1    2    0    0 -0.49237955860E+01 -0.13869484811E+02 -0.13886391773E+03  0.18747412956E+03  0.12508699068E+03 0.  0.
          5    1    3    3  502    0  0.50979749860E+00 -0.57091008157E+02 -0.13106677092E+03  0.14302312381E+03  0.41800000000E+01 0. -1.
         -5    1    3    3    0  502 -0.54335930846E+01  0.43221523346E+02 -0.77971468151E+01  0.44451005755E+02  0.41800000000E+01 0. -1.
        -11    1    1    2    0    0 -0.31968576294E+02  0.20629901784E+02  0.64123437116E+00  0.38052515020E+02  0.00000000000E+00 0. -1.
         11    1    1    2    0    0  0.36892371880E+02 -0.67604169725E+01 -0.65017157295E+02  0.75059850009E+02  0.00000000000E+00 0.  1.
</event>
<event>
 7    1  0.2666594E-009  0.1417130E+03  0.7561462E-02  0.1211042E+00
          1   -1    0    0  501    0  0.00000000000E+00  0.00000000000E+00  0.84299885874E+03  0.84299885874E+03  0.00000000000E+00 0. -1.
         -1   -1    0    0    0  501 -0.00000000000E+00 -0.00000000000E+00 -0.27034662983E+02  0.27034662983E+02  0.00000000000E+00 0.  1.
         25    2    1    2    0    0 -0.95734864547E+02  0.27708015731E+02  0.48802383933E+03  0.51356385430E+03  0.12509063217E+03 0.  0.
          5    1    3    3  502    0 -0.11659861943E+03  0.48410803551E+02  0.43290912695E+03  0.45096189257E+03  0.41800000000E+01 0.  1.
         -5    1    3    3    0  502  0.20863754881E+02 -0.20702787819E+02  0.55114712385E+02  0.62601961730E+02  0.41800000000E+01 0.  1.
        -11    1    1    2    0    0  0.45877533297E+02 -0.54160483545E+02  0.25229241532E+03  0.26208694906E+03  0.00000000000E+00 0. -1.
         11    1    1    2    0    0  0.49857331249E+02  0.26452467814E+02  0.75647941102E+02  0.94382718364E+02  0.00000000000E+00 0.  1.
</event>
<event>
 7    1  0.2666594E-009  0.2338303E+03  0.7561462E-02  0.1123973E+00
         -2   -1    0    0    0  501 -0.00000000000E+00  0.00000000000E+00  0.73089566214E+02  0.73089566214E+02  0.00000000000E+00 0.  1.
          2   -1    0    0  501    0  0.00000000000E+00 -0.00000000000E+00 -0.85043140738E+03  0.85043140738E+03  0.00000000000E+00 0. -1.
         25    2    1    2    0    0  0.19665065454E+03 -0.10236441182E+03 -0.33935572992E+03  0.42421701592E+03  0.12509121643E+03 0.  0.
          5    1    3    3  502    0  0.45534870159E+02  0.34576500490E+01 -0.16166069743E+03  0.16803878492E+03  0.41800000000E+01 0.  1.
         -5    1    3    3    0  502  0.15111578438E+03 -0.10582206187E+03 -0.17769503250E+03  0.25617823101E+03  0.41800000000E+01 0.  1.
        -11    1    1    2    0    0 -0.46836883093E+02 -0.12518425372E+02 -0.63202009681E+02  0.79654871913E+02  0.00000000000E+00 0.  1.
         11    1    1    2    0    0 -0.14981377144E+03  0.11488283719E+03 -0.37478410157E+03  0.41964908576E+03  0.00000000000E+00 0. -1.
</event>
<event>
 7    1  0.2666594E-009  0.1132721E+03  0.7561462E-02  0.1254628E+00
          2   -1    0    0  501    0  0.00000000000E+00  0.00000000000E+00  0.33256034661E+03  0.33256034661E+03  0.00000000000E+00 0. -1.
         -2   -1    0    0    0  501 -0.00000000000E+00 -0.00000000000E+00 -0.45199892417E+02  0.45199892417E+02  0.00000000000E+00 0.  1.
         25    2    1    2    0    0  0.36561052831E+02  0.49325448960E+02  0.16410833418E+03  0.21528609614E+03  0.12508735885E+03 0.  0.
          5    1    3    3  502    0 -0.75020532939E+01 -0.38707099626E+02  0.60240712101E+02  0.72117516316E+02  0.41800000000E+01 0. -1.
         -5    1    3    3    0  502  0.44063106125E+02  0.88032548586E+02  0.10386762208E+03  0.14316857982E+03  0.41800000000E+01 0. -1.
        -11    1    1    2    0    0  0.70575970961E+01 -0.43835463973E+02  0.10657605491E+03  0.11545480959E+03  0.00000000000E+00 0. -1.
         11    1    1    2    0    0 -0.43618649927E+02 -0.54899849872E+01  0.16676065113E+02  0.47019333303E+02  0.00000000000E+00 0.  1.
</event>
<event>
 7    1  0.2666594E-009  0.1001325E+03  0.7561462E-02  0.1280018E+00
          4   -1    0    0  501    0  0.00000000000E+00  0.00000000000E+00  0.13752900848E+03  0.13752900848E+03  0.00000000000E+00 0. -1.
         -4   -1    0    0    0  501 -0.00000000000E+00 -0.00000000000E+00 -0.12181194996E+03  0.12181194996E+03  0.00000000000E+00 0.  1.
         25    2    1    2    0    0 -0.33870741496E+02  0.28654223169E+02  0.65338253641E+02  0.14793822960E+03  0.12509332817E+03 0.  0.
          5    1    3    3  502    0 -0.34454343263E+02 -0.45954697280E+02  0.34232699689E+02  0.66994672174E+02  0.41800000000E+01 0.  1.
         -5    1    3    3    0  502  0.58360176712E+00  0.74608920449E+02  0.31105553952E+02  0.80943557423E+02  0.41800000000E+01 0.  1.
        -11    1    1    2    0    0  0.13934237496E+02 -0.41804491484E+02 -0.68163541327E+02  0.81166784149E+02  0.00000000000E+00 0.  1.
         11    1    1    2    0    0  0.19936504000E+02  0.13150268314E+02  0.18542346209E+02  0.30235944692E+02  0.00000000000E+00 0. -1.
</event>
<event>
 7    1  0.2666594E-009  0.4325767E+03  0.7561462E-02  0.1033049E+00
         -1   -1    0    0    0  501 -0.00000000000E+00  0.00000000000E+00  0.13848029167E+04  0.13848029167E+04  0.00000000000E+00 0.  1.
          1   -1    0    0  501    0  0.00000000000E+00 -0.00000000000E+00 -0.21341804884E+03  0.21341804884E+03  0.00000000000E+00 0. -1.
         25    2    1    2    0    0  0.22608562980E+03 -0.36454702307E+03  0.10527385743E+04  0.11436415136E+04  0.12509261281E+03 0.  0.
          5    1    3    3  502    0  0.10047630153E+03 -0.19140707677E+03  0.37422140682E+03  0.43219357923E+03  0.41800000000E+01 0. -1.
         -5    1    3    3    0  502  0.12560932827E+03 -0.17313994630E+03  0.67851716745E+03  0.71144793434E+03  0.41800000000E+01 0. -1.
        -11    1    1    2    0    0 -0.29434665558E+02  0.10686093923E+03  0.45475908198E+01  0.11093394635E+03  0.00000000000E+00 0. -1.
         11    1    1    2    0    0 -0.19665096425E+03  0.25768608384E+03  0.11409870273E+03  0.34364550559E+03  0.00000000000E+00 0.  1.
</event>
<event>
 7    1  0.2666594E-009  0.1032176E+03  0.7561462E-02  0.1273672E+00
          2   -1    0    0  501    0  0.00000000000E+00  0.00000000000E+00  0.12380599430E+04  0.12380599430E+04  0.00000000000E+00 0.  1.
         -2   -1    0    0    0  501 -0.00000000000E+00 -0.00000000000E+00 -0.48691225036E+02  0.48691225036E+02  0.00000000000E+00 0. -1.
         25    2    1    2    0    0  0.78898607976E+02  0.98149979258E+01  0.11503850739E+04  0.11598927112E+04  0.12507581199E+03 0.  0.
          5    1    3    3  502    0 -0.22670566918E+02 -0.89083108414E+00  0.53589327729E+02  0.58344122505E+02  0.41800000000E+01 0. -1.
         -5    1    3    3    0  502  0.10156917489E+03  0.10705829010E+02  0.10967957462E+04  0.11015485887E+04  0.41800000000E+01 0. -1.
        -11    1    1    2    0    0 -0.29549685469E+02  0.42019782511E+01  0.63376882449E+02  0.70053335121E+02  0.00000000000E+00 0.  1.
         11    1    1    2    0    0 -0.49348922507E+02 -0.14016976177E+02 -0.24393238380E+02  0.56805121709E+02  0.00000000000E+00 0. -1.
</event>
<event>
 7    1  0.2666594E-009  0.1208341E+03  0.7561462E-02  0.1241727E+00
         -1   -1    0    0    0  501 -0.00000000000E+00  0.00000000000E+00  0.18637460868E+03  0.18637460868E+03  0.00000000000E+00 0.  1.
          1   -1    0    0  501    0  0.00000000000E+00 -0.00000000000E+00 -0.10405295042E+03  0.10405295042E+03  0.00000000000E+00 0. -1.
         25    2    1    2    0    0 -0.64494734824E+02 -0.63764830754E+02  0.18658463270E+02  0.15563127937E+03  0.12508969745E+03 0.  0.
          5    1    3    3  502    0 -0.16547359154E+02  0.35653084925E+02 -0.11438008277E+02  0.41149216189E+02  0.41800000000E+01 0.  1.
         -5    1    3    3    0  502 -0.47947375671E+02 -0.99417915679E+02  0.30096471547E+02  0.11448206319E+03  0.41800000000E+01 0.  1.
        -11    1    1    2    0    0  0.22358051348E+02  0.13590121930E+02  0.64142401369E+02  0.69273526888E+02  0.00000000000E+00 0.  1.
         11    1    1    2    0    0  0.42136683476E+02  0.50174708824E+02 -0.47920637731E+00  0.65522752832E+02  0.00000000000E+00 0. -1.
</event>
<event>
 7    1  0.2666594E-009  0.7514786E+02  0.7561462E-02  0.1343414E+00
         -2   -1    0    0    0  501 -0.00000000000E+00  0.00000000000E+00  0.20440864436E+02  0.20440864436E+02  0.00000000000E+00 0.  1.
          2   -1    0    0  501    0  0.00000000000E+00 -0.00000000000E+00 -0.68845706810E+03  0.68845706810E+03  0.00000000000E+00 0. -1.
         25    2    1    2    0    0 -0.68314958226E+01  0.41152781049E+02 -0.32083491035E+03  0.34687979639E+03  0.12510128986E+03 0.  0.
          5    1    3    3  502    0  0.41459892941E+01 -0.11360285574E+01  0.10800210273E+02  0.12353004900E+02  0.41800000000E+01 0.  1.
         -5    1    3    3    0  502 -0.10977485117E+02  0.42288809606E+02 -0.33163512062E+03  0.33452679149E+03  0.41800000000E+01 0.  1.
        -11    1    1    2    0    0  0.40081583040E+02  0.81898369146E+01 -0.10638810826E+03  0.11398261405E+03  0.00000000000E+00 0.  1.
         11    1    1    2    0    0 -0.33250087218E+02 -0.49342617963E+02 -0.24079318506E+03  0.24803552209E+03  0.00000000000E+00 0. -1.
</event>
<event>
 7    1  0.2666594E-009  0.7775585E+02  0.7561462E-02  0.1335543E+00
          2   -1    0    0  501    0  0.00000000000E+00  0.00000000000E+00  0.23421041904E+03  0.23421041904E+03  0.00000000000E+00 0. -1.
         -2   -1    0    0    0  501 -0.00000000000E+00 -0.00000000000E+00 -0.58842094535E+02  0.58842094535E+02  0.00000000000E+00 0.  1.
         25    2    1    2    0    0  0.37452867796E+02  0.85280693190E+01  0.10969635782E+03  0.17075108882E+03  0.12508876106E+03 0.  0.
          5    1    3    3  502    0  0.23219146698E+02  0.24602416797E+02  0.13387509604E+03  0.13814637681E+03  0.41800000000E+01 0. -1.
         -5    1    3    3    0  502  0.14233721098E+02 -0.16074347478E+02 -0.24178738224E+02  0.32604712010E+02  0.41800000000E+01 0. -1.
        -11    1    1    2    0    0  0.20927386010E+02  0.24703252005E+02  0.70299137919E+01  0.33130436652E+02  0.00000000000E+00 0. -1.
         11    1    1    2    0    0 -0.58380253806E+02 -0.33231321324E+02  0.58642052892E+02  0.89170988100E+02  0.00000000000E+00 0.  1.
</event>
<event>
 7    1  0.2666594E-009  0.8676242E+02  0.7561462E-02  0.1310887E+00
          2   -1    0    0  501    0  0.00000000000E+00  0.00000000000E+00  0.36570374213E+03  0.36570374213E+03  0.00000000000E+00 0. -1.
         -2   -1    0    0    0  501 -0.00000000000E+00 -0.00000000000E+00 -0.49402861996E+02  0.49402861996E+02  0.00000000000E+00 0.  1.
         25    2    1    2    0    0 -0.24684591531E+02 -0.94975733653E+01  0.66111558788E+02  0.14393399581E+03  0.12508686576E+03 0.  0.
          5    1    3    3  502    0 -0.39480747178E+02 -0.28201228789E+02 -0.21357534890E+02  0.53175703093E+02  0.41800000000E+01 0.  1.
         -5    1    3    3    0  502  0.14796155647E+02  0.18703655423E+02  0.87469093677E+02  0.90758292717E+02  0.41800000000E+01 0.  1.
        -11    1    1    2    0    0 -0.23146673814E+02 -0.30482658946E+02  0.13345752884E+03  0.13883757780E+03  0.00000000000E+00 0. -1.
         11    1    1    2    0    0  0.47831265346E+02  0.39980232311E+02  0.11673179250E+03  0.13233503052E+03  0.00000000000E+00 0.  1.
</event>
<event>
 7    1  0.2666594E-009  0.5761939E+02  0.7561462E-02  0.1408103E+00
          2   -1    0    0  501    0  0.00000000000E+00  0.00000000000E+00  0.20783409511E+03  0.20783409511E+03  0.00000000000E+00 0. -1.
         -2   -1    0    0    0  501 -0.00000000000E+00 -0.00000000000E+00 -0.60791836655E+02  0.60791836655E+02  0.00000000000E+00 0.  1.
         25    2    1    2    0    0  0.12988401020E+02  0.41871419534E+02  0.60629897421E+02  0.14575094561E+03  0.12508173068E+03 0.  0.
          5    1    3    3  502    0 -0.42906062682E+00  0.37510506144E+02 -0.33506431632E+02  0.50471531826E+02  0.41800000000E+01 0. -1.
         -5    1    3    3    0  502  0.13417461647E+02  0.43609133904E+01  0.94136329053E+02  0.95279413780E+02  0.41800000000E+01 0. -1.
        -11    1    1    2    0    0 -0.29289608373E+02 -0.33346953609E+02  0.11656039845E+02  0.45888601401E+02  0.00000000000E+00 0.  1.
         11    1    1    2    0    0  0.16301207353E+02 -0.85244659248E+01  0.74756321191E+02  0.76986384761E+02  0.00000000000E+00 0. -1.
</event>
<event>
 7    1  0.2666594E-009  0.1123917E+03  0.7561462E-02  0.1256204E+00
         -2   -1    0    0    0  501 -0.00000000000E+00  0.00000000000E+00  0.48952485635E+02  0.48952485635E+02  0.00000000000E+00 0.  1.
          2   -1    0    0  501    0  0.00000000000E+00 -0.00000000000E+00 -0.56515574697E+03  0.56515574697E+03  0.00000000000E+00 0. -1.
         25    2    1    2    0    0  0.16258792928E+02 -0.82605609104E+02 -0.10339899746E+03  0.18283232544E+03  0.12509305155E+03 0.  0.
          5    1    3    3  502    0  0.16758098864E+02  0.47098254734E+01 -0.93106113783E+02  0.94811587674E+02  0.41800000000E+01 0.  1.
         -5    1    3    3    0  502 -0.49930593552E+00 -0.87315434577E+02 -0.10292883681E+02  0.88020737763E+02  0.41800000000E+01 0.  1.
        -11    1    1    2    0    0 -0.50696527666E+02  0.58596048622E+02 -0.32269783612E+03  0.33186974594E+03  0.00000000000E+00 0.  1.
         11    1    1    2    0    0  0.34437734737E+02  0.24009560482E+02 -0.90106427743E+02  0.99406161223E+02  0.00000000000E+00 0. -1.
</event>
<event>
 7    1  0.2666594E-009  0.1169483E+03  0.7561462E-02  0.1248218E+00
         -1   -1    0    0    0  501 -0.00000000000E+00  0.00000000000E+00  0.26187173780E+03  0.26187173780E+03  0.00000000000E+00 0.  1.
          1   -1    0    0  501    0  0.00000000000E+00 -0.00000000000E+00 -0.53914887598E+02  0.53914887598E+02  0.00000000000E+00 0. -1.
         25    2    1    2    0    0 -0.46887146966E+02  0.12015960662E+02  0.13188928987E+03  0.18810558961E+03  0.12508453221E+03 0.  0.
          5    1    3    3  502    0  0.18782433948E+02  0.52784704189E+02  0.47287354855E+02  0.73434127968E+02  0.41800000000E+01 0. -1.
         -5    1    3    3    0  502 -0.65669580914E+02 -0.40768743526E+02  0.84601935019E+02  0.11467146164E+03  0.41800000000E+01 0. -1.
        -11    1    1    2    0    0 -0.25435861211E+02 -0.11662070048E+02  0.33920258951E+02  0.43972387707E+02  0.00000000000E+00 0.  1.
         11    1    1    2    0    0  0.72323008176E+02 -0.35389061461E+00  0.42147301379E+02  0.83708648082E+02  0.00000000000E+00 0. -1.
</event>
<event>
 7    1  0.2666594E-009  0.1723377E+03  0.7561462E-02  0.1175432E+00
          1   -1    0    0  501    0  0.00000000000E+00  0.00000000000E+00  0.35766461000E+03  0.35766461000E+03  0.00000000000E+00 0. -1.
         -1   -1    0    0    0  501 -0.00000000000E+00 -0.00000000000E+00 -0.13683679551E+03  0.13683679551E+03  0.00000000000E+00 0.  1.
         25    2    1    2    0    0  0.14489525888E+03  0.30233466640E+02 -0.22678255625E+02  0.19511927222E+03  0.12509407884E+03 0.  0.
          5    1    3    3  502    0  0.62112421075E+02  0.76638752005E+02 -0.90142629964E+01  0.99147266720E+02  0.41800000000E+01 0. -1.
         -5    1    3    3    0  502  0.82782837807E+02 -0.46405285364E+02 -0.13663992628E+02  0.95972005500E+02  0.41800000000E+01 0. -1.
        -11    1    1    2    0    0 -0.47910086086E+02  0.40430606611E+01  0.15945282390E+03  0.16654406545E+03  0.00000000000E+00 0. -1.
         11    1    1    2    0    0 -0.96985172796E+02 -0.34276527301E+02  0.84053246213E+02  0.13283806783E+03  0.00000000000E+00 0.  1.
</event>
<event>
 7    1  0.2666594E-009  0.1395811E+03  0.7561462E-02  0.1213894E+00
          1   -1    0    0  501    0  0.00000000000E+00  0.00000000000E+00  0.54019980644E+03  0.54019980644E+03  0.00000000000E+00 0. -1.
         -1   -1    0    0    0  501 -0.00000000000E+00 -0.00000000000E+00 -0.96875305046E+02  0.96875305046E+02  0.00000000000E+00 0.  1.
         25    2    1    2    0    0  0.92866908919E+02  0.86409027692E+02  0.44793677405E+03  0.48206555545E+03  0.12509621645E+03 0.  0.
          5    1    3    3  502    0  0.22598532867E+01 -0.92824144799E+01 -0.40907332866E+01  0.11201636232E+02  0.41800000000E+01 0.  1.
         -5    1    3    3    0  502  0.90607055632E+02  0.95691442172E+02  0.45202750734E+03  0.47086391922E+03  0.41800000000E+01 0.  1.
        -11    1    1    2    0    0 -0.51814342336E+02 -0.14038199638E+02 -0.37562460238E+02  0.65518970840E+02  0.00000000000E+00 0.  1.
         11    1    1    2    0    0 -0.41052566583E+02 -0.72370828054E+02  0.32950187582E+02  0.89490585192E+02  0.00000000000E+00 0. -1.
</event>
<event>
 7    1  0.2666594E-009  0.1091360E+03  0.7561462E-02  0.1262178E+00
          1   -1    0    0  501    0  0.00000000000E+00  0.00000000000E+00  0.49939479047E+03  0.49939479047E+03  0.00000000000E+00 0. -1.
         -1   -1    0    0    0  501 -0.00000000000E+00 -0.00000000000E+00 -0.26190900396E+02  0.26190900396E+02  0.00000000000E+00 0.  1.
         25    2    1    2    0    0 -0.12907058378E+02 -0.15944964357E+01  0.19235176926E+03  0.22982097271E+03  0.12509732923E+03 0.  0.
          5    1    3    3  502    0 -0.60383912871E+02  0.30956903641E+02  0.10019710441E+03  0.12108459419E+03  0.41800000000E+01 0.  1.
         -5    1    3    3    0  502  0.47476854493E+02 -0.32551400077E+02  0.92154664851E+02  0.10873637852E+03  0.41800000000E+01 0.  1.
        -11    1    1    2    0    0  0.10187533453E+02  0.46489887408E+02  0.15304105373E+03  0.16027058244E+03  0.00000000000E+00 0. -1.
         11    1    1    2    0    0  0.27195249250E+01 -0.44895390973E+02  0.12781106708E+03  0.13549413572E+03  0.00000000000E+00 0.  1.
</event>
<event>
 7    1  0.2666594E-009  0.1651596E+03  0.7561462E-02  0.1182992E+00
         -1   -1    0    0    0  501 -0.00000000000E+00  0.00000000000E+00  0.93938208764E+02  0.93938208764E+02  0.00000000000E+00 0.  1.
          1   -1    0    0  501    0  0.00000000000E+00 -0.00000000000E+00 -0.46858243686E+03  0.46858243686E+03  0.00000000000E+00 0. -1.
         25    2    1    2    0    0  0.91508153928E+02  0.10289406983E+03 -0.40438625337E+02  0.19038140227E+03  0.12509541987E+03 0.  0.
          5    1    3    3  502    0  0.93650635390E+02  0.11917869961E+03 -0.57089486584E+01  0.15173683944E+03  0.41800000000E+01 0. -1.
         -5    1    3    3    0  502 -0.21424814623E+01 -0.16284629784E+02 -0.34729676678E+02  0.38644562828E+02  0.41800000000E+01 0. -1.
        -11    1    1    2    0    0 -0.80754288508E+02 -0.27088259748E+02 -0.14720705338E+03  0.17007335327E+03  0.00000000000E+00 0.  1.
         11    1    1    2    0    0 -0.10753865419E+02 -0.75805810079E+02 -0.18699854938E+03  0.20206589008E+03  0.00000000000E+00 0. -1.
</event>
<event>
 7    1  0.2666594E-009  0.1083522E+03  0.7561462E-02  0.1263652E+00
          2   -1    0    0  501    0  0.00000000000E+00  0.00000000000E+00  0.49903377463E+03  0.49903377463E+03  0.00000000000E+00 0. -1.
         -2   -1    0    0    0  501 -0.00000000000E+00 -0.00000000000E+00 -0.34311157892E+02  0.34311157892E+02  0.00000000000E+00 0.  1.
         25    2    1    2    0    0  0.53770794112E+02 -0.17446249593E+02  0.34838109626E+03  0.37445352471E+03  0.12510149483E+03 0.  0.
          5    1    3    3  502    0  0.70348335284E+02 -0.49945809802E+02  0.30795200888E+03  0.31983649631E+03  0.41800000000E+01 0. -1.
         -5    1    3    3    0  502 -0.16577541173E+02  0.32499560209E+02  0.40429087377E+02  0.54617028400E+02  0.41800000000E+01 0. -1.
        -11    1    1    2    0    0 -0.56160079865E+02 -0.17309980312E+02  0.30415952893E+02  0.66171898713E+02  0.00000000000E+00 0.  1.
         11    1    1    2    0    0  0.23892857538E+01  0.34756229905E+02  0.85925567579E+02  0.92719509098E+02  0.00000000000E+00 0. -1.
</event>
<event>
 7    1  0.2666594E-009  0.1674918E+03  0.7561462E-02  0.1180489E+00
         -2   -1    0    0    0  501 -0.00000000000E+00  0.00000000000E+00  0.15108389254E+02  0.15108389254E+02  0.00000000000E+00 0.  1.
          2   -1    0    0  501    0  0.00000000000E+00 -0.00000000000E+00 -0.26359829017E+04  0.26359829017E+04  0.00000000000E+00 0. -1.
         25    2    1    2    0    0 -0.12408457667E+03  0.48823493889E+02 -0.20739370983E+04  0.20819804468E+04  0.12508707946E+03 0.  0.
          5    1    3    3  502    0 -0.12419829756E+03 -0.80668429764E+01 -0.13038046079E+04  0.13097382254E+04  0.41800000000E+01 0. -1.
         -5    1    3    3    0  502  0.11372089431E+00  0.56890336865E+02 -0.77013249041E+03  0.77224222142E+03  0.41800000000E+01 0. -1.
        -11    1    1    2    0    0  0.11787753095E+03 -0.14774961927E+02 -0.36299662882E+03  0.38194235735E+03  0.00000000000E+00 0.  1.
         11    1    1    2    0    0  0.62070457196E+01 -0.34048531962E+02 -0.18394078536E+03  0.18716848683E+03  0.00000000000E+00 0. -1.
</event>
<event>
 7    1  0.2666594E-009  0.7583234E+02  0.7561462E-02  0.1341313E+00
         -1   -1    0    0    0  501 -0.00000000000E+00  0.00000000000E+00  0.80972825842E+02  0.80972825842E+02  0.00000000000E+00 0.  1.
          1   -1    0    0  501    0  0.00000000000E+00 -0.00000000000E+00 -0.15143242192E+03  0.15143242192E+03  0.00000000000E+00 0. -1.
         25    2    1    2    0    0 -0.56904849349E+01  0.16509043621E+02 -0.31123775596E+02  0.13008414132E+03  0.12509302249E+03 0.  0.
          5    1    3    3  502    0 -0.32220332410E+02 -0.45416368271E+02 -0.20683999088E+00  0.55841843722E+02  0.41800000000E+01 0. -1.
         -5    1    3    3    0  502  0.26529847475E+02  0.61925411892E+02 -0.30916935605E+02  0.74242297595E+02  0.41800000000E+01 0. -1.
        -11    1    1    2    0    0  0.14315544565E+02 -0.91791093653E+01 -0.68740675253E+02  0.70812931722E+02  0.00000000000E+00 0. -1.
         11    1    1    2    0    0 -0.86250596306E+01 -0.73299342559E+01  0.29404854773E+02  0.31508174718E+02  0.00000000000E+00 0.  1.
</event>
<event>
 7    1  0.2666594E-009  0.8549768E+02  0.7561462E-02  0.1314136E+00
          2   -1    0    0  501    0  0.00000000000E+00  0.00000000000E+00  0.10908143468E+02  0.10908143468E+02  0.00000000000E+00 0. -1.
         -2   -1    0    0    0  501 -0.00000000000E+00 -0.00000000000E+00 -0.11510638826E+04  0.11510638826E+04  0.00000000000E+00 0.  1.
         25    2    1    2    0    0  0.89526053711E+01 -0.29393381882E+02 -0.69035993920E+03  0.70227390201E+03  0.12509063814E+03 0.  0.
          5    1    3    3  502    0 -0.29803642196E+02 -0.20464365824E+02 -0.56839844109E+02  0.67492870994E+02  0.41800000000E+01 0.  1.
         -5    1    3    3    0  502  0.38756247567E+02 -0.89290160577E+01 -0.63352009509E+03  0.63478103101E+03  0.41800000000E+01 0.  1.
        -11    1    1    2    0    0 -0.42565357162E+02 -0.90794197786E+01 -0.22491260385E+03  0.22908497302E+03  0.00000000000E+00 0.  1.
         11    1    1    2    0    0  0.33612751791E+02  0.38472801661E+02 -0.22488319606E+03  0.23061315102E+03  0.00000000000E+00 0. -1.
</event>
<event>
 7    1  0.2666594E-009  0.1018115E+03  0.7561462E-02  0.1276532E+00
         -2   -1    0    0    0  501 -0.00000000000E+00  0.00000000000E+00  0.29668487289E+02  0.29668487289E+02  0.00000000000E+00 0.  1.
          2   -1    0    0  501    0  0.00000000000E+00 -0.00000000000E+00 -0.42274203646E+03  0.42274203646E+03  0.00000000000E+00 0. -1.
         25    2    1    2    0    0 -0.21772018235E+02  0.20083917011E+02 -0.22312478684E+03  0.25750599633E+03  0.12508910082E+03 0.  0.
          5    1    3    3  502    0 -0.59404358242E+02  0.50306847936E+02 -0.11394478702E+03  0.13805992763E+03  0.41800000000E+01 0.  1.
         -5    1    3    3    0  502  0.37632340007E+02 -0.30222930925E+02 -0.10917999981E+03  0.11944606870E+03  0.41800000000E+01 0.  1.
        -11    1    1    2    0    0  0.28947731887E+02 -0.43766978235E+02 -0.50178174946E+02  0.72604192759E+02  0.00000000000E+00 0.  1.
         11    1    1    2    0    0 -0.71757136521E+01  0.23683061224E+02 -0.11977058739E+03  0.12230033466E+03  0.00000000000E+00 0. -1.
</event>
<event>
 7    1  0.2666594E-009  0.8245485E+02  0.7561462E-02  0.1322226E+00
         -2   -1    0    0    0  501 -0.00000000000E+00  0.00000000000E+00  0.14709299179E+03  0.14709299179E+03  0.00000000000E+00 0.  1.
          2   -1    0    0  501    0  0.00000000000E+00 -0.00000000000E+00 -0.99506720554E+02  0.99506720554E+02  0.00000000000E+00 0. -1.
         25    2    1    2    0    0 -0.32766190940E+01  0.22506328333E+02  0.76282205735E+02  0.14825758560E+03  0.12507623966E+03 0.  0.
          5    1    3    3  502    0 -0.31343295832E+02  0.28234286742E+02  0.10141678959E+03  0.10992003799E+03  0.41800000000E+01 0.  1.
         -5    1    3    3    0  502  0.28066676738E+02 -0.57279584091E+01 -0.25134583855E+02  0.38337547603E+02  0.41800000000E+01 0.  1.
        -11    1    1    2    0    0 -0.85347966489E+01  0.34403772030E+02 -0.15785631862E+02  0.38802686209E+02  0.00000000000E+00 0. -1.
         11    1    1    2    0    0  0.11811415743E+02 -0.56910100363E+02 -0.12910302641E+02  0.59539440537E+02  0.00000000000E+00 0.  1.
</event>
<event>
 7    1  0.2666594E-009  0.1568284E+03  0.7561462E-02  0.1192325E+00
         -1   -1    0    0    0  501 -0.00000000000E+00  0.00000000000E+00  0.27301221038E+03  0.27301221038E+03  0.00000000000E+00 0.  1.
          1   -1    0    0  501    0  0.00000000000E+00 -0.00000000000E+00 -0.15587933674E+03  0.15587933674E+03  0.00000000000E+00 0. -1.
         25    2    1    2    0    0 -0.88685577259E+02 -0.11730634757E+03 -0.38000820166E+02  0.19676703465E+03  0.12508913942E+03 0.  0.
          5    1    3    3  502    0 -0.83084541168E+02 -0.10746469728E+03 -0.76822748155E+02  0.15611184829E+03  0.41800000000E+01 0. -1.
         -5    1    3    3    0  502 -0.56010360911E+01 -0.98416502899E+01  0.38821927988E+02  0.40655186366E+02  0.41800000000E+01 0. -1.
        -11    1    1    2    0    0  0.37068014892E+02  0.10674475670E+03  0.13418530898E+03  0.17542570495E+03  0.00000000000E+00 0.  1.
         11    1    1    2    0    0  0.51617562367E+02  0.10561590863E+02  0.20948384827E+02  0.56698807511E+02  0.00000000000E+00 0. -1.
</event>
<event>
 7    1  0.2666594E-009  0.9125860E+02  0.7561462E-02  0.1299832E+00
         -2   -1    0    0    0  501 -0.00000000000E+00  0.00000000000E+00  0.40243708826E+02  0.40243708826E+02  0.00000000000E+00 0.  1.
          2   -1    0    0  501    0  0.00000000000E+00 -0.00000000000E+00 -0.38291515384E+03  0.38291515384E+03  0.00000000000E+00 0. -1.
         25    2    1    2    0    0  0.55217637237E+02  0.33832637910E+02 -0.18976429826E+03  0.23632884302E+03  0.12508876169E+03 0.  0.
          5    1    3    3  502    0  0.19428633015E+02 -0.27405691318E+02 -0.16497621433E+00  0.33853261506E+02  0.41800000000E+01 0.  1.
         -5    1    3    3    0  502  0.35789004222E+02  0.61238329227E+02 -0.18959932205E+03  0.20247558152E+03  0.41800000000E+01 0.  1.
        -11    1    1    2    0    0 -0.49325285110E+02 -0.66187805984E+01 -0.15092092242E+03  0.15891480998E+03  0.00000000000E+00 0. -1.
         11    1    1    2    0    0 -0.58923521273E+01 -0.27213857311E+02 -0.19862243336E+01  0.27915209662E+02  0.00000000000E+00 0.  1.
</event>
<event>
 7    1  0.2666594E-009  0.1249331E+03  0.7561462E-02  0.1235174E+00
          2   -1    0    0  501    0  0.00000000000E+00  0.00000000000E+00  0.13111476681E+04  0.13111476681E+04  0.00000000000E+00 0. -1.
         -2   -1    0    0    0  501 -0.00000000000E+00 -0.00000000000E+00 -0.15803388951E+02  0.15803388951E+02  0.00000000000E+00 0.  1.
         25    2    1    2    0    0 -0.60654638648E+02 -0.41044530162E+02  0.97265129891E+03  0.98339291823E+03  0.12508974264E+03 0.  0.
          5    1    3    3  502    0 -0.38052356298E+02 -0.82295619559E+02  0.48175127360E+03  0.49022679734E+03  0.41800000000E+01 0.  1.
         -5    1    3    3    0  502 -0.22602282350E+02  0.41251089397E+02  0.49090002531E+03  0.49316612089E+03  0.41800000000E+01 0.  1.
        -11    1    1    2    0    0  0.75232187628E+02  0.53816094461E+02  0.29881772068E+03  0.31280678424E+03  0.00000000000E+00 0. -1.
         11    1    1    2    0    0 -0.14577548979E+02 -0.12771564299E+02  0.23875259558E+02  0.30751354569E+02  0.00000000000E+00 0.  1.
</event>
<event>
 7    1  0.2666594E-009  0.3241680E+03  0.7561462E-02  0.1073747E+00
          2   -1    0    0  501    0  0.00000000000E+00  0.00000000000E+00  0.68929734304E+03  0.68929734304E+03  0.00000000000E+00 0. -1.
         -2   -1    0    0    0  501 -0.00000000000E+00 -0.00000000000E+00 -0.16049666020E+03  0.16049666020E+03  0.00000000000E+00 0.  1.
         25    2    1    2    0    0 -0.15592866791E+03 -0.26402992131E+03  0.18943079235E+03  0.38152179972E+03  0.12509720120E+03 0.  0.
          5    1    3    3  502    0 -0.13804617849E+02 -0.12905897577E+03  0.42894719116E+02  0.13676335777E+03  0.41800000000E+01 0.  1.
         -5    1    3    3    0  502 -0.14212405006E+03 -0.13497094553E+03  0.14653607323E+03  0.24475844194E+03  0.41800000000E+01 0.  1.
        -11    1    1    2    0    0  0.15460865023E+03  0.17550354469E+03  0.23821414275E+03  0.33384323676E+03  0.00000000000E+00 0.  1.
         11    1    1    2    0    0  0.13200176811E+01  0.88526376615E+02  0.10115574774E+03  0.13442896676E+03  0.00000000000E+00 0. -1.
</event>
<event>
 7    1  0.2666594E-009  0.2368554E+03  0.7561462E-02  0.1121906E+00
         -2   -1    0    0    0  501 -0.00000000000E+00  0.00000000000E+00  0.10406962627E+03  0.10406962627E+03  0.00000000000E+00 0.  1.
          2   -1    0    0  501    0  0.00000000000E+00 -0.00000000000E+00 -0.68396060387E+03  0.68396060387E+03  0.00000000000E+00 0. -1.
         25    2    1    2    0    0 -0.18975510823E+03  0.10464154532E+03 -0.13480762825E+03  0.28421358137E+03  0.12508960426E+03 0.  0.
          5    1    3    3  502    0 -0.29686976573E+02 -0.20116792178E+02 -0.55654883116E+02  0.66339583359E+02  0.41800000000E+01 0.  1.
         -5    1    3    3    0  502 -0.16006813165E+03  0.12475833750E+03 -0.79152745137E+02  0.21787399801E+03  0.41800000000E+01 0.  1.
        -11    1    1    2    0    0  0.17585441327E+03 -0.56800609548E+02 -0.37192175718E+03  0.41530335585E+03  0.00000000000E+00 0.  1.
         11    1    1    2    0    0  0.13900694954E+02 -0.47840935774E+02 -0.73161592161E+02  0.88513292919E+02  0.00000000000E+00 0. -1.
</event>
<event>
 7    1  0.2666594E-009  0.9100641E+02  0.7561462E-02  0.1300433E+00
          2   -1    0    0  501    0  0.00000000000E+00  0.00000000000E+00  0.10738730842E+03  0.10738730842E+03  0.00000000000E+00 0. -1.
         -2   -1    0    0    0  501 -0.00000000000E+00 -0.00000000000E+00 -0.14685371403E+03  0.14685371403E+03  0.00000000000E+00 0.  1.
         25    2    1    2    0    0 -0.16970297580E+02 -0.63332119733E+01 -0.83239066495E+02  0.15134051076E+03  0.12508839847E+03 0.  0.
          5    1    3    3  502    0  0.40609602863E+02 -0.80640869402E+01 -0.83818962647E+02  0.93580234249E+02  0.41800000000E+01 0. -1.
         -5    1    3    3    0  502 -0.57579900443E+02  0.17308749669E+01  0.57989615186E+00  0.57760276512E+02  0.41800000000E+01 0. -1.
        -11    1    1    2    0    0  0.42608407078E+01  0.43322015817E+02  0.46497452381E+02  0.63694308191E+02  0.00000000000E+00 0. -1.
         11    1    1    2    0    0  0.12709456872E+02 -0.36988803844E+02 -0.27247914895E+01  0.39206203494E+02  0.00000000000E+00 0.  1.
</event>
<event>
 7    1  0.2666594E-009  0.9306605E+02  0.7561462E-02  0.1295592E+00
          1   -1    0    0  501    0  0.00000000000E+00  0.00000000000E+00  0.24897473739E+03  0.24897473739E+03  0.00000000000E+00 0. -1.
         -1   -1    0    0    0  501 -0.00000000000E+00 -0.00000000000E+00 -0.63733506905E+02  0.63733506905E+02  0.00000000000E+00 0.  1.
         25    2    1    2    0    0 -0.17851775058E+02 -0.64920963113E+02  0.10438090066E+03  0.17628813161E+03  0.12509482643E+03 0.  0.
          5    1    3    3  502    0  0.28965799365E+02 -0.16561362899E+02 -0.16811873671E+02  0.37595315801E+02  0.41800000000E+01 0. -1.
         -5    1    3    3    0  502 -0.46817574422E+02 -0.48359600214E+02  0.12119277433E+03  0.13869281581E+03  0.41800000000E+01 0. -1.
        -11    1    1    2    0    0  0.18067865180E+02 -0.19700110133E+01  0.65246579819E+02  0.67730678969E+02  0.00000000000E+00 0. -1.
         11    1    1    2    0    0 -0.21609012244E+00  0.66890974126E+02  0.15613750006E+02  0.68689433712E+02  0.00000000000E+00 0.  1.
</event>
<event>
 7    1  0.2666594E-009  0.1160536E+03  0.7561462E-02  0.1249753E+00
          2   -1    0    0  501    0  0.00000000000E+00  0.00000000000E+00  0.52980438954E+03  0.52980438954E+03  0.00000000000E+00 0. -1.
         -2   -1    0    0    0  501 -0.00000000000E+00 -0.00000000000E+00 -0.41804073864E+02  0.41804073864E+02  0.00000000000E+00 0.  1.
         25    2    1    2    0    0 -0.81899621253E+02 -0.48471064964E+02  0.19648357817E+03  0.25161653964E+03  0.12509234360E+03 0.  0.
          5    1    3    3  502    0 -0.35198601980E+01 -0.41812095635E+02  0.15878244082E+03  0.16428626440E+03  0.41800000000E+01 0.  1.
         -5    1    3    3    0  502 -0.78379761055E+02 -0.66589693284E+01  0.37701137350E+02  0.87330275237E+02  0.41800000000E+01 0.  1.
        -11    1    1    2    0    0 -0.88982214853E+01  0.71185532883E+01 -0.49521276802E+00  0.11406023944E+02  0.00000000000E+00 0.  1.
         11    1    1    2    0    0  0.90797842738E+02  0.41352511675E+02  0.29201195027E+03  0.30858589982E+03  0.00000000000E+00 0. -1.
</event>
<event>
 7    1  0.2666594E-009  0.1302040E+03  0.7561462E-02  0.1227153E+00
          1   -1    0    0  501    0  0.00000000000E+00  0.00000000000E+00  0.18382515145E+03  0.18382515145E+03  0.00000000000E+00 0.  1.
         -1   -1    0    0    0  501 -0.00000000000E+00 -0.00000000000E+00 -0.15908612519E+03  0.15908612519E+03  0.00000000000E+00 0. -1.
         25    2    1    2    0    0 -0.39445328255E+02  0.11876898652E+03 -0.30024257093E+02  0.17947239192E+03  0.12508747887E+03 0.  0.
          5    1    3    3  502    0 -0.66015671279E+01  0.90442743941E+02  0.38225675356E+02  0.98499468407E+02  0.41800000000E+01 0. -1.
         -5    1    3    3    0  502 -0.32843761127E+02  0.28326242577E+02 -0.68249932449E+02  0.80972923517E+02  0.41800000000E+01 0. -1.
        -11    1    1    2    0    0  0.55526024212E+01 -0.38882941243E+02  0.65116319227E+02  0.76045049431E+02  0.00000000000E+00 0.  1.
         11    1    1    2    0    0  0.33892725834E+02 -0.79886045275E+02 -0.10353035874E+02  0.87393835285E+02  0.00000000000E+00 0. -1.
</event>
<event>
 7    1  0.2666594E-009  0.8105387E+02  0.7561462E-02  0.1326087E+00
         -4   -1    0    0    0  501 -0.00000000000E+00  0.00000000000E+00  0.66749090980E+02  0.66749090980E+02  0.00000000000E+00 0.  1.
          4   -1    0    0  501    0  0.00000000000E+00 -0.00000000000E+00 -0.26086301397E+03  0.26086301397E+03  0.00000000000E+00 0. -1.
         25    2    1    2    0    0  0.63387914559E+02 -0.24256634808E+02 -0.39419626324E+02  0.14767565087E+03  0.12509108232E+03 0.  0.
          5    1    3    3  502    0  0.63245812825E+02 -0.23767197687E+02 -0.81181754328E+02  0.10570176045E+03  0.41800000000E+01 0.  1.
         -5    1    3    3    0  502  0.14210173461E+00 -0.48943712061E+00  0.41762128004E+02  0.41973890420E+02  0.41800000000E+01 0.  1.
        -11    1    1    2    0    0 -0.16193510387E+02  0.37784623778E+02 -0.87924396028E+02  0.97059811403E+02  0.00000000000E+00 0.  1.
         11    1    1    2    0    0 -0.47194404172E+02 -0.13527988970E+02 -0.66769900637E+02  0.82876642679E+02  0.00000000000E+00 0. -1.
</event>
<event>
 7    1  0.2666594E-009  0.1292661E+03  0.7561462E-02  0.1228549E+00
          2   -1    0    0  501    0  0.00000000000E+00  0.00000000000E+00  0.62078839497E+03  0.62078839497E+03  0.00000000000E+00 0. -1.
         -2   -1    0    0    0  501 -0.00000000000E+00 -0.00000000000E+00 -0.31653831482E+02  0.31653831482E+02  0.00000000000E+00 0.  1.
         25    2    1    2    0    0  0.73344030378E+02 -0.46045790183E+02  0.34800277162E+03  0.37980401779E+03  0.12508237800E+03 0.  0.
          5    1    3    3  502    0  0.59793053094E+02  0.35129777793E+02  0.14827966989E+03  0.16374872026E+03  0.41800000000E+01 0.  1.
         -5    1    3    3    0  502  0.13550977285E+02 -0.81175567976E+02  0.19972310173E+03  0.21605529752E+03  0.41800000000E+01 0.  1.
        -11    1    1    2    0    0 -0.46070959024E+02 -0.73890535877E+01  0.36056089203E+02  0.58967558428E+02  0.00000000000E+00 0.  1.
         11    1    1    2    0    0 -0.27273071355E+02  0.53434843771E+02  0.20507570266E+03  0.21367065023E+03  0.00000000000E+00 0. -1.
</event>
<event>
 7    1  0.2666594E-009  0.1272583E+03  0.7561462E-02  0.1231582E+00
         -2   -1    0    0    0  501 -0.00000000000E+00  0.00000000000E+00  0.35553226380E+02  0.35553226380E+02  0.00000000000E+00 0.  1.
          2   -1    0    0  501    0  0.00000000000E+00 -0.00000000000E+00 -0.72000578860E+03  0.72000578860E+03  0.00000000000E+00 0. -1.
         25    2    1    2    0    0  0.96934871369E+02 -0.51366754165E+02 -0.45515299570E+03  0.48461088811E+03  0.12509416718E+03 0.  0.
          5    1    3    3  502    0 -0.46711395177E+01  0.13339283019E+02 -0.21882128682E+03  0.21931708548E+03  0.41800000000E+01 0.  1.
         -5    1    3    3    0  502  0.10160601089E+03 -0.64706037184E+02 -0.23633170888E+03  0.26529380264E+03  0.41800000000E+01 0.  1.
        -11    1    1    2    0    0 -0.95230441202E+02  0.32979743451E+02 -0.23137060239E+03  0.25236651137E+03  0.00000000000E+00 0. -1.
         11    1    1    2    0    0 -0.17044301669E+01  0.18387010714E+02  0.20710358634E+01  0.18581615504E+02  0.00000000000E+00 0.  1.
</event>
<event>
 7    1  0.2666594E-009  0.1210061E+03  0.7561462E-02  0.1241446E+00
          1   -1    0    0  501    0  0.00000000000E+00  0.00000000000E+00  0.74136889798E+03  0.74136889798E+03  0.00000000000E+00 0. -1.
         -1   -1    0    0    0  501 -0.00000000000E+00 -0.00000000000E+00 -0.26468010939E+02  0.26468010939E+02  0.00000000000E+00 0.  1.
         25    2    1    2    0    0 -0.62056234221E+02  0.12294686410E+02  0.21813752469E+03  0.25929496931E+03  0.12509103049E+03 0.  0.
          5    1    3    3  502    0 -0.57548858573E+02 -0.47552543860E+02  0.85065766619E+02  0.11325534248E+03  0.41800000000E+01 0.  1.
         -5    1    3    3    0  502 -0.45073756475E+01  0.59847230270E+02  0.13307175807E+03  0.14603962683E+03  0.41800000000E+01 0.  1.
        -11    1    1    2    0    0  0.11605958303E+02  0.35643891719E+02  0.13302899125E+03  0.13820961543E+03  0.00000000000E+00 0.  1.
         11    1    1    2    0    0  0.50450275917E+02 -0.47938578129E+02  0.36373437110E+03  0.37033232418E+03  0.00000000000E+00 0. -1.
</event>
<event>
 7    1  0.2666594E-009  0.1247423E+03  0.7561462E-02  0.1235473E+00
         -1   -1    0    0    0  501 -0.00000000000E+00  0.00000000000E+00  0.30705057250E+02  0.30705057250E+02  0.00000000000E+00 0.  1.
          1   -1    0    0  501    0  0.00000000000E+00 -0.00000000000E+00 -0.67509918133E+03  0.67509918133E+03  0.00000000000E+00 0. -1.
         25    2    1    2    0    0 -0.59158236016E+02  0.12040580787E+02 -0.17517743705E+03  0.22356101904E+03  0.12509085621E+03 0.  0.
          5    1    3    3  502    0 -0.80701783512E+02  0.49831459399E+02 -0.12616155867E+03  0.15789288614E+03  0.41800000000E+01 0. -1.
         -5    1    3    3    0  502  0.21543547497E+02 -0.37790878612E+02 -0.49015878380E+02  0.65668132899E+02  0.41800000000E+01 0. -1.
        -11    1    1    2    0    0  0.39911724062E+02  0.39301469514E+02 -0.25956069418E+03  0.26553588305E+03  0.00000000000E+00 0. -1.
         11    1    1    2    0    0  0.19246511953E+02 -0.51342050301E+02 -0.20965599284E+03  0.21670733648E+03  0.00000000000E+00 0.  1.
</event>
<event>
 7    1  0.2666594E-009  0.9349425E+02  0.7561462E-02  0.1294604E+00
         -2   -1    0    0    0  501 -0.00000000000E+00  0.00000000000E+00  0.17752852389E+03  0.17752852389E+03  0.00000000000E+00 0.  1.
          2   -1    0    0  501    0  0.00000000000E+00 -0.00000000000E+00 -0.61662097303E+02  0.61662097303E+02  0.00000000000E+00 0. -1.
         25    2    1    2    0    0  0.76100492449E+01 -0.14750379115E+02  0.54233316399E+02  0.13734549113E+03  0.12508814808E+03 0.  0.
          5    1    3    3  502    0 -0.47154782584E+02 -0.20819574780E+02 -0.99372296569E+01  0.52661647788E+02  0.41800000000E+01 0.  1.
         -5    1    3    3    0  502  0.54764831829E+02  0.60691956651E+01  0.64170546056E+02  0.84683843337E+02  0.41800000000E+01 0.  1.
        -11    1    1    2    0    0 -0.41580941977E+02  0.19115389544E+02  0.26994503799E+02  0.53132627343E+02  0.00000000000E+00 0.  1.
         11    1    1    2    0    0  0.33970892732E+02 -0.43650104290E+01  0.34638606389E+02  0.48712502724E+02  0.00000000000E+00 0. -1.
</event>
<event>
 7    1  0.2666594E-009  0.1267128E+03  0.7561462E-02  0.1232417E+00
          1   -1    0    0  501    0  0.00000000000E+00  0.00000000000E+00  0.14319210435E+03  0.14319210435E+03  0.00000000000E+00 0. -1.
         -1   -1    0    0    0  501 -0.00000000000E+00 -0.00000000000E+00 -0.13342816419E+03  0.13342816419E+03  0.00000000000E+00 0.  1.
         25    2    1    2    0    0 -0.65816473986E+02  0.15343368263E+02 -0.47475874077E+02  0.14989271730E+03  0.12508653357E+03 0.  0.
          5    1    3    3  502    0 -0.54342386649E+01 -0.50782461797E+02 -0.76934638711E+01  0.51817479313E+02  0.41800000000E+01 0.  1.
         -5    1    3    3    0  502 -0.60382235321E+02  0.66125830060E+02 -0.39782410206E+02  0.98075237982E+02  0.41800000000E+01 0.  1.
        -11    1    1    2    0    0  0.25617865874E+02  0.37947935984E+02  0.29336157536E+02  0.54377670383E+02  0.00000000000E+00 0.  1.
         11    1    1    2    0    0  0.40198608112E+02 -0.53291304247E+02  0.27903656707E+02  0.72349880858E+02  0.00000000000E+00 0. -1.
</event>
<event>
 7    1  0.2666594E-009  0.6920429E+02  0.7561462E-02  0.1362820E+00
         -1   -1    0    0    0  501 -0.00000000000E+00  0.00000000000E+00  0.56598493143E+02  0.56598493143E+02  0.00000000000E+00 0.  1.
          1   -1    0    0  501    0  0.00000000000E+00 -0.00000000000E+00 -0.23388919491E+03  0.23388919491E+03  0.00000000000E+00 0. -1.
         25    2    1    2    0    0 -0.91873706133E+01  0.37561877977E+02 -0.98207446880E+02  0.16366215186E+03  0.12508115315E+03 0.  0.
          5    1    3    3  502    0  0.12604493329E+02  0.22639541195E+01 -0.11711149395E+03  0.11788372727E+03  0.41800000000E+01 0.  1.
         -5    1    3    3    0  502 -0.21791863943E+02  0.35297923858E+02  0.18904047069E+02  0.45778424594E+02  0.41800000000E+01 0.  1.
        -11    1    1    2    0    0 -0.15965201452E+02 -0.51894610763E+02 -0.14725411096E+02  0.56256342003E+02  0.00000000000E+00 0. -1.
         11    1    1    2    0    0  0.25152572066E+02  0.14332732785E+02 -0.64357843792E+02  0.70569194187E+02  0.00000000000E+00 0.  1.
</event>
<event>
 7    1  0.2666594E-009  0.1081117E+03  0.7561462E-02  0.1264107E+00
         -2   -1    0    0    0  501 -0.00000000000E+00  0.00000000000E+00  0.24718870309E+02  0.24718870309E+02  0.00000000000E+00 0. -1.
          2   -1    0    0  501    0  0.00000000000E+00 -0.00000000000E+00 -0.97819657127E+03  0.97819657127E+03  0.00000000000E+00 0.  1.
         25    2    1    2    0    0 -0.21394000214E+02  0.89236040175E+02 -0.30530980590E+03  0.34246416129E+03  0.12508736978E+03 0.  0.
          5    1    3    3  502    0  0.47518926902E+01  0.48685207682E+02 -0.28623242138E+03  0.29041229550E+03  0.41800000000E+01 0. -1.
         -5    1    3    3    0  502 -0.26145892905E+02  0.40550832493E+02 -0.19077384521E+02  0.52051865786E+02  0.41800000000E+01 0. -1.
        -11    1    1    2    0    0 -0.14529118896E+02  0.68896864590E+01 -0.32176600579E+02  0.35970775641E+02  0.00000000000E+00 0.  1.
         11    1    1    2    0    0  0.35923119110E+02 -0.96125726634E+02 -0.61599129449E+03  0.62448050465E+03  0.00000000000E+00 0. -1.
</event>
<event>
 7    1  0.2666594E-009  0.8756220E+02  0.7561462E-02  0.1308865E+00
          4   -1    0    0  501    0  0.00000000000E+00  0.00000000000E+00  0.46564036212E+02  0.46564036212E+02  0.00000000000E+00 0. -1.
         -4   -1    0    0    0  501 -0.00000000000E+00 -0.00000000000E+00 -0.31539137026E+03  0.31539137026E+03  0.00000000000E+00 0.  1.
         25    2    1    2    0    0  0.73871356054E+01  0.53779812324E+02 -0.14321082453E+03  0.19774587397E+03  0.12508897802E+03 0.  0.
          5    1    3    3  502    0 -0.22822103919E+02  0.45868033322E+02 -0.15561547583E+03  0.16388524530E+03  0.41800000000E+01 0. -1.
         -5    1    3    3    0  502  0.30209239524E+02  0.79117790018E+01  0.12404651305E+02  0.33860628665E+02  0.41800000000E+01 0. -1.
        -11    1    1    2    0    0  0.24061960260E+02  0.58836677298E+01 -0.77494592886E+02  0.81357282428E+02  0.00000000000E+00 0.  1.
         11    1    1    2    0    0 -0.31449095866E+02 -0.59663480054E+02 -0.48121916636E+02  0.82852250082E+02  0.00000000000E+00 0. -1.
</event>
<event>
 7    1  0.2666594E-009  0.9871736E+02  0.7561462E-02  0.1283017E+00
         -1   -1    0    0    0  501 -0.00000000000E+00  0.00000000000E+00  0.33423885288E+02  0.33423885288E+02  0.00000000000E+00 0.  1.
          1   -1    0    0  501    0  0.00000000000E+00 -0.00000000000E+00 -0.35396606929E+03  0.35396606929E+03  0.00000000000E+00 0. -1.
         25    2    1    2    0    0 -0.36092833038E+02  0.54739892663E+01 -0.17124358385E+03  0.21518616172E+03  0.12509221412E+03 0.  0.
          5    1    3    3  502    0 -0.79608534583E+02 -0.70754089259E+01 -0.13537635328E+03  0.15726350377E+03  0.41800000000E+01 0. -1.
         -5    1    3    3    0  502  0.43515701545E+02  0.12549398192E+02 -0.35867230570E+02  0.57922657956E+02  0.41800000000E+01 0. -1.
        -11    1    1    2    0    0 -0.17248315098E+02 -0.68598815377E+01 -0.92214513028E+02  0.94064226789E+02  0.00000000000E+00 0. -1.
         11    1    1    2    0    0  0.53341148136E+02  0.13858922714E+01 -0.57084087120E+02  0.78139566061E+02  0.00000000000E+00 0.  1.
</event>
<event>
 7    1  0.2666594E-009  0.1229421E+03  0.7561462E-02  0.1238321E+00
          2   -1    0    0  501    0  0.00000000000E+00  0.00000000000E+00  0.10843111412E+03  0.10843111412E+03  0.00000000000E+00 0. -1.
         -2   -1    0    0    0  501 -0.00000000000E+00 -0.00000000000E+00 -0.22900006548E+03  0.22900006548E+03  0.00000000000E+00 0.  1.
         25    2    1    2    0    0  0.91269721549E+02  0.53249797261E+02 -0.19749631355E+02  0.16493383047E+03  0.12508963792E+03 0.  0.
          5    1    3    3  502    0  0.16105309433E+02  0.10604609874E+02 -0.64553066430E+02  0.67501181679E+02  0.41800000000E+01 0.  1.
         -5    1    3    3    0  502  0.75164412115E+02  0.42645187387E+02  0.44803435075E+02  0.97432648791E+02  0.41800000000E+01 0.  1.
        -11    1    1    2    0    0 -0.10616952331E+03 -0.27160547193E+02 -0.83891687517E+02  0.13801260174E+03  0.00000000000E+00 0. -1.
         11    1    1    2    0    0  0.14899801760E+02 -0.26089250067E+02 -0.16927632485E+02  0.34484747398E+02  0.00000000000E+00 0.  1.
</event>
<event>
 7    1  0.2666594E-009  0.1759559E+03  0.7561462E-02  0.1171775E+00
          4   -1    0    0  501    0  0.00000000000E+00  0.00000000000E+00  0.42765521615E+03  0.42765521615E+03  0.00000000000E+00 0. -1.
         -4   -1    0    0    0  501 -0.00000000000E+00 -0.00000000000E+00 -0.86542759785E+02  0.86542759785E+02  0.00000000000E+00 0.  1.
         25    2    1    2    0    0 -0.12364209541E+03  0.83060303218E+02  0.10773763661E+03  0.22235593075E+03  0.12509348452E+03 0.  0.
          5    1    3    3  502    0 -0.11602866718E+03  0.12513987034E+02  0.38062891718E+02  0.12282307440E+03  0.41800000000E+01 0. -1.
         -5    1    3    3    0  502 -0.76134282263E+01  0.70546316185E+02  0.69674744893E+02  0.99532856346E+02  0.41800000000E+01 0. -1.
        -11    1    1    2    0    0  0.49291119317E+02  0.41364416087E+01  0.28473224700E+02  0.57074066944E+02  0.00000000000E+00 0.  1.
         11    1    1    2    0    0  0.74350976090E+02 -0.87196744827E+02  0.20490159505E+03  0.23476797824E+03  0.00000000000E+00 0. -1.
</event>
<event>
 7    1  0.2666594E-009  0.1255588E+03  0.7561462E-02  0.1234199E+00
          1   -1    0    0  501    0  0.00000000000E+00  0.00000000000E+00  0.22647916514E+02  0.22647916514E+02  0.00000000000E+00 0. -1.
         -1   -1    0    0    0  501 -0.00000000000E+00 -0.00000000000E+00 -0.74025602660E+03  0.74025602660E+03  0.00000000000E+00 0.  1.
         25    2    1    2    0    0 -0.58626118243E+02 -0.38685758278E+02 -0.37153807739E+03  0.39827350401E+03  0.12509049290E+03 0.  0.
          5    1    3    3  502    0 -0.36354275467E+02  0.44093241383E+02 -0.13555573655E+03  0.14716887372E+03  0.41800000000E+01 0. -1.
         -5    1    3    3    0  502 -0.22271842776E+02 -0.82778999661E+02 -0.23598234084E+03  0.25110463029E+03  0.41800000000E+01 0. -1.
        -11    1    1    2    0    0  0.23711998243E+02 -0.25564789681E+02 -0.17735812517E+03  0.18075320715E+03  0.00000000000E+00 0.  1.
         11    1    1    2    0    0  0.34914120000E+02  0.64250547958E+02 -0.16871190753E+03  0.18387723195E+03  0.00000000000E+00 0. -1.
</event>
<event>
 7    1  0.2666594E-009  0.1375588E+03  0.7561462E-02  0.1216652E+00
         -2   -1    0    0    0  501 -0.00000000000E+00  0.00000000000E+00  0.21548425863E+03  0.21548425863E+03  0.00000000000E+00 0.  1.
          2   -1    0    0  501    0  0.00000000000E+00 -0.00000000000E+00 -0.12925443454E+03  0.12925443454E+03  0.00000000000E+00 0. -1.
         25    2    1    2    0    0 -0.69003319152E+02  0.80333830006E+02 -0.25052938239E+02  0.16580069777E+03  0.12508892585E+03 0.  0.
          5    1    3    3  502    0 -0.53691474142E+02  0.66529769583E+00 -0.57082613067E+02  0.78480023772E+02  0.41800000000E+01 0.  1.
         -5    1    3    3    0  502 -0.15311845010E+02  0.79668532310E+02  0.32029674828E+02  0.87320673999E+02  0.41800000000E+01 0.  1.
        -11    1    1    2    0    0  0.14740622135E+02 -0.84336666405E+02  0.71309335280E+02  0.11142253156E+03  0.00000000000E+00 0. -1.
         11    1    1    2    0    0  0.54262697017E+02  0.40028363991E+01  0.39973427047E+02  0.67515463834E+02  0.00000000000E+00 0.  1.
</event>
<event>
 7    1  0.2666594E-009  0.8992811E+02  0.7561462E-02  0.1303026E+00
         -2   -1    0    0    0  501 -0.00000000000E+00  0.00000000000E+00  0.10269073899E+02  0.10269073899E+02  0.00000000000E+00 0.  1.
          2   -1    0    0  501    0  0.00000000000E+00 -0.00000000000E+00 -0.22433063422E+04  0.22433063422E+04  0.00000000000E+00 0. -1.
         25    2    1    2    0    0  0.11494936219E+02  0.31573886878E+02 -0.19529619142E+04  0.19572524466E+04  0.12509139630E+03 0.  0.
          5    1    3    3  502    0  0.12978113427E+02  0.56445385585E+02 -0.41082692944E+03  0.41491053413E+03  0.41800000000E+01 0. -1.
         -5    1    3    3    0  502 -0.14831772076E+01 -0.24871498707E+02 -0.15421349848E+04  0.15423419125E+04  0.41800000000E+01 0. -1.
        -11    1    1    2    0    0  0.34965791472E+02  0.75645948111E+01 -0.93711313715E+02  0.10030772645E+03  0.00000000000E+00 0.  1.
         11    1    1    2    0    0 -0.46460727691E+02 -0.39138481689E+02 -0.18636404041E+03  0.19601524309E+03  0.00000000000E+00 0. -1.
</event>
<event>
 7    1  0.2666594E-009  0.1025520E+03  0.7561462E-02  0.1275019E+00
          4   -1    0    0  501    0  0.00000000000E+00  0.00000000000E+00  0.91715818937E+02  0.91715818937E+02  0.00000000000E+00 0. -1.
         -4   -1    0    0    0  501 -0.00000000000E+00 -0.00000000000E+00 -0.14294939867E+03  0.14294939867E+03  0.00000000000E+00 0.  1.
         25    2    1    2    0    0 -0.20320572467E+02 -0.27968403678E+02 -0.40483566264E+02  0.13594711493E+03  0.12509013411E+03 0.  0.
          5    1    3    3  502    0 -0.40898883705E+02 -0.57624081907E+02  0.12318028307E+02  0.71850259048E+02  0.41800000000E+01 0. -1.
         -5    1    3    3    0  502  0.20578311238E+02  0.29655678229E+02 -0.52801594571E+02  0.64096855881E+02  0.41800000000E+01 0. -1.
        -11    1    1    2    0    0  0.10153731117E+02  0.61813127607E+02 -0.94948580964E+01  0.63357030631E+02  0.00000000000E+00 0. -1.
         11    1    1    2    0    0  0.10166841350E+02 -0.33844723929E+02 -0.12551553683E+01  0.35361072041E+02  0.00000000000E+00 0.  1.
</event>
<event>
 7    1  0.2666594E-009  0.1543940E+03  0.7561462E-02  0.1195175E+00
         -1   -1    0    0    0  501 -0.00000000000E+00  0.00000000000E+00  0.80264647351E+02  0.80264647351E+02  0.00000000000E+00 0.  1.
          1   -1    0    0  501    0  0.00000000000E+00 -0.00000000000E+00 -0.51837133937E+03  0.51837133937E+03  0.00000000000E+00 0. -1.
         25    2    1    2    0    0 -0.11840784075E+03  0.62351813221E+02 -0.38091754797E+03  0.42267477377E+03  0.12509044996E+03 0.  0.
          5    1    3    3  502    0 -0.11320301868E+03  0.89809744368E+02 -0.35867999054E+03  0.38671633226E+03  0.41800000000E+01 0.  1.
         -5    1    3    3    0  502 -0.52048220715E+01 -0.27457931148E+02 -0.22237557425E+02  0.35958441512E+02  0.41800000000E+01 0.  1.
        -11    1    1    2    0    0  0.11240216499E+03 -0.51660317477E+02 -0.81910420126E+02  0.14836560255E+03  0.00000000000E+00 0. -1.
         11    1    1    2    0    0  0.60056757620E+01 -0.10691495744E+02  0.24721276073E+02  0.27595610399E+02  0.00000000000E+00 0.  1.
</event>
<event>
 7    1  0.2666594E-009  0.1122958E+03  0.7561462E-02  0.1256377E+00
          2   -1    0    0  501    0  0.00000000000E+00  0.00000000000E+00  0.10138847144E+03  0.10138847144E+03  0.00000000000E+00 0. -1.
         -2   -1    0    0    0  501 -0.00000000000E+00 -0.00000000000E+00 -0.23051031911E+03  0.23051031911E+03  0.00000000000E+00 0.  1.
         25    2    1    2    0    0  0.70111626041E+02 -0.49766585867E+02 -0.55029579099E+02  0.16145755264E+03  0.12509170058E+03 0.  0.
          5    1    3    3  502    0  0.41262989388E+02 -0.39918058429E+02  0.34279181625E+02  0.66997166917E+02  0.41800000000E+01 0. -1.
         -5    1    3    3    0  502  0.28848636652E+02 -0.98485274380E+01 -0.89308760724E+02  0.94460385726E+02  0.41800000000E+01 0. -1.
        -11    1    1    2    0    0 -0.25779439112E+02 -0.33294357978E+02 -0.62806727292E+02  0.75615995313E+02  0.00000000000E+00 0.  1.
         11    1    1    2    0    0 -0.44332186929E+02  0.83060943845E+02 -0.11285541276E+02  0.94825242589E+02  0.00000000000E+00 0. -1.
</event>
<event>
 7    1  0.2666594E-009  0.1208649E+03  0.7561462E-02  0.1241677E+00
          1   -1    0    0  501    0  0.00000000000E+00  0.00000000000E+00  0.41120727689E+02  0.41120727689E+02  0.00000000000E+00 0. -1.
         -1   -1    0    0    0  501 -0.00000000000E+00 -0.00000000000E+00 -0.38227211611E+03  0.38227211611E+03  0.00000000000E+00 0.  1.
         25    2    1    2    0    0  0.16509385485E+02  0.61545647702E+02 -0.20430644936E+03  0.24788981018E+03  0.12509119147E+03 0.  0.
          5    1    3    3  502    0 -0.39991880102E+02 -0.16898191254E+02 -0.62449776760E+02  0.76173134103E+02  0.41800000000E+01 0. -1.
         -5    1    3    3    0  502  0.56501265587E+02  0.78443838956E+02 -0.14185667260E+03  0.17171667608E+03  0.41800000000E+01 0. -1.
        -11    1    1    2    0    0 -0.21904992949E+02  0.13748589530E+02 -0.70177092857E+02  0.74790887092E+02  0.00000000000E+00 0.  1.
         11    1    1    2    0    0  0.53956074641E+01 -0.75294237231E+02 -0.66667846212E+02  0.10071214653E+03  0.00000000000E+00 0. -1.
</event>
<event>
 7    1  0.2666594E-009  0.1482164E+03  0.7561462E-02  0.1202682E+00
          3   -1    0    0  501    0  0.00000000000E+00  0.00000000000E+00  0.16038284937E+03  0.16038284937E+03  0.00000000000E+00 0. -1.
         -3   -1    0    0    0  501 -0.00000000000E+00 -0.00000000000E+00 -0.14662147878E+03  0.14662147878E+03  0.00000000000E+00 0.  1.
         25    2    1    2    0    0 -0.10407283448E+03 -0.32178246840E+02  0.58986117162E+01  0.16597970823E+03  0.12509146844E+03 0.  0.
          5    1    3    3  502    0 -0.13164711018E+03 -0.14665604904E+02  0.20640467721E-01  0.13252741004E+03  0.41800000000E+01 0. -1.
         -5    1    3    3    0  502  0.27574275701E+02 -0.17512641936E+02  0.58779712485E+01  0.33452298188E+02  0.41800000000E+01 0. -1.
        -11    1    1    2    0    0  0.59821690720E+02 -0.19517373066E+02  0.29667347379E+02  0.69568053247E+02  0.00000000000E+00 0.  1.
         11    1    1    2    0    0  0.44251143756E+02  0.51695619906E+02 -0.21804588507E+02  0.71456566676E+02  0.00000000000E+00 0. -1.
</event>
<event>
 7    1  0.2979484E-009  0.9059310E+02  0.7561462E-02  0.1301422E+00
          2   -1    0    0  501    0  0.00000000000E+00  0.00000000000E+00  0.25459470294E+03  0.25459470294E+03  0.00000000000E+00 0. -1.
         -2   -1    0    0    0  501 -0.00000000000E+00 -0.00000000000E+00 -0.67267802429E+02  0.67267802429E+02  0.00000000000E+00 0.  1.
         25    2    1    2    0    0  0.33733642799E+02  0.40376145470E+02  0.16664319449E+03  0.21490642625E+03  0.12508647406E+03 0.  0.
          5    1    3    3  502    0  0.30797720185E+02  0.80503538891E+02  0.14574337083E+03  0.16937509228E+03  0.41800000000E+01 0. -1.
         -5    1    3    3    0  502  0.29359226147E+01 -0.40127393421E+02  0.20899823660E+02  0.45531333973E+02  0.41800000000E+01 0. -1.
        -11    1    1    2    0    0 -0.91864757388E+01 -0.21799892972E+02 -0.35635477761E+02  0.42772817833E+02  0.00000000000E+00 0.  1.
         11    1    1    2    0    0 -0.24547167061E+02 -0.18576252498E+02  0.56319183777E+02  0.64183261282E+02  0.00000000000E+00 0. -1.
</event>
<event>
 7    1  0.2666594E-009  0.1753496E+03  0.7561462E-02  0.1172381E+00
         -1   -1    0    0    0  501 -0.00000000000E+00  0.00000000000E+00  0.23847222359E+03  0.23847222359E+03  0.00000000000E+00 0.  1.
          1   -1    0    0  501    0  0.00000000000E+00 -0.00000000000E+00 -0.14604526570E+03  0.14604526570E+03  0.00000000000E+00 0. -1.
         25    2    1    2    0    0  0.38146472359E+02 -0.13694828701E+03 -0.62726939080E+01  0.18946252994E+03  0.12508683740E+03 0.  0.
          5    1    3    3  502    0 -0.41440814027E+02 -0.35161973603E+02  0.19029125744E+02  0.57734612508E+02  0.41800000000E+01 0. -1.
         -5    1    3    3    0  502  0.79587286386E+02 -0.10178631341E+03 -0.25301819652E+02  0.13172791743E+03  0.41800000000E+01 0. -1.
        -11    1    1    2    0    0 -0.51280501870E+02  0.30510691275E+02  0.47221201863E+02  0.76094901666E+02  0.00000000000E+00 0.  1.
         11    1    1    2    0    0  0.13134029511E+02  0.10643759574E+03  0.51478449935E+02  0.11896005769E+03  0.00000000000E+00 0. -1.
</event>
<event>
 7    1  0.2666594E-009  0.8500748E+02  0.7561462E-02  0.1315413E+00
          2   -1    0    0  501    0  0.00000000000E+00  0.00000000000E+00  0.64951749218E+03  0.64951749218E+03  0.00000000000E+00 0. -1.
         -2   -1    0    0    0  501 -0.00000000000E+00 -0.00000000000E+00 -0.17670591890E+02  0.17670591890E+02  0.00000000000E+00 0.  1.
         25    2    1    2    0    0 -0.24062979825E+02 -0.15891787915E+02  0.48057401510E+03  0.49742418378E+03  0.12509140137E+03 0.  0.
          5    1    3    3  502    0 -0.52292220892E+02 -0.47735178552E+02  0.39967928021E+03  0.40592378973E+03  0.41800000000E+01 0.  1.
         -5    1    3    3    0  502  0.28229241067E+02  0.31843390637E+02  0.80894734885E+02  0.91500394046E+02  0.41800000000E+01 0.  1.
        -11    1    1    2    0    0 -0.11979288282E+02 -0.67644144182E+01  0.12456023059E+01  0.13813478029E+02  0.00000000000E+00 0.  1.
         11    1    1    2    0    0  0.36042268107E+02  0.22656202333E+02  0.15002728289E+03  0.15595042227E+03  0.00000000000E+00 0. -1.
</event>
<event>
 7    1  0.2666594E-009  0.1580679E+03  0.7561462E-02  0.1190896E+00
          3   -1    0    0  501    0  0.00000000000E+00  0.00000000000E+00  0.78475349811E+02  0.78475349811E+02  0.00000000000E+00 0. -1.
         -3   -1    0    0    0  501 -0.00000000000E+00 -0.00000000000E+00 -0.37405398367E+03  0.37405398367E+03  0.00000000000E+00 0.  1.
         25    2    1    2    0    0  0.12828368197E+03 -0.18183002756E+02 -0.12779992177E+03  0.22083354139E+03  0.12508920157E+03 0.  0.
          5    1    3    3  502    0  0.50322113436E+02  0.39392630934E+02 -0.10202518974E+03  0.12046039272E+03  0.41800000000E+01 0.  1.
         -5    1    3    3    0  502  0.77961568538E+02 -0.57575633690E+02 -0.25774732028E+02  0.10037314867E+03  0.41800000000E+01 0.  1.
        -11    1    1    2    0    0 -0.92298378365E+02  0.51799628837E+02 -0.86626741646E+02  0.13677128560E+03  0.00000000000E+00 0. -1.
         11    1    1    2    0    0 -0.35985303608E+02 -0.33616626081E+02 -0.81151970450E+02  0.94924506492E+02  0.00000000000E+00 0.  1.
</event>
<event>
 7    1  0.2666594E-009  0.1085303E+03  0.7561462E-02  0.1263316E+00
         -1   -1    0    0    0  501 -0.00000000000E+00  0.00000000000E+00  0.31114464039E+02  0.31114464039E+02  0.00000000000E+00 0.  1.
          1   -1    0    0  501    0  0.00000000000E+00 -0.00000000000E+00 -0.51522650618E+03  0.51522650618E+03  0.00000000000E+00 0. -1.
         25    2    1    2    0    0  0.23517207364E+02  0.53855112608E+02 -0.21052383729E+03  0.25183514081E+03  0.12508884797E+03 0.  0.
          5    1    3    3  502    0  0.34804481613E+01  0.78335111464E+02 -0.62357787443E+02  0.10027197645E+03  0.41800000000E+01 0. -1.
         -5    1    3    3    0  502  0.20036759203E+02 -0.24479998856E+02 -0.14816604985E+03  0.15156316436E+03  0.41800000000E+01 0. -1.
        -11    1    1    2    0    0  0.51761291539E+01 -0.72320788429E+02 -0.21256592984E+03  0.22459154766E+03  0.00000000000E+00 0. -1.
         11    1    1    2    0    0 -0.28693336518E+02  0.18465675821E+02 -0.61022275008E+02  0.69914281740E+02  0.00000000000E+00 0.  1.
</event>
<event>
 7    1  0.2666594E-009  0.6756804E+02  0.7561462E-02  0.1368564E+00
         -3   -1    0    0    0  501 -0.00000000000E+00  0.00000000000E+00  0.51542978733E+02  0.51542978733E+02  0.00000000000E+00 0.  1.
          3   -1    0    0  501    0  0.00000000000E+00 -0.00000000000E+00 -0.30208724062E+03  0.30208724062E+03  0.00000000000E+00 0. -1.
         25    2    1    2    0    0 -0.47322486064E+02  0.44979808240E+01 -0.21240258335E+03  0.25104240050E+03  0.12509108649E+03 0.  0.
          5    1    3    3  502    0  0.22889811103E+01  0.28609314849E+01 -0.19950930801E+03  0.19958672487E+03  0.41800000000E+01 0. -1.
         -5    1    3    3    0  502 -0.49611467174E+02  0.16370493392E+01 -0.12893275341E+02  0.51455675632E+02  0.41800000000E+01 0. -1.
        -11    1    1    2    0    0  0.17971446615E+02 -0.33805502061E+02 -0.46544317488E+02  0.60267390465E+02  0.00000000000E+00 0. -1.
         11    1    1    2    0    0  0.29351039449E+02  0.29307521237E+02  0.84026389448E+01  0.42320428389E+02  0.00000000000E+00 0.  1.
</event>
<event>
 7    1  0.2666594E-009  0.9596540E+02  0.7561462E-02  0.1289016E+00
         -1   -1    0    0    0  501 -0.00000000000E+00  0.00000000000E+00  0.15291044581E+03  0.15291044581E+03  0.00000000000E+00 0.  1.
          1   -1    0    0  501    0  0.00000000000E+00 -0.00000000000E+00 -0.10749867022E+03  0.10749867022E+03  0.00000000000E+00 0. -1.
         25    2    1    2    0    0  0.49168312235E+02  0.47386772401E+02  0.30531171195E+02  0.14574899159E+03  0.12509031540E+03 0.  0.
          5    1    3    3  502    0  0.74578183580E+02  0.51070554062E+02 -0.16524307211E+02  0.91981694304E+02  0.41800000000E+01 0.  1.
         -5    1    3    3    0  502 -0.25409871345E+02 -0.36837816609E+01  0.47055478407E+02  0.53767297284E+02  0.41800000000E+01 0.  1.
        -11    1    1    2    0    0 -0.25222681953E+02 -0.44714400983E+02 -0.33020747283E+02  0.61040405399E+02  0.00000000000E+00 0. -1.
         11    1    1    2    0    0 -0.23945630283E+02 -0.26723714172E+01  0.47901351672E+02  0.53619719047E+02  0.00000000000E+00 0.  1.
</event>
<event>
 7    1  0.2666594E-009  0.8160089E+02  0.7561462E-02  0.1324569E+00
         -1   -1    0    0    0  501 -0.00000000000E+00  0.00000000000E+00  0.12203461490E+03  0.12203461490E+03  0.00000000000E+00 0.  1.
          1   -1    0    0  501    0  0.00000000000E+00 -0.00000000000E+00 -0.11370189259E+03  0.11370189259E+03  0.00000000000E+00 0. -1.
         25    2    1    2    0    0  0.20063332191E+02  0.14145340685E+01  0.39583729064E+02  0.13273612629E+03  0.12508984535E+03 0.  0.
          5    1    3    3  502    0  0.11249034777E+02  0.62921381225E+02  0.25104949416E+02  0.68799504968E+02  0.41800000000E+01 0.  1.
         -5    1    3    3    0  502  0.88142974146E+01 -0.61506847157E+02  0.14478779648E+02  0.63936621323E+02  0.41800000000E+01 0.  1.
        -11    1    1    2    0    0 -0.11056849860E+00 -0.13528087185E+02 -0.62527254474E+02  0.63974048804E+02  0.00000000000E+00 0. -1.
         11    1    1    2    0    0 -0.19952763693E+02  0.12113553117E+02  0.31276247720E+02  0.39026332387E+02  0.00000000000E+00 0.  1.
</event>
<event>
 7    1  0.2666594E-009  0.7581706E+02  0.7561462E-02  0.1341359E+00
          1   -1    0    0  501    0  0.00000000000E+00  0.00000000000E+00  0.10568382057E+03  0.10568382057E+03  0.00000000000E+00 0. -1.
         -1   -1    0    0    0  501 -0.00000000000E+00 -0.00000000000E+00 -0.12486450273E+03  0.12486450273E+03  0.00000000000E+00 0.  1.
         25    2    1    2    0    0  0.66816163575E+01 -0.32166049680E+02  0.32846727307E+01  0.12937299681E+03  0.12508910615E+03 0.  0.
          5    1    3    3  502    0 -0.40033413070E+02  0.14334778119E+02  0.35812838153E+02  0.55751159650E+02  0.41800000000E+01 0. -1.
         -5    1    3    3    0  502  0.46715029427E+02 -0.46500827799E+02 -0.32528165423E+02  0.73621837155E+02  0.41800000000E+01 0. -1.
        -11    1    1    2    0    0  0.10056765766E+02  0.19248355534E+02  0.34301718311E+02  0.40598591201E+02  0.00000000000E+00 0. -1.
         11    1    1    2    0    0 -0.16738382123E+02  0.12917694146E+02 -0.56767073206E+02  0.60576735291E+02  0.00000000000E+00 0.  1.
</event>
<event>
 7    1  0.2666594E-009  0.1106468E+03  0.7561462E-02  0.1259377E+00
         -1   -1    0    0    0  501 -0.00000000000E+00  0.00000000000E+00  0.54797808441E+03  0.54797808441E+03  0.00000000000E+00 0.  1.
          1   -1    0    0  501    0  0.00000000000E+00 -0.00000000000E+00 -0.28043582410E+02  0.28043582410E+02  0.00000000000E+00 0. -1.
         25    2    1    2    0    0  0.73689597360E+00 -0.42778858018E+02  0.37960837109E+03  0.40197031847E+03  0.12508816021E+03 0.  0.
          5    1    3    3  502    0 -0.12265294146E+02  0.36146921771E+02  0.22070593512E+03  0.22402147127E+03  0.41800000000E+01 0.  1.
         -5    1    3    3    0  502  0.13002190120E+02 -0.78925779790E+02  0.15890243597E+03  0.17794884720E+03  0.41800000000E+01 0.  1.
        -11    1    1    2    0    0  0.31729402059E+02  0.58630929630E+02  0.86124285728E+02  0.10891158550E+03  0.00000000000E+00 0. -1.
         11    1    1    2    0    0 -0.32466298033E+02 -0.15852071612E+02  0.54201845187E+02  0.65139762849E+02  0.00000000000E+00 0.  1.
</event>
<event>
 7    1  0.2666594E-009  0.1399315E+03  0.7561462E-02  0.1213421E+00
          2   -1    0    0  501    0  0.00000000000E+00  0.00000000000E+00  0.45153010546E+03  0.45153010546E+03  0.00000000000E+00 0. -1.
         -2   -1    0    0    0  501 -0.00000000000E+00 -0.00000000000E+00 -0.51442524060E+02  0.51442524060E+02  0.00000000000E+00 0.  1.
         25    2    1    2    0    0 -0.10410685563E+03 -0.85302435466E+01  0.25631305193E+03  0.30373684551E+03  0.12509471726E+03 0.  0.
          5    1    3    3  502    0 -0.43597817858E+02 -0.52724565650E+02  0.19542507098E+03  0.20709678972E+03  0.41800000000E+01 0. -1.
         -5    1    3    3    0  502 -0.60509037774E+02  0.44194322103E+02  0.60887980949E+02  0.96640055787E+02  0.41800000000E+01 0. -1.
        -11    1    1    2    0    0  0.50577538236E+02 -0.39640874107E+02  0.52543952955E+02  0.83008151805E+02  0.00000000000E+00 0.  1.
         11    1    1    2    0    0  0.53529317395E+02  0.48171117653E+02  0.91230576514E+02  0.11622763220E+03  0.00000000000E+00 0. -1.
</event>
<event>
 7    1  0.2666594E-009  0.2069814E+03  0.7561462E-02  0.1143979E+00
         -1   -1    0    0    0  501 -0.00000000000E+00  0.00000000000E+00  0.35917408083E+02  0.35917408083E+02  0.00000000000E+00 0.  1.
          1   -1    0    0  501    0  0.00000000000E+00 -0.00000000000E+00 -0.13258015176E+04  0.13258015176E+04  0.00000000000E+00 0. -1.
         25    2    1    2    0    0 -0.77239671131E+02 -0.16432943420E+03 -0.83835514804E+03  0.86686623879E+03  0.12509033524E+03 0.  0.
          5    1    3    3  502    0 -0.82260630147E+02 -0.43069395931E+02 -0.26603509453E+03  0.28180476940E+03  0.41800000000E+01 0.  1.
         -5    1    3    3    0  502  0.50209590161E+01 -0.12126003827E+03 -0.57232005351E+03  0.58506146939E+03  0.41800000000E+01 0.  1.
        -11    1    1    2    0    0  0.35231684595E+02  0.59588455429E+01 -0.11732358316E+03  0.12264421146E+03  0.00000000000E+00 0.  1.
         11    1    1    2    0    0  0.42007986536E+02  0.15837058866E+03 -0.33420537831E+03  0.37220847542E+03  0.00000000000E+00 0. -1.
</event>
<event>
 7    1  0.2666594E-009  0.1069973E+03  0.7561462E-02  0.1266234E+00
         -1   -1    0    0    0  501 -0.00000000000E+00  0.00000000000E+00  0.16102170946E+03  0.16102170946E+03  0.00000000000E+00 0.  1.
          1   -1    0    0  501    0  0.00000000000E+00 -0.00000000000E+00 -0.10433991451E+03  0.10433991451E+03  0.00000000000E+00 0. -1.
         25    2    1    2    0    0  0.10192705445E+02 -0.32330443669E+02  0.95763057849E+02  0.16114395762E+03  0.12509061914E+03 0.  0.
          5    1    3    3  502    0 -0.12619340512E+02  0.45071998654E+02  0.48514081087E+02  0.67541256143E+02  0.41800000000E+01 0. -1.
         -5    1    3    3    0  502  0.22812045957E+02 -0.77402442323E+02  0.47248976762E+02  0.93602701475E+02  0.41800000000E+01 0. -1.
        -11    1    1    2    0    0 -0.44520684621E+02  0.25138487818E+02  0.76604443157E+00  0.51133372204E+02  0.00000000000E+00 0.  1.
         11    1    1    2    0    0  0.34327979175E+02  0.71919558516E+01 -0.39847307338E+02  0.53084294149E+02  0.00000000000E+00 0. -1.
</event>
<event>
 7    1  0.2666594E-009  0.9960926E+02  0.7561462E-02  0.1281120E+00
          3   -1    0    0  501    0  0.00000000000E+00  0.00000000000E+00  0.66787530804E+03  0.66787530804E+03  0.00000000000E+00 0. -1.
         -3   -1    0    0    0  501 -0.00000000000E+00 -0.00000000000E+00 -0.28281492643E+02  0.28281492643E+02  0.00000000000E+00 0.  1.
         25    2    1    2    0    0 -0.69295953152E+02 -0.38276529782E+02  0.39557853108E+03  0.42237015404E+03  0.12508857230E+03 0.  0.
          5    1    3    3  502    0 -0.23029412903E+02 -0.62943649950E+02  0.33707207083E+03  0.34369653804E+03  0.41800000000E+01 0.  1.
         -5    1    3    3    0  502 -0.46266540249E+02  0.24667120169E+02  0.58506460249E+02  0.78673616003E+02  0.41800000000E+01 0.  1.
        -11    1    1    2    0    0  0.55565796691E+02  0.27423369097E+02  0.24817809284E+03  0.25579672535E+03  0.00000000000E+00 0. -1.
         11    1    1    2    0    0  0.13730156461E+02  0.10853160684E+02 -0.41628085199E+01  0.17989921291E+02  0.00000000000E+00 0.  1.
</event>
<event>
 7    1  0.2666594E-009  0.8797355E+02  0.7561462E-02  0.1307835E+00
          2   -1    0    0  501    0  0.00000000000E+00  0.00000000000E+00  0.42174773193E+02  0.42174773193E+02  0.00000000000E+00 0. -1.
         -2   -1    0    0    0  501 -0.00000000000E+00 -0.00000000000E+00 -0.33606875101E+03  0.33606875101E+03  0.00000000000E+00 0.  1.
         25    2    1    2    0    0 -0.28039912711E+02  0.19767704603E+02 -0.18850619391E+03  0.22882242793E+03  0.12509244394E+03 0.  0.
          5    1    3    3  502    0 -0.33908630818E+02 -0.28688116114E+02 -0.17112043430E+03  0.17684026319E+03  0.41800000000E+01 0. -1.
         -5    1    3    3    0  502  0.58687181072E+01  0.48455820717E+02 -0.17385759608E+02  0.51982164737E+02  0.41800000000E+01 0. -1.
        -11    1    1    2    0    0  0.50292426506E+02 -0.29224949115E+02 -0.11034671509E+03  0.12473902095E+03  0.00000000000E+00 0.  1.
         11    1    1    2    0    0 -0.22252513795E+02  0.94572445113E+01  0.49589311871E+01  0.24682075327E+02  0.00000000000E+00 0. -1.
</event>
<event>
 7    1  0.2666594E-009  0.1105277E+03  0.7561462E-02  0.1259596E+00
          2   -1    0    0  501    0  0.00000000000E+00  0.00000000000E+00  0.12291150745E+03  0.12291150745E+03  0.00000000000E+00 0. -1.
         -2   -1    0    0    0  501 -0.00000000000E+00 -0.00000000000E+00 -0.12981634972E+03  0.12981634972E+03  0.00000000000E+00 0.  1.
         25    2    1    2    0    0  0.10456249138E+02  0.60309518812E+02 -0.27202142934E+02  0.14188437595E+03  0.12507856872E+03 0.  0.
          5    1    3    3  502    0  0.78667100621E+00  0.92547635074E+02  0.80151127108E+01  0.92991386917E+02  0.41800000000E+01 0. -1.
         -5    1    3    3    0  502  0.96695781322E+01 -0.32238116261E+02 -0.35217255644E+02  0.48892989032E+02  0.41800000000E+01 0. -1.
        -11    1    1    2    0    0 -0.18573152957E+02 -0.75240885165E+02  0.37990646751E+02  0.86310150340E+02  0.00000000000E+00 0.  1.
         11    1    1    2    0    0  0.81169038182E+01  0.14931366353E+02 -0.17693346082E+02  0.24533330886E+02  0.00000000000E+00 0. -1.
</event>
<event>
 7    1  0.2666594E-009  0.1786734E+03  0.7561462E-02  0.1169093E+00
         -1   -1    0    0    0  501 -0.00000000000E+00  0.00000000000E+00  0.28008719377E+03  0.28008719377E+03  0.00000000000E+00 0.  1.
          1   -1    0    0  501    0  0.00000000000E+00 -0.00000000000E+00 -0.14074308942E+03  0.14074308942E+03  0.00000000000E+00 0. -1.
         25    2    1    2    0    0 -0.14238038629E+03 -0.24027158804E+02 -0.14197813802E+02  0.19157155772E+03  0.12509438455E+03 0.  0.
          5    1    3    3  502    0 -0.96463779390E+02 -0.72147000726E+02  0.93413706587E+01  0.12089327547E+03  0.41800000000E+01 0.  1.
         -5    1    3    3    0  502 -0.45916606904E+02  0.48119841921E+02 -0.23539184461E+02  0.70678282246E+02  0.41800000000E+01 0.  1.
        -11    1    1    2    0    0  0.11593762296E+03 -0.21124855211E+02  0.10947544985E+03  0.16084982451E+03  0.00000000000E+00 0. -1.
         11    1    1    2    0    0  0.26442763338E+02  0.45152014015E+02  0.44066468300E+02  0.68408900963E+02  0.00000000000E+00 0.  1.
</event>
<event>
 7    1  0.2666594E-009  0.6787136E+02  0.7561462E-02  0.1367485E+00
          1   -1    0    0  501    0  0.00000000000E+00  0.00000000000E+00  0.10503562988E+03  0.10503562988E+03  0.00000000000E+00 0.  1.
         -1   -1    0    0    0  501 -0.00000000000E+00 -0.00000000000E+00 -0.11510355653E+03  0.11510355653E+03  0.00000000000E+00 0. -1.
         25    2    1    2    0    0 -0.39503525954E+01 -0.21376379414E+02 -0.97786614492E+01  0.12733780185E+03  0.12508692449E+03 0.  0.
          5    1    3    3  502    0 -0.24136503558E+02 -0.25641805400E+02  0.51508908425E+02  0.62535694090E+02  0.41800000000E+01 0.  1.
         -5    1    3    3    0  502  0.20186150963E+02  0.42654259853E+01 -0.61287569874E+02  0.64802107763E+02  0.41800000000E+01 0.  1.
        -11    1    1    2    0    0  0.19755938647E+02  0.45947150017E+02 -0.23716968468E+02  0.55352798482E+02  0.00000000000E+00 0. -1.
         11    1    1    2    0    0 -0.15805586051E+02 -0.24570770602E+02  0.23427703265E+02  0.37448586070E+02  0.00000000000E+00 0.  1.
</event>
<event>
 7    1  0.2666594E-009  0.9215749E+02  0.7561462E-02  0.1297710E+00
          2   -1    0    0  501    0  0.00000000000E+00  0.00000000000E+00  0.81112957135E+03  0.81112957135E+03  0.00000000000E+00 0. -1.
         -2   -1    0    0    0  501 -0.00000000000E+00 -0.00000000000E+00 -0.15503959813E+02  0.15503959813E+02  0.00000000000E+00 0.  1.
         25    2    1    2    0    0 -0.10677643389E+02 -0.26223725875E+02  0.46273269503E+03  0.48017783788E+03  0.12509001987E+03 0.  0.
          5    1    3    3  502    0  0.38444009484E+02 -0.69960109858E+01  0.47781530304E+02  0.61866251487E+02  0.41800000000E+01 0.  1.
         -5    1    3    3    0  502 -0.49121652873E+02 -0.19227714889E+02  0.41495116473E+03  0.41831158639E+03  0.41800000000E+01 0.  1.
        -11    1    1    2    0    0 -0.33799773373E+02 -0.94369354253E+01  0.82468534260E+02  0.89624436251E+02  0.00000000000E+00 0.  1.
         11    1    1    2    0    0  0.44477416762E+02  0.35660661300E+02  0.25042438225E+03  0.25683125703E+03  0.00000000000E+00 0. -1.
</event>
<event>
 7    1  0.2666594E-009  0.1487382E+03  0.7561462E-02  0.1202032E+00
          1   -1    0    0  501    0  0.00000000000E+00  0.00000000000E+00  0.73373292975E+03  0.73373292975E+03  0.00000000000E+00 0. -1.
         -1   -1    0    0    0  501 -0.00000000000E+00 -0.00000000000E+00 -0.49011961439E+02  0.49011961439E+02  0.00000000000E+00 0.  1.
         25    2    1    2    0    0  0.86157616860E+02  0.82965774091E+02  0.56478812886E+03  0.59071126560E+03  0.12509082378E+03 0.  0.
          5    1    3    3  502    0  0.97726693082E+02  0.10304488485E+03  0.52992493868E+03  0.54864074572E+03  0.41800000000E+01 0.  1.
         -5    1    3    3    0  502 -0.11569076222E+02 -0.20079110755E+02  0.34863190181E+02  0.42070519879E+02  0.41800000000E+01 0.  1.
        -11    1    1    2    0    0 -0.51571506944E+02 -0.12065240981E+02  0.57848995825E+01  0.53279033697E+02  0.00000000000E+00 0.  1.
         11    1    1    2    0    0 -0.34586109915E+02 -0.70900533110E+02  0.11414793987E+03  0.13875459189E+03  0.00000000000E+00 0. -1.
</event>
<event>
 7    1  0.2666594E-009  0.1759299E+03  0.7561462E-02  0.1171801E+00
          2   -1    0    0  501    0  0.00000000000E+00  0.00000000000E+00  0.44970127440E+03  0.44970127440E+03  0.00000000000E+00 0. -1.
         -2   -1    0    0    0  501 -0.00000000000E+00 -0.00000000000E+00 -0.75595739108E+02  0.75595739108E+02  0.00000000000E+00 0.  1.
         25    2    1    2    0    0  0.11436587712E+03 -0.12719997466E+02  0.15996461113E+03  0.23340505502E+03  0.12509152932E+03 0.  0.
          5    1    3    3  502    0  0.10087537907E+03 -0.53324764279E+02  0.70615452428E+02  0.13425120897E+03  0.41800000000E+01 0. -1.
         -5    1    3    3    0  502  0.13490498055E+02  0.40604766813E+02  0.89349158704E+02  0.99153846051E+02  0.41800000000E+01 0. -1.
        -11    1    1    2    0    0 -0.12482098389E+03 -0.47511627648E+02  0.17143987115E+03  0.21732294449E+03  0.00000000000E+00 0. -1.
         11    1    1    2    0    0  0.10455106767E+02  0.60231625114E+02  0.42701053014E+02  0.74569014007E+02  0.00000000000E+00 0.  1.
</event>
<event>
 7    1  0.2666594E-009  0.1235061E+03  0.7561462E-02  0.1237423E+00
          1   -1    0    0  501    0  0.00000000000E+00  0.00000000000E+00  0.40903020697E+03  0.40903020697E+03  0.00000000000E+00 0. -1.
         -1   -1    0    0    0  501 -0.00000000000E+00 -0.00000000000E+00 -0.46773676604E+02  0.46773676604E+02  0.00000000000E+00 0.  1.
         25    2    1    2    0    0  0.33308900050E+02  0.70967167192E+02  0.13454316848E+03  0.19974161779E+03  0.12509607527E+03 0.  0.
          5    1    3    3  502    0  0.41626507037E+01  0.93711701152E+02  0.47816945199E+02  0.10537145364E+03  0.41800000000E+01 0.  1.
         -5    1    3    3    0  502  0.29146249347E+02 -0.22744533960E+02  0.86726223285E+02  0.94370164148E+02  0.41800000000E+01 0.  1.
        -11    1    1    2    0    0  0.29135498146E+02 -0.24609845088E+02  0.92921678320E+02  0.10044381529E+03  0.00000000000E+00 0. -1.
         11    1    1    2    0    0 -0.62444398196E+02 -0.46357322104E+02  0.13479168356E+03  0.15561845050E+03  0.00000000000E+00 0.  1.
</event>
<event>
 7    1  0.2666594E-009  0.1109799E+03  0.7561462E-02  0.1258766E+00
         -2   -1    0    0    0  501 -0.00000000000E+00  0.00000000000E+00  0.76647535325E+02  0.76647535325E+02  0.00000000000E+00 0. -1.
          2   -1    0    0  501    0  0.00000000000E+00 -0.00000000000E+00 -0.22570950776E+03  0.22570950776E+03  0.00000000000E+00 0.  1.
         25    2    1    2    0    0 -0.14185117553E+02 -0.23243533455E+02 -0.16262192627E+03  0.20696586320E+03  0.12508996051E+03 0.  0.
          5    1    3    3  502    0 -0.95901337564E+01  0.51638950084E+02 -0.61498003254E+02  0.80981656166E+02  0.41800000000E+01 0. -1.
         -5    1    3    3    0  502 -0.45949837968E+01 -0.74882483539E+02 -0.10112392301E+03  0.12598420704E+03  0.41800000000E+01 0. -1.
        -11    1    1    2    0    0 -0.38135182568E+02  0.38334099786E+01  0.18556846063E+01  0.38372265335E+02  0.00000000000E+00 0. -1.
         11    1    1    2    0    0  0.52320300121E+02  0.19410123476E+02  0.11704269225E+02  0.57018914548E+02  0.00000000000E+00 0.  1.
</event>
<event>
 7    1  0.2666594E-009  0.1475776E+03  0.7561462E-02  0.1203482E+00
         -1   -1    0    0    0  501 -0.00000000000E+00  0.00000000000E+00  0.27550872097E+03  0.27550872097E+03  0.00000000000E+00 0.  1.
          1   -1    0    0  501    0  0.00000000000E+00 -0.00000000000E+00 -0.10970800967E+03  0.10970800967E+03  0.00000000000E+00 0. -1.
         25    2    1    2    0    0  0.48137248343E+02  0.11086763952E+03  0.20304140200E+02  0.17512185859E+03  0.12508628652E+03 0.  0.
          5    1    3    3  502    0 -0.33264945448E+02  0.76965094611E+02  0.22151321562E+02  0.86823590291E+02  0.41800000000E+01 0.  1.
         -5    1    3    3    0  502  0.81402193791E+02  0.33902544910E+02 -0.18471813614E+01  0.88298268298E+02  0.41800000000E+01 0.  1.
        -11    1    1    2    0    0 -0.92165302933E+01 -0.48814486150E+02  0.12427141852E+03  0.13383267146E+03  0.00000000000E+00 0.  1.
         11    1    1    2    0    0 -0.38920718050E+02 -0.62053153371E+02  0.21225152579E+02  0.76262200590E+02  0.00000000000E+00 0. -1.
</event>
<event>
 7    1  0.2666594E-009  0.9431282E+02  0.7561462E-02  0.1292731E+00
         -2   -1    0    0    0  501 -0.00000000000E+00  0.00000000000E+00  0.98137224358E+02  0.98137224358E+02  0.00000000000E+00 0. -1.
          2   -1    0    0  501    0  0.00000000000E+00 -0.00000000000E+00 -0.18183026841E+03  0.18183026841E+03  0.00000000000E+00 0.  1.
         25    2    1    2    0    0 -0.18355716195E+02 -0.25478566203E+02  0.28135828285E+02  0.13200533283E+03  0.12509074070E+03 0.  0.
          5    1    3    3  502    0 -0.58793298143E+02 -0.53454932734E+02  0.19180099575E+02  0.81850048014E+02  0.41800000000E+01 0.  1.
         -5    1    3    3    0  502  0.40437581948E+02  0.27976366532E+02  0.89557287099E+01  0.50155284815E+02  0.41800000000E+01 0.  1.
        -11    1    1    2    0    0  0.27006899251E+02 -0.54829802279E+01  0.39170174358E+01  0.27834846954E+02  0.00000000000E+00 0. -1.
         11    1    1    2    0    0 -0.86511830565E+01  0.30961546431E+02 -0.11574588977E+03  0.12012731298E+03  0.00000000000E+00 0.  1.
</event>
<event>
 7    1  0.2666594E-009  0.8491533E+02  0.7561462E-02  0.1315654E+00
         -2   -1    0    0    0  501 -0.00000000000E+00  0.00000000000E+00  0.25846074322E+02  0.25846074322E+02  0.00000000000E+00 0.  1.
          2   -1    0    0  501    0  0.00000000000E+00 -0.00000000000E+00 -0.64551646891E+03  0.64551646891E+03  0.00000000000E+00 0. -1.
         25    2    1    2    0    0  0.30930367082E+02 -0.54390627738E+02 -0.40301537492E+03  0.42659565451E+03  0.12508969597E+03 0.  0.
          5    1    3    3  502    0  0.19954865752E+02 -0.13960781266E+02 -0.37547418364E+03  0.37628637374E+03  0.41800000000E+01 0.  1.
         -5    1    3    3    0  502  0.10975501331E+02 -0.40429846473E+02 -0.27541191278E+02  0.50309280777E+02  0.41800000000E+01 0.  1.
        -11    1    1    2    0    0 -0.25549554534E+02  0.76297507927E+02 -0.20308066674E+03  0.21843957209E+03  0.00000000000E+00 0. -1.
         11    1    1    2    0    0 -0.53808125478E+01 -0.21906880189E+02 -0.13574352935E+02  0.26327316629E+02  0.00000000000E+00 0.  1.
</event>
<event>
 7    1  0.2666594E-009  0.1248835E+03  0.7561462E-02  0.1235251E+00
          1   -1    0    0  501    0  0.00000000000E+00  0.00000000000E+00  0.37876532320E+02  0.37876532320E+02  0.00000000000E+00 0. -1.
         -1   -1    0    0    0  501 -0.00000000000E+00 -0.00000000000E+00 -0.44824188516E+03  0.44824188516E+03  0.00000000000E+00 0.  1.
         25    2    1    2    0    0 -0.46948003013E+02  0.45747877150E+02 -0.17198720192E+03  0.22253872897E+03  0.12508758938E+03 0.  0.
          5    1    3    3  502    0 -0.46090164735E+02 -0.36020087489E+02 -0.61011539447E+02  0.84626416288E+02  0.41800000000E+01 0.  1.
         -5    1    3    3    0  502 -0.85783827821E+00  0.81767964639E+02 -0.11097566247E+03  0.13791231268E+03  0.41800000000E+01 0.  1.
        -11    1    1    2    0    0  0.64661934356E+02 -0.50521297489E+01 -0.17109606479E+03  0.18297691974E+03  0.00000000000E+00 0.  1.
         11    1    1    2    0    0 -0.17713931343E+02 -0.40695747401E+02 -0.67282086133E+02  0.80602768777E+02  0.00000000000E+00 0. -1.
</event>
<event>
 7    1  0.2666594E-009  0.1601022E+03  0.7561462E-02  0.1188581E+00
          2   -1    0    0  501    0  0.00000000000E+00  0.00000000000E+00  0.71073748424E+02  0.71073748424E+02  0.00000000000E+00 0.  1.
         -2   -1    0    0    0  501 -0.00000000000E+00 -0.00000000000E+00 -0.48058558775E+03  0.48058558775E+03  0.00000000000E+00 0. -1.
         25    2    1    2    0    0 -0.88611565595E+02  0.36071030095E+02 -0.17125166485E+03  0.23265489055E+03  0.12509211250E+03 0.  0.
          5    1    3    3  502    0  0.13851702980E+02  0.50318077990E+02 -0.42471700541E+02  0.67417330079E+02  0.41800000000E+01 0.  1.
         -5    1    3    3    0  502 -0.10246326858E+03 -0.14247047895E+02 -0.12877996431E+03  0.16523756047E+03  0.41800000000E+01 0.  1.
        -11    1    1    2    0    0  0.10163722355E+03 -0.73012277366E+02 -0.64314163642E+02  0.14070262792E+03  0.00000000000E+00 0.  1.
         11    1    1    2    0    0 -0.13025657957E+02  0.36941247271E+02 -0.17394601083E+03  0.17830181771E+03  0.00000000000E+00 0. -1.
</event>
<event>
 7    1  0.2666594E-009  0.1091738E+03  0.7561462E-02  0.1262108E+00
          2   -1    0    0  501    0  0.00000000000E+00  0.00000000000E+00  0.99506804411E+02  0.99506804411E+02  0.00000000000E+00 0. -1.
         -2   -1    0    0    0  501 -0.00000000000E+00 -0.00000000000E+00 -0.15560273418E+03  0.15560273418E+03  0.00000000000E+00 0.  1.
         25    2    1    2    0    0 -0.40824088479E+02 -0.41139575119E+02 -0.14407470556E+02  0.13861757783E+03  0.12509271296E+03 0.  0.
          5    1    3    3  502    0 -0.46017599230E+02 -0.73047290989E+02  0.22560679858E+02  0.89330749663E+02  0.41800000000E+01 0.  1.
         -5    1    3    3    0  502  0.51935107516E+01  0.31907715870E+02 -0.36968150414E+02  0.49286828169E+02  0.41800000000E+01 0.  1.
        -11    1    1    2    0    0  0.21677797385E+02 -0.23457992145E+02 -0.37107835536E+02  0.48961165765E+02  0.00000000000E+00 0.  1.
         11    1    1    2    0    0  0.19146291094E+02  0.64597567264E+02 -0.45806236765E+01  0.67530794993E+02  0.00000000000E+00 0. -1.
</event>
<event>
 7    1  0.2666594E-009  0.9668625E+02  0.7561462E-02  0.1287423E+00
         -2   -1    0    0    0  501 -0.00000000000E+00  0.00000000000E+00  0.26474012160E+02  0.26474012160E+02  0.00000000000E+00 0.  1.
          2   -1    0    0  501    0  0.00000000000E+00 -0.00000000000E+00 -0.59226830269E+03  0.59226830269E+03  0.00000000000E+00 0. -1.
         25    2    1    2    0    0  0.46544759586E+02 -0.45969953618E+02 -0.31256118846E+03  0.34296072359E+03  0.12509160687E+03 0.  0.
          5    1    3    3  502    0  0.40479502558E+02  0.26608992365E+02 -0.47235385450E+02  0.67788514076E+02  0.41800000000E+01 0.  1.
         -5    1    3    3    0  502  0.60652570282E+01 -0.72578945983E+02 -0.26532580301E+03  0.27517220951E+03  0.41800000000E+01 0.  1.
        -11    1    1    2    0    0 -0.23533652861E+02  0.39110826073E+01 -0.69109961321E+01  0.24837295579E+02  0.00000000000E+00 0.  1.
         11    1    1    2    0    0 -0.23011106725E+02  0.42058871011E+02 -0.24632210593E+03  0.25094429568E+03  0.00000000000E+00 0. -1.
</event>
<event>
 7    1  0.2666594E-009  0.1102695E+03  0.7561462E-02  0.1260072E+00
         -1   -1    0    0    0  501 -0.00000000000E+00  0.00000000000E+00  0.17578004659E+03  0.17578004659E+03  0.00000000000E+00 0.  1.
          1   -1    0    0  501    0  0.00000000000E+00 -0.00000000000E+00 -0.97887787349E+02  0.97887787349E+02  0.00000000000E+00 0. -1.
         25    2    1    2    0    0  0.30696425633E+02 -0.66239223701E+02  0.28202581282E+02  0.14755663944E+03  0.12509065093E+03 0.  0.
          5    1    3    3  502    0  0.40574167765E+02 -0.94778300309E+02  0.45202250560E+02  0.11264947916E+03  0.41800000000E+01 0.  1.
         -5    1    3    3    0  502 -0.98777421315E+01  0.28539076609E+02 -0.16999669278E+02  0.34907160281E+02  0.41800000000E+01 0.  1.
        -11    1    1    2    0    0 -0.85917519248E+01  0.64085514022E+02 -0.71822273292E+01  0.65056557686E+02  0.00000000000E+00 0. -1.
         11    1    1    2    0    0 -0.22104673708E+02  0.21537096789E+01  0.56871905289E+02  0.61054636812E+02  0.00000000000E+00 0.  1.
</event>
<event>
 7    1  0.2666594E-009  0.5757169E+03  0.7561462E-02  0.9957107E-01
          2   -1    0    0  501    0  0.00000000000E+00  0.00000000000E+00  0.23126587219E+03  0.23126587219E+03  0.00000000000E+00 0. -1.
         -2   -1    0    0    0  501 -0.00000000000E+00 -0.00000000000E+00 -0.15302904105E+04  0.15302904105E+04  0.00000000000E+00 0.  1.
         25    2    1    2    0    0 -0.45500234059E+03 -0.34510570771E+03 -0.46683098578E+03  0.74813415377E+03  0.12509381810E+03 0.  0.
          5    1    3    3  502    0 -0.77675572126E+02 -0.83175013521E+02 -0.15743168336E+03  0.19430333169E+03  0.41800000000E+01 0.  1.
         -5    1    3    3    0  502 -0.37732676846E+03 -0.26193069419E+03 -0.30939930241E+03  0.55383082208E+03  0.41800000000E+01 0.  1.
        -11    1    1    2    0    0  0.42130214760E+03  0.28294921129E+03 -0.73750819278E+03  0.89525085320E+03  0.00000000000E+00 0. -1.
         11    1    1    2    0    0  0.33700192988E+02  0.62156496425E+02 -0.94685359796E+02  0.11817127576E+03  0.00000000000E+00 0.  1.
</event>
<event>
 7    1  0.2666594E-009  0.1150488E+03  0.7561462E-02  0.1251496E+00
          1   -1    0    0  501    0  0.00000000000E+00  0.00000000000E+00  0.64029518343E+02  0.64029518343E+02  0.00000000000E+00 0. -1.
         -1   -1    0    0    0  501 -0.00000000000E+00 -0.00000000000E+00 -0.47989707463E+03  0.47989707463E+03  0.00000000000E+00 0.  1.
         25    2    1    2    0    0  0.22499184540E+02 -0.88893900664E+02 -0.37903785964E+03  0.40954346847E+03  0.12509122531E+03 0.  0.
          5    1    3    3  502    0 -0.11497367470E+02 -0.67753840250E+01 -0.26274537132E+03  0.26311727012E+03  0.41800000000E+01 0. -1.
         -5    1    3    3    0  502  0.33996552010E+02 -0.82118516639E+02 -0.11629248832E+03  0.14642619835E+03  0.41800000000E+01 0. -1.
        -11    1    1    2    0    0 -0.38935239110E+02  0.23063231521E+01 -0.36889471955E+00  0.39005231116E+02  0.00000000000E+00 0.  1.
         11    1    1    2    0    0  0.16436054570E+02  0.86587577512E+02 -0.36460801927E+02  0.95377893384E+02  0.00000000000E+00 0. -1.
</event>
<event>
 7    1  0.2666594E-009  0.1061839E+03  0.7561462E-02  0.1267804E+00
         -2   -1    0    0    0  501 -0.00000000000E+00  0.00000000000E+00  0.48932235744E+02  0.48932235744E+02  0.00000000000E+00 0. -1.
          2   -1    0    0  501    0  0.00000000000E+00 -0.00000000000E+00 -0.26984913966E+03  0.26984913966E+03  0.00000000000E+00 0.  1.
         25    2    1    2    0    0  0.38737933584E+02 -0.13073187499E+02 -0.97378829414E+02  0.16371049961E+03  0.12508779131E+03 0.  0.
          5    1    3    3  502    0  0.18443315636E+01  0.47559111265E+02 -0.75454480619E+02  0.89309135415E+02  0.41800000000E+01 0.  1.
         -5    1    3    3    0  502  0.36893602021E+02 -0.60632298764E+02 -0.21924348796E+02  0.74401364191E+02  0.41800000000E+01 0.  1.
        -11    1    1    2    0    0 -0.46959232722E+02 -0.25922615670E+02 -0.76292352083E+02  0.93261323856E+02  0.00000000000E+00 0.  1.
         11    1    1    2    0    0  0.82212991373E+01  0.38995803169E+02 -0.47245722415E+02  0.61809551938E+02  0.00000000000E+00 0. -1.
</event>
<event>
 7    1  0.2666594E-009  0.1362063E+03  0.7561462E-02  0.1218527E+00
          1   -1    0    0  501    0  0.00000000000E+00  0.00000000000E+00  0.11858974074E+04  0.11858974074E+04  0.00000000000E+00 0. -1.
         -1   -1    0    0    0  501 -0.00000000000E+00 -0.00000000000E+00 -0.28524132193E+02  0.28524132193E+02  0.00000000000E+00 0.  1.
         25    2    1    2    0    0  0.98481085066E+02 -0.29214376351E+02  0.96767247769E+03  0.98111657802E+03  0.12509081376E+03 0.  0.
          5    1    3    3  502    0  0.24646405482E+02 -0.71940889071E+02  0.48577255080E+03  0.49170659985E+03  0.41800000000E+01 0. -1.
         -5    1    3    3    0  502  0.73834679584E+02  0.42726512719E+02  0.48189992689E+03  0.48940997817E+03  0.41800000000E+01 0. -1.
        -11    1    1    2    0    0 -0.61114990273E+02 -0.34514986031E+01  0.16861109969E+03  0.17937853221E+03  0.00000000000E+00 0. -1.
         11    1    1    2    0    0 -0.37366094793E+02  0.32665874955E+02  0.21089697783E+02  0.53926429320E+02  0.00000000000E+00 0.  1.
</event>
<event>
 7    1  0.2666594E-009  0.1277747E+03  0.7561462E-02  0.1230796E+00
         -2   -1    0    0    0  501 -0.00000000000E+00  0.00000000000E+00  0.12139446333E+03  0.12139446333E+03  0.00000000000E+00 0.  1.
          2   -1    0    0  501    0  0.00000000000E+00 -0.00000000000E+00 -0.21156181712E+03  0.21156181712E+03  0.00000000000E+00 0. -1.
         25    2    1    2    0    0 -0.88558693309E+02  0.39570240297E+02 -0.11635716121E+03  0.19645815458E+03  0.12509345090E+03 0.  0.
          5    1    3    3  502    0  0.17163146878E+02  0.48869968812E+02 -0.34715532230E+02  0.62493904026E+02  0.41800000000E+01 0.  1.
         -5    1    3    3    0  502 -0.10572184019E+03 -0.92997285151E+01 -0.81641628982E+02  0.13396425055E+03  0.41800000000E+01 0.  1.
        -11    1    1    2    0    0  0.48269629337E+02 -0.26206357753E+02  0.60649750658E+02  0.81823728575E+02  0.00000000000E+00 0.  1.
         11    1    1    2    0    0  0.40289063972E+02 -0.13363882543E+02 -0.34459943235E+02  0.54674397300E+02  0.00000000000E+00 0. -1.
</event>
<event>
 7    1  0.2666594E-009  0.8218458E+02  0.7561462E-02  0.1322964E+00
         -1   -1    0    0    0  501 -0.00000000000E+00  0.00000000000E+00  0.82191399511E+02  0.82191399511E+02  0.00000000000E+00 0.  1.
          1   -1    0    0  501    0  0.00000000000E+00 -0.00000000000E+00 -0.24332443554E+03  0.24332443554E+03  0.00000000000E+00 0. -1.
         25    2    1    2    0    0  0.53630964445E+02  0.35356263754E+02 -0.20527548244E+02  0.14211303566E+03  0.12509352075E+03 0.  0.
          5    1    3    3  502    0 -0.12654741169E+02  0.19302273044E+02 -0.59144285720E+02  0.63625774274E+02  0.41800000000E+01 0.  1.
         -5    1    3    3    0  502  0.66285705614E+02  0.16053990710E+02  0.38616737475E+02  0.78487261385E+02  0.41800000000E+01 0.  1.
        -11    1    1    2    0    0 -0.31341102506E+02 -0.38962277682E+02 -0.15061907468E+03  0.15870232968E+03  0.00000000000E+00 0. -1.
         11    1    1    2    0    0 -0.22289861939E+02  0.36060139282E+01  0.10013586893E+02  0.24700469715E+02  0.00000000000E+00 0.  1.
</event>
<event>
 7    1  0.2666594E-009  0.2000738E+03  0.7561462E-02  0.1149677E+00
          2   -1    0    0  501    0  0.00000000000E+00  0.00000000000E+00  0.22701980938E+04  0.22701980938E+04  0.00000000000E+00 0. -1.
         -2   -1    0    0    0  501 -0.00000000000E+00 -0.00000000000E+00 -0.25484959288E+02  0.25484959288E+02  0.00000000000E+00 0.  1.
         25    2    1    2    0    0  0.18945262257E+03  0.64934176914E+01  0.16382016844E+04  0.16538707287E+04  0.12509663391E+03 0.  0.
          5    1    3    3  502    0  0.18631648342E+02 -0.23162126961E+02  0.64087735131E+03  0.64157998275E+03  0.41800000000E+01 0. -1.
         -5    1    3    3    0  502  0.17082097423E+03  0.29655544652E+02  0.99732433311E+03  0.10122907460E+04  0.41800000000E+01 0. -1.
        -11    1    1    2    0    0 -0.87380770694E+02  0.23184139137E+02  0.39349286670E+03  0.40374439877E+03  0.00000000000E+00 0.  1.
         11    1    1    2    0    0 -0.10207185188E+03 -0.29677556828E+02  0.21301858336E+03  0.23806792556E+03  0.00000000000E+00 0. -1.
</event>
<event>
 7    1  0.2666594E-009  0.8939797E+02  0.7561462E-02  0.1304316E+00
         -1   -1    0    0    0  501 -0.00000000000E+00  0.00000000000E+00  0.49789989203E+02  0.49789989203E+02  0.00000000000E+00 0.  1.
          1   -1    0    0  501    0  0.00000000000E+00 -0.00000000000E+00 -0.25570020401E+03  0.25570020401E+03  0.00000000000E+00 0. -1.
         25    2    1    2    0    0  0.43358501317E+01  0.21837895466E+02 -0.82837048892E+02  0.15167464623E+03  0.12509008100E+03 0.  0.
          5    1    3    3  502    0  0.40278538991E+02  0.38816694190E+02 -0.94625182506E+02  0.11000224550E+03  0.41800000000E+01 0.  1.
         -5    1    3    3    0  502 -0.35942688859E+02 -0.16978798724E+02  0.11788133614E+02  0.41672400731E+02  0.41800000000E+01 0.  1.
        -11    1    1    2    0    0 -0.40065343288E+02  0.14343645701E+01 -0.25982963884E+02  0.47774507289E+02  0.00000000000E+00 0.  1.
         11    1    1    2    0    0  0.35729493157E+02 -0.23272260036E+02 -0.97090202035E+02  0.10604103970E+03  0.00000000000E+00 0. -1.
</event>
<event>
 7    1  0.2666594E-009  0.1406719E+03  0.7561462E-02  0.1212428E+00
          1   -1    0    0  501    0  0.00000000000E+00  0.00000000000E+00  0.10159825496E+03  0.10159825496E+03  0.00000000000E+00 0. -1.
         -1   -1    0    0    0  501 -0.00000000000E+00 -0.00000000000E+00 -0.39485256627E+03  0.39485256627E+03  0.00000000000E+00 0.  1.
         25    2    1    2    0    0 -0.11145839288E+03 -0.32010404594E+02 -0.30240081376E+03  0.34719104456E+03  0.12509088662E+03 0.  0.
          5    1    3    3  502    0 -0.73387500753E+02  0.38518765579E+02 -0.10318366358E+03  0.13241511016E+03  0.41800000000E+01 0.  1.
         -5    1    3    3    0  502 -0.38070892123E+02 -0.70529170172E+02 -0.19921715018E+03  0.21477593441E+03  0.41800000000E+01 0.  1.
        -11    1    1    2    0    0  0.22832750804E+02 -0.25472738113E+01  0.42619521412E+02  0.48417421643E+02  0.00000000000E+00 0. -1.
         11    1    1    2    0    0  0.88625642072E+02  0.34557678405E+02 -0.33473018958E+02  0.10084235503E+03  0.00000000000E+00 0.  1.
</event>
<event>
 7    1  0.2666594E-009  0.1203724E+03  0.7561462E-02  0.1242484E+00
          3   -1    0    0  501    0  0.00000000000E+00  0.00000000000E+00  0.41917177944E+02  0.41917177944E+02  0.00000000000E+00 0. -1.
         -3   -1    0    0    0  501 -0.00000000000E+00 -0.00000000000E+00 -0.68801769781E+03  0.68801769781E+03  0.00000000000E+00 0.  1.
         25    2    1    2    0    0 -0.67211292845E+02 -0.26123108867E+02 -0.11008160327E+03  0.18156206690E+03  0.12508816913E+03 0.  0.
          5    1    3    3  502    0 -0.73387676083E+02 -0.57144742020E+02 -0.34101143780E+02  0.99154591162E+02  0.41800000000E+01 0.  1.
         -5    1    3    3    0  502  0.61763832373E+01  0.31021633153E+02 -0.75980459489E+02  0.82407475738E+02  0.41800000000E+01 0.  1.
        -11    1    1    2    0    0  0.59627126229E+02 -0.24559080032E+02 -0.30221127087E+03  0.30901487802E+03  0.00000000000E+00 0. -1.
         11    1    1    2    0    0  0.75841666165E+01  0.50682188899E+02 -0.23380764572E+03  0.23935793083E+03  0.00000000000E+00 0.  1.
</event>
<event>
 7    1  0.3432601E-009  0.1371919E+03  0.7561462E-02  0.1217158E+00
         -2   -1    0    0    0  501 -0.00000000000E+00  0.00000000000E+00  0.27308139559E+02  0.27308139559E+02  0.00000000000E+00 0. -1.
          2   -1    0    0  501    0  0.00000000000E+00 -0.00000000000E+00 -0.77261582570E+03  0.77261582570E+03  0.00000000000E+00 0.  1.
         25    2    1    2    0    0  0.32733191929E+02 -0.90603243709E+02 -0.41229210937E+03  0.44149018259E+03  0.12509351802E+03 0.  0.
          5    1    3    3  502    0  0.43603905748E+02  0.72582545605E+01 -0.54099590664E+02  0.69987291459E+02  0.41800000000E+01 0.  1.
         -5    1    3    3    0  502 -0.10870713819E+02 -0.97861498269E+02 -0.35819251871E+03  0.37150289114E+03  0.41800000000E+01 0.  1.
        -11    1    1    2    0    0  0.29808997978E+02  0.45205022137E+02 -0.16081086308E+03  0.16968265696E+03  0.00000000000E+00 0. -1.
         11    1    1    2    0    0 -0.62542189907E+02  0.45398221572E+02 -0.17220471368E+03  0.18875112571E+03  0.00000000000E+00 0.  1.
</event>
<event>
 7    1  0.2666594E-009  0.8566852E+02  0.7561462E-02  0.1313693E+00
          4   -1    0    0  501    0  0.00000000000E+00  0.00000000000E+00  0.42287981904E+03  0.42287981904E+03  0.00000000000E+00 0. -1.
         -4   -1    0    0    0  501 -0.00000000000E+00 -0.00000000000E+00 -0.76010048810E+02  0.76010048810E+02  0.00000000000E+00 0.  1.
         25    2    1    2    0    0 -0.32810189720E+02 -0.99515973248E+01 -0.64389188191E+01  0.12985615010E+03  0.12508244163E+03 0.  0.
          5    1    3    3  502    0 -0.34113758867E+02 -0.35165766290E+02 -0.55727585951E+02  0.74319687155E+02  0.41800000000E+01 0.  1.
         -5    1    3    3    0  502  0.13035691473E+01  0.25214168966E+02  0.49288667132E+02  0.55536462948E+02  0.41800000000E+01 0.  1.
        -11    1    1    2    0    0  0.64398014809E+02  0.48941504999E+01  0.29991727975E+03  0.30679216371E+03  0.00000000000E+00 0. -1.
         11    1    1    2    0    0 -0.31587825089E+02  0.50574468249E+01  0.53391409302E+02  0.62241554042E+02  0.00000000000E+00 0.  1.
</event>
<event>
 7    1  0.2666594E-009  0.1063946E+03  0.7561462E-02  0.1267396E+00
         -1   -1    0    0    0  501 -0.00000000000E+00  0.00000000000E+00  0.42109783722E+02  0.42109783722E+02  0.00000000000E+00 0.  1.
          1   -1    0    0  501    0  0.00000000000E+00 -0.00000000000E+00 -0.42847821274E+03  0.42847821274E+03  0.00000000000E+00 0. -1.
         25    2    1    2    0    0  0.40960758492E+02 -0.26948802480E+02 -0.10487240384E+03  0.17044121415E+03  0.12509182508E+03 0.  0.
          5    1    3    3  502    0  0.85498523639E+02 -0.18085536686E+02 -0.57547790258E+02  0.10472012579E+03  0.41800000000E+01 0.  1.
         -5    1    3    3    0  502 -0.44537765147E+02 -0.88632657941E+01 -0.47324613578E+02  0.65721088359E+02  0.41800000000E+01 0.  1.
        -11    1    1    2    0    0 -0.13153196437E+02  0.44773609317E+02 -0.25063707676E+03  0.25494436043E+03  0.00000000000E+00 0. -1.
         11    1    1    2    0    0 -0.27807562055E+02 -0.17824806837E+02 -0.30858948414E+02  0.45202421876E+02  0.00000000000E+00 0.  1.
</event>
<event>
 7    1  0.2666594E-009  0.1610232E+03  0.7561462E-02  0.1187546E+00
         -1   -1    0    0    0  501 -0.00000000000E+00  0.00000000000E+00  0.18214903255E+03  0.18214903255E+03  0.00000000000E+00 0.  1.
          1   -1    0    0  501    0  0.00000000000E+00 -0.00000000000E+00 -0.23169970368E+03  0.23169970368E+03  0.00000000000E+00 0. -1.
         25    2    1    2    0    0  0.12275740500E+03 -0.53382357645E+02  0.76547103169E+02  0.19856273970E+03  0.12509454826E+03 0.  0.
          5    1    3    3  502    0  0.87521286120E+02 -0.76760536782E+02  0.65440345323E+01  0.11667241456E+03  0.41800000000E+01 0. -1.
         -5    1    3    3    0  502  0.35236118880E+02  0.23378179137E+02  0.70003068637E+02  0.81890325143E+02  0.41800000000E+01 0. -1.
        -11    1    1    2    0    0  0.74394134429E+01  0.29844804434E+02  0.23970755979E+01  0.30851307841E+02  0.00000000000E+00 0.  1.
         11    1    1    2    0    0 -0.13019681844E+03  0.23537553211E+02 -0.12849484989E+03  0.18443468869E+03  0.00000000000E+00 0. -1.
</event>
<event>
 7    1  0.2666594E-009  0.1135152E+03  0.7561462E-02  0.1254195E+00
          2   -1    0    0  501    0  0.00000000000E+00  0.00000000000E+00  0.21086078269E+03  0.21086078269E+03  0.00000000000E+00 0. -1.
         -2   -1    0    0    0  501 -0.00000000000E+00 -0.00000000000E+00 -0.13856756704E+03  0.13856756704E+03  0.00000000000E+00 0.  1.
         25    2    1    2    0    0 -0.90690666463E+02  0.76819444428E+01  0.13513322387E+03  0.20540786484E+03  0.12509034132E+03 0.  0.
          5    1    3    3  502    0  0.71638498043E+01 -0.13651188505E+02  0.96766798995E+02  0.98076304373E+02  0.41800000000E+01 0.  1.
         -5    1    3    3    0  502 -0.97854516267E+02  0.21333132948E+02  0.38366424879E+02  0.10733156047E+03  0.41800000000E+01 0.  1.
        -11    1    1    2    0    0  0.34538465523E+01  0.19218772485E+02  0.14541788218E+02  0.24346537257E+02  0.00000000000E+00 0. -1.
         11    1    1    2    0    0  0.87236819911E+02 -0.26900716927E+02 -0.77381796449E+02  0.11967394763E+03  0.00000000000E+00 0.  1.
</event>
<event>
 7    1  0.2666594E-009  0.1016303E+03  0.7561462E-02  0.1276905E+00
          1   -1    0    0  501    0  0.00000000000E+00  0.00000000000E+00  0.17285338102E+03  0.17285338102E+03  0.00000000000E+00 0. -1.
         -1   -1    0    0    0  501 -0.00000000000E+00 -0.00000000000E+00 -0.11395827562E+03  0.11395827562E+03  0.00000000000E+00 0.  1.
         25    2    1    2    0    0  0.26428209888E+02 -0.84714844746E+02  0.15019893918E+02  0.15409556432E+03  0.12507913707E+03 0.  0.
          5    1    3    3  502    0  0.34670822033E+01  0.12981368932E+02 -0.37995847778E+02  0.40517816411E+02  0.41800000000E+01 0. -1.
         -5    1    3    3    0  502  0.22961127684E+02 -0.97696213678E+02  0.53015741696E+02  0.11357774791E+03  0.41800000000E+01 0. -1.
        -11    1    1    2    0    0 -0.96971982070E+01  0.30060961479E+02 -0.27078124932E+02  0.41604349628E+02  0.00000000000E+00 0.  1.
         11    1    1    2    0    0 -0.16731011681E+02  0.54653883267E+02  0.70953336413E+02  0.91111742690E+02  0.00000000000E+00 0. -1.
</event>
<event>
 7    1  0.2666594E-009  0.1012616E+03  0.7561462E-02  0.1277665E+00
         -1   -1    0    0    0  501 -0.00000000000E+00  0.00000000000E+00  0.56019861457E+02  0.56019861457E+02  0.00000000000E+00 0.  1.
          1   -1    0    0  501    0  0.00000000000E+00 -0.00000000000E+00 -0.28878211405E+03  0.28878211405E+03  0.00000000000E+00 0. -1.
         25    2    1    2    0    0  0.31523305223E+01  0.57524121339E+02 -0.16859037134E+03  0.21768973071E+03  0.12508854394E+03 0.  0.
          5    1    3    3  502    0  0.53606740901E+02  0.17752398669E+02 -0.13201119051E+03  0.14364281099E+03  0.41800000000E+01 0. -1.
         -5    1    3    3    0  502 -0.50454410378E+02  0.39771722670E+02 -0.36579180831E+02  0.74046919727E+02  0.41800000000E+01 0. -1.
        -11    1    1    2    0    0 -0.30192116157E+02 -0.35806322428E+02 -0.77007033573E+02  0.90131791415E+02  0.00000000000E+00 0. -1.
         11    1    1    2    0    0  0.27039785634E+02 -0.21717798911E+02  0.12835152324E+02  0.36980453376E+02  0.00000000000E+00 0.  1.
</event>
<event>
 7    1  0.2666594E-009  0.1020865E+03  0.7561462E-02  0.1275968E+00
         -1   -1    0    0    0  501 -0.00000000000E+00  0.00000000000E+00  0.10065406379E+03  0.10065406379E+03  0.00000000000E+00 0.  1.
          1   -1    0    0  501    0  0.00000000000E+00 -0.00000000000E+00 -0.17628531213E+03  0.17628531213E+03  0.00000000000E+00 0. -1.
         25    2    1    2    0    0  0.19706819633E+02  0.71571882651E+02 -0.34854743351E+02  0.14957590415E+03  0.12508878784E+03 0.  0.
          5    1    3    3  502    0  0.89200436976E+01 -0.21915952540E+02  0.27568001157E+02  0.36569703897E+02  0.41800000000E+01 0.  1.
         -5    1    3    3    0  502  0.10786775935E+02  0.93487835191E+02 -0.62422744508E+02  0.11300620025E+03  0.41800000000E+01 0.  1.
        -11    1    1    2    0    0 -0.32970144461E+02 -0.40949359688E+02 -0.66827213230E+02  0.85027977235E+02  0.00000000000E+00 0. -1.
         11    1    1    2    0    0  0.13263324828E+02 -0.30622522963E+02  0.26050708242E+02  0.42335494541E+02  0.00000000000E+00 0.  1.
</event>
<event>
 7    1  0.2666594E-009  0.1056978E+03  0.7561462E-02  0.1268751E+00
          2   -1    0    0  501    0  0.00000000000E+00  0.00000000000E+00  0.30035495447E+02  0.30035495447E+02  0.00000000000E+00 0.  1.
         -2   -1    0    0    0  501 -0.00000000000E+00 -0.00000000000E+00 -0.56295049197E+03  0.56295049197E+03  0.00000000000E+00 0. -1.
         25    2    1    2    0    0 -0.67250730182E+02  0.22513007726E+02 -0.30650504436E+03  0.33855959632E+03  0.12509101413E+03 0.  0.
          5    1    3    3  502    0  0.18307440395E+02 -0.99280432559E+01 -0.29006725456E+01  0.21438626773E+02  0.41800000000E+01 0.  1.
         -5    1    3    3    0  502 -0.85558170577E+02  0.32441050982E+02 -0.30360437182E+03  0.31712096955E+03  0.41800000000E+01 0.  1.
        -11    1    1    2    0    0  0.45777412665E+02  0.20747770584E+02 -0.47650981449E+02  0.69257905885E+02  0.00000000000E+00 0.  1.
         11    1    1    2    0    0  0.21473317516E+02 -0.43260778310E+02 -0.17875897071E+03  0.18516848521E+03  0.00000000000E+00 0. -1.
</event>
<event>
 7    1  0.2666594E-009  0.9616780E+02  0.7561462E-02  0.1288567E+00
          1   -1    0    0  501    0  0.00000000000E+00  0.00000000000E+00  0.20890782968E+03  0.20890782968E+03  0.00000000000E+00 0. -1.
         -1   -1    0    0    0  501 -0.00000000000E+00 -0.00000000000E+00 -0.73890669003E+02  0.73890669003E+02  0.00000000000E+00 0.  1.
         25    2    1    2    0    0  0.70162873723E+01  0.22480851876E+02  0.13968086330E+03  0.18899183512E+03  0.12511016417E+03 0.  0.
          5    1    3    3  502    0  0.38606944171E+02 -0.23232453813E+02  0.12263753947E+03  0.13071985900E+03  0.41800000000E+01 0.  1.
         -5    1    3    3    0  502 -0.31590656799E+02  0.45713305689E+02  0.17043323829E+02  0.58271976121E+02  0.41800000000E+01 0.  1.
        -11    1    1    2    0    0 -0.19570197008E+02 -0.53997837956E+02 -0.12966301802E+02  0.58880252185E+02  0.00000000000E+00 0. -1.
         11    1    1    2    0    0  0.12553909636E+02  0.31516986081E+02  0.83025991770E+01  0.34926411380E+02  0.00000000000E+00 0.  1.
</event>
<event>
 7    1  0.2666594E-009  0.1104253E+03  0.7561462E-02  0.1259784E+00
         -1   -1    0    0    0  501 -0.00000000000E+00  0.00000000000E+00  0.13185998127E+02  0.13185998127E+02  0.00000000000E+00 0.  1.
          1   -1    0    0  501    0  0.00000000000E+00 -0.00000000000E+00 -0.11519786096E+04  0.11519786096E+04  0.00000000000E+00 0. -1.
         25    2    1    2    0    0 -0.53388774101E+02 -0.65148577757E+01 -0.74740625073E+03  0.75970873622E+03  0.12509378752E+03 0.  0.
          5    1    3    3  502    0 -0.70500912280E+02  0.42831355796E+02 -0.50438023232E+03  0.51109861556E+03  0.41800000000E+01 0.  1.
         -5    1    3    3    0  502  0.17112138179E+02 -0.49346213571E+02 -0.24302601841E+03  0.24861012065E+03  0.41800000000E+01 0.  1.
        -11    1    1    2    0    0 -0.13783458651E+02 -0.95771168769E+01 -0.14164468987E+02  0.21962173885E+02  0.00000000000E+00 0.  1.
         11    1    1    2    0    0  0.67172232752E+02  0.16091974653E+02 -0.37722189176E+03  0.38349369763E+03  0.00000000000E+00 0. -1.
</event>
<event>
 7    1  0.2666594E-009  0.9103556E+02  0.7561462E-02  0.1300363E+00
         -1   -1    0    0    0  501 -0.00000000000E+00  0.00000000000E+00  0.23165965133E+03  0.23165965133E+03  0.00000000000E+00 0.  1.
          1   -1    0    0  501    0  0.00000000000E+00 -0.00000000000E+00 -0.69450472695E+02  0.69450472695E+02  0.00000000000E+00 0. -1.
         25    2    1    2    0    0  0.61201313201E+02 -0.22715165267E+02  0.85058417153E+02  0.16475863988E+03  0.12509554595E+03 0.  0.
          5    1    3    3  502    0  0.62954069640E+02 -0.58002881880E+01 -0.13395633242E+02  0.64759351581E+02  0.41800000000E+01 0.  1.
         -5    1    3    3    0  502 -0.17527564385E+01 -0.16914877079E+02  0.98454050395E+02  0.99999288302E+02  0.41800000000E+01 0.  1.
        -11    1    1    2    0    0 -0.61460016381E+02  0.46715555251E+02  0.28845792090E+02  0.82412113413E+02  0.00000000000E+00 0.  1.
         11    1    1    2    0    0  0.25870317943E+00 -0.24000389983E+02  0.48304969391E+02  0.53939370728E+02  0.00000000000E+00 0. -1.
</event>
<event>
 7    1  0.2666594E-009  0.1772941E+03  0.7561462E-02  0.1170448E+00
         -4   -1    0    0    0  501 -0.00000000000E+00  0.00000000000E+00  0.39238767936E+03  0.39238767936E+03  0.00000000000E+00 0.  1.
          4   -1    0    0  501    0  0.00000000000E+00 -0.00000000000E+00 -0.87205971081E+02  0.87205971081E+02  0.00000000000E+00 0. -1.
         25    2    1    2    0    0  0.10542249239E+03 -0.94604120407E+02  0.12236075999E+03  0.22512904941E+03  0.12508833600E+03 0.  0.
          5    1    3    3  502    0  0.42196193827E+02  0.19885341618E+02  0.69923915221E+02  0.84159205703E+02  0.41800000000E+01 0.  1.
         -5    1    3    3    0  502  0.63226298564E+02 -0.11448946203E+03  0.52436844774E+02  0.14096984371E+03  0.41800000000E+01 0.  1.
        -11    1    1    2    0    0 -0.65114423473E+01  0.75970446508E+02  0.83036600876E+02  0.11273413285E+03  0.00000000000E+00 0. -1.
         11    1    1    2    0    0 -0.98911050043E+02  0.18633673900E+02  0.99784347410E+02  0.14173046818E+03  0.00000000000E+00 0.  1.
</event>
<event>
 7    1  0.2666594E-009  0.1599526E+03  0.7561462E-02  0.1188750E+00
         -1   -1    0    0    0  501 -0.00000000000E+00  0.00000000000E+00  0.37699192960E+03  0.37699192960E+03  0.00000000000E+00 0.  1.
          1   -1    0    0  501    0  0.00000000000E+00 -0.00000000000E+00 -0.95361208490E+02  0.95361208490E+02  0.00000000000E+00 0. -1.
         25    2    1    2    0    0 -0.10401858106E+03 -0.82470777013E+02  0.47794150990E+02  0.18855484446E+03  0.12508938497E+03 0.  0.
          5    1    3    3  502    0 -0.68660455776E+02  0.21775399623E+02  0.16082779166E+02  0.73922624425E+02  0.41800000000E+01 0. -1.
         -5    1    3    3    0  502 -0.35358125288E+02 -0.10424617664E+03  0.31711371824E+02  0.11463222004E+03  0.41800000000E+01 0. -1.
        -11    1    1    2    0    0  0.89779835106E+02  0.51486824980E+02  0.93824645285E+02  0.13969386529E+03  0.00000000000E+00 0. -1.
         11    1    1    2    0    0  0.14238745958E+02  0.30983952033E+02  0.14001192483E+03  0.14410442833E+03  0.00000000000E+00 0.  1.
</event>
<event>
 7    1  0.2666594E-009  0.1015479E+03  0.7561462E-02  0.1277074E+00
         -1   -1    0    0    0  501 -0.00000000000E+00  0.00000000000E+00  0.19406637709E+02  0.19406637709E+02  0.00000000000E+00 0.  1.
          1   -1    0    0  501    0  0.00000000000E+00 -0.00000000000E+00 -0.85064578636E+03  0.85064578636E+03  0.00000000000E+00 0. -1.
         25    2    1    2    0    0 -0.18626147596E+02  0.53946985352E+02 -0.58677766890E+03  0.60267120139E+03  0.12508930275E+03 0.  0.
          5    1    3    3  502    0 -0.40755712823E+02 -0.29473089739E+02 -0.24459080034E+03  0.24974351474E+03  0.41800000000E+01 0.  1.
         -5    1    3    3    0  502  0.22129565227E+02  0.83420075092E+02 -0.34218686856E+03  0.35292768665E+03  0.41800000000E+01 0.  1.
        -11    1    1    2    0    0  0.26299297762E+01 -0.49564235995E+02 -0.24578147023E+03  0.25074301811E+03  0.00000000000E+00 0. -1.
         11    1    1    2    0    0  0.15996217820E+02 -0.43827493567E+01  0.13199904816E+01  0.16638204571E+02  0.00000000000E+00 0.  1.
</event>
<event>
 7    1  0.2692018E-009  0.1235035E+03  0.7561462E-02  0.1237427E+00
         -1   -1    0    0    0  501 -0.00000000000E+00  0.00000000000E+00  0.93172997042E+01  0.93172997042E+01  0.00000000000E+00 0.  1.
          1   -1    0    0  501    0  0.00000000000E+00 -0.00000000000E+00 -0.18208169461E+04  0.18208169461E+04  0.00000000000E+00 0. -1.
         25    2    1    2    0    0 -0.54329065872E+02 -0.25626710502E+02 -0.12841286508E+04  0.12916043626E+04  0.12508821743E+03 0.  0.
          5    1    3    3  502    0  0.34637534127E+02 -0.34223887619E+02 -0.40713281463E+03  0.41005564793E+03  0.41800000000E+01 0. -1.
         -5    1    3    3    0  502 -0.88966599999E+02  0.85971771169E+01 -0.87699583612E+03  0.88154871467E+03  0.41800000000E+01 0. -1.
        -11    1    1    2    0    0 -0.77569602677E+01 -0.26485653937E+02 -0.11470861515E+03  0.11798189135E+03  0.00000000000E+00 0.  1.
         11    1    1    2    0    0  0.62086026139E+02  0.52112364438E+02 -0.41266238047E+03  0.42054799182E+03  0.00000000000E+00 0. -1.
</event>
<event>
 7    1  0.2666594E-009  0.1553689E+03  0.7561462E-02  0.1194027E+00
          4   -1    0    0  501    0  0.00000000000E+00  0.00000000000E+00  0.12704886606E+03  0.12704886606E+03  0.00000000000E+00 0. -1.
         -4   -1    0    0    0  501 -0.00000000000E+00 -0.00000000000E+00 -0.25008036082E+03  0.25008036082E+03  0.00000000000E+00 0.  1.
         25    2    1    2    0    0  0.12239322971E+03  0.61199353785E+02 -0.10174069358E+03  0.21148264026E+03  0.12509306463E+03 0.  0.
          5    1    3    3  502    0  0.12287040185E+02 -0.90452696864E+01  0.24908092946E+02  0.29507181404E+02  0.41800000000E+01 0. -1.
         -5    1    3    3    0  502  0.11010618952E+03  0.70244623471E+02 -0.12664878653E+03  0.18197545886E+03  0.41800000000E+01 0. -1.
        -11    1    1    2    0    0 -0.45584029220E+02 -0.73470703789E+02 -0.97264989233E+01  0.87008349119E+02  0.00000000000E+00 0.  1.
         11    1    1    2    0    0 -0.76809200490E+02  0.12271350004E+02 -0.11564302262E+02  0.78638237503E+02  0.00000000000E+00 0. -1.
</event>
<event>
 7    1  0.2666594E-009  0.9869725E+02  0.7561462E-02  0.1283060E+00
          2   -1    0    0  501    0  0.00000000000E+00  0.00000000000E+00  0.75185347133E+03  0.75185347133E+03  0.00000000000E+00 0. -1.
         -2   -1    0    0    0  501 -0.00000000000E+00 -0.00000000000E+00 -0.15888141666E+02  0.15888141666E+02  0.00000000000E+00 0.  1.
         25    2    1    2    0    0  0.72466684365E+01  0.73885043263E+00  0.46153911302E+03  0.47824362944E+03  0.12508219758E+03 0.  0.
          5    1    3    3  502    0  0.66384498924E+01 -0.54956958459E+02  0.12065316642E+03  0.13281187924E+03  0.41800000000E+01 0.  1.
         -5    1    3    3    0  502  0.60821854409E+00  0.55695808892E+02  0.34088594660E+03  0.34543175020E+03  0.41800000000E+01 0.  1.
        -11    1    1    2    0    0  0.39151908963E+02 -0.48176305221E+01  0.75414459457E+02  0.85108297096E+02  0.00000000000E+00 0. -1.
         11    1    1    2    0    0 -0.46398577400E+02  0.40787800894E+01  0.19901175719E+03  0.20438968646E+03  0.00000000000E+00 0.  1.
</event>
<event>
 7    1  0.2666594E-009  0.3665740E+03  0.7561462E-02  0.1056011E+00
         -1   -1    0    0    0  501 -0.00000000000E+00  0.00000000000E+00  0.10659177739E+03  0.10659177739E+03  0.00000000000E+00 0.  1.
          1   -1    0    0  501    0  0.00000000000E+00 -0.00000000000E+00 -0.17118891398E+04  0.17118891398E+04  0.00000000000E+00 0. -1.
         25    2    1    2    0    0 -0.14769443935E+03  0.33275007017E+03 -0.12276263603E+04  0.12865651737E+04  0.12508880499E+03 0.  0.
          5    1    3    3  502    0 -0.13283207500E+03  0.32591346668E+03 -0.10351828981E+04  0.10933823910E+04  0.41800000000E+01 0.  1.
         -5    1    3    3    0  502 -0.14862364354E+02  0.68366034963E+01 -0.19244346217E+03  0.19318278275E+03  0.41800000000E+01 0.  1.
        -11    1    1    2    0    0  0.12179680070E+03 -0.28592958993E+03 -0.27003659380E+03  0.41171586446E+03  0.00000000000E+00 0.  1.
         11    1    1    2    0    0  0.25897638654E+02 -0.46820480240E+02 -0.10763440829E+03  0.12019987897E+03  0.00000000000E+00 0. -1.
</event>
<event>
 7    1  0.3236390E-009  0.2978182E+03  0.7561462E-02  0.1086336E+00
          1   -1    0    0  501    0  0.00000000000E+00  0.00000000000E+00  0.77839824732E+03  0.77839824732E+03  0.00000000000E+00 0. -1.
         -1   -1    0    0    0  501 -0.00000000000E+00 -0.00000000000E+00 -0.16513961980E+03  0.16513961980E+03  0.00000000000E+00 0.  1.
         25    2    1    2    0    0  0.84404402839E+02  0.26908202539E+03  0.56436573431E+03  0.64318363819E+03  0.12508905134E+03 0.  0.
          5    1    3    3  502    0 -0.31147879169E+02  0.82732628585E+02  0.14321909403E+03  0.16835694077E+03  0.41800000000E+01 0. -1.
         -5    1    3    3    0  502  0.11555228201E+03  0.18634939681E+03  0.42114664028E+03  0.47482669742E+03  0.41800000000E+01 0. -1.
        -11    1    1    2    0    0 -0.84825685334E+02 -0.18255686095E+03  0.66603611002E+02  0.21203406653E+03  0.00000000000E+00 0. -1.
         11    1    1    2    0    0  0.42128249533E+00 -0.86525164441E+02 -0.17710717800E+02  0.88320162395E+02  0.00000000000E+00 0.  1.
</event>
<event>
 7    1  0.2666594E-009  0.5273116E+02  0.7561462E-02  0.1431143E+00
          2   -1    0    0  501    0  0.00000000000E+00  0.00000000000E+00  0.52795352737E+03  0.52795352737E+03  0.00000000000E+00 0. -1.
         -2   -1    0    0    0  501 -0.00000000000E+00 -0.00000000000E+00 -0.26749738651E+02  0.26749738651E+02  0.00000000000E+00 0.  1.
         25    2    1    2    0    0  0.13876621624E+02 -0.22498909483E+02  0.40764258317E+03  0.42722619706E+03  0.12510390194E+03 0.  0.
          5    1    3    3  502    0  0.91220734459E+01 -0.28735255878E+02  0.41473872079E+03  0.41585406824E+03  0.41800000000E+01 0.  1.
         -5    1    3    3    0  502  0.47545481780E+01  0.62363463955E+01 -0.70961376129E+01  0.11372128814E+02  0.41800000000E+01 0.  1.
        -11    1    1    2    0    0 -0.32997691484E+02  0.30943165514E+02  0.17346919155E+02  0.48448351256E+02  0.00000000000E+00 0.  1.
         11    1    1    2    0    0  0.19121069860E+02 -0.84442560313E+01  0.76214286387E+02  0.79028717704E+02  0.00000000000E+00 0. -1.
</event>
<event>
 7    1  0.2666594E-009  0.7785648E+02  0.7561462E-02  0.1335247E+00
         -1   -1    0    0    0  501 -0.00000000000E+00  0.00000000000E+00  0.44110731139E+02  0.44110731139E+02  0.00000000000E+00 0.  1.
          1   -1    0    0  501    0  0.00000000000E+00 -0.00000000000E+00 -0.29349070316E+03  0.29349070316E+03  0.00000000000E+00 0. -1.
         25    2    1    2    0    0 -0.31681141350E+02  0.17211421595E+02 -0.15419531986E+03  0.20180220303E+03  0.12509198507E+03 0.  0.
          5    1    3    3  502    0 -0.62492814414E+02  0.48946318454E+01 -0.23790785347E+02  0.67177251668E+02  0.41800000000E+01 0. -1.
         -5    1    3    3    0  502  0.30811673063E+02  0.12316789750E+02 -0.13040453452E+03  0.13462495136E+03  0.41800000000E+01 0. -1.
        -11    1    1    2    0    0 -0.80757400879E+01 -0.17948188905E+02  0.10906328449E+02  0.22501179150E+02  0.00000000000E+00 0.  1.
         11    1    1    2    0    0  0.39756881438E+02  0.73676730944E+00 -0.10609098061E+03  0.11329805212E+03  0.00000000000E+00 0. -1.
</event>
<event>
 7    1  0.2666594E-009  0.2205142E+03  0.7561462E-02  0.1133500E+00
          3   -1    0    0  501    0  0.00000000000E+00  0.00000000000E+00  0.59073942381E+03  0.59073942381E+03  0.00000000000E+00 0. -1.
         -3   -1    0    0    0  501 -0.00000000000E+00 -0.00000000000E+00 -0.92616976433E+02  0.92616976433E+02  0.00000000000E+00 0.  1.
         25    2    1    2    0    0 -0.13702961060E+03 -0.15025218925E+03  0.19443020663E+03  0.30790181625E+03  0.12509032194E+03 0.  0.
          5    1    3    3  502    0 -0.44031083598E+02 -0.13312008622E+03  0.14240580856E+03  0.19989142150E+03  0.41800000000E+01 0.  1.
         -5    1    3    3    0  502 -0.92998527004E+02 -0.17132103029E+02  0.52024398067E+02  0.10801039475E+03  0.41800000000E+01 0.  1.
        -11    1    1    2    0    0  0.10031263887E+03  0.12987762171E+03  0.28631304247E+03  0.33000906113E+03  0.00000000000E+00 0. -1.
         11    1    1    2    0    0  0.36716971737E+02  0.20374567537E+02  0.17379198286E+02  0.45445522870E+02  0.00000000000E+00 0.  1.
</event>
<event>
 7    1  0.2666594E-009  0.8514540E+02  0.7561462E-02  0.1315053E+00
         -4   -1    0    0    0  501 -0.00000000000E+00  0.00000000000E+00  0.53102079763E+03  0.53102079763E+03  0.00000000000E+00 0. -1.
          4   -1    0    0  501    0  0.00000000000E+00 -0.00000000000E+00 -0.27027097945E+02  0.27027097945E+02  0.00000000000E+00 0.  1.
         25    2    1    2    0    0 -0.84577671389E+01 -0.30521284163E+02  0.37715654216E+03  0.39861695525E+03  0.12508132198E+03 0.  0.
          5    1    3    3  502    0 -0.21898957160E+02  0.32868350488E+02  0.44345473313E+02  0.59530548393E+02  0.41800000000E+01 0.  1.
         -5    1    3    3    0  502  0.13441190021E+02 -0.63389634652E+02  0.33281106885E+03  0.33908640686E+03  0.41800000000E+01 0.  1.
        -11    1    1    2    0    0  0.16410143526E+02 -0.13288225289E+02 -0.37639440545E+01  0.21448473529E+02  0.00000000000E+00 0.  1.
         11    1    1    2    0    0 -0.79523763869E+01  0.43809509452E+02  0.13060110158E+03  0.13798246679E+03  0.00000000000E+00 0. -1.
</event>
<event>
 7    1  0.2666594E-009  0.2377706E+03  0.7561462E-02  0.1121287E+00
          1   -1    0    0  501    0  0.00000000000E+00  0.00000000000E+00  0.69445962177E+02  0.69445962177E+02  0.00000000000E+00 0. -1.
         -1   -1    0    0    0  501 -0.00000000000E+00 -0.00000000000E+00 -0.91541457638E+03  0.91541457638E+03  0.00000000000E+00 0.  1.
         25    2    1    2    0    0  0.10315791811E+03 -0.20104505747E+03 -0.41039902297E+03  0.48490712389E+03  0.12508752755E+03 0.  0.
          5    1    3    3  502    0  0.19937035641E+02 -0.14923844004E+03 -0.30929021987E+03  0.34401672907E+03  0.41800000000E+01 0. -1.
         -5    1    3    3    0  502  0.83220882471E+02 -0.51806617426E+02 -0.10110880310E+03  0.14089039482E+03  0.41800000000E+01 0. -1.
        -11    1    1    2    0    0 -0.78803957447E+02  0.13380451806E+03 -0.19670212309E+03  0.25061013146E+03  0.00000000000E+00 0. -1.
         11    1    1    2    0    0 -0.24353960665E+02  0.67240539409E+02 -0.23886746815E+03  0.24934328321E+03  0.00000000000E+00 0.  1.
</event>
<event>
 7    1  0.2666594E-009  0.1602626E+03  0.7561462E-02  0.1188401E+00
         -1   -1    0    0    0  501 -0.00000000000E+00  0.00000000000E+00  0.36581687959E+02  0.36581687959E+02  0.00000000000E+00 0.  1.
          1   -1    0    0  501    0  0.00000000000E+00 -0.00000000000E+00 -0.87963154265E+03  0.87963154265E+03  0.00000000000E+00 0. -1.
         25    2    1    2    0    0  0.33656224319E+02  0.12743793708E+03 -0.57570547946E+03  0.60370320522E+03  0.12509033402E+03 0.  0.
          5    1    3    3  502    0  0.74952605971E+02  0.10514265495E+03 -0.47921299049E+03  0.49632190530E+03  0.41800000000E+01 0. -1.
         -5    1    3    3    0  502 -0.41296381652E+02  0.22295282137E+02 -0.96492488972E+02  0.10738129991E+03  0.41800000000E+01 0. -1.
        -11    1    1    2    0    0 -0.50536240350E+02 -0.92047987178E+02 -0.24687354026E+03  0.26827837858E+03  0.00000000000E+00 0. -1.
         11    1    1    2    0    0  0.16880016031E+02 -0.35389949907E+02 -0.20470834973E+02  0.44231646817E+02  0.00000000000E+00 0.  1.
</event>
<event>
 7    1  0.2666594E-009  0.1166279E+03  0.7561462E-02  0.1248766E+00
         -4   -1    0    0    0  501 -0.00000000000E+00  0.00000000000E+00  0.17597823126E+03  0.17597823126E+03  0.00000000000E+00 0.  1.
          4   -1    0    0  501    0  0.00000000000E+00 -0.00000000000E+00 -0.93163932043E+02  0.93163932043E+02  0.00000000000E+00 0. -1.
         25    2    1    2    0    0 -0.29057992879E+02  0.59231784863E+02  0.22303139114E+02  0.14316830169E+03  0.12508781438E+03 0.  0.
          5    1    3    3  502    0 -0.68063379590E+02  0.33104165413E+02 -0.21532617352E+02  0.78801239958E+02  0.41800000000E+01 0. -1.
         -5    1    3    3    0  502  0.39005386711E+02  0.26127619450E+02  0.43835756465E+02  0.64367061728E+02  0.41800000000E+01 0. -1.
        -11    1    1    2    0    0  0.53464741983E+02 -0.86528331782E+01  0.26229195784E+02  0.60177411616E+02  0.00000000000E+00 0.  1.
         11    1    1    2    0    0 -0.24406749104E+02 -0.50578951685E+02  0.34281964324E+02  0.65796450005E+02  0.00000000000E+00 0. -1.
</event>
<event>
 7    1  0.2666594E-009  0.1122665E+03  0.7561462E-02  0.1256429E+00
         -3   -1    0    0    0  501 -0.00000000000E+00  0.00000000000E+00  0.30373095167E+03  0.30373095167E+03  0.00000000000E+00 0.  1.
          3   -1    0    0  501    0  0.00000000000E+00 -0.00000000000E+00 -0.43648934841E+02  0.43648934841E+02  0.00000000000E+00 0. -1.
         25    2    1    2    0    0 -0.12072458621E+02  0.29183586683E+02  0.17085633002E+03  0.21409973305E+03  0.12509749876E+03 0.  0.
          5    1    3    3  502    0  0.54792610926E+02  0.66007647822E+01  0.98195905779E+02  0.11271960175E+03  0.41800000000E+01 0.  1.
         -5    1    3    3    0  502 -0.66865069547E+02  0.22582821901E+02  0.72660424242E+02  0.10138013130E+03  0.41800000000E+01 0.  1.
        -11    1    1    2    0    0 -0.33713922799E+02  0.13093405982E+02  0.26310870503E+02  0.44725024062E+02  0.00000000000E+00 0.  1.
         11    1    1    2    0    0  0.45786381420E+02 -0.42276992665E+02  0.62914816303E+02  0.88555129398E+02  0.00000000000E+00 0. -1.
</event>
<event>
 7    1  0.2666594E-009  0.1137135E+03  0.7561462E-02  0.1253844E+00
         -2   -1    0    0    0  501 -0.00000000000E+00  0.00000000000E+00  0.40925182898E+02  0.40925182898E+02  0.00000000000E+00 0.  1.
          2   -1    0    0  501    0  0.00000000000E+00 -0.00000000000E+00 -0.34574996400E+03  0.34574996400E+03  0.00000000000E+00 0. -1.
         25    2    1    2    0    0 -0.44871996666E+02  0.10659268794E+02 -0.14854079184E+03  0.19959627421E+03  0.12508872748E+03 0.  0.
          5    1    3    3  502    0 -0.82133009656E+02  0.34051031462E+02 -0.10315591057E+03  0.13624947084E+03  0.41800000000E+01 0. -1.
         -5    1    3    3    0  502  0.37261012990E+02 -0.23391762669E+02 -0.45384881269E+02  0.63346803373E+02  0.41800000000E+01 0. -1.
        -11    1    1    2    0    0 -0.70563690283E+01  0.28388580043E+02 -0.88395882014E+02  0.93110341949E+02  0.00000000000E+00 0. -1.
         11    1    1    2    0    0  0.51928365695E+02 -0.39047848837E+02 -0.67888107245E+02  0.93968530731E+02  0.00000000000E+00 0.  1.
</event>
<event>
 7    1  0.2666594E-009  0.1726186E+03  0.7561462E-02  0.1175144E+00
          1   -1    0    0  501    0  0.00000000000E+00  0.00000000000E+00  0.10701916611E+03  0.10701916611E+03  0.00000000000E+00 0. -1.
         -1   -1    0    0    0  501 -0.00000000000E+00 -0.00000000000E+00 -0.35948884005E+03  0.35948884005E+03  0.00000000000E+00 0.  1.
         25    2    1    2    0    0  0.11968102486E+03 -0.95520555338E+02 -0.19934713893E+03  0.28077424057E+03  0.12508864123E+03 0.  0.
          5    1    3    3  502    0  0.16623554098E+02  0.26965801349E+02 -0.62258763449E+02  0.69979447121E+02  0.41800000000E+01 0. -1.
         -5    1    3    3    0  502  0.10305747076E+03 -0.12248635669E+03 -0.13708837549E+03  0.21079479345E+03  0.41800000000E+01 0. -1.
        -11    1    1    2    0    0 -0.60081100703E+02  0.49869131903E+02 -0.74244216770E+02  0.10774447876E+03  0.00000000000E+00 0.  1.
         11    1    1    2    0    0 -0.59599924153E+02  0.45651423435E+02  0.21121681760E+02  0.77989286835E+02  0.00000000000E+00 0. -1.
</event>
<event>
 7    1  0.2666594E-009  0.9079801E+02  0.7561462E-02  0.1300931E+00
          1   -1    0    0  501    0  0.00000000000E+00  0.00000000000E+00  0.22435351919E+04  0.22435351919E+04  0.00000000000E+00 0. -1.
         -1   -1    0    0    0  501 -0.00000000000E+00 -0.00000000000E+00 -0.95408962743E+01  0.95408962743E+01  0.00000000000E+00 0.  1.
         25    2    1    2    0    0  0.43121963320E+02 -0.49785939309E+02  0.17861169534E+04  0.17917031646E+04  0.12509322653E+03 0.  0.
          5    1    3    3  502    0  0.58834267352E+01 -0.31143446869E+02  0.16225963592E+04  0.16229112564E+04  0.41800000000E+01 0.  1.
         -5    1    3    3    0  502  0.37238536585E+02 -0.18642492441E+02  0.16352059425E+03  0.16879190821E+03  0.41800000000E+01 0.  1.
        -11    1    1    2    0    0 -0.35705157570E+02  0.74153757533E+02  0.38148790299E+03  0.39026485643E+03  0.00000000000E+00 0.  1.
         11    1    1    2    0    0 -0.74168057504E+01 -0.24367818224E+02  0.66389439260E+02  0.71108067178E+02  0.00000000000E+00 0. -1.
</event>
<event>
 7    1  0.2666594E-009  0.6451775E+02  0.7561462E-02  0.1379795E+00
         -1   -1    0    0    0  501 -0.00000000000E+00  0.00000000000E+00  0.51779657027E+02  0.51779657027E+02  0.00000000000E+00 0.  1.
          1   -1    0    0  501    0  0.00000000000E+00 -0.00000000000E+00 -0.29007520253E+03  0.29007520253E+03  0.00000000000E+00 0. -1.
         25    2    1    2    0    0 -0.78783652017E+01 -0.58445819764E+02 -0.15369553438E+03  0.20675531573E+03  0.12508981096E+03 0.  0.
          5    1    3    3  502    0  0.54604488708E+01  0.23409563207E+01 -0.14334511277E+03  0.14352905746E+03  0.41800000000E+01 0. -1.
         -5    1    3    3    0  502 -0.13338814073E+02 -0.60786776084E+02 -0.10350421611E+02  0.63226258272E+02  0.41800000000E+01 0. -1.
        -11    1    1    2    0    0  0.64324479962E+01  0.21939329037E+02 -0.94516649936E+02  0.97242519820E+02  0.00000000000E+00 0. -1.
         11    1    1    2    0    0  0.14459172055E+01  0.36506490726E+02  0.99166388132E+01  0.37857024012E+02  0.00000000000E+00 0.  1.
</event>
<event>
 7    1  0.2666594E-009  0.8507998E+02  0.7561462E-02  0.1315224E+00
          1   -1    0    0  501    0  0.00000000000E+00  0.00000000000E+00  0.49378369746E+02  0.49378369746E+02  0.00000000000E+00 0. -1.
         -1   -1    0    0    0  501 -0.00000000000E+00 -0.00000000000E+00 -0.28072554637E+03  0.28072554637E+03  0.00000000000E+00 0.  1.
         25    2    1    2    0    0  0.27817904729E+02  0.12788894250E+02 -0.17656336178E+03  0.21854144649E+03  0.12509337101E+03 0.  0.
          5    1    3    3  502    0  0.25387371805E+02  0.43907792891E+02 -0.17981865314E+03  0.18688133492E+03  0.41800000000E+01 0.  1.
         -5    1    3    3    0  502  0.24305329237E+01 -0.31118898641E+02  0.32552913597E+01  0.31660111572E+02  0.41800000000E+01 0.  1.
        -11    1    1    2    0    0 -0.42431890981E+02  0.23606805152E+02 -0.59361252075E+01  0.48918137783E+02  0.00000000000E+00 0. -1.
         11    1    1    2    0    0  0.14613986252E+02 -0.36395699402E+02 -0.48847689631E+02  0.62644331838E+02  0.00000000000E+00 0.  1.
</event>
<event>
 7    1  0.2666594E-009  0.9952894E+02  0.7561462E-02  0.1281290E+00
         -2   -1    0    0    0  501 -0.00000000000E+00  0.00000000000E+00  0.11981562432E+03  0.11981562432E+03  0.00000000000E+00 0.  1.
          2   -1    0    0  501    0  0.00000000000E+00 -0.00000000000E+00 -0.11958819917E+03  0.11958819917E+03  0.00000000000E+00 0. -1.
         25    2    1    2    0    0  0.23923047174E+02 -0.38631038142E+02 -0.24155801294E+02  0.13526938951E+03  0.12509850402E+03 0.  0.
          5    1    3    3  502    0  0.14897817567E+02 -0.83577100411E+02 -0.42128112696E+01  0.85101685414E+02  0.41800000000E+01 0.  1.
         -5    1    3    3    0  502  0.90252296064E+01  0.44946062269E+02 -0.19942990025E+02  0.50167704094E+02  0.41800000000E+01 0.  1.
        -11    1    1    2    0    0  0.13650231600E+02  0.24187280992E+02  0.49448736072E+02  0.56714468028E+02  0.00000000000E+00 0.  1.
         11    1    1    2    0    0 -0.37573278774E+02  0.14443757150E+02 -0.25065509622E+02  0.47419965954E+02  0.00000000000E+00 0. -1.
</event>
<event>
 7    1  0.2666594E-009  0.1057574E+03  0.7561462E-02  0.1268635E+00
          4   -1    0    0  501    0  0.00000000000E+00  0.00000000000E+00  0.25996086807E+03  0.25996086807E+03  0.00000000000E+00 0. -1.
         -4   -1    0    0    0  501 -0.00000000000E+00 -0.00000000000E+00 -0.13694994502E+03  0.13694994502E+03  0.00000000000E+00 0.  1.
         25    2    1    2    0    0 -0.63637018956E+02  0.63280067993E+02 -0.66415464051E+02  0.16767639707E+03  0.12510125132E+03 0.  0.
          5    1    3    3  502    0 -0.88116244240E+01 -0.19911107893E+00  0.34808771384E+02  0.36149790255E+02  0.41800000000E+01 0. -1.
         -5    1    3    3    0  502 -0.54825394532E+02  0.63479179072E+02 -0.10122423544E+03  0.13152660682E+03  0.41800000000E+01 0. -1.
        -11    1    1    2    0    0  0.66930244732E+02 -0.77950900785E+02  0.11897996172E+03  0.15720124644E+03  0.00000000000E+00 0.  1.
         11    1    1    2    0    0 -0.32932257763E+01  0.14670832793E+02  0.70446425374E+02  0.72033169574E+02  0.00000000000E+00 0. -1.
</event>
<event>
 7    1  0.2666594E-009  0.6773511E+02  0.7561462E-02  0.1367969E+00
          1   -1    0    0  501    0  0.00000000000E+00  0.00000000000E+00  0.56146691391E+03  0.56146691391E+03  0.00000000000E+00 0. -1.
         -1   -1    0    0    0  501 -0.00000000000E+00 -0.00000000000E+00 -0.20030444915E+02  0.20030444915E+02  0.00000000000E+00 0.  1.
         25    2    1    2    0    0 -0.44134429134E+02 -0.15090904461E+02  0.45564278326E+03  0.47479823773E+03  0.12508971733E+03 0.  0.
          5    1    3    3  502    0  0.19542684698E+02 -0.14495135686E+02  0.35348244183E+03  0.35434352621E+03  0.41800000000E+01 0.  1.
         -5    1    3    3    0  502 -0.63677113832E+02 -0.59576877439E+00  0.10216034143E+03  0.12045471152E+03  0.41800000000E+01 0.  1.
        -11    1    1    2    0    0  0.31150877827E+02  0.13250498491E+02  0.87171341835E+02  0.93513612576E+02  0.00000000000E+00 0. -1.
         11    1    1    2    0    0  0.12983551306E+02  0.18404059694E+01 -0.13776560978E+01  0.13185508522E+02  0.00000000000E+00 0.  1.
</event>
<event>
 7    1  0.2666594E-009  0.1377281E+03  0.7561462E-02  0.1216419E+00
         -2   -1    0    0    0  501 -0.00000000000E+00  0.00000000000E+00  0.25721800045E+02  0.25721800045E+02  0.00000000000E+00 0.  1.
          2   -1    0    0  501    0  0.00000000000E+00 -0.00000000000E+00 -0.82568744949E+03  0.82568744949E+03  0.00000000000E+00 0. -1.
         25    2    1    2    0    0  0.21914819028E+02  0.94296455527E+02 -0.46295076445E+03  0.48922587358E+03  0.12508582758E+03 0.  0.
          5    1    3    3  502    0  0.41797386174E+02 -0.13659793268E+02 -0.18851756260E+03  0.19362323015E+03  0.41800000000E+01 0.  1.
         -5    1    3    3    0  502 -0.19882567146E+02  0.10795624880E+03 -0.27443320184E+03  0.29560264343E+03  0.41800000000E+01 0.  1.
        -11    1    1    2    0    0  0.24621105382E+02 -0.55972414549E+02 -0.96614097442E+02  0.11433894282E+03  0.00000000000E+00 0.  1.
         11    1    1    2    0    0 -0.46535924410E+02 -0.38324040979E+02 -0.24040078756E+03  0.24784443314E+03  0.00000000000E+00 0. -1.
</event>
<event>
 7    1  0.2666594E-009  0.1679707E+03  0.7561462E-02  0.1179981E+00
         -2   -1    0    0    0  501 -0.00000000000E+00  0.00000000000E+00  0.40246131197E+02  0.40246131197E+02  0.00000000000E+00 0.  1.
          2   -1    0    0  501    0  0.00000000000E+00 -0.00000000000E+00 -0.79969132802E+03  0.79969132802E+03  0.00000000000E+00 0. -1.
         25    2    1    2    0    0 -0.17056390351E+02  0.13906782023E+03 -0.33463784339E+03  0.38374540262E+03  0.12508904318E+03 0.  0.
          5    1    3    3  502    0 -0.58843981404E+02  0.11308810530E+03 -0.17436563861E+03  0.21603791805E+03  0.41800000000E+01 0.  1.
         -5    1    3    3    0  502  0.41787591053E+02  0.25979714939E+02 -0.16027220479E+03  0.16770748457E+03  0.41800000000E+01 0.  1.
        -11    1    1    2    0    0  0.45910279298E+02 -0.65521821808E+02 -0.28035048824E+03  0.29154289416E+03  0.00000000000E+00 0. -1.
         11    1    1    2    0    0 -0.28853888947E+02 -0.73545998426E+02 -0.14445686519E+03  0.16464916244E+03  0.00000000000E+00 0.  1.
</event>
<event>
 7    1  0.2666594E-009  0.8852337E+02  0.7561462E-02  0.1306467E+00
         -2   -1    0    0    0  501 -0.00000000000E+00  0.00000000000E+00  0.20751558959E+02  0.20751558959E+02  0.00000000000E+00 0.  1.
          2   -1    0    0  501    0  0.00000000000E+00 -0.00000000000E+00 -0.78753304389E+03  0.78753304389E+03  0.00000000000E+00 0. -1.
         25    2    1    2    0    0 -0.44013752028E+02  0.45375266164E+02 -0.49428511306E+03  0.51376939741E+03  0.12508035647E+03 0.  0.
          5    1    3    3  502    0 -0.27839763561E+02  0.18359120561E+02 -0.47586615528E+03  0.47705154845E+03  0.41800000000E+01 0. -1.
         -5    1    3    3    0  502 -0.16173988467E+02  0.27016145602E+02 -0.18418957782E+02  0.36717848956E+02  0.41800000000E+01 0. -1.
        -11    1    1    2    0    0  0.53119630460E+02  0.11269271285E+02 -0.12758932899E+03  0.13866408507E+03  0.00000000000E+00 0.  1.
         11    1    1    2    0    0 -0.91058784323E+01 -0.56644537448E+02 -0.14490704288E+03  0.15585112037E+03  0.00000000000E+00 0. -1.
</event>
<event>
 7    1  0.2666594E-009  0.1566928E+03  0.7561462E-02  0.1192482E+00
         -2   -1    0    0    0  501 -0.00000000000E+00  0.00000000000E+00  0.24716447594E+03  0.24716447594E+03  0.00000000000E+00 0.  1.
          2   -1    0    0  501    0  0.00000000000E+00 -0.00000000000E+00 -0.15206008924E+03  0.15206008924E+03  0.00000000000E+00 0. -1.
         25    2    1    2    0    0  0.44738917483E+00 -0.11463239894E+03 -0.65929707360E+02  0.18202218557E+03  0.12507822625E+03 0.  0.
          5    1    3    3  502    0  0.59047167379E+02 -0.83286177201E+02 -0.30716299715E+02  0.10669638586E+03  0.41800000000E+01 0. -1.
         -5    1    3    3    0  502 -0.58599778204E+02 -0.31346221744E+02 -0.35213407645E+02  0.75325799705E+02  0.41800000000E+01 0. -1.
        -11    1    1    2    0    0 -0.37882538663E+02  0.95155919617E+02  0.10118813721E+03  0.14397491061E+03  0.00000000000E+00 0.  1.
         11    1    1    2    0    0  0.37435149488E+02  0.19476479328E+02  0.59845956854E+02  0.73227468999E+02  0.00000000000E+00 0. -1.
</event>
<event>
 7    1  0.2666594E-009  0.1063426E+03  0.7561462E-02  0.1267497E+00
          2   -1    0    0  501    0  0.00000000000E+00  0.00000000000E+00  0.27349007359E+03  0.27349007359E+03  0.00000000000E+00 0.  1.
         -2   -1    0    0    0  501 -0.00000000000E+00 -0.00000000000E+00 -0.84470559435E+02  0.84470559435E+02  0.00000000000E+00 0. -1.
         25    2    1    2    0    0 -0.10020713660E+02  0.84023152028E+02  0.17730199523E+03  0.23289933249E+03  0.12508315947E+03 0.  0.
          5    1    3    3  502    0 -0.33386723327E+02  0.14882633430E+02  0.15067083409E+03  0.15509783595E+03  0.41800000000E+01 0.  1.
         -5    1    3    3    0  502  0.23366009667E+02  0.69140518597E+02  0.26631161139E+02  0.77801496537E+02  0.41800000000E+01 0.  1.
        -11    1    1    2    0    0  0.34396733610E+02 -0.42899161343E+02 -0.29090328035E+02  0.62207077669E+02  0.00000000000E+00 0. -1.
         11    1    1    2    0    0 -0.24376019950E+02 -0.41123990685E+02  0.40807846961E+02  0.62854222866E+02  0.00000000000E+00 0.  1.
</event>
<event>
 7    1  0.2666594E-009  0.1727979E+03  0.7561462E-02  0.1174961E+00
          1   -1    0    0  501    0  0.00000000000E+00  0.00000000000E+00  0.68239375761E+03  0.68239375761E+03  0.00000000000E+00 0. -1.
         -1   -1    0    0    0  501 -0.00000000000E+00 -0.00000000000E+00 -0.60697157960E+02  0.60697157960E+02  0.00000000000E+00 0.  1.
         25    2    1    2    0    0  0.10815631810E+03 -0.11462419326E+03  0.44918418592E+03  0.49218448545E+03  0.12507054012E+03 0.  0.
          5    1    3    3  502    0  0.42577762022E+02 -0.75954553111E+02  0.37783768804E+03  0.38776378229E+03  0.41800000000E+01 0.  1.
         -5    1    3    3    0  502  0.65578556082E+02 -0.38669640144E+02  0.71346497888E+02  0.10442070316E+03  0.41800000000E+01 0.  1.
        -11    1    1    2    0    0 -0.12472426180E+03  0.97150277764E+02  0.14860237664E+03  0.21697231227E+03  0.00000000000E+00 0.  1.
         11    1    1    2    0    0  0.16567943691E+02  0.17473915492E+02  0.23910037093E+02  0.33934117855E+02  0.00000000000E+00 0. -1.
</event>
<event>
 7    1  0.2666594E-009  0.8547716E+02  0.7561462E-02  0.1314189E+00
         -1   -1    0    0    0  501 -0.00000000000E+00  0.00000000000E+00  0.69164382838E+02  0.69164382838E+02  0.00000000000E+00 0.  1.
          1   -1    0    0  501    0  0.00000000000E+00 -0.00000000000E+00 -0.25458803824E+03  0.25458803824E+03  0.00000000000E+00 0. -1.
         25    2    1    2    0    0 -0.13674288516E+02 -0.26059538605E+02 -0.16728281248E+03  0.21094292455E+03  0.12508913760E+03 0.  0.
          5    1    3    3  502    0 -0.58561008414E+02  0.22681442507E+01 -0.35099397510E+02  0.68439581314E+02  0.41800000000E+01 0. -1.
         -5    1    3    3    0  502  0.44886719898E+02 -0.28327682855E+02 -0.13218341497E+03  0.14250334323E+03  0.41800000000E+01 0. -1.
        -11    1    1    2    0    0  0.92140861158E+01  0.41693976687E+02 -0.56689991000E+02  0.70972122376E+02  0.00000000000E+00 0. -1.
         11    1    1    2    0    0  0.44602024002E+01 -0.15634438082E+02  0.38549148073E+02  0.41837374162E+02  0.00000000000E+00 0.  1.
</event>
<event>
 7    1  0.2666594E-009  0.1473628E+03  0.7561462E-02  0.1203751E+00
          2   -1    0    0  501    0  0.00000000000E+00  0.00000000000E+00  0.12070788064E+03  0.12070788064E+03  0.00000000000E+00 0. -1.
         -2   -1    0    0    0  501 -0.00000000000E+00 -0.00000000000E+00 -0.28864718427E+03  0.28864718427E+03  0.00000000000E+00 0.  1.
         25    2    1    2    0    0 -0.29129609647E+01  0.14631126347E+03 -0.48145536879E+02  0.19843420919E+03  0.12507066601E+03 0.  0.
          5    1    3    3  502    0 -0.61271032900E+00  0.12764161662E+03 -0.87366162669E+02  0.15473550493E+03  0.41800000000E+01 0. -1.
         -5    1    3    3    0  502 -0.23002506357E+01  0.18669646856E+02  0.39220625790E+02  0.43698704261E+02  0.41800000000E+01 0. -1.
        -11    1    1    2    0    0 -0.62440469052E+01 -0.11372029508E+03 -0.13253653680E+03  0.17474904069E+03  0.00000000000E+00 0.  1.
         11    1    1    2    0    0  0.91570078699E+01 -0.32590968396E+02  0.12742770055E+02  0.36171815033E+02  0.00000000000E+00 0. -1.
</event>
<event>
 7    1  0.2666594E-009  0.1093264E+03  0.7561462E-02  0.1261822E+00
          1   -1    0    0  501    0  0.00000000000E+00  0.00000000000E+00  0.11410175296E+03  0.11410175296E+03  0.00000000000E+00 0. -1.
         -1   -1    0    0    0  501 -0.00000000000E+00 -0.00000000000E+00 -0.14632145813E+03  0.14632145813E+03  0.00000000000E+00 0.  1.
         25    2    1    2    0    0  0.68047562198E+02  0.14491699118E+02 -0.30247188755E+02  0.14629594356E+03  0.12508849112E+03 0.  0.
          5    1    3    3  502    0  0.50091283305E+02  0.46295477235E+02  0.30861580201E+02  0.74982113921E+02  0.41800000000E+01 0.  1.
         -5    1    3    3    0  502  0.17956278894E+02 -0.31803778117E+02 -0.61108768956E+02  0.71313829637E+02  0.41800000000E+01 0.  1.
        -11    1    1    2    0    0  0.21282152036E+02  0.55729659981E+01 -0.48446567300E+01  0.22526842746E+02  0.00000000000E+00 0.  1.
         11    1    1    2    0    0 -0.89329714234E+02 -0.20064665116E+02  0.28721403215E+01  0.91600424788E+02  0.00000000000E+00 0. -1.
</event>
<event>
 7    1  0.2666594E-009  0.9626709E+02  0.7561462E-02  0.1288348E+00
          2   -1    0    0  501    0  0.00000000000E+00  0.00000000000E+00  0.44019827423E+03  0.44019827423E+03  0.00000000000E+00 0. -1.
         -2   -1    0    0    0  501 -0.00000000000E+00 -0.00000000000E+00 -0.37827316674E+02  0.37827316674E+02  0.00000000000E+00 0.  1.
         25    2    1    2    0    0  0.49046412303E+02 -0.49841288291E+02  0.18631238190E+03  0.23505561310E+03  0.12509649484E+03 0.  0.
          5    1    3    3  502    0  0.58137459961E+02  0.57286738475E+01  0.16434494816E+03  0.17446924182E+03  0.41800000000E+01 0. -1.
         -5    1    3    3    0  502 -0.90910476581E+01 -0.55569962138E+02  0.21967433737E+02  0.60586371277E+02  0.41800000000E+01 0. -1.
        -11    1    1    2    0    0 -0.34013154551E+02  0.10831841308E+02  0.16943294567E+02  0.39513272447E+02  0.00000000000E+00 0.  1.
         11    1    1    2    0    0 -0.15033257751E+02  0.39009446983E+02  0.19911528109E+03  0.20345670536E+03  0.00000000000E+00 0. -1.
</event>
<event>
 7    1  0.2666594E-009  0.1552070E+03  0.7561462E-02  0.1194217E+00
          2   -1    0    0  501    0  0.00000000000E+00  0.00000000000E+00  0.61033534026E+03  0.61033534026E+03  0.00000000000E+00 0. -1.
         -2   -1    0    0    0  501 -0.00000000000E+00 -0.00000000000E+00 -0.60035376480E+02  0.60035376480E+02  0.00000000000E+00 0.  1.
         25    2    1    2    0    0  0.22516216022E+02 -0.13768099315E+03  0.41612387158E+03  0.45636541487E+03  0.12508908639E+03 0.  0.
          5    1    3    3  502    0  0.23325940401E+00 -0.14628217549E+03  0.25987835837E+03  0.29824949761E+03  0.41800000000E+01 0.  1.
         -5    1    3    3    0  502  0.22282956618E+02  0.86011823405E+01  0.15624551321E+03  0.15811591727E+03  0.41800000000E+01 0.  1.
        -11    1    1    2    0    0 -0.13604492728E+02  0.10740376148E+03  0.14471626220E+03  0.18073031497E+03  0.00000000000E+00 0. -1.
         11    1    1    2    0    0 -0.89117232940E+01  0.30277231675E+02 -0.10540169999E+02  0.33274986905E+02  0.00000000000E+00 0.  1.
</event>
<event>
 7    1  0.2666594E-009  0.5833321E+02  0.7561462E-02  0.1404963E+00
          1   -1    0    0  501    0  0.00000000000E+00  0.00000000000E+00  0.12547231916E+03  0.12547231916E+03  0.00000000000E+00 0. -1.
         -1   -1    0    0    0  501 -0.00000000000E+00 -0.00000000000E+00 -0.10036231245E+03  0.10036231245E+03  0.00000000000E+00 0.  1.
         25    2    1    2    0    0 -0.22873269974E+02  0.41066028706E+01  0.29010545094E+02  0.13049705268E+03  0.12509124016E+03 0.  0.
          5    1    3    3  502    0 -0.13320204297E+02 -0.18065571930E+02 -0.46125581740E+02  0.51466828371E+02  0.41800000000E+01 0.  1.
         -5    1    3    3    0  502 -0.95530656770E+01  0.22172174800E+02  0.75136126835E+02  0.79030224313E+02  0.41800000000E+01 0.  1.
        -11    1    1    2    0    0  0.37608437596E+02 -0.23972616967E+02 -0.34215828928E+02  0.56212132960E+02  0.00000000000E+00 0. -1.
         11    1    1    2    0    0 -0.14735167622E+02  0.19866014097E+02  0.30315290543E+02  0.39125445961E+02  0.00000000000E+00 0.  1.
</event>
<event>
 7    1  0.2666594E-009  0.1080424E+03  0.7561462E-02  0.1264239E+00
          1   -1    0    0  501    0  0.00000000000E+00  0.00000000000E+00  0.23798561232E+03  0.23798561232E+03  0.00000000000E+00 0. -1.
         -1   -1    0    0    0  501 -0.00000000000E+00 -0.00000000000E+00 -0.54724412666E+02  0.54724412666E+02  0.00000000000E+00 0.  1.
         25    2    1    2    0    0 -0.32198419033E+02 -0.14523626589E+02  0.10987930209E+03  0.17019884651E+03  0.12508602004E+03 0.  0.
          5    1    3    3  502    0 -0.44468573221E+01  0.54815052432E+02  0.45124214869E+02  0.71261010944E+02  0.41800000000E+01 0. -1.
         -5    1    3    3    0  502 -0.27751561710E+02 -0.69338679021E+02  0.64755087224E+02  0.98937835569E+02  0.41800000000E+01 0. -1.
        -11    1    1    2    0    0 -0.20561408236E+02 -0.15201679162E+02 -0.21959873076E+01  0.25664857651E+02  0.00000000000E+00 0.  1.
         11    1    1    2    0    0  0.52759827269E+02  0.29725305751E+02  0.75577884869E+02  0.96846320821E+02  0.00000000000E+00 0. -1.
</event>
<event>
 7    1  0.2666594E-009  0.4155242E+03  0.7561462E-02  0.1038533E+00
          2   -1    0    0  501    0  0.00000000000E+00  0.00000000000E+00  0.18069353144E+04  0.18069353144E+04  0.00000000000E+00 0. -1.
         -2   -1    0    0    0  501 -0.00000000000E+00 -0.00000000000E+00 -0.10357426504E+03  0.10357426504E+03  0.00000000000E+00 0.  1.
         25    2    1    2    0    0  0.34990105451E+03 -0.21713954694E+03  0.69924392193E+03  0.82107624901E+03  0.12507523151E+03 0.  0.
          5    1    3    3  502    0  0.11952534721E+03 -0.84927930824E+02  0.14399510799E+03  0.20555078590E+03  0.41800000000E+01 0. -1.
         -5    1    3    3    0  502  0.23037570730E+03 -0.13221161611E+03  0.55524881395E+03  0.61552546311E+03  0.41800000000E+01 0. -1.
        -11    1    1    2    0    0 -0.27368843087E+03  0.20405400778E+03  0.87059302729E+03  0.93513400881E+03  0.00000000000E+00 0. -1.
         11    1    1    2    0    0 -0.76212623642E+02  0.13085539160E+02  0.13352410018E+03  0.15429932167E+03  0.00000000000E+00 0.  1.
</event>
<event>
 7    1  0.2666594E-009  0.6610111E+02  0.7561462E-02  0.1373877E+00
         -2   -1    0    0    0  501 -0.00000000000E+00  0.00000000000E+00  0.95379043427E+02  0.95379043427E+02  0.00000000000E+00 0.  1.
          2   -1    0    0  501    0  0.00000000000E+00 -0.00000000000E+00 -0.13947582669E+03  0.13947582669E+03  0.00000000000E+00 0. -1.
         25    2    1    2    0    0 -0.35771488222E+02  0.12773270895E+02 -0.17976890233E+02  0.13196128464E+03  0.12509139156E+03 0.  0.
          5    1    3    3  502    0 -0.44179643612E+02 -0.24300423902E+02  0.38623003992E+02  0.63651868385E+02  0.41800000000E+01 0. -1.
         -5    1    3    3    0  502  0.84081553905E+01  0.37073694796E+02 -0.56599894225E+02  0.68309416256E+02  0.41800000000E+01 0. -1.
        -11    1    1    2    0    0  0.84500160341E+01  0.58684010050E+01  0.33319384977E+02  0.34871511533E+02  0.00000000000E+00 0.  1.
         11    1    1    2    0    0  0.27321472187E+02 -0.18641671900E+02 -0.59439278008E+02  0.68022073945E+02  0.00000000000E+00 0. -1.
</event>
<event>
 7    1  0.2666594E-009  0.1851313E+03  0.7561462E-02  0.1162927E+00
          2   -1    0    0  501    0  0.00000000000E+00  0.00000000000E+00  0.40357010734E+03  0.40357010734E+03  0.00000000000E+00 0. -1.
         -2   -1    0    0    0  501 -0.00000000000E+00 -0.00000000000E+00 -0.10713336867E+03  0.10713336867E+03  0.00000000000E+00 0.  1.
         25    2    1    2    0    0 -0.16662335836E+03  0.49401778412E+02  0.11400137699E+03  0.24258593019E+03  0.12509092816E+03 0.  0.
          5    1    3    3  502    0 -0.11887658104E+03  0.49756546116E+02  0.13810256384E+03  0.18893688348E+03  0.41800000000E+01 0.  1.
         -5    1    3    3    0  502 -0.47746777321E+02 -0.35476770341E+00 -0.24101186850E+02  0.53649046704E+02  0.41800000000E+01 0.  1.
        -11    1    1    2    0    0  0.25923566666E+02 -0.45824941824E+02  0.29808578022E+02  0.60502131579E+02  0.00000000000E+00 0. -1.
         11    1    1    2    0    0  0.14069979169E+03 -0.35768365885E+01  0.15262678366E+03  0.20761541424E+03  0.00000000000E+00 0.  1.
</event>
<event>
 7    1  0.2666594E-009  0.1538544E+03  0.7561462E-02  0.1195815E+00
          3   -1    0    0  501    0  0.00000000000E+00  0.00000000000E+00  0.25498260463E+03  0.25498260463E+03  0.00000000000E+00 0. -1.
         -3   -1    0    0    0  501 -0.00000000000E+00 -0.00000000000E+00 -0.14788605780E+03  0.14788605780E+03  0.00000000000E+00 0.  1.
         25    2    1    2    0    0  0.94797775678E+02 -0.11586449716E+03  0.11902090844E+03  0.22852699794E+03  0.12508961655E+03 0.  0.
          5    1    3    3  502    0  0.40298614151E+02 -0.43213624659E+02  0.12405452172E+03  0.13747142401E+03  0.41800000000E+01 0. -1.
         -5    1    3    3    0  502  0.54499161527E+02 -0.72650872496E+02 -0.50336132841E+01  0.91055573933E+02  0.41800000000E+01 0. -1.
        -11    1    1    2    0    0 -0.25618686899E+02  0.38564012531E+01 -0.31997529168E+02  0.41170752021E+02  0.00000000000E+00 0.  1.
         11    1    1    2    0    0 -0.69179088779E+02  0.11200809590E+03  0.20073167567E+02  0.13317091247E+03  0.00000000000E+00 0. -1.
</event>
<event>
 7    1  0.2666594E-009  0.1179934E+03  0.7561462E-02  0.1246445E+00
         -1   -1    0    0    0  501 -0.00000000000E+00  0.00000000000E+00  0.57042612326E+02  0.57042612326E+02  0.00000000000E+00 0.  1.
          1   -1    0    0  501    0  0.00000000000E+00 -0.00000000000E+00 -0.27779444022E+03  0.27779444022E+03  0.00000000000E+00 0. -1.
         25    2    1    2    0    0 -0.27120361217E+02 -0.18480095619E+02 -0.14248204390E+03  0.19242153427E+03  0.12509151087E+03 0.  0.
          5    1    3    3  502    0 -0.68397373416E+02 -0.35744161353E+02 -0.57641204670E+02  0.96414867302E+02  0.41800000000E+01 0.  1.
         -5    1    3    3    0  502  0.41277012199E+02  0.17264065735E+02 -0.84840839226E+02  0.96006666968E+02  0.41800000000E+01 0.  1.
        -11    1    1    2    0    0  0.29447000379E+02 -0.43066948741E+02 -0.56960489507E+02  0.77242380013E+02  0.00000000000E+00 0.  1.
         11    1    1    2    0    0 -0.23266391614E+01  0.61547044360E+02 -0.21309294489E+02  0.65173138261E+02  0.00000000000E+00 0. -1.
</event>
<event>
 7    1  0.2666594E-009  0.9555548E+02  0.7561462E-02  0.1289930E+00
          1   -1    0    0  501    0  0.00000000000E+00  0.00000000000E+00  0.20269712609E+03  0.20269712609E+03  0.00000000000E+00 0. -1.
         -1   -1    0    0    0  501 -0.00000000000E+00 -0.00000000000E+00 -0.64940432443E+02  0.64940432443E+02  0.00000000000E+00 0.  1.
         25    2    1    2    0    0 -0.42731455865E+01  0.25672819878E+02  0.11358921209E+03  0.17095002236E+03  0.12507616715E+03 0.  0.
          5    1    3    3  502    0  0.21713847059E+02 -0.39588960555E+02  0.11196593539E+02  0.46707740887E+02  0.41800000000E+01 0. -1.
         -5    1    3    3    0  502 -0.25986992645E+02  0.65261780433E+02  0.10239261855E+03  0.12424228147E+03  0.41800000000E+01 0. -1.
        -11    1    1    2    0    0 -0.29747864227E+02 -0.28577514749E+02 -0.15753288902E+02  0.44156266673E+02  0.00000000000E+00 0.  1.
         11    1    1    2    0    0  0.34021009814E+02  0.29046948704E+01  0.39920770462E+02  0.52531269500E+02  0.00000000000E+00 0. -1.
</event>
<event>
 7    1  0.2666594E-009  0.1176841E+03  0.7561462E-02  0.1246967E+00
         -4   -1    0    0    0  501 -0.00000000000E+00  0.00000000000E+00  0.23046597665E+03  0.23046597665E+03  0.00000000000E+00 0.  1.
          4   -1    0    0  501    0  0.00000000000E+00 -0.00000000000E+00 -0.73923735233E+02  0.73923735233E+02  0.00000000000E+00 0. -1.
         25    2    1    2    0    0  0.69626064057E+01 -0.49546092820E+02  0.15058146470E+03  0.20205300387E+03  0.12508935071E+03 0.  0.
          5    1    3    3  502    0  0.21079047864E+02 -0.89419317428E+02  0.97104469028E+02  0.13374188160E+03  0.41800000000E+01 0. -1.
         -5    1    3    3    0  502 -0.14116441458E+02  0.39873224608E+02  0.53476995672E+02  0.68311122273E+02  0.41800000000E+01 0. -1.
        -11    1    1    2    0    0 -0.36254268736E+02  0.59743087480E+02 -0.33214839756E+01  0.69961709235E+02  0.00000000000E+00 0.  1.
         11    1    1    2    0    0  0.29291662330E+02 -0.10196994661E+02  0.92822606904E+01  0.32374998776E+02  0.00000000000E+00 0. -1.
</event>
<event>
 7    1  0.2666594E-009  0.2576153E+03  0.7561462E-02  0.1108584E+00
         -2   -1    0    0    0  501 -0.00000000000E+00  0.00000000000E+00  0.76116065968E+02  0.76116065968E+02  0.00000000000E+00 0. -1.
          2   -1    0    0  501    0  0.00000000000E+00 -0.00000000000E+00 -0.10105807337E+04  0.10105807337E+04  0.00000000000E+00 0.  1.
         25    2    1    2    0    0  0.23218627741E+03  0.54498336703E+02 -0.65435807808E+03  0.70761175693E+03  0.12509743433E+03 0.  0.
          5    1    3    3  502    0  0.10248812815E+03 -0.31067530435E+02 -0.19283727162E+03  0.22061888764E+03  0.41800000000E+01 0.  1.
         -5    1    3    3    0  502  0.12969814926E+03  0.85565867139E+02 -0.46152080646E+03  0.48699286929E+03  0.41800000000E+01 0.  1.
        -11    1    1    2    0    0 -0.18692499799E+03 -0.76890412274E+02 -0.19969483093E+03  0.28413221548E+03  0.00000000000E+00 0.  1.
         11    1    1    2    0    0 -0.45261279413E+02  0.22392075571E+02 -0.80411758699E+02  0.94952827233E+02  0.00000000000E+00 0. -1.
</event>
<event>
 7    1  0.2666594E-009  0.2213700E+03  0.7561462E-02  0.1132866E+00
         -1   -1    0    0    0  501 -0.00000000000E+00  0.00000000000E+00  0.35904140357E+02  0.35904140357E+02  0.00000000000E+00 0.  1.
          1   -1    0    0  501    0  0.00000000000E+00 -0.00000000000E+00 -0.16971252043E+04  0.16971252043E+04  0.00000000000E+00 0. -1.
         25    2    1    2    0    0  0.20161504732E+03  0.64486898163E+02 -0.10866116822E+04  0.11140820542E+04  0.12508672344E+03 0.  0.
          5    1    3    3  502    0  0.97264692937E+02  0.13950381002E+01 -0.74498792508E+03  0.75132339744E+03  0.41800000000E+01 0.  1.
         -5    1    3    3    0  502  0.10435035438E+03  0.63091860063E+02 -0.34162375709E+03  0.36275865678E+03  0.41800000000E+01 0.  1.
        -11    1    1    2    0    0 -0.60600996320E+02 -0.55316340466E+02 -0.14390386117E+03  0.16565234540E+03  0.00000000000E+00 0.  1.
         11    1    1    2    0    0 -0.14101405100E+03 -0.91705576965E+01 -0.43070552056E+03  0.45329494499E+03  0.00000000000E+00 0. -1.
</event>
<event>
 7    1  0.2666594E-009  0.1174988E+03  0.7561462E-02  0.1247281E+00
          2   -1    0    0  501    0  0.00000000000E+00  0.00000000000E+00  0.39729497162E+03  0.39729497162E+03  0.00000000000E+00 0. -1.
         -2   -1    0    0    0  501 -0.00000000000E+00 -0.00000000000E+00 -0.35453276170E+02  0.35453276170E+02  0.00000000000E+00 0.  1.
         25    2    1    2    0    0 -0.47780480385E+02 -0.13798295839E+02  0.20619364033E+03  0.24624690565E+03  0.12509338095E+03 0.  0.
          5    1    3    3  502    0 -0.60882242463E+02 -0.59105498473E+02  0.10958702490E+03  0.13866108258E+03  0.41800000000E+01 0. -1.
         -5    1    3    3    0  502  0.13101762078E+02  0.45307202634E+02  0.96606615435E+02  0.10758582307E+03  0.41800000000E+01 0. -1.
        -11    1    1    2    0    0  0.52366923956E+02 -0.28857128727E+02  0.87694286205E+02  0.10613819499E+03  0.00000000000E+00 0.  1.
         11    1    1    2    0    0 -0.45864435711E+01  0.42655424566E+02  0.67953768910E+02  0.80363147142E+02  0.00000000000E+00 0. -1.
</event>
<event>
 7    1  0.2666594E-009  0.2328277E+03  0.7561462E-02  0.1124665E+00
         -2   -1    0    0    0  501 -0.00000000000E+00  0.00000000000E+00  0.34953251250E+03  0.34953251250E+03  0.00000000000E+00 0.  1.
          2   -1    0    0  501    0  0.00000000000E+00 -0.00000000000E+00 -0.20421859395E+03  0.20421859395E+03  0.00000000000E+00 0. -1.
         25    2    1    2    0    0 -0.13291882761E+03 -0.16454163749E+03  0.20002416807E+03  0.31685754841E+03  0.12509065901E+03 0.  0.
          5    1    3    3  502    0 -0.56000961477E+02 -0.15557797669E+03  0.11313655527E+03  0.20039452851E+03  0.41800000000E+01 0. -1.
         -5    1    3    3    0  502 -0.76917866138E+02 -0.89636607939E+01  0.86887612796E+02  0.11646301990E+03  0.41800000000E+01 0. -1.
        -11    1    1    2    0    0  0.10232756867E+03  0.71693447444E+02 -0.15588172123E+00  0.12494361135E+03  0.00000000000E+00 0.  1.
         11    1    1    2    0    0  0.30591258942E+02  0.92848190044E+02 -0.54554367795E+02  0.11194994669E+03  0.00000000000E+00 0. -1.
</event>
<event>
 7    1  0.2666594E-009  0.1675339E+03  0.7561462E-02  0.1180444E+00
          1   -1    0    0  501    0  0.00000000000E+00  0.00000000000E+00  0.11388847835E+04  0.11388847835E+04  0.00000000000E+00 0. -1.
         -1   -1    0    0    0  501 -0.00000000000E+00 -0.00000000000E+00 -0.32972317344E+02  0.32972317344E+02  0.00000000000E+00 0.  1.
         25    2    1    2    0    0  0.12993778600E+02 -0.14895263211E+03  0.73251168062E+03  0.75800830159E+03  0.12508996016E+03 0.  0.
          5    1    3    3  502    0  0.36704236003E+02 -0.23922855155E+01  0.71489079355E+02  0.80505185159E+02  0.41800000000E+01 0. -1.
         -5    1    3    3    0  502 -0.23710457404E+02 -0.14656034660E+03  0.66102260127E+03  0.67750311643E+03  0.41800000000E+01 0. -1.
        -11    1    1    2    0    0 -0.10702844452E+02  0.11640986858E+03  0.36013214195E+03  0.37863038447E+03  0.00000000000E+00 0. -1.
         11    1    1    2    0    0 -0.22909341476E+01  0.32542763533E+02  0.13268643598E+02  0.35218414793E+02  0.00000000000E+00 0.  1.
</event>
<event>
 7    1  0.2666594E-009  0.2066477E+03  0.7561462E-02  0.1144248E+00
          1   -1    0    0  501    0  0.00000000000E+00  0.00000000000E+00  0.42915395032E+03  0.42915395032E+03  0.00000000000E+00 0. -1.
         -1   -1    0    0    0  501 -0.00000000000E+00 -0.00000000000E+00 -0.11790380443E+03  0.11790380443E+03  0.00000000000E+00 0.  1.
         25    2    1    2    0    0  0.14054409842E+03  0.13781701439E+03  0.14845536707E+03  0.27646314459E+03  0.12508677488E+03 0.  0.
          5    1    3    3  502    0  0.13384959805E+03  0.14910569419E+03  0.95982118414E+02  0.22221220127E+03  0.41800000000E+01 0.  1.
         -5    1    3    3    0  502  0.66945003737E+01 -0.11288679801E+02  0.52473248655E+02  0.54250943322E+02  0.41800000000E+01 0.  1.
        -11    1    1    2    0    0 -0.68895244821E+02 -0.88369943383E+02  0.37769998730E+02  0.11824709069E+03  0.00000000000E+00 0. -1.
         11    1    1    2    0    0 -0.71648853603E+02 -0.49447071005E+02  0.12502478009E+03  0.15234751947E+03  0.00000000000E+00 0.  1.
</event>
<event>
 7    1  0.2666594E-009  0.1037027E+03  0.7561462E-02  0.1272697E+00
          1   -1    0    0  501    0  0.00000000000E+00  0.00000000000E+00  0.21288123031E+03  0.21288123031E+03  0.00000000000E+00 0. -1.
         -1   -1    0    0    0  501 -0.00000000000E+00 -0.00000000000E+00 -0.64511592175E+02  0.64511592175E+02  0.00000000000E+00 0.  1.
         25    2    1    2    0    0  0.42819708114E+02 -0.81097914520E+01  0.73438098925E+02  0.15146268687E+03  0.12509394477E+03 0.  0.
          5    1    3    3  502    0  0.38682887227E+01 -0.52635636245E+02 -0.49430465152E+01  0.53173113219E+02  0.41800000000E+01 0.  1.
         -5    1    3    3    0  502  0.38951419391E+02  0.44525844793E+02  0.78381145440E+02  0.98289573647E+02  0.41800000000E+01 0.  1.
        -11    1    1    2    0    0  0.21749029966E+02  0.19947436236E+02  0.44927889125E+02  0.53753471870E+02  0.00000000000E+00 0.  1.
         11    1    1    2    0    0 -0.64568738079E+02 -0.11837644784E+02  0.30003650082E+02  0.72176663745E+02  0.00000000000E+00 0. -1.
</event>
<event>
 7    1  0.2666594E-009  0.1353781E+03  0.7561462E-02  0.1219687E+00
         -1   -1    0    0    0  501 -0.00000000000E+00  0.00000000000E+00  0.59291466183E+02  0.59291466183E+02  0.00000000000E+00 0.  1.
          1   -1    0    0  501    0  0.00000000000E+00 -0.00000000000E+00 -0.39327567097E+03  0.39327567097E+03  0.00000000000E+00 0. -1.
         25    2    1    2    0    0 -0.94627759065E+02 -0.18370047286E+02 -0.23964849152E+03  0.28700334618E+03  0.12509056643E+03 0.  0.
          5    1    3    3  502    0 -0.10886421330E+03  0.24936171691E+02 -0.17884579679E+03  0.21089457325E+03  0.41800000000E+01 0. -1.
         -5    1    3    3    0  502  0.14236454234E+02 -0.43306218977E+02 -0.60802694724E+02  0.76108772930E+02  0.41800000000E+01 0. -1.
        -11    1    1    2    0    0  0.45696668615E+02  0.39036694798E+02 -0.95033234253E+02  0.11244271731E+03  0.00000000000E+00 0. -1.
         11    1    1    2    0    0  0.48931090450E+02 -0.20666647512E+02  0.69752097974E+00  0.53121073667E+02  0.00000000000E+00 0.  1.
</event>
<event>
 7    1  0.2666594E-009  0.1263933E+03  0.7561462E-02  0.1232908E+00
         -1   -1    0    0    0  501 -0.00000000000E+00  0.00000000000E+00  0.27658492971E+02  0.27658492971E+02  0.00000000000E+00 0.  1.
          1   -1    0    0  501    0  0.00000000000E+00 -0.00000000000E+00 -0.77218179172E+03  0.77218179172E+03  0.00000000000E+00 0. -1.
         25    2    1    2    0    0  0.39697860547E+02  0.86000187512E+02 -0.33440292020E+03  0.36938322962E+03  0.12508678947E+03 0.  0.
          5    1    3    3  502    0 -0.19215407056E+02  0.86459112854E+02 -0.13579785986E+03  0.16218181527E+03  0.41800000000E+01 0. -1.
         -5    1    3    3    0  502  0.58913267603E+02 -0.45892534187E+00 -0.19860506034E+03  0.20720141434E+03  0.41800000000E+01 0. -1.
        -11    1    1    2    0    0 -0.45369014190E+02 -0.45831872643E+02 -0.36116797995E+03  0.36688038615E+03  0.00000000000E+00 0. -1.
         11    1    1    2    0    0  0.56711536427E+01 -0.40168314869E+02 -0.48952398595E+02  0.63576668922E+02  0.00000000000E+00 0.  1.
</event>
<event>
 7    1  0.2666594E-009  0.1529739E+03  0.7561462E-02  0.1196866E+00
         -1   -1    0    0    0  501 -0.00000000000E+00  0.00000000000E+00  0.29501668673E+03  0.29501668673E+03  0.00000000000E+00 0.  1.
          1   -1    0    0  501    0  0.00000000000E+00 -0.00000000000E+00 -0.12275857710E+03  0.12275857710E+03  0.00000000000E+00 0. -1.
         25    2    1    2    0    0  0.13066346315E+03 -0.63487544158E+02  0.27264831859E+02  0.19363778753E+03  0.12509441568E+03 0.  0.
          5    1    3    3  502    0  0.86713897805E+02 -0.68378212596E+01  0.68522584002E+02  0.11081007531E+03  0.41800000000E+01 0.  1.
         -5    1    3    3    0  502  0.43949565347E+02 -0.56649722898E+02 -0.41257752144E+02  0.82827712214E+02  0.41800000000E+01 0.  1.
        -11    1    1    2    0    0 -0.10469811470E+03  0.40152802670E+02  0.49705966307E+02  0.12265653619E+03  0.00000000000E+00 0. -1.
         11    1    1    2    0    0 -0.25965348456E+02  0.23334741488E+02  0.95287311466E+02  0.10148094012E+03  0.00000000000E+00 0.  1.
</event>
<event>
 7    1  0.2666594E-009  0.1208643E+03  0.7561462E-02  0.1241678E+00
          1   -1    0    0  501    0  0.00000000000E+00  0.00000000000E+00  0.76605741417E+03  0.76605741417E+03  0.00000000000E+00 0. -1.
         -1   -1    0    0    0  501 -0.00000000000E+00 -0.00000000000E+00 -0.20856626774E+02  0.20856626774E+02  0.00000000000E+00 0.  1.
         25    2    1    2    0    0 -0.35250519900E+02  0.52099009662E+02  0.45712746081E+03  0.47808747703E+03  0.12508083110E+03 0.  0.
          5    1    3    3  502    0 -0.13307627235E+02 -0.39249082755E+02  0.91073449515E+02  0.10014703713E+03  0.41800000000E+01 0. -1.
         -5    1    3    3    0  502 -0.21942892666E+02  0.91348092417E+02  0.36605401129E+03  0.37794043990E+03  0.41800000000E+01 0. -1.
        -11    1    1    2    0    0 -0.28509598986E+02 -0.18198713878E+02  0.52657033104E+02  0.62583972042E+02  0.00000000000E+00 0.  1.
         11    1    1    2    0    0  0.63760118886E+02 -0.33900295784E+02  0.23541629349E+03  0.24624259188E+03  0.00000000000E+00 0. -1.
</event>
<event>
 7    1  0.2666594E-009  0.1394725E+03  0.7561462E-02  0.1214040E+00
         -1   -1    0    0    0  501 -0.00000000000E+00  0.00000000000E+00  0.52052477951E+03  0.52052477951E+03  0.00000000000E+00 0.  1.
          1   -1    0    0  501    0  0.00000000000E+00 -0.00000000000E+00 -0.57113716784E+02  0.57113716784E+02  0.00000000000E+00 0. -1.
         25    2    1    2    0    0  0.13001919288E+03 -0.19718558665E+02  0.20833433654E+03  0.27630643089E+03  0.12509290907E+03 0.  0.
          5    1    3    3  502    0  0.10078168570E+03  0.14462695172E+02  0.20744815196E+03  0.23112404867E+03  0.41800000000E+01 0.  1.
         -5    1    3    3    0  502  0.29237507185E+02 -0.34181253837E+02  0.88618458241E+00  0.45182382223E+02  0.41800000000E+01 0.  1.
        -11    1    1    2    0    0 -0.70427140746E+02  0.15620862427E+02  0.22119048270E+03  0.23265687855E+03  0.00000000000E+00 0.  1.
         11    1    1    2    0    0 -0.59592052134E+02  0.40976962376E+01  0.33886243482E+02  0.68675186853E+02  0.00000000000E+00 0. -1.
</event>
<event>
 7    1  0.2666594E-009  0.9216557E+02  0.7561462E-02  0.1297691E+00
          1   -1    0    0  501    0  0.00000000000E+00  0.00000000000E+00  0.68788216067E+03  0.68788216067E+03  0.00000000000E+00 0. -1.
         -1   -1    0    0    0  501 -0.00000000000E+00 -0.00000000000E+00 -0.20461201560E+02  0.20461201560E+02  0.00000000000E+00 0.  1.
         25    2    1    2    0    0 -0.44463472462E+02 -0.11392162009E+02  0.44394643776E+03  0.46351079736E+03  0.12508812066E+03 0.  0.
          5    1    3    3  502    0 -0.44211701799E+02  0.30059170038E+02  0.39756401280E+03  0.40116436152E+03  0.41800000000E+01 0. -1.
         -5    1    3    3    0  502 -0.25177066340E+00 -0.41451332047E+02  0.46382424963E+02  0.62346435843E+02  0.41800000000E+01 0. -1.
        -11    1    1    2    0    0  0.10332344291E+02  0.41966978349E+02  0.53430820019E+02  0.68722901119E+02  0.00000000000E+00 0.  1.
         11    1    1    2    0    0  0.34131128171E+02 -0.30574816340E+02  0.17004370133E+03  0.17610966375E+03  0.00000000000E+00 0. -1.
</event>
<event>
 7    1  0.2666594E-009  0.1051448E+03  0.7561462E-02  0.1269835E+00
         -1   -1    0    0    0  501 -0.00000000000E+00  0.00000000000E+00  0.70181424769E+02  0.70181424769E+02  0.00000000000E+00 0.  1.
          1   -1    0    0  501    0  0.00000000000E+00 -0.00000000000E+00 -0.20907716046E+03  0.20907716046E+03  0.00000000000E+00 0. -1.
         25    2    1    2    0    0  0.50818389705E+02  0.48419062745E+01 -0.10281892032E+03  0.16977811174E+03  0.12508766551E+03 0.  0.
          5    1    3    3  502    0  0.81021338568E+02 -0.26082423448E+02 -0.91208501518E+02  0.12482473018E+03  0.41800000000E+01 0.  1.
         -5    1    3    3    0  502 -0.30202948863E+02  0.30924329723E+02 -0.11610418800E+02  0.44953381558E+02  0.41800000000E+01 0.  1.
        -11    1    1    2    0    0 -0.34181548852E+02  0.28419497523E+02 -0.52528966192E+02  0.68813795206E+02  0.00000000000E+00 0. -1.
         11    1    1    2    0    0 -0.16636840853E+02 -0.33261403798E+02  0.16452150817E+02  0.40666678284E+02  0.00000000000E+00 0.  1.
</event>
<event>
 7    1  0.2666594E-009  0.1231013E+03  0.7561462E-02  0.1238067E+00
         -2   -1    0    0    0  501 -0.00000000000E+00  0.00000000000E+00  0.35734790474E+02  0.35734790474E+02  0.00000000000E+00 0.  1.
          2   -1    0    0  501    0  0.00000000000E+00 -0.00000000000E+00 -0.78664453590E+03  0.78664453590E+03  0.00000000000E+00 0. -1.
         25    2    1    2    0    0 -0.38755795858E+02 -0.77241178318E+02 -0.63091402262E+03  0.64897150074E+03  0.12507315259E+03 0.  0.
          5    1    3    3  502    0 -0.21462646558E+02  0.16024974744E+02 -0.37555064834E+03  0.37652783016E+03  0.41800000000E+01 0. -1.
         -5    1    3    3    0  502 -0.17293149300E+02 -0.93266153062E+02 -0.25536337428E+03  0.27244367059E+03  0.41800000000E+01 0. -1.
        -11    1    1    2    0    0  0.50558401236E+02  0.92163139172E+02 -0.10901352067E+03  0.15144023193E+03  0.00000000000E+00 0. -1.
         11    1    1    2    0    0 -0.11802605377E+02 -0.14921960855E+02 -0.10982202139E+02  0.21967593707E+02  0.00000000000E+00 0.  1.
</event>
<event>
 7    1  0.2666594E-009  0.1104905E+03  0.7561462E-02  0.1259664E+00
          1   -1    0    0  501    0  0.00000000000E+00  0.00000000000E+00  0.52471703933E+02  0.52471703933E+02  0.00000000000E+00 0. -1.
         -1   -1    0    0    0  501 -0.00000000000E+00 -0.00000000000E+00 -0.29431660181E+03  0.29431660181E+03  0.00000000000E+00 0.  1.
         25    2    1    2    0    0 -0.28099880967E+02 -0.47491038613E+02 -0.17283604249E+03  0.22037383130E+03  0.12508927164E+03 0.  0.
          5    1    3    3  502    0  0.37941913906E+02  0.19224323097E+02 -0.52630775677E+02  0.67798483595E+02  0.41800000000E+01 0. -1.
         -5    1    3    3    0  502 -0.66041794872E+02 -0.66715361709E+02 -0.12020526681E+03  0.15257534770E+03  0.41800000000E+01 0. -1.
        -11    1    1    2    0    0 -0.16248305995E+02  0.34383752715E+02  0.57967052216E+01  0.38468840507E+02  0.00000000000E+00 0. -1.
         11    1    1    2    0    0  0.44348186962E+02  0.13107285898E+02 -0.74805560615E+02  0.87945633941E+02  0.00000000000E+00 0.  1.
</event>
<event>
 7    1  0.2666594E-009  0.1344507E+03  0.7561462E-02  0.1220997E+00
          1   -1    0    0  501    0  0.00000000000E+00  0.00000000000E+00  0.49577287274E+02  0.49577287274E+02  0.00000000000E+00 0. -1.
         -1   -1    0    0    0  501 -0.00000000000E+00 -0.00000000000E+00 -0.36937100710E+03  0.36937100710E+03  0.00000000000E+00 0.  1.
         25    2    1    2    0    0  0.72913674130E+02 -0.34749659081E+02 -0.19521265458E+03  0.24551851293E+03  0.12508963588E+03 0.  0.
          5    1    3    3  502    0  0.10318404000E+03 -0.49751854285E+02 -0.15609155196E+03  0.19366010975E+03  0.41800000000E+01 0. -1.
         -5    1    3    3    0  502 -0.30270365869E+02  0.15002195204E+02 -0.39121102621E+02  0.51858403186E+02  0.41800000000E+01 0. -1.
        -11    1    1    2    0    0 -0.34500687265E+02 -0.29487475329E+02 -0.54167743020E+02  0.70667906484E+02  0.00000000000E+00 0.  1.
         11    1    1    2    0    0 -0.38412986865E+02  0.64237134409E+02 -0.70413322232E+02  0.10276187496E+03  0.00000000000E+00 0. -1.
</event>
<event>
 7    1  0.2666594E-009  0.1107205E+03  0.7561462E-02  0.1259241E+00
          2   -1    0    0  501    0  0.00000000000E+00  0.00000000000E+00  0.58821320976E+03  0.58821320976E+03  0.00000000000E+00 0. -1.
         -2   -1    0    0    0  501 -0.00000000000E+00 -0.00000000000E+00 -0.22190650949E+02  0.22190650949E+02  0.00000000000E+00 0.  1.
         25    2    1    2    0    0  0.52425986632E+01  0.42042738303E+02  0.32918739059E+03  0.35469400650E+03  0.12509365868E+03 0.  0.
          5    1    3    3  502    0 -0.35221935144E+02 -0.31124869653E+02  0.96852348696E+02  0.10773667933E+03  0.41800000000E+01 0. -1.
         -5    1    3    3    0  502  0.40464533807E+02  0.73167607955E+02  0.23233504189E+03  0.24695732717E+03  0.41800000000E+01 0. -1.
        -11    1    1    2    0    0 -0.41435570002E+02 -0.33661320536E+02  0.93790816385E+02  0.10791991568E+03  0.00000000000E+00 0.  1.
         11    1    1    2    0    0  0.36192971339E+02 -0.83814177669E+01  0.14304435184E+03  0.14778993853E+03  0.00000000000E+00 0. -1.
</event>
<event>
 7    1  0.2666594E-009  0.1951487E+03  0.7561462E-02  0.1153898E+00
          1   -1    0    0  501    0  0.00000000000E+00  0.00000000000E+00  0.35893200530E+02  0.35893200530E+02  0.00000000000E+00 0. -1.
         -1   -1    0    0    0  501 -0.00000000000E+00 -0.00000000000E+00 -0.12309071706E+04  0.12309071706E+04  0.00000000000E+00 0.  1.
         25    2    1    2    0    0  0.11466972971E+02 -0.17837131473E+03 -0.57058000844E+03  0.61086699938E+03  0.12509647283E+03 0.  0.
          5    1    3    3  502    0  0.50797822341E+02 -0.93843951635E+02 -0.42286550154E+03  0.43614196175E+03  0.41800000000E+01 0. -1.
         -5    1    3    3    0  502 -0.39330849370E+02 -0.84527363095E+02 -0.14771450691E+03  0.17472503763E+03  0.41800000000E+01 0. -1.
        -11    1    1    2    0    0  0.22365695180E+02  0.12503713895E+03 -0.50612362016E+03  0.52181953712E+03  0.00000000000E+00 0.  1.
         11    1    1    2    0    0 -0.33832668151E+02  0.53334175785E+02 -0.11831034150E+03  0.13411383466E+03  0.00000000000E+00 0. -1.
</event>
<event>
 7    1  0.2666594E-009  0.1990612E+03  0.7561462E-02  0.1150534E+00
         -1   -1    0    0    0  501 -0.00000000000E+00  0.00000000000E+00  0.68073436188E+02  0.68073436188E+02  0.00000000000E+00 0.  1.
          1   -1    0    0  501    0  0.00000000000E+00 -0.00000000000E+00 -0.64852759572E+03  0.64852759572E+03  0.00000000000E+00 0. -1.
         25    2    1    2    0    0 -0.11865580460E+03 -0.13452507200E+03 -0.32218230067E+03  0.38939041577E+03  0.12508903258E+03 0.  0.
          5    1    3    3  502    0  0.12238222007E+02 -0.85488717858E+01  0.39965386376E+01  0.16009434961E+02  0.41800000000E+01 0. -1.
         -5    1    3    3    0  502 -0.13089402661E+03 -0.12597620021E+03 -0.32617883930E+03  0.37338098081E+03  0.41800000000E+01 0. -1.
        -11    1    1    2    0    0  0.10618145573E+03  0.53451823259E+02 -0.15253381530E+03  0.19338604852E+03  0.00000000000E+00 0.  1.
         11    1    1    2    0    0  0.12474348873E+02  0.81073248739E+02 -0.10573804356E+03  0.13382456761E+03  0.00000000000E+00 0. -1.
</event>
<event>
 7    1  0.2666594E-009  0.1409837E+03  0.7561462E-02  0.1212011E+00
          2   -1    0    0  501    0  0.00000000000E+00  0.00000000000E+00  0.43095479873E+02  0.43095479873E+02  0.00000000000E+00 0. -1.
         -2   -1    0    0    0  501 -0.00000000000E+00 -0.00000000000E+00 -0.76974270955E+03  0.76974270955E+03  0.00000000000E+00 0.  1.
         25    2    1    2    0    0  0.21073428272E+02  0.10857603077E+03 -0.59362597662E+03  0.61665910492E+03  0.12507520827E+03 0.  0.
          5    1    3    3  502    0 -0.23417842017E+01 -0.21495094135E+02 -0.20446389178E+03  0.20564648907E+03  0.41800000000E+01 0. -1.
         -5    1    3    3    0  502  0.23415212474E+02  0.13007112491E+03 -0.38916208484E+03  0.41101261585E+03  0.41800000000E+01 0. -1.
        -11    1    1    2    0    0 -0.42980353924E+02 -0.54761366314E+02 -0.11660039337E+03  0.13580047790E+03  0.00000000000E+00 0.  1.
         11    1    1    2    0    0  0.21906925652E+02 -0.53814664461E+02 -0.16420859688E+02  0.60378606604E+02  0.00000000000E+00 0. -1.
</event>
<event>
 7    1  0.2666594E-009  0.1702887E+03  0.7561462E-02  0.1177547E+00
         -2   -1    0    0    0  501 -0.00000000000E+00  0.00000000000E+00  0.88620989511E+02  0.88620989511E+02  0.00000000000E+00 0.  1.
          2   -1    0    0  501    0  0.00000000000E+00 -0.00000000000E+00 -0.37265458011E+03  0.37265458011E+03  0.00000000000E+00 0. -1.
         25    2    1    2    0    0  0.13627789990E+03  0.35828609843E+02 -0.23289425324E+03  0.29957034767E+03  0.12508918708E+03 0.  0.
          5    1    3    3  502    0  0.15582841408E+03  0.11291947440E+02 -0.18528413647E+03  0.24239984806E+03  0.41800000000E+01 0. -1.
         -5    1    3    3    0  502 -0.19550514181E+02  0.24536662402E+02 -0.47610116769E+02  0.57170499607E+02  0.41800000000E+01 0. -1.
        -11    1    1    2    0    0 -0.53608044713E+02  0.14900940231E+02 -0.10912310532E+02  0.56700432087E+02  0.00000000000E+00 0.  1.
         11    1    1    2    0    0 -0.82669855188E+02 -0.50729550074E+02 -0.40227026828E+02  0.10500478987E+03  0.00000000000E+00 0. -1.
</event>
<event>
 7    1  0.2666594E-009  0.5921827E+02  0.7561462E-02  0.1401142E+00
          2   -1    0    0  501    0  0.00000000000E+00  0.00000000000E+00  0.47213607549E+03  0.47213607549E+03  0.00000000000E+00 0. -1.
         -2   -1    0    0    0  501 -0.00000000000E+00 -0.00000000000E+00 -0.32970115866E+02  0.32970115866E+02  0.00000000000E+00 0.  1.
         25    2    1    2    0    0  0.20786822879E+02  0.30785133734E+02  0.35024098162E+03  0.37375911044E+03  0.12508921203E+03 0.  0.
          5    1    3    3  502    0 -0.67190245683E+01  0.92456148553E+01 -0.74979774022E+01  0.14294010995E+02  0.41800000000E+01 0. -1.
         -5    1    3    3    0  502  0.27505847447E+02  0.21539518879E+02  0.35773895902E+03  0.35946509944E+03  0.41800000000E+01 0. -1.
        -11    1    1    2    0    0 -0.32224838527E+02  0.58067997402E+01 -0.18625002429E+01  0.32796768872E+02  0.00000000000E+00 0.  1.
         11    1    1    2    0    0  0.11438015648E+02 -0.36591933474E+02  0.90787478253E+02  0.98550312049E+02  0.00000000000E+00 0. -1.
</event>
<event>
 7    1  0.2666594E-009  0.1214334E+03  0.7561462E-02  0.1240751E+00
          1   -1    0    0  501    0  0.00000000000E+00  0.00000000000E+00  0.29369651166E+02  0.29369651166E+02  0.00000000000E+00 0. -1.
         -1   -1    0    0    0  501 -0.00000000000E+00 -0.00000000000E+00 -0.63665904832E+03  0.63665904832E+03  0.00000000000E+00 0.  1.
         25    2    1    2    0    0 -0.67458216405E+02 -0.43614791386E+02 -0.27905098416E+03  0.31617952233E+03  0.12508867890E+03 0.  0.
          5    1    3    3  502    0 -0.16206721103E+02 -0.82399121319E+02 -0.15045804854E+03  0.17235825995E+03  0.41800000000E+01 0. -1.
         -5    1    3    3    0  502 -0.51251495302E+02  0.38784329933E+02 -0.12859293562E+03  0.14382126237E+03  0.41800000000E+01 0. -1.
        -11    1    1    2    0    0  0.45915695102E+02  0.53646663506E+02 -0.31464700652E+03  0.32247318380E+03  0.00000000000E+00 0.  1.
         11    1    1    2    0    0  0.21542521303E+02 -0.10031872120E+02 -0.13591406475E+02  0.27375993357E+02  0.00000000000E+00 0. -1.
</event>
<event>
 7    1  0.2666594E-009  0.1117584E+03  0.7561462E-02  0.1257348E+00
         -2   -1    0    0    0  501 -0.00000000000E+00  0.00000000000E+00  0.82518343248E+02  0.82518343248E+02  0.00000000000E+00 0.  1.
          2   -1    0    0  501    0  0.00000000000E+00 -0.00000000000E+00 -0.27978657471E+03  0.27978657471E+03  0.00000000000E+00 0. -1.
         25    2    1    2    0    0  0.22916581260E+02 -0.13925469297E+02 -0.22780324549E+03  0.26126805329E+03  0.12509032185E+03 0.  0.
          5    1    3    3  502    0 -0.40541764487E+02  0.29450934126E+02 -0.10329897539E+03  0.11488752284E+03  0.41800000000E+01 0.  1.
         -5    1    3    3    0  502  0.63458345748E+02 -0.43376403423E+02 -0.12450427011E+03  0.14638053045E+03  0.41800000000E+01 0.  1.
        -11    1    1    2    0    0  0.16580342649E+02 -0.31780370097E+02  0.96580994402E+01  0.37123827532E+02  0.00000000000E+00 0. -1.
         11    1    1    2    0    0 -0.39496923909E+02  0.45705839394E+02  0.20876914593E+02  0.63913037136E+02  0.00000000000E+00 0.  1.
</event>
<event>
 7    1  0.2666594E-009  0.1155330E+03  0.7561462E-02  0.1250654E+00
         -1   -1    0    0    0  501 -0.00000000000E+00  0.00000000000E+00  0.15628205290E+02  0.15628205290E+02  0.00000000000E+00 0.  1.
          1   -1    0    0  501    0  0.00000000000E+00 -0.00000000000E+00 -0.91316579629E+03  0.91316579629E+03  0.00000000000E+00 0. -1.
         25    2    1    2    0    0  0.79161652963E+01  0.45226406235E+02 -0.51708415924E+03  0.53397618915E+03  0.12508576800E+03 0.  0.
          5    1    3    3  502    0 -0.41868198803E+02 -0.20025992308E+02 -0.12576194530E+03  0.13411758171E+03  0.41800000000E+01 0.  1.
         -5    1    3    3    0  502  0.49784364099E+02  0.65252398543E+02 -0.39132221393E+03  0.39985860744E+03  0.41800000000E+01 0.  1.
        -11    1    1    2    0    0  0.41910384967E+02 -0.21272262356E+02 -0.22416513681E+03  0.22903929374E+03  0.00000000000E+00 0.  1.
         11    1    1    2    0    0 -0.49826550263E+02 -0.23954143880E+02 -0.15628829495E+03  0.16577851869E+03  0.00000000000E+00 0. -1.
</event>
<event>
 7    1  0.2666594E-009  0.2204061E+03  0.7561462E-02  0.1133581E+00
         -2   -1    0    0    0  501 -0.00000000000E+00  0.00000000000E+00  0.66293340099E+03  0.66293340099E+03  0.00000000000E+00 0. -1.
          2   -1    0    0  501    0  0.00000000000E+00 -0.00000000000E+00 -0.12980326734E+03  0.12980326734E+03  0.00000000000E+00 0.  1.
         25    2    1    2    0    0  0.10419668256E+02  0.20193878165E+03  0.52072503804E+03  0.57244282143E+03  0.12509347519E+03 0.  0.
          5    1    3    3  502    0  0.45331430464E+02  0.19429877535E+03  0.46619197685E+03  0.50710884864E+03  0.41800000000E+01 0. -1.
         -5    1    3    3    0  502 -0.34911762208E+02  0.76400062977E+01  0.54533061196E+02  0.65333972787E+02  0.41800000000E+01 0. -1.
        -11    1    1    2    0    0  0.13113662387E+02 -0.62724512159E+02  0.41221098751E+02  0.76193907558E+02  0.00000000000E+00 0. -1.
         11    1    1    2    0    0 -0.23533330643E+02 -0.13921426949E+03 -0.28816003147E+02  0.14409993934E+03  0.00000000000E+00 0.  1.
</event>
<event>
 7    1  0.2666594E-009  0.1365200E+03  0.7561462E-02  0.1218090E+00
         -2   -1    0    0    0  501 -0.00000000000E+00  0.00000000000E+00  0.29702117498E+02  0.29702117498E+02  0.00000000000E+00 0.  1.
          2   -1    0    0  501    0  0.00000000000E+00 -0.00000000000E+00 -0.76403959909E+03  0.76403959909E+03  0.00000000000E+00 0. -1.
         25    2    1    2    0    0  0.34011760050E+02 -0.83275714483E+02 -0.53270392709E+03  0.55453810791E+03  0.12508954687E+03 0.  0.
          5    1    3    3  502    0  0.77493289532E+02 -0.25590466038E+02 -0.28196707920E+03  0.29356939218E+03  0.41800000000E+01 0. -1.
         -5    1    3    3    0  502 -0.43481529482E+02 -0.57685248446E+02 -0.25073684790E+03  0.26096871573E+03  0.41800000000E+01 0. -1.
        -11    1    1    2    0    0 -0.24539728167E+00  0.85146961409E+02 -0.96154299185E+02  0.12843564345E+03  0.00000000000E+00 0.  1.
         11    1    1    2    0    0 -0.33766362768E+02 -0.18712469260E+01 -0.10547925531E+03  0.11076796523E+03  0.00000000000E+00 0. -1.
</event>
<event>
 7    1  0.2666594E-009  0.1045596E+03  0.7561462E-02  0.1270990E+00
         -1   -1    0    0    0  501 -0.00000000000E+00  0.00000000000E+00  0.10057706346E+02  0.10057706346E+02  0.00000000000E+00 0.  1.
          1   -1    0    0  501    0  0.00000000000E+00 -0.00000000000E+00 -0.13717182540E+04  0.13717182540E+04  0.00000000000E+00 0. -1.
         25    2    1    2    0    0  0.15281725849E+02 -0.22836917894E+02 -0.96613004875E+03  0.97457927893E+03  0.12506975599E+03 0.  0.
          5    1    3    3  502    0  0.46349396454E+02  0.31346571530E+02 -0.27787869109E+03  0.28348706048E+03  0.41800000000E+01 0. -1.
         -5    1    3    3    0  502 -0.31067670605E+02 -0.54183489424E+02 -0.68825135766E+03  0.69109221845E+03  0.41800000000E+01 0. -1.
        -11    1    1    2    0    0 -0.43546741103E+02 -0.12362603351E+02 -0.12540609014E+03  0.13332606672E+03  0.00000000000E+00 0.  1.
         11    1    1    2    0    0  0.28265015254E+02  0.35199521245E+02 -0.27012440877E+03  0.27387061470E+03  0.00000000000E+00 0. -1.
</event>
<event>
 7    1  0.2666594E-009  0.1861977E+03  0.7561462E-02  0.1161936E+00
         -1   -1    0    0    0  501 -0.00000000000E+00  0.00000000000E+00  0.50914361341E+02  0.50914361341E+02  0.00000000000E+00 0.  1.
          1   -1    0    0  501    0  0.00000000000E+00 -0.00000000000E+00 -0.86146829368E+03  0.86146829368E+03  0.00000000000E+00 0. -1.
         25    2    1    2    0    0 -0.16207845059E+03  0.75936944681E+02 -0.43107528489E+03  0.48322811012E+03  0.12509061298E+03 0.  0.
          5    1    3    3  502    0 -0.99548703833E+02  0.58558545188E+02 -0.38891586139E+03  0.40572412708E+03  0.41800000000E+01 0.  1.
         -5    1    3    3    0  502 -0.62529746753E+02  0.17378399493E+02 -0.42159423499E+02  0.77503983044E+02  0.41800000000E+01 0.  1.
        -11    1    1    2    0    0  0.26039596689E+02 -0.45444792919E+02 -0.54773628368E+02  0.75785487818E+02  0.00000000000E+00 0.  1.
         11    1    1    2    0    0  0.13603885390E+03 -0.30492151762E+02 -0.32470501908E+03  0.35336905708E+03  0.00000000000E+00 0. -1.
</event>
<event>
 7    1  0.2666594E-009  0.1595544E+03  0.7561462E-02  0.1189201E+00
         -1   -1    0    0    0  501 -0.00000000000E+00  0.00000000000E+00  0.10391767792E+03  0.10391767792E+03  0.00000000000E+00 0. -1.
          1   -1    0    0  501    0  0.00000000000E+00 -0.00000000000E+00 -0.31332638201E+03  0.31332638201E+03  0.00000000000E+00 0.  1.
         25    2    1    2    0    0  0.87968073160E+02 -0.90246411284E+02 -0.18826856728E+03  0.25879586406E+03  0.12508976450E+03 0.  0.
          5    1    3    3  502    0 -0.27732766783E+02 -0.39756627922E+02 -0.33703663015E+02  0.59187035048E+02  0.41800000000E+01 0.  1.
         -5    1    3    3    0  502  0.11570083994E+03 -0.50489783361E+02 -0.15456490426E+03  0.19960882901E+03  0.41800000000E+01 0.  1.
        -11    1    1    2    0    0 -0.10017787984E+03  0.79693463106E+02 -0.39536062053E+02  0.13397669899E+03  0.00000000000E+00 0. -1.
         11    1    1    2    0    0  0.12209806675E+02  0.10552948178E+02  0.18395925245E+02  0.24471496887E+02  0.00000000000E+00 0.  1.
</event>
<event>
 7    1  0.2666594E-009  0.1068225E+03  0.7561462E-02  0.1266570E+00
          2   -1    0    0  501    0  0.00000000000E+00  0.00000000000E+00  0.75480830799E+03  0.75480830799E+03  0.00000000000E+00 0. -1.
         -2   -1    0    0    0  501 -0.00000000000E+00 -0.00000000000E+00 -0.22842279776E+02  0.22842279776E+02  0.00000000000E+00 0.  1.
         25    2    1    2    0    0 -0.49682024648E+02 -0.49653871462E+02  0.34038337282E+03  0.36938120126E+03  0.12509124999E+03 0.  0.
          5    1    3    3  502    0 -0.26799488882E+02  0.24262577582E+02  0.23910486368E+03  0.24185841625E+03  0.41800000000E+01 0.  1.
         -5    1    3    3    0  502 -0.22882535766E+02 -0.73916449044E+02  0.10127850914E+03  0.12752278501E+03  0.41800000000E+01 0.  1.
        -11    1    1    2    0    0  0.16156292735E+02 -0.18043135361E+02  0.28453288019E+02  0.37365359997E+02  0.00000000000E+00 0.  1.
         11    1    1    2    0    0  0.33525731913E+02  0.67697006823E+02  0.36312936738E+03  0.37090402651E+03  0.00000000000E+00 0. -1.
</event>
<event>
 7    1  0.2666594E-009  0.1654325E+03  0.7561462E-02  0.1182697E+00
          2   -1    0    0  501    0  0.00000000000E+00  0.00000000000E+00  0.46912233737E+03  0.46912233737E+03  0.00000000000E+00 0. -1.
         -2   -1    0    0    0  501 -0.00000000000E+00 -0.00000000000E+00 -0.87433399224E+02  0.87433399224E+02  0.00000000000E+00 0.  1.
         25    2    1    2    0    0  0.15654787537E+03  0.24521402707E+02  0.28735223343E+03  0.35118109758E+03  0.12509324829E+03 0.  0.
          5    1    3    3  502    0  0.20405665927E+02  0.12169430115E+02  0.16781143654E+03  0.16953653548E+03  0.41800000000E+01 0.  1.
         -5    1    3    3    0  502  0.13614220944E+03  0.12351972592E+02  0.11954079690E+03  0.18164456210E+03  0.41800000000E+01 0.  1.
        -11    1    1    2    0    0 -0.81401380332E+00 -0.13853080510E+02 -0.10445491121E+02  0.17368901601E+02  0.00000000000E+00 0. -1.
         11    1    1    2    0    0 -0.15573386156E+03 -0.10668322197E+02  0.10478219584E+03  0.18800573741E+03  0.00000000000E+00 0.  1.
</event>
<event>
 7    1  0.2666594E-009  0.1734752E+03  0.7561462E-02  0.1174271E+00
         -2   -1    0    0    0  501 -0.00000000000E+00  0.00000000000E+00  0.67508482731E+02  0.67508482731E+02  0.00000000000E+00 0. -1.
          2   -1    0    0  501    0  0.00000000000E+00 -0.00000000000E+00 -0.52545724444E+03  0.52545724444E+03  0.00000000000E+00 0.  1.
         25    2    1    2    0    0  0.14353923102E+03 -0.37298233055E+02 -0.18476716511E+03  0.26791985323E+03  0.12508986140E+03 0.  0.
          5    1    3    3  502    0  0.14301655549E+03 -0.70992268868E+02 -0.15817862597E+03  0.22479232081E+03  0.41800000000E+01 0. -1.
         -5    1    3    3    0  502  0.52267552841E+00  0.33694035813E+02 -0.26588539136E+02  0.43127532418E+02  0.41800000000E+01 0. -1.
        -11    1    1    2    0    0 -0.28580746628E+02  0.24423830134E+02 -0.15569344204E+03  0.16016813182E+03  0.00000000000E+00 0.  1.
         11    1    1    2    0    0 -0.11495848439E+03  0.12874402921E+02 -0.11748815456E+03  0.16487774212E+03  0.00000000000E+00 0. -1.
</event>
<event>
 7    1  0.2666594E-009  0.1862468E+03  0.7561462E-02  0.1161891E+00
          1   -1    0    0  501    0  0.00000000000E+00  0.00000000000E+00  0.12023183577E+03  0.12023183577E+03  0.00000000000E+00 0. -1.
         -1   -1    0    0    0  501 -0.00000000000E+00 -0.00000000000E+00 -0.37189539958E+03  0.37189539958E+03  0.00000000000E+00 0.  1.
         25    2    1    2    0    0  0.24313453868E+02 -0.15041173379E+03 -0.24503175441E+03  0.31448963526E+03  0.12509331044E+03 0.  0.
          5    1    3    3  502    0  0.68676106643E+02 -0.12894622631E+03 -0.19914718730E+03  0.24702350397E+03  0.41800000000E+01 0.  1.
         -5    1    3    3    0  502 -0.44362652775E+02 -0.21465507480E+02 -0.45884567102E+02  0.67466131286E+02  0.41800000000E+01 0.  1.
        -11    1    1    2    0    0 -0.50084235715E+02  0.14068516730E+03 -0.12551243790E+00  0.14933439898E+03  0.00000000000E+00 0.  1.
         11    1    1    2    0    0  0.25770781847E+02  0.97265664977E+01 -0.65062969668E+01  0.28303201110E+02  0.00000000000E+00 0. -1.
</event>
<event>
 7    1  0.2666594E-009  0.7008078E+02  0.7561462E-02  0.1359819E+00
          1   -1    0    0  501    0  0.00000000000E+00  0.00000000000E+00  0.26324909151E+03  0.26324909151E+03  0.00000000000E+00 0. -1.
         -1   -1    0    0    0  501 -0.00000000000E+00 -0.00000000000E+00 -0.46973757075E+02  0.46973757075E+02  0.00000000000E+00 0.  1.
         25    2    1    2    0    0 -0.18006674929E+02 -0.11831675680E+02  0.13593647041E+03  0.18598628676E+03  0.12509175026E+03 0.  0.
          5    1    3    3  502    0  0.13471565881E+02 -0.41940122324E+02  0.11381683198E+01  0.44263131102E+02  0.41800000000E+01 0. -1.
         -5    1    3    3    0  502 -0.31478240811E+02  0.30108446644E+02  0.13479830209E+03  0.14172315566E+03  0.41800000000E+01 0. -1.
        -11    1    1    2    0    0  0.86590825685E+01 -0.18493690826E+02  0.89024105604E+02  0.91336124781E+02  0.00000000000E+00 0. -1.
         11    1    1    2    0    0  0.93475923607E+01  0.30325366505E+02 -0.86852415746E+01  0.32900437046E+02  0.00000000000E+00 0.  1.
</event>
<event>
 7    1  0.2666594E-009  0.1850981E+03  0.7561462E-02  0.1162958E+00
         -1   -1    0    0    0  501 -0.00000000000E+00  0.00000000000E+00  0.12700049121E+03  0.12700049121E+03  0.00000000000E+00 0.  1.
          1   -1    0    0  501    0  0.00000000000E+00 -0.00000000000E+00 -0.29787597867E+03  0.29787597867E+03  0.00000000000E+00 0. -1.
         25    2    1    2    0    0  0.13744540357E+02  0.15388359514E+03 -0.40487493638E+02  0.20287223302E+03  0.12509529387E+03 0.  0.
          5    1    3    3  502    0 -0.50271970068E+02  0.31436991651E+02 -0.22125073637E+02  0.63423550059E+02  0.41800000000E+01 0.  1.
         -5    1    3    3    0  502  0.64016510426E+02  0.12244660349E+03 -0.18362420001E+02  0.13944868296E+03  0.41800000000E+01 0.  1.
        -11    1    1    2    0    0  0.15493182580E+02 -0.13872766884E+03 -0.77390125201E+02  0.15960775760E+03  0.00000000000E+00 0.  1.
         11    1    1    2    0    0 -0.29237722938E+02 -0.15155926300E+02 -0.52997868622E+02  0.62396479252E+02  0.00000000000E+00 0. -1.
</event>
<event>
 7    1  0.2666594E-009  0.7272408E+02  0.7561462E-02  0.1351067E+00
         -2   -1    0    0    0  501 -0.00000000000E+00  0.00000000000E+00  0.95974932443E+01  0.95974932443E+01  0.00000000000E+00 0.  1.
          2   -1    0    0  501    0  0.00000000000E+00 -0.00000000000E+00 -0.18415811286E+04  0.18415811286E+04  0.00000000000E+00 0. -1.
         25    2    1    2    0    0 -0.13535428808E+02 -0.56040955116E+01 -0.15379868325E+04  0.15431347667E+04  0.12508716034E+03 0.  0.
          5    1    3    3  502    0 -0.99000140195E+01  0.26199928650E+02 -0.81308086539E+02  0.86098338401E+02  0.41800000000E+01 0.  1.
         -5    1    3    3    0  502 -0.36354147885E+01 -0.31804024162E+02 -0.14566787459E+04  0.14570364283E+04  0.41800000000E+01 0.  1.
        -11    1    1    2    0    0  0.34002431724E+02 -0.28969317745E+02 -0.21295404418E+03  0.21758862946E+03  0.00000000000E+00 0.  1.
         11    1    1    2    0    0 -0.20467002916E+02  0.34573413257E+02 -0.81042758661E+02  0.90455225631E+02  0.00000000000E+00 0. -1.
</event>
<event>
 7    1  0.2666594E-009  0.1147437E+03  0.7561462E-02  0.1252029E+00
         -2   -1    0    0    0  501 -0.00000000000E+00  0.00000000000E+00  0.25610685357E+03  0.25610685357E+03  0.00000000000E+00 0.  1.
          2   -1    0    0  501    0  0.00000000000E+00 -0.00000000000E+00 -0.80456360508E+02  0.80456360508E+02  0.00000000000E+00 0. -1.
         25    2    1    2    0    0 -0.90434594440E+02 -0.86774215671E+01  0.72645315449E+02  0.17081768851E+03  0.12509047659E+03 0.  0.
          5    1    3    3  502    0 -0.87527066565E+01  0.37882996586E+02 -0.15316711390E+02  0.41997682698E+02  0.41800000000E+01 0. -1.
         -5    1    3    3    0  502 -0.81681887784E+02 -0.46560418153E+02  0.87962026839E+02  0.12882000581E+03  0.41800000000E+01 0. -1.
        -11    1    1    2    0    0  0.53275778615E+02  0.20786386537E+02  0.11189809664E+03  0.12566449970E+03  0.00000000000E+00 0.  1.
         11    1    1    2    0    0  0.37158815825E+02 -0.12108964970E+02 -0.88929190304E+01  0.40081025873E+02  0.00000000000E+00 0. -1.
</event>
<event>
 7    1  0.2666594E-009  0.1170845E+03  0.7561462E-02  0.1247986E+00
          1   -1    0    0  501    0  0.00000000000E+00  0.00000000000E+00  0.77337676451E+02  0.77337676451E+02  0.00000000000E+00 0.  1.
         -1   -1    0    0    0  501 -0.00000000000E+00 -0.00000000000E+00 -0.22457790954E+03  0.22457790954E+03  0.00000000000E+00 0. -1.
         25    2    1    2    0    0  0.54236151405E+02  0.71853617230E+01 -0.13903111569E+03  0.19485918718E+03  0.12508901693E+03 0.  0.
          5    1    3    3  502    0  0.12723140160E+02  0.62167609019E+02 -0.43683577638E+02  0.77151910293E+02  0.41800000000E+01 0. -1.
         -5    1    3    3    0  502  0.41513011245E+02 -0.54982247295E+02 -0.95347538051E+02  0.11770727689E+03  0.41800000000E+01 0. -1.
        -11    1    1    2    0    0 -0.40523644755E+02  0.37255254173E+02  0.12013083390E+02  0.56342114979E+02  0.00000000000E+00 0.  1.
         11    1    1    2    0    0 -0.13712506650E+02 -0.44440615896E+02 -0.20222200793E+02  0.50714283834E+02  0.00000000000E+00 0. -1.
</event>
<event>
 7    1  0.2666594E-009  0.1138936E+03  0.7561462E-02  0.1253525E+00
          2   -1    0    0  501    0  0.00000000000E+00  0.00000000000E+00  0.46574661040E+03  0.46574661040E+03  0.00000000000E+00 0. -1.
         -2   -1    0    0    0  501 -0.00000000000E+00 -0.00000000000E+00 -0.29007241846E+02  0.29007241846E+02  0.00000000000E+00 0.  1.
         25    2    1    2    0    0  0.11954910344E+02 -0.34568476261E+02  0.22408599879E+03  0.25922827417E+03  0.12508742480E+03 0.  0.
          5    1    3    3  502    0  0.64151187276E+02  0.15473334265E+01  0.87822205613E+02  0.10884843255E+03  0.41800000000E+01 0. -1.
         -5    1    3    3    0  502 -0.52196276932E+02 -0.36115809688E+02  0.13626379317E+03  0.15037984162E+03  0.41800000000E+01 0. -1.
        -11    1    1    2    0    0  0.40805499328E+02  0.12457909830E+02  0.11040837741E+03  0.11836510506E+03  0.00000000000E+00 0. -1.
         11    1    1    2    0    0 -0.52760409673E+02  0.22110566431E+02  0.10224499235E+03  0.11716047302E+03  0.00000000000E+00 0.  1.
</event>
<event>
 7    1  0.2666594E-009  0.2291498E+03  0.7561462E-02  0.1127240E+00
          1   -1    0    0  501    0  0.00000000000E+00  0.00000000000E+00  0.92063921244E+03  0.92063921244E+03  0.00000000000E+00 0. -1.
         -1   -1    0    0    0  501 -0.00000000000E+00 -0.00000000000E+00 -0.67132819280E+02  0.67132819280E+02  0.00000000000E+00 0.  1.
         25    2    1    2    0    0 -0.18569349312E+03  0.11697896654E+03  0.35466446036E+03  0.43543161972E+03  0.12509062316E+03 0.  0.
          5    1    3    3  502    0 -0.15071751492E+02 -0.15015872577E+02  0.96847891998E+02  0.99245255336E+02  0.41800000000E+01 0. -1.
         -5    1    3    3    0  502 -0.17062174163E+03  0.13199483912E+03  0.25781656836E+03  0.33618636438E+03  0.41800000000E+01 0.  1.
        -11    1    1    2    0    0  0.89202431383E+02 -0.41656964790E+02  0.12589366457E+03  0.15981736845E+03  0.00000000000E+00 0.  1.
         11    1    1    2    0    0  0.96491061741E+02 -0.75322001755E+02  0.37294826822E+03  0.39252304355E+03  0.00000000000E+00 0. -1.
</event>
<event>
 7    1  0.2666594E-009  0.1533204E+03  0.7561462E-02  0.1196451E+00
         -2   -1    0    0    0  501 -0.00000000000E+00  0.00000000000E+00  0.30564972015E+03  0.30564972015E+03  0.00000000000E+00 0.  1.
          2   -1    0    0  501    0  0.00000000000E+00 -0.00000000000E+00 -0.11277552566E+03  0.11277552566E+03  0.00000000000E+00 0. -1.
         25    2    1    2    0    0  0.46434272798E+02 -0.14076366095E+03  0.81442821094E+02  0.21036040508E+03  0.12509203404E+03 0.  0.
          5    1    3    3  502    0  0.10370653343E+02 -0.91686398367E+00  0.63829931524E+02  0.64808360947E+02  0.41800000000E+01 0.  1.
         -5    1    3    3    0  502  0.36063619455E+02 -0.13984679697E+03  0.17612889570E+02  0.14555204413E+03  0.41800000000E+01 0.  1.
        -11    1    1    2    0    0  0.37243489519E+01  0.16894018205E+02 -0.15885315893E+02  0.23486632097E+02  0.00000000000E+00 0. -1.
         11    1    1    2    0    0 -0.50158621750E+02  0.12386964275E+03  0.12731668930E+03  0.18457820864E+03  0.00000000000E+00 0.  1.
</event>
<event>
 7    1  0.2666594E-009  0.9691471E+02  0.7561462E-02  0.1286921E+00
          3   -1    0    0  501    0  0.00000000000E+00  0.00000000000E+00  0.60012781684E+02  0.60012781684E+02  0.00000000000E+00 0. -1.
         -3   -1    0    0    0  501 -0.00000000000E+00 -0.00000000000E+00 -0.24303826673E+03  0.24303826673E+03  0.00000000000E+00 0.  1.
         25    2    1    2    0    0 -0.47872642445E+02  0.22038185825E+01 -0.13256826202E+03  0.18846213010E+03  0.12508790380E+03 0.  0.
          5    1    3    3  502    0 -0.57232130639E+02 -0.51110887051E+02 -0.58262497961E+02  0.96435629418E+02  0.41800000000E+01 0.  1.
         -5    1    3    3    0  502  0.93594881943E+01  0.53314705633E+02 -0.74305764054E+02  0.92026500682E+02  0.41800000000E+01 0.  1.
        -11    1    1    2    0    0  0.49931911198E+02  0.94838013704E+01  0.10995816119E+02  0.52000444387E+02  0.00000000000E+00 0. -1.
         11    1    1    2    0    0 -0.20592687533E+01 -0.11687619953E+02 -0.61453039153E+02  0.62588473932E+02  0.00000000000E+00 0.  1.
</event>
<event>
 7    1  0.2666594E-009  0.8061771E+02  0.7561462E-02  0.1327308E+00
         -2   -1    0    0    0  501 -0.00000000000E+00  0.00000000000E+00  0.42037638245E+03  0.42037638245E+03  0.00000000000E+00 0.  1.
          2   -1    0    0  501    0  0.00000000000E+00 -0.00000000000E+00 -0.31335966972E+02  0.31335966972E+02  0.00000000000E+00 0. -1.
         25    2    1    2    0    0  0.17398562198E+02 -0.33511930340E+02  0.25245705664E+03  0.28425927851E+03  0.12507202937E+03 0.  0.
          5    1    3    3  502    0  0.47303025649E+02 -0.22894195199E+02  0.32382622124E+02  0.61869435305E+02  0.41800000000E+01 0.  1.
         -5    1    3    3    0  502 -0.29904463451E+02 -0.10617735141E+02  0.22007443451E+03  0.22238984320E+03  0.41800000000E+01 0.  1.
        -11    1    1    2    0    0  0.24611315238E+02  0.34503741619E+01  0.10272411188E+03  0.10568758244E+03  0.00000000000E+00 0.  1.
         11    1    1    2    0    0 -0.42009877436E+02  0.30061556178E+02  0.33859246958E+02  0.61765488475E+02  0.00000000000E+00 0. -1.
</event>
<event>
 7    1  0.2666594E-009  0.1309342E+03  0.7561462E-02  0.1226076E+00
         -1   -1    0    0    0  501 -0.00000000000E+00  0.00000000000E+00  0.23539909481E+02  0.23539909481E+02  0.00000000000E+00 0.  1.
          1   -1    0    0  501    0  0.00000000000E+00 -0.00000000000E+00 -0.96357193629E+03  0.96357193629E+03  0.00000000000E+00 0. -1.
         25    2    1    2    0    0 -0.92559540267E+02 -0.47337103662E+02 -0.46052353314E+03  0.48840406912E+03  0.12509412568E+03 0.  0.
          5    1    3    3  502    0 -0.92874017274E+02 -0.64239491614E+02 -0.22069057012E+03  0.24793970135E+03  0.41800000000E+01 0.  1.
         -5    1    3    3    0  502  0.31447700663E+00  0.16902387952E+02 -0.23983296302E+03  0.24046436777E+03  0.41800000000E+01 0.  1.
        -11    1    1    2    0    0  0.88302198411E+01  0.46895945414E+02 -0.24736069266E+03  0.25192164407E+03  0.00000000000E+00 0. -1.
         11    1    1    2    0    0  0.83729320426E+02  0.44115824754E+00 -0.23214780101E+03  0.24678613258E+03  0.00000000000E+00 0.  1.
</event>
<event>
 7    1  0.2666594E-009  0.1784031E+03  0.7561462E-02  0.1169357E+00
          1   -1    0    0  501    0  0.00000000000E+00  0.00000000000E+00  0.25742297705E+03  0.25742297705E+03  0.00000000000E+00 0. -1.
         -1   -1    0    0    0  501 -0.00000000000E+00 -0.00000000000E+00 -0.14893608111E+03  0.14893608111E+03  0.00000000000E+00 0.  1.
         25    2    1    2    0    0 -0.15608033827E+03 -0.29637103638E+02  0.97111368816E+02  0.22431594286E+03  0.12509034480E+03 0.  0.
          5    1    3    3  502    0 -0.90970181814E+01 -0.33651308759E+02  0.64817369304E+02  0.73715195750E+02  0.41800000000E+01 0. -1.
         -5    1    3    3    0  502 -0.14698332008E+03  0.40142051215E+01  0.32293999512E+02  0.15060074711E+03  0.41800000000E+01 0. -1.
        -11    1    1    2    0    0  0.79753950187E+02  0.51825750973E+02  0.31239489246E+02  0.10011247037E+03  0.00000000000E+00 0. -1.
         11    1    1    2    0    0  0.76326388078E+02 -0.22188647336E+02 -0.19863962123E+02  0.81930644931E+02  0.00000000000E+00 0.  1.
</event>
<event>
 7    1  0.2666594E-009  0.9950510E+02  0.7561462E-02  0.1281340E+00
          1   -1    0    0  501    0  0.00000000000E+00  0.00000000000E+00  0.95964294646E+03  0.95964294646E+03  0.00000000000E+00 0. -1.
         -1   -1    0    0    0  501 -0.00000000000E+00 -0.00000000000E+00 -0.17853366017E+02  0.17853366017E+02  0.00000000000E+00 0.  1.
         25    2    1    2    0    0  0.66775672855E+02  0.12851093766E+02  0.40805207166E+03  0.43217749934E+03  0.12508699633E+03 0.  0.
          5    1    3    3  502    0  0.22860831944E+01 -0.16439958460E+02 -0.87671555633E+00  0.17138828452E+02  0.41800000000E+01 0. -1.
         -5    1    3    3    0  502  0.64489589660E+02  0.29291052225E+02  0.40892878722E+03  0.41503867089E+03  0.41800000000E+01 0. -1.
        -11    1    1    2    0    0 -0.59698924600E+02  0.30483974794E+02  0.28883871280E+03  0.29651481638E+03  0.00000000000E+00 0.  1.
         11    1    1    2    0    0 -0.70767482546E+01 -0.43335068559E+02  0.24489879598E+03  0.24880399676E+03  0.00000000000E+00 0. -1.
</event>
<event>
 7    1  0.2666594E-009  0.1075431E+03  0.7561462E-02  0.1265188E+00
         -1   -1    0    0    0  501 -0.00000000000E+00  0.00000000000E+00  0.36573787047E+03  0.36573787047E+03  0.00000000000E+00 0.  1.
          1   -1    0    0  501    0  0.00000000000E+00 -0.00000000000E+00 -0.56107523008E+02  0.56107523008E+02  0.00000000000E+00 0. -1.
         25    2    1    2    0    0  0.55017385055E+01 -0.92136058067E+02  0.15596062858E+03  0.22020617480E+03  0.12509084471E+03 0.  0.
          5    1    3    3  502    0  0.55991178503E+01 -0.19728680622E+02  0.14541742859E+03  0.14691586673E+03  0.41800000000E+01 0. -1.
         -5    1    3    3    0  502 -0.97379344789E-01 -0.72407377445E+02  0.10543199994E+02  0.73290308072E+02  0.41800000000E+01 0. -1.
        -11    1    1    2    0    0 -0.39257505259E+02  0.72844015300E+02  0.66384224296E+02  0.10608613255E+03  0.00000000000E+00 0. -1.
         11    1    1    2    0    0  0.33755766753E+02  0.19292042767E+02  0.87285494585E+02  0.95553086125E+02  0.00000000000E+00 0.  1.
</event>
<event>
 7    1  0.2666594E-009  0.1119757E+03  0.7561462E-02  0.1256954E+00
         -1   -1    0    0    0  501 -0.00000000000E+00  0.00000000000E+00  0.54252771146E+02  0.54252771146E+02  0.00000000000E+00 0.  1.
          1   -1    0    0  501    0  0.00000000000E+00 -0.00000000000E+00 -0.32192650256E+03  0.32192650256E+03  0.00000000000E+00 0. -1.
         25    2    1    2    0    0  0.73138608913E+02  0.14734462872E+02 -0.16664898771E+03  0.22132752136E+03  0.12509047164E+03 0.  0.
          5    1    3    3  502    0  0.11063361494E+02  0.62206810620E+02 -0.10085999173E+03  0.11908944364E+03  0.41800000000E+01 0.  1.
         -5    1    3    3    0  502  0.62075247419E+02 -0.47472347749E+02 -0.65788995982E+02  0.10223807772E+03  0.41800000000E+01 0.  1.
        -11    1    1    2    0    0 -0.46218782431E+02  0.82802703326E+01 -0.10888092983E+03  0.11857400899E+03  0.00000000000E+00 0. -1.
         11    1    1    2    0    0 -0.26919826481E+02 -0.23014733205E+02  0.78561861359E+01  0.36277743354E+02  0.00000000000E+00 0.  1.
</event>
<event>
 7    1  0.2666594E-009  0.1091813E+03  0.7561462E-02  0.1262094E+00
         -2   -1    0    0    0  501 -0.00000000000E+00  0.00000000000E+00  0.18479859877E+02  0.18479859877E+02  0.00000000000E+00 0.  1.
          2   -1    0    0  501    0  0.00000000000E+00 -0.00000000000E+00 -0.70509058406E+03  0.70509058406E+03  0.00000000000E+00 0. -1.
         25    2    1    2    0    0 -0.31801618309E+02  0.19350532975E+02 -0.42660910026E+03  0.44612543617E+03  0.12508714689E+03 0.  0.
          5    1    3    3  502    0 -0.64235764270E+02  0.50291607311E+02 -0.22020134273E+03  0.23486503128E+03  0.41800000000E+01 0.  1.
         -5    1    3    3    0  502  0.32434145961E+02 -0.30941074337E+02 -0.20640775753E+03  0.21126040489E+03  0.41800000000E+01 0.  1.
        -11    1    1    2    0    0 -0.19924671052E+02 -0.32646822079E+02 -0.66561451829E+02  0.76767404398E+02  0.00000000000E+00 0.  1.
         11    1    1    2    0    0  0.51726289361E+02  0.13296289105E+02 -0.19344017210E+03  0.20067760337E+03  0.00000000000E+00 0. -1.
</event>
<event>
 7    1  0.2666594E-009  0.1080871E+03  0.7561462E-02  0.1264154E+00
          1   -1    0    0  501    0  0.00000000000E+00  0.00000000000E+00  0.41794636746E+02  0.41794636746E+02  0.00000000000E+00 0. -1.
         -1   -1    0    0    0  501 -0.00000000000E+00 -0.00000000000E+00 -0.31393857018E+03  0.31393857018E+03  0.00000000000E+00 0.  1.
         25    2    1    2    0    0  0.21093200464E+02 -0.42441069913E+01 -0.10686724160E+03  0.16592166704E+03  0.12508579743E+03 0.  0.
          5    1    3    3  502    0 -0.49343373914E+02 -0.20959929325E+02 -0.53788076026E+02  0.76057325151E+02  0.41800000000E+01 0. -1.
         -5    1    3    3    0  502  0.70436574378E+02  0.16715822334E+02 -0.53079165570E+02  0.89864341894E+02  0.41800000000E+01 0. -1.
        -11    1    1    2    0    0 -0.34105628412E+02  0.39570981511E+02 -0.69828302460E+02  0.87206928002E+02  0.00000000000E+00 0.  1.
         11    1    1    2    0    0  0.13012427947E+02 -0.35326874519E+02 -0.95448389382E+02  0.10260461188E+03  0.00000000000E+00 0. -1.
</event>
<event>
 7    1  0.2666594E-009  0.1218586E+03  0.7561462E-02  0.1240062E+00
         -4   -1    0    0    0  501 -0.00000000000E+00  0.00000000000E+00  0.12845651268E+03  0.12845651268E+03  0.00000000000E+00 0.  1.
          4   -1    0    0  501    0  0.00000000000E+00 -0.00000000000E+00 -0.15291628202E+03  0.15291628202E+03  0.00000000000E+00 0. -1.
         25    2    1    2    0    0 -0.69646223480E+02  0.52720300747E+02  0.39104306154E+01  0.15260861865E+03  0.12507626659E+03 0.  0.
          5    1    3    3  502    0 -0.78145105250E+02  0.22142907629E+01  0.41814354943E+02  0.88755130767E+02  0.41800000000E+01 0. -1.
         -5    1    3    3    0  502  0.84988817699E+01  0.50506009984E+02 -0.37903924327E+02  0.63853487887E+02  0.41800000000E+01 0. -1.
        -11    1    1    2    0    0 -0.15661757876E+02 -0.10524769869E+02  0.15067257323E+02  0.24147125788E+02  0.00000000000E+00 0.  1.
         11    1    1    2    0    0  0.85307981356E+02 -0.42195530878E+02 -0.43437457288E+02  0.10461705026E+03  0.00000000000E+00 0. -1.
</event>
<event>
 7    1  0.2666594E-009  0.1101084E+03  0.7561462E-02  0.1260369E+00
         -2   -1    0    0    0  501 -0.00000000000E+00  0.00000000000E+00  0.41714489134E+02  0.41714489134E+02  0.00000000000E+00 0.  1.
          2   -1    0    0  501    0  0.00000000000E+00 -0.00000000000E+00 -0.35264466217E+03  0.35264466217E+03  0.00000000000E+00 0. -1.
         25    2    1    2    0    0 -0.17406551745E+02  0.28548297957E+02 -0.10690384021E+03  0.16790999979E+03  0.12508934255E+03 0.  0.
          5    1    3    3  502    0 -0.68821910009E+02  0.31403967262E+02 -0.48610807203E+02  0.90017484046E+02  0.41800000000E+01 0.  1.
         -5    1    3    3    0  502  0.51415358264E+02 -0.28556693052E+01 -0.58293033006E+02  0.77892515748E+02  0.41800000000E+01 0.  1.
        -11    1    1    2    0    0 -0.26428099394E+02 -0.39575776693E+02 -0.14155670869E+03  0.14934185051E+03  0.00000000000E+00 0.  1.
         11    1    1    2    0    0  0.43834651138E+02  0.11027478736E+02 -0.62469624140E+02  0.77107301002E+02  0.00000000000E+00 0. -1.
</event>
<event>
 7    1  0.2666594E-009  0.6923275E+02  0.7561462E-02  0.1362722E+00
          2   -1    0    0  501    0  0.00000000000E+00  0.00000000000E+00  0.45682108014E+03  0.45682108014E+03  0.00000000000E+00 0. -1.
         -2   -1    0    0    0  501 -0.00000000000E+00 -0.00000000000E+00 -0.37094587460E+02  0.37094587460E+02  0.00000000000E+00 0.  1.
         25    2    1    2    0    0 -0.25038715418E+02 -0.68537215184E+01  0.34896684721E+03  0.37161648658E+03  0.12508813645E+03 0.  0.
          5    1    3    3  502    0  0.45839846103E+01 -0.13122030034E+02  0.33922556984E+03  0.33953594835E+03  0.41800000000E+01 0. -1.
         -5    1    3    3    0  502 -0.29622700029E+02  0.62683085156E+01  0.97412773671E+01  0.32080538234E+02  0.41800000000E+01 0. -1.
        -11    1    1    2    0    0 -0.28359495192E+02 -0.18920710346E+02  0.62147446849E+01  0.34653676558E+02  0.00000000000E+00 0.  1.
         11    1    1    2    0    0  0.53398210610E+02  0.25774431865E+02  0.64544900787E+02  0.87645504459E+02  0.00000000000E+00 0. -1.
</event>
<event>
 7    1  0.2666594E-009  0.1027867E+03  0.7561462E-02  0.1274543E+00
         -1   -1    0    0    0  501 -0.00000000000E+00  0.00000000000E+00  0.30489005207E+03  0.30489005207E+03  0.00000000000E+00 0.  1.
          1   -1    0    0  501    0  0.00000000000E+00 -0.00000000000E+00 -0.49783027129E+02  0.49783027129E+02  0.00000000000E+00 0. -1.
         25    2    1    2    0    0 -0.97093269646E+00  0.58300343213E+02  0.14747224569E+03  0.20197908155E+03  0.12509042092E+03 0.  0.
          5    1    3    3  502    0 -0.34259955409E+02 -0.27743625901E+02  0.34971779485E+02  0.56426510463E+02  0.41800000000E+01 0. -1.
         -5    1    3    3    0  502  0.33289022712E+02  0.86043969115E+02  0.11250046621E+03  0.14555257109E+03  0.41800000000E+01 0. -1.
        -11    1    1    2    0    0 -0.17778991991E+02 -0.24295843715E+02  0.10975076265E+03  0.11380514259E+03  0.00000000000E+00 0.  1.
         11    1    1    2    0    0  0.18749924687E+02 -0.34004499498E+02 -0.21159833976E+01  0.38888855057E+02  0.00000000000E+00 0. -1.
</event>
<event>
 7    1  0.2666594E-009  0.1310897E+03  0.7561462E-02  0.1225848E+00
         -1   -1    0    0    0  501 -0.00000000000E+00  0.00000000000E+00  0.45423648532E+03  0.45423648532E+03  0.00000000000E+00 0.  1.
          1   -1    0    0  501    0  0.00000000000E+00 -0.00000000000E+00 -0.46076959889E+02  0.46076959889E+02  0.00000000000E+00 0. -1.
         25    2    1    2    0    0  0.10697164839E+02 -0.89683813455E+02  0.16583552050E+03  0.22650656250E+03  0.12508472035E+03 0.  0.
          5    1    3    3  502    0  0.54753671999E+02 -0.39830384500E+01  0.40471090743E+02  0.68331623562E+02  0.41800000000E+01 0. -1.
         -5    1    3    3    0  502 -0.44056507161E+02 -0.85700775005E+02  0.12536442976E+03  0.15817493894E+03  0.41800000000E+01 0. -1.
        -11    1    1    2    0    0  0.26087710616E+02  0.51020646564E+02  0.56505883558E+02  0.80477263234E+02  0.00000000000E+00 0. -1.
         11    1    1    2    0    0 -0.36784875454E+02  0.38663166891E+02  0.18581812137E+03  0.19332961948E+03  0.00000000000E+00 0.  1.
</event>
<event>
 7    1  0.2666594E-009  0.1015740E+03  0.7561462E-02  0.1277021E+00
         -1   -1    0    0    0  501 -0.00000000000E+00  0.00000000000E+00  0.90940719201E+02  0.90940719201E+02  0.00000000000E+00 0.  1.
          1   -1    0    0  501    0  0.00000000000E+00 -0.00000000000E+00 -0.21855384894E+03  0.21855384894E+03  0.00000000000E+00 0. -1.
         25    2    1    2    0    0 -0.28591922801E+00 -0.87430124035E+02 -0.81247974215E+02  0.17289605885E+03  0.12509078908E+03 0.  0.
          5    1    3    3  502    0 -0.11106654495E+02 -0.48372608587E+02  0.27409474389E+02  0.56850846272E+02  0.41800000000E+01 0. -1.
         -5    1    3    3    0  502  0.10820735267E+02 -0.39057515448E+02 -0.10865744860E+03  0.11604521258E+03  0.41800000000E+01 0. -1.
        -11    1    1    2    0    0  0.23353274853E+02  0.12537126323E+01  0.15481433397E+02  0.28046782734E+02  0.00000000000E+00 0.  1.
         11    1    1    2    0    0 -0.23067355625E+02  0.86176411403E+02 -0.61846588924E+02  0.10855172656E+03  0.00000000000E+00 0. -1.
</event>
<event>
 7    1  0.2666594E-009  0.5147033E+02  0.7561462E-02  0.1437569E+00
         -3   -1    0    0    0  501 -0.00000000000E+00  0.00000000000E+00  0.84725092684E+02  0.84725092684E+02  0.00000000000E+00 0.  1.
          3   -1    0    0  501    0  0.00000000000E+00 -0.00000000000E+00 -0.15159501768E+03  0.15159501768E+03  0.00000000000E+00 0. -1.
         25    2    1    2    0    0 -0.24026731898E+02  0.17889856893E+02 -0.27985612185E+02  0.13163614771E+03  0.12509016776E+03 0.  0.
          5    1    3    3  502    0 -0.13809711227E+02 -0.41795365249E+01 -0.76097070624E+02  0.77565541366E+02  0.41800000000E+01 0.  1.
         -5    1    3    3    0  502 -0.10217020671E+02  0.22069393418E+02  0.48111458440E+02  0.54070606344E+02  0.41800000000E+01 0.  1.
        -11    1    1    2    0    0  0.24715012407E+02  0.15937709780E+02 -0.58570617711E+02  0.65538993663E+02  0.00000000000E+00 0. -1.
         11    1    1    2    0    0 -0.68828050923E+00 -0.33827566673E+02  0.19686304897E+02  0.39144968994E+02  0.00000000000E+00 0.  1.
</event>
<event>
 7    1  0.2666594E-009  0.9993239E+02  0.7561462E-02  0.1280438E+00
         -4   -1    0    0    0  501 -0.00000000000E+00  0.00000000000E+00  0.49126954590E+03  0.49126954590E+03  0.00000000000E+00 0.  1.
          4   -1    0    0  501    0  0.00000000000E+00 -0.00000000000E+00 -0.36001020093E+02  0.36001020093E+02  0.00000000000E+00 0. -1.
         25    2    1    2    0    0  0.64088392470E+02 -0.33401456203E+02  0.28798123751E+03  0.32218838694E+03  0.12509669939E+03 0.  0.
          5    1    3    3  502    0 -0.12425644495E+02  0.38290248635E+01 -0.68613649097E+01  0.15284266451E+02  0.41800000000E+01 0. -1.
         -5    1    3    3    0  502  0.76514036965E+02 -0.37230481066E+02  0.29484260242E+03  0.30690412049E+03  0.41800000000E+01 0. -1.
        -11    1    1    2    0    0 -0.52818271558E+02  0.55246406338E+02  0.66410015482E+02  0.10125327343E+03  0.00000000000E+00 0. -1.
         11    1    1    2    0    0 -0.11270120911E+02 -0.21844950135E+02  0.10087727282E+03  0.10382890563E+03  0.00000000000E+00 0.  1.
</event>
<event>
 7    1  0.2666594E-009  0.1902212E+03  0.7561462E-02  0.1158262E+00
         -2   -1    0    0    0  501 -0.00000000000E+00  0.00000000000E+00  0.21973428887E+03  0.21973428887E+03  0.00000000000E+00 0.  1.
          2   -1    0    0  501    0  0.00000000000E+00 -0.00000000000E+00 -0.18864701958E+03  0.18864701958E+03  0.00000000000E+00 0. -1.
         25    2    1    2    0    0 -0.47958313742E+02  0.15009115627E+03 -0.53274533450E+02  0.20811664826E+03  0.12508800230E+03 0.  0.
          5    1    3    3  502    0  0.40575708301E+02  0.25145158078E+02 -0.10296987302E+02  0.49011911066E+02  0.41800000000E+01 0. -1.
         -5    1    3    3    0  502 -0.88534022042E+02  0.12494599819E+03 -0.42977546148E+02  0.15910473719E+03  0.41800000000E+01 0. -1.
        -11    1    1    2    0    0  0.32984047075E+02 -0.48685185496E+01  0.28795979513E+02  0.44055173027E+02  0.00000000000E+00 0.  1.
         11    1    1    2    0    0  0.14974266666E+02 -0.14522263772E+03  0.55565823229E+02  0.15620948716E+03  0.00000000000E+00 0. -1.
</event>
<event>
 7    1  0.2666594E-009  0.7626988E+02  0.7561462E-02  0.1339983E+00
          2   -1    0    0  501    0  0.00000000000E+00  0.00000000000E+00  0.58651721314E+02  0.58651721314E+02  0.00000000000E+00 0. -1.
         -2   -1    0    0    0  501 -0.00000000000E+00 -0.00000000000E+00 -0.58357159850E+03  0.58357159850E+03  0.00000000000E+00 0.  1.
         25    2    1    2    0    0  0.57826317697E+02 -0.37771781438E+01 -0.51027728041E+03  0.52857299390E+03  0.12509339265E+03 0.  0.
          5    1    3    3  502    0  0.32226529621E+02 -0.28304285964E+02 -0.46405149553E+02  0.63329235905E+02  0.41800000000E+01 0. -1.
         -5    1    3    3    0  502  0.25599788076E+02  0.24527107820E+02 -0.46387213085E+03  0.46524375799E+03  0.41800000000E+01 0. -1.
        -11    1    1    2    0    0 -0.40152602320E+02  0.24087036381E+02 -0.50463166470E+02  0.68840017176E+02  0.00000000000E+00 0.  1.
         11    1    1    2    0    0 -0.17673715377E+02 -0.20309858237E+02  0.35820569688E+02  0.44810308743E+02  0.00000000000E+00 0. -1.
</event>
<event>
 7    1  0.2666594E-009  0.1243389E+03  0.7561462E-02  0.1236106E+00
          2   -1    0    0  501    0  0.00000000000E+00  0.00000000000E+00  0.54401032643E+03  0.54401032643E+03  0.00000000000E+00 0. -1.
         -2   -1    0    0    0  501 -0.00000000000E+00 -0.00000000000E+00 -0.43407790792E+02  0.43407790792E+02  0.00000000000E+00 0.  1.
         25    2    1    2    0    0 -0.69443048850E+02 -0.78456596947E+02  0.32569429458E+03  0.36428174317E+03  0.12508653103E+03 0.  0.
          5    1    3    3  502    0 -0.67972278036E+02 -0.80370058210E+02  0.12474246940E+03  0.16327195997E+03  0.41800000000E+01 0. -1.
         -5    1    3    3    0  502 -0.14707708148E+01  0.19134612628E+01  0.20095182518E+03  0.20100978320E+03  0.41800000000E+01 0. -1.
        -11    1    1    2    0    0  0.52731960583E+02 -0.53956248269E+01  0.69701267734E+02  0.87567340704E+02  0.00000000000E+00 0. -1.
         11    1    1    2    0    0  0.16711088268E+02  0.83852221774E+02  0.10520697332E+03  0.13556903334E+03  0.00000000000E+00 0.  1.
</event>
<event>
 7    1  0.2666594E-009  0.1231406E+03  0.7561462E-02  0.1238004E+00
         -2   -1    0    0    0  501 -0.00000000000E+00  0.00000000000E+00  0.19365139824E+03  0.19365139824E+03  0.00000000000E+00 0.  1.
          2   -1    0    0  501    0  0.00000000000E+00 -0.00000000000E+00 -0.10968133130E+03  0.10968133130E+03  0.00000000000E+00 0. -1.
         25    2    1    2    0    0  0.61193280150E+02  0.72411650544E+02  0.20848499036E+02  0.15833337278E+03  0.12508689921E+03 0.  0.
          5    1    3    3  502    0 -0.13624680940E+02  0.59405747085E+02  0.47878861275E+02  0.77617861826E+02  0.41800000000E+01 0.  1.
         -5    1    3    3    0  502  0.74817961090E+02  0.13005903459E+02 -0.27030362239E+02  0.80715510958E+02  0.41800000000E+01 0.  1.
        -11    1    1    2    0    0 -0.71080461928E+02 -0.58446140601E+02  0.79279806348E+02  0.12146469081E+03  0.00000000000E+00 0.  1.
         11    1    1    2    0    0  0.98871817777E+01 -0.13965509943E+02 -0.16158238451E+02  0.23534665949E+02  0.00000000000E+00 0. -1.
</event>
<event>
 7    1  0.2666594E-009  0.9634719E+02  0.7561462E-02  0.1288170E+00
         -1   -1    0    0    0  501 -0.00000000000E+00  0.00000000000E+00  0.25223332839E+02  0.25223332839E+02  0.00000000000E+00 0.  1.
          1   -1    0    0  501    0  0.00000000000E+00 -0.00000000000E+00 -0.52632667303E+03  0.52632667303E+03  0.00000000000E+00 0. -1.
         25    2    1    2    0    0  0.26884097095E+02  0.32093995640E+02 -0.30197451516E+03  0.32952819046E+03  0.12508973286E+03 0.  0.
          5    1    3    3  502    0  0.34019035956E+02 -0.43317707364E+02 -0.14551398281E+03  0.15564546306E+03  0.41800000000E+01 0. -1.
         -5    1    3    3    0  502 -0.71349388603E+01  0.75411703005E+02 -0.15646053235E+03  0.17388272740E+03  0.41800000000E+01 0. -1.
        -11    1    1    2    0    0  0.92095354610E+01 -0.22401475653E+02 -0.55236397486E+01  0.24842549203E+02  0.00000000000E+00 0.  1.
         11    1    1    2    0    0 -0.36093632556E+02 -0.96925199872E+01 -0.19360518528E+03  0.19717926621E+03  0.00000000000E+00 0. -1.
</event>
<event>
 7    1  0.2666594E-009  0.2314941E+03  0.7561462E-02  0.1125593E+00
         -2   -1    0    0    0  501 -0.00000000000E+00  0.00000000000E+00  0.15364840968E+03  0.15364840968E+03  0.00000000000E+00 0.  1.
          2   -1    0    0  501    0  0.00000000000E+00 -0.00000000000E+00 -0.41129532564E+03  0.41129532564E+03  0.00000000000E+00 0. -1.
         25    2    1    2    0    0  0.22887229606E+02  0.22114488114E+03 -0.83290324381E+02  0.26835371074E+03  0.12509017626E+03 0.  0.
          5    1    3    3  502    0 -0.28100362019E+02  0.11285977091E+03 -0.91889168660E+02  0.14828368067E+03  0.41800000000E+01 0.  1.
         -5    1    3    3    0  502  0.50987591625E+02  0.10828511023E+03  0.85988442798E+01  0.12007003007E+03  0.41800000000E+01 0.  1.
        -11    1    1    2    0    0  0.13814194463E+02 -0.57576363128E+02 -0.68441342471E+01  0.59604628455E+02  0.00000000000E+00 0.  1.
         11    1    1    2    0    0 -0.36701424069E+02 -0.16356851802E+03 -0.16751245733E+03  0.23698539612E+03  0.00000000000E+00 0. -1.
</event>
<event>
 7    1  0.2666594E-009  0.1180094E+03  0.7561462E-02  0.1246417E+00
         -2   -1    0    0    0  501 -0.00000000000E+00  0.00000000000E+00  0.35522962996E+03  0.35522962996E+03  0.00000000000E+00 0.  1.
          2   -1    0    0  501    0  0.00000000000E+00 -0.00000000000E+00 -0.42323441786E+02  0.42323441786E+02  0.00000000000E+00 0. -1.
         25    2    1    2    0    0  0.37548642459E+02  0.24505140386E+02  0.22672697631E+03  0.26279940568E+03  0.12509197969E+03 0.  0.
          5    1    3    3  502    0  0.16602328390E+02 -0.51085852257E+02  0.81702121486E+02  0.97867822414E+02  0.41800000000E+01 0.  1.
         -5    1    3    3    0  502  0.20946314069E+02  0.75590992643E+02  0.14502485483E+03  0.16493158327E+03  0.41800000000E+01 0.  1.
        -11    1    1    2    0    0  0.19578371989E+02 -0.39882869307E+02  0.36367679726E+02  0.57415712506E+02  0.00000000000E+00 0. -1.
         11    1    1    2    0    0 -0.57127014448E+02  0.15377728921E+02  0.49811532129E+02  0.77337953552E+02  0.00000000000E+00 0.  1.
</event>
<event>
 7    1  0.2666594E-009  0.2584304E+03  0.7561462E-02  0.1108090E+00
          2   -1    0    0  501    0  0.00000000000E+00  0.00000000000E+00  0.36708420352E+03  0.36708420352E+03  0.00000000000E+00 0. -1.
         -2   -1    0    0    0  501 -0.00000000000E+00 -0.00000000000E+00 -0.22912201880E+03  0.22912201880E+03  0.00000000000E+00 0.  1.
         25    2    1    2    0    0 -0.14506961218E+03  0.20738747453E+03  0.16241282969E+03  0.32569928113E+03  0.12508931814E+03 0.  0.
          5    1    3    3  502    0 -0.59421635592E+01  0.62240543408E+02  0.94601901034E+02  0.11347328598E+03  0.41800000000E+01 0. -1.
         -5    1    3    3    0  502 -0.13912744862E+03  0.14514693112E+03  0.67810928653E+02  0.21222599515E+03  0.41800000000E+01 0. -1.
        -11    1    1    2    0    0  0.25110526343E+02 -0.34724304548E+02 -0.41395025011E+02  0.59580734766E+02  0.00000000000E+00 0.  1.
         11    1    1    2    0    0  0.11995908584E+03 -0.17266316998E+03  0.16944380041E+02  0.21092620643E+03  0.00000000000E+00 0. -1.
</event>
<event>
 7    1  0.2666594E-009  0.1203227E+03  0.7561462E-02  0.1242566E+00
         -2   -1    0    0    0  501 -0.00000000000E+00  0.00000000000E+00  0.42735690274E+02  0.42735690274E+02  0.00000000000E+00 0. -1.
          2   -1    0    0  501    0  0.00000000000E+00 -0.00000000000E+00 -0.61542865504E+03  0.61542865504E+03  0.00000000000E+00 0.  1.
         25    2    1    2    0    0  0.15847130453E+02 -0.10610406177E+03 -0.41877041765E+03  0.45002762609E+03  0.12508796137E+03 0.  0.
          5    1    3    3  502    0  0.45755136143E+02 -0.58546777686E+02 -0.91504244739E+02  0.11794811091E+03  0.41800000000E+01 0. -1.
         -5    1    3    3    0  502 -0.29908005690E+02 -0.47557284080E+02 -0.32726617292E+03  0.33207951519E+03  0.41800000000E+01 0. -1.
        -11    1    1    2    0    0  0.61238763923E+01  0.15703805102E+02  0.10040397697E+02  0.19619402199E+02  0.00000000000E+00 0. -1.
         11    1    1    2    0    0 -0.21971006845E+02  0.90400256664E+02 -0.16396294481E+03  0.18851731702E+03  0.00000000000E+00 0.  1.
</event>
<event>
 7    1  0.2666594E-009  0.1192579E+03  0.7561462E-02  0.1244326E+00
          1   -1    0    0  501    0  0.00000000000E+00  0.00000000000E+00  0.18330369837E+03  0.18330369837E+03  0.00000000000E+00 0. -1.
         -1   -1    0    0    0  501 -0.00000000000E+00 -0.00000000000E+00 -0.12301353840E+03  0.12301353840E+03  0.00000000000E+00 0.  1.
         25    2    1    2    0    0 -0.40479653282E+02  0.64339551001E+02 -0.37974594621E+02  0.15122141957E+03  0.12509063812E+03 0.  0.
          5    1    3    3  502    0 -0.77119706566E+02  0.60297279745E+02 -0.52760319213E+02  0.11128492606E+03  0.41800000000E+01 0.  1.
         -5    1    3    3    0  502  0.36640053284E+02  0.40422712561E+01  0.14785724591E+02  0.39936493502E+02  0.41800000000E+01 0.  1.
        -11    1    1    2    0    0  0.59993891233E+02 -0.39431295048E+02  0.10034836590E+03  0.12338512290E+03  0.00000000000E+00 0. -1.
         11    1    1    2    0    0 -0.19514237951E+02 -0.24908255953E+02 -0.20836113067E+01  0.31710694308E+02  0.00000000000E+00 0.  1.
</event>
<event>
 7    1  0.2666594E-009  0.1441923E+03  0.7561462E-02  0.1207797E+00
         -4   -1    0    0    0  501 -0.00000000000E+00  0.00000000000E+00  0.31252037584E+03  0.31252037584E+03  0.00000000000E+00 0.  1.
          4   -1    0    0  501    0  0.00000000000E+00 -0.00000000000E+00 -0.14837123950E+03  0.14837123950E+03  0.00000000000E+00 0. -1.
         25    2    1    2    0    0 -0.70020714790E+02 -0.84570241107E+02 -0.74732318111E+02  0.18244675296E+03  0.12508745787E+03 0.  0.
          5    1    3    3  502    0  0.59085998285E+01 -0.89550364974E+02 -0.46634975496E+02  0.10122486235E+03  0.41800000000E+01 0.  1.
         -5    1    3    3    0  502 -0.75929314618E+02  0.49801238673E+01 -0.28097342614E+02  0.81221890609E+02  0.41800000000E+01 0.  1.
        -11    1    1    2    0    0  0.64558286340E+02  0.36913951772E+02  0.67346863939E+02  0.10032951835E+03  0.00000000000E+00 0. -1.
         11    1    1    2    0    0  0.54624284494E+01  0.47656289336E+02  0.17153459051E+03  0.17811534403E+03  0.00000000000E+00 0.  1.
</event>
<event>
 7    1  0.2666594E-009  0.1109793E+03  0.7561462E-02  0.1258767E+00
         -1   -1    0    0    0  501 -0.00000000000E+00  0.00000000000E+00  0.37594831676E+02  0.37594831676E+02  0.00000000000E+00 0.  1.
          1   -1    0    0  501    0  0.00000000000E+00 -0.00000000000E+00 -0.49548293065E+03  0.49548293065E+03  0.00000000000E+00 0. -1.
         25    2    1    2    0    0  0.22941565371E+02 -0.57144672340E+02 -0.35943539713E+03  0.38552915134E+03  0.12508834010E+03 0.  0.
          5    1    3    3  502    0  0.42391391738E+02  0.12742355994E+02 -0.25158910754E+03  0.25548766929E+03  0.41800000000E+01 0. -1.
         -5    1    3    3    0  502 -0.19449826367E+02 -0.69887028334E+02 -0.10784628959E+03  0.13004148205E+03  0.41800000000E+01 0. -1.
        -11    1    1    2    0    0  0.22042459558E+02  0.55614201026E+02 -0.33618648990E+02  0.68622320997E+02  0.00000000000E+00 0.  1.
         11    1    1    2    0    0 -0.44984024929E+02  0.15304713143E+01 -0.64834052856E+02  0.78926289986E+02  0.00000000000E+00 0. -1.
</event>
<event>
 7    1  0.3127929E-009  0.1296988E+03  0.7561462E-02  0.1227903E+00
         -2   -1    0    0    0  501 -0.00000000000E+00  0.00000000000E+00  0.49059628022E+03  0.49059628022E+03  0.00000000000E+00 0.  1.
          2   -1    0    0  501    0  0.00000000000E+00 -0.00000000000E+00 -0.37882709820E+02  0.37882709820E+02  0.00000000000E+00 0. -1.
         25    2    1    2    0    0 -0.52989170182E+02  0.62414596123E+02  0.23036475876E+03  0.27462424605E+03  0.12508845060E+03 0.  0.
          5    1    3    3  502    0 -0.83323428270E+02  0.12408826745E+02  0.94619241411E+02  0.12675585164E+03  0.41800000000E+01 0.  1.
         -5    1    3    3    0  502  0.30334258088E+02  0.50005769378E+02  0.13574551735E+03  0.14786839441E+03  0.41800000000E+01 0.  1.
        -11    1    1    2    0    0 -0.67181915304E+01 -0.55958083653E+02  0.14743713008E+03  0.15784216341E+03  0.00000000000E+00 0.  1.
         11    1    1    2    0    0  0.59707361713E+02 -0.64565124701E+01  0.74911681565E+02  0.96012580586E+02  0.00000000000E+00 0. -1.
</event>
<event>
 7    1  0.2666594E-009  0.8342489E+02  0.7561462E-02  0.1319604E+00
          2   -1    0    0  501    0  0.00000000000E+00  0.00000000000E+00  0.83790896251E+03  0.83790896251E+03  0.00000000000E+00 0. -1.
         -2   -1    0    0    0  501 -0.00000000000E+00 -0.00000000000E+00 -0.22727537050E+02  0.22727537050E+02  0.00000000000E+00 0.  1.
         25    2    1    2    0    0 -0.24303392051E+02 -0.49436924164E+02  0.67310492860E+03  0.68684204308E+03  0.12508830038E+03 0.  0.
          5    1    3    3  502    0 -0.33953071317E+02 -0.40258175234E+01  0.59419868658E+03  0.59519624478E+03  0.41800000000E+01 0. -1.
         -5    1    3    3    0  502  0.96496792651E+01 -0.45411106641E+02  0.78906242019E+02  0.91645798299E+02  0.41800000000E+01 0. -1.
        -11    1    1    2    0    0  0.30971636950E+02  0.63265110825E+02  0.14192268274E+03  0.15844167513E+03  0.00000000000E+00 0. -1.
         11    1    1    2    0    0 -0.66682448988E+01 -0.13828186661E+02  0.15381411615E+00  0.15352781349E+02  0.00000000000E+00 0.  1.
</event>
<event>
 7    1  0.2666594E-009  0.1400246E+03  0.7561462E-02  0.1213296E+00
          2   -1    0    0  501    0  0.00000000000E+00  0.00000000000E+00  0.92742757187E+03  0.92742757187E+03  0.00000000000E+00 0. -1.
         -2   -1    0    0    0  501 -0.00000000000E+00 -0.00000000000E+00 -0.37995901765E+02  0.37995901765E+02  0.00000000000E+00 0.  1.
         25    2    1    2    0    0 -0.11609293325E+03 -0.43768779898E+02  0.23685655480E+03  0.29519865931E+03  0.12509174898E+03 0.  0.
          5    1    3    3  502    0 -0.11396723931E+03 -0.33884311862E+02  0.93211214669E+02  0.15113729244E+03  0.41800000000E+01 0. -1.
         -5    1    3    3    0  502 -0.21256939402E+01 -0.98844680358E+01  0.14364534013E+03  0.14406136687E+03  0.41800000000E+01 0. -1.
        -11    1    1    2    0    0  0.66516206565E+02 -0.19913030880E+02  0.36472237570E+03  0.37127260318E+03  0.00000000000E+00 0. -1.
         11    1    1    2    0    0  0.49576726681E+02  0.63681810778E+02  0.28785273960E+03  0.29895221115E+03  0.00000000000E+00 0.  1.
</event>
<event>
 7    1  0.2666594E-009  0.2325503E+03  0.7561462E-02  0.1124858E+00
         -2   -1    0    0    0  501 -0.00000000000E+00  0.00000000000E+00  0.29046256396E+02  0.29046256396E+02  0.00000000000E+00 0.  1.
          2   -1    0    0  501    0  0.00000000000E+00 -0.00000000000E+00 -0.26953378897E+04  0.26953378897E+04  0.00000000000E+00 0. -1.
         25    2    1    2    0    0  0.17337352197E+03  0.13231101104E+03 -0.20238519835E+04  0.20394090018E+04  0.12509054270E+03 0.  0.
          5    1    3    3  502    0  0.10748283799E+03  0.39673660251E+02 -0.14413910134E+04  0.14459433203E+04  0.41800000000E+01 0.  1.
         -5    1    3    3    0  502  0.65890683975E+02  0.92637350792E+02 -0.58246097010E+03  0.59346568148E+03  0.41800000000E+01 0.  1.
        -11    1    1    2    0    0 -0.70672412278E+02 -0.11133968511E+03 -0.38759854588E+03  0.40941879306E+03  0.00000000000E+00 0. -1.
         11    1    1    2    0    0 -0.10270110969E+03 -0.20971325928E+02 -0.25484110391E+03  0.27555635120E+03  0.00000000000E+00 0.  1.
</event>
<event>
 7    1  0.2666594E-009  0.8952399E+02  0.7561462E-02  0.1304009E+00
          3   -1    0    0  501    0  0.00000000000E+00  0.00000000000E+00  0.10794200513E+03  0.10794200513E+03  0.00000000000E+00 0. -1.
         -3   -1    0    0    0  501 -0.00000000000E+00 -0.00000000000E+00 -0.16754424046E+03  0.16754424046E+03  0.00000000000E+00 0.  1.
         25    2    1    2    0    0  0.62416233109E+01 -0.59605628353E+02 -0.81202669141E+02  0.16071995832E+03  0.12508094472E+03 0.  0.
          5    1    3    3  502    0 -0.17116845445E+02  0.25410257552E+01  0.27805968462E+02  0.33016473040E+02  0.41800000000E+01 0. -1.
         -5    1    3    3    0  502  0.23358468756E+02 -0.62146654108E+02 -0.10900863760E+03  0.12770348528E+03  0.41800000000E+01 0. -1.
        -11    1    1    2    0    0  0.15152602125E+02 -0.12416703149E+02 -0.20736043622E+02  0.28526467944E+02  0.00000000000E+00 0.  1.
         11    1    1    2    0    0 -0.21394225436E+02  0.72022331502E+02  0.42336477427E+02  0.86239819330E+02  0.00000000000E+00 0. -1.
</event>
<event>
 7    1  0.2666594E-009  0.2061398E+03  0.7561462E-02  0.1144660E+00
          1   -1    0    0  501    0  0.00000000000E+00  0.00000000000E+00  0.11466026823E+04  0.11466026823E+04  0.00000000000E+00 0. -1.
         -1   -1    0    0    0  501 -0.00000000000E+00 -0.00000000000E+00 -0.45645308960E+02  0.45645308960E+02  0.00000000000E+00 0.  1.
         25    2    1    2    0    0  0.20028883802E+03  0.15647727780E+02  0.61878987411E+03  0.66250266987E+03  0.12509360199E+03 0.  0.
          5    1    3    3  502    0  0.73534150394E+02 -0.18497964998E+02  0.40137681661E+03  0.40849757318E+03  0.41800000000E+01 0. -1.
         -5    1    3    3    0  502  0.12675468763E+03  0.34145692779E+02  0.21741305751E+03  0.25400509669E+03  0.41800000000E+01 0. -1.
        -11    1    1    2    0    0 -0.15572995541E+03  0.51736649226E+01  0.43307891179E+03  0.46025637383E+03  0.00000000000E+00 0. -1.
         11    1    1    2    0    0 -0.44558882614E+02 -0.20821392703E+02  0.49088587391E+02  0.69488947510E+02  0.00000000000E+00 0.  1.
</event>
<event>
 7    1  0.2666594E-009  0.1119364E+03  0.7561462E-02  0.1257025E+00
         -1   -1    0    0    0  501 -0.00000000000E+00  0.00000000000E+00  0.29956152670E+03  0.29956152670E+03  0.00000000000E+00 0.  1.
          1   -1    0    0  501    0  0.00000000000E+00 -0.00000000000E+00 -0.75072970007E+02  0.75072970007E+02  0.00000000000E+00 0. -1.
         25    2    1    2    0    0  0.68861233006E+02  0.59978423326E+02  0.65034442079E+02  0.16797620738E+03  0.12508895601E+03 0.  0.
          5    1    3    3  502    0  0.33610132701E+02  0.47544000114E+02 -0.30098953778E+02  0.65677183142E+02  0.41800000000E+01 0. -1.
         -5    1    3    3    0  502  0.35251100305E+02  0.12434423212E+02  0.95133395857E+02  0.10229902424E+03  0.41800000000E+01 0. -1.
        -11    1    1    2    0    0  0.17477319241E+02 -0.33150029769E+02  0.26588126996E+02  0.45948989746E+02  0.00000000000E+00 0. -1.
         11    1    1    2    0    0 -0.86338552248E+02 -0.26828393557E+02  0.13286598762E+03  0.16070929958E+03  0.00000000000E+00 0.  1.
</event>
<event>
 7    1  0.2666594E-009  0.8806284E+02  0.7561462E-02  0.1307612E+00
          2   -1    0    0  501    0  0.00000000000E+00  0.00000000000E+00  0.14481458338E+03  0.14481458338E+03  0.00000000000E+00 0. -1.
         -2   -1    0    0    0  501 -0.00000000000E+00 -0.00000000000E+00 -0.94195951978E+02  0.94195951978E+02  0.00000000000E+00 0.  1.
         25    2    1    2    0    0 -0.34112437922E+02  0.77188193626E+01  0.52924506615E+02  0.14025584820E+03  0.12508981158E+03 0.  0.
          5    1    3    3  502    0 -0.60921652642E+02  0.23258148978E+01  0.80585453251E+02  0.10113527995E+03  0.41800000000E+01 0.  1.
         -5    1    3    3    0  502  0.26809214720E+02  0.53930044649E+01 -0.27660946636E+02  0.39120568246E+02  0.41800000000E+01 0.  1.
        -11    1    1    2    0    0  0.40165650806E+02 -0.38705707400E+02  0.20904567822E+02  0.59568550811E+02  0.00000000000E+00 0.  1.
         11    1    1    2    0    0 -0.60532128840E+01  0.30986888037E+02 -0.23210443031E+02  0.39186136351E+02  0.00000000000E+00 0. -1.
</event>
<event>
 7    1  0.2666594E-009  0.1110445E+03  0.7561462E-02  0.1258648E+00
         -2   -1    0    0    0  501 -0.00000000000E+00  0.00000000000E+00  0.77879134951E+02  0.77879134951E+02  0.00000000000E+00 0. -1.
          2   -1    0    0  501    0  0.00000000000E+00 -0.00000000000E+00 -0.26883813123E+03  0.26883813123E+03  0.00000000000E+00 0.  1.
         25    2    1    2    0    0  0.52031010035E+02 -0.25230769496E+02 -0.19271332178E+03  0.23691670146E+03  0.12508909347E+03 0.  0.
          5    1    3    3  502    0 -0.22132913510E+02  0.29257183481E+02 -0.98298665420E+02  0.10500451737E+03  0.41800000000E+01 0.  1.
         -5    1    3    3    0  502  0.74163923546E+02 -0.54487952977E+02 -0.94414656355E+02  0.13191218408E+03  0.41800000000E+01 0.  1.
        -11    1    1    2    0    0 -0.74185094293E+01  0.44015630532E+02 -0.28273292268E+02  0.52837383252E+02  0.00000000000E+00 0.  1.
         11    1    1    2    0    0 -0.44612500606E+02 -0.18784861036E+02  0.30027617765E+02  0.56963181469E+02  0.00000000000E+00 0. -1.
</event>
<event>
 7    1  0.2666594E-009  0.8855246E+02  0.7561462E-02  0.1306395E+00
          2   -1    0    0  501    0  0.00000000000E+00  0.00000000000E+00  0.14346956858E+03  0.14346956858E+03  0.00000000000E+00 0. -1.
         -2   -1    0    0    0  501 -0.00000000000E+00 -0.00000000000E+00 -0.12808392040E+03  0.12808392040E+03  0.00000000000E+00 0.  1.
         25    2    1    2    0    0 -0.59972834534E+01  0.43036239189E+02  0.68752821583E+02  0.14921722725E+03  0.12510293818E+03 0.  0.
          5    1    3    3  502    0  0.37639312552E+02 -0.28757687035E+02  0.17251443180E+02  0.50584652859E+02  0.41800000000E+01 0.  1.
         -5    1    3    3    0  502 -0.43636596006E+02  0.71793926224E+02  0.51501378403E+02  0.98632574392E+02  0.41800000000E+01 0.  1.
        -11    1    1    2    0    0  0.95471192096E+01 -0.20429172324E+02  0.29064855895E+02  0.36786742384E+02  0.00000000000E+00 0. -1.
         11    1    1    2    0    0 -0.35498357562E+01 -0.22607066865E+02 -0.82432029296E+02  0.85549519344E+02  0.00000000000E+00 0.  1.
</event>
<event>
 7    1  0.2666594E-009  0.1146006E+03  0.7561462E-02  0.1252280E+00
         -1   -1    0    0    0  501 -0.00000000000E+00  0.00000000000E+00  0.82633041761E+02  0.82633041761E+02  0.00000000000E+00 0.  1.
          1   -1    0    0  501    0  0.00000000000E+00 -0.00000000000E+00 -0.16375397236E+03  0.16375397236E+03  0.00000000000E+00 0. -1.
         25    2    1    2    0    0 -0.22728027599E+02 -0.35165052642E+02 -0.58237660650E+02  0.14419309336E+03  0.12508748495E+03 0.  0.
          5    1    3    3  502    0  0.44382591598E+02  0.13523461695E+02 -0.83152468327E+01  0.47321392447E+02  0.41800000000E+01 0. -1.
         -5    1    3    3    0  502 -0.67110619197E+02 -0.48688514338E+02 -0.49922413817E+02  0.96871700918E+02  0.41800000000E+01 0. -1.
        -11    1    1    2    0    0  0.15185334363E+02  0.66066924358E+02 -0.15682889817E+02  0.69580068316E+02  0.00000000000E+00 0.  1.
         11    1    1    2    0    0  0.75426932361E+01 -0.30901871716E+02 -0.72003801286E+01  0.32613852437E+02  0.00000000000E+00 0. -1.
</event>
<event>
 7    1  0.2666594E-009  0.8028826E+02  0.7561462E-02  0.1328235E+00
         -1   -1    0    0    0  501 -0.00000000000E+00  0.00000000000E+00  0.27524523589E+02  0.27524523589E+02  0.00000000000E+00 0.  1.
          1   -1    0    0  501    0  0.00000000000E+00 -0.00000000000E+00 -0.46859637555E+03  0.46859637555E+03  0.00000000000E+00 0. -1.
         25    2    1    2    0    0  0.89659876941E+01  0.14322971958E+01 -0.32499331496E+03  0.34835397421E+03  0.12508955262E+03 0.  0.
          5    1    3    3  502    0 -0.37786317513E+02 -0.57812653045E+01 -0.28099819804E+03  0.28361715132E+03  0.41800000000E+01 0.  1.
         -5    1    3    3    0  502  0.46752305207E+02  0.72135625002E+01 -0.43995116911E+02  0.64736822892E+02  0.41800000000E+01 0.  1.
        -11    1    1    2    0    0  0.17259567895E+02  0.29439200183E+02 -0.12151177535E+02  0.36224443499E+02  0.00000000000E+00 0. -1.
         11    1    1    2    0    0 -0.26225555589E+02 -0.30871497378E+02 -0.10392735947E+03  0.11154248143E+03  0.00000000000E+00 0.  1.
</event>
<event>
 7    1  0.2666594E-009  0.8388751E+02  0.7561462E-02  0.1318368E+00
          1   -1    0    0  501    0  0.00000000000E+00  0.00000000000E+00  0.11739829619E+04  0.11739829619E+04  0.00000000000E+00 0. -1.
         -1   -1    0    0    0  501 -0.00000000000E+00 -0.00000000000E+00 -0.26179897597E+02  0.26179897597E+02  0.00000000000E+00 0.  1.
         25    2    1    2    0    0  0.24761412945E+02  0.11095542799E+02  0.10688805282E+04  0.10765170797E+04  0.12508877123E+03 0.  0.
          5    1    3    3  502    0 -0.12344076081E+02  0.47379706066E+02  0.19532683738E+03  0.20141315390E+03  0.41800000000E+01 0. -1.
         -5    1    3    3    0  502  0.37105489025E+02 -0.36284163267E+02  0.87355369083E+03  0.87510392582E+03  0.41800000000E+01 0. -1.
        -11    1    1    2    0    0  0.11971147574E+02  0.16670807933E+02 -0.10507838540E+02  0.23057295638E+02  0.00000000000E+00 0.  1.
         11    1    1    2    0    0 -0.36732560518E+02 -0.27766350731E+02  0.89430374611E+02  0.10058848412E+03  0.00000000000E+00 0. -1.
</event>
<event>
 7    1  0.2666594E-009  0.1223659E+03  0.7561462E-02  0.1239244E+00
          1   -1    0    0  501    0  0.00000000000E+00  0.00000000000E+00  0.44493721890E+03  0.44493721890E+03  0.00000000000E+00 0. -1.
         -1   -1    0    0    0  501 -0.00000000000E+00 -0.00000000000E+00 -0.43577239982E+02  0.43577239982E+02  0.00000000000E+00 0.  1.
         25    2    1    2    0    0 -0.61037186748E+02 -0.27561714551E+02  0.12233997277E+03  0.18736097658E+03  0.12510747512E+03 0.  0.
          5    1    3    3  502    0 -0.79144935711E+02  0.26723814849E+02  0.62140367806E+02  0.10419683700E+03  0.41800000000E+01 0. -1.
         -5    1    3    3    0  502  0.18107748963E+02 -0.54285529400E+02  0.60199604967E+02  0.83164139585E+02  0.41800000000E+01 0. -1.
        -11    1    1    2    0    0  0.11755908533E+02  0.48693894928E+02  0.74893995718E+02  0.90102205208E+02  0.00000000000E+00 0.  1.
         11    1    1    2    0    0  0.49281278215E+02 -0.21132180378E+02  0.20412601043E+03  0.21105127709E+03  0.00000000000E+00 0. -1.
</event>
<event>
 7    1  0.2666594E-009  0.1420263E+03  0.7561462E-02  0.1210628E+00
          2   -1    0    0  501    0  0.00000000000E+00  0.00000000000E+00  0.46213722603E+03  0.46213722603E+03  0.00000000000E+00 0. -1.
         -2   -1    0    0    0  501 -0.00000000000E+00 -0.00000000000E+00 -0.54122727890E+02  0.54122727890E+02  0.00000000000E+00 0.  1.
         25    2    1    2    0    0  0.44872369360E+02 -0.10260890526E+03  0.26669595905E+03  0.31514643069E+03  0.12509364983E+03 0.  0.
          5    1    3    3  502    0 -0.11806914737E+02 -0.89499135332E+02  0.84056311288E+02  0.12341974853E+03  0.41800000000E+01 0. -1.
         -5    1    3    3    0  502  0.56679284097E+02 -0.13109769925E+02  0.18263964777E+03  0.19172668215E+03  0.41800000000E+01 0. -1.
        -11    1    1    2    0    0  0.79889181164E+01 -0.88951117406E+01 -0.18560158570E+01  0.12099199164E+02  0.00000000000E+00 0.  1.
         11    1    1    2    0    0 -0.52861287476E+02  0.11150401700E+03  0.14317455494E+03  0.18901432407E+03  0.00000000000E+00 0. -1.
</event>
<event>
 7    1  0.2666594E-009  0.1089260E+03  0.7561462E-02  0.1262572E+00
          2   -1    0    0  501    0  0.00000000000E+00  0.00000000000E+00  0.40405857252E+02  0.40405857252E+02  0.00000000000E+00 0. -1.
         -2   -1    0    0    0  501 -0.00000000000E+00 -0.00000000000E+00 -0.43379936633E+03  0.43379936633E+03  0.00000000000E+00 0.  1.
         25    2    1    2    0    0 -0.30176357890E+02 -0.30897962759E+02 -0.32814778280E+03  0.35382676871E+03  0.12508844159E+03 0.  0.
          5    1    3    3  502    0  0.37296858436E+01  0.44245243432E+02 -0.16587845348E+03  0.17176928087E+03  0.41800000000E+01 0.  1.
         -5    1    3    3    0  502 -0.33906043734E+02 -0.75143206191E+02 -0.16226932932E+03  0.18205748784E+03  0.41800000000E+01 0.  1.
        -11    1    1    2    0    0  0.35835566843E+02  0.55169433772E+02 -0.20062609567E+02  0.68777631366E+02  0.00000000000E+00 0. -1.
         11    1    1    2    0    0 -0.56592089523E+01 -0.24271471013E+02 -0.45183116710E+02  0.51600823508E+02  0.00000000000E+00 0.  1.
</event>
<event>
 7    1  0.2666594E-009  0.1243903E+03  0.7561462E-02  0.1236025E+00
         -2   -1    0    0    0  501 -0.00000000000E+00  0.00000000000E+00  0.66467623249E+03  0.66467623249E+03  0.00000000000E+00 0.  1.
          2   -1    0    0  501    0  0.00000000000E+00 -0.00000000000E+00 -0.28461224346E+02  0.28461224346E+02  0.00000000000E+00 0. -1.
         25    2    1    2    0    0  0.27347287084E+02  0.74590550856E+02  0.41968059580E+03  0.44507263231E+03  0.12508485582E+03 0.  0.
          5    1    3    3  502    0 -0.48899300680E+02  0.29713401991E+02  0.20399446075E+03  0.21190856585E+03  0.41800000000E+01 0. -1.
         -5    1    3    3    0  502  0.76246587764E+02  0.44877148865E+02  0.21568613505E+03  0.23316406646E+03  0.41800000000E+01 0. -1.
        -11    1    1    2    0    0  0.38280635917E+01 -0.71395953780E+02  0.20049090638E+03  0.21285826230E+03  0.00000000000E+00 0.  1.
         11    1    1    2    0    0 -0.31175350675E+02 -0.31945970758E+01  0.16043505967E+02  0.35206562228E+02  0.00000000000E+00 0. -1.
</event>
<event>
 7    1  0.2666594E-009  0.1346949E+03  0.7561462E-02  0.1220651E+00
         -1   -1    0    0    0  501 -0.00000000000E+00  0.00000000000E+00  0.38253005014E+02  0.38253005014E+02  0.00000000000E+00 0.  1.
          1   -1    0    0  501    0  0.00000000000E+00 -0.00000000000E+00 -0.57389511848E+03  0.57389511848E+03  0.00000000000E+00 0. -1.
         25    2    1    2    0    0  0.88711829801E+01 -0.10119246421E+03 -0.26352305660E+03  0.30888652730E+03  0.12509145729E+03 0.  0.
          5    1    3    3  502    0  0.63137346284E+02 -0.78185636127E+02 -0.18548563622E+03  0.21100168681E+03  0.41800000000E+01 0.  1.
         -5    1    3    3    0  502 -0.54266163304E+02 -0.23006828081E+02 -0.78037420380E+02  0.97884840489E+02  0.41800000000E+01 0.  1.
        -11    1    1    2    0    0  0.99739519995E+01  0.82753277123E+02 -0.26213680871E+03  0.27506961132E+03  0.00000000000E+00 0. -1.
         11    1    1    2    0    0 -0.18845134980E+02  0.18439187085E+02 -0.99822481542E+01  0.28191984871E+02  0.00000000000E+00 0.  1.
</event>
<event>
 7    1  0.2666594E-009  0.1041310E+03  0.7561462E-02  0.1271841E+00
          2   -1    0    0  501    0  0.00000000000E+00  0.00000000000E+00  0.61607763483E+03  0.61607763483E+03  0.00000000000E+00 0. -1.
         -2   -1    0    0    0  501 -0.00000000000E+00 -0.00000000000E+00 -0.23055668255E+02  0.23055668255E+02  0.00000000000E+00 0.  1.
         25    2    1    2    0    0  0.11141426426E+02 -0.57408060000E+02  0.29698340411E+03  0.32751269655E+03  0.12508240224E+03 0.  0.
          5    1    3    3  502    0  0.26089561719E+02  0.32274267435E+02  0.13969463834E+03  0.14578874425E+03  0.41800000000E+01 0. -1.
         -5    1    3    3    0  502 -0.14948135293E+02 -0.89682327435E+02  0.15728876577E+03  0.18172395230E+03  0.41800000000E+01 0. -1.
        -11    1    1    2    0    0 -0.27119921887E+02  0.52035003926E+02  0.28609139696E+03  0.29204694693E+03  0.00000000000E+00 0. -1.
         11    1    1    2    0    0  0.15978495461E+02  0.53730560734E+01  0.99471655115E+01  0.19573659609E+02  0.00000000000E+00 0.  1.
</event>
<event>
 7    1  0.2666594E-009  0.9160626E+02  0.7561462E-02  0.1299008E+00
          1   -1    0    0  501    0  0.00000000000E+00  0.00000000000E+00  0.30550989428E+03  0.30550989428E+03  0.00000000000E+00 0. -1.
         -1   -1    0    0    0  501 -0.00000000000E+00 -0.00000000000E+00 -0.52646018778E+02  0.52646018778E+02  0.00000000000E+00 0.  1.
         25    2    1    2    0    0 -0.24729932856E+02 -0.55477050106E+02  0.17304821491E+03  0.22199635870E+03  0.12508967154E+03 0.  0.
          5    1    3    3  502    0  0.13773302511E+02 -0.55583109116E+02  0.17402731710E+03  0.18325437342E+03  0.41800000000E+01 0. -1.
         -5    1    3    3    0  502 -0.38503235367E+02  0.10605900961E+00 -0.97910218980E+00  0.38741985278E+02  0.41800000000E+01 0. -1.
        -11    1    1    2    0    0  0.36707563952E+02  0.73047407462E+01  0.77968250971E+02  0.86486141365E+02  0.00000000000E+00 0.  1.
         11    1    1    2    0    0 -0.11977631097E+02  0.48172309360E+02  0.18474096167E+01  0.49673412989E+02  0.00000000000E+00 0. -1.
</event>
<event>
 7    1  0.2666594E-009  0.1407514E+03  0.7561462E-02  0.1212322E+00
         -1   -1    0    0    0  501 -0.00000000000E+00  0.00000000000E+00  0.12413015545E+02  0.12413015545E+02  0.00000000000E+00 0.  1.
          1   -1    0    0  501    0  0.00000000000E+00 -0.00000000000E+00 -0.24637825748E+04  0.24637825748E+04  0.00000000000E+00 0. -1.
         25    2    1    2    0    0 -0.12437509619E+03  0.18093343720E+02 -0.16715999269E+04  0.16809796851E+04  0.12509937142E+03 0.  0.
          5    1    3    3  502    0 -0.71435664492E+02 -0.55091655318E+01 -0.31240173762E+03  0.32053973722E+03  0.41800000000E+01 0.  1.
         -5    1    3    3    0  502 -0.52939431700E+02  0.23602509252E+02 -0.13591981892E+04  0.13604399479E+04  0.41800000000E+01 0.  1.
        -11    1    1    2    0    0  0.14428278141E+02  0.28705499288E+02 -0.10031892006E+03  0.10533786888E+03  0.00000000000E+00 0.  1.
         11    1    1    2    0    0  0.10994681805E+03 -0.46798843008E+02 -0.67945071237E+03  0.68987803635E+03  0.00000000000E+00 0. -1.
</event>
<event>
 7    1  0.3424640E-009  0.1304129E+03  0.7561462E-02  0.1226844E+00
          2   -1    0    0  501    0  0.00000000000E+00  0.00000000000E+00  0.45322159276E+03  0.45322159276E+03  0.00000000000E+00 0. -1.
         -2   -1    0    0    0  501 -0.00000000000E+00 -0.00000000000E+00 -0.66184187590E+02  0.66184187590E+02  0.00000000000E+00 0.  1.
         25    2    1    2    0    0 -0.38277645235E+02  0.11749675288E+03  0.12510489261E+03  0.21580146827E+03  0.12509346302E+03 0.  0.
          5    1    3    3  502    0 -0.19578713015E+02  0.49536227705E+02  0.13435455880E+03  0.14458832501E+03  0.41800000000E+01 0. -1.
         -5    1    3    3    0  502 -0.18698932220E+02  0.67960525176E+02 -0.92496661898E+01  0.71213143260E+02  0.41800000000E+01 0. -1.
        -11    1    1    2    0    0  0.44628850565E+02 -0.42846477112E+02  0.52384920564E+02  0.81066237153E+02  0.00000000000E+00 0.  1.
         11    1    1    2    0    0 -0.63512053303E+01 -0.74650275769E+02  0.20954759199E+03  0.22253807492E+03  0.00000000000E+00 0. -1.
</event>
<event>
 7    1  0.2666594E-009  0.1262044E+03  0.7561462E-02  0.1233199E+00
         -2   -1    0    0    0  501 -0.00000000000E+00  0.00000000000E+00  0.26552521794E+02  0.26552521794E+02  0.00000000000E+00 0.  1.
          2   -1    0    0  501    0  0.00000000000E+00 -0.00000000000E+00 -0.69487888591E+03  0.69487888591E+03  0.00000000000E+00 0. -1.
         25    2    1    2    0    0  0.71874868884E+02  0.36210250722E+02 -0.37420442889E+03  0.40268333210E+03  0.12509089620E+03 0.  0.
          5    1    3    3  502    0 -0.34121622455E+02  0.18851063260E+02 -0.72808928661E+02  0.82693773634E+02  0.41800000000E+01 0. -1.
         -5    1    3    3    0  502  0.10599649134E+03  0.17359187461E+02 -0.30139550023E+03  0.31998955846E+03  0.41800000000E+01 0. -1.
        -11    1    1    2    0    0 -0.15950955770E+02  0.20561200099E+02 -0.18742164191E+02  0.32069684409E+02  0.00000000000E+00 0.  1.
         11    1    1    2    0    0 -0.55923913114E+02 -0.56771450821E+02 -0.27537977103E+03  0.28667839119E+03  0.00000000000E+00 0. -1.
</event>
<event>
 7    1  0.2666594E-009  0.3921201E+03  0.7561462E-02  0.1046543E+00
         -1   -1    0    0    0  501 -0.00000000000E+00  0.00000000000E+00  0.64688136026E+02  0.64688136026E+02  0.00000000000E+00 0.  1.
          1   -1    0    0  501    0  0.00000000000E+00 -0.00000000000E+00 -0.26039694487E+04  0.26039694487E+04  0.00000000000E+00 0. -1.
         25    2    1    2    0    0  0.34938478188E+03 -0.17095214302E+03 -0.15202028534E+04  0.15741538840E+04  0.12509745820E+03 0.  0.
          5    1    3    3  502    0  0.34591907766E+03 -0.16967535074E+03 -0.13513679892E+04  0.14052269025E+04  0.41800000000E+01 0.  1.
         -5    1    3    3    0  502  0.34657042135E+01 -0.12767922763E+01 -0.16883486425E+03  0.16892698154E+03  0.41800000000E+01 0.  1.
        -11    1    1    2    0    0 -0.83969546686E+02  0.70216872544E+02 -0.20576077852E+03  0.23306392243E+03  0.00000000000E+00 0.  1.
         11    1    1    2    0    0 -0.26541523519E+03  0.10073527047E+03 -0.81331768072E+03  0.86143977825E+03  0.00000000000E+00 0. -1.
</event>
<event>
 7    1  0.2666594E-009  0.1047965E+03  0.7561462E-02  0.1270521E+00
         -2   -1    0    0    0  501 -0.00000000000E+00  0.00000000000E+00  0.30993349779E+02  0.30993349779E+02  0.00000000000E+00 0.  1.
          2   -1    0    0  501    0  0.00000000000E+00 -0.00000000000E+00 -0.52902814303E+03  0.52902814303E+03  0.00000000000E+00 0. -1.
         25    2    1    2    0    0  0.63514101962E+02 -0.24680065780E+01 -0.24976820379E+03  0.28648050284E+03  0.12508713237E+03 0.  0.
          5    1    3    3  502    0 -0.10127408409E+02 -0.16949860133E+02 -0.18830265235E+03  0.18938115915E+03  0.41800000000E+01 0.  1.
         -5    1    3    3    0  502  0.73641510371E+02  0.14481853555E+02 -0.61465551433E+02  0.97099343691E+02  0.41800000000E+01 0.  1.
        -11    1    1    2    0    0 -0.28392688388E+02  0.48585757938E+02 -0.10836811309E+03  0.12210802006E+03  0.00000000000E+00 0.  1.
         11    1    1    2    0    0 -0.35121413574E+02 -0.46117751360E+02 -0.13989847638E+03  0.15143296990E+03  0.00000000000E+00 0. -1.
</event>
<event>
 7    1  0.2666594E-009  0.2512257E+03  0.7561462E-02  0.1112533E+00
         -2   -1    0    0    0  501 -0.00000000000E+00  0.00000000000E+00  0.19856057341E+02  0.19856057341E+02  0.00000000000E+00 0.  1.
          2   -1    0    0  501    0  0.00000000000E+00 -0.00000000000E+00 -0.38092632930E+04  0.38092632930E+04  0.00000000000E+00 0. -1.
         25    2    1    2    0    0 -0.20086466831E+03 -0.11454988878E+03 -0.26377253436E+04  0.26507945029E+04  0.12509282984E+03 0.  0.
          5    1    3    3  502    0 -0.66844402106E+02  0.13364361856E+02 -0.10653297118E+04  0.10675165795E+04  0.41800000000E+01 0. -1.
         -5    1    3    3    0  502 -0.13402026620E+03 -0.12791425064E+03 -0.15723956319E+04  0.15832779234E+04  0.41800000000E+01 0. -1.
        -11    1    1    2    0    0  0.10316049427E+03  0.11033283294E+03 -0.72756694847E+03  0.74308080725E+03  0.00000000000E+00 0.  1.
         11    1    1    2    0    0  0.97704174042E+02  0.42170558419E+01 -0.42411494350E+03  0.43524404015E+03  0.00000000000E+00 0. -1.
</event>
<event>
 7    1  0.2666594E-009  0.1467849E+03  0.7561462E-02  0.1204480E+00
          4   -1    0    0  501    0  0.00000000000E+00  0.00000000000E+00  0.12925000420E+03  0.12925000420E+03  0.00000000000E+00 0. -1.
         -4   -1    0    0    0  501 -0.00000000000E+00 -0.00000000000E+00 -0.18042400457E+03  0.18042400457E+03  0.00000000000E+00 0.  1.
         25    2    1    2    0    0 -0.15290785188E+02  0.10298984602E+03 -0.31667115774E+01  0.16278099218E+03  0.12508759674E+03 0.  0.
          5    1    3    3  502    0 -0.70159750780E+02  0.59081362161E+02 -0.83185949235E+01  0.92193651657E+02  0.41800000000E+01 0.  1.
         -5    1    3    3    0  502  0.54868965591E+02  0.43908483862E+02  0.51518833461E+01  0.70587340523E+02  0.41800000000E+01 0.  1.
        -11    1    1    2    0    0  0.35196563447E+02 -0.10556838431E+03 -0.21002621877E+02  0.11324571502E+03  0.00000000000E+00 0. -1.
         11    1    1    2    0    0 -0.19905778258E+02  0.25785382893E+01 -0.27004666913E+02  0.33647301569E+02  0.00000000000E+00 0.  1.
</event>
<event>
 7    1  0.2666594E-009  0.1571666E+03  0.7561462E-02  0.1191933E+00
         -3   -1    0    0    0  501 -0.00000000000E+00  0.00000000000E+00  0.28915958772E+03  0.28915958772E+03  0.00000000000E+00 0.  1.
          3   -1    0    0  501    0  0.00000000000E+00 -0.00000000000E+00 -0.96418399139E+02  0.96418399139E+02  0.00000000000E+00 0. -1.
         25    2    1    2    0    0  0.41439964797E+02 -0.11846542392E+03  0.11374574869E+03  0.21056317676E+03  0.12508968269E+03 0.  0.
          5    1    3    3  502    0  0.75620357251E+02 -0.70535486120E+02  0.11058643587E+03  0.15146130011E+03  0.41800000000E+01 0. -1.
         -5    1    3    3    0  502 -0.34180392454E+02 -0.47929937803E+02  0.31593128230E+01  0.59101876651E+02  0.41800000000E+01 0. -1.
        -11    1    1    2    0    0  0.24664589553E+02  0.54564480703E+02  0.51691526052E+02  0.79105236222E+02  0.00000000000E+00 0. -1.
         11    1    1    2    0    0 -0.66104554350E+02  0.63900943220E+02  0.27303913837E+02  0.95909573876E+02  0.00000000000E+00 0.  1.
</event>
<event>
 7    1  0.2666594E-009  0.1954455E+03  0.7561462E-02  0.1153640E+00
         -1   -1    0    0    0  501 -0.00000000000E+00  0.00000000000E+00  0.67377127991E+02  0.67377127991E+02  0.00000000000E+00 0. -1.
          1   -1    0    0  501    0  0.00000000000E+00 -0.00000000000E+00 -0.67185316722E+03  0.67185316722E+03  0.00000000000E+00 0.  1.
         25    2    1    2    0    0 -0.31022512590E+02 -0.17308423360E+03 -0.39832230364E+03  0.45302157188E+03  0.12508932330E+03 0.  0.
          5    1    3    3  502    0 -0.85561393341E+01 -0.17958478617E+03 -0.38691411111E+03  0.42666603417E+03  0.41800000000E+01 0.  1.
         -5    1    3    3    0  502 -0.22466373256E+02  0.65005525711E+01 -0.11408192536E+02  0.26355537709E+02  0.41800000000E+01 0.  1.
        -11    1    1    2    0    0  0.45766946117E+02  0.73207576880E+02 -0.14325201547E+03  0.16725759357E+03  0.00000000000E+00 0.  1.
         11    1    1    2    0    0 -0.14744433527E+02  0.99876656719E+02 -0.62901720111E+02  0.11895112976E+03  0.00000000000E+00 0. -1.
</event>
<event>
 7    1  0.2666594E-009  0.1579259E+03  0.7561462E-02  0.1191058E+00
          2   -1    0    0  501    0  0.00000000000E+00  0.00000000000E+00  0.42020771434E+03  0.42020771434E+03  0.00000000000E+00 0. -1.
         -2   -1    0    0    0  501 -0.00000000000E+00 -0.00000000000E+00 -0.93832553866E+02  0.93832553866E+02  0.00000000000E+00 0.  1.
         25    2    1    2    0    0 -0.43667447537E+02 -0.14510684960E+03  0.83619125404E+02  0.21354690891E+03  0.12508908983E+03 0.  0.
          5    1    3    3  502    0 -0.58108747843E+02 -0.94968592603E+02 -0.39969632848E+01  0.11148591065E+03  0.41800000000E+01 0. -1.
         -5    1    3    3    0  502  0.14441300306E+02 -0.50138257002E+02  0.87616088689E+02  0.10206099827E+03  0.41800000000E+01 0. -1.
        -11    1    1    2    0    0  0.29007194291E+02  0.11507709216E+03  0.10408879997E+03  0.15785636743E+03  0.00000000000E+00 0.  1.
         11    1    1    2    0    0  0.14660253246E+02  0.30029757448E+02  0.13866723510E+03  0.14263699186E+03  0.00000000000E+00 0. -1.
</event>
<event>
 7    1  0.2666594E-009  0.1126350E+03  0.7561462E-02  0.1255767E+00
          2   -1    0    0  501    0  0.00000000000E+00  0.00000000000E+00  0.27955802630E+03  0.27955802630E+03  0.00000000000E+00 0. -1.
         -2   -1    0    0    0  501 -0.00000000000E+00 -0.00000000000E+00 -0.67648567718E+02  0.67648567718E+02  0.00000000000E+00 0.  1.
         25    2    1    2    0    0  0.54103227851E+02 -0.65948653956E+02  0.11684607765E+03  0.19124134647E+03  0.12507542730E+03 0.  0.
          5    1    3    3  502    0  0.15379027868E+02 -0.78999911098E+02  0.15746533938E+02  0.82115322460E+02  0.41800000000E+01 0.  1.
         -5    1    3    3    0  502  0.38724199983E+02  0.13051257142E+02  0.10109954371E+03  0.10912602401E+03  0.41800000000E+01 0.  1.
        -11    1    1    2    0    0 -0.41087094830E+02  0.76506608737E+02  0.35036831761E+02  0.93642886125E+02  0.00000000000E+00 0.  1.
         11    1    1    2    0    0 -0.13016133021E+02 -0.10557954780E+02  0.60026549178E+02  0.62322361429E+02  0.00000000000E+00 0. -1.
</event>
<event>
 7    1  0.2666594E-009  0.1361682E+03  0.7561462E-02  0.1218580E+00
         -2   -1    0    0    0  501 -0.00000000000E+00  0.00000000000E+00  0.72287468167E+02  0.72287468167E+02  0.00000000000E+00 0.  1.
          2   -1    0    0  501    0  0.00000000000E+00 -0.00000000000E+00 -0.33703891116E+03  0.33703891116E+03  0.00000000000E+00 0. -1.
         25    2    1    2    0    0 -0.30986953659E+02 -0.10478326374E+03 -0.11507824042E+03  0.20206502642E+03  0.12509016678E+03 0.  0.
          5    1    3    3  502    0  0.12037776445E+02 -0.95586458851E+02 -0.21827473859E+02  0.98871584353E+02  0.41800000000E+01 0. -1.
         -5    1    3    3    0  502 -0.43024730104E+02 -0.91968048907E+01 -0.93250766565E+02  0.10319344207E+03  0.41800000000E+01 0. -1.
        -11    1    1    2    0    0  0.44489509867E+02  0.25488916613E+02 -0.20770178931E+02  0.55320897418E+02  0.00000000000E+00 0. -1.
         11    1    1    2    0    0 -0.13502556208E+02  0.79294347129E+02 -0.12890302363E+03  0.15194045548E+03  0.00000000000E+00 0.  1.
</event>
<event>
 7    1  0.2666594E-009  0.1208729E+03  0.7561462E-02  0.1241664E+00
          2   -1    0    0  501    0  0.00000000000E+00  0.00000000000E+00  0.19615537458E+03  0.19615537458E+03  0.00000000000E+00 0. -1.
         -2   -1    0    0    0  501 -0.00000000000E+00 -0.00000000000E+00 -0.11696400096E+03  0.11696400096E+03  0.00000000000E+00 0.  1.
         25    2    1    2    0    0 -0.80873088509E+02  0.36182311964E+02 -0.16398457177E+02  0.15415956788E+03  0.12508655734E+03 0.  0.
          5    1    3    3  502    0 -0.47602251721E+02 -0.43091121321E+02  0.76271130601E+01  0.64795558175E+02  0.41800000000E+01 0.  1.
         -5    1    3    3    0  502 -0.33270836788E+02  0.79273433285E+02 -0.24025570237E+02  0.89364009705E+02  0.41800000000E+01 0.  1.
        -11    1    1    2    0    0  0.12199102080E+02 -0.15259525927E+02  0.83997345835E+02  0.86239349084E+02  0.00000000000E+00 0. -1.
         11    1    1    2    0    0  0.68673986428E+02 -0.20922786037E+02  0.11592484969E+02  0.72720458575E+02  0.00000000000E+00 0.  1.
</event>
<event>
 7    1  0.2666594E-009  0.1151918E+03  0.7561462E-02  0.1251247E+00
         -2   -1    0    0    0  501 -0.00000000000E+00  0.00000000000E+00  0.15214129760E+03  0.15214129760E+03  0.00000000000E+00 0.  1.
          2   -1    0    0  501    0  0.00000000000E+00 -0.00000000000E+00 -0.99811345076E+02  0.99811345076E+02  0.00000000000E+00 0. -1.
         25    2    1    2    0    0 -0.18633554086E+02  0.45388201615E+02  0.62343031771E+02  0.14812996720E+03  0.12509410613E+03 0.  0.
          5    1    3    3  502    0  0.23062329277E+01  0.83353948576E+02  0.62957202590E+02  0.10456711343E+03  0.41800000000E+01 0.  1.
         -5    1    3    3    0  502 -0.20939787014E+02 -0.37965746961E+02 -0.61417081824E+00  0.43562853767E+02  0.41800000000E+01 0.  1.
        -11    1    1    2    0    0  0.10460899680E+02  0.27793952730E+02 -0.24524266598E+01  0.29798466856E+02  0.00000000000E+00 0. -1.
         11    1    1    2    0    0  0.81726544057E+01 -0.73182154345E+02 -0.75606525862E+01  0.74024208622E+02  0.00000000000E+00 0.  1.
</event>
<event>
 7    1  0.2666594E-009  0.7106750E+02  0.7561462E-02  0.1356500E+00
          2   -1    0    0  501    0  0.00000000000E+00  0.00000000000E+00  0.29541659432E+03  0.29541659432E+03  0.00000000000E+00 0. -1.
         -2   -1    0    0    0  501 -0.00000000000E+00 -0.00000000000E+00 -0.87829806430E+02  0.87829806430E+02  0.00000000000E+00 0.  1.
         25    2    1    2    0    0 -0.10368505752E+02 -0.27755665030E+02  0.24832533423E+03  0.27962358882E+03  0.12508395962E+03 0.  0.
          5    1    3    3  502    0 -0.45312269908E+02 -0.45112963317E+02  0.22506143436E+03  0.23400534801E+03  0.41800000000E+01 0.  1.
         -5    1    3    3    0  502  0.34943764156E+02  0.17357298287E+02  0.23263899868E+02  0.45618240807E+02  0.41800000000E+01 0.  1.
        -11    1    1    2    0    0 -0.61683800495E+01  0.19264844047E+02 -0.67821540602E+02  0.70773897011E+02  0.00000000000E+00 0.  1.
         11    1    1    2    0    0  0.16536885801E+02  0.84908209832E+01  0.27082994270E+02  0.32848914923E+02  0.00000000000E+00 0. -1.
</event>
<event>
 7    1  0.2666594E-009  0.1272787E+03  0.7561462E-02  0.1231550E+00
         -1   -1    0    0    0  501 -0.00000000000E+00  0.00000000000E+00  0.11657727745E+03  0.11657727745E+03  0.00000000000E+00 0.  1.
          1   -1    0    0  501    0  0.00000000000E+00 -0.00000000000E+00 -0.21774331954E+03  0.21774331954E+03  0.00000000000E+00 0. -1.
         25    2    1    2    0    0  0.65448048043E+02  0.79686711081E+02 -0.77079663321E+02  0.17950559816E+03  0.12509023286E+03 0.  0.
          5    1    3    3  502    0  0.70630171467E+02  0.14797853453E+02 -0.87449471780E+02  0.11345695264E+03  0.41800000000E+01 0. -1.
         -5    1    3    3    0  502 -0.51821234238E+01  0.64888857627E+02  0.10369808459E+02  0.66048645519E+02  0.41800000000E+01 0. -1.
        -11    1    1    2    0    0 -0.70984385320E+02 -0.49954499984E+02 -0.61741213543E+02  0.10651860156E+03  0.00000000000E+00 0. -1.
         11    1    1    2    0    0  0.55363372768E+01 -0.29732211096E+02  0.37654834774E+02  0.48296397267E+02  0.00000000000E+00 0.  1.
</event>
<event>
 7    1  0.2666594E-009  0.1325353E+03  0.7561462E-02  0.1223742E+00
          2   -1    0    0  501    0  0.00000000000E+00  0.00000000000E+00  0.87874336003E+03  0.87874336003E+03  0.00000000000E+00 0. -1.
         -2   -1    0    0    0  501 -0.00000000000E+00 -0.00000000000E+00 -0.29858203599E+02  0.29858203599E+02  0.00000000000E+00 0.  1.
         25    2    1    2    0    0 -0.30805807225E+02 -0.70888085345E+02  0.71187683596E+03  0.72690416080E+03  0.12508761333E+03 0.  0.
          5    1    3    3  502    0  0.29499513922E+02 -0.80130338239E+02  0.44105732415E+03  0.44926621063E+03  0.41800000000E+01 0. -1.
         -5    1    3    3    0  502 -0.60305321146E+02  0.92422528940E+01  0.27081951181E+03  0.27763795017E+03  0.41800000000E+01 0. -1.
        -11    1    1    2    0    0 -0.22543167310E+02 -0.73683868039E+01  0.19040727480E+02  0.30414417953E+02  0.00000000000E+00 0.  1.
         11    1    1    2    0    0  0.53348974535E+02  0.78256472149E+02  0.11796759299E+03  0.15128298488E+03  0.00000000000E+00 0. -1.
</event>
<event>
 7    1  0.2666594E-009  0.1271937E+03  0.7561462E-02  0.1231680E+00
         -1   -1    0    0    0  501 -0.00000000000E+00  0.00000000000E+00  0.43860107008E+03  0.43860107008E+03  0.00000000000E+00 0.  1.
          1   -1    0    0  501    0  0.00000000000E+00 -0.00000000000E+00 -0.59603278606E+02  0.59603278606E+02  0.00000000000E+00 0. -1.
         25    2    1    2    0    0  0.85918962111E+02 -0.73642004243E+02  0.22273264357E+03  0.27939694920E+03  0.12509041478E+03 0.  0.
          5    1    3    3  502    0  0.72182600350E+02 -0.76889429450E+02  0.71578157499E+02  0.12752731937E+03  0.41800000000E+01 0. -1.
         -5    1    3    3    0  502  0.13736361760E+02  0.32474252066E+01  0.15115448608E+03  0.15186962983E+03  0.41800000000E+01 0. -1.
        -11    1    1    2    0    0 -0.63007757852E+02  0.66951539280E+01  0.12759387713E+03  0.14246052126E+03  0.00000000000E+00 0.  1.
         11    1    1    2    0    0 -0.22911204259E+02  0.66946850315E+02  0.28671270770E+02  0.76346878229E+02  0.00000000000E+00 0. -1.
</event>
<event>
 7    1  0.2666594E-009  0.1674200E+03  0.7561462E-02  0.1180565E+00
          3   -1    0    0  501    0  0.00000000000E+00  0.00000000000E+00  0.21257306924E+03  0.21257306924E+03  0.00000000000E+00 0. -1.
         -3   -1    0    0    0  501 -0.00000000000E+00 -0.00000000000E+00 -0.13772338187E+03  0.13772338187E+03  0.00000000000E+00 0.  1.
         25    2    1    2    0    0  0.12753499916E+03  0.16700648161E+02  0.96987138771E+01  0.17968212020E+03  0.12509001403E+03 0.  0.
          5    1    3    3  502    0  0.28543067200E+02  0.62204650252E+02  0.16209571480E+02  0.70458128032E+02  0.41800000000E+01 0.  1.
         -5    1    3    3    0  502  0.98991931958E+02 -0.45504002091E+02 -0.65108576028E+01  0.10922399217E+03  0.41800000000E+01 0.  1.
        -11    1    1    2    0    0  0.38332506876E+01 -0.25303762867E+02  0.15455949421E+02  0.29897501544E+02  0.00000000000E+00 0.  1.
         11    1    1    2    0    0 -0.13136824985E+03  0.86031147066E+01  0.49695024073E+02  0.14071682937E+03  0.00000000000E+00 0. -1.
</event>
<event>
 7    1  0.2666594E-009  0.1067777E+03  0.7561462E-02  0.1266656E+00
         -2   -1    0    0    0  501 -0.00000000000E+00  0.00000000000E+00  0.35234349486E+02  0.35234349486E+02  0.00000000000E+00 0.  1.
          2   -1    0    0  501    0  0.00000000000E+00 -0.00000000000E+00 -0.58486334132E+03  0.58486334132E+03  0.00000000000E+00 0. -1.
         25    2    1    2    0    0  0.46511799754E+02 -0.80859295957E+02 -0.25023432415E+03  0.29490589742E+03  0.12510275014E+03 0.  0.
          5    1    3    3  502    0  0.21938931672E+02 -0.10638551794E+02 -0.20757752333E+03  0.20904639700E+03  0.41800000000E+01 0. -1.
         -5    1    3    3    0  502  0.24572868083E+02 -0.70220744163E+02 -0.42656800821E+02  0.85859500423E+02  0.41800000000E+01 0. -1.
        -11    1    1    2    0    0  0.12681637006E+02  0.41062822978E+02 -0.50667025357E+02  0.66438895285E+02  0.00000000000E+00 0.  1.
         11    1    1    2    0    0 -0.59193436760E+02  0.39796472978E+02 -0.24872764232E+03  0.25875289810E+03  0.00000000000E+00 0. -1.
</event>
<event>
 7    1  0.2666594E-009  0.1458456E+03  0.7561462E-02  0.1205673E+00
         -2   -1    0    0    0  501 -0.00000000000E+00  0.00000000000E+00  0.25630112607E+03  0.25630112607E+03  0.00000000000E+00 0.  1.
          2   -1    0    0  501    0  0.00000000000E+00 -0.00000000000E+00 -0.10645311827E+03  0.10645311827E+03  0.00000000000E+00 0. -1.
         25    2    1    2    0    0  0.44384084104E+00  0.11332184926E+03  0.45406353388E+02  0.17478908313E+03  0.12508976033E+03 0.  0.
          5    1    3    3  502    0 -0.45924504901E+02  0.51460775792E+02  0.65062803357E+02  0.94910022527E+02  0.41800000000E+01 0. -1.
         -5    1    3    3    0  502  0.46368345742E+02  0.61861073467E+02 -0.19656449969E+02  0.79879060603E+02  0.41800000000E+01 0. -1.
        -11    1    1    2    0    0 -0.41781443686E+02 -0.27812658300E+02  0.71661313319E+02  0.87490438476E+02  0.00000000000E+00 0. -1.
         11    1    1    2    0    0  0.41337602845E+02 -0.85509190959E+02  0.32780341095E+02  0.10047472274E+03  0.00000000000E+00 0.  1.
</event>
<event>
 7    1  0.2666594E-009  0.1200848E+03  0.7561462E-02  0.1242957E+00
          2   -1    0    0  501    0  0.00000000000E+00  0.00000000000E+00  0.92924723931E+03  0.92924723931E+03  0.00000000000E+00 0. -1.
         -2   -1    0    0    0  501 -0.00000000000E+00 -0.00000000000E+00 -0.17948707964E+02  0.17948707964E+02  0.00000000000E+00 0.  1.
         25    2    1    2    0    0  0.67878023633E+02 -0.89767019762E+01  0.56010961054E+03  0.57797639897E+03  0.12508371068E+03 0.  0.
          5    1    3    3  502    0 -0.12680238555E+02  0.36737140816E+02  0.28487232532E+03  0.28754151022E+03  0.41800000000E+01 0.  1.
         -5    1    3    3    0  502  0.80558262188E+02 -0.45713842792E+02  0.27523728522E+03  0.29043488875E+03  0.41800000000E+01 0.  1.
        -11    1    1    2    0    0 -0.50476707835E+02 -0.34762309658E+02  0.25317214841E+03  0.26048503400E+03  0.00000000000E+00 0.  1.
         11    1    1    2    0    0 -0.17401315797E+02  0.43739011634E+02  0.98016772390E+02  0.10873451430E+03  0.00000000000E+00 0. -1.
</event>
<event>
 7    1  0.2666594E-009  0.1171326E+03  0.7561462E-02  0.1247904E+00
         -3   -1    0    0    0  501 -0.00000000000E+00  0.00000000000E+00  0.10141950984E+03  0.10141950984E+03  0.00000000000E+00 0.  1.
          3   -1    0    0  501    0  0.00000000000E+00 -0.00000000000E+00 -0.23477985018E+03  0.23477985018E+03  0.00000000000E+00 0. -1.
         25    2    1    2    0    0  0.31286299095E+02 -0.49633621882E+02  0.28413723305E+02  0.14105627023E+03  0.12508877954E+03 0.  0.
          5    1    3    3  502    0 -0.17850731649E+02  0.29528190264E+02 -0.15395322790E+02  0.38013826490E+02  0.41800000000E+01 0. -1.
         -5    1    3    3    0  502  0.49137030744E+02 -0.79161812146E+02  0.43809046094E+02  0.10304244374E+03  0.41800000000E+01 0. -1.
        -11    1    1    2    0    0  0.30682461076E+02  0.24920552803E+02 -0.39666903909E+02  0.55999202096E+02  0.00000000000E+00 0.  1.
         11    1    1    2    0    0 -0.61968760172E+02  0.24713069079E+02 -0.12210715974E+03  0.13914388768E+03  0.00000000000E+00 0. -1.
</event>
<event>
 7    1  0.2666594E-009  0.1224035E+03  0.7561462E-02  0.1239184E+00
          1   -1    0    0  501    0  0.00000000000E+00  0.00000000000E+00  0.29573388559E+03  0.29573388559E+03  0.00000000000E+00 0. -1.
         -1   -1    0    0    0  501 -0.00000000000E+00 -0.00000000000E+00 -0.57203227387E+02  0.57203227387E+02  0.00000000000E+00 0.  1.
         25    2    1    2    0    0 -0.65974360272E+02 -0.24047583117E+02  0.11883534879E+03  0.18628117233E+03  0.12509169666E+03 0.  0.
          5    1    3    3  502    0 -0.88610746834E+02  0.13922028217E+02  0.45782995353E+02  0.10079306716E+03  0.41800000000E+01 0.  1.
         -5    1    3    3    0  502  0.22636386563E+02 -0.37969611334E+02  0.73052353440E+02  0.85488105164E+02  0.41800000000E+01 0.  1.
        -11    1    1    2    0    0  0.29111580194E+02 -0.32168381915E+02  0.23622662716E+02  0.49399585932E+02  0.00000000000E+00 0.  1.
         11    1    1    2    0    0  0.36862780078E+02  0.56215965033E+02  0.96072646698E+02  0.11725635472E+03  0.00000000000E+00 0. -1.
</event>
<event>
 7    1  0.3056151E-009  0.8526119E+02  0.7561462E-02  0.1314751E+00
          2   -1    0    0  501    0  0.00000000000E+00  0.00000000000E+00  0.17687047385E+03  0.17687047385E+03  0.00000000000E+00 0.  1.
         -2   -1    0    0    0  501 -0.00000000000E+00 -0.00000000000E+00 -0.89022885814E+02  0.89022885814E+02  0.00000000000E+00 0. -1.
         25    2    1    2    0    0  0.97471802108E-01  0.58519521235E+02  0.21997738889E+02  0.13984280140E+03  0.12509022632E+03 0.  0.
          5    1    3    3  502    0  0.11289159154E+02 -0.21036691602E+02  0.49260653360E+02  0.54900563544E+02  0.41800000000E+01 0.  1.
         -5    1    3    3    0  502 -0.11191687352E+02  0.79556212837E+02 -0.27262914471E+02  0.84942237858E+02  0.41800000000E+01 0.  1.
        -11    1    1    2    0    0 -0.14346502088E+02 -0.18870010656E+02  0.78547668114E+02  0.82046545268E+02  0.00000000000E+00 0.  1.
         11    1    1    2    0    0  0.14249030286E+02 -0.39649510579E+02 -0.12697818966E+02  0.44004012996E+02  0.00000000000E+00 0. -1.
</event>
<event>
 7    1  0.2666594E-009  0.1084653E+03  0.7561462E-02  0.1263439E+00
          1   -1    0    0  501    0  0.00000000000E+00  0.00000000000E+00  0.10539734010E+04  0.10539734010E+04  0.00000000000E+00 0. -1.
         -1   -1    0    0    0  501 -0.00000000000E+00 -0.00000000000E+00 -0.14931381497E+02  0.14931381497E+02  0.00000000000E+00 0.  1.
         25    2    1    2    0    0  0.40275507032E+02 -0.16327649805E+02  0.77877055860E+03  0.78994933187E+03  0.12509058866E+03 0.  0.
          5    1    3    3  502    0  0.18056438567E+01  0.49892881853E+02  0.42609071820E+03  0.42902602782E+03  0.41800000000E+01 0.  1.
         -5    1    3    3    0  502  0.38469863175E+02 -0.66220531657E+02  0.35267984040E+03  0.36092330405E+03  0.41800000000E+01 0.  1.
        -11    1    1    2    0    0 -0.35681653667E+02 -0.28131047333E+02  0.69622500417E+02  0.83137409130E+02  0.00000000000E+00 0.  1.
         11    1    1    2    0    0 -0.45938533649E+01  0.44458697137E+02  0.19064896051E+03  0.19581804152E+03  0.00000000000E+00 0. -1.
</event>
<event>
 7    1  0.2666594E-009  0.1478343E+03  0.7561462E-02  0.1203160E+00
         -2   -1    0    0    0  501 -0.00000000000E+00  0.00000000000E+00  0.29041078622E+03  0.29041078622E+03  0.00000000000E+00 0.  1.
          2   -1    0    0  501    0  0.00000000000E+00 -0.00000000000E+00 -0.84807101410E+02  0.84807101410E+02  0.00000000000E+00 0. -1.
         25    2    1    2    0    0 -0.96847658666E+02 -0.29915969096E+02  0.56565653099E+02  0.17065018559E+03  0.12508948211E+03 0.  0.
          5    1    3    3  502    0 -0.72791994336E+02 -0.78031543353E+02  0.33042940369E+02  0.11178955455E+03  0.41800000000E+01 0. -1.
         -5    1    3    3    0  502 -0.24055664330E+02  0.48115574257E+02  0.23522712729E+02  0.58860631041E+02  0.41800000000E+01 0. -1.
        -11    1    1    2    0    0 -0.16540402705E+02 -0.30839002037E+01  0.41764506366E+02  0.45026318460E+02  0.00000000000E+00 0.  1.
         11    1    1    2    0    0  0.11338806137E+03  0.32999869300E+02  0.10727352535E+03  0.15954138358E+03  0.00000000000E+00 0. -1.
</event>
<event>
 7    1  0.2666594E-009  0.1372525E+03  0.7561462E-02  0.1217075E+00
          1   -1    0    0  501    0  0.00000000000E+00  0.00000000000E+00  0.14516747595E+03  0.14516747595E+03  0.00000000000E+00 0.  1.
         -1   -1    0    0    0  501 -0.00000000000E+00 -0.00000000000E+00 -0.16208901416E+03  0.16208901416E+03  0.00000000000E+00 0. -1.
         25    2    1    2    0    0 -0.83701045673E+02  0.62910424564E+02  0.17747125711E+02  0.16409092542E+03  0.12508910731E+03 0.  0.
          5    1    3    3  502    0 -0.36219801564E+02 -0.20951185064E+02 -0.34496974141E+02  0.54390622407E+02  0.41800000000E+01 0.  1.
         -5    1    3    3    0  502 -0.47481244108E+02  0.83861609628E+02  0.52244099851E+02  0.10970030301E+03  0.41800000000E+01 0.  1.
        -11    1    1    2    0    0  0.63005118140E+02 -0.84946578895E+02 -0.38798353498E+02  0.11265379892E+03  0.00000000000E+00 0.  1.
         11    1    1    2    0    0  0.20695927533E+02  0.22036154331E+02  0.41296895788E+01  0.30511765766E+02  0.00000000000E+00 0. -1.
</event>
<event>
 7    1  0.2666594E-009  0.1169818E+03  0.7561462E-02  0.1248161E+00
          1   -1    0    0  501    0  0.00000000000E+00  0.00000000000E+00  0.35722979672E+03  0.35722979672E+03  0.00000000000E+00 0. -1.
         -1   -1    0    0    0  501 -0.00000000000E+00 -0.00000000000E+00 -0.12421010280E+03  0.12421010280E+03  0.00000000000E+00 0.  1.
         25    2    1    2    0    0  0.45837751990E+02  0.60176640362E+02  0.30854957955E+03  0.34142569210E+03  0.12508530142E+03 0.  0.
          5    1    3    3  502    0  0.24431620287E+02 -0.38129719084E+02  0.94636288272E+02  0.10499656664E+03  0.41800000000E+01 0.  1.
         -5    1    3    3    0  502  0.21406131703E+02  0.98306359446E+02  0.21391329128E+03  0.23642912546E+03  0.41800000000E+01 0.  1.
        -11    1    1    2    0    0 -0.26406216364E+02 -0.20333087555E+01 -0.74102587719E+02  0.78693177047E+02  0.00000000000E+00 0.  1.
         11    1    1    2    0    0 -0.19431535626E+02 -0.58143331607E+02 -0.14272979171E+01  0.61321030377E+02  0.00000000000E+00 0. -1.
</event>
<event>
 7    1  0.2666594E-009  0.9887706E+02  0.7561462E-02  0.1282675E+00
          1   -1    0    0  501    0  0.00000000000E+00  0.00000000000E+00  0.11343783449E+03  0.11343783449E+03  0.00000000000E+00 0. -1.
         -1   -1    0    0    0  501 -0.00000000000E+00 -0.00000000000E+00 -0.14325689793E+03  0.14325689793E+03  0.00000000000E+00 0.  1.
         25    2    1    2    0    0  0.11487637943E+02  0.35241277032E+02  0.37243695207E+02  0.13566509116E+03  0.12507601966E+03 0.  0.
          5    1    3    3  502    0  0.48612693656E+02 -0.32234262870E+01  0.60010838640E+02  0.77410319827E+02  0.41800000000E+01 0.  1.
         -5    1    3    3    0  502 -0.37125055713E+02  0.38464703319E+02 -0.22767143433E+02  0.58254771334E+02  0.41800000000E+01 0.  1.
        -11    1    1    2    0    0  0.37234193374E+02 -0.26580913267E+02 -0.12619169289E+02  0.47457070494E+02  0.00000000000E+00 0. -1.
         11    1    1    2    0    0 -0.48721831316E+02 -0.86603637648E+01 -0.54443589355E+02  0.73572570767E+02  0.00000000000E+00 0.  1.
</event>
<event>
 7    1  0.2666594E-009  0.9814892E+02  0.7561462E-02  0.1284237E+00
         -2   -1    0    0    0  501 -0.00000000000E+00  0.00000000000E+00  0.75316286074E+02  0.75316286074E+02  0.00000000000E+00 0.  1.
          2   -1    0    0  501    0  0.00000000000E+00 -0.00000000000E+00 -0.17515769902E+03  0.17515769902E+03  0.00000000000E+00 0. -1.
         25    2    1    2    0    0  0.45050375032E+01 -0.29067389016E+02 -0.31151226444E+02  0.13222360211E+03  0.12508986201E+03 0.  0.
          5    1    3    3  502    0 -0.10270670992E+02 -0.72506434351E+02 -0.42500842630E+02  0.84773012977E+02  0.41800000000E+01 0.  1.
         -5    1    3    3    0  502  0.14775708495E+02  0.43439045335E+02  0.11349616186E+02  0.47450589130E+02  0.41800000000E+01 0.  1.
        -11    1    1    2    0    0  0.43012032978E+01  0.52068501461E+02 -0.81314618190E+01  0.52874850974E+02  0.00000000000E+00 0.  1.
         11    1    1    2    0    0 -0.88062408011E+01 -0.23001112446E+02 -0.60558724684E+02  0.65375532014E+02  0.00000000000E+00 0. -1.
</event>
<event>
 7    1  0.2666594E-009  0.9182313E+02  0.7561462E-02  0.1298496E+00
         -2   -1    0    0    0  501 -0.00000000000E+00  0.00000000000E+00  0.17896340574E+02  0.17896340574E+02  0.00000000000E+00 0.  1.
          2   -1    0    0  501    0  0.00000000000E+00 -0.00000000000E+00 -0.96373396577E+03  0.96373396577E+03  0.00000000000E+00 0. -1.
         25    2    1    2    0    0  0.39302523610E+02  0.10850000718E+02 -0.74084618366E+03  0.75243848230E+03  0.12509272934E+03 0.  0.
          5    1    3    3  502    0  0.57078671718E+02 -0.13239136726E+02 -0.15414026060E+03  0.16495436291E+03  0.41800000000E+01 0. -1.
         -5    1    3    3    0  502 -0.17776148108E+02  0.24089137443E+02 -0.58670592306E+03  0.58748411939E+03  0.41800000000E+01 0. -1.
        -11    1    1    2    0    0 -0.48861007201E+02  0.26870635186E+02 -0.74725293133E+02  0.93237859766E+02  0.00000000000E+00 0.  1.
         11    1    1    2    0    0  0.95584835908E+01 -0.37720635904E+02 -0.13026614840E+03  0.13595396427E+03  0.00000000000E+00 0. -1.
</event>
<event>
 7    1  0.2666594E-009  0.1354701E+03  0.7561462E-02  0.1219558E+00
          1   -1    0    0  501    0  0.00000000000E+00  0.00000000000E+00  0.44006706713E+02  0.44006706713E+02  0.00000000000E+00 0. -1.
         -1   -1    0    0    0  501 -0.00000000000E+00 -0.00000000000E+00 -0.43528315944E+03  0.43528315944E+03  0.00000000000E+00 0.  1.
         25    2    1    2    0    0 -0.83865876459E+02 -0.18614457810E+02 -0.21371728040E+03  0.26211092507E+03  0.12508828014E+03 0.  0.
          5    1    3    3  502    0 -0.10599934225E+03  0.13438027974E+02 -0.18447459069E+03  0.21322473629E+03  0.41800000000E+01 0. -1.
         -5    1    3    3    0  502  0.22133465793E+02 -0.32052485784E+02 -0.29242689705E+02  0.48886188788E+02  0.41800000000E+01 0. -1.
        -11    1    1    2    0    0  0.97668828051E+02  0.34690349167E+02 -0.15208128791E+03  0.18404167580E+03  0.00000000000E+00 0. -1.
         11    1    1    2    0    0 -0.13802951593E+02 -0.16075891358E+02 -0.25477884414E+02  0.33137265274E+02  0.00000000000E+00 0.  1.
</event>
<event>
 7    1  0.2666594E-009  0.6390597E+02  0.7561462E-02  0.1382135E+00
          2   -1    0    0  501    0  0.00000000000E+00  0.00000000000E+00  0.37346014683E+03  0.37346014683E+03  0.00000000000E+00 0.  1.
         -2   -1    0    0    0  501 -0.00000000000E+00 -0.00000000000E+00 -0.40439051758E+02  0.40439051758E+02  0.00000000000E+00 0. -1.
         25    2    1    2    0    0  0.16854681445E+02  0.47390265061E+02  0.13172323153E+03  0.18849007190E+03  0.12509028728E+03 0.  0.
          5    1    3    3  502    0  0.31956910007E+00  0.20774700477E+02  0.15032511232E+03  0.15181173242E+03  0.41800000000E+01 0. -1.
         -5    1    3    3    0  502  0.16535112345E+02  0.26615564584E+02 -0.18601880792E+02  0.36678339485E+02  0.41800000000E+01 0. -1.
        -11    1    1    2    0    0 -0.23939530093E+02 -0.57716418039E+02  0.20333721529E+03  0.21272120048E+03  0.00000000000E+00 0.  1.
         11    1    1    2    0    0  0.70848486483E+01  0.10326152978E+02 -0.20393517538E+01  0.12687926201E+02  0.00000000000E+00 0. -1.
</event>
<event>
 7    1  0.2666594E-009  0.8730672E+02  0.7561462E-02  0.1309508E+00
          1   -1    0    0  501    0  0.00000000000E+00  0.00000000000E+00  0.32314423284E+03  0.32314423284E+03  0.00000000000E+00 0. -1.
         -1   -1    0    0    0  501 -0.00000000000E+00 -0.00000000000E+00 -0.37839978631E+02  0.37839978631E+02  0.00000000000E+00 0.  1.
         25    2    1    2    0    0 -0.18058233616E+02 -0.72720355200E+01  0.19963992310E+03  0.23638986643E+03  0.12508032521E+03 0.  0.
          5    1    3    3  502    0  0.30337913480E+02 -0.17009432972E+02  0.48103101268E+01  0.35359882464E+02  0.41800000000E+01 0. -1.
         -5    1    3    3    0  502 -0.48396147096E+02  0.97373974520E+01  0.19482961297E+03  0.20102998396E+03  0.41800000000E+01 0. -1.
        -11    1    1    2    0    0 -0.60771661902E+01 -0.38135263524E+02  0.30768751642E+02  0.49375564306E+02  0.00000000000E+00 0.  1.
         11    1    1    2    0    0  0.24135399806E+02  0.45407299044E+02  0.54895579472E+02  0.75218780739E+02  0.00000000000E+00 0. -1.
</event>
<event>
 7    1  0.2666594E-009  0.8940548E+02  0.7561462E-02  0.1304298E+00
          2   -1    0    0  501    0  0.00000000000E+00  0.00000000000E+00  0.48311673992E+02  0.48311673992E+02  0.00000000000E+00 0. -1.
         -2   -1    0    0    0  501 -0.00000000000E+00 -0.00000000000E+00 -0.39887989023E+03  0.39887989023E+03  0.00000000000E+00 0.  1.
         25    2    1    2    0    0 -0.18140361300E+02  0.52395999520E+02 -0.83103276257E+02  0.16008653291E+03  0.12508848876E+03 0.  0.
          5    1    3    3  502    0 -0.30679234638E+02  0.66554009702E+02  0.13746076583E+01  0.73416711937E+02  0.41800000000E+01 0.  1.
         -5    1    3    3    0  502  0.12538873338E+02 -0.14158010183E+02 -0.84477883915E+02  0.86669820974E+02  0.41800000000E+01 0.  1.
        -11    1    1    2    0    0  0.38292331542E+02 -0.10749440870E+02 -0.45780272805E+02  0.60643932195E+02  0.00000000000E+00 0. -1.
         11    1    1    2    0    0 -0.20151970242E+02 -0.41646558650E+02 -0.22168466718E+03  0.22646109912E+03  0.00000000000E+00 0.  1.
</event>
<event>
 7    1  0.2666594E-009  0.1128744E+03  0.7561462E-02  0.1255338E+00
         -1   -1    0    0    0  501 -0.00000000000E+00  0.00000000000E+00  0.26076482604E+03  0.26076482604E+03  0.00000000000E+00 0.  1.
          1   -1    0    0  501    0  0.00000000000E+00 -0.00000000000E+00 -0.74940688749E+02  0.74940688749E+02  0.00000000000E+00 0. -1.
         25    2    1    2    0    0 -0.33464003243E+02 -0.71450729621E+02  0.15384207994E+03  0.21340127095E+03  0.12509064956E+03 0.  0.
          5    1    3    3  502    0  0.58937105309E+01 -0.73645980964E+02  0.24233771333E+02  0.77866645035E+02  0.41800000000E+01 0.  1.
         -5    1    3    3    0  502 -0.39357713774E+02  0.21952513431E+01  0.12960830861E+03  0.13553462592E+03  0.41800000000E+01 0.  1.
        -11    1    1    2    0    0  0.59024444874E+02  0.38764731489E+02  0.11766590288E+01  0.70625590451E+02  0.00000000000E+00 0. -1.
         11    1    1    2    0    0 -0.25560441631E+02  0.32685998132E+02  0.30805398322E+02  0.51678653388E+02  0.00000000000E+00 0.  1.
</event>
<event>
 7    1  0.2666594E-009  0.2073864E+03  0.7561462E-02  0.1143653E+00
          2   -1    0    0  501    0  0.00000000000E+00  0.00000000000E+00  0.59711668815E+03  0.59711668815E+03  0.00000000000E+00 0.  1.
         -2   -1    0    0    0  501 -0.00000000000E+00 -0.00000000000E+00 -0.10895996106E+03  0.10895996106E+03  0.00000000000E+00 0. -1.
         25    2    1    2    0    0  0.17890232079E+03  0.61799963128E+02  0.43119066113E+03  0.48723616663E+03  0.12509364491E+03 0.  0.
          5    1    3    3  502    0  0.12991677799E+03 -0.26038129678E+01  0.17156189456E+03  0.21525822890E+03  0.41800000000E+01 0. -1.
         -5    1    3    3    0  502  0.48985542802E+02  0.64403776096E+02  0.25962876657E+03  0.27197793773E+03  0.41800000000E+01 0. -1.
        -11    1    1    2    0    0 -0.15561099408E+03 -0.79256030237E+02  0.68425877892E+02  0.18755905889E+03  0.00000000000E+00 0.  1.
         11    1    1    2    0    0 -0.23291326705E+02  0.17456067108E+02 -0.11459811934E+02  0.31281423691E+02  0.00000000000E+00 0. -1.
</event>
<event>
 7    1  0.2666594E-009  0.1046812E+03  0.7561462E-02  0.1270749E+00
         -2   -1    0    0    0  501 -0.00000000000E+00  0.00000000000E+00  0.62652104857E+02  0.62652104857E+02  0.00000000000E+00 0.  1.
          2   -1    0    0  501    0  0.00000000000E+00 -0.00000000000E+00 -0.21379650005E+03  0.21379650005E+03  0.00000000000E+00 0. -1.
         25    2    1    2    0    0 -0.13661217083E+02 -0.32683161868E+02 -0.10973706635E+03  0.17014382683E+03  0.12510747443E+03 0.  0.
          5    1    3    3  502    0  0.30816659799E+02  0.31946311601E+02 -0.14938254491E+02  0.47019753224E+02  0.41800000000E+01 0. -1.
         -5    1    3    3    0  502 -0.44477876882E+02 -0.64629473469E+02 -0.94798811857E+02  0.12312407361E+03  0.41800000000E+01 0. -1.
        -11    1    1    2    0    0  0.23464074688E+02  0.56109133400E+02 -0.50785986096E+02  0.79233919729E+02  0.00000000000E+00 0. -1.
         11    1    1    2    0    0 -0.98028576050E+01 -0.23425971532E+02  0.93786572539E+01  0.27070858341E+02  0.00000000000E+00 0.  1.
</event>
<event>
 7    1  0.2666594E-009  0.4223895E+03  0.7561462E-02  0.1036291E+00
          1   -1    0    0  501    0  0.00000000000E+00  0.00000000000E+00  0.33901371729E+03  0.33901371729E+03  0.00000000000E+00 0. -1.
         -1   -1    0    0    0  501 -0.00000000000E+00 -0.00000000000E+00 -0.72215467680E+03  0.72215467680E+03  0.00000000000E+00 0.  1.
         25    2    1    2    0    0  0.56813815577E+02  0.41819235359E+03 -0.44434127864E+03  0.62545973827E+03  0.12509219822E+03 0.  0.
          5    1    3    3  502    0  0.15229102702E+02  0.57220295162E+02 -0.11774960616E+02  0.60516194899E+02  0.41800000000E+01 0. -1.
         -5    1    3    3    0  502  0.41584712875E+02  0.36097205843E+03 -0.43256631802E+03  0.56494354337E+03  0.41800000000E+01 0. -1.
        -11    1    1    2    0    0 -0.53905173913E+02 -0.39463608486E+03  0.34210828478E+02  0.39976716728E+03  0.00000000000E+00 0.  1.
         11    1    1    2    0    0 -0.29086416644E+01 -0.23556268732E+02  0.26989490646E+02  0.35941488537E+02  0.00000000000E+00 0. -1.
</event>
<event>
 7    1  0.2666594E-009  0.1260760E+03  0.7561462E-02  0.1233397E+00
         -2   -1    0    0    0  501 -0.00000000000E+00  0.00000000000E+00  0.34107050023E+02  0.34107050023E+02  0.00000000000E+00 0.  1.
          2   -1    0    0  501    0  0.00000000000E+00 -0.00000000000E+00 -0.48006434699E+03  0.48006434699E+03  0.00000000000E+00 0. -1.
         25    2    1    2    0    0 -0.66905337284E+02 -0.19582626865E+02 -0.23829970396E+03  0.27801794842E+03  0.12508967706E+03 0.  0.
          5    1    3    3  502    0 -0.76280395262E+02  0.37111109637E+02 -0.12872540475E+03  0.15421943907E+03  0.41800000000E+01 0.  1.
         -5    1    3    3    0  502  0.93750579785E+01 -0.56693736502E+02 -0.10957429920E+03  0.12379850935E+03  0.41800000000E+01 0.  1.
        -11    1    1    2    0    0  0.12687908604E+02 -0.32213619572E+02 -0.42843132716E+02  0.55083884499E+02  0.00000000000E+00 0.  1.
         11    1    1    2    0    0  0.54217428680E+02  0.51796246437E+02 -0.16481446029E+03  0.18106956409E+03  0.00000000000E+00 0. -1.
</event>
<event>
 7    1  0.2666594E-009  0.1287006E+03  0.7561462E-02  0.1229397E+00
         -1   -1    0    0    0  501 -0.00000000000E+00  0.00000000000E+00  0.45295534792E+02  0.45295534792E+02  0.00000000000E+00 0.  1.
          1   -1    0    0  501    0  0.00000000000E+00 -0.00000000000E+00 -0.41425191480E+03  0.41425191480E+03  0.00000000000E+00 0. -1.
         25    2    1    2    0    0  0.42971777295E+01  0.78912640012E+02 -0.15857941135E+03  0.21688714734E+03  0.12508770717E+03 0.  0.
          5    1    3    3  502    0  0.39981934107E+02  0.97535858682E+02 -0.12961844150E+03  0.16712334236E+03  0.41800000000E+01 0. -1.
         -5    1    3    3    0  502 -0.35684756377E+02 -0.18623218670E+02 -0.28960969847E+02  0.49763804977E+02  0.41800000000E+01 0. -1.
        -11    1    1    2    0    0  0.36221274975E+02 -0.25065193667E+02 -0.40232964297E+02  0.59656819480E+02  0.00000000000E+00 0.  1.
         11    1    1    2    0    0 -0.40518452705E+02 -0.53847446346E+02 -0.17014400436E+03  0.18300348278E+03  0.00000000000E+00 0. -1.
</event>
<event>
 7    1  0.2666594E-009  0.1109877E+03  0.7561462E-02  0.1258752E+00
          1   -1    0    0  501    0  0.00000000000E+00  0.00000000000E+00  0.41802065738E+02  0.41802065738E+02  0.00000000000E+00 0. -1.
         -1   -1    0    0    0  501 -0.00000000000E+00 -0.00000000000E+00 -0.30402346199E+03  0.30402346199E+03  0.00000000000E+00 0.  1.
         25    2    1    2    0    0 -0.21049743254E+02 -0.17593926789E+02 -0.12487854579E+03  0.17887114758E+03  0.12509036049E+03 0.  0.
          5    1    3    3  502    0 -0.46477577561E+02  0.41882603950E+02 -0.53205991815E+02  0.82235440624E+02  0.41800000000E+01 0. -1.
         -5    1    3    3    0  502  0.25427834307E+02 -0.59476530739E+02 -0.71672553975E+02  0.96635706960E+02  0.41800000000E+01 0. -1.
        -11    1    1    2    0    0 -0.80942580801E+01 -0.34133328501E+02 -0.59225913386E+02  0.68835382943E+02  0.00000000000E+00 0.  1.
         11    1    1    2    0    0  0.29144001334E+02  0.51727255290E+02 -0.78116937076E+02  0.98118997201E+02  0.00000000000E+00 0. -1.
</event>
<event>
 7    1  0.2666594E-009  0.8437484E+02  0.7561462E-02  0.1317076E+00
          2   -1    0    0  501    0  0.00000000000E+00  0.00000000000E+00  0.54552335341E+02  0.54552335341E+02  0.00000000000E+00 0. -1.
         -2   -1    0    0    0  501 -0.00000000000E+00 -0.00000000000E+00 -0.40441783097E+03  0.40441783097E+03  0.00000000000E+00 0.  1.
         25    2    1    2    0    0  0.37626260968E+02  0.66925471922E+01 -0.44544659651E+02  0.13817249829E+03  0.12508751687E+03 0.  0.
          5    1    3    3  502    0  0.33953735081E+02 -0.25235802677E+02 -0.79717815663E+02  0.90344365606E+02  0.41800000000E+01 0.  1.
         -5    1    3    3    0  502  0.36725258872E+01  0.31928349870E+02  0.35173156012E+02  0.47828132680E+02  0.41800000000E+01 0.  1.
        -11    1    1    2    0    0 -0.42792923514E+02  0.32851791179E+02 -0.22146980031E+03  0.22794592985E+03  0.00000000000E+00 0.  1.
         11    1    1    2    0    0  0.51666625464E+01 -0.39544338372E+02 -0.83851035670E+02  0.92851738175E+02  0.00000000000E+00 0. -1.
</event>
<event>
 7    1  0.2666594E-009  0.9415849E+02  0.7561462E-02  0.1293083E+00
          2   -1    0    0  501    0  0.00000000000E+00  0.00000000000E+00  0.65043781771E+03  0.65043781771E+03  0.00000000000E+00 0. -1.
         -2   -1    0    0    0  501 -0.00000000000E+00 -0.00000000000E+00 -0.31553510284E+02  0.31553510284E+02  0.00000000000E+00 0.  1.
         25    2    1    2    0    0  0.82696737866E+02 -0.29962672654E+02  0.44282159527E+03  0.46847981737E+03  0.12508341951E+03 0.  0.
          5    1    3    3  502    0  0.54856763780E+02  0.38592681838E+01  0.54033037855E+02  0.77208808197E+02  0.41800000000E+01 0. -1.
         -5    1    3    3    0  502  0.27839974086E+02 -0.33821940838E+02  0.38878855742E+03  0.39127100917E+03  0.41800000000E+01 0. -1.
        -11    1    1    2    0    0 -0.59967882502E+02  0.28470152590E+02  0.44329501097E+02  0.79823562861E+02  0.00000000000E+00 0.  1.
         11    1    1    2    0    0 -0.22728855364E+02  0.14925200641E+01  0.13173321106E+03  0.13368794777E+03  0.00000000000E+00 0. -1.
</event>
<event>
 7    1  0.2666594E-009  0.1325999E+03  0.7561462E-02  0.1223648E+00
         -1   -1    0    0    0  501 -0.00000000000E+00  0.00000000000E+00  0.38978454438E+03  0.38978454438E+03  0.00000000000E+00 0.  1.
          1   -1    0    0  501    0  0.00000000000E+00 -0.00000000000E+00 -0.73849461936E+02  0.73849461936E+02  0.00000000000E+00 0. -1.
         25    2    1    2    0    0  0.81018628855E+02  0.78305127208E+02  0.25650991534E+03  0.30682611349E+03  0.12509682682E+03 0.  0.
          5    1    3    3  502    0  0.99382330849E+02  0.71863814743E+02  0.25916105815E+03  0.28674584917E+03  0.41800000000E+01 0. -1.
         -5    1    3    3    0  502 -0.18363701994E+02  0.64413124652E+01 -0.26511428021E+01  0.20080264325E+02  0.41800000000E+01 0. -1.
        -11    1    1    2    0    0 -0.27173160720E+02 -0.59732363827E+02 -0.10674173639E+02  0.66485140706E+02  0.00000000000E+00 0. -1.
         11    1    1    2    0    0 -0.53845468135E+02 -0.18572763381E+02  0.70099340734E+02  0.90322752115E+02  0.00000000000E+00 0.  1.
</event>
<event>
 7    1  0.2666594E-009  0.2100842E+03  0.7561462E-02  0.1141499E+00
         -1   -1    0    0    0  501 -0.00000000000E+00  0.00000000000E+00  0.28561227703E+03  0.28561227703E+03  0.00000000000E+00 0.  1.
          1   -1    0    0  501    0  0.00000000000E+00 -0.00000000000E+00 -0.17368710930E+03  0.17368710930E+03  0.00000000000E+00 0. -1.
         25    2    1    2    0    0 -0.19416365198E+03 -0.61654585634E+01  0.48651940447E+02  0.23611823982E+03  0.12508906922E+03 0.  0.
          5    1    3    3  502    0 -0.14158564199E+03  0.40683716110E+02  0.68955689254E+02  0.16270838410E+03  0.41800000000E+01 0.  1.
         -5    1    3    3    0  502 -0.52578009988E+02 -0.46849174673E+02 -0.20303748807E+02  0.73409855724E+02  0.41800000000E+01 0.  1.
        -11    1    1    2    0    0  0.42202151294E+02  0.25114438819E+02 -0.14797383023E+02  0.51290536704E+02  0.00000000000E+00 0.  1.
         11    1    1    2    0    0  0.15196150069E+03 -0.18948980255E+02  0.78070610308E+02  0.17189060980E+03  0.00000000000E+00 0. -1.
</event>
<event>
 7    1  0.2666594E-009  0.1517043E+03  0.7561462E-02  0.1198394E+00
         -2   -1    0    0    0  501 -0.00000000000E+00  0.00000000000E+00  0.36397224864E+02  0.36397224864E+02  0.00000000000E+00 0.  1.
          2   -1    0    0  501    0  0.00000000000E+00 -0.00000000000E+00 -0.85540192093E+03  0.85540192093E+03  0.00000000000E+00 0. -1.
         25    2    1    2    0    0 -0.77146008610E+02  0.11352159859E+03 -0.48876173515E+03  0.52285451823E+03  0.12510057350E+03 0.  0.
          5    1    3    3  502    0 -0.46905965359E+02  0.11398751169E+03 -0.21875047810E+03  0.25112261243E+03  0.41800000000E+01 0.  1.
         -5    1    3    3    0  502 -0.30240043251E+02 -0.46591309781E+00 -0.27001125705E+03  0.27173190579E+03  0.41800000000E+01 0.  1.
        -11    1    1    2    0    0 -0.44817830864E+01 -0.38243791534E+02 -0.16790416890E+03  0.17226283379E+03  0.00000000000E+00 0. -1.
         11    1    1    2    0    0  0.81627791696E+02 -0.75277807054E+02 -0.16233879201E+03  0.19668179378E+03  0.00000000000E+00 0.  1.
</event>
<event>
 7    1  0.2666594E-009  0.1964800E+03  0.7561462E-02  0.1152743E+00
          2   -1    0    0  501    0  0.00000000000E+00  0.00000000000E+00  0.21875365695E+04  0.21875365695E+04  0.00000000000E+00 0.  1.
         -2   -1    0    0    0  501 -0.00000000000E+00 -0.00000000000E+00 -0.38377359666E+02  0.38377359666E+02  0.00000000000E+00 0. -1.
         25    2    1    2    0    0  0.18072983770E+03 -0.28144306893E+02  0.18523771722E+04  0.18655828058E+04  0.12507054388E+03 0.  0.
          5    1    3    3  502    0  0.61280080156E+02 -0.35974909397E+02  0.12127429711E+04  0.12148302057E+04  0.41800000000E+01 0.  1.
         -5    1    3    3    0  502  0.11944975755E+03  0.78306025038E+01  0.63963420110E+03  0.65075260010E+03  0.41800000000E+01 0.  1.
        -11    1    1    2    0    0 -0.15339225014E+03 -0.11522075462E+02  0.20089967742E+03  0.25302691757E+03  0.00000000000E+00 0. -1.
         11    1    1    2    0    0 -0.27337587570E+02  0.39666382355E+02  0.95882360191E+02  0.10730420578E+03  0.00000000000E+00 0.  1.
</event>
<event>
 7    1  0.2666594E-009  0.1077085E+03  0.7561462E-02  0.1264873E+00
          1   -1    0    0  501    0  0.00000000000E+00  0.00000000000E+00  0.52645827057E+03  0.52645827057E+03  0.00000000000E+00 0. -1.
         -1   -1    0    0    0  501 -0.00000000000E+00 -0.00000000000E+00 -0.38906129385E+02  0.38906129385E+02  0.00000000000E+00 0.  1.
         25    2    1    2    0    0  0.69032383124E+02  0.11825824835E+02  0.28112431491E+03  0.31556907253E+03  0.12509052342E+03 0.  0.
          5    1    3    3  502    0  0.69892450106E+01 -0.21315104961E+02  0.22317134772E+03  0.22433480802E+03  0.41800000000E+01 0.  1.
         -5    1    3    3    0  502  0.62043138113E+02  0.33140929796E+02  0.57952967192E+02  0.91234264512E+02  0.41800000000E+01 0.  1.
        -11    1    1    2    0    0 -0.48896857124E+02 -0.55545730705E+02  0.58798301678E+02  0.94517041407E+02  0.00000000000E+00 0.  1.
         11    1    1    2    0    0 -0.20135525999E+02  0.43719905871E+02  0.14762952460E+03  0.15527828602E+03  0.00000000000E+00 0. -1.
</event>
<event>
 7    1  0.2666594E-009  0.8001996E+02  0.7561462E-02  0.1328995E+00
         -2   -1    0    0    0  501 -0.00000000000E+00  0.00000000000E+00  0.38699142980E+02  0.38699142980E+02  0.00000000000E+00 0. -1.
          2   -1    0    0  501    0  0.00000000000E+00 -0.00000000000E+00 -0.44940297626E+03  0.44940297626E+03  0.00000000000E+00 0.  1.
         25    2    1    2    0    0 -0.60826373651E+02 -0.25596704118E+02 -0.16401056521E+03  0.21656846962E+03  0.12508955807E+03 0.  0.
          5    1    3    3  502    0 -0.61128298304E+02 -0.24408173579E+02 -0.18433696053E+03  0.19578052816E+03  0.41800000000E+01 0. -1.
         -5    1    3    3    0  502  0.30192465272E+00 -0.11885305393E+01  0.20326395317E+02  0.20787941454E+02  0.41800000000E+01 0. -1.
        -11    1    1    2    0    0  0.23668347792E+02  0.42702943445E+02 -0.21304021413E+03  0.21856318286E+03  0.00000000000E+00 0.  1.
         11    1    1    2    0    0  0.37158025859E+02 -0.17106239326E+02 -0.33653053940E+02  0.52970466763E+02  0.00000000000E+00 0. -1.
</event>
<event>
 7    1  0.2666594E-009  0.7899392E+02  0.7561462E-02  0.1331931E+00
         -1   -1    0    0    0  501 -0.00000000000E+00  0.00000000000E+00  0.39302896390E+02  0.39302896390E+02  0.00000000000E+00 0.  1.
          1   -1    0    0  501    0  0.00000000000E+00 -0.00000000000E+00 -0.55310258346E+03  0.55310258346E+03  0.00000000000E+00 0. -1.
         25    2    1    2    0    0  0.44390750529E+02 -0.17413783502E+02 -0.45242331716E+03  0.47181326207E+03  0.12508843978E+03 0.  0.
          5    1    3    3  502    0  0.37740538572E+02  0.37802917002E+02 -0.35924465780E+03  0.36321839896E+03  0.41800000000E+01 0.  1.
         -5    1    3    3    0  502  0.66502119570E+01 -0.55216700503E+02 -0.93178659361E+02  0.10859486311E+03  0.41800000000E+01 0.  1.
        -11    1    1    2    0    0 -0.20743912035E+02  0.13276103438E+02  0.22493401164E+02  0.33354428566E+02  0.00000000000E+00 0.  1.
         11    1    1    2    0    0 -0.23646838494E+02  0.41376800631E+01 -0.83869771078E+02  0.87237789218E+02  0.00000000000E+00 0. -1.
</event>
<event>
 7    1  0.2666594E-009  0.1493028E+03  0.7561462E-02  0.1201332E+00
          1   -1    0    0  501    0  0.00000000000E+00  0.00000000000E+00  0.20158595095E+03  0.20158595095E+03  0.00000000000E+00 0. -1.
         -1   -1    0    0    0  501 -0.00000000000E+00 -0.00000000000E+00 -0.15012445878E+03  0.15012445878E+03  0.00000000000E+00 0.  1.
         25    2    1    2    0    0 -0.56117546791E+02 -0.10513182478E+03 -0.38564262860E+02  0.17701589400E+03  0.12508215189E+03 0.  0.
          5    1    3    3  502    0 -0.61525977304E+02 -0.12293868376E+02 -0.53716668597E+02  0.82701499189E+02  0.41800000000E+01 0.  1.
         -5    1    3    3    0  502  0.54084305129E+01 -0.92837956400E+02  0.15152405737E+02  0.94314394812E+02  0.41800000000E+01 0.  1.
        -11    1    1    2    0    0  0.51054949263E+02  0.16206097733E+02  0.90626397896E+01  0.54326576258E+02  0.00000000000E+00 0.  1.
         11    1    1    2    0    0  0.50625975285E+01  0.88925727042E+02  0.80963115241E+02  0.12036793947E+03  0.00000000000E+00 0. -1.
</event>
<event>
 7    1  0.2708823E-009  0.1254917E+03  0.7561462E-02  0.1234303E+00
          2   -1    0    0  501    0  0.00000000000E+00  0.00000000000E+00  0.94978541588E+03  0.94978541588E+03  0.00000000000E+00 0. -1.
         -2   -1    0    0    0  501 -0.00000000000E+00 -0.00000000000E+00 -0.24394188727E+02  0.24394188727E+02  0.00000000000E+00 0.  1.
         25    2    1    2    0    0  0.21472324692E+02  0.92571397625E+02  0.65400122528E+03  0.67260332895E+03  0.12508841300E+03 0.  0.
          5    1    3    3  502    0  0.68276740120E+02  0.76178893204E+02  0.51191988820E+03  0.52205783333E+03  0.41800000000E+01 0.  1.
         -5    1    3    3    0  502 -0.46804415428E+02  0.16392504421E+02  0.14208133708E+03  0.15054549562E+03  0.41800000000E+01 0.  1.
        -11    1    1    2    0    0 -0.20534926619E+02 -0.30589413132E+02  0.18551967468E+02  0.41250101866E+02  0.00000000000E+00 0.  1.
         11    1    1    2    0    0 -0.93739807321E+00 -0.61981984492E+02  0.25283803441E+03  0.26032617379E+03  0.00000000000E+00 0. -1.
</event>
<event>
 7    1  0.2666594E-009  0.1081907E+03  0.7561462E-02  0.1263958E+00
          1   -1    0    0  501    0  0.00000000000E+00  0.00000000000E+00  0.42445940600E+03  0.42445940600E+03  0.00000000000E+00 0.  1.
         -1   -1    0    0    0  501 -0.00000000000E+00 -0.00000000000E+00 -0.46525862134E+02  0.46525862134E+02  0.00000000000E+00 0. -1.
         25    2    1    2    0    0 -0.48412238355E+02  0.75975693584E+02  0.20114337739E+03  0.25342460627E+03  0.12509724999E+03 0.  0.
          5    1    3    3  502    0 -0.26024852283E+02  0.35094937129E+02 -0.29931424866E+01  0.43992940916E+02  0.41800000000E+01 0.  1.
         -5    1    3    3    0  502 -0.22387386072E+02  0.40880756455E+02  0.20413651988E+03  0.20943166535E+03  0.41800000000E+01 0.  1.
        -11    1    1    2    0    0  0.72725187126E+02 -0.69358628975E+02  0.12890368922E+03  0.16344948257E+03  0.00000000000E+00 0. -1.
         11    1    1    2    0    0 -0.24312948771E+02 -0.66170646085E+01  0.47886477248E+02  0.54111179300E+02  0.00000000000E+00 0.  1.
</event>
<event>
 7    1  0.2666594E-009  0.2043237E+03  0.7561462E-02  0.1146142E+00
         -2   -1    0    0    0  501 -0.00000000000E+00  0.00000000000E+00  0.53082192942E+03  0.53082192942E+03  0.00000000000E+00 0.  1.
          2   -1    0    0  501    0  0.00000000000E+00 -0.00000000000E+00 -0.10326231251E+03  0.10326231251E+03  0.00000000000E+00 0. -1.
         25    2    1    2    0    0  0.28788789873E+02 -0.18582683824E+03  0.10387589934E+03  0.24858277232E+03  0.12507111576E+03 0.  0.
          5    1    3    3  502    0  0.52891998594E+02 -0.31944515989E+02  0.61111096994E+02  0.87006058368E+02  0.41800000000E+01 0.  1.
         -5    1    3    3    0  502 -0.24103208721E+02 -0.15388232225E+03  0.42764802346E+02  0.16157671395E+03  0.41800000000E+01 0.  1.
        -11    1    1    2    0    0 -0.31814646988E+01  0.12320554860E+03  0.12468674197E+03  0.17531831777E+03  0.00000000000E+00 0. -1.
         11    1    1    2    0    0 -0.25607325174E+02  0.62621289633E+02  0.19899697560E+03  0.21018315184E+03  0.00000000000E+00 0.  1.
</event>
<event>
 7    1  0.2666594E-009  0.1530624E+03  0.7561462E-02  0.1196760E+00
          1   -1    0    0  501    0  0.00000000000E+00  0.00000000000E+00  0.12367984896E+03  0.12367984896E+03  0.00000000000E+00 0. -1.
         -1   -1    0    0    0  501 -0.00000000000E+00 -0.00000000000E+00 -0.22998468995E+03  0.22998468995E+03  0.00000000000E+00 0.  1.
         25    2    1    2    0    0 -0.12875645241E+03  0.39525300777E+00 -0.47948872165E+02  0.18580999339E+03  0.12509148269E+03 0.  0.
          5    1    3    3  502    0 -0.13531455654E+03  0.15939612739E+02 -0.73530973482E+02  0.15488181600E+03  0.41800000000E+01 0. -1.
         -5    1    3    3    0  502  0.65581041288E+01 -0.15544359731E+02  0.25582101318E+02  0.30928177396E+02  0.41800000000E+01 0. -1.
        -11    1    1    2    0    0  0.36645224884E+02 -0.38133554792E+02 -0.40754662525E+02  0.66768128814E+02  0.00000000000E+00 0.  1.
         11    1    1    2    0    0  0.92111227525E+02  0.37738301784E+02 -0.17601306297E+02  0.10108641670E+03  0.00000000000E+00 0. -1.
</event>
<event>
 7    1  0.2666594E-009  0.9307940E+02  0.7561462E-02  0.1295561E+00
          2   -1    0    0  501    0  0.00000000000E+00  0.00000000000E+00  0.60295948472E+03  0.60295948472E+03  0.00000000000E+00 0. -1.
         -2   -1    0    0    0  501 -0.00000000000E+00 -0.00000000000E+00 -0.28540567625E+02  0.28540567625E+02  0.00000000000E+00 0.  1.
         25    2    1    2    0    0 -0.70928164926E+02 -0.10186301404E+02  0.28456359012E+03  0.31899752762E+03  0.12509364687E+03 0.  0.
          5    1    3    3  502    0 -0.92662528856E+01  0.14111682404E+02 -0.78907973558E+01  0.19098170220E+02  0.41800000000E+01 0.  1.
         -5    1    3    3    0  502 -0.61661912040E+02 -0.24297983809E+02  0.29245438748E+03  0.29989935740E+03  0.41800000000E+01 0.  1.
        -11    1    1    2    0    0 -0.12058986495E+02 -0.11416508988E+02  0.90846208435E+01  0.18928448659E+02  0.00000000000E+00 0.  1.
         11    1    1    2    0    0  0.82987151421E+02  0.21602810393E+02  0.28077070613E+03  0.29357407606E+03  0.00000000000E+00 0. -1.
</event>
<event>
 7    1  0.2666594E-009  0.7934972E+02  0.7561462E-02  0.1330907E+00
          1   -1    0    0  501    0  0.00000000000E+00  0.00000000000E+00  0.16636302100E+03  0.16636302100E+03  0.00000000000E+00 0. -1.
         -1   -1    0    0    0  501 -0.00000000000E+00 -0.00000000000E+00 -0.79749338415E+02  0.79749338415E+02  0.00000000000E+00 0.  1.
         25    2    1    2    0    0  0.23742654193E+01 -0.87840417641E+01  0.71561262174E+02  0.14440056176E+03  0.12509081288E+03 0.  0.
          5    1    3    3  502    0  0.26120502899E+00 -0.64402569389E+02  0.58434906998E+02  0.87062448437E+02  0.41800000000E+01 0.  1.
         -5    1    3    3    0  502  0.21130603903E+01  0.55618527625E+02  0.13126355176E+02  0.57338113324E+02  0.41800000000E+01 0.  1.
        -11    1    1    2    0    0 -0.13695078907E+02 -0.96214770718E+01  0.54348043607E+02  0.56866843162E+02  0.00000000000E+00 0. -1.
         11    1    1    2    0    0  0.11320813488E+02  0.18405518836E+02 -0.39295623192E+02  0.44844954496E+02  0.00000000000E+00 0.  1.
</event>
<event>
 7    1  0.2666594E-009  0.1375782E+03  0.7561462E-02  0.1216625E+00
         -1   -1    0    0    0  501 -0.00000000000E+00  0.00000000000E+00  0.64386848357E+03  0.64386848357E+03  0.00000000000E+00 0.  1.
          1   -1    0    0  501    0  0.00000000000E+00 -0.00000000000E+00 -0.32507913339E+02  0.32507913339E+02  0.00000000000E+00 0. -1.
         25    2    1    2    0    0  0.62412870591E+02  0.71809244078E+02  0.35738298768E+03  0.39041255171E+03  0.12508967464E+03 0.  0.
          5    1    3    3  502    0  0.21257673972E+02 -0.31373866024E+02  0.45802887313E+02  0.59595176467E+02  0.41800000000E+01 0.  1.
         -5    1    3    3    0  502  0.41155196620E+02  0.10318311010E+03  0.31158010036E+03  0.33081737524E+03  0.41800000000E+01 0.  1.
        -11    1    1    2    0    0 -0.52744671127E+02  0.66268922550E+00  0.67506593923E+02  0.85671347091E+02  0.00000000000E+00 0.  1.
         11    1    1    2    0    0 -0.96681994642E+01 -0.72471933303E+02  0.18647098863E+03  0.20029249811E+03  0.00000000000E+00 0. -1.
</event>
<event>
 7    1  0.2666594E-009  0.2301134E+03  0.7561462E-02  0.1126560E+00
         -2   -1    0    0    0  501 -0.00000000000E+00  0.00000000000E+00  0.19658289241E+03  0.19658289241E+03  0.00000000000E+00 0. -1.
          2   -1    0    0  501    0  0.00000000000E+00 -0.00000000000E+00 -0.33386008453E+03  0.33386008453E+03  0.00000000000E+00 0.  1.
         25    2    1    2    0    0  0.52750092800E+01 -0.21210684612E+03  0.24615911748E+02  0.24752844251E+03  0.12508895574E+03 0.  0.
          5    1    3    3  502    0  0.21754146295E+01 -0.22864719390E+03  0.19905514114E+02  0.22956039205E+03  0.41800000000E+01 0.  1.
         -5    1    3    3    0  502  0.30995946505E+01  0.16540347776E+02  0.47103976345E+01  0.17968050463E+02  0.41800000000E+01 0.  1.
        -11    1    1    2    0    0 -0.17241954848E+02  0.10338085836E+03 -0.25111173524E+02  0.10777503383E+03  0.00000000000E+00 0.  1.
         11    1    1    2    0    0  0.11966945568E+02  0.10872598776E+03 -0.13678193035E+03  0.17513950060E+03  0.00000000000E+00 0. -1.
</event>
<event>
 7    1  0.2666594E-009  0.2398905E+03  0.7561462E-02  0.1119866E+00
         -1   -1    0    0    0  501 -0.00000000000E+00  0.00000000000E+00  0.12277106282E+03  0.12277106282E+03  0.00000000000E+00 0.  1.
          1   -1    0    0  501    0  0.00000000000E+00 -0.00000000000E+00 -0.56153497690E+03  0.56153497690E+03  0.00000000000E+00 0. -1.
         25    2    1    2    0    0  0.21480988401E+03 -0.41869040394E+02 -0.10355031482E+03  0.27251881537E+03  0.12509010441E+03 0.  0.
          5    1    3    3  502    0  0.13435994020E+03 -0.80595237390E+02 -0.36894448129E+02  0.16101819314E+03  0.41800000000E+01 0.  1.
         -5    1    3    3    0  502  0.80449943811E+02  0.38726196996E+02 -0.66655866695E+02  0.11150062223E+03  0.41800000000E+01 0.  1.
        -11    1    1    2    0    0 -0.72776298295E+02 -0.24632824370E+02 -0.15421774241E+03  0.17229706237E+03  0.00000000000E+00 0.  1.
         11    1    1    2    0    0 -0.14203358571E+03  0.66501864764E+02 -0.18099585685E+03  0.23949016198E+03  0.00000000000E+00 0. -1.
</event>
<event>
 7    1  0.2666594E-009  0.1390269E+03  0.7561462E-02  0.1214644E+00
         -3   -1    0    0    0  501 -0.00000000000E+00  0.00000000000E+00  0.25597818498E+02  0.25597818498E+02  0.00000000000E+00 0.  1.
          3   -1    0    0  501    0  0.00000000000E+00 -0.00000000000E+00 -0.81931564914E+03  0.81931564914E+03  0.00000000000E+00 0. -1.
         25    2    1    2    0    0 -0.27559892946E+02 -0.85302603375E+02 -0.33418783478E+03  0.36791902452E+03  0.12508724095E+03 0.  0.
          5    1    3    3  502    0 -0.31669313786E+02  0.24834781991E+02 -0.59887070361E+02  0.72274791101E+02  0.41800000000E+01 0.  1.
         -5    1    3    3    0  502  0.41094208397E+01 -0.11013738537E+03 -0.27430076442E+03  0.29564423342E+03  0.41800000000E+01 0.  1.
        -11    1    1    2    0    0  0.41740922779E+01  0.99732017647E+02 -0.37802497517E+03  0.39098181574E+03  0.00000000000E+00 0. -1.
         11    1    1    2    0    0  0.23385800668E+02 -0.14429414272E+02 -0.81505020690E+02  0.86012627368E+02  0.00000000000E+00 0.  1.
</event>
<event>
 7    1  0.2666594E-009  0.1660038E+03  0.7561462E-02  0.1182080E+00
          2   -1    0    0  501    0  0.00000000000E+00  0.00000000000E+00  0.65655833455E+02  0.65655833455E+02  0.00000000000E+00 0. -1.
         -2   -1    0    0    0  501 -0.00000000000E+00 -0.00000000000E+00 -0.48268025292E+03  0.48268025292E+03  0.00000000000E+00 0.  1.
         25    2    1    2    0    0 -0.80638007866E+02  0.10925381220E+03 -0.16963716353E+03  0.25072322622E+03  0.12508591097E+03 0.  0.
          5    1    3    3  502    0 -0.14066291054E+02  0.11282299511E+03 -0.13118275612E+03  0.17364698867E+03  0.41800000000E+01 0.  1.
         -5    1    3    3    0  502 -0.66571716813E+02 -0.35691829129E+01 -0.38454407415E+02  0.77076237555E+02  0.41800000000E+01 0.  1.
        -11    1    1    2    0    0 -0.64481470946E+01 -0.39043462622E+02 -0.20315856021E+02  0.44482632345E+02  0.00000000000E+00 0. -1.
         11    1    1    2    0    0  0.87086154961E+02 -0.70210349576E+02 -0.22707139991E+03  0.25313022780E+03  0.00000000000E+00 0.  1.
</event>
<event>
 7    1  0.2666594E-009  0.3416622E+03  0.7561462E-02  0.1066090E+00
          1   -1    0    0  501    0  0.00000000000E+00  0.00000000000E+00  0.98905393364E+03  0.98905393364E+03  0.00000000000E+00 0. -1.
         -1   -1    0    0    0  501 -0.00000000000E+00 -0.00000000000E+00 -0.13377949068E+03  0.13377949068E+03  0.00000000000E+00 0.  1.
         25    2    1    2    0    0  0.25334403480E+03  0.21454043641E+03  0.59253303671E+03  0.69061714075E+03  0.12508331901E+03 0.  0.
          5    1    3    3  502    0  0.17905123991E+03  0.21111258057E+03  0.50294183043E+03  0.57410436803E+03  0.41800000000E+01 0.  1.
         -5    1    3    3    0  502  0.74292794883E+02  0.34278558397E+01  0.89591206274E+02  0.11651277273E+03  0.41800000000E+01 0.  1.
        -11    1    1    2    0    0 -0.96942656510E+02 -0.80810452169E+02  0.15517552937E+03  0.20001913095E+03  0.00000000000E+00 0.  1.
         11    1    1    2    0    0 -0.15640137829E+03 -0.13372998424E+03  0.10756587689E+03  0.23219715262E+03  0.00000000000E+00 0. -1.
</event>
<event>
 7    1  0.2666594E-009  0.1042386E+03  0.7561462E-02  0.1271627E+00
          1   -1    0    0  501    0  0.00000000000E+00  0.00000000000E+00  0.70552057718E+03  0.70552057718E+03  0.00000000000E+00 0. -1.
         -1   -1    0    0    0  501 -0.00000000000E+00 -0.00000000000E+00 -0.20388323998E+02  0.20388323998E+02  0.00000000000E+00 0.  1.
         25    2    1    2    0    0  0.50674998432E+01 -0.24732051607E+02  0.52213173750E+03  0.53750302843E+03  0.12510235940E+03 0.  0.
          5    1    3    3  502    0 -0.52804912809E+02 -0.74499403499E+01  0.12768238644E+03  0.13843455001E+03  0.41800000000E+01 0. -1.
         -5    1    3    3    0  502  0.57872412652E+02 -0.17282111257E+02  0.39444935106E+03  0.39906847842E+03  0.41800000000E+01 0. -1.
        -11    1    1    2    0    0  0.38296302224E+02 -0.91951692643E+01  0.70769893832E+02  0.80990961068E+02  0.00000000000E+00 0.  1.
         11    1    1    2    0    0 -0.43363802067E+02  0.33927220871E+02  0.92230621847E+02  0.10741491168E+03  0.00000000000E+00 0. -1.
</event>
<event>
 7    1  0.2666594E-009  0.1223506E+03  0.7561462E-02  0.1239269E+00
         -1   -1    0    0    0  501 -0.00000000000E+00  0.00000000000E+00  0.66476932715E+02  0.66476932715E+02  0.00000000000E+00 0.  1.
          1   -1    0    0  501    0  0.00000000000E+00 -0.00000000000E+00 -0.28637900542E+03  0.28637900542E+03  0.00000000000E+00 0. -1.
         25    2    1    2    0    0  0.46744549048E+01 -0.57360971479E+02 -0.20065580269E+03  0.24335525281E+03  0.12508755469E+03 0.  0.
          5    1    3    3  502    0  0.63206372599E+02 -0.16677207403E+02 -0.83097273013E+02  0.10581022619E+03  0.41800000000E+01 0.  1.
         -5    1    3    3    0  502 -0.58531917694E+02 -0.40683764077E+02 -0.11755852967E+03  0.13754502662E+03  0.41800000000E+01 0.  1.
        -11    1    1    2    0    0 -0.45993421592E+02  0.45753512662E+02 -0.11217910180E+02  0.65837833041E+02  0.00000000000E+00 0. -1.
         11    1    1    2    0    0  0.41318966687E+02  0.11607458817E+02 -0.80283598406E+01  0.43662852289E+02  0.00000000000E+00 0.  1.
</event>
<event>
 7    1  0.2666594E-009  0.1075124E+03  0.7561462E-02  0.1265247E+00
         -2   -1    0    0    0  501 -0.00000000000E+00  0.00000000000E+00  0.59906269089E+03  0.59906269089E+03  0.00000000000E+00 0.  1.
          2   -1    0    0  501    0  0.00000000000E+00 -0.00000000000E+00 -0.27679840694E+02  0.27679840694E+02  0.00000000000E+00 0. -1.
         25    2    1    2    0    0 -0.62473992124E+02  0.41606407279E+02  0.27554586865E+03  0.31178362134E+03  0.12509759384E+03 0.  0.
          5    1    3    3  502    0 -0.15082487685E+02  0.56360835167E+02  0.24811979891E+03  0.25492142356E+03  0.41800000000E+01 0.  1.
         -5    1    3    3    0  502 -0.47391504439E+02 -0.14754427889E+02  0.27426069739E+02  0.56862197782E+02  0.41800000000E+01 0.  1.
        -11    1    1    2    0    0  0.68513870330E+02 -0.39982998474E+01  0.16537920264E+03  0.17905423060E+03  0.00000000000E+00 0.  1.
         11    1    1    2    0    0 -0.60398782058E+01 -0.37608107431E+02  0.13045777891E+03  0.13590467965E+03  0.00000000000E+00 0. -1.
</event>
<event>
 7    1  0.2666594E-009  0.1122257E+03  0.7561462E-02  0.1256503E+00
         -2   -1    0    0    0  501 -0.00000000000E+00  0.00000000000E+00  0.25454903842E+02  0.25454903842E+02  0.00000000000E+00 0.  1.
          2   -1    0    0  501    0  0.00000000000E+00 -0.00000000000E+00 -0.70238118215E+03  0.70238118215E+03  0.00000000000E+00 0. -1.
         25    2    1    2    0    0 -0.36361274935E+02 -0.59721362998E+02 -0.28117173189E+03  0.31558419128E+03  0.12508819073E+03 0.  0.
          5    1    3    3  502    0 -0.37760036472E+02  0.31240478046E+02 -0.69410093194E+02  0.85070683905E+02  0.41800000000E+01 0.  1.
         -5    1    3    3    0  502  0.13987615372E+01 -0.90961841044E+02 -0.21176163869E+03  0.23051350737E+03  0.41800000000E+01 0.  1.
        -11    1    1    2    0    0 -0.11485864046E+02  0.12379758686E+02 -0.79781439660E+01  0.18677105748E+02  0.00000000000E+00 0.  1.
         11    1    1    2    0    0  0.47847138980E+02  0.47341604312E+02 -0.38777640245E+03  0.39357478896E+03  0.00000000000E+00 0. -1.
</event>
<event>
 7    1  0.2666594E-009  0.1924397E+03  0.7561462E-02  0.1156279E+00
          2   -1    0    0  501    0  0.00000000000E+00  0.00000000000E+00  0.74882055941E+02  0.74882055941E+02  0.00000000000E+00 0. -1.
         -2   -1    0    0    0  501 -0.00000000000E+00 -0.00000000000E+00 -0.67816021914E+03  0.67816021914E+03  0.00000000000E+00 0.  1.
         25    2    1    2    0    0 -0.10961178659E+03  0.15588013083E+03 -0.22653813678E+03  0.32137368009E+03  0.12509258928E+03 0.  0.
          5    1    3    3  502    0 -0.51789454373E+01  0.27176385694E+02 -0.12246338657E+03  0.12561899086E+03  0.41800000000E+01 0. -1.
         -5    1    3    3    0  502 -0.10443284115E+03  0.12870374514E+03 -0.10407475021E+03  0.19575468923E+03  0.41800000000E+01 0. -1.
        -11    1    1    2    0    0  0.48125356045E+02 -0.80954887091E+02 -0.95206943618E+02  0.13391828012E+03  0.00000000000E+00 0. -1.
         11    1    1    2    0    0  0.61486430547E+02 -0.74925243741E+02 -0.28153308280E+03  0.29775031486E+03  0.00000000000E+00 0.  1.
</event>
<event>
 7    1  0.2666594E-009  0.8226932E+02  0.7561462E-02  0.1322732E+00
          2   -1    0    0  501    0  0.00000000000E+00  0.00000000000E+00  0.53879457234E+03  0.53879457234E+03  0.00000000000E+00 0. -1.
         -2   -1    0    0    0  501 -0.00000000000E+00 -0.00000000000E+00 -0.33662426698E+02  0.33662426698E+02  0.00000000000E+00 0.  1.
         25    2    1    2    0    0  0.77252809993E+02  0.20172508596E+02  0.25032536280E+03  0.29100755716E+03  0.12509070434E+03 0.  0.
          5    1    3    3  502    0  0.49344621007E+02  0.14169225008E+02  0.25640114812E+03  0.26152376511E+03  0.41800000000E+01 0. -1.
         -5    1    3    3    0  502  0.27908188986E+02  0.60032835876E+01 -0.60757853266E+01  0.29483792050E+02  0.41800000000E+01 0. -1.
        -11    1    1    2    0    0 -0.48861629096E+02  0.82217147056E+00  0.23684310406E+03  0.24183215399E+03  0.00000000000E+00 0. -1.
         11    1    1    2    0    0 -0.28391180897E+02 -0.20994680066E+02  0.17963678786E+02  0.39617287884E+02  0.00000000000E+00 0.  1.
</event>
<event>
 7    1  0.2666594E-009  0.1265579E+03  0.7561462E-02  0.1232654E+00
          1   -1    0    0  501    0  0.00000000000E+00  0.00000000000E+00  0.52911939249E+03  0.52911939249E+03  0.00000000000E+00 0. -1.
         -1   -1    0    0    0  501 -0.00000000000E+00 -0.00000000000E+00 -0.39555142762E+02  0.39555142762E+02  0.00000000000E+00 0.  1.
         25    2    1    2    0    0  0.66291328359E+02 -0.44766383755E+02  0.37635614611E+03  0.40459049817E+03  0.12510376956E+03 0.  0.
          5    1    3    3  502    0 -0.21798917047E+02 -0.41461769579E+02  0.22071935988E+03  0.22567405555E+03  0.41800000000E+01 0. -1.
         -5    1    3    3    0  502  0.88090245405E+02 -0.33046141758E+01  0.15563678623E+03  0.17891644262E+03  0.41800000000E+01 0. -1.
        -11    1    1    2    0    0 -0.12432488762E+02 -0.26050176875E+02  0.37069358726E+02  0.46982080077E+02  0.00000000000E+00 0. -1.
         11    1    1    2    0    0 -0.53858839597E+02  0.70816560630E+02  0.76138744892E+02  0.11710195701E+03  0.00000000000E+00 0.  1.
</event>
<event>
 7    1  0.2666594E-009  0.9848169E+02  0.7561462E-02  0.1283522E+00
         -1   -1    0    0    0  501 -0.00000000000E+00  0.00000000000E+00  0.16939562040E+03  0.16939562040E+03  0.00000000000E+00 0.  1.
          1   -1    0    0  501    0  0.00000000000E+00 -0.00000000000E+00 -0.82450786297E+02  0.82450786297E+02  0.00000000000E+00 0. -1.
         25    2    1    2    0    0  0.24491790237E+02 -0.63549286549E+01  0.11326664412E+02  0.12812698029E+03  0.12509195355E+03 0.  0.
          5    1    3    3  502    0  0.57696409911E+02 -0.25356433051E+02  0.44544916457E+02  0.77288721013E+02  0.41800000000E+01 0.  1.
         -5    1    3    3    0  502 -0.33204619674E+02  0.19001504396E+02 -0.33218252045E+02  0.50838259273E+02  0.41800000000E+01 0.  1.
        -11    1    1    2    0    0 -0.54080134931E+02 -0.17997878821E+02  0.30921114145E+02  0.64843657640E+02  0.00000000000E+00 0. -1.
         11    1    1    2    0    0  0.29588344694E+02  0.24352807476E+02  0.44697055542E+02  0.58875768766E+02  0.00000000000E+00 0.  1.
</event>
<event>
 7    1  0.2666594E-009  0.2882354E+03  0.7561462E-02  0.1091274E+00
         -2   -1    0    0    0  501 -0.00000000000E+00  0.00000000000E+00  0.17396050753E+03  0.17396050753E+03  0.00000000000E+00 0.  1.
          2   -1    0    0  501    0  0.00000000000E+00 -0.00000000000E+00 -0.57460719046E+03  0.57460719046E+03  0.00000000000E+00 0. -1.
         25    2    1    2    0    0 -0.12129837778E+03  0.25008633145E+03 -0.81442498328E+02  0.31549273044E+03  0.12508522214E+03 0.  0.
          5    1    3    3  502    0 -0.47972849386E+02  0.34663058536E+02 -0.63930566871E+02  0.87221050703E+02  0.41800000000E+01 0.  1.
         -5    1    3    3    0  502 -0.73325528391E+02  0.21542327291E+03 -0.17511931457E+02  0.22827167973E+03  0.41800000000E+01 0.  1.
        -11    1    1    2    0    0  0.27130072766E+02 -0.14874790147E+03 -0.13492454602E+03  0.20264898756E+03  0.00000000000E+00 0. -1.
         11    1    1    2    0    0  0.94168305011E+02 -0.10133842998E+03 -0.18427963858E+03  0.23042597999E+03  0.00000000000E+00 0.  1.
</event>
<event>
 7    1  0.2666594E-009  0.1143599E+03  0.7561462E-02  0.1252703E+00
         -1   -1    0    0    0  501 -0.00000000000E+00  0.00000000000E+00  0.13253226530E+02  0.13253226530E+02  0.00000000000E+00 0.  1.
          1   -1    0    0  501    0  0.00000000000E+00 -0.00000000000E+00 -0.11079540552E+04  0.11079540552E+04  0.00000000000E+00 0. -1.
         25    2    1    2    0    0 -0.45106710061E+02  0.26099589825E+02 -0.66280710892E+03  0.67651733356E+03  0.12508651041E+03 0.  0.
          5    1    3    3  502    0 -0.71448739410E+02 -0.17274080666E+02 -0.25104009424E+03  0.26161406220E+03  0.41800000000E+01 0.  1.
         -5    1    3    3    0  502  0.26342029349E+02  0.43373670491E+02 -0.41176701468E+03  0.41490327136E+03  0.41800000000E+01 0.  1.
        -11    1    1    2    0    0  0.58659989216E+02 -0.49750737871E+02 -0.28014027460E+03  0.29050766549E+03  0.00000000000E+00 0.  1.
         11    1    1    2    0    0 -0.13553279155E+02  0.23651148046E+02 -0.15175344518E+03  0.15418228271E+03  0.00000000000E+00 0. -1.
</event>
<event>
 7    1  0.2666594E-009  0.2003665E+03  0.7561462E-02  0.1149430E+00
          2   -1    0    0  501    0  0.00000000000E+00  0.00000000000E+00  0.20049880990E+04  0.20049880990E+04  0.00000000000E+00 0. -1.
         -2   -1    0    0    0  501 -0.00000000000E+00 -0.00000000000E+00 -0.23595266377E+02  0.23595266377E+02  0.00000000000E+00 0.  1.
         25    2    1    2    0    0  0.18437455317E+03 -0.36792173392E+02  0.96183087914E+03  0.98798463904E+03  0.12508943612E+03 0.  0.
          5    1    3    3  502    0  0.14715164126E+03 -0.47173650676E+02  0.91086075395E+03  0.92388513589E+03  0.41800000000E+01 0.  1.
         -5    1    3    3    0  502  0.37222911902E+02  0.10381477285E+02  0.50970125195E+02  0.64099503145E+02  0.41800000000E+01 0.  1.
        -11    1    1    2    0    0 -0.14546100779E+03 -0.10731692130E+02  0.67143738586E+03  0.68709696342E+03  0.00000000000E+00 0.  1.
         11    1    1    2    0    0 -0.38913545374E+02  0.47523865521E+02  0.34812456764E+03  0.35350176294E+03  0.00000000000E+00 0. -1.
</event>
<event>
 7    1  0.2666594E-009  0.1073664E+03  0.7561462E-02  0.1265526E+00
         -1   -1    0    0    0  501 -0.00000000000E+00  0.00000000000E+00  0.11334299331E+03  0.11334299331E+03  0.00000000000E+00 0.  1.
          1   -1    0    0  501    0  0.00000000000E+00 -0.00000000000E+00 -0.14762179144E+03  0.14762179144E+03  0.00000000000E+00 0. -1.
         25    2    1    2    0    0  0.50015059968E+02  0.47306283843E+02 -0.31054417849E+02  0.14611787559E+03  0.12508663391E+03 0.  0.
          5    1    3    3  502    0 -0.18871571436E+02  0.11735557674E+02 -0.59326297202E+02  0.63489695716E+02  0.41800000000E+01 0.  1.
         -5    1    3    3    0  502  0.68886631404E+02  0.35570726169E+02  0.28271879353E+02  0.82628179870E+02  0.41800000000E+01 0.  1.
        -11    1    1    2    0    0 -0.45214653623E+02 -0.74346631666E+02 -0.61232620862E+01  0.87231192132E+02  0.00000000000E+00 0. -1.
         11    1    1    2    0    0 -0.48004063456E+01  0.27040347823E+02  0.28988818110E+01  0.27615717032E+02  0.00000000000E+00 0.  1.
</event>
<event>
 7    1  0.2666594E-009  0.1281085E+03  0.7561462E-02  0.1230290E+00
          2   -1    0    0  501    0  0.00000000000E+00  0.00000000000E+00  0.89688829515E+03  0.89688829515E+03  0.00000000000E+00 0. -1.
         -2   -1    0    0    0  501 -0.00000000000E+00 -0.00000000000E+00 -0.33276016194E+02  0.33276016194E+02  0.00000000000E+00 0.  1.
         25    2    1    2    0    0  0.14633248192E+02 -0.12084686108E+03  0.29784150624E+03  0.34521904570E+03  0.12509408816E+03 0.  0.
          5    1    3    3  502    0 -0.87167528827E+01 -0.27437743796E+02  0.21838451382E+03  0.22031359431E+03  0.41800000000E+01 0.  1.
         -5    1    3    3    0  502  0.23350001074E+02 -0.93409117284E+02  0.79456992421E+02  0.12490545139E+03  0.41800000000E+01 0.  1.
        -11    1    1    2    0    0  0.13221005296E+02  0.10327481371E+02  0.14997740973E+02  0.22502979510E+02  0.00000000000E+00 0.  1.
         11    1    1    2    0    0 -0.27854253488E+02  0.11051937971E+03  0.55077303174E+03  0.56244228613E+03  0.00000000000E+00 0. -1.
</event>
<event>
 7    1  0.2666594E-009  0.1093644E+03  0.7561462E-02  0.1261751E+00
          3   -1    0    0  501    0  0.00000000000E+00  0.00000000000E+00  0.14867627572E+03  0.14867627572E+03  0.00000000000E+00 0. -1.
         -3   -1    0    0    0  501 -0.00000000000E+00 -0.00000000000E+00 -0.10571134537E+03  0.10571134537E+03  0.00000000000E+00 0.  1.
         25    2    1    2    0    0  0.47218397015E+02 -0.58381715270E+02  0.11579667057E+02  0.14635626484E+03  0.12509222947E+03 0.  0.
          5    1    3    3  502    0 -0.60343077541E+01 -0.62929033704E+02 -0.37543285031E+02  0.73644054776E+02  0.41800000000E+01 0.  1.
         -5    1    3    3    0  502  0.53252704769E+02  0.45473184337E+01  0.49122952088E+02  0.72712210061E+02  0.41800000000E+01 0.  1.
        -11    1    1    2    0    0 -0.63023925028E+02  0.58452672654E+02  0.33147873490E+02  0.92127691729E+02  0.00000000000E+00 0.  1.
         11    1    1    2    0    0  0.15805528013E+02 -0.70957383851E-01 -0.17626101925E+01  0.15903664528E+02  0.00000000000E+00 0. -1.
</event>
<event>
 7    1  0.2666594E-009  0.1136154E+03  0.7561462E-02  0.1254018E+00
          2   -1    0    0  501    0  0.00000000000E+00  0.00000000000E+00  0.53650079574E+02  0.53650079574E+02  0.00000000000E+00 0.  1.
         -2   -1    0    0    0  501 -0.00000000000E+00 -0.00000000000E+00 -0.31237244752E+03  0.31237244752E+03  0.00000000000E+00 0. -1.
         25    2    1    2    0    0  0.41029096642E+01 -0.56471658641E+02 -0.87229353449E+02  0.16267159727E+03  0.12508879390E+03 0.  0.
          5    1    3    3  502    0 -0.89144938024E+01 -0.92091563301E+02 -0.82853423224E+02  0.12426780102E+03  0.41800000000E+01 0.  1.
         -5    1    3    3    0  502  0.13017403467E+02  0.35619904660E+02 -0.43759302245E+01  0.38403796249E+02  0.41800000000E+01 0.  1.
        -11    1    1    2    0    0  0.34873844635E+02  0.42679773319E+02 -0.47885695913E+02  0.73012245297E+02  0.00000000000E+00 0.  1.
         11    1    1    2    0    0 -0.38976754299E+02  0.13791885322E+02 -0.12360731858E+03  0.13033868453E+03  0.00000000000E+00 0. -1.
</event>
<event>
 7    1  0.2666594E-009  0.1565325E+03  0.7561462E-02  0.1192668E+00
          2   -1    0    0  501    0  0.00000000000E+00  0.00000000000E+00  0.32874323160E+02  0.32874323160E+02  0.00000000000E+00 0. -1.
         -2   -1    0    0    0  501 -0.00000000000E+00 -0.00000000000E+00 -0.88059552336E+03  0.88059552336E+03  0.00000000000E+00 0.  1.
         25    2    1    2    0    0  0.10531310455E+03  0.77289054659E+02 -0.48369329889E+03  0.51640162288E+03  0.12508789215E+03 0.  0.
          5    1    3    3  502    0 -0.24913605532E+02  0.15811033434E+02 -0.39846811476E+02  0.49758590250E+02  0.41800000000E+01 0.  1.
         -5    1    3    3    0  502  0.13022671008E+03  0.61478021225E+02 -0.44384648742E+03  0.46664303263E+03  0.41800000000E+01 0.  1.
        -11    1    1    2    0    0 -0.96371034186E+02 -0.84136547742E+02 -0.36397728866E+03  0.38580539337E+03  0.00000000000E+00 0.  1.
         11    1    1    2    0    0 -0.89420703655E+01  0.68474930829E+01 -0.50612649452E-01  0.11262830265E+02  0.00000000000E+00 0. -1.
</event>
<event>
 7    1  0.2666594E-009  0.1380272E+03  0.7561462E-02  0.1216008E+00
          1   -1    0    0  501    0  0.00000000000E+00  0.00000000000E+00  0.61244062326E+03  0.61244062326E+03  0.00000000000E+00 0. -1.
         -1   -1    0    0    0  501 -0.00000000000E+00 -0.00000000000E+00 -0.35076501839E+02  0.35076501839E+02  0.00000000000E+00 0.  1.
         25    2    1    2    0    0  0.14371182292E+02  0.95283455010E+02  0.26899018835E+03  0.31191097674E+03  0.12508904150E+03 0.  0.
          5    1    3    3  502    0  0.57729497414E+02  0.55566060684E+01  0.97137685116E+02  0.11321118766E+03  0.41800000000E+01 0. -1.
         -5    1    3    3    0  502 -0.43358315122E+02  0.89726848942E+02  0.17185250324E+03  0.19869978908E+03  0.41800000000E+01 0. -1.
        -11    1    1    2    0    0  0.14219610366E+02 -0.87343745124E+02  0.28316504806E+03  0.29667081349E+03  0.00000000000E+00 0. -1.
         11    1    1    2    0    0 -0.28590792658E+02 -0.79397098855E+01  0.25208885001E+02  0.38935334862E+02  0.00000000000E+00 0.  1.
</event>
<event>
 7    1  0.2666594E-009  0.3787183E+03  0.7561462E-02  0.1051409E+00
          1   -1    0    0  501    0  0.00000000000E+00  0.00000000000E+00  0.10533148889E+04  0.10533148889E+04  0.00000000000E+00 0. -1.
         -1   -1    0    0    0  501 -0.00000000000E+00 -0.00000000000E+00 -0.17544321195E+03  0.17544321195E+03  0.00000000000E+00 0.  1.
         25    2    1    2    0    0 -0.36192642357E+03 -0.90011802047E+02  0.18079166473E+03  0.43292711145E+03  0.12508955675E+03 0.  0.
          5    1    3    3  502    0 -0.26509960405E+03 -0.10329763760E+03  0.87358801155E+02  0.29765287591E+03  0.41800000000E+01 0.  1.
         -5    1    3    3    0  502 -0.96826819522E+02  0.13285835551E+02  0.93432863572E+02  0.13527423554E+03  0.41800000000E+01 0.  1.
        -11    1    1    2    0    0  0.69138280349E+02  0.13536031399E+01  0.71564928270E+02  0.99516194709E+02  0.00000000000E+00 0. -1.
         11    1    1    2    0    0  0.29278814322E+03  0.88658198907E+02  0.62551508399E+03  0.69631479472E+03  0.00000000000E+00 0.  1.
</event>
<event>
 7    1  0.2666594E-009  0.1653817E+03  0.7561462E-02  0.1182751E+00
         -1   -1    0    0    0  501 -0.00000000000E+00  0.00000000000E+00  0.20895536802E+03  0.20895536802E+03  0.00000000000E+00 0.  1.
          1   -1    0    0  501    0  0.00000000000E+00 -0.00000000000E+00 -0.18501271515E+03  0.18501271515E+03  0.00000000000E+00 0. -1.
         25    2    1    2    0    0  0.13997344236E+03 -0.19712105494E+02  0.94992864491E+02  0.21131626410E+03  0.12509911071E+03 0.  0.
          5    1    3    3  502    0  0.15624317379E+03 -0.12084420146E+02  0.10654882458E+03  0.18954705745E+03  0.41800000000E+01 0. -1.
         -5    1    3    3    0  502 -0.16269731435E+02 -0.76276853479E+01 -0.11555960090E+02  0.21769206654E+02  0.41800000000E+01 0. -1.
        -11    1    1    2    0    0 -0.20640148532E+02  0.29290188376E+02  0.11039065851E+02  0.37493890721E+02  0.00000000000E+00 0.  1.
         11    1    1    2    0    0 -0.11933329383E+03 -0.95780828816E+01 -0.82089277466E+02  0.14515792835E+03  0.00000000000E+00 0. -1.
</event>
<event>
 7    1  0.2666594E-009  0.2518197E+03  0.7561462E-02  0.1112160E+00
         -2   -1    0    0    0  501 -0.00000000000E+00  0.00000000000E+00  0.16665930781E+03  0.16665930781E+03  0.00000000000E+00 0.  1.
          2   -1    0    0  501    0  0.00000000000E+00 -0.00000000000E+00 -0.47374735333E+03  0.47374735333E+03  0.00000000000E+00 0. -1.
         25    2    1    2    0    0  0.53677982166E+02  0.24313568501E+03 -0.77656237582E+02  0.28926590643E+03  0.12509191138E+03 0.  0.
          5    1    3    3  502    0 -0.57332031410E+01  0.43683080928E+01  0.22186410846E+02  0.23699387336E+02  0.41800000000E+01 0. -1.
         -5    1    3    3    0  502  0.59411185307E+02  0.23876737692E+03 -0.99842648428E+02  0.26556651910E+03  0.41800000000E+01 0. -1.
        -11    1    1    2    0    0 -0.28609463748E+02 -0.15376946007E+03 -0.81152901701E+02  0.17620823398E+03  0.00000000000E+00 0.  1.
         11    1    1    2    0    0 -0.25068518418E+02 -0.89366224938E+02 -0.14827890623E+03  0.17493252073E+03  0.00000000000E+00 0. -1.
</event>
<event>
 7    1  0.2666594E-009  0.9207498E+02  0.7561462E-02  0.1297903E+00
          2   -1    0    0  501    0  0.00000000000E+00  0.00000000000E+00  0.48222606528E+03  0.48222606528E+03  0.00000000000E+00 0. -1.
         -2   -1    0    0    0  501 -0.00000000000E+00 -0.00000000000E+00 -0.26426774652E+02  0.26426774652E+02  0.00000000000E+00 0.  1.
         25    2    1    2    0    0  0.33819188942E+02  0.14834676725E+02  0.33908466605E+03  0.36330538551E+03  0.12509431328E+03 0.  0.
          5    1    3    3  502    0  0.59701061395E+02 -0.14841358344E+02  0.30465582343E+03  0.31083295481E+03  0.41800000000E+01 0.  1.
         -5    1    3    3    0  502 -0.25881872453E+02  0.29676035068E+02  0.34428842623E+02  0.52472430698E+02  0.41800000000E+01 0.  1.
        -11    1    1    2    0    0  0.20295205274E+02  0.10825452422E+02  0.15485475655E+02  0.27728788894E+02  0.00000000000E+00 0.  1.
         11    1    1    2    0    0 -0.54114394216E+02 -0.25660129146E+02  0.10122914892E+03  0.11761866553E+03  0.00000000000E+00 0. -1.
</event>
<event>
 7    1  0.2666594E-009  0.4302342E+03  0.7561462E-02  0.1033786E+00
         -1   -1    0    0    0  501 -0.00000000000E+00  0.00000000000E+00  0.11471253057E+03  0.11471253057E+03  0.00000000000E+00 0.  1.
          1   -1    0    0  501    0  0.00000000000E+00 -0.00000000000E+00 -0.17725731861E+04  0.17725731861E+04  0.00000000000E+00 0. -1.
         25    2    1    2    0    0 -0.42089385935E+03  0.51853454628E+02 -0.10593930200E+04  0.11479559078E+04  0.12509505911E+03 0.  0.
          5    1    3    3  502    0 -0.12397555997E+03  0.54126714139E+02 -0.22827634850E+03  0.26538124338E+03  0.41800000000E+01 0. -1.
         -5    1    3    3    0  502 -0.29691829938E+03 -0.22732595114E+01 -0.83111667152E+03  0.88257466443E+03  0.41800000000E+01 0. -1.
        -11    1    1    2    0    0  0.12564687823E+03 -0.42967336537E+02 -0.13222236008E+03  0.18739285612E+03  0.00000000000E+00 0.  1.
         11    1    1    2    0    0  0.29524698112E+03 -0.88861180908E+01 -0.46624527544E+03  0.55193695277E+03  0.00000000000E+00 0. -1.
</event>
<event>
 7    1  0.2666594E-009  0.1116269E+03  0.7561462E-02  0.1257587E+00
         -1   -1    0    0    0  501 -0.00000000000E+00  0.00000000000E+00  0.13901890342E+02  0.13901890342E+02  0.00000000000E+00 0.  1.
          1   -1    0    0  501    0  0.00000000000E+00 -0.00000000000E+00 -0.11513753179E+04  0.11513753179E+04  0.00000000000E+00 0. -1.
         25    2    1    2    0    0 -0.50637643884E+02  0.29866930596E+02 -0.75693822377E+03  0.76945383492E+03  0.12509006731E+03 0.  0.
          5    1    3    3  502    0 -0.20477127255E+02 -0.37745552709E+02 -0.10809992193E+03  0.11639203156E+03  0.41800000000E+01 0. -1.
         -5    1    3    3    0  502 -0.30160516628E+02  0.67612483306E+02 -0.64883830184E+03  0.65306180335E+03  0.41800000000E+01 0. -1.
        -11    1    1    2    0    0  0.72647045791E+02 -0.51045048931E+01 -0.30057112070E+03  0.30926792241E+03  0.00000000000E+00 0. -1.
         11    1    1    2    0    0 -0.22009401907E+02 -0.24762425703E+02 -0.79964083050E+02  0.86555450880E+02  0.00000000000E+00 0.  1.
</event>
<event>
 7    1  0.2666594E-009  0.1293665E+03  0.7561462E-02  0.1228399E+00
         -1   -1    0    0    0  501 -0.00000000000E+00  0.00000000000E+00  0.23666326722E+03  0.23666326722E+03  0.00000000000E+00 0.  1.
          1   -1    0    0  501    0  0.00000000000E+00 -0.00000000000E+00 -0.11708660663E+03  0.11708660663E+03  0.00000000000E+00 0. -1.
         25    2    1    2    0    0  0.61485460798E+02 -0.70823862044E+02 -0.26769168558E+02  0.15862123532E+03  0.12509047360E+03 0.  0.
          5    1    3    3  502    0  0.77671993585E+02 -0.95234971974E+02 -0.35115626487E+02  0.12787970167E+03  0.41800000000E+01 0.  1.
         -5    1    3    3    0  502 -0.16186532787E+02  0.24411109930E+02  0.83464579293E+01  0.30741533659E+02  0.41800000000E+01 0.  1.
        -11    1    1    2    0    0 -0.36964200003E+01  0.40972104854E+02  0.11652673528E+03  0.12357530875E+03  0.00000000000E+00 0.  1.
         11    1    1    2    0    0 -0.57789040798E+02  0.29851757190E+02  0.29819093868E+02  0.71553329781E+02  0.00000000000E+00 0. -1.
</event>
<event>
 7    1  0.2666594E-009  0.1081297E+03  0.7561462E-02  0.1264073E+00
         -3   -1    0    0    0  501 -0.00000000000E+00  0.00000000000E+00  0.58584595491E+02  0.58584595491E+02  0.00000000000E+00 0.  1.
          3   -1    0    0  501    0  0.00000000000E+00 -0.00000000000E+00 -0.26320729462E+03  0.26320729462E+03  0.00000000000E+00 0. -1.
         25    2    1    2    0    0  0.31822977744E+02 -0.39750814515E+02 -0.73336652997E+02  0.15368540110E+03  0.12509240054E+03 0.  0.
          5    1    3    3  502    0  0.79697257706E+02 -0.33605333227E+02 -0.48216719249E+02  0.99112540691E+02  0.41800000000E+01 0. -1.
         -5    1    3    3    0  502 -0.47874279962E+02 -0.61454812878E+01 -0.25119933748E+02  0.54572860413E+02  0.41800000000E+01 0. -1.
        -11    1    1    2    0    0  0.19375781867E+02  0.14028659099E+02  0.10030021799E+01  0.23942226556E+02  0.00000000000E+00 0.  1.
         11    1    1    2    0    0 -0.51198759611E+02  0.25722155417E+02 -0.13228904831E+03  0.14416426245E+03  0.00000000000E+00 0. -1.
</event>
<event>
 7    1  0.2666594E-009  0.1065964E+03  0.7561462E-02  0.1267006E+00
         -3   -1    0    0    0  501 -0.00000000000E+00  0.00000000000E+00  0.18260557632E+03  0.18260557632E+03  0.00000000000E+00 0.  1.
          3   -1    0    0  501    0  0.00000000000E+00 -0.00000000000E+00 -0.69260099654E+02  0.69260099654E+02  0.00000000000E+00 0. -1.
         25    2    1    2    0    0  0.16607712310E+02 -0.50397577663E+01  0.36288921332E+02  0.13139910626E+03  0.12509046346E+03 0.  0.
          5    1    3    3  502    0  0.18968837190E+02 -0.62923661573E+02  0.31838531194E+02  0.73146212744E+02  0.41800000000E+01 0.  1.
         -5    1    3    3    0  502 -0.23611248806E+01  0.57883903807E+02  0.44503901378E+01  0.58252893516E+02  0.41800000000E+01 0.  1.
        -11    1    1    2    0    0 -0.41410853215E+02 -0.26476102017E+02  0.26197177437E+02  0.55696811827E+02  0.00000000000E+00 0. -1.
         11    1    1    2    0    0  0.24803140905E+02  0.31515859783E+02  0.50859377899E+02  0.64769757889E+02  0.00000000000E+00 0.  1.
</event>
<event>
 7    1  0.2666594E-009  0.1246930E+03  0.7561462E-02  0.1235550E+00
         -2   -1    0    0    0  501 -0.00000000000E+00  0.00000000000E+00  0.32158418635E+02  0.32158418635E+02  0.00000000000E+00 0.  1.
          2   -1    0    0  501    0  0.00000000000E+00 -0.00000000000E+00 -0.79949161160E+03  0.79949161160E+03  0.00000000000E+00 0. -1.
         25    2    1    2    0    0  0.74998338581E+02 -0.38650016496E+02 -0.62251424017E+03  0.64053922662E+03  0.12509175458E+03 0.  0.
          5    1    3    3  502    0  0.12802971305E+02  0.39488269958E+02 -0.96827659902E+02  0.10543390186E+03  0.41800000000E+01 0.  1.
         -5    1    3    3    0  502  0.62195367276E+02 -0.78138286454E+02 -0.52568658027E+03  0.53510532477E+03  0.41800000000E+01 0.  1.
        -11    1    1    2    0    0 -0.65753471001E+02  0.57090441453E+02 -0.64985018344E+02  0.10865491274E+03  0.00000000000E+00 0.  1.
         11    1    1    2    0    0 -0.92448675803E+01 -0.18440424957E+02 -0.79833934457E+02  0.82455890875E+02  0.00000000000E+00 0. -1.
</event>
<event>
 7    1  0.2666594E-009  0.1259848E+03  0.7561462E-02  0.1233538E+00
         -2   -1    0    0    0  501 -0.00000000000E+00  0.00000000000E+00  0.11421533313E+03  0.11421533313E+03  0.00000000000E+00 0.  1.
          2   -1    0    0  501    0  0.00000000000E+00 -0.00000000000E+00 -0.19055992308E+03  0.19055992308E+03  0.00000000000E+00 0. -1.
         25    2    1    2    0    0  0.34729066609E+01 -0.98546594337E+02 -0.59200748883E+02  0.16993410542E+03  0.12509747871E+03 0.  0.
          5    1    3    3  502    0 -0.41303530463E+02 -0.75628840291E+01  0.14375269103E+02  0.44579138679E+02  0.41800000000E+01 0.  1.
         -5    1    3    3    0  502  0.44776437124E+02 -0.90983710308E+02 -0.73576017986E+02  0.12535496674E+03  0.41800000000E+01 0.  1.
        -11    1    1    2    0    0  0.19109573219E+02  0.65681271801E+02  0.28612176343E+02  0.74147568329E+02  0.00000000000E+00 0.  1.
         11    1    1    2    0    0 -0.22582479880E+02  0.32865322536E+02 -0.45756017407E+02  0.60693582460E+02  0.00000000000E+00 0. -1.
</event>
<event>
 7    1  0.2666594E-009  0.8672570E+02  0.7561462E-02  0.1310980E+00
          2   -1    0    0  501    0  0.00000000000E+00  0.00000000000E+00  0.37636921049E+03  0.37636921049E+03  0.00000000000E+00 0. -1.
         -2   -1    0    0    0  501 -0.00000000000E+00 -0.00000000000E+00 -0.50141646850E+02  0.50141646850E+02  0.00000000000E+00 0.  1.
         25    2    1    2    0    0 -0.21429722900E+02  0.17351181297E+00  0.30449788466E+03  0.32988598514E+03  0.12508612354E+03 0.  0.
          5    1    3    3  502    0 -0.63294802716E+02  0.21700122134E+02  0.10282887971E+03  0.12275332278E+03  0.41800000000E+01 0.  1.
         -5    1    3    3    0  502  0.41865079816E+02 -0.21526610321E+02  0.20166900495E+03  0.20713266236E+03  0.41800000000E+01 0.  1.
        -11    1    1    2    0    0  0.16237474064E+01  0.26153537645E+02 -0.27115249505E+02  0.37707835296E+02  0.00000000000E+00 0.  1.
         11    1    1    2    0    0  0.19805975494E+02 -0.26327049458E+02  0.48844928483E+02  0.58917036899E+02  0.00000000000E+00 0. -1.
</event>
<event>
 7    1  0.2666594E-009  0.9298448E+02  0.7561462E-02  0.1295781E+00
          1   -1    0    0  501    0  0.00000000000E+00  0.00000000000E+00  0.25689588253E+03  0.25689588253E+03  0.00000000000E+00 0. -1.
         -1   -1    0    0    0  501 -0.00000000000E+00 -0.00000000000E+00 -0.65044001507E+02  0.65044001507E+02  0.00000000000E+00 0.  1.
         25    2    1    2    0    0  0.20113047552E+01 -0.66921478876E+02  0.88021989529E+02  0.16696491848E+03  0.12508750409E+03 0.  0.
          5    1    3    3  502    0 -0.29815164411E+01  0.24397684232E+02  0.69125188027E+02  0.73484014969E+02  0.41800000000E+01 0.  1.
         -5    1    3    3    0  502  0.49928211963E+01 -0.91319163108E+02  0.18896801502E+02  0.93480903511E+02  0.41800000000E+01 0.  1.
        -11    1    1    2    0    0 -0.10027431256E+02  0.27841479642E+02  0.11061808039E+03  0.11450789089E+03  0.00000000000E+00 0. -1.
         11    1    1    2    0    0  0.80161265009E+01  0.39079999234E+02 -0.67881888919E+01  0.40467074674E+02  0.00000000000E+00 0.  1.
</event>
<event>
 7    1  0.2666594E-009  0.8597498E+02  0.7561462E-02  0.1312902E+00
         -2   -1    0    0    0  501 -0.00000000000E+00  0.00000000000E+00  0.41851083015E+02  0.41851083015E+02  0.00000000000E+00 0.  1.
          2   -1    0    0  501    0  0.00000000000E+00 -0.00000000000E+00 -0.38095786283E+03  0.38095786283E+03  0.00000000000E+00 0. -1.
         25    2    1    2    0    0 -0.52171435542E+02  0.12670639744E+02 -0.12732932813E+03  0.18639224565E+03  0.12508759987E+03 0.  0.
          5    1    3    3  502    0 -0.26507394875E+02 -0.27848035444E+02 -0.13244605897E+03  0.13797675891E+03  0.41800000000E+01 0.  1.
         -5    1    3    3    0  502 -0.25664040667E+02  0.40518675188E+02  0.51167308457E+01  0.48415486747E+02  0.41800000000E+01 0.  1.
        -11    1    1    2    0    0  0.46137361166E+02  0.21166738241E+02 -0.18772165005E+03  0.19446363362E+03  0.00000000000E+00 0. -1.
         11    1    1    2    0    0  0.60340743756E+01 -0.33837377985E+02 -0.24055801643E+02  0.41953066577E+02  0.00000000000E+00 0.  1.
</event>
<event>
 7    1  0.2666594E-009  0.1094403E+03  0.7561462E-02  0.1261610E+00
         -2   -1    0    0    0  501 -0.00000000000E+00  0.00000000000E+00  0.10682328830E+03  0.10682328830E+03  0.00000000000E+00 0.  1.
          2   -1    0    0  501    0  0.00000000000E+00 -0.00000000000E+00 -0.16870578906E+03  0.16870578906E+03  0.00000000000E+00 0. -1.
         25    2    1    2    0    0 -0.62659164106E+02 -0.27882759149E+02 -0.77914340319E+02  0.16254764800E+03  0.12508986505E+03 0.  0.
          5    1    3    3  502    0  0.14308788177E+02  0.23682828447E+02  0.14591553768E+02  0.31559525086E+02  0.41800000000E+01 0.  1.
         -5    1    3    3    0  502 -0.76967952283E+02 -0.51565587596E+02 -0.92505894087E+02  0.13098812291E+03  0.41800000000E+01 0.  1.
        -11    1    1    2    0    0  0.30719106592E+02  0.50438026667E+02  0.35910266529E+02  0.69117329853E+02  0.00000000000E+00 0.  1.
         11    1    1    2    0    0  0.31940057514E+02 -0.22555267518E+02 -0.19878426965E+02  0.43864099505E+02  0.00000000000E+00 0. -1.
</event>
<event>
 7    1  0.2666594E-009  0.1234822E+03  0.7561462E-02  0.1237461E+00
          2   -1    0    0  501    0  0.00000000000E+00  0.00000000000E+00  0.14464063197E+03  0.14464063197E+03  0.00000000000E+00 0. -1.
         -2   -1    0    0    0  501 -0.00000000000E+00 -0.00000000000E+00 -0.11980205593E+03  0.11980205593E+03  0.00000000000E+00 0.  1.
         25    2    1    2    0    0 -0.49387306962E+02 -0.42820988657E+02  0.48884661886E+02  0.14936574541E+03  0.12509065742E+03 0.  0.
          5    1    3    3  502    0  0.39668317066E+02 -0.14806612130E+02 -0.26804287689E+01  0.42631775004E+02  0.41800000000E+01 0.  1.
         -5    1    3    3    0  502 -0.89055624028E+02 -0.28014376527E+02  0.51565090655E+02  0.10673397040E+03  0.41800000000E+01 0.  1.
        -11    1    1    2    0    0  0.44893743091E+02 -0.19167498029E+02 -0.20131514709E+02  0.52802642300E+02  0.00000000000E+00 0.  1.
         11    1    1    2    0    0  0.44935638712E+01  0.61988486687E+02 -0.39145711403E+01  0.62274300198E+02  0.00000000000E+00 0. -1.
</event>
<event>
 7    1  0.2666594E-009  0.1221886E+03  0.7561462E-02  0.1239530E+00
         -2   -1    0    0    0  501 -0.00000000000E+00  0.00000000000E+00  0.67953314117E+02  0.67953314117E+02  0.00000000000E+00 0. -1.
          2   -1    0    0  501    0  0.00000000000E+00 -0.00000000000E+00 -0.30184622875E+03  0.30184622875E+03  0.00000000000E+00 0.  1.
         25    2    1    2    0    0 -0.46705449240E+02  0.67801223677E+02 -0.66200115944E+02  0.16372775976E+03  0.12508364819E+03 0.  0.
          5    1    3    3  502    0  0.23697527124E+02 -0.11786870344E+02 -0.49218817558E+02  0.56039874252E+02  0.41800000000E+01 0.  1.
         -5    1    3    3    0  502 -0.70402976364E+02  0.79588094021E+02 -0.16981298385E+02  0.10768788551E+03  0.41800000000E+01 0.  1.
        -11    1    1    2    0    0  0.67372039140E+02 -0.49048352701E+02 -0.15373546880E+03  0.17486945682E+03  0.00000000000E+00 0.  1.
         11    1    1    2    0    0 -0.20666589900E+02 -0.18752870976E+02 -0.13957329886E+02  0.31202326284E+02  0.00000000000E+00 0. -1.
</event>
<event>
 7    1  0.2666594E-009  0.1155286E+03  0.7561462E-02  0.1250661E+00
          2   -1    0    0  501    0  0.00000000000E+00  0.00000000000E+00  0.45977990634E+02  0.45977990634E+02  0.00000000000E+00 0. -1.
         -2   -1    0    0    0  501 -0.00000000000E+00 -0.00000000000E+00 -0.33419833527E+03  0.33419833527E+03  0.00000000000E+00 0.  1.
         25    2    1    2    0    0 -0.38935077452E+02 -0.43778992868E+02 -0.12664592766E+03  0.18740190922E+03  0.12509094338E+03 0.  0.
          5    1    3    3  502    0  0.33833266951E+02  0.10861829348E+02 -0.73981195811E+02  0.82178823446E+02  0.41800000000E+01 0.  1.
         -5    1    3    3    0  502 -0.72768344404E+02 -0.54640822215E+02 -0.52664731850E+02  0.10522308578E+03  0.41800000000E+01 0.  1.
        -11    1    1    2    0    0 -0.26120878641E+02  0.64944764222E+00 -0.29939253547E+02  0.39737651996E+02  0.00000000000E+00 0.  1.
         11    1    1    2    0    0  0.65055956093E+02  0.43129545226E+02 -0.13163516343E+03  0.15303676469E+03  0.00000000000E+00 0. -1.
</event>
<event>
 7    1  0.3439460E-009  0.1192037E+03  0.7561462E-02  0.1244417E+00
          2   -1    0    0  501    0  0.00000000000E+00  0.00000000000E+00  0.12240561722E+04  0.12240561722E+04  0.00000000000E+00 0.  1.
         -2   -1    0    0    0  501 -0.00000000000E+00 -0.00000000000E+00 -0.18377169295E+02  0.18377169295E+02  0.00000000000E+00 0. -1.
         25    2    1    2    0    0 -0.63467543834E+02  0.52434700444E+02  0.90991859588E+03  0.92215889596E+03  0.12509057255E+03 0.  0.
          5    1    3    3  502    0 -0.90132395798E+02  0.74262561323E+01  0.43313588332E+03  0.44249651284E+03  0.41800000000E+01 0. -1.
         -5    1    3    3    0  502  0.26664851964E+02  0.45008444312E+02  0.47678271256E+03  0.47966238313E+03  0.41800000000E+01 0. -1.
        -11    1    1    2    0    0  0.52276226178E+02 -0.12269396363E+02  0.25956277251E+03  0.26505881382E+03  0.00000000000E+00 0.  1.
         11    1    1    2    0    0  0.11191317656E+02 -0.40165304081E+02  0.36197634559E+02  0.55215631759E+02  0.00000000000E+00 0. -1.
</event>
<event>
 7    1  0.2666594E-009  0.1434192E+03  0.7561462E-02  0.1208801E+00
         -2   -1    0    0    0  501 -0.00000000000E+00  0.00000000000E+00  0.27235847329E+02  0.27235847329E+02  0.00000000000E+00 0.  1.
          2   -1    0    0  501    0  0.00000000000E+00 -0.00000000000E+00 -0.96269869831E+03  0.96269869831E+03  0.00000000000E+00 0. -1.
         25    2    1    2    0    0  0.93119319338E+02  0.47372413943E+02 -0.67925515047E+03  0.69853442992E+03  0.12508971622E+03 0.  0.
          5    1    3    3  502    0  0.69946323362E+02 -0.23848500822E+02 -0.47911287014E+03  0.48479671397E+03  0.41800000000E+01 0.  1.
         -5    1    3    3    0  502  0.23172995976E+02  0.71220914765E+02 -0.20014228033E+03  0.21373771595E+03  0.41800000000E+01 0.  1.
        -11    1    1    2    0    0 -0.67414475158E+01 -0.50912803290E+02 -0.78943523489E+02  0.94178769127E+02  0.00000000000E+00 0.  1.
         11    1    1    2    0    0 -0.86377871822E+02  0.35403893471E+01 -0.17726417702E+03  0.19722134659E+03  0.00000000000E+00 0. -1.
</event>
<event>
 7    1  0.2666594E-009  0.6567769E+02  0.7561462E-02  0.1375440E+00
          1   -1    0    0  501    0  0.00000000000E+00  0.00000000000E+00  0.24872411924E+03  0.24872411924E+03  0.00000000000E+00 0. -1.
         -1   -1    0    0    0  501 -0.00000000000E+00 -0.00000000000E+00 -0.71101680384E+02  0.71101680384E+02  0.00000000000E+00 0.  1.
         25    2    1    2    0    0 -0.33123107443E+02 -0.24211659952E+02  0.17453813061E+03  0.21861909325E+03  0.12508958459E+03 0.  0.
          5    1    3    3  502    0  0.32490549715E+01 -0.24838142505E+02 -0.12306139314E+02  0.28220615623E+02  0.41800000000E+01 0. -1.
         -5    1    3    3    0  502 -0.36372162415E+02  0.62648255323E+00  0.18684426992E+03  0.19039847762E+03  0.41800000000E+01 0. -1.
        -11    1    1    2    0    0  0.33752159381E+02  0.40681712205E+02 -0.32457049598E+02  0.62029590031E+02  0.00000000000E+00 0.  1.
         11    1    1    2    0    0 -0.62905193743E+00 -0.16470052253E+02  0.35541357846E+02  0.39177116345E+02  0.00000000000E+00 0. -1.
</event>
<event>
 7    1  0.2666594E-009  0.1147491E+03  0.7561462E-02  0.1252020E+00
         -1   -1    0    0    0  501 -0.00000000000E+00  0.00000000000E+00  0.65573538559E+02  0.65573538559E+02  0.00000000000E+00 0.  1.
          1   -1    0    0  501    0  0.00000000000E+00 -0.00000000000E+00 -0.32266482104E+03  0.32266482104E+03  0.00000000000E+00 0. -1.
         25    2    1    2    0    0  0.70021710013E+02  0.66556200224E+02 -0.12349807939E+03  0.20057775290E+03  0.12508753609E+03 0.  0.
          5    1    3    3  502    0  0.40221948888E+02  0.87088689984E+02 -0.13194266207E+03  0.16318266933E+03  0.41800000000E+01 0. -1.
         -5    1    3    3    0  502  0.29799761125E+02 -0.20532489760E+02  0.84445826765E+01  0.37395083573E+02  0.41800000000E+01 0. -1.
        -11    1    1    2    0    0 -0.38147406751E+02 -0.29867176532E+02 -0.32572098438E+01  0.48558030147E+02  0.00000000000E+00 0.  1.
         11    1    1    2    0    0 -0.31874303262E+02 -0.36689023692E+02 -0.13033599325E+03  0.13910257655E+03  0.00000000000E+00 0. -1.
</event>
<event>
 7    1  0.2666594E-009  0.1087619E+03  0.7561462E-02  0.1262880E+00
         -2   -1    0    0    0  501 -0.00000000000E+00  0.00000000000E+00  0.76924760930E+02  0.76924760930E+02  0.00000000000E+00 0.  1.
          2   -1    0    0  501    0  0.00000000000E+00 -0.00000000000E+00 -0.19294755117E+03  0.19294755117E+03  0.00000000000E+00 0. -1.
         25    2    1    2    0    0  0.43924249337E+02 -0.15336616855E+02 -0.94604202131E+02  0.16358969642E+03  0.12508829769E+03 0.  0.
          5    1    3    3  502    0 -0.43469603305E+02  0.37009575187E+01 -0.28248794074E+02  0.52141828360E+02  0.41800000000E+01 0.  1.
         -5    1    3    3    0  502  0.87393852642E+02 -0.19037574374E+02 -0.66355408057E+02  0.11144786806E+03  0.41800000000E+01 0.  1.
        -11    1    1    2    0    0 -0.57033800752E+02 -0.77989029936E+01  0.16579068107E+02  0.59904447376E+02  0.00000000000E+00 0.  1.
         11    1    1    2    0    0  0.13109551415E+02  0.23135519849E+02 -0.37997656218E+02  0.46378168302E+02  0.00000000000E+00 0. -1.
</event>
<event>
 7    1  0.2666594E-009  0.1158143E+03  0.7561462E-02  0.1250166E+00
         -1   -1    0    0    0  501 -0.00000000000E+00  0.00000000000E+00  0.30005830500E+03  0.30005830500E+03  0.00000000000E+00 0.  1.
          1   -1    0    0  501    0  0.00000000000E+00 -0.00000000000E+00 -0.44951703621E+02  0.44951703621E+02  0.00000000000E+00 0. -1.
         25    2    1    2    0    0  0.38613023101E+02  0.58426703193E+01  0.13666731510E+03  0.18934367859E+03  0.12509185128E+03 0.  0.
          5    1    3    3  502    0  0.75733834898E+02  0.34829115798E+02  0.81003245369E+02  0.11630855177E+03  0.41800000000E+01 0. -1.
         -5    1    3    3    0  502 -0.37120811797E+02 -0.28986445479E+02  0.55664069735E+02  0.73035126819E+02  0.41800000000E+01 0. -1.
        -11    1    1    2    0    0 -0.63283692751E+02 -0.26594576199E+02  0.84257961092E+02  0.10868073085E+03  0.00000000000E+00 0.  1.
         11    1    1    2    0    0  0.24670669650E+02  0.20751905880E+02  0.34181325186E+02  0.46985599178E+02  0.00000000000E+00 0. -1.
</event>
<event>
 7    1  0.2666594E-009  0.1843049E+03  0.7561462E-02  0.1163701E+00
          1   -1    0    0  501    0  0.00000000000E+00  0.00000000000E+00  0.72655507669E+02  0.72655507669E+02  0.00000000000E+00 0. -1.
         -1   -1    0    0    0  501 -0.00000000000E+00 -0.00000000000E+00 -0.60481630492E+03  0.60481630492E+03  0.00000000000E+00 0.  1.
         25    2    1    2    0    0 -0.21220051032E+02  0.17143843809E+03 -0.20232098723E+03  0.29397640100E+03  0.12508762470E+03 0.  0.
          5    1    3    3  502    0 -0.86310541860E+01  0.61032190602E+02  0.14946180676E+01  0.61799107350E+02  0.41800000000E+01 0. -1.
         -5    1    3    3    0  502 -0.12588996846E+02  0.11040624748E+03 -0.20381560529E+03  0.23217729365E+03  0.41800000000E+01 0. -1.
        -11    1    1    2    0    0  0.56635999319E+02 -0.12495089725E+03 -0.22952949113E+03  0.26740259992E+03  0.00000000000E+00 0.  1.
         11    1    1    2    0    0 -0.35415948286E+02 -0.46487540833E+02 -0.10031031890E+03  0.11609281168E+03  0.00000000000E+00 0. -1.
</event>
<event>
 7    1  0.2666594E-009  0.9819867E+02  0.7561462E-02  0.1284130E+00
         -1   -1    0    0    0  501 -0.00000000000E+00  0.00000000000E+00  0.50650237065E+02  0.50650237065E+02  0.00000000000E+00 0.  1.
          1   -1    0    0  501    0  0.00000000000E+00 -0.00000000000E+00 -0.32293699876E+03  0.32293699876E+03  0.00000000000E+00 0. -1.
         25    2    1    2    0    0  0.10826514087E+02 -0.30359015565E+02 -0.23592235990E+03  0.26897153971E+03  0.12508975193E+03 0.  0.
          5    1    3    3  502    0  0.31049206442E+02 -0.61851795272E+02 -0.21497329303E+03  0.22587759277E+03  0.41800000000E+01 0.  1.
         -5    1    3    3    0  502 -0.20222692355E+02  0.31492779707E+02 -0.20949066867E+02  0.43093946934E+02  0.41800000000E+01 0.  1.
        -11    1    1    2    0    0 -0.27478825968E+02  0.53940125604E+02 -0.31624538374E+01  0.60618678153E+02  0.00000000000E+00 0.  1.
         11    1    1    2    0    0  0.16652311882E+02 -0.23581110039E+02 -0.33201947954E+02  0.43997017962E+02  0.00000000000E+00 0. -1.
</event>
<event>
 7    1  0.2666594E-009  0.1774535E+03  0.7561462E-02  0.1170291E+00
          1   -1    0    0  501    0  0.00000000000E+00  0.00000000000E+00  0.16621440772E+03  0.16621440772E+03  0.00000000000E+00 0. -1.
         -1   -1    0    0    0  501 -0.00000000000E+00 -0.00000000000E+00 -0.39704258154E+03  0.39704258154E+03  0.00000000000E+00 0.  1.
         25    2    1    2    0    0  0.10933789363E+03 -0.11146668383E+03  0.69352683942E+02  0.21174434021E+03  0.12508506807E+03 0.  0.
          5    1    3    3  502    0 -0.25171761153E+02 -0.41104877304E+01 -0.77845107726E+00  0.25857147078E+02  0.41800000000E+01 0.  1.
         -5    1    3    3    0  502  0.13450965478E+03 -0.10735619610E+03  0.70131135020E+02  0.18588719313E+03  0.41800000000E+01 0.  1.
        -11    1    1    2    0    0 -0.35932525319E+02  0.26623033438E+02 -0.18652655454E+03  0.19181263731E+03  0.00000000000E+00 0.  1.
         11    1    1    2    0    0 -0.73405368311E+02  0.84843650392E+02 -0.11365430322E+03  0.15970001174E+03  0.00000000000E+00 0. -1.
</event>
<event>
 7    1  0.2666594E-009  0.1396943E+03  0.7561462E-02  0.1213741E+00
         -2   -1    0    0    0  501 -0.00000000000E+00  0.00000000000E+00  0.25570103335E+02  0.25570103335E+02  0.00000000000E+00 0.  1.
          2   -1    0    0  501    0  0.00000000000E+00 -0.00000000000E+00 -0.10524465492E+04  0.10524465492E+04  0.00000000000E+00 0. -1.
         25    2    1    2    0    0  0.11461202241E+03 -0.20885721393E+02 -0.64141276439E+03  0.66379979162E+03  0.12509076699E+03 0.  0.
          5    1    3    3  502    0  0.46513783251E+02 -0.34998218511E+02 -0.85382879029E+02  0.10342202745E+03  0.41800000000E+01 0.  1.
         -5    1    3    3    0  502  0.68098239159E+02  0.14112497118E+02 -0.55602988536E+03  0.56037776416E+03  0.41800000000E+01 0.  1.
        -11    1    1    2    0    0 -0.10830676098E+03 -0.19872700784E+02 -0.29126693652E+03  0.31138674831E+03  0.00000000000E+00 0.  1.
         11    1    1    2    0    0 -0.63052614254E+01  0.40758422176E+02 -0.94196744948E+02  0.10283011261E+03  0.00000000000E+00 0. -1.
</event>
<event>
 7    1  0.2666594E-009  0.2199941E+03  0.7561462E-02  0.1133887E+00
          1   -1    0    0  501    0  0.00000000000E+00  0.00000000000E+00  0.34398054732E+02  0.34398054732E+02  0.00000000000E+00 0. -1.
         -1   -1    0    0    0  501 -0.00000000000E+00 -0.00000000000E+00 -0.15607628616E+04  0.15607628616E+04  0.00000000000E+00 0.  1.
         25    2    1    2    0    0  0.54841705916E+02 -0.18985781207E+03 -0.97403886422E+03  0.10017247274E+04  0.12508844475E+03 0.  0.
          5    1    3    3  502    0 -0.40662410895E+02 -0.56000976850E+02 -0.29943227815E+03  0.30735436009E+03  0.41800000000E+01 0.  1.
         -5    1    3    3    0  502  0.95504116811E+02 -0.13385683522E+03 -0.67460658607E+03  0.69437036733E+03  0.41800000000E+01 0.  1.
        -11    1    1    2    0    0 -0.56239090360E+02  0.88865524257E+02 -0.37387783847E+03  0.38838711974E+03  0.00000000000E+00 0.  1.
         11    1    1    2    0    0  0.13973844444E+01  0.10099228781E+03 -0.17844810421E+03  0.20504906919E+03  0.00000000000E+00 0. -1.
</event>
<event>
 7    1  0.2666594E-009  0.1188552E+03  0.7561462E-02  0.1244998E+00
          3   -1    0    0  501    0  0.00000000000E+00  0.00000000000E+00  0.40095820297E+03  0.40095820297E+03  0.00000000000E+00 0. -1.
         -3   -1    0    0    0  501 -0.00000000000E+00 -0.00000000000E+00 -0.37657977237E+02  0.37657977237E+02  0.00000000000E+00 0.  1.
         25    2    1    2    0    0  0.50649411976E+02 -0.22136155946E+02  0.17138452321E+03  0.21925996211E+03  0.12508758475E+03 0.  0.
          5    1    3    3  502    0  0.58967286695E+02 -0.66402399824E+02  0.92301350271E+02  0.12815393581E+03  0.41800000000E+01 0. -1.
         -5    1    3    3    0  502 -0.83178747189E+01  0.44266243878E+02  0.79083172935E+02  0.91106026301E+02  0.41800000000E+01 0. -1.
        -11    1    1    2    0    0 -0.67180479963E+02 -0.95275396013E+01  0.10100300832E+03  0.12167825849E+03  0.00000000000E+00 0.  1.
         11    1    1    2    0    0  0.16531067987E+02  0.31663695547E+02  0.90912694202E+02  0.97677959600E+02  0.00000000000E+00 0. -1.
</event>
<event>
 7    1  0.2666594E-009  0.6878478E+02  0.7561462E-02  0.1364275E+00
          2   -1    0    0  501    0  0.00000000000E+00  0.00000000000E+00  0.75954677293E+03  0.75954677293E+03  0.00000000000E+00 0. -1.
         -2   -1    0    0    0  501 -0.00000000000E+00 -0.00000000000E+00 -0.32554895669E+02  0.32554895669E+02  0.00000000000E+00 0.  1.
         25    2    1    2    0    0 -0.66223970682E+02  0.10325088159E+02  0.62107825193E+03  0.63708559566E+03  0.12509052500E+03 0.  0.
          5    1    3    3  502    0 -0.23562312034E+02  0.11165656704E+02  0.56907462660E+03  0.56968698202E+03  0.41800000000E+01 0.  1.
         -5    1    3    3    0  502 -0.42661658649E+02 -0.84056854460E+00  0.52003625324E+02  0.67398613643E+02  0.41800000000E+01 0.  1.
        -11    1    1    2    0    0  0.29190288867E+02 -0.11145322333E+02 -0.10412065237E+02  0.32934818605E+02  0.00000000000E+00 0.  1.
         11    1    1    2    0    0  0.37033681816E+02  0.82023417455E+00  0.11632569057E+03  0.12208125433E+03  0.00000000000E+00 0. -1.
</event>
<event>
 7    1  0.2666594E-009  0.1424554E+03  0.7561462E-02  0.1210063E+00
          2   -1    0    0  501    0  0.00000000000E+00  0.00000000000E+00  0.63185441913E+03  0.63185441913E+03  0.00000000000E+00 0.  1.
         -2   -1    0    0    0  501 -0.00000000000E+00 -0.00000000000E+00 -0.37689201532E+02  0.37689201532E+02  0.00000000000E+00 0. -1.
         25    2    1    2    0    0 -0.99215652166E+02  0.41232276653E+02  0.28939142748E+03  0.33307435849E+03  0.12508910310E+03 0.  0.
          5    1    3    3  502    0 -0.73250494981E+02  0.81513876864E+02  0.24129259343E+03  0.26504666604E+03  0.41800000000E+01 0. -1.
         -5    1    3    3    0  502 -0.25965157185E+02 -0.40281600211E+02  0.48098834050E+02  0.68027692450E+02  0.41800000000E+01 0. -1.
        -11    1    1    2    0    0  0.55695769134E+02  0.13400913715E+02  0.21624207146E+03  0.22370122185E+03  0.00000000000E+00 0.  1.
         11    1    1    2    0    0  0.43519883032E+02 -0.54633190368E+02  0.88531718657E+02  0.11276804032E+03  0.00000000000E+00 0. -1.
</event>
<event>
 7    1  0.2666594E-009  0.1144924E+03  0.7561462E-02  0.1252470E+00
          1   -1    0    0  501    0  0.00000000000E+00  0.00000000000E+00  0.35431733599E+03  0.35431733599E+03  0.00000000000E+00 0. -1.
         -1   -1    0    0    0  501 -0.00000000000E+00 -0.00000000000E+00 -0.45275991218E+02  0.45275991218E+02  0.00000000000E+00 0.  1.
         25    2    1    2    0    0 -0.27277746477E+02  0.32299291869E+02  0.25009992529E+03  0.28281014094E+03  0.12507711015E+03 0.  0.
          5    1    3    3  502    0 -0.58586900424E+02  0.62361115158E+02  0.19130180365E+03  0.20960721854E+03  0.41800000000E+01 0. -1.
         -5    1    3    3    0  502  0.31309153946E+02 -0.30061823289E+02  0.58798121635E+02  0.73202922402E+02  0.41800000000E+01 0. -1.
        -11    1    1    2    0    0 -0.26314858536E+02 -0.37561438048E+02  0.35756917144E+02  0.58154024208E+02  0.00000000000E+00 0.  1.
         11    1    1    2    0    0  0.53592605013E+02  0.52621461792E+01  0.23184502342E+02  0.58629162056E+02  0.00000000000E+00 0. -1.
</event>
<event>
 7    1  0.2666594E-009  0.1440434E+03  0.7561462E-02  0.1207990E+00
         -1   -1    0    0    0  501 -0.00000000000E+00  0.00000000000E+00  0.20197137542E+03  0.20197137542E+03  0.00000000000E+00 0.  1.
          1   -1    0    0  501    0  0.00000000000E+00 -0.00000000000E+00 -0.12761404946E+03  0.12761404946E+03  0.00000000000E+00 0. -1.
         25    2    1    2    0    0 -0.93460449300E+02 -0.51077509578E+02 -0.13151683648E+02  0.16481580689E+03  0.12509003097E+03 0.  0.
          5    1    3    3  502    0 -0.56588697190E+01  0.30257509721E+02 -0.30822480918E+02  0.43761140650E+02  0.41800000000E+01 0. -1.
         -5    1    3    3    0  502 -0.87801579581E+02 -0.81335019299E+02  0.17670797270E+02  0.12105466624E+03  0.41800000000E+01 0. -1.
        -11    1    1    2    0    0 -0.88295817878E+00  0.42524647313E+02  0.41622091341E+02  0.59510702667E+02  0.00000000000E+00 0.  1.
         11    1    1    2    0    0  0.94343407479E+02  0.85528622643E+01  0.45886918265E+02  0.10525891533E+03  0.00000000000E+00 0. -1.
</event>
<event>
 7    1  0.3073638E-009  0.7520308E+02  0.7561462E-02  0.1343243E+00
         -3   -1    0    0    0  501 -0.00000000000E+00  0.00000000000E+00  0.13409613879E+03  0.13409613879E+03  0.00000000000E+00 0.  1.
          3   -1    0    0  501    0  0.00000000000E+00 -0.00000000000E+00 -0.13186118875E+03  0.13186118875E+03  0.00000000000E+00 0. -1.
         25    2    1    2    0    0 -0.62923985411E+02  0.40530899176E+02  0.21227784414E+02  0.14731021398E+03  0.12508996196E+03 0.  0.
          5    1    3    3  502    0 -0.48560148496E+02  0.30929880880E+02 -0.48473283764E+02  0.75378227573E+02  0.41800000000E+01 0. -1.
         -5    1    3    3    0  502 -0.14363836915E+02  0.96010182954E+01  0.69701068178E+02  0.71931986406E+02  0.41800000000E+01 0. -1.
        -11    1    1    2    0    0  0.22257939469E+02 -0.16017934294E+02  0.36473661789E+02  0.45632423700E+02  0.00000000000E+00 0.  1.
         11    1    1    2    0    0  0.40666045942E+02 -0.24512964882E+02 -0.55466496162E+02  0.73014689866E+02  0.00000000000E+00 0. -1.
</event>
<event>
 7    1  0.2666594E-009  0.1002780E+03  0.7561462E-02  0.1279712E+00
          2   -1    0    0  501    0  0.00000000000E+00  0.00000000000E+00  0.29150031796E+03  0.29150031796E+03  0.00000000000E+00 0. -1.
         -2   -1    0    0    0  501 -0.00000000000E+00 -0.00000000000E+00 -0.45987754875E+02  0.45987754875E+02  0.00000000000E+00 0.  1.
         25    2    1    2    0    0  0.36391484291E+02 -0.12717430245E+02  0.13830813651E+03  0.19042697911E+03  0.12508885077E+03 0.  0.
          5    1    3    3  502    0 -0.84592456030E+01  0.34342568079E+02 -0.20644839678E+01  0.35674995620E+02  0.41800000000E+01 0. -1.
         -5    1    3    3    0  502  0.44850729894E+02 -0.47059998325E+02  0.14037262048E+03  0.15475198349E+03  0.41800000000E+01 0. -1.
        -11    1    1    2    0    0 -0.53698810989E+02  0.40365698633E+02  0.80912852938E+02  0.10516578197E+03  0.00000000000E+00 0.  1.
         11    1    1    2    0    0  0.17307326698E+02 -0.27648268387E+02  0.26291573633E+02  0.41895311746E+02  0.00000000000E+00 0. -1.
</event>
<event>
 7    1  0.2666594E-009  0.6048279E+02  0.7561462E-02  0.1395817E+00
         -2   -1    0    0    0  501 -0.00000000000E+00  0.00000000000E+00  0.12196549208E+03  0.12196549208E+03  0.00000000000E+00 0.  1.
          2   -1    0    0  501    0  0.00000000000E+00 -0.00000000000E+00 -0.11009848250E+03  0.11009848250E+03  0.00000000000E+00 0. -1.
         25    2    1    2    0    0 -0.34520256541E+02 -0.77079607227E+01 -0.21473455218E+02  0.13175816774E+03  0.12509214491E+03 0.  0.
          5    1    3    3  502    0 -0.11553124022E+02 -0.83922369515E+01  0.52300556718E+02  0.54375775385E+02  0.41800000000E+01 0. -1.
         -5    1    3    3    0  502 -0.22967132518E+02  0.68427622881E+00 -0.73774011936E+02  0.77382392359E+02  0.41800000000E+01 0. -1.
        -11    1    1    2    0    0  0.56469236469E+02 -0.61056913406E+01 -0.15657774667E+01  0.56819941862E+02  0.00000000000E+00 0. -1.
         11    1    1    2    0    0 -0.21948979928E+02  0.13813652063E+02  0.34906242261E+02  0.43485864968E+02  0.00000000000E+00 0.  1.
</event>
<event>
 7    1  0.2666594E-009  0.1055340E+03  0.7561462E-02  0.1269071E+00
          1   -1    0    0  501    0  0.00000000000E+00  0.00000000000E+00  0.18076312434E+03  0.18076312434E+03  0.00000000000E+00 0. -1.
         -1   -1    0    0    0  501 -0.00000000000E+00 -0.00000000000E+00 -0.67314727901E+02  0.67314727901E+02  0.00000000000E+00 0.  1.
         25    2    1    2    0    0  0.51021732538E+00  0.81997063168E+01  0.40768256788E+02  0.13182233179E+03  0.12509029096E+03 0.  0.
          5    1    3    3  502    0  0.30897627712E+02  0.57460475611E+02  0.33135007716E+02  0.73292365168E+02  0.41800000000E+01 0. -1.
         -5    1    3    3    0  502 -0.30387410387E+02 -0.49260769294E+02  0.76332490715E+01  0.58529966622E+02  0.41800000000E+01 0. -1.
        -11    1    1    2    0    0 -0.43839383985E+02 -0.63270077577E+01  0.21700225129E+02  0.49323649358E+02  0.00000000000E+00 0.  1.
         11    1    1    2    0    0  0.43329166659E+02 -0.18726985591E+01  0.50979914524E+02  0.66931871094E+02  0.00000000000E+00 0. -1.
</event>
<event>
 7    1  0.2666594E-009  0.1002749E+03  0.7561462E-02  0.1279719E+00
          1   -1    0    0  501    0  0.00000000000E+00  0.00000000000E+00  0.17489725737E+03  0.17489725737E+03  0.00000000000E+00 0. -1.
         -1   -1    0    0    0  501 -0.00000000000E+00 -0.00000000000E+00 -0.80328553598E+02  0.80328553598E+02  0.00000000000E+00 0.  1.
         25    2    1    2    0    0 -0.37187297560E+02 -0.20956096348E+02  0.69594006277E+02  0.14938145796E+03  0.12509772660E+03 0.  0.
          5    1    3    3  502    0  0.17905889916E+02  0.38698865008E+02  0.76739017541E+00  0.42851888339E+02  0.41800000000E+01 0.  1.
         -5    1    3    3    0  502 -0.55093187476E+02 -0.59654961356E+02  0.68826616101E+02  0.10652956963E+03  0.41800000000E+01 0.  1.
        -11    1    1    2    0    0  0.59611694658E+01  0.39586198415E+02 -0.22595298739E+02  0.45969013166E+02  0.00000000000E+00 0.  1.
         11    1    1    2    0    0  0.31226128095E+02 -0.18630102067E+02  0.47569996233E+02  0.59875339835E+02  0.00000000000E+00 0. -1.
</event>
<event>
 7    1  0.2666594E-009  0.1405390E+03  0.7561462E-02  0.1212606E+00
          1   -1    0    0  501    0  0.00000000000E+00  0.00000000000E+00  0.10586776494E+03  0.10586776494E+03  0.00000000000E+00 0. -1.
         -1   -1    0    0    0  501 -0.00000000000E+00 -0.00000000000E+00 -0.28055738757E+03  0.28055738757E+03  0.00000000000E+00 0.  1.
         25    2    1    2    0    0  0.98102023054E+02  0.52209095804E+02 -0.98881567648E+01  0.16761516751E+03  0.12508905677E+03 0.  0.
          5    1    3    3  502    0 -0.25918863875E+02  0.13939431563E+02  0.18062815619E+02  0.34782653219E+02  0.41800000000E+01 0. -1.
         -5    1    3    3    0  502  0.12402088693E+03  0.38269664241E+02 -0.27950972384E+02  0.13283251429E+03  0.41800000000E+01 0. -1.
        -11    1    1    2    0    0 -0.42894863925E+02  0.35338846730E+01 -0.84256917932E+01  0.43857154196E+02  0.00000000000E+00 0. -1.
         11    1    1    2    0    0 -0.55207159130E+02 -0.55742980477E+02 -0.15637577407E+03  0.17495283080E+03  0.00000000000E+00 0.  1.
</event>
<event>
 7    1  0.2666594E-009  0.9074603E+02  0.7561462E-02  0.1301055E+00
         -1   -1    0    0    0  501 -0.00000000000E+00  0.00000000000E+00  0.20973566235E+02  0.20973566235E+02  0.00000000000E+00 0.  1.
          1   -1    0    0  501    0  0.00000000000E+00 -0.00000000000E+00 -0.66573262302E+03  0.66573262302E+03  0.00000000000E+00 0. -1.
         25    2    1    2    0    0  0.37607211900E+01 -0.16396131572E+02 -0.23453271912E+03  0.26633734672E+03  0.12508800807E+03 0.  0.
          5    1    3    3  502    0  0.34125419894E+02  0.25890352408E+02 -0.19794493248E+03  0.20256979865E+03  0.41800000000E+01 0.  1.
         -5    1    3    3    0  502 -0.30364698704E+02 -0.42286483980E+02 -0.36587786643E+02  0.63767548065E+02  0.41800000000E+01 0.  1.
        -11    1    1    2    0    0 -0.19925897209E+01 -0.34871574034E+02 -0.99874302053E+02  0.10580582829E+03  0.00000000000E+00 0.  1.
         11    1    1    2    0    0 -0.17681314690E+01  0.51267705606E+02 -0.31035203561E+03  0.31456301425E+03  0.00000000000E+00 0. -1.
</event>
<event>
 7    1  0.2666594E-009  0.1192779E+03  0.7561462E-02  0.1244293E+00
         -4   -1    0    0    0  501 -0.00000000000E+00  0.00000000000E+00  0.25372337466E+02  0.25372337466E+02  0.00000000000E+00 0.  1.
          4   -1    0    0  501    0  0.00000000000E+00 -0.00000000000E+00 -0.58610867756E+03  0.58610867756E+03  0.00000000000E+00 0. -1.
         25    2    1    2    0    0 -0.52829840349E+02 -0.23293283672E+02 -0.33034823096E+03  0.35792673672E+03  0.12509207034E+03 0.  0.
          5    1    3    3  502    0  0.20359884470E+02 -0.50793023389E+02 -0.18320699582E+03  0.19125044271E+03  0.41800000000E+01 0. -1.
         -5    1    3    3    0  502 -0.73189724819E+02  0.27499739718E+02 -0.14714123515E+03  0.16667629401E+03  0.41800000000E+01 0. -1.
        -11    1    1    2    0    0 -0.10525316818E+02  0.38758527598E+02 -0.10008107562E+03  0.10783889582E+03  0.00000000000E+00 0.  1.
         11    1    1    2    0    0  0.63355157167E+02 -0.15465243926E+02 -0.13030703351E+03  0.14571538248E+03  0.00000000000E+00 0. -1.
</event>
<event>
 7    1  0.2666594E-009  0.1380926E+03  0.7561462E-02  0.1215919E+00
         -1   -1    0    0    0  501 -0.00000000000E+00  0.00000000000E+00  0.42169525975E+02  0.42169525975E+02  0.00000000000E+00 0.  1.
          1   -1    0    0  501    0  0.00000000000E+00 -0.00000000000E+00 -0.53288328033E+03  0.53288328033E+03  0.00000000000E+00 0. -1.
         25    2    1    2    0    0 -0.98436297439E+02 -0.30121029390E+02 -0.27907225166E+03  0.32268535371E+03  0.12509010667E+03 0.  0.
          5    1    3    3  502    0 -0.12060949231E+03  0.35769227115E+01 -0.19516340427E+03  0.22949002326E+03  0.41800000000E+01 0. -1.
         -5    1    3    3    0  502  0.22173194867E+02 -0.33697952101E+02 -0.83908847399E+02  0.93195330453E+02  0.41800000000E+01 0. -1.
        -11    1    1    2    0    0  0.55858791026E+02 -0.95870757700E+01 -0.35553068212E+02  0.66903940212E+02  0.00000000000E+00 0.  1.
         11    1    1    2    0    0  0.42577506414E+02  0.39708105160E+02 -0.17608843447E+03  0.18546351238E+03  0.00000000000E+00 0. -1.
</event>
<event>
 7    1  0.2666594E-009  0.1359143E+03  0.7561462E-02  0.1218935E+00
          2   -1    0    0  501    0  0.00000000000E+00  0.00000000000E+00  0.35305080206E+02  0.35305080206E+02  0.00000000000E+00 0. -1.
         -2   -1    0    0    0  501 -0.00000000000E+00 -0.00000000000E+00 -0.59762718737E+03  0.59762718737E+03  0.00000000000E+00 0.  1.
         25    2    1    2    0    0  0.80161758439E+02 -0.33020873219E+02 -0.38990913595E+03  0.41856370800E+03  0.12510059061E+03 0.  0.
          5    1    3    3  502    0  0.54825162475E+02  0.43378262672E+02 -0.15164715082E+03  0.16703832753E+03  0.41800000000E+01 0. -1.
         -5    1    3    3    0  502  0.25336595964E+02 -0.76399135891E+02 -0.23826198513E+03  0.25152538046E+03  0.41800000000E+01 0. -1.
        -11    1    1    2    0    0 -0.92848059333E+02  0.80636540595E+01 -0.15654720399E+03  0.18218894510E+03  0.00000000000E+00 0.  1.
         11    1    1    2    0    0  0.12686300894E+02  0.24957219160E+02 -0.15865767223E+02  0.32179614481E+02  0.00000000000E+00 0. -1.
</event>
<event>
 7    1  0.2731938E-009  0.1488017E+03  0.7561462E-02  0.1201953E+00
          2   -1    0    0  501    0  0.00000000000E+00  0.00000000000E+00  0.88923424542E+02  0.88923424542E+02  0.00000000000E+00 0. -1.
         -2   -1    0    0    0  501 -0.00000000000E+00 -0.00000000000E+00 -0.32526872411E+03  0.32526872411E+03  0.00000000000E+00 0.  1.
         25    2    1    2    0    0  0.24791929394E+02  0.12549942855E+03 -0.15692777446E+03  0.23798746312E+03  0.12508780865E+03 0.  0.
          5    1    3    3  502    0  0.67326947605E+02  0.85692794846E+02 -0.13943295138E+03  0.17701749431E+03  0.41800000000E+01 0. -1.
         -5    1    3    3    0  502 -0.42535018211E+02  0.39806633704E+02 -0.17494823079E+02  0.60969968802E+02  0.41800000000E+01 0. -1.
        -11    1    1    2    0    0 -0.24015734357E+02 -0.59895316477E+02  0.99983981491E+01  0.65300630917E+02  0.00000000000E+00 0. -1.
         11    1    1    2    0    0 -0.77619503750E+00 -0.65604112073E+02 -0.89415923258E+02  0.11090405462E+03  0.00000000000E+00 0.  1.
</event>
<event>
 7    1  0.2666594E-009  0.7399845E+02  0.7561462E-02  0.1347001E+00
         -2   -1    0    0    0  501 -0.00000000000E+00  0.00000000000E+00  0.10765345593E+04  0.10765345593E+04  0.00000000000E+00 0.  1.
          2   -1    0    0  501    0  0.00000000000E+00 -0.00000000000E+00 -0.13560671780E+02  0.13560671780E+02  0.00000000000E+00 0. -1.
         25    2    1    2    0    0  0.33641131585E+02  0.14531620173E+02  0.76024446498E+03  0.77133784428E+03  0.12509008660E+03 0.  0.
          5    1    3    3  502    0  0.21841045297E+02  0.40125631762E+02  0.95134526736E+02  0.10561793485E+03  0.41800000000E+01 0. -1.
         -5    1    3    3    0  502  0.11800086288E+02 -0.25594011589E+02  0.66510993824E+03  0.66571990943E+03  0.41800000000E+01 0. -1.
        -11    1    1    2    0    0  0.18542858368E+02  0.25585594887E+01  0.10599018842E+02  0.21510997734E+02  0.00000000000E+00 0. -1.
         11    1    1    2    0    0 -0.52183989953E+02 -0.17090179662E+02  0.29213040373E+03  0.29724638910E+03  0.00000000000E+00 0.  1.
</event>
<event>
 7    1  0.2666594E-009  0.1081207E+03  0.7561462E-02  0.1264090E+00
         -1   -1    0    0    0  501 -0.00000000000E+00  0.00000000000E+00  0.21087826387E+02  0.21087826387E+02  0.00000000000E+00 0.  1.
          1   -1    0    0  501    0  0.00000000000E+00 -0.00000000000E+00 -0.87443458290E+03  0.87443458290E+03  0.00000000000E+00 0. -1.
         25    2    1    2    0    0  0.42098632453E+02  0.61477111354E+02 -0.55519766219E+03  0.57397175204E+03  0.12508955980E+03 0.  0.
          5    1    3    3  502    0 -0.10348837459E+02 -0.18804457685E+02 -0.18163220390E+02  0.28426766269E+02  0.41800000000E+01 0.  1.
         -5    1    3    3    0  502  0.52447469912E+02  0.80281569040E+02 -0.53703444180E+03  0.54554498578E+03  0.41800000000E+01 0.  1.
        -11    1    1    2    0    0 -0.46324328023E+02 -0.10841081214E+02 -0.23847421871E+03  0.24317365277E+03  0.00000000000E+00 0. -1.
         11    1    1    2    0    0  0.42256955699E+01 -0.50636030141E+02 -0.59674875616E+02  0.78377004480E+02  0.00000000000E+00 0.  1.
</event>
<event>
 7    1  0.2666594E-009  0.1202184E+03  0.7561462E-02  0.1242737E+00
          2   -1    0    0  501    0  0.00000000000E+00  0.00000000000E+00  0.88006094500E+02  0.88006094500E+02  0.00000000000E+00 0.  1.
         -2   -1    0    0    0  501 -0.00000000000E+00 -0.00000000000E+00 -0.16891473239E+03  0.16891473239E+03  0.00000000000E+00 0. -1.
         25    2    1    2    0    0 -0.54610480524E+02  0.66026400392E+01 -0.42118818367E+02  0.14298720822E+03  0.12508176293E+03 0.  0.
          5    1    3    3  502    0 -0.76266609771E+02  0.47379721596E+02 -0.32933082452E+02  0.95726141175E+02  0.41800000000E+01 0.  1.
         -5    1    3    3    0  502  0.21656129247E+02 -0.40777081557E+02 -0.91857359159E+01  0.47261067049E+02  0.41800000000E+01 0.  1.
        -11    1    1    2    0    0  0.75929054313E+02  0.10775887016E+02 -0.39816449593E+02  0.86410014975E+02  0.00000000000E+00 0.  1.
         11    1    1    2    0    0 -0.21318573789E+02 -0.17378527055E+02  0.10266300683E+01  0.27523603694E+02  0.00000000000E+00 0. -1.
</event>
<event>
 7    1  0.2666594E-009  0.1369520E+03  0.7561462E-02  0.1217490E+00
          2   -1    0    0  501    0  0.00000000000E+00  0.00000000000E+00  0.60293474860E+03  0.60293474860E+03  0.00000000000E+00 0.  1.
         -2   -1    0    0    0  501 -0.00000000000E+00 -0.00000000000E+00 -0.31493158126E+02  0.31493158126E+02  0.00000000000E+00 0. -1.
         25    2    1    2    0    0  0.72647388475E+02  0.37017402785E+02  0.29169016689E+03  0.32768832816E+03  0.12509418768E+03 0.  0.
          5    1    3    3  502    0 -0.54864660545E+01 -0.39317063428E+02  0.73078961634E+02  0.83270281733E+02  0.41800000000E+01 0.  1.
         -5    1    3    3    0  502  0.78133854530E+02  0.76334466212E+02  0.21861120526E+03  0.24441804643E+03  0.41800000000E+01 0.  1.
        -11    1    1    2    0    0 -0.78942292124E+02  0.78822709751E+01  0.15752347249E+03  0.17637363768E+03  0.00000000000E+00 0. -1.
         11    1    1    2    0    0  0.62949036488E+01 -0.44899673760E+02  0.12222795109E+03  0.13036594089E+03  0.00000000000E+00 0.  1.
</event>
<event>
 7    1  0.2666594E-009  0.1687510E+03  0.7561462E-02  0.1179157E+00
          2   -1    0    0  501    0  0.00000000000E+00  0.00000000000E+00  0.66758274251E+03  0.66758274251E+03  0.00000000000E+00 0. -1.
         -2   -1    0    0    0  501 -0.00000000000E+00 -0.00000000000E+00 -0.52520527228E+02  0.52520527228E+02  0.00000000000E+00 0.  1.
         25    2    1    2    0    0 -0.13414391356E+03  0.55495748491E+02  0.41486373353E+03  0.45698237165E+03  0.12508638199E+03 0.  0.
          5    1    3    3  502    0 -0.13194273295E+01 -0.30844960078E+02  0.46459291452E+02  0.55938275027E+02  0.41800000000E+01 0.  1.
         -5    1    3    3    0  502 -0.13282448623E+03  0.86340708569E+02  0.36840444207E+03  0.40104409663E+03  0.41800000000E+01 0.  1.
        -11    1    1    2    0    0  0.50853327225E+02 -0.65751127450E+01  0.14050632142E+03  0.14957044948E+03  0.00000000000E+00 0. -1.
         11    1    1    2    0    0  0.83290586334E+02 -0.48920635746E+02  0.59692160333E+02  0.11355044861E+03  0.00000000000E+00 0.  1.
</event>
<event>
 7    1  0.2666594E-009  0.1168357E+03  0.7561462E-02  0.1248410E+00
          2   -1    0    0  501    0  0.00000000000E+00  0.00000000000E+00  0.12220410652E+03  0.12220410652E+03  0.00000000000E+00 0. -1.
         -2   -1    0    0    0  501 -0.00000000000E+00 -0.00000000000E+00 -0.14050374967E+03  0.14050374967E+03  0.00000000000E+00 0.  1.
         25    2    1    2    0    0 -0.52605822008E+02  0.46821662647E+02 -0.27516070838E+02  0.14616315490E+03  0.12508754172E+03 0.  0.
          5    1    3    3  502    0 -0.54124612138E+02 -0.32851395445E+02 -0.16891391985E+02  0.65661856089E+02  0.41800000000E+01 0. -1.
         -5    1    3    3    0  502  0.15187901300E+01  0.79673058092E+02 -0.10624678853E+02  0.80501298809E+02  0.41800000000E+01 0. -1.
        -11    1    1    2    0    0  0.30247937332E+02 -0.58009105006E+02 -0.28447044579E+02  0.71338827589E+02  0.00000000000E+00 0.  1.
         11    1    1    2    0    0  0.22357884676E+02  0.11187442360E+02  0.37663472271E+02  0.45205873703E+02  0.00000000000E+00 0. -1.
</event>
<event>
 7    1  0.2666594E-009  0.1250156E+03  0.7561462E-02  0.1235045E+00
          1   -1    0    0  501    0  0.00000000000E+00  0.00000000000E+00  0.62339543768E+03  0.62339543768E+03  0.00000000000E+00 0. -1.
         -1   -1    0    0    0  501 -0.00000000000E+00 -0.00000000000E+00 -0.36418688831E+02  0.36418688831E+02  0.00000000000E+00 0.  1.
         25    2    1    2    0    0  0.57930610621E+02 -0.72221321597E+02  0.42131138909E+03  0.44913601978E+03  0.12509197714E+03 0.  0.
          5    1    3    3  502    0 -0.33224491979E+02  0.75227648901E+01  0.10052110409E+03  0.10621875365E+03  0.41800000000E+01 0.  1.
         -5    1    3    3    0  502  0.91155102599E+02 -0.79744086487E+02  0.32079028500E+03  0.34291726613E+03  0.41800000000E+01 0.  1.
        -11    1    1    2    0    0 -0.98946662526E+01  0.26179713909E+02 -0.41492916498E+01  0.28293081519E+02  0.00000000000E+00 0.  1.
         11    1    1    2    0    0 -0.48035944368E+02  0.46041607687E+02  0.16981465140E+03  0.18238502521E+03  0.00000000000E+00 0. -1.
</event>
<event>
 7    1  0.2666594E-009  0.8935777E+02  0.7561462E-02  0.1304414E+00
         -3   -1    0    0    0  501 -0.00000000000E+00  0.00000000000E+00  0.14980272357E+03  0.14980272357E+03  0.00000000000E+00 0.  1.
          3   -1    0    0  501    0  0.00000000000E+00 -0.00000000000E+00 -0.94626674961E+02  0.94626674961E+02  0.00000000000E+00 0. -1.
         25    2    1    2    0    0  0.44659630793E+02  0.38748517883E+01  0.53622644479E+02  0.14329325151E+03  0.12509224927E+03 0.  0.
          5    1    3    3  502    0  0.50603493126E+02  0.44270593885E+02 -0.94674235385E+01  0.68027226226E+02  0.41800000000E+01 0.  1.
         -5    1    3    3    0  502 -0.59438623335E+01 -0.40395742097E+02  0.63090068018E+02  0.75266025280E+02  0.41800000000E+01 0.  1.
        -11    1    1    2    0    0  0.79605677870E+01 -0.14576739873E+02  0.34392684360E+02  0.38193045470E+02  0.00000000000E+00 0.  1.
         11    1    1    2    0    0 -0.52620198580E+02  0.10701888084E+02 -0.32839280230E+02  0.62943101554E+02  0.00000000000E+00 0. -1.
</event>
<event>
 7    1  0.2666594E-009  0.1215181E+03  0.7561462E-02  0.1240613E+00
          4   -1    0    0  501    0  0.00000000000E+00  0.00000000000E+00  0.35099197806E+03  0.35099197806E+03  0.00000000000E+00 0. -1.
         -4   -1    0    0    0  501 -0.00000000000E+00 -0.00000000000E+00 -0.46522958850E+02  0.46522958850E+02  0.00000000000E+00 0.  1.
         25    2    1    2    0    0  0.38145530290E+02  0.52871398386E+02  0.21578142801E+03  0.25779661481E+03  0.12508798377E+03 0.  0.
          5    1    3    3  502    0  0.31301786654E+02 -0.35551130714E+02  0.45782739484E+02  0.66009214338E+02  0.41800000000E+01 0. -1.
         -5    1    3    3    0  502  0.68437436362E+01  0.88422529100E+02  0.16999868852E+03  0.19178740047E+03  0.41800000000E+01 0. -1.
        -11    1    1    2    0    0 -0.62471922160E+02 -0.19582942261E+02  0.64564069838E+02  0.91949724306E+02  0.00000000000E+00 0.  1.
         11    1    1    2    0    0  0.24326391869E+02 -0.33288456125E+02  0.24123521370E+02  0.47768597801E+02  0.00000000000E+00 0. -1.
</event>
<event>
 7    1  0.2666594E-009  0.1328242E+03  0.7561462E-02  0.1223324E+00
          2   -1    0    0  501    0  0.00000000000E+00  0.00000000000E+00  0.10710869480E+04  0.10710869480E+04  0.00000000000E+00 0.  1.
         -2   -1    0    0    0  501 -0.00000000000E+00 -0.00000000000E+00 -0.22031400542E+02  0.22031400542E+02  0.00000000000E+00 0. -1.
         25    2    1    2    0    0  0.91944800601E+02  0.55014671758E+02  0.51333030496E+03  0.53910633563E+03  0.12508868319E+03 0.  0.
          5    1    3    3  502    0  0.10711059252E+03  0.56258151836E+02  0.50833969923E+03  0.52255562469E+03  0.41800000000E+01 0. -1.
         -5    1    3    3    0  502 -0.15165791915E+02 -0.12434800775E+01  0.49906057220E+01  0.16550710939E+02  0.41800000000E+01 0. -1.
        -11    1    1    2    0    0 -0.37307893679E+02  0.14818082082E+02  0.77419074358E+02  0.87207611834E+02  0.00000000000E+00 0. -1.
         11    1    1    2    0    0 -0.54636906923E+02 -0.69832753841E+02  0.45830616810E+03  0.46680440103E+03  0.00000000000E+00 0.  1.
</event>
<event>
 7    1  0.2666594E-009  0.8727818E+02  0.7561462E-02  0.1309580E+00
          1   -1    0    0  501    0  0.00000000000E+00  0.00000000000E+00  0.54146988442E+03  0.54146988442E+03  0.00000000000E+00 0. -1.
         -1   -1    0    0    0  501 -0.00000000000E+00 -0.00000000000E+00 -0.22832583449E+02  0.22832583449E+02  0.00000000000E+00 0.  1.
         25    2    1    2    0    0  0.32166651753E+01 -0.19582376404E+02  0.36703981240E+03  0.38828003254E+03  0.12509733561E+03 0.  0.
          5    1    3    3  502    0 -0.30743621966E+02  0.31782847692E+02  0.26747524435E+03  0.27113796938E+03  0.41800000000E+01 0.  1.
         -5    1    3    3    0  502  0.33960287141E+02 -0.51365224096E+02  0.99564568052E+02  0.11714206316E+03  0.41800000000E+01 0.  1.
        -11    1    1    2    0    0  0.24504494593E+02  0.30063796712E+02  0.13812547576E+03  0.14346758931E+03  0.00000000000E+00 0. -1.
         11    1    1    2    0    0 -0.27721159769E+02 -0.10481420308E+02  0.13472012808E+02  0.32554846025E+02  0.00000000000E+00 0.  1.
</event>
<event>
 7    1  0.2666594E-009  0.1158465E+03  0.7561462E-02  0.1250111E+00
         -1   -1    0    0    0  501 -0.00000000000E+00  0.00000000000E+00  0.31426449985E+02  0.31426449985E+02  0.00000000000E+00 0.  1.
          1   -1    0    0  501    0  0.00000000000E+00 -0.00000000000E+00 -0.66370628657E+03  0.66370628657E+03  0.00000000000E+00 0. -1.
         25    2    1    2    0    0  0.30716715729E+02 -0.87438239331E+02 -0.32722519524E+03  0.36237085284E+03  0.12508934514E+03 0.  0.
          5    1    3    3  502    0 -0.20328200958E+01  0.22438300588E+02 -0.99362212532E+01  0.24976200344E+02  0.41800000000E+01 0. -1.
         -5    1    3    3    0  502  0.32749535825E+02 -0.10987653992E+03 -0.31728897398E+03  0.33739465249E+03  0.41800000000E+01 0. -1.
        -11    1    1    2    0    0 -0.20369261387E+02  0.34135812575E+02 -0.23837238679E+02  0.46350560487E+02  0.00000000000E+00 0.  1.
         11    1    1    2    0    0 -0.10347454342E+02  0.53302426756E+02 -0.28121740267E+03  0.28641132323E+03  0.00000000000E+00 0. -1.
</event>
<event>
 7    1  0.2666594E-009  0.2795289E+03  0.7561462E-02  0.1095947E+00
          1   -1    0    0  501    0  0.00000000000E+00  0.00000000000E+00  0.11189123722E+03  0.11189123722E+03  0.00000000000E+00 0. -1.
         -1   -1    0    0    0  501 -0.00000000000E+00 -0.00000000000E+00 -0.82291897772E+03  0.82291897772E+03  0.00000000000E+00 0.  1.
         25    2    1    2    0    0  0.21166710297E+03  0.16534034882E+03 -0.22502599075E+03  0.37205454220E+03  0.12508993739E+03 0.  0.
          5    1    3    3  502    0  0.66960311245E+02  0.10178189935E+03 -0.15988218095E+03  0.20105477488E+03  0.41800000000E+01 0. -1.
         -5    1    3    3    0  502  0.14470679172E+03  0.63558449474E+02 -0.65143809800E+02  0.17099976732E+03  0.41800000000E+01 0. -1.
        -11    1    1    2    0    0 -0.68235114929E+02 -0.12362121092E+02 -0.16895327389E+03  0.18263094399E+03  0.00000000000E+00 0.  1.
         11    1    1    2    0    0 -0.14343198804E+03 -0.15297822773E+03 -0.31704847587E+03  0.38012472875E+03  0.00000000000E+00 0. -1.
</event>
<event>
 7    1  0.2666594E-009  0.3286937E+03  0.7561462E-02  0.1071716E+00
          1   -1    0    0  501    0  0.00000000000E+00  0.00000000000E+00  0.70010328932E+03  0.70010328932E+03  0.00000000000E+00 0. -1.
         -1   -1    0    0    0  501 -0.00000000000E+00 -0.00000000000E+00 -0.16293238107E+03  0.16293238107E+03  0.00000000000E+00 0.  1.
         25    2    1    2    0    0  0.18183850341E+03 -0.25476601875E+03  0.35493279230E+03  0.48948709336E+03  0.12509740956E+03 0.  0.
          5    1    3    3  502    0 -0.34408806749E+01  0.10544756105E+02  0.50608097882E+01  0.12888589405E+02  0.41800000000E+01 0. -1.
         -5    1    3    3    0  502  0.18527938409E+03 -0.26531077486E+03  0.34987198251E+03  0.47659850395E+03  0.41800000000E+01 0. -1.
        -11    1    1    2    0    0 -0.49285257224E+02  0.13328364507E+03  0.51128960498E+02  0.15102230704E+03  0.00000000000E+00 0.  1.
         11    1    1    2    0    0 -0.13255324619E+03  0.12148237368E+03  0.13110915545E+03  0.22252626999E+03  0.00000000000E+00 0. -1.
</event>
<event>
 7    1  0.2666594E-009  0.9409318E+02  0.7561462E-02  0.1293232E+00
          1   -1    0    0  501    0  0.00000000000E+00  0.00000000000E+00  0.11579662976E+03  0.11579662976E+03  0.00000000000E+00 0. -1.
         -1   -1    0    0    0  501 -0.00000000000E+00 -0.00000000000E+00 -0.12004184734E+03  0.12004184734E+03  0.00000000000E+00 0.  1.
         25    2    1    2    0    0 -0.15913430255E+02  0.27309458234E+02 -0.35243791778E+02  0.13374973921E+03  0.12509126311E+03 0.  0.
          5    1    3    3  502    0  0.42837705286E+02 -0.19471698495E+02  0.65635450704E+01  0.47694533862E+02  0.41800000000E+01 0.  1.
         -5    1    3    3    0  502 -0.58751135541E+02  0.46781156729E+02 -0.41807336849E+02  0.86055205343E+02  0.41800000000E+01 0.  1.
        -11    1    1    2    0    0  0.24186843054E+01  0.18148819356E+02  0.48267233796E+02  0.51623207341E+02  0.00000000000E+00 0. -1.
         11    1    1    2    0    0  0.13494745950E+02 -0.45458277590E+02 -0.17268659603E+02  0.50465530555E+02  0.00000000000E+00 0.  1.
</event>
<event>
 7    1  0.2666594E-009  0.1152008E+03  0.7561462E-02  0.1251231E+00
         -2   -1    0    0    0  501 -0.00000000000E+00  0.00000000000E+00  0.13373955632E+03  0.13373955632E+03  0.00000000000E+00 0.  1.
          2   -1    0    0  501    0  0.00000000000E+00 -0.00000000000E+00 -0.10624672517E+03  0.10624672517E+03  0.00000000000E+00 0. -1.
         25    2    1    2    0    0 -0.30812774289E+02 -0.14239756361E+01  0.36038286738E+02  0.13378717710E+03  0.12509514730E+03 0.  0.
          5    1    3    3  502    0 -0.54641492753E+02 -0.47636299521E+02  0.43217457497E+01  0.72739670392E+02  0.41800000000E+01 0.  1.
         -5    1    3    3    0  502  0.23828718464E+02  0.46212323885E+02  0.31716540989E+02  0.61047506704E+02  0.41800000000E+01 0.  1.
        -11    1    1    2    0    0  0.42597369286E+02 -0.42487031899E+02 -0.14298838636E+01  0.60180796917E+02  0.00000000000E+00 0.  1.
         11    1    1    2    0    0 -0.11784594997E+02  0.43911007535E+02 -0.71155717301E+01  0.46018307477E+02  0.00000000000E+00 0. -1.
</event>
<event>
 7    1  0.2666594E-009  0.1198819E+03  0.7561462E-02  0.1243292E+00
          1   -1    0    0  501    0  0.00000000000E+00  0.00000000000E+00  0.51697964139E+02  0.51697964139E+02  0.00000000000E+00 0. -1.
         -1   -1    0    0    0  501 -0.00000000000E+00 -0.00000000000E+00 -0.48090952027E+03  0.48090952027E+03  0.00000000000E+00 0.  1.
         25    2    1    2    0    0  0.31384217856E+02 -0.10679033445E+03 -0.25097400106E+03  0.30170311797E+03  0.12509067721E+03 0.  0.
          5    1    3    3  502    0  0.35615099582E+02 -0.81155239007E+02 -0.55908705288E+02  0.10487070069E+03  0.41800000000E+01 0.  1.
         -5    1    3    3    0  502 -0.42308817265E+01 -0.25635095443E+02 -0.19506529577E+03  0.19683241728E+03  0.41800000000E+01 0.  1.
        -11    1    1    2    0    0  0.14374528816E+02  0.48685907221E+02 -0.17035640801E+02  0.53545846693E+02  0.00000000000E+00 0. -1.
         11    1    1    2    0    0 -0.45758746671E+02  0.58104427229E+02 -0.16120191428E+03  0.17735851975E+03  0.00000000000E+00 0.  1.
</event>
<event>
 7    1  0.2704821E-009  0.9465015E+02  0.7561462E-02  0.1291966E+00
          1   -1    0    0  501    0  0.00000000000E+00  0.00000000000E+00  0.60134686847E+03  0.60134686847E+03  0.00000000000E+00 0. -1.
         -1   -1    0    0    0  501 -0.00000000000E+00 -0.00000000000E+00 -0.35953670075E+02  0.35953670075E+02  0.00000000000E+00 0.  1.
         25    2    1    2    0    0 -0.67264400315E+02  0.15040715237E+02  0.45915355236E+03  0.48085377284E+03  0.12509054138E+03 0.  0.
          5    1    3    3  502    0 -0.88336015600E+02  0.30204928225E+02  0.20443454401E+03  0.22478110358E+03  0.41800000000E+01 0.  1.
         -5    1    3    3    0  502  0.21071615285E+02 -0.15164212987E+02  0.25471900835E+03  0.25607266926E+03  0.41800000000E+01 0.  1.
        -11    1    1    2    0    0  0.17731694663E+02  0.19017421020E+00  0.10300951511E+03  0.10452468305E+03  0.00000000000E+00 0. -1.
         11    1    1    2    0    0  0.49532705651E+02 -0.15230889448E+02  0.32301309241E+01  0.51922082665E+02  0.00000000000E+00 0.  1.
</event>
<event>
 7    1  0.2666594E-009  0.1963847E+03  0.7561462E-02  0.1152826E+00
          1   -1    0    0  501    0  0.00000000000E+00  0.00000000000E+00  0.10272104911E+04  0.10272104911E+04  0.00000000000E+00 0. -1.
         -1   -1    0    0    0  501 -0.00000000000E+00 -0.00000000000E+00 -0.91582899875E+02  0.91582899875E+02  0.00000000000E+00 0.  1.
         25    2    1    2    0    0 -0.14271118464E+03 -0.80966812655E+02  0.90521698479E+03  0.92843143595E+03  0.12508011329E+03 0.  0.
          5    1    3    3  502    0 -0.14358197373E+03 -0.10721964915E+03  0.80786352313E+03  0.82750998831E+03  0.41800000000E+01 0.  1.
         -5    1    3    3    0  502  0.87078908473E+00  0.26252836498E+02  0.97353461656E+02  0.10092144764E+03  0.41800000000E+01 0.  1.
        -11    1    1    2    0    0  0.98979519820E+02  0.98657542906E+02  0.14156402932E+02  0.14046586724E+03  0.00000000000E+00 0. -1.
         11    1    1    2    0    0  0.43731664824E+02 -0.17690730251E+02  0.16254203517E+02  0.49896087793E+02  0.00000000000E+00 0.  1.
</event>
<event>
 7    1  0.2666594E-009  0.1564453E+03  0.7561462E-02  0.1192769E+00
         -2   -1    0    0    0  501 -0.00000000000E+00  0.00000000000E+00  0.66838984736E+02  0.66838984736E+02  0.00000000000E+00 0.  1.
          2   -1    0    0  501    0  0.00000000000E+00 -0.00000000000E+00 -0.38111967336E+03  0.38111967336E+03  0.00000000000E+00 0. -1.
         25    2    1    2    0    0  0.27380798263E+02 -0.11289540981E+03 -0.16878758941E+03  0.24006659440E+03  0.12509051818E+03 0.  0.
          5    1    3    3  502    0  0.73806829905E+02 -0.89795700265E+02 -0.13422816778E+03  0.17761021748E+03  0.41800000000E+01 0. -1.
         -5    1    3    3    0  502 -0.46426031642E+02 -0.23099709547E+02 -0.34559421624E+02  0.62456376922E+02  0.41800000000E+01 0. -1.
        -11    1    1    2    0    0 -0.30169404867E+02 -0.14238538027E+01 -0.13020076634E+02  0.32889857787E+02  0.00000000000E+00 0.  1.
         11    1    1    2    0    0  0.27886066040E+01  0.11431926361E+03 -0.13247302258E+03  0.17500220590E+03  0.00000000000E+00 0. -1.
</event>
<event>
 7    1  0.2666594E-009  0.1065369E+03  0.7561462E-02  0.1267121E+00
          1   -1    0    0  501    0  0.00000000000E+00  0.00000000000E+00  0.21950435255E+03  0.21950435255E+03  0.00000000000E+00 0. -1.
         -1   -1    0    0    0  501 -0.00000000000E+00 -0.00000000000E+00 -0.68102025542E+02  0.68102025542E+02  0.00000000000E+00 0.  1.
         25    2    1    2    0    0 -0.29059564852E+02 -0.47204627676E+02  0.97478984977E+02  0.16799539377E+03  0.12509022596E+03 0.  0.
          5    1    3    3  502    0 -0.20605364722E+02 -0.84058424701E+02  0.32193787019E+02  0.92435448509E+02  0.41800000000E+01 0.  1.
         -5    1    3    3    0  502 -0.84542001299E+01  0.36853797025E+02  0.65285197958E+02  0.75559945258E+02  0.41800000000E+01 0.  1.
        -11    1    1    2    0    0 -0.15967864001E+02 -0.74084150406E+01 -0.13247214249E+02  0.22030569205E+02  0.00000000000E+00 0.  1.
         11    1    1    2    0    0  0.45027428853E+02  0.54613042717E+02  0.67170556279E+02  0.97580415118E+02  0.00000000000E+00 0. -1.
</event>
<event>
 7    1  0.2666594E-009  0.1351203E+03  0.7561462E-02  0.1220050E+00
         -2   -1    0    0    0  501 -0.00000000000E+00  0.00000000000E+00  0.75102096465E+03  0.75102096465E+03  0.00000000000E+00 0.  1.
          2   -1    0    0  501    0  0.00000000000E+00 -0.00000000000E+00 -0.29998810468E+02  0.29998810468E+02  0.00000000000E+00 0. -1.
         25    2    1    2    0    0 -0.75220916482E+02 -0.46252348319E+02  0.24721042446E+03  0.29078801827E+03  0.12508881486E+03 0.  0.
          5    1    3    3  502    0 -0.10856812069E+03 -0.49414623027E+02  0.19208796014E+03  0.22615061050E+03  0.41800000000E+01 0.  1.
         -5    1    3    3    0  502  0.33347204208E+02  0.31622747077E+01  0.55122464317E+02  0.64637407762E+02  0.41800000000E+01 0.  1.
        -11    1    1    2    0    0  0.62944620413E+02 -0.62065738910E+01  0.16407187996E+03  0.17584120277E+03  0.00000000000E+00 0.  1.
         11    1    1    2    0    0  0.12276296069E+02  0.52458922210E+02  0.30973984976E+03  0.31439055408E+03  0.00000000000E+00 0. -1.
</event>
<event>
 7    1  0.2666594E-009  0.1568240E+03  0.7561462E-02  0.1192330E+00
         -1   -1    0    0    0  501 -0.00000000000E+00  0.00000000000E+00  0.61320418899E+02  0.61320418899E+02  0.00000000000E+00 0.  1.
          1   -1    0    0  501    0  0.00000000000E+00 -0.00000000000E+00 -0.49194296754E+03  0.49194296754E+03  0.00000000000E+00 0. -1.
         25    2    1    2    0    0 -0.11324377324E+03 -0.28530033120E+02 -0.33927575832E+03  0.37999112119E+03  0.12508835689E+03 0.  0.
          5    1    3    3  502    0 -0.57350109603E+02  0.48601961635E+02 -0.13551027676E+03  0.15502158964E+03  0.41800000000E+01 0.  1.
         -5    1    3    3    0  502 -0.55893663640E+02 -0.77131994756E+02 -0.20376548156E+03  0.22496953155E+03  0.41800000000E+01 0.  1.
        -11    1    1    2    0    0  0.72293054734E+02 -0.24210146787E+02 -0.27958556198E+02  0.81204050606E+02  0.00000000000E+00 0.  1.
         11    1    1    2    0    0  0.40950718508E+02  0.52740179907E+02 -0.63388234130E+02  0.92068214651E+02  0.00000000000E+00 0. -1.
</event>
<event>
 7    1  0.2666594E-009  0.1031367E+03  0.7561462E-02  0.1273835E+00
          3   -1    0    0  501    0  0.00000000000E+00  0.00000000000E+00  0.31159139912E+03  0.31159139912E+03  0.00000000000E+00 0. -1.
         -3   -1    0    0    0  501 -0.00000000000E+00 -0.00000000000E+00 -0.59324617788E+02  0.59324617788E+02  0.00000000000E+00 0.  1.
         25    2    1    2    0    0  0.40161614703E+02 -0.13454696161E+02  0.42301151781E+02  0.13867526680E+03  0.12508979988E+03 0.  0.
          5    1    3    3  502    0 -0.28619727279E+02  0.34558336211E+02  0.29137850499E+02  0.53664272313E+02  0.41800000000E+01 0.  1.
         -5    1    3    3    0  502  0.68781341983E+02 -0.48013032371E+02  0.13163301282E+02  0.85010994483E+02  0.41800000000E+01 0.  1.
        -11    1    1    2    0    0 -0.13250703820E+02 -0.26164425492E+02  0.18046977291E+02  0.34436197560E+02  0.00000000000E+00 0.  1.
         11    1    1    2    0    0 -0.26910910883E+02  0.39619121652E+02  0.19191865226E+03  0.19780455255E+03  0.00000000000E+00 0. -1.
</event>
<event>
 7    1  0.2666594E-009  0.9124322E+02  0.7561462E-02  0.1299869E+00
         -3   -1    0    0    0  501 -0.00000000000E+00  0.00000000000E+00  0.87913404935E+02  0.87913404935E+02  0.00000000000E+00 0.  1.
          3   -1    0    0  501    0  0.00000000000E+00 -0.00000000000E+00 -0.20743331891E+03  0.20743331891E+03  0.00000000000E+00 0. -1.
         25    2    1    2    0    0 -0.70438070263E+02 -0.69572865003E+01 -0.10493495674E+03  0.17795581958E+03  0.12508798103E+03 0.  0.
          5    1    3    3  502    0 -0.34529703457E+02  0.16389991207E+02 -0.12477721828E+03  0.13056706642E+03  0.41800000000E+01 0.  1.
         -5    1    3    3    0  502 -0.35908366806E+02 -0.23347277707E+02  0.19842261535E+02  0.47388753158E+02  0.41800000000E+01 0.  1.
        -11    1    1    2    0    0  0.30072602811E+02 -0.32692445799E+02 -0.35709984277E+02  0.56994389454E+02  0.00000000000E+00 0. -1.
         11    1    1    2    0    0  0.40365467452E+02  0.39649732300E+02  0.21125027043E+02  0.60396514814E+02  0.00000000000E+00 0.  1.
</event>
<event>
 7    1  0.2666594E-009  0.1452887E+03  0.7561462E-02  0.1206385E+00
          1   -1    0    0  501    0  0.00000000000E+00  0.00000000000E+00  0.11742489698E+04  0.11742489698E+04  0.00000000000E+00 0. -1.
         -1   -1    0    0    0  501 -0.00000000000E+00 -0.00000000000E+00 -0.24889306528E+02  0.24889306528E+02  0.00000000000E+00 0.  1.
         25    2    1    2    0    0 -0.27889498900E+02  0.12226496363E+03  0.74628468316E+03  0.76701709259E+03  0.12509135272E+03 0.  0.
          5    1    3    3  502    0 -0.49260974290E+02  0.38342477446E+02  0.53484070435E+03  0.53848754916E+03  0.41800000000E+01 0. -1.
         -5    1    3    3    0  502  0.21371475390E+02  0.83922486184E+02  0.21144397881E+03  0.22852954343E+03  0.41800000000E+01 0. -1.
        -11    1    1    2    0    0 -0.21464183481E+02 -0.39141097516E+02  0.54812347542E+02  0.70690382163E+02  0.00000000000E+00 0.  1.
         11    1    1    2    0    0  0.49353682381E+02 -0.83123866114E+02  0.34826263254E+03  0.36143080155E+03  0.00000000000E+00 0. -1.
</event>
<event>
 7    1  0.2666594E-009  0.1162090E+03  0.7561462E-02  0.1249485E+00
          3   -1    0    0  501    0  0.00000000000E+00  0.00000000000E+00  0.98024075923E+02  0.98024075923E+02  0.00000000000E+00 0. -1.
         -3   -1    0    0    0  501 -0.00000000000E+00 -0.00000000000E+00 -0.17201657202E+03  0.17201657202E+03  0.00000000000E+00 0.  1.
         25    2    1    2    0    0 -0.46957715335E+02  0.44438216608E+02 -0.11759216172E+02  0.14129954845E+03  0.12508997203E+03 0.  0.
          5    1    3    3  502    0 -0.75735270271E+02  0.56037684320E+02  0.20325537042E+02  0.96470996072E+02  0.41800000000E+01 0. -1.
         -5    1    3    3    0  502  0.28777554936E+02 -0.11599467712E+02 -0.32084753214E+02  0.44828552376E+02  0.41800000000E+01 0. -1.
        -11    1    1    2    0    0  0.37330804199E+02  0.19519975198E+02 -0.45346234492E+02  0.61894259479E+02  0.00000000000E+00 0.  1.
         11    1    1    2    0    0  0.96269111359E+01 -0.63958191806E+02 -0.16887045437E+02  0.66846840020E+02  0.00000000000E+00 0. -1.
</event>
<event>
 7    1  0.2666594E-009  0.2259542E+03  0.7561462E-02  0.1129520E+00
          2   -1    0    0  501    0  0.00000000000E+00  0.00000000000E+00  0.14892762685E+04  0.14892762685E+04  0.00000000000E+00 0. -1.
         -2   -1    0    0    0  501 -0.00000000000E+00 -0.00000000000E+00 -0.46143429299E+02  0.46143429299E+02  0.00000000000E+00 0.  1.
         25    2    1    2    0    0  0.21204530031E+02  0.22418359891E+03  0.97946875729E+03  0.10127750045E+04  0.12508495119E+03 0.  0.
          5    1    3    3  502    0  0.24581730374E+02  0.21117752774E+03  0.97513384835E+03  0.99804995080E+03  0.41800000000E+01 0.  1.
         -5    1    3    3    0  502 -0.33772003432E+01  0.13006071172E+02  0.43349089407E+01  0.14725053651E+02  0.41800000000E+01 0.  1.
        -11    1    1    2    0    0 -0.18906972910E+02 -0.19335317442E+03  0.44729307555E+03  0.48766178763E+03  0.00000000000E+00 0. -1.
         11    1    1    2    0    0 -0.22975571213E+01 -0.30830424493E+02  0.16371006364E+02  0.34982905719E+02  0.00000000000E+00 0.  1.
</event>
<event>
 7    1  0.2666594E-009  0.1277306E+03  0.7561462E-02  0.1230863E+00
         -1   -1    0    0    0  501 -0.00000000000E+00  0.00000000000E+00  0.73765434320E+02  0.73765434320E+02  0.00000000000E+00 0.  1.
          1   -1    0    0  501    0  0.00000000000E+00 -0.00000000000E+00 -0.34561184596E+03  0.34561184596E+03  0.00000000000E+00 0. -1.
         25    2    1    2    0    0 -0.66313530948E+02 -0.29616761406E+00 -0.20410091157E+02  0.14304548161E+03  0.12509143011E+03 0.  0.
          5    1    3    3  502    0 -0.57642147899E+02 -0.58517293369E+02 -0.16650658570E+02  0.83914287629E+02  0.41800000000E+01 0. -1.
         -5    1    3    3    0  502 -0.86713830494E+01  0.58221125755E+02 -0.37594325876E+01  0.59131193980E+02  0.41800000000E+01 0. -1.
        -11    1    1    2    0    0  0.22346553125E+01  0.39184291481E+02 -0.97951362263E+02  0.10552190177E+03  0.00000000000E+00 0.  1.
         11    1    1    2    0    0  0.64078875636E+02 -0.38888123867E+02 -0.15348495822E+03  0.17080989691E+03  0.00000000000E+00 0. -1.
</event>
<event>
 7    1  0.2666594E-009  0.1127476E+03  0.7561462E-02  0.1255565E+00
         -2   -1    0    0    0  501 -0.00000000000E+00  0.00000000000E+00  0.17581006795E+03  0.17581006795E+03  0.00000000000E+00 0.  1.
          2   -1    0    0  501    0  0.00000000000E+00 -0.00000000000E+00 -0.89579834567E+02  0.89579834567E+02  0.00000000000E+00 0. -1.
         25    2    1    2    0    0  0.42626250338E+02 -0.28893525700E+02  0.77234143981E+01  0.13549427784E+03  0.12508882905E+03 0.  0.
          5    1    3    3  502    0  0.73308655212E+02 -0.53382148236E+02  0.22180055716E+02  0.93451805498E+02  0.41800000000E+01 0. -1.
         -5    1    3    3    0  502 -0.30682404874E+02  0.24488622536E+02 -0.14456641317E+02  0.42042472343E+02  0.41800000000E+01 0. -1.
        -11    1    1    2    0    0  0.23622383452E+02  0.19020837472E+01  0.45091444213E+02  0.50939898545E+02  0.00000000000E+00 0. -1.
         11    1    1    2    0    0 -0.66248633790E+02  0.26991441953E+02  0.33415374771E+02  0.78955726131E+02  0.00000000000E+00 0.  1.
</event>
<event>
 7    1  0.2666594E-009  0.1476938E+03  0.7561462E-02  0.1203336E+00
          2   -1    0    0  501    0  0.00000000000E+00  0.00000000000E+00  0.30592386024E+02  0.30592386024E+02  0.00000000000E+00 0. -1.
         -2   -1    0    0    0  501 -0.00000000000E+00 -0.00000000000E+00 -0.75045344561E+03  0.75045344561E+03  0.00000000000E+00 0.  1.
         25    2    1    2    0    0  0.34266767009E+02  0.98873478822E+02 -0.38045154003E+03  0.41393370763E+03  0.12509022290E+03 0.  0.
          5    1    3    3  502    0  0.21547274414E+02  0.12843821809E+03 -0.31469339419E+03  0.34060250387E+03  0.41800000000E+01 0.  1.
         -5    1    3    3    0  502  0.12719492595E+02 -0.29564739266E+02 -0.65758145839E+02  0.73331203753E+02  0.41800000000E+01 0.  1.
        -11    1    1    2    0    0 -0.36752896080E+02 -0.31621497110E+01 -0.49041710942E+02  0.61366635667E+02  0.00000000000E+00 0. -1.
         11    1    1    2    0    0  0.24861290707E+01 -0.95711329111E+02 -0.29036780862E+03  0.30574548834E+03  0.00000000000E+00 0.  1.
</event>
<event>
 7    1  0.2666594E-009  0.1150917E+03  0.7561462E-02  0.1251421E+00
          2   -1    0    0  501    0  0.00000000000E+00  0.00000000000E+00  0.85420196552E+03  0.85420196552E+03  0.00000000000E+00 0. -1.
         -2   -1    0    0    0  501 -0.00000000000E+00 -0.00000000000E+00 -0.25580745279E+02  0.25580745279E+02  0.00000000000E+00 0.  1.
         25    2    1    2    0    0 -0.46377630051E+02 -0.87565437059E+02  0.43383715005E+03  0.46225648939E+03  0.12509116227E+03 0.  0.
          5    1    3    3  502    0 -0.22156813218E+02 -0.84057223139E+02  0.42799074845E+03  0.43674946399E+03  0.41800000000E+01 0.  1.
         -5    1    3    3    0  502 -0.24220816832E+02 -0.35082139204E+01  0.58464015998E+01  0.25507025397E+02  0.41800000000E+01 0.  1.
        -11    1    1    2    0    0 -0.12229140043E+02  0.42986455151E+02  0.26116288635E+03  0.26495931839E+03  0.00000000000E+00 0. -1.
         11    1    1    2    0    0  0.58606770093E+02  0.44578981909E+02  0.13362118383E+03  0.15256690302E+03  0.00000000000E+00 0.  1.
</event>
<event>
 7    1  0.2666594E-009  0.1248365E+03  0.7561462E-02  0.1235325E+00
          2   -1    0    0  501    0  0.00000000000E+00  0.00000000000E+00  0.18915771635E+03  0.18915771635E+03  0.00000000000E+00 0. -1.
         -2   -1    0    0    0  501 -0.00000000000E+00 -0.00000000000E+00 -0.11439934067E+03  0.11439934067E+03  0.00000000000E+00 0.  1.
         25    2    1    2    0    0 -0.40071931658E+02 -0.85005096327E+02  0.86895650533E+01  0.15670014246E+03  0.12509116674E+03 0.  0.
          5    1    3    3  502    0  0.11404066932E+01  0.31579031474E+02 -0.48311078150E+01  0.32238916840E+02  0.41800000000E+01 0. -1.
         -5    1    3    3    0  502 -0.41212338352E+02 -0.11658412780E+03  0.13520672868E+02  0.12446122562E+03  0.41800000000E+01 0. -1.
        -11    1    1    2    0    0  0.20435746336E+02  0.48320990643E+02 -0.15993817684E+02  0.54848336977E+02  0.00000000000E+00 0.  1.
         11    1    1    2    0    0  0.19636185322E+02  0.36684105684E+02  0.82062628308E+02  0.92008577582E+02  0.00000000000E+00 0. -1.
</event>
<event>
 7    1  0.2666594E-009  0.8394419E+02  0.7561462E-02  0.1318217E+00
         -2   -1    0    0    0  501 -0.00000000000E+00  0.00000000000E+00  0.35322990715E+03  0.35322990715E+03  0.00000000000E+00 0.  1.
          2   -1    0    0  501    0  0.00000000000E+00 -0.00000000000E+00 -0.39556923054E+02  0.39556923054E+02  0.00000000000E+00 0. -1.
         25    2    1    2    0    0  0.28851070266E+02  0.28664908126E+02  0.23038273103E+03  0.26528532314E+03  0.12508412650E+03 0.  0.
          5    1    3    3  502    0  0.35352198937E+02 -0.41699575213E+02  0.14087950307E+03  0.15117254820E+03  0.41800000000E+01 0.  1.
         -5    1    3    3    0  502 -0.65011286716E+01  0.70364483339E+02  0.89503227954E+02  0.11411277494E+03  0.41800000000E+01 0.  1.
        -11    1    1    2    0    0 -0.19969491267E+02 -0.11755389655E+02  0.99677097363E+02  0.10233520170E+03  0.00000000000E+00 0.  1.
         11    1    1    2    0    0 -0.88815789985E+01 -0.16909518471E+02 -0.16386844292E+02  0.25166305376E+02  0.00000000000E+00 0. -1.
</event>
<event>
 7    1  0.2666594E-009  0.1394312E+03  0.7561462E-02  0.1214096E+00
          4   -1    0    0  501    0  0.00000000000E+00  0.00000000000E+00  0.14869572370E+03  0.14869572370E+03  0.00000000000E+00 0. -1.
         -4   -1    0    0    0  501 -0.00000000000E+00 -0.00000000000E+00 -0.14568043893E+03  0.14568043893E+03  0.00000000000E+00 0.  1.
         25    2    1    2    0    0 -0.95618056352E+02 -0.24521010480E+02 -0.11949293938E+02  0.15979449101E+03  0.12508957221E+03 0.  0.
          5    1    3    3  502    0 -0.10604412318E+03  0.19013239055E+02  0.12631601115E+02  0.10855362300E+03  0.41800000000E+01 0.  1.
         -5    1    3    3    0  502  0.10426066829E+02 -0.43534249535E+02 -0.24580895053E+02  0.51240868004E+02  0.41800000000E+01 0.  1.
        -11    1    1    2    0    0  0.10126551278E+03  0.35205878018E+00  0.29933041593E+02  0.10559741949E+03  0.00000000000E+00 0.  1.
         11    1    1    2    0    0 -0.56474564270E+01  0.24168951700E+02 -0.14968462882E+02  0.28984252128E+02  0.00000000000E+00 0. -1.
</event>
<event>
 7    1  0.2666594E-009  0.1178705E+03  0.7561462E-02  0.1246652E+00
          1   -1    0    0  501    0  0.00000000000E+00  0.00000000000E+00  0.14880855121E+04  0.14880855121E+04  0.00000000000E+00 0. -1.
         -1   -1    0    0    0  501 -0.00000000000E+00 -0.00000000000E+00 -0.11484460103E+02  0.11484460103E+02  0.00000000000E+00 0.  1.
         25    2    1    2    0    0  0.45828310265E+02  0.22152049900E+02  0.11291902383E+04  0.11372371534E+04  0.12508717634E+03 0.  0.
          5    1    3    3  502    0  0.10276866988E+02 -0.51735568768E+02  0.43025617689E+03  0.43349744315E+03  0.41800000000E+01 0.  1.
         -5    1    3    3    0  502  0.35551443277E+02  0.73887618668E+02  0.69893406137E+03  0.70373971030E+03  0.41800000000E+01 0.  1.
        -11    1    1    2    0    0 -0.55601822770E+02 -0.47772381432E+02  0.21627655753E+03  0.22836223957E+03  0.00000000000E+00 0.  1.
         11    1    1    2    0    0  0.97735125048E+01  0.25620331532E+02  0.13113425618E+03  0.13397057916E+03  0.00000000000E+00 0. -1.
</event>
<event>
 7    1  0.2666594E-009  0.7146369E+02  0.7561462E-02  0.1355185E+00
         -2   -1    0    0    0  501 -0.00000000000E+00  0.00000000000E+00  0.25119153858E+03  0.25119153858E+03  0.00000000000E+00 0.  1.
          2   -1    0    0  501    0  0.00000000000E+00 -0.00000000000E+00 -0.92489670597E+02  0.92489670597E+02  0.00000000000E+00 0. -1.
         25    2    1    2    0    0 -0.50877029761E+02 -0.33150066143E+02 -0.16039586028E+02  0.13997036630E+03  0.12508811326E+03 0.  0.
          5    1    3    3  502    0 -0.31321405408E+02 -0.47681495250E+02 -0.64108301400E+02  0.85917996569E+02  0.41800000000E+01 0. -1.
         -5    1    3    3    0  502 -0.19555624352E+02  0.14531429107E+02  0.48068715372E+02  0.54052369728E+02  0.41800000000E+01 0. -1.
        -11    1    1    2    0    0  0.73902819215E+01  0.74457316322E+01 -0.85826523563E+01  0.13554228414E+02  0.00000000000E+00 0. -1.
         11    1    1    2    0    0  0.43486747839E+02  0.25704334511E+02  0.18332410637E+03  0.19015661447E+03  0.00000000000E+00 0.  1.
</event>
<event>
 7    1  0.2666594E-009  0.9806650E+02  0.7561462E-02  0.1284415E+00
          1   -1    0    0  501    0  0.00000000000E+00  0.00000000000E+00  0.18805806482E+03  0.18805806482E+03  0.00000000000E+00 0. -1.
         -1   -1    0    0    0  501 -0.00000000000E+00 -0.00000000000E+00 -0.11222539841E+03  0.11222539841E+03  0.00000000000E+00 0.  1.
         25    2    1    2    0    0 -0.19928466563E+02  0.48572571379E+02 -0.43946999513E+02  0.14259403912E+03  0.12508110471E+03 0.  0.
          5    1    3    3  502    0  0.16351419083E+02 -0.36822413122E+02 -0.25615808648E+02  0.47925995732E+02  0.41800000000E+01 0.  1.
         -5    1    3    3    0  502 -0.36279885646E+02  0.85394984501E+02 -0.18331190864E+02  0.94668043388E+02  0.41800000000E+01 0.  1.
        -11    1    1    2    0    0 -0.84256207437E+01 -0.23270173557E+02 -0.66873275609E+01  0.25636154396E+02  0.00000000000E+00 0.  1.
         11    1    1    2    0    0  0.28354087307E+02 -0.25302397822E+02  0.12646699349E+03  0.13205326972E+03  0.00000000000E+00 0. -1.
</event>
<event>
 7    1  0.2666594E-009  0.1067925E+03  0.7561462E-02  0.1266628E+00
          2   -1    0    0  501    0  0.00000000000E+00  0.00000000000E+00  0.52227197755E+03  0.52227197755E+03  0.00000000000E+00 0.  1.
         -2   -1    0    0    0  501 -0.00000000000E+00 -0.00000000000E+00 -0.39604857148E+02  0.39604857148E+02  0.00000000000E+00 0. -1.
         25    2    1    2    0    0  0.29635852498E+02  0.59434977934E+02  0.39375136688E+03  0.41844896676E+03  0.12509435842E+03 0.  0.
          5    1    3    3  502    0 -0.30840414022E+02 -0.32464173048E+01  0.26553864169E+02  0.41039620670E+02  0.41800000000E+01 0.  1.
         -5    1    3    3    0  502  0.60476266521E+02  0.62681395239E+02  0.36719750271E+03  0.37740934609E+03  0.41800000000E+01 0.  1.
        -11    1    1    2    0    0 -0.51127521458E+02 -0.32287413559E+02  0.15755733494E+02  0.62487948140E+02  0.00000000000E+00 0. -1.
         11    1    1    2    0    0  0.21491668960E+02 -0.27147564375E+02  0.73160020032E+02  0.80939919800E+02  0.00000000000E+00 0.  1.
</event>
<event>
 7    1  0.2666594E-009  0.1131366E+03  0.7561462E-02  0.1254869E+00
         -2   -1    0    0    0  501 -0.00000000000E+00  0.00000000000E+00  0.27634364904E+03  0.27634364904E+03  0.00000000000E+00 0.  1.
          2   -1    0    0  501    0  0.00000000000E+00 -0.00000000000E+00 -0.52921000155E+02  0.52921000155E+02  0.00000000000E+00 0. -1.
         25    2    1    2    0    0 -0.44511460166E+02 -0.35711665925E+01  0.14516498081E+03  0.19676209889E+03  0.12509367926E+03 0.  0.
          5    1    3    3  502    0 -0.16130569687E+02  0.59655357567E+02  0.83036902451E+02  0.10359322629E+03  0.41800000000E+01 0. -1.
         -5    1    3    3    0  502 -0.28380890479E+02 -0.63226524159E+02  0.62128078356E+02  0.93168872602E+02  0.41800000000E+01 0. -1.
        -11    1    1    2    0    0  0.39862748061E+02  0.41001998939E+02  0.75459926302E+02  0.94680531671E+02  0.00000000000E+00 0.  1.
         11    1    1    2    0    0  0.46487121053E+01 -0.37430832347E+02  0.27977417779E+01  0.37822018633E+02  0.00000000000E+00 0. -1.
</event>
<event>
 7    1  0.2666594E-009  0.9365246E+02  0.7561462E-02  0.1294240E+00
          2   -1    0    0  501    0  0.00000000000E+00  0.00000000000E+00  0.27998093107E+03  0.27998093107E+03  0.00000000000E+00 0. -1.
         -2   -1    0    0    0  501 -0.00000000000E+00 -0.00000000000E+00 -0.53542062290E+02  0.53542062290E+02  0.00000000000E+00 0.  1.
         25    2    1    2    0    0  0.64576306405E+01 -0.31784038996E+02  0.63668013775E+02  0.14405898551E+03  0.12508976457E+03 0.  0.
          5    1    3    3  502    0 -0.14099505370E+02 -0.77492760070E+02  0.36776182174E+02  0.87028063809E+02  0.41800000000E+01 0. -1.
         -5    1    3    3    0  502  0.20557136010E+02  0.45708721074E+02  0.26891831601E+02  0.57030921701E+02  0.41800000000E+01 0. -1.
        -11    1    1    2    0    0 -0.26504958558E+02  0.26330519059E+02  0.16443097631E+03  0.16862192928E+03  0.00000000000E+00 0. -1.
         11    1    1    2    0    0  0.20047327918E+02  0.54535199369E+01 -0.16601213115E+01  0.20842078570E+02  0.00000000000E+00 0.  1.
</event>
<event>
 7    1  0.2666594E-009  0.7941958E+02  0.7561462E-02  0.1330707E+00
         -2   -1    0    0    0  501 -0.00000000000E+00  0.00000000000E+00  0.83144795217E+01  0.83144795217E+01  0.00000000000E+00 0.  1.
          2   -1    0    0  501    0  0.00000000000E+00 -0.00000000000E+00 -0.14709234629E+04  0.14709234629E+04  0.00000000000E+00 0. -1.
         25    2    1    2    0    0  0.20496402349E+02 -0.20305161560E+02 -0.13205834794E+04  0.13268065611E+04  0.12507006996E+03 0.  0.
          5    1    3    3  502    0  0.44541470607E+02  0.25767818893E+02 -0.10486432285E+04  0.10499133374E+04  0.41800000000E+01 0. -1.
         -5    1    3    3    0  502 -0.24045068258E+02 -0.46072980453E+02 -0.27194025095E+03  0.27689322368E+03  0.41800000000E+01 0. -1.
        -11    1    1    2    0    0 -0.28467068203E+01 -0.15178425448E+02 -0.33249336401E+02  0.36660697074E+02  0.00000000000E+00 0.  1.
         11    1    1    2    0    0 -0.17649695529E+02  0.35483587008E+02 -0.10877616751E+03  0.11577068419E+03  0.00000000000E+00 0. -1.
</event>
<event>
 7    1  0.2666594E-009  0.1063905E+03  0.7561462E-02  0.1267404E+00
         -1   -1    0    0    0  501 -0.00000000000E+00  0.00000000000E+00  0.48234777406E+02  0.48234777406E+02  0.00000000000E+00 0.  1.
          1   -1    0    0  501    0  0.00000000000E+00 -0.00000000000E+00 -0.26327716907E+03  0.26327716907E+03  0.00000000000E+00 0. -1.
         25    2    1    2    0    0  0.26229321092E+02 -0.15036088658E+02 -0.15617826622E+03  0.20236915606E+03  0.12509022039E+03 0.  0.
          5    1    3    3  502    0  0.20381305266E+01 -0.65724535470E+02 -0.51981000205E+02  0.83924759881E+02  0.41800000000E+01 0.  1.
         -5    1    3    3    0  502  0.24191190565E+02  0.50688446811E+02 -0.10419726601E+03  0.11844439618E+03  0.41800000000E+01 0.  1.
        -11    1    1    2    0    0 -0.45062884478E+01  0.49569570462E+02 -0.41494005882E+02  0.64801245941E+02  0.00000000000E+00 0.  1.
         11    1    1    2    0    0 -0.21723032644E+02 -0.34533481804E+02 -0.17370119560E+02  0.44341544473E+02  0.00000000000E+00 0. -1.
</event>
<event>
 7    1  0.2666594E-009  0.1425720E+03  0.7561462E-02  0.1209910E+00
         -2   -1    0    0    0  501 -0.00000000000E+00  0.00000000000E+00  0.44255918760E+03  0.44255918760E+03  0.00000000000E+00 0.  1.
          2   -1    0    0  501    0  0.00000000000E+00 -0.00000000000E+00 -0.73968824751E+02  0.73968824751E+02  0.00000000000E+00 0. -1.
         25    2    1    2    0    0  0.12420578649E+03 -0.35436129926E+02  0.10123008073E+03  0.20634454903E+03  0.12509095479E+03 0.  0.
          5    1    3    3  502    0  0.15391375163E+02  0.22312118114E+02  0.75637190662E+02  0.80456087746E+02  0.41800000000E+01 0.  1.
         -5    1    3    3    0  502  0.10881441132E+03 -0.57748248040E+02  0.25592890066E+02  0.12588846129E+03  0.41800000000E+01 0.  1.
        -11    1    1    2    0    0 -0.71652904100E+02  0.39373055716E+02  0.75742910412E+02  0.11145117613E+03  0.00000000000E+00 0. -1.
         11    1    1    2    0    0 -0.52552882386E+02 -0.39369257905E+01  0.19161737171E+03  0.19873228719E+03  0.00000000000E+00 0.  1.
</event>
<event>
 7    1  0.2666594E-009  0.1204602E+03  0.7561462E-02  0.1242340E+00
          1   -1    0    0  501    0  0.00000000000E+00  0.00000000000E+00  0.60682761940E+02  0.60682761940E+02  0.00000000000E+00 0. -1.
         -1   -1    0    0    0  501 -0.00000000000E+00 -0.00000000000E+00 -0.58119042750E+03  0.58119042750E+03  0.00000000000E+00 0.  1.
         25    2    1    2    0    0 -0.42936529489E+02  0.99181388970E+02 -0.88842225680E+02  0.18767234217E+03  0.12508986158E+03 0.  0.
          5    1    3    3  502    0 -0.26763957371E+02  0.25241777196E+02 -0.10397741883E+03  0.11037315233E+03  0.41800000000E+01 0.  1.
         -5    1    3    3    0  502 -0.16172572118E+02  0.73939611774E+02  0.15135193146E+02  0.77299189839E+02  0.41800000000E+01 0.  1.
        -11    1    1    2    0    0  0.47785162111E+02 -0.25334749716E+02 -0.93356920517E+02  0.10789247365E+03  0.00000000000E+00 0. -1.
         11    1    1    2    0    0 -0.48486326214E+01 -0.73846639254E+02 -0.33830851936E+03  0.34630837362E+03  0.00000000000E+00 0.  1.
</event>
<event>
 7    1  0.2666594E-009  0.1857908E+03  0.7561462E-02  0.1162313E+00
          2   -1    0    0  501    0  0.00000000000E+00  0.00000000000E+00  0.94873699423E+03  0.94873699423E+03  0.00000000000E+00 0. -1.
         -2   -1    0    0    0  501 -0.00000000000E+00 -0.00000000000E+00 -0.42626171020E+02  0.42626171020E+02  0.00000000000E+00 0.  1.
         25    2    1    2    0    0  0.10946029719E+03  0.12868309872E+03  0.55110148779E+03  0.58983303769E+03  0.12509702616E+03 0.  0.
          5    1    3    3  502    0  0.88597175306E+02  0.27102542740E+02  0.15749449815E+03  0.18277307417E+03  0.41800000000E+01 0.  1.
         -5    1    3    3    0  502  0.20863121887E+02  0.10158055598E+03  0.39360698964E+03  0.40705996353E+03  0.41800000000E+01 0.  1.
        -11    1    1    2    0    0 -0.27018425723E+02 -0.67237934871E+01  0.16420268242E+02  0.32323829238E+02  0.00000000000E+00 0.  1.
         11    1    1    2    0    0 -0.82441871469E+02 -0.12195930523E+03  0.33858906718E+03  0.36920629832E+03  0.00000000000E+00 0. -1.
</event>
<event>
 7    1  0.2943823E-009  0.1055358E+03  0.7561462E-02  0.1269067E+00
          2   -1    0    0  501    0  0.00000000000E+00  0.00000000000E+00  0.70647045111E+03  0.70647045111E+03  0.00000000000E+00 0. -1.
         -2   -1    0    0    0  501 -0.00000000000E+00 -0.00000000000E+00 -0.19981454468E+02  0.19981454468E+02  0.00000000000E+00 0.  1.
         25    2    1    2    0    0 -0.32409968678E+02  0.20926552041E+02  0.47996985938E+03  0.49750063455E+03  0.12508992288E+03 0.  0.
          5    1    3    3  502    0 -0.71352764315E+02 -0.57675063676E+01  0.38194345990E+03  0.38861646912E+03  0.41800000000E+01 0.  1.
         -5    1    3    3    0  502  0.38942795636E+02  0.26694058409E+02  0.98026399479E+02  0.10888416543E+03  0.41800000000E+01 0.  1.
        -11    1    1    2    0    0 -0.34421668959E+00 -0.48894601412E+02  0.15078345073E+03  0.15851324723E+03  0.00000000000E+00 0. -1.
         11    1    1    2    0    0  0.32754185368E+02  0.27968049371E+02  0.55735686526E+02  0.70438023802E+02  0.00000000000E+00 0.  1.
</event>
<event>
 7    1  0.2666594E-009  0.2269675E+03  0.7561462E-02  0.1128793E+00
          2   -1    0    0  501    0  0.00000000000E+00  0.00000000000E+00  0.83491978383E+02  0.83491978383E+02  0.00000000000E+00 0. -1.
         -2   -1    0    0    0  501 -0.00000000000E+00 -0.00000000000E+00 -0.79475141502E+03  0.79475141502E+03  0.00000000000E+00 0.  1.
         25    2    1    2    0    0 -0.78842193603E+02  0.19664618826E+03 -0.55498316983E+03  0.60707429049E+03  0.12508821099E+03 0.  0.
          5    1    3    3  502    0 -0.30647500864E+00  0.15023683809E+03 -0.39842068675E+03  0.42582592391E+03  0.41800000000E+01 0.  1.
         -5    1    3    3    0  502 -0.78535718594E+02  0.46409350173E+02 -0.15656248308E+03  0.18124836658E+03  0.41800000000E+01 0.  1.
        -11    1    1    2    0    0  0.66797986452E+02 -0.15105423531E+03 -0.85127122293E+02  0.18581167872E+03  0.00000000000E+00 0.  1.
         11    1    1    2    0    0  0.12044207151E+02 -0.45591952955E+02 -0.71149144510E+02  0.85357424192E+02  0.00000000000E+00 0. -1.
</event>
<event>
 7    1  0.2666594E-009  0.1485318E+03  0.7561462E-02  0.1202289E+00
         -2   -1    0    0    0  501 -0.00000000000E+00  0.00000000000E+00  0.28550587005E+02  0.28550587005E+02  0.00000000000E+00 0.  1.
          2   -1    0    0  501    0  0.00000000000E+00 -0.00000000000E+00 -0.10550751704E+04  0.10550751704E+04  0.00000000000E+00 0. -1.
         25    2    1    2    0    0  0.13467873722E+03 -0.39354866293E+01 -0.56057356952E+03  0.58995298547E+03  0.12509175791E+03 0.  0.
          5    1    3    3  502    0  0.46413924979E+02 -0.26877116785E+01 -0.42853438463E+03  0.43106921421E+03  0.41800000000E+01 0.  1.
         -5    1    3    3    0  502  0.88264812243E+02 -0.12477749508E+01 -0.13203918489E+03  0.15888377126E+03  0.41800000000E+01 0.  1.
        -11    1    1    2    0    0 -0.20416420710E+02 -0.35653741999E+02 -0.94842895784E+02  0.10335953964E+03  0.00000000000E+00 0.  1.
         11    1    1    2    0    0 -0.11426231651E+03  0.39589228628E+02 -0.37110811807E+03  0.39031323229E+03  0.00000000000E+00 0. -1.
</event>
<event>
 7    1  0.3824304E-009  0.1247971E+03  0.7561462E-02  0.1235387E+00
         -1   -1    0    0    0  501 -0.00000000000E+00  0.00000000000E+00  0.25842465499E+02  0.25842465499E+02  0.00000000000E+00 0.  1.
          1   -1    0    0  501    0  0.00000000000E+00 -0.00000000000E+00 -0.77183122037E+03  0.77183122037E+03  0.00000000000E+00 0. -1.
         25    2    1    2    0    0 -0.87787064334E+02 -0.12748224323E+02 -0.44562289776E+03  0.47127088719E+03  0.12508955277E+03 0.  0.
          5    1    3    3  502    0  0.12846188773E+02 -0.45326522722E+02 -0.14884769423E+03  0.15618139039E+03  0.41800000000E+01 0.  1.
         -5    1    3    3    0  502 -0.10063325311E+03  0.32578298399E+02 -0.29677520354E+03  0.31508949680E+03  0.41800000000E+01 0.  1.
        -11    1    1    2    0    0  0.41598636931E+02  0.25156196834E+02 -0.25790818026E+03  0.26244982431E+03  0.00000000000E+00 0. -1.
         11    1    1    2    0    0  0.46188427403E+02 -0.12407972511E+02 -0.42457676847E+02  0.63952974372E+02  0.00000000000E+00 0.  1.
</event>
<event>
 7    1  0.2666594E-009  0.8975485E+02  0.7561462E-02  0.1303446E+00
         -1   -1    0    0    0  501 -0.00000000000E+00  0.00000000000E+00  0.10709844099E+04  0.10709844099E+04  0.00000000000E+00 0.  1.
          1   -1    0    0  501    0  0.00000000000E+00 -0.00000000000E+00 -0.10062249862E+02  0.10062249862E+02  0.00000000000E+00 0. -1.
         25    2    1    2    0    0 -0.20454503058E+02 -0.10309608716E+02  0.58976917890E+03  0.60332406232E+03  0.12509022770E+03 0.  0.
          5    1    3    3  502    0  0.81668037340E+01  0.40806653486E+02  0.44690921244E+03  0.44886211270E+03  0.41800000000E+01 0.  1.
         -5    1    3    3    0  502 -0.28621306792E+02 -0.51116262202E+02  0.14285996646E+03  0.15446194962E+03  0.41800000000E+01 0.  1.
        -11    1    1    2    0    0  0.49259514586E+02  0.92957992206E+01  0.29739279997E+03  0.30158811173E+03  0.00000000000E+00 0. -1.
         11    1    1    2    0    0 -0.28805011528E+02  0.10138094949E+01  0.17376018121E+03  0.17613448576E+03  0.00000000000E+00 0.  1.
</event>
<event>
 7    1  0.2666594E-009  0.1294981E+03  0.7561462E-02  0.1228202E+00
         -1   -1    0    0    0  501 -0.00000000000E+00  0.00000000000E+00  0.12781478424E+04  0.12781478424E+04  0.00000000000E+00 0.  1.
          1   -1    0    0  501    0  0.00000000000E+00 -0.00000000000E+00 -0.18165590232E+02  0.18165590232E+02  0.00000000000E+00 0. -1.
         25    2    1    2    0    0 -0.10500203050E+03 -0.33298356336E+01  0.80545326547E+03  0.82184995814E+03  0.12508347859E+03 0.  0.
          5    1    3    3  502    0 -0.25176440614E+02 -0.31243084559E+02  0.64514467380E+02  0.76089239687E+02  0.41800000000E+01 0. -1.
         -5    1    3    3    0  502 -0.79825589888E+02  0.27913248925E+02  0.74093879809E+03  0.74576071845E+03  0.41800000000E+01 0. -1.
        -11    1    1    2    0    0  0.49594534625E+01  0.30033911379E+02  0.72055851563E+02  0.78221977448E+02  0.00000000000E+00 0.  1.
         11    1    1    2    0    0  0.10004257704E+03 -0.26704075745E+02  0.38247313510E+03  0.39624149701E+03  0.00000000000E+00 0. -1.
</event>
<event>
 7    1  0.2666594E-009  0.8100044E+02  0.7561462E-02  0.1326236E+00
          1   -1    0    0  501    0  0.00000000000E+00  0.00000000000E+00  0.67854271998E+03  0.67854271998E+03  0.00000000000E+00 0. -1.
         -1   -1    0    0    0  501 -0.00000000000E+00 -0.00000000000E+00 -0.18421577387E+02  0.18421577387E+02  0.00000000000E+00 0.  1.
         25    2    1    2    0    0 -0.28965948721E+02  0.86137128284E+01  0.37625329897E+03  0.39765315215E+03  0.12509301415E+03 0.  0.
          5    1    3    3  502    0  0.17889885165E+02  0.86571696478E+01  0.19470241483E+01  0.20402398892E+02  0.41800000000E+01 0.  1.
         -5    1    3    3    0  502 -0.46855833886E+02 -0.43456819389E-01  0.37430627483E+03  0.37725075326E+03  0.41800000000E+01 0.  1.
        -11    1    1    2    0    0 -0.30693760061E+02 -0.15863988416E+02  0.93342422489E+02  0.99531808339E+02  0.00000000000E+00 0.  1.
         11    1    1    2    0    0  0.59659708781E+02  0.72502755873E+01  0.19052542113E+03  0.19977933688E+03  0.00000000000E+00 0. -1.
</event>
<event>
 7    1  0.2666594E-009  0.1097807E+03  0.7561462E-02  0.1260976E+00
         -2   -1    0    0    0  501 -0.00000000000E+00  0.00000000000E+00  0.34519410785E+03  0.34519410785E+03  0.00000000000E+00 0.  1.
          2   -1    0    0  501    0  0.00000000000E+00 -0.00000000000E+00 -0.62820012989E+02  0.62820012989E+02  0.00000000000E+00 0. -1.
         25    2    1    2    0    0 -0.17010513686E+02 -0.92376884586E+02  0.10856476605E+03  0.19041136533E+03  0.12508930106E+03 0.  0.
          5    1    3    3  502    0 -0.39707608909E+02 -0.87652277482E+02  0.12777722020E+03  0.16001283184E+03  0.41800000000E+01 0.  1.
         -5    1    3    3    0  502  0.22697095223E+02 -0.47246071041E+01 -0.19212454151E+02  0.30398533490E+02  0.41800000000E+01 0.  1.
        -11    1    1    2    0    0 -0.97822871910E+01  0.35359424920E+02  0.14270170404E+03  0.14734231710E+03  0.00000000000E+00 0.  1.
         11    1    1    2    0    0  0.26792800877E+02  0.57017459666E+02  0.31107624775E+02  0.70260438404E+02  0.00000000000E+00 0. -1.
</event>
<event>
 7    1  0.2666594E-009  0.1137414E+03  0.7561462E-02  0.1253794E+00
         -2   -1    0    0    0  501 -0.00000000000E+00  0.00000000000E+00  0.68913079132E+02  0.68913079132E+02  0.00000000000E+00 0.  1.
          2   -1    0    0  501    0  0.00000000000E+00 -0.00000000000E+00 -0.20782209232E+03  0.20782209232E+03  0.00000000000E+00 0. -1.
         25    2    1    2    0    0 -0.38111204874E+02 -0.27794720939E+02 -0.87233997584E+02  0.15963196687E+03  0.12509030363E+03 0.  0.
          5    1    3    3  502    0 -0.71109771617E+02 -0.54704016091E+02 -0.68357002731E+02  0.11286842436E+03  0.41800000000E+01 0. -1.
         -5    1    3    3    0  502  0.32998566743E+02  0.26909295152E+02 -0.18876994853E+02  0.46763542502E+02  0.41800000000E+01 0. -1.
        -11    1    1    2    0    0 -0.17015177244E+02 -0.16850476907E+02 -0.37914095492E+02  0.44843432804E+02  0.00000000000E+00 0. -1.
         11    1    1    2    0    0  0.55126382118E+02  0.44645197847E+02 -0.13760920117E+02  0.72259771787E+02  0.00000000000E+00 0.  1.
</event>
<event>
 7    1  0.3420854E-009  0.1056109E+03  0.7561462E-02  0.1268921E+00
          3   -1    0    0  501    0  0.00000000000E+00  0.00000000000E+00  0.51129743710E+03  0.51129743710E+03  0.00000000000E+00 0. -1.
         -3   -1    0    0    0  501 -0.00000000000E+00 -0.00000000000E+00 -0.38339007486E+02  0.38339007486E+02  0.00000000000E+00 0.  1.
         25    2    1    2    0    0 -0.79912991019E+02 -0.38574927166E+02  0.26437343481E+03  0.30563839078E+03  0.12508957489E+03 0.  0.
          5    1    3    3  502    0  0.10377304626E+02 -0.24567473649E+02  0.11978174057E+01  0.27021405947E+02  0.41800000000E+01 0. -1.
         -5    1    3    3    0  502 -0.90290295645E+02 -0.14007453516E+02  0.26317561741E+03  0.27861698484E+03  0.41800000000E+01 0. -1.
        -11    1    1    2    0    0  0.39437649041E+02  0.42041566902E+01  0.13625017171E+02  0.41936191867E+02  0.00000000000E+00 0.  1.
         11    1    1    2    0    0  0.40475341978E+02  0.34370770476E+02  0.19495997763E+03  0.20206186194E+03  0.00000000000E+00 0. -1.
</event>
<event>
 7    1  0.2666594E-009  0.8990240E+02  0.7561462E-02  0.1303088E+00
          1   -1    0    0  501    0  0.00000000000E+00  0.00000000000E+00  0.70838728894E+02  0.70838728894E+02  0.00000000000E+00 0. -1.
         -1   -1    0    0    0  501 -0.00000000000E+00 -0.00000000000E+00 -0.19382211323E+03  0.19382211323E+03  0.00000000000E+00 0.  1.
         25    2    1    2    0    0  0.11058664573E+02 -0.33120526243E+02 -0.99540195617E+02  0.16362959788E+03  0.12508849442E+03 0.  0.
          5    1    3    3  502    0  0.39372832444E+02 -0.35766059481E+02 -0.11797709074E+03  0.12948164845E+03  0.41800000000E+01 0.  1.
         -5    1    3    3    0  502 -0.28314167871E+02  0.26455332381E+01  0.18436895123E+02  0.34147949428E+02  0.41800000000E+01 0.  1.
        -11    1    1    2    0    0 -0.51017606010E+02  0.11599831818E+02 -0.17955527340E+02  0.55315035779E+02  0.00000000000E+00 0. -1.
         11    1    1    2    0    0  0.39958941437E+02  0.21520694426E+02 -0.54876613783E+01  0.45716208468E+02  0.00000000000E+00 0.  1.
</event>
<event>
 7    1  0.2666594E-009  0.1292943E+03  0.7561462E-02  0.1228507E+00
          2   -1    0    0  501    0  0.00000000000E+00  0.00000000000E+00  0.94538776052E+03  0.94538776052E+03  0.00000000000E+00 0. -1.
         -2   -1    0    0    0  501 -0.00000000000E+00 -0.00000000000E+00 -0.19025051944E+02  0.19025051944E+02  0.00000000000E+00 0.  1.
         25    2    1    2    0    0  0.56757800680E+02 -0.48192843680E+02  0.59092510813E+03  0.60859151163E+03  0.12508855462E+03 0.  0.
          5    1    3    3  502    0 -0.34985524702E+02  0.72654729687E+01  0.10593729910E+03  0.11187921065E+03  0.41800000000E+01 0.  1.
         -5    1    3    3    0  502  0.91743325382E+02 -0.55458316649E+02  0.48498780903E+03  0.49671230098E+03  0.41800000000E+01 0.  1.
        -11    1    1    2    0    0  0.35440839319E+01 -0.22290024806E+02  0.37399473357E+02  0.43682105537E+02  0.00000000000E+00 0.  1.
         11    1    1    2    0    0 -0.60301884612E+02  0.70482868487E+02  0.29803812709E+03  0.31213919529E+03  0.00000000000E+00 0. -1.
</event>
<event>
 7    1  0.2666594E-009  0.1212412E+03  0.7561462E-02  0.1241063E+00
          2   -1    0    0  501    0  0.00000000000E+00  0.00000000000E+00  0.93139580334E+02  0.93139580334E+02  0.00000000000E+00 0. -1.
         -2   -1    0    0    0  501 -0.00000000000E+00 -0.00000000000E+00 -0.17307413237E+03  0.17307413237E+03  0.00000000000E+00 0.  1.
         25    2    1    2    0    0  0.61195343392E+02 -0.22047144255E+02 -0.68043194500E+02  0.15655548628E+03  0.12509515315E+03 0.  0.
          5    1    3    3  502    0  0.41978605362E+02 -0.72798312554E+02 -0.26924960079E+02  0.88341516255E+02  0.41800000000E+01 0.  1.
         -5    1    3    3    0  502  0.19216738029E+02  0.50751168299E+02 -0.41118234421E+02  0.68213970022E+02  0.41800000000E+01 0.  1.
        -11    1    1    2    0    0  0.19969493288E+02  0.81557999884E+01 -0.16539935941E+02  0.27182112069E+02  0.00000000000E+00 0.  1.
         11    1    1    2    0    0 -0.81164836680E+02  0.13891344267E+02  0.46485784037E+01  0.82476114360E+02  0.00000000000E+00 0. -1.
</event>
<event>
 7    1  0.2666594E-009  0.1113734E+03  0.7561462E-02  0.1258048E+00
          1   -1    0    0  501    0  0.00000000000E+00  0.00000000000E+00  0.15190606104E+03  0.15190606104E+03  0.00000000000E+00 0. -1.
         -1   -1    0    0    0  501 -0.00000000000E+00 -0.00000000000E+00 -0.14803975721E+03  0.14803975721E+03  0.00000000000E+00 0.  1.
         25    2    1    2    0    0 -0.36643594511E+02 -0.87673503711E+02  0.40670148230E+02  0.16226777970E+03  0.12508946838E+03 0.  0.
          5    1    3    3  502    0 -0.41785939027E+02 -0.38530022710E+02  0.80522049040E+02  0.98650393471E+02  0.41800000000E+01 0. -1.
         -5    1    3    3    0  502  0.51423445158E+01 -0.49143481000E+02 -0.39851900811E+02  0.63617386226E+02  0.41800000000E+01 0. -1.
        -11    1    1    2    0    0  0.55818592701E+02  0.55514982743E+02  0.81826278638E+01  0.79149125067E+02  0.00000000000E+00 0. -1.
         11    1    1    2    0    0 -0.19174998190E+02  0.32158520967E+02 -0.44986472268E+02  0.58528913483E+02  0.00000000000E+00 0.  1.
</event>
<event>
 7    1  0.2666594E-009  0.1131231E+03  0.7561462E-02  0.1254893E+00
         -3   -1    0    0    0  501 -0.00000000000E+00  0.00000000000E+00  0.35612580806E+03  0.35612580806E+03  0.00000000000E+00 0.  1.
          3   -1    0    0  501    0  0.00000000000E+00 -0.00000000000E+00 -0.46651293745E+02  0.46651293745E+02  0.00000000000E+00 0. -1.
         25    2    1    2    0    0 -0.51920533485E+01 -0.51107034474E+02  0.98053238250E+02  0.16703790487E+03  0.12509331613E+03 0.  0.
          5    1    3    3  502    0 -0.64393825908E+02 -0.16901021552E+02  0.49930366231E+02  0.83323005326E+02  0.41800000000E+01 0. -1.
         -5    1    3    3    0  502  0.59201772559E+02 -0.34206012922E+02  0.48122872019E+02  0.83714899543E+02  0.41800000000E+01 0. -1.
        -11    1    1    2    0    0  0.31103439461E+02  0.56571408976E+02  0.19291969612E+03  0.20343489723E+03  0.00000000000E+00 0.  1.
         11    1    1    2    0    0 -0.25911386112E+02 -0.54643745022E+01  0.18501579940E+02  0.32304299702E+02  0.00000000000E+00 0. -1.
</event>
<event>
 7    1  0.2666594E-009  0.9249962E+02  0.7561462E-02  0.1296909E+00
          2   -1    0    0  501    0  0.00000000000E+00  0.00000000000E+00  0.36455184572E+03  0.36455184572E+03  0.00000000000E+00 0. -1.
         -2   -1    0    0    0  501 -0.00000000000E+00 -0.00000000000E+00 -0.53616963772E+02  0.53616963772E+02  0.00000000000E+00 0.  1.
         25    2    1    2    0    0 -0.36935639320E+02 -0.49901116090E+02  0.76490394635E+02  0.15922488017E+03  0.12508964448E+03 0.  0.
          5    1    3    3  502    0  0.69856606768E+01 -0.45436060857E+02  0.99192209051E+02  0.10940658946E+03  0.41800000000E+01 0. -1.
         -5    1    3    3    0  502 -0.43921299997E+02 -0.44650552327E+01 -0.22701814415E+02  0.49818290711E+02  0.41800000000E+01 0. -1.
        -11    1    1    2    0    0  0.50195726820E+02  0.83583844982E+01  0.57855101579E+02  0.77049895270E+02  0.00000000000E+00 0.  1.
         11    1    1    2    0    0 -0.13260087500E+02  0.41542731592E+02  0.17658938573E+03  0.18189403405E+03  0.00000000000E+00 0. -1.
</event>
<event>
 7    1  0.2666594E-009  0.8882120E+02  0.7561462E-02  0.1305732E+00
          1   -1    0    0  501    0  0.00000000000E+00  0.00000000000E+00  0.29273436897E+03  0.29273436897E+03  0.00000000000E+00 0. -1.
         -1   -1    0    0    0  501 -0.00000000000E+00 -0.00000000000E+00 -0.43797004165E+02  0.43797004165E+02  0.00000000000E+00 0.  1.
         25    2    1    2    0    0  0.11596097680E+02 -0.76729918441E+01  0.19073132097E+03  0.22851517560E+03  0.12508958547E+03 0.  0.
          5    1    3    3  502    0 -0.18013636907E+02 -0.42729723611E+02  0.18289039235E+02  0.50022812302E+02  0.41800000000E+01 0.  1.
         -5    1    3    3    0  502  0.29609734588E+02  0.35056731767E+02  0.17244228174E+03  0.17849236330E+03  0.41800000000E+01 0.  1.
        -11    1    1    2    0    0 -0.26353784177E+02 -0.32712459662E+02  0.95410861416E+01  0.43077363921E+02  0.00000000000E+00 0.  1.
         11    1    1    2    0    0  0.14757686497E+02  0.40385451506E+02  0.48664957689E+02  0.64938833612E+02  0.00000000000E+00 0. -1.
</event>
<event>
 7    1  0.2666594E-009  0.7578265E+02  0.7561462E-02  0.1341464E+00
         -3   -1    0    0    0  501 -0.00000000000E+00  0.00000000000E+00  0.60954075980E+02  0.60954075980E+02  0.00000000000E+00 0.  1.
          3   -1    0    0  501    0  0.00000000000E+00 -0.00000000000E+00 -0.32554489078E+03  0.32554489078E+03  0.00000000000E+00 0. -1.
         25    2    1    2    0    0 -0.60831399430E+02  0.30184186530E+02 -0.22077740099E+03  0.26268117930E+03  0.12508875607E+03 0.  0.
          5    1    3    3  502    0 -0.43635921710E+02  0.42884434875E+00 -0.22368425836E+03  0.22793945997E+03  0.41800000000E+01 0.  1.
         -5    1    3    3    0  502 -0.17195477721E+02  0.29755342181E+02  0.29068573709E+01  0.34741719332E+02  0.41800000000E+01 0.  1.
        -11    1    1    2    0    0  0.25796954319E+02  0.15417432139E+01  0.27836140691E+02  0.37983029801E+02  0.00000000000E+00 0.  1.
         11    1    1    2    0    0  0.35034445111E+02 -0.31725929744E+02 -0.71649554494E+02  0.85834757653E+02  0.00000000000E+00 0. -1.
</event>
<event>
 7    1  0.2666594E-009  0.1850952E+03  0.7561462E-02  0.1162961E+00
         -2   -1    0    0    0  501 -0.00000000000E+00  0.00000000000E+00  0.18748338737E+03  0.18748338737E+03  0.00000000000E+00 0. -1.
          2   -1    0    0  501    0  0.00000000000E+00 -0.00000000000E+00 -0.28025730611E+03  0.28025730611E+03  0.00000000000E+00 0.  1.
         25    2    1    2    0    0  0.14227876108E+03  0.10921483571E+03 -0.14175731792E+03  0.26059494051E+03  0.12507381677E+03 0.  0.
          5    1    3    3  502    0  0.41252118783E+02  0.42910904161E+02 -0.12501812783E+03  0.13852829201E+03  0.41800000000E+01 0.  1.
         -5    1    3    3    0  502  0.10102664229E+03  0.66303931546E+02 -0.16739190092E+02  0.12206664850E+03  0.41800000000E+01 0.  1.
        -11    1    1    2    0    0 -0.97868647929E+02 -0.10719305698E+03  0.59486251848E+01  0.14527219229E+03  0.00000000000E+00 0.  1.
         11    1    1    2    0    0 -0.44410113147E+02 -0.20217787296E+01  0.43034773991E+02  0.61873560681E+02  0.00000000000E+00 0. -1.
</event>
<event>
 7    1  0.2666594E-009  0.1484527E+03  0.7561462E-02  0.1202387E+00
         -1   -1    0    0    0  501 -0.00000000000E+00  0.00000000000E+00  0.32786149859E+02  0.32786149859E+02  0.00000000000E+00 0.  1.
          1   -1    0    0  501    0  0.00000000000E+00 -0.00000000000E+00 -0.73925045263E+03  0.73925045263E+03  0.00000000000E+00 0. -1.
         25    2    1    2    0    0 -0.62265922352E+02  0.86784133693E+02 -0.47455405862E+03  0.50225198031E+03  0.12508783404E+03 0.  0.
          5    1    3    3  502    0 -0.97954529329E+02  0.62324104963E+02 -0.28482152536E+03  0.30760389721E+03  0.41800000000E+01 0. -1.
         -5    1    3    3    0  502  0.35688606978E+02  0.24460028730E+02 -0.18973253327E+03  0.19464808310E+03  0.41800000000E+01 0. -1.
        -11    1    1    2    0    0  0.64752273742E+02 -0.16351177533E+02 -0.12525981899E+03  0.14195154178E+03  0.00000000000E+00 0. -1.
         11    1    1    2    0    0 -0.24863513904E+01 -0.70432956160E+02 -0.10665042517E+03  0.12783308040E+03  0.00000000000E+00 0.  1.
</event>
<event>
 7    1  0.2666594E-009  0.1259650E+03  0.7561462E-02  0.1233569E+00
          1   -1    0    0  501    0  0.00000000000E+00  0.00000000000E+00  0.66746807132E+03  0.66746807132E+03  0.00000000000E+00 0.  1.
         -1   -1    0    0    0  501 -0.00000000000E+00 -0.00000000000E+00 -0.34584671313E+02  0.34584671313E+02  0.00000000000E+00 0. -1.
         25    2    1    2    0    0 -0.53818051062E+02  0.48458616466E+02  0.15523591759E+03  0.21210906925E+03  0.12508975584E+03 0.  0.
          5    1    3    3  502    0 -0.19758836939E+02  0.88221329776E+02  0.11257777739E+03  0.14444598654E+03  0.41800000000E+01 0.  1.
         -5    1    3    3    0  502 -0.34059214124E+02 -0.39762713310E+02  0.42658140197E+02  0.67663082708E+02  0.41800000000E+01 0.  1.
        -11    1    1    2    0    0 -0.15451852224E+02  0.98803961689E+01  0.70628846160E+02  0.72971335985E+02  0.00000000000E+00 0. -1.
         11    1    1    2    0    0  0.69269903286E+02 -0.58339012635E+02  0.40701863626E+03  0.41697233740E+03  0.00000000000E+00 0.  1.
</event>
<event>
 7    1  0.2666594E-009  0.1651531E+03  0.7561462E-02  0.1182999E+00
          2   -1    0    0  501    0  0.00000000000E+00  0.00000000000E+00  0.48727430595E+03  0.48727430595E+03  0.00000000000E+00 0. -1.
         -2   -1    0    0    0  501 -0.00000000000E+00 -0.00000000000E+00 -0.68881817662E+02  0.68881817662E+02  0.00000000000E+00 0.  1.
         25    2    1    2    0    0  0.11981045586E+03 -0.69354666990E+02  0.14349935025E+03  0.23538011444E+03  0.12508844704E+03 0.  0.
          5    1    3    3  502    0 -0.12286473256E+02 -0.45248897943E+02  0.63418242316E+02  0.78979529301E+02  0.41800000000E+01 0. -1.
         -5    1    3    3    0  502  0.13209692911E+03 -0.24105769046E+02  0.80081107935E+02  0.15640058513E+03  0.41800000000E+01 0. -1.
        -11    1    1    2    0    0 -0.51723162913E+02  0.61487330377E+02  0.76756869079E+02  0.11111972970E+03  0.00000000000E+00 0.  1.
         11    1    1    2    0    0 -0.68087292944E+02  0.78673366132E+01  0.19813626896E+03  0.20965627947E+03  0.00000000000E+00 0. -1.
</event>
<event>
 7    1  0.2666594E-009  0.1334067E+03  0.7561462E-02  0.1222487E+00
         -1   -1    0    0    0  501 -0.00000000000E+00  0.00000000000E+00  0.27264730067E+03  0.27264730067E+03  0.00000000000E+00 0.  1.
          1   -1    0    0  501    0  0.00000000000E+00 -0.00000000000E+00 -0.11411587099E+03  0.11411587099E+03  0.00000000000E+00 0. -1.
         25    2    1    2    0    0 -0.67100594545E+02  0.59090665638E+02  0.20059339396E+03  0.25274332949E+03  0.12508910561E+03 0.  0.
          5    1    3    3  502    0 -0.32076559263E+02 -0.38295770598E+02  0.62386008235E+02  0.80030982271E+02  0.41800000000E+01 0. -1.
         -5    1    3    3    0  502 -0.35024035282E+02  0.97386436236E+02  0.13820738573E+03  0.17271234721E+03  0.41800000000E+01 0. -1.
        -11    1    1    2    0    0  0.10069846439E+02 -0.55016681074E+02  0.98521556989E+01  0.56791742143E+02  0.00000000000E+00 0.  1.
         11    1    1    2    0    0  0.57030748105E+02 -0.40739845641E+01 -0.51914119985E+02  0.77228100025E+02  0.00000000000E+00 0. -1.
</event>
<event>
 7    1  0.2666594E-009  0.1210004E+03  0.7561462E-02  0.1241456E+00
         -1   -1    0    0    0  501 -0.00000000000E+00  0.00000000000E+00  0.88459809373E+03  0.88459809373E+03  0.00000000000E+00 0.  1.
          1   -1    0    0  501    0  0.00000000000E+00 -0.00000000000E+00 -0.22662897945E+02  0.22662897945E+02  0.00000000000E+00 0. -1.
         25    2    1    2    0    0 -0.81383393276E+02 -0.19143307580E+02  0.60667076322E+03  0.62504913725E+03  0.12508911266E+03 0.  0.
          5    1    3    3  502    0 -0.96579017664E+02 -0.53563957568E+02  0.49316409880E+03  0.50539579039E+03  0.41800000000E+01 0. -1.
         -5    1    3    3    0  502  0.15195624388E+02  0.34420649989E+02  0.11350666442E+03  0.11965334686E+03  0.41800000000E+01 0. -1.
        -11    1    1    2    0    0  0.46977947390E+01 -0.10427523965E+02 -0.24607858785E+01  0.11698632338E+02  0.00000000000E+00 0. -1.
         11    1    1    2    0    0  0.76685598537E+02  0.29570831544E+02  0.25772521844E+03  0.27051322208E+03  0.00000000000E+00 0.  1.
</event>
<event>
 7    1  0.2666594E-009  0.4860611E+02  0.7561462E-02  0.1453008E+00
         -1   -1    0    0    0  501 -0.00000000000E+00  0.00000000000E+00  0.13982664182E+03  0.13982664182E+03  0.00000000000E+00 0.  1.
          1   -1    0    0  501    0  0.00000000000E+00 -0.00000000000E+00 -0.90106764200E+02  0.90106764200E+02  0.00000000000E+00 0. -1.
         25    2    1    2    0    0 -0.23597209171E+01  0.29396885362E+02  0.15130097660E+02  0.12940554184E+03  0.12508848569E+03 0.  0.
          5    1    3    3  502    0  0.14731714279E+02  0.15282699511E+02  0.68302262213E+02  0.71646742657E+02  0.41800000000E+01 0. -1.
         -5    1    3    3    0  502 -0.17091435196E+02  0.14114185851E+02 -0.53172164554E+02  0.57758799179E+02  0.41800000000E+01 0. -1.
        -11    1    1    2    0    0 -0.14816983250E+02  0.41026857762E+01  0.55412897813E+02  0.57506210684E+02  0.00000000000E+00 0.  1.
         11    1    1    2    0    0  0.17176704167E+02 -0.33499571138E+02 -0.20823117855E+02  0.43021653498E+02  0.00000000000E+00 0. -1.
</event>
<event>
 7    1  0.2666594E-009  0.8613977E+02  0.7561462E-02  0.1312479E+00
         -1   -1    0    0    0  501 -0.00000000000E+00  0.00000000000E+00  0.13593316263E+03  0.13593316263E+03  0.00000000000E+00 0.  1.
          1   -1    0    0  501    0  0.00000000000E+00 -0.00000000000E+00 -0.86569796354E+02  0.86569796354E+02  0.00000000000E+00 0. -1.
         25    2    1    2    0    0 -0.25073335826E+02  0.14170438295E+02  0.39136948346E+02  0.13419624800E+03  0.12508980278E+03 0.  0.
          5    1    3    3  502    0 -0.71388241005E+02  0.31505446159E+02  0.17628385384E+02  0.80106844044E+02  0.41800000000E+01 0.  1.
         -5    1    3    3    0  502  0.46314905179E+02 -0.17335007864E+02  0.21508562962E+02  0.54089403954E+02  0.41800000000E+01 0.  1.
        -11    1    1    2    0    0  0.12419748231E+02  0.10835578148E+02  0.42487681066E+02  0.45572611757E+02  0.00000000000E+00 0.  1.
         11    1    1    2    0    0  0.12653587595E+02 -0.25006016443E+02 -0.32261263139E+02  0.42734099226E+02  0.00000000000E+00 0. -1.
</event>
<event>
 7    1  0.2666594E-009  0.1273737E+03  0.7561462E-02  0.1231406E+00
          2   -1    0    0  501    0  0.00000000000E+00  0.00000000000E+00  0.41778265364E+03  0.41778265364E+03  0.00000000000E+00 0. -1.
         -2   -1    0    0    0  501 -0.00000000000E+00 -0.00000000000E+00 -0.51726833609E+02  0.51726833609E+02  0.00000000000E+00 0.  1.
         25    2    1    2    0    0  0.36720754982E+02 -0.69511754719E+02  0.10201074898E+03  0.17953636304E+03  0.12508722899E+03 0.  0.
          5    1    3    3  502    0  0.77538187011E+02 -0.54313275778E+02  0.38212424831E+02  0.10217516421E+03  0.41800000000E+01 0. -1.
         -5    1    3    3    0  502 -0.40817432029E+02 -0.15198478942E+02  0.63798324147E+02  0.77361198824E+02  0.41800000000E+01 0. -1.
        -11    1    1    2    0    0 -0.55887539991E+02  0.14157530078E+02  0.16640182409E+03  0.17610627429E+03  0.00000000000E+00 0.  1.
         11    1    1    2    0    0  0.19166785009E+02  0.55354224641E+02  0.97643246969E+02  0.11386684993E+03  0.00000000000E+00 0. -1.
</event>
<event>
 7    1  0.2666594E-009  0.1588961E+03  0.7561462E-02  0.1189949E+00
         -2   -1    0    0    0  501 -0.00000000000E+00  0.00000000000E+00  0.31020836195E+02  0.31020836195E+02  0.00000000000E+00 0.  1.
          2   -1    0    0  501    0  0.00000000000E+00 -0.00000000000E+00 -0.11849630276E+04  0.11849630276E+04  0.00000000000E+00 0. -1.
         25    2    1    2    0    0  0.12895308652E+03  0.78368681072E+02 -0.46224030274E+03  0.50207849336E+03  0.12508464065E+03 0.  0.
          5    1    3    3  502    0  0.25182983780E+02  0.42535903662E+02 -0.34425631656E+02  0.60382797942E+02  0.41800000000E+01 0. -1.
         -5    1    3    3    0  502  0.10377010274E+03  0.35832777409E+02 -0.42781467108E+03  0.44169569542E+03  0.41800000000E+01 0. -1.
        -11    1    1    2    0    0 -0.63101262281E+02 -0.10886480740E+02 -0.13673764056E+03  0.15098830123E+03  0.00000000000E+00 0.  1.
         11    1    1    2    0    0 -0.65851824235E+02 -0.67482200332E+02 -0.55496424812E+03  0.56291706921E+03  0.00000000000E+00 0. -1.
</event>
<event>
 7    1  0.2666594E-009  0.1290708E+03  0.7561462E-02  0.1228841E+00
         -1   -1    0    0    0  501 -0.00000000000E+00  0.00000000000E+00  0.43699182752E+02  0.43699182752E+02  0.00000000000E+00 0.  1.
          1   -1    0    0  501    0  0.00000000000E+00 -0.00000000000E+00 -0.54053798112E+03  0.54053798112E+03  0.00000000000E+00 0. -1.
         25    2    1    2    0    0  0.15285242249E+02  0.10202530890E+03 -0.33899936266E+03  0.37578068121E+03  0.12509096771E+03 0.  0.
          5    1    3    3  502    0 -0.31996059301E+02  0.17751999312E+02 -0.18914773641E+02  0.41401960730E+02  0.41800000000E+01 0. -1.
         -5    1    3    3    0  502  0.47281301550E+02  0.84273309584E+02 -0.32008458902E+03  0.33437872048E+03  0.41800000000E+01 0. -1.
        -11    1    1    2    0    0  0.28014109018E+02 -0.35610332996E+02 -0.10162179605E+03  0.11126488913E+03  0.00000000000E+00 0.  1.
         11    1    1    2    0    0 -0.43299351268E+02 -0.66414975901E+02 -0.56217639653E+02  0.97191593527E+02  0.00000000000E+00 0. -1.
</event>
<event>
 7    1  0.2666594E-009  0.2495896E+03  0.7561462E-02  0.1113564E+00
          2   -1    0    0  501    0  0.00000000000E+00  0.00000000000E+00  0.79343982414E+03  0.79343982414E+03  0.00000000000E+00 0. -1.
         -2   -1    0    0    0  501 -0.00000000000E+00 -0.00000000000E+00 -0.85472340910E+02  0.85472340910E+02  0.00000000000E+00 0.  1.
         25    2    1    2    0    0 -0.21206058007E+03 -0.96320610005E+02  0.29130633311E+03  0.39338807008E+03  0.12508974554E+03 0.  0.
          5    1    3    3  502    0 -0.44555007822E+02  0.27375378980E+02  0.87298493885E+02  0.10184821810E+03  0.41800000000E+01 0.  1.
         -5    1    3    3    0  502 -0.16750557225E+03 -0.12369598899E+03  0.20400783922E+03  0.29153985197E+03  0.41800000000E+01 0.  1.
        -11    1    1    2    0    0  0.18021742801E+03  0.59536110259E+02  0.26291845273E+03  0.32426683852E+03  0.00000000000E+00 0. -1.
         11    1    1    2    0    0  0.31843152061E+02  0.36784499746E+02  0.15374269740E+03  0.16125725645E+03  0.00000000000E+00 0.  1.
</event>
<event>
 7    1  0.2666594E-009  0.1761127E+03  0.7561462E-02  0.1171619E+00
         -2   -1    0    0    0  501 -0.00000000000E+00  0.00000000000E+00  0.40891784201E+03  0.40891784201E+03  0.00000000000E+00 0.  1.
          2   -1    0    0  501    0  0.00000000000E+00 -0.00000000000E+00 -0.95471023016E+02  0.95471023016E+02  0.00000000000E+00 0. -1.
         25    2    1    2    0    0  0.10872586014E+03 -0.12284494200E+03  0.18108081307E+03  0.27450046640E+03  0.12509217703E+03 0.  0.
          5    1    3    3  502    0  0.16612304089E+02 -0.32319725155E+02  0.13084414503E+03  0.13586094351E+03  0.41800000000E+01 0.  1.
         -5    1    3    3    0  502  0.92113556054E+02 -0.90525216842E+02  0.50236668037E+02  0.13863952290E+03  0.41800000000E+01 0.  1.
        -11    1    1    2    0    0 -0.30859307840E+02 -0.10005315607E+02  0.34889426367E+02  0.47641109276E+02  0.00000000000E+00 0.  1.
         11    1    1    2    0    0 -0.77866552303E+02  0.13285025760E+03  0.97476579560E+02  0.18224728935E+03  0.00000000000E+00 0. -1.
</event>
<event>
 7    1  0.2666594E-009  0.1037816E+03  0.7561462E-02  0.1272539E+00
          3   -1    0    0  501    0  0.00000000000E+00  0.00000000000E+00  0.21036135107E+02  0.21036135107E+02  0.00000000000E+00 0. -1.
         -3   -1    0    0    0  501 -0.00000000000E+00 -0.00000000000E+00 -0.86055896980E+03  0.86055896980E+03  0.00000000000E+00 0.  1.
         25    2    1    2    0    0  0.69097517980E+02 -0.22534192612E+02 -0.50967072554E+03  0.52980614851E+03  0.12509216483E+03 0.  0.
          5    1    3    3  502    0  0.66197332040E+02 -0.33310441867E+02 -0.12810340894E+03  0.14805278818E+03  0.41800000000E+01 0.  1.
         -5    1    3    3    0  502  0.29001859402E+01  0.10776249255E+02 -0.38156731660E+03  0.38175336033E+03  0.41800000000E+01 0.  1.
        -11    1    1    2    0    0 -0.94198177305E+02  0.17018846407E+02 -0.27577668951E+03  0.29191731743E+03  0.00000000000E+00 0.  1.
         11    1    1    2    0    0  0.25100659324E+02  0.55153462048E+01 -0.54075419650E+02  0.59871638967E+02  0.00000000000E+00 0. -1.
</event>
<event>
 7    1  0.2666594E-009  0.1510407E+03  0.7561462E-02  0.1199200E+00
         -2   -1    0    0    0  501 -0.00000000000E+00  0.00000000000E+00  0.24007528473E+02  0.24007528473E+02  0.00000000000E+00 0. -1.
          2   -1    0    0  501    0  0.00000000000E+00 -0.00000000000E+00 -0.10760836122E+04  0.10760836122E+04  0.00000000000E+00 0.  1.
         25    2    1    2    0    0 -0.89791461239E+02  0.75121369034E+02 -0.53267994846E+03  0.55955219409E+03  0.12507998967E+03 0.  0.
          5    1    3    3  502    0  0.28394626802E+02  0.26406547232E+01 -0.54371424282E+02  0.61538216313E+02  0.41800000000E+01 0. -1.
         -5    1    3    3    0  502 -0.11818608804E+03  0.72480714311E+02 -0.47830852418E+03  0.49801397778E+03  0.41800000000E+01 0. -1.
        -11    1    1    2    0    0  0.36364458032E+02 -0.72446917609E+02 -0.41911407831E+03  0.42688117821E+03  0.00000000000E+00 0.  1.
         11    1    1    2    0    0  0.53427003208E+02 -0.26744514245E+01 -0.10028205691E+03  0.11365776832E+03  0.00000000000E+00 0. -1.
</event>
<event>
 7    1  0.2666594E-009  0.7530503E+02  0.7561462E-02  0.1342929E+00
          1   -1    0    0  501    0  0.00000000000E+00  0.00000000000E+00  0.14930051663E+03  0.14930051663E+03  0.00000000000E+00 0. -1.
         -1   -1    0    0    0  501 -0.00000000000E+00 -0.00000000000E+00 -0.98388930423E+02  0.98388930423E+02  0.00000000000E+00 0.  1.
         25    2    1    2    0    0  0.47041953946E+02  0.23098038289E+02  0.24753853183E+02  0.13786381646E+03  0.12508882379E+03 0.  0.
          5    1    3    3  502    0  0.43308907797E+02 -0.18958588566E+02 -0.38899787913E+02  0.61365751643E+02  0.41800000000E+01 0.  1.
         -5    1    3    3    0  502  0.37330461489E+01  0.42056626855E+02  0.63653641097E+02  0.76498064818E+02  0.41800000000E+01 0.  1.
        -11    1    1    2    0    0 -0.28955743084E+02 -0.29688480922E+02 -0.29526349233E+02  0.50908214033E+02  0.00000000000E+00 0.  1.
         11    1    1    2    0    0 -0.18086210862E+02  0.65904426323E+01  0.55684082260E+02  0.58917416564E+02  0.00000000000E+00 0. -1.
</event>
<event>
 7    1  0.2666594E-009  0.1741334E+03  0.7561462E-02  0.1173605E+00
          1   -1    0    0  501    0  0.00000000000E+00  0.00000000000E+00  0.11932757981E+03  0.11932757981E+03  0.00000000000E+00 0. -1.
         -1   -1    0    0    0  501 -0.00000000000E+00 -0.00000000000E+00 -0.25523363946E+03  0.25523363946E+03  0.00000000000E+00 0.  1.
         25    2    1    2    0    0  0.11759403553E+03  0.68575500002E+02 -0.70516669570E+02  0.19786479510E+03  0.12508764951E+03 0.  0.
          5    1    3    3  502    0  0.13887366746E+03  0.33532945026E+02 -0.61946766616E+02  0.15577300218E+03  0.41800000000E+01 0. -1.
         -5    1    3    3    0  502 -0.21279631930E+02  0.35042554976E+02 -0.85699029535E+01  0.42091792917E+02  0.41800000000E+01 0. -1.
        -11    1    1    2    0    0 -0.81214318692E+02  0.57107071040E+01 -0.31017515692E+02  0.87123269084E+02  0.00000000000E+00 0. -1.
         11    1    1    2    0    0 -0.36379716836E+02 -0.74286207106E+02 -0.34371874390E+02  0.89573155087E+02  0.00000000000E+00 0.  1.
</event>
<event>
 7    1  0.2666594E-009  0.7703411E+02  0.7561462E-02  0.1337685E+00
          2   -1    0    0  501    0  0.00000000000E+00  0.00000000000E+00  0.46037123137E+02  0.46037123137E+02  0.00000000000E+00 0. -1.
         -2   -1    0    0    0  501 -0.00000000000E+00 -0.00000000000E+00 -0.28379253512E+03  0.28379253512E+03  0.00000000000E+00 0.  1.
         25    2    1    2    0    0  0.13359812905E+02  0.24930728420E+02 -0.15935209739E+03  0.20455086062E+03  0.12509171762E+03 0.  0.
          5    1    3    3  502    0 -0.25447000088E+02  0.31340403209E+02 -0.23058373225E+00  0.40586897585E+02  0.41800000000E+01 0.  1.
         -5    1    3    3    0  502  0.38806812992E+02 -0.64096747889E+01 -0.15912151365E+03  0.16396396303E+03  0.41800000000E+01 0.  1.
        -11    1    1    2    0    0 -0.26534958793E+02 -0.43622728386E+02 -0.85408216536E+01  0.51768640164E+02  0.00000000000E+00 0. -1.
         11    1    1    2    0    0  0.13175145888E+02  0.18691999966E+02 -0.69862492942E+02  0.73510157475E+02  0.00000000000E+00 0.  1.
</event>
<event>
 7    1  0.2666594E-009  0.1777121E+03  0.7561462E-02  0.1170036E+00
         -2   -1    0    0    0  501 -0.00000000000E+00  0.00000000000E+00  0.12499556698E+03  0.12499556698E+03  0.00000000000E+00 0.  1.
          2   -1    0    0  501    0  0.00000000000E+00 -0.00000000000E+00 -0.31669878084E+03  0.31669878084E+03  0.00000000000E+00 0. -1.
         25    2    1    2    0    0  0.15577976389E+03  0.31701734361E+01 -0.16198522360E+03  0.25722048331E+03  0.12508309050E+03 0.  0.
          5    1    3    3  502    0  0.11201351604E+03 -0.55967023041E+02 -0.90498867898E+02  0.15455372184E+03  0.41800000000E+01 0. -1.
         -5    1    3    3    0  502  0.43766247852E+02  0.59137196477E+02 -0.71486355706E+02  0.10266676147E+03  0.41800000000E+01 0. -1.
        -11    1    1    2    0    0 -0.12882875483E+03 -0.79597941510E+01  0.17138820877E+02  0.13020731767E+03  0.00000000000E+00 0.  1.
         11    1    1    2    0    0 -0.26951009062E+02  0.47896207149E+01 -0.46856811132E+02  0.54266546836E+02  0.00000000000E+00 0. -1.
</event>
<event>
 7    1  0.2666594E-009  0.1147668E+03  0.7561462E-02  0.1251989E+00
          1   -1    0    0  501    0  0.00000000000E+00  0.00000000000E+00  0.21465209794E+03  0.21465209794E+03  0.00000000000E+00 0. -1.
         -1   -1    0    0    0  501 -0.00000000000E+00 -0.00000000000E+00 -0.64965461655E+02  0.64965461655E+02  0.00000000000E+00 0.  1.
         25    2    1    2    0    0 -0.64067981480E+01 -0.39517407249E+02  0.11541790097E+03  0.17484744081E+03  0.12509061977E+03 0.  0.
          5    1    3    3  502    0  0.58251342481E+02 -0.29062626365E+02  0.50094495226E+02  0.82248319156E+02  0.41800000000E+01 0.  1.
         -5    1    3    3    0  502 -0.64658140629E+02 -0.10454780884E+02  0.65323405748E+02  0.92599121656E+02  0.41800000000E+01 0.  1.
        -11    1    1    2    0    0 -0.40420805678E+02  0.55064136739E+01  0.18445841513E+02  0.44770651016E+02  0.00000000000E+00 0.  1.
         11    1    1    2    0    0  0.46827603826E+02  0.34010993575E+02  0.15822893796E+02  0.59999467766E+02  0.00000000000E+00 0. -1.
</event>
<event>
 7    1  0.2666594E-009  0.1493665E+03  0.7561462E-02  0.1201254E+00
          4   -1    0    0  501    0  0.00000000000E+00  0.00000000000E+00  0.72461320718E+02  0.72461320718E+02  0.00000000000E+00 0. -1.
         -4   -1    0    0    0  501 -0.00000000000E+00 -0.00000000000E+00 -0.37286368016E+03  0.37286368016E+03  0.00000000000E+00 0.  1.
         25    2    1    2    0    0  0.16600403446E+02  0.10610313731E+03 -0.79176296052E+02  0.18289507323E+03  0.12509305662E+03 0.  0.
          5    1    3    3  502    0  0.66239604874E+02  0.47481804063E+02 -0.15575308798E+02  0.83079898983E+02  0.41800000000E+01 0.  1.
         -5    1    3    3    0  502 -0.49639201428E+02  0.58621333252E+02 -0.63600987254E+02  0.99815174249E+02  0.41800000000E+01 0.  1.
        -11    1    1    2    0    0 -0.53070003152E+02 -0.77110426426E+02 -0.16168440322E+03  0.18682689673E+03  0.00000000000E+00 0.  1.
         11    1    1    2    0    0  0.36469599707E+02 -0.28992710889E+02 -0.59541660169E+02  0.75603030913E+02  0.00000000000E+00 0. -1.
</event>
<event>
 7    1  0.2666594E-009  0.1076072E+03  0.7561462E-02  0.1265066E+00
          2   -1    0    0  501    0  0.00000000000E+00  0.00000000000E+00  0.86330358188E+03  0.86330358188E+03  0.00000000000E+00 0. -1.
         -2   -1    0    0    0  501 -0.00000000000E+00 -0.00000000000E+00 -0.14234695373E+02  0.14234695373E+02  0.00000000000E+00 0.  1.
         25    2    1    2    0    0  0.80692602956E+01  0.18815770520E+02  0.53069268634E+03  0.54562342930E+03  0.12510416893E+03 0.  0.
          5    1    3    3  502    0  0.66239691775E+02  0.47637120929E+01  0.29567716649E+03  0.30307234929E+03  0.41800000000E+01 0. -1.
         -5    1    3    3    0  502 -0.58170431479E+02  0.14052058427E+02  0.23501551985E+03  0.24255108001E+03  0.41800000000E+01 0. -1.
        -11    1    1    2    0    0  0.51456213306E+01  0.33924268157E+02  0.17998299784E+03  0.18322448772E+03  0.00000000000E+00 0. -1.
         11    1    1    2    0    0 -0.13214881626E+02 -0.52740038677E+02  0.13839320232E+03  0.14869036023E+03  0.00000000000E+00 0.  1.
</event>
<event>
 7    1  0.2666594E-009  0.1132914E+03  0.7561462E-02  0.1254593E+00
         -1   -1    0    0    0  501 -0.00000000000E+00  0.00000000000E+00  0.13973515975E+03  0.13973515975E+03  0.00000000000E+00 0.  1.
          1   -1    0    0  501    0  0.00000000000E+00 -0.00000000000E+00 -0.15121870467E+03  0.15121870467E+03  0.00000000000E+00 0. -1.
         25    2    1    2    0    0  0.26669280696E+02 -0.46695410276E+02  0.31345714706E+02  0.13972070514E+03  0.12509040627E+03 0.  0.
          5    1    3    3  502    0  0.57690778026E+02 -0.40824196919E+02 -0.24929572856E+02  0.75058623263E+02  0.41800000000E+01 0. -1.
         -5    1    3    3    0  502 -0.31021497330E+02 -0.58712133565E+01  0.56275287562E+02  0.64662081880E+02  0.41800000000E+01 0. -1.
        -11    1    1    2    0    0 -0.57225497155E+02 -0.11350247422E+02 -0.59729765983E+02  0.83493895499E+02  0.00000000000E+00 0. -1.
         11    1    1    2    0    0  0.30556216460E+02  0.58045657698E+02  0.16900506350E+02  0.67739263775E+02  0.00000000000E+00 0.  1.
</event>
<event>
 7    1  0.2666594E-009  0.1591409E+03  0.7561462E-02  0.1189670E+00
         -2   -1    0    0    0  501 -0.00000000000E+00  0.00000000000E+00  0.64125149636E+02  0.64125149636E+02  0.00000000000E+00 0.  1.
          2   -1    0    0  501    0  0.00000000000E+00 -0.00000000000E+00 -0.78761694196E+03  0.78761694196E+03  0.00000000000E+00 0. -1.
         25    2    1    2    0    0 -0.14053070783E+03  0.27779806656E+02 -0.63537827247E+03  0.66323215446E+03  0.12510293399E+03 0.  0.
          5    1    3    3  502    0 -0.91251212011E+02  0.42405875871E+02 -0.19149477528E+03  0.21636257385E+03  0.41800000000E+01 0.  1.
         -5    1    3    3    0  502 -0.49279495820E+02 -0.14626069215E+02 -0.44388349718E+03  0.44686958062E+03  0.41800000000E+01 0.  1.
        -11    1    1    2    0    0  0.89401588435E+02  0.24677822740E+02 -0.57458223980E+02  0.10910126696E+03  0.00000000000E+00 0. -1.
         11    1    1    2    0    0  0.51129119397E+02 -0.52457629395E+02 -0.30655295875E+02  0.79408670164E+02  0.00000000000E+00 0.  1.
</event>
<event>
 7    1  0.2666594E-009  0.1526773E+03  0.7561462E-02  0.1197221E+00
          1   -1    0    0  501    0  0.00000000000E+00  0.00000000000E+00  0.72570121192E+02  0.72570121192E+02  0.00000000000E+00 0. -1.
         -1   -1    0    0    0  501 -0.00000000000E+00 -0.00000000000E+00 -0.44378232577E+03  0.44378232577E+03  0.00000000000E+00 0.  1.
         25    2    1    2    0    0 -0.81091870874E+02 -0.11005008731E+03 -0.13421985934E+03  0.22880839977E+03  0.12510555513E+03 0.  0.
          5    1    3    3  502    0  0.73342977637E+01 -0.10551206424E+02 -0.86175086262E+02  0.87228079040E+02  0.41800000000E+01 0. -1.
         -5    1    3    3    0  502 -0.88426168638E+02 -0.99498880887E+02 -0.48044773082E+02  0.14158032073E+03  0.41800000000E+01 0. -1.
        -11    1    1    2    0    0  0.56492189394E+02  0.12235129159E+02 -0.11916245912E+03  0.13244152487E+03  0.00000000000E+00 0. -1.
         11    1    1    2    0    0  0.24599681480E+02  0.97814958152E+02 -0.11782988612E+03  0.15510252232E+03  0.00000000000E+00 0.  1.
</event>
<event>
 7    1  0.2666594E-009  0.7331704E+02  0.7561462E-02  0.1349163E+00
          1   -1    0    0  501    0  0.00000000000E+00  0.00000000000E+00  0.70732908391E+03  0.70732908391E+03  0.00000000000E+00 0.  1.
         -1   -1    0    0    0  501 -0.00000000000E+00 -0.00000000000E+00 -0.25167881684E+02  0.25167881684E+02  0.00000000000E+00 0. -1.
         25    2    1    2    0    0 -0.39602431488E+02  0.23896707003E+02  0.54713361612E+03  0.56315125199E+03  0.12507890923E+03 0.  0.
          5    1    3    3  502    0 -0.59882996240E+02 -0.85213427840E+01  0.12154746862E+03  0.13583021038E+03  0.41800000000E+01 0. -1.
         -5    1    3    3    0  502  0.20280564752E+02  0.32418049787E+02  0.42558614750E+03  0.42732104161E+03  0.41800000000E+01 0. -1.
        -11    1    1    2    0    0  0.20527061404E+02 -0.18695836672E+02  0.14469665393E+03  0.14733640493E+03  0.00000000000E+00 0.  1.
         11    1    1    2    0    0  0.19075370084E+02 -0.52008703311E+01 -0.96690678259E+01  0.22009308682E+02  0.00000000000E+00 0. -1.
</event>
<event>
 7    1  0.2666594E-009  0.1832476E+03  0.7561462E-02  0.1164696E+00
          1   -1    0    0  501    0  0.00000000000E+00  0.00000000000E+00  0.38843286075E+03  0.38843286075E+03  0.00000000000E+00 0. -1.
         -1   -1    0    0    0  501 -0.00000000000E+00 -0.00000000000E+00 -0.10138714010E+03  0.10138714010E+03  0.00000000000E+00 0.  1.
         25    2    1    2    0    0 -0.13115349328E+03 -0.77009588804E+02  0.22963143220E+03  0.30250530103E+03  0.12508855636E+03 0.  0.
          5    1    3    3  502    0 -0.13160666647E+03 -0.18977187335E+02  0.19062390420E+03  0.23245514310E+03  0.41800000000E+01 0.  1.
         -5    1    3    3    0  502  0.45317319296E+00 -0.58032401469E+02  0.39007527992E+02  0.70050157931E+02  0.41800000000E+01 0.  1.
        -11    1    1    2    0    0  0.81146219426E+02  0.92382550706E+02  0.24124725398E+02  0.12530461674E+03  0.00000000000E+00 0. -1.
         11    1    1    2    0    0  0.50007273851E+02 -0.15372961902E+02  0.33289563056E+02  0.62010083084E+02  0.00000000000E+00 0.  1.
</event>
<event>
 7    1  0.2666594E-009  0.2515953E+03  0.7561462E-02  0.1112301E+00
         -2   -1    0    0    0  501 -0.00000000000E+00  0.00000000000E+00  0.61389423497E+02  0.61389423497E+02  0.00000000000E+00 0.  1.
          2   -1    0    0  501    0  0.00000000000E+00 -0.00000000000E+00 -0.11422420234E+04  0.11422420234E+04  0.00000000000E+00 0. -1.
         25    2    1    2    0    0  0.23817514703E+03 -0.17514651016E+02 -0.48346764223E+03  0.55355665926E+03  0.12509936157E+03 0.  0.
          5    1    3    3  502    0  0.89219610904E+02 -0.39480898500E+02 -0.30376930385E+03  0.31908015087E+03  0.41800000000E+01 0.  1.
         -5    1    3    3    0  502  0.14895553613E+03  0.21966247484E+02 -0.17969833838E+03  0.23447650840E+03  0.41800000000E+01 0.  1.
        -11    1    1    2    0    0 -0.13520875246E+03 -0.34517658652E+02 -0.36123068503E+03  0.38724731543E+03  0.00000000000E+00 0.  1.
         11    1    1    2    0    0 -0.10296639457E+03  0.52032309668E+02 -0.23615427269E+03  0.26282747225E+03  0.00000000000E+00 0. -1.
</event>
<event>
 7    1  0.2666594E-009  0.7885035E+02  0.7561462E-02  0.1332346E+00
          1   -1    0    0  501    0  0.00000000000E+00  0.00000000000E+00  0.42891177214E+02  0.42891177214E+02  0.00000000000E+00 0. -1.
         -1   -1    0    0    0  501 -0.00000000000E+00 -0.00000000000E+00 -0.27471929762E+03  0.27471929762E+03  0.00000000000E+00 0.  1.
         25    2    1    2    0    0  0.40358515031E+01 -0.73592591936E+01 -0.12316164547E+03  0.17574447958E+03  0.12508750696E+03 0.  0.
          5    1    3    3  502    0  0.12783177387E+02  0.44518051651E+02 -0.11273291540E+03  0.12194855129E+03  0.41800000000E+01 0. -1.
         -5    1    3    3    0  502 -0.87473258837E+01 -0.51877310845E+02 -0.10428730074E+02  0.53795928299E+02  0.41800000000E+01 0. -1.
        -11    1    1    2    0    0 -0.56348580235E+01  0.32622836785E+02 -0.30362289267E+01  0.33244846081E+02  0.00000000000E+00 0. -1.
         11    1    1    2    0    0  0.15990065204E+01 -0.25263577591E+02 -0.10563024601E+03  0.10862114917E+03  0.00000000000E+00 0.  1.
</event>
<event>
 7    1  0.2666594E-009  0.1232492E+03  0.7561462E-02  0.1237831E+00
          2   -1    0    0  501    0  0.00000000000E+00  0.00000000000E+00  0.26080717390E+04  0.26080717390E+04  0.00000000000E+00 0. -1.
         -2   -1    0    0    0  501 -0.00000000000E+00 -0.00000000000E+00 -0.22793360387E+02  0.22793360387E+02  0.00000000000E+00 0.  1.
         25    2    1    2    0    0 -0.53181361134E+02 -0.76549437581E+02  0.23552095837E+04  0.23603701221E+04  0.12508739557E+03 0.  0.
          5    1    3    3  502    0 -0.82983650996E+02 -0.63200138298E+02  0.11547457257E+04  0.11594549181E+04  0.41800000000E+01 0. -1.
         -5    1    3    3    0  502  0.29802289862E+02 -0.13349299283E+02  0.12004638581E+04  0.12009152040E+04  0.41800000000E+01 0. -1.
        -11    1    1    2    0    0  0.57628863228E+01  0.57968046684E+02  0.32999733962E+02  0.66951383381E+02  0.00000000000E+00 0.  1.
         11    1    1    2    0    0  0.47418474811E+02  0.18581390897E+02  0.19706906097E+03  0.20354359394E+03  0.00000000000E+00 0. -1.
</event>
<event>
 7    1  0.2666594E-009  0.9846914E+02  0.7561462E-02  0.1283548E+00
          1   -1    0    0  501    0  0.00000000000E+00  0.00000000000E+00  0.17085614752E+03  0.17085614752E+03  0.00000000000E+00 0. -1.
         -1   -1    0    0    0  501 -0.00000000000E+00 -0.00000000000E+00 -0.70437771054E+02  0.70437771054E+02  0.00000000000E+00 0.  1.
         25    2    1    2    0    0 -0.17223777073E+02 -0.73115667362E+01  0.57420280917E+02  0.13890424082E+03  0.12508869634E+03 0.  0.
          5    1    3    3  502    0  0.35039863544E+02 -0.46966612065E+02  0.39419699853E+02  0.70746306070E+02  0.41800000000E+01 0. -1.
         -5    1    3    3    0  502 -0.52263640617E+02  0.39655045329E+02  0.18000581064E+02  0.68157934748E+02  0.41800000000E+01 0. -1.
        -11    1    1    2    0    0  0.17517668669E+02 -0.30215227590E+02  0.53071960515E+02  0.63533154234E+02  0.00000000000E+00 0. -1.
         11    1    1    2    0    0 -0.29389159632E+00  0.37526794326E+02 -0.10073864969E+02  0.38856523520E+02  0.00000000000E+00 0.  1.
</event>
<event>
 7    1  0.2666594E-009  0.6985071E+02  0.7561462E-02  0.1360601E+00
          1   -1    0    0  501    0  0.00000000000E+00  0.00000000000E+00  0.39897386409E+02  0.39897386409E+02  0.00000000000E+00 0. -1.
         -1   -1    0    0    0  501 -0.00000000000E+00 -0.00000000000E+00 -0.41998798595E+03  0.41998798595E+03  0.00000000000E+00 0.  1.
         25    2    1    2    0    0  0.71434469348E+00  0.36893934699E+02 -0.32244914645E+03  0.34782592768E+03  0.12509097174E+03 0.  0.
          5    1    3    3  502    0  0.68238855499E+01 -0.11776238161E+02 -0.28653413679E+03  0.28688765945E+03  0.41800000000E+01 0. -1.
         -5    1    3    3    0  502 -0.61095408564E+01  0.48670172859E+02 -0.35915009666E+02  0.60938268230E+02  0.41800000000E+01 0. -1.
        -11    1    1    2    0    0  0.31973588723E+02 -0.88798633192E+01 -0.60406360039E+02  0.68920901630E+02  0.00000000000E+00 0.  1.
         11    1    1    2    0    0 -0.32687933416E+02 -0.28014071379E+02  0.27649069488E+01  0.43138543053E+02  0.00000000000E+00 0. -1.
</event>
<event>
 7    1  0.2666594E-009  0.1047395E+03  0.7561462E-02  0.1270634E+00
         -2   -1    0    0    0  501 -0.00000000000E+00  0.00000000000E+00  0.11721168134E+02  0.11721168134E+02  0.00000000000E+00 0.  1.
          2   -1    0    0  501    0  0.00000000000E+00 -0.00000000000E+00 -0.12793840633E+04  0.12793840633E+04  0.00000000000E+00 0. -1.
         25    2    1    2    0    0 -0.38430864923E+02 -0.32347659341E+02 -0.90912594286E+03  0.91906554609E+03  0.12509274797E+03 0.  0.
          5    1    3    3  502    0 -0.21799034620E+02 -0.68215511666E+02 -0.29283362627E+03  0.30149222049E+03  0.41800000000E+01 0. -1.
         -5    1    3    3    0  502 -0.16631830303E+02  0.35867852325E+02 -0.61629231658E+03  0.61757332560E+03  0.41800000000E+01 0. -1.
        -11    1    1    2    0    0  0.47034014147E+02 -0.15383758438E+02 -0.21141989943E+03  0.21713413454E+03  0.00000000000E+00 0.  1.
         11    1    1    2    0    0 -0.86031492240E+01  0.47731417779E+02 -0.14711705292E+03  0.15490555083E+03  0.00000000000E+00 0. -1.
</event>
<event>
 7    1  0.2666594E-009  0.9515486E+02  0.7561462E-02  0.1290828E+00
         -2   -1    0    0    0  501 -0.00000000000E+00  0.00000000000E+00  0.10931510521E+02  0.10931510521E+02  0.00000000000E+00 0.  1.
          2   -1    0    0  501    0  0.00000000000E+00 -0.00000000000E+00 -0.11058673158E+04  0.11058673158E+04  0.00000000000E+00 0. -1.
         25    2    1    2    0    0 -0.15303649878E+01  0.56682179663E+01 -0.71646657988E+03  0.72732752205E+03  0.12508594455E+03 0.  0.
          5    1    3    3  502    0 -0.33972209264E+02 -0.37111502155E+02 -0.14919506964E+03  0.15750560561E+03  0.41800000000E+01 0. -1.
         -5    1    3    3    0  502  0.32441844276E+02  0.42779720122E+02 -0.56727151025E+03  0.56982191644E+03  0.41800000000E+01 0. -1.
        -11    1    1    2    0    0  0.42320073514E+02 -0.13531607093E+02 -0.26367103886E+03  0.26738831265E+03  0.00000000000E+00 0.  1.
         11    1    1    2    0    0 -0.40789708526E+02  0.78633891263E+01 -0.11479818653E+03  0.12208299161E+03  0.00000000000E+00 0. -1.
</event>
<event>
 7    1  0.2666594E-009  0.1182149E+03  0.7561462E-02  0.1246071E+00
          2   -1    0    0  501    0  0.00000000000E+00  0.00000000000E+00  0.16390709437E+03  0.16390709437E+03  0.00000000000E+00 0. -1.
         -2   -1    0    0    0  501 -0.00000000000E+00 -0.00000000000E+00 -0.10911724967E+03  0.10911724967E+03  0.00000000000E+00 0.  1.
         25    2    1    2    0    0  0.43670441772E+02  0.42320802076E+02 -0.19391615572E+02  0.14043528978E+03  0.12509147887E+03 0.  0.
          5    1    3    3  502    0 -0.36676894376E+02 -0.11990799701E+00 -0.31680923377E+02  0.48645269708E+02  0.41800000000E+01 0.  1.
         -5    1    3    3    0  502  0.80347336148E+02  0.42440710073E+02  0.12289307805E+02  0.91790020067E+02  0.41800000000E+01 0.  1.
        -11    1    1    2    0    0  0.22292810285E+02 -0.35924029242E+02  0.19005761505E+02  0.46354333538E+02  0.00000000000E+00 0.  1.
         11    1    1    2    0    0 -0.65963252057E+02 -0.63967728341E+01  0.55175698766E+02  0.86234720728E+02  0.00000000000E+00 0. -1.
</event>
<event>
 7    1  0.2666594E-009  0.1178040E+03  0.7561462E-02  0.1246764E+00
          2   -1    0    0  501    0  0.00000000000E+00  0.00000000000E+00  0.61043880531E+03  0.61043880531E+03  0.00000000000E+00 0. -1.
         -2   -1    0    0    0  501 -0.00000000000E+00 -0.00000000000E+00 -0.32466900673E+02  0.32466900673E+02  0.00000000000E+00 0.  1.
         25    2    1    2    0    0 -0.36615617328E+00 -0.60960949104E+02  0.16636939050E+03  0.21689318748E+03  0.12509000477E+03 0.  0.
          5    1    3    3  502    0 -0.39912109236E+02  0.16092258388E+02  0.95768395489E+02  0.10507614010E+03  0.41800000000E+01 0.  1.
         -5    1    3    3    0  502  0.39545953063E+02 -0.77053207492E+02  0.70600995011E+02  0.11181704738E+03  0.41800000000E+01 0.  1.
        -11    1    1    2    0    0 -0.78831915963E+01  0.82355515815E+02  0.36248511880E+03  0.37180645105E+03  0.00000000000E+00 0.  1.
         11    1    1    2    0    0  0.82493477695E+01 -0.21394566711E+02  0.49117395342E+02  0.54206067452E+02  0.00000000000E+00 0. -1.
</event>
<event>
 7    1  0.2666594E-009  0.1304122E+03  0.7561462E-02  0.1226845E+00
          1   -1    0    0  501    0  0.00000000000E+00  0.00000000000E+00  0.10502911833E+04  0.10502911833E+04  0.00000000000E+00 0. -1.
         -1   -1    0    0    0  501 -0.00000000000E+00 -0.00000000000E+00 -0.21227031595E+02  0.21227031595E+02  0.00000000000E+00 0.  1.
         25    2    1    2    0    0 -0.10153032013E+03  0.10796924325E+02  0.56471184791E+03  0.58734453596E+03  0.12509657578E+03 0.  0.
          5    1    3    3  502    0  0.10685969221E+02  0.33331443955E+02  0.24933539249E+03  0.25181498256E+03  0.41800000000E+01 0. -1.
         -5    1    3    3    0  502 -0.11221628935E+03 -0.22534519630E+02  0.31537645542E+03  0.33552955340E+03  0.41800000000E+01 0. -1.
        -11    1    1    2    0    0  0.24442387214E+02 -0.22314910917E+02  0.36464556422E+02  0.49244790760E+02  0.00000000000E+00 0.  1.
         11    1    1    2    0    0  0.77087932915E+02  0.11517986592E+02  0.42788774736E+03  0.43492888816E+03  0.00000000000E+00 0. -1.
</event>
<event>
 7    1  0.2666594E-009  0.2072225E+03  0.7561462E-02  0.1143785E+00
          2   -1    0    0  501    0  0.00000000000E+00  0.00000000000E+00  0.80190129100E+03  0.80190129100E+03  0.00000000000E+00 0. -1.
         -2   -1    0    0    0  501 -0.00000000000E+00 -0.00000000000E+00 -0.64020379946E+02  0.64020379946E+02  0.00000000000E+00 0.  1.
         25    2    1    2    0    0  0.19576516340E+03 -0.15925877818E+02  0.43961289008E+03  0.49747801038E+03  0.12508894796E+03 0.  0.
          5    1    3    3  502    0  0.73596352814E+01 -0.46947032699E+01 -0.74336936324E+01  0.12203961295E+02  0.41800000000E+01 0.  1.
         -5    1    3    3    0  502  0.18840552812E+03 -0.11231174548E+02  0.44704658371E+03  0.48527404909E+03  0.41800000000E+01 0.  1.
        -11    1    1    2    0    0 -0.11451228903E+03 -0.35417922893E+02  0.15548492669E+03  0.19632385496E+03  0.00000000000E+00 0.  1.
         11    1    1    2    0    0 -0.81252874375E+02  0.51343800711E+02  0.14278309428E+03  0.17211980560E+03  0.00000000000E+00 0. -1.
</event>
<event>
 7    1  0.2666594E-009  0.1518881E+03  0.7561462E-02  0.1198172E+00
         -2   -1    0    0    0  501 -0.00000000000E+00  0.00000000000E+00  0.27426394082E+02  0.27426394082E+02  0.00000000000E+00 0. -1.
          2   -1    0    0  501    0  0.00000000000E+00 -0.00000000000E+00 -0.88710381123E+03  0.88710381123E+03  0.00000000000E+00 0.  1.
         25    2    1    2    0    0 -0.10759223048E+03  0.43528267819E+01 -0.53262005025E+03  0.55760830861E+03  0.12509145755E+03 0.  0.
          5    1    3    3  502    0 -0.40637422704E+02 -0.57632948804E+02 -0.18041302950E+03  0.19375058845E+03  0.41800000000E+01 0. -1.
         -5    1    3    3    0  502 -0.66954807776E+02  0.61985775586E+02 -0.35220702075E+03  0.36385772017E+03  0.41800000000E+01 0. -1.
        -11    1    1    2    0    0  0.21861023743E+02  0.39765095169E+02 -0.12648444437E+03  0.13437812999E+03  0.00000000000E+00 0.  1.
         11    1    1    2    0    0  0.85731206737E+02 -0.44117921951E+02 -0.20057292253E+03  0.22254376670E+03  0.00000000000E+00 0. -1.
</event>
<event>
 7    1  0.2666594E-009  0.1595576E+03  0.7561462E-02  0.1189197E+00
          2   -1    0    0  501    0  0.00000000000E+00  0.00000000000E+00  0.49446215981E+02  0.49446215981E+02  0.00000000000E+00 0. -1.
         -2   -1    0    0    0  501 -0.00000000000E+00 -0.00000000000E+00 -0.62500943134E+03  0.62500943134E+03  0.00000000000E+00 0.  1.
         25    2    1    2    0    0  0.82237844551E+02 -0.94648474996E+02 -0.19435767091E+03  0.26295210381E+03  0.12508999863E+03 0.  0.
          5    1    3    3  502    0  0.71883108213E+02 -0.23854926477E+01 -0.13399052769E+03  0.15213088355E+03  0.41800000000E+01 0.  1.
         -5    1    3    3    0  502  0.10354736338E+02 -0.92262982348E+02 -0.60367143228E+02  0.11082122025E+03  0.41800000000E+01 0.  1.
        -11    1    1    2    0    0 -0.16883429174E+02  0.86665471535E+02 -0.23924867859E+03  0.25502134096E+03  0.00000000000E+00 0.  1.
         11    1    1    2    0    0 -0.65354415376E+02  0.79830034608E+01 -0.14195686585E+03  0.15648220255E+03  0.00000000000E+00 0. -1.
</event>
<event>
 7    1  0.2666594E-009  0.8807358E+02  0.7561462E-02  0.1307585E+00
         -2   -1    0    0    0  501 -0.00000000000E+00  0.00000000000E+00  0.77308240921E+02  0.77308240921E+02  0.00000000000E+00 0.  1.
          2   -1    0    0  501    0  0.00000000000E+00 -0.00000000000E+00 -0.19130329663E+03  0.19130329663E+03  0.00000000000E+00 0. -1.
         25    2    1    2    0    0  0.26796769071E+01 -0.55695988266E+02 -0.75201887491E+02  0.15624025364E+03  0.12508584731E+03 0.  0.
          5    1    3    3  502    0  0.20304739369E+02  0.17442204322E+02  0.20832035101E+02  0.34175415417E+02  0.41800000000E+01 0.  1.
         -5    1    3    3    0  502 -0.17625062462E+02 -0.73138192589E+02 -0.96033922593E+02  0.12206483822E+03  0.41800000000E+01 0.  1.
        -11    1    1    2    0    0 -0.23668856676E+02  0.15299290268E+02 -0.56806125825E+02  0.63413082170E+02  0.00000000000E+00 0. -1.
         11    1    1    2    0    0  0.20989179769E+02  0.40396697999E+02  0.18012957604E+02  0.48958201746E+02  0.00000000000E+00 0.  1.
</event>
<event>
 7    1  0.2666594E-009  0.1068876E+03  0.7561462E-02  0.1266444E+00
         -2   -1    0    0    0  501 -0.00000000000E+00  0.00000000000E+00  0.17709119875E+03  0.17709119875E+03  0.00000000000E+00 0. -1.
          2   -1    0    0  501    0  0.00000000000E+00 -0.00000000000E+00 -0.86462271996E+02  0.86462271996E+02  0.00000000000E+00 0.  1.
         25    2    1    2    0    0 -0.55598659567E+02 -0.10903791582E+02  0.31426666278E+02  0.14087609758E+03  0.12509330877E+03 0.  0.
          5    1    3    3  502    0  0.25742697324E+02  0.34944694519E+02  0.14022650125E+02  0.45803114054E+02  0.41800000000E+01 0. -1.
         -5    1    3    3    0  502 -0.81341356891E+02 -0.45848486100E+02  0.17404016154E+02  0.95072983528E+02  0.41800000000E+01 0. -1.
        -11    1    1    2    0    0 -0.11113265095E+01  0.19339231931E+02 -0.18047821211E+02  0.26475739626E+02  0.00000000000E+00 0.  1.
         11    1    1    2    0    0  0.56709986077E+02 -0.84354403491E+01  0.77250081682E+02  0.96201633534E+02  0.00000000000E+00 0. -1.
</event>
<event>
 7    1  0.2666594E-009  0.1096013E+03  0.7561462E-02  0.1261310E+00
          2   -1    0    0  501    0  0.00000000000E+00  0.00000000000E+00  0.18198599297E+03  0.18198599297E+03  0.00000000000E+00 0. -1.
         -2   -1    0    0    0  501 -0.00000000000E+00 -0.00000000000E+00 -0.97331538434E+02  0.97331538434E+02  0.00000000000E+00 0.  1.
         25    2    1    2    0    0 -0.31505276203E+02 -0.35697823439E+01 -0.26222164415E+02  0.13168474181E+03  0.12509174051E+03 0.  0.
          5    1    3    3  502    0  0.42501950697E+02  0.15323092115E+02  0.10891660649E+02  0.46661693462E+02  0.41800000000E+01 0.  1.
         -5    1    3    3    0  502 -0.74007226900E+02 -0.18892874459E+02 -0.37113825064E+02  0.85023048344E+02  0.41800000000E+01 0.  1.
        -11    1    1    2    0    0 -0.14726009941E+02 -0.34458125698E+02  0.38841539182E+02  0.53971130815E+02  0.00000000000E+00 0.  1.
         11    1    1    2    0    0  0.46231286145E+02  0.38027908042E+02  0.72035079765E+02  0.93661658780E+02  0.00000000000E+00 0. -1.
</event>
<event>
 7    1  0.2666594E-009  0.2188377E+03  0.7561462E-02  0.1134753E+00
         -2   -1    0    0    0  501 -0.00000000000E+00  0.00000000000E+00  0.16352880875E+03  0.16352880875E+03  0.00000000000E+00 0.  1.
          2   -1    0    0  501    0  0.00000000000E+00 -0.00000000000E+00 -0.59295943568E+03  0.59295943568E+03  0.00000000000E+00 0. -1.
         25    2    1    2    0    0 -0.15513869638E+03 -0.14343511120E+03 -0.46472400512E+03  0.52560099578E+03  0.12508540919E+03 0.  0.
          5    1    3    3  502    0  0.15082523734E+01 -0.28213542582E+02 -0.17064567056E+03  0.17301935178E+03  0.41800000000E+01 0. -1.
         -5    1    3    3    0  502 -0.15664694875E+03 -0.11522156862E+03 -0.29407833456E+03  0.35258164400E+03  0.41800000000E+01 0. -1.
        -11    1    1    2    0    0  0.98719793113E+02  0.11457489830E+03  0.60223664320E+02  0.16278788228E+03  0.00000000000E+00 0.  1.
         11    1    1    2    0    0  0.56418903263E+02  0.28860212903E+02 -0.24930286127E+02  0.68099366374E+02  0.00000000000E+00 0. -1.
</event>
<event>
 7    1  0.2666594E-009  0.9664234E+02  0.7561462E-02  0.1287519E+00
         -2   -1    0    0    0  501 -0.00000000000E+00  0.00000000000E+00  0.10926110301E+02  0.10926110301E+02  0.00000000000E+00 0.  1.
          2   -1    0    0  501    0  0.00000000000E+00 -0.00000000000E+00 -0.13112407730E+04  0.13112407730E+04  0.00000000000E+00 0. -1.
         25    2    1    2    0    0 -0.27618168672E+02  0.10749532829E+02 -0.90086347693E+03  0.90998930010E+03  0.12508879461E+03 0.  0.
          5    1    3    3  502    0  0.32144712133E+02 -0.20579889623E+02 -0.61670609926E+03  0.61790023438E+03  0.41800000000E+01 0.  1.
         -5    1    3    3    0  502 -0.59762880805E+02  0.31329422452E+02 -0.28415737766E+03  0.29208906572E+03  0.41800000000E+01 0.  1.
        -11    1    1    2    0    0  0.55067303468E+02 -0.19584201011E+02 -0.35069931390E+03  0.35553615514E+03  0.00000000000E+00 0. -1.
         11    1    1    2    0    0 -0.27449134796E+02  0.88346681813E+01 -0.48751871919E+02  0.56641428112E+02  0.00000000000E+00 0.  1.
</event>
<event>
 7    1  0.2666594E-009  0.2510573E+03  0.7561462E-02  0.1112638E+00
          2   -1    0    0  501    0  0.00000000000E+00  0.00000000000E+00  0.85194825359E+03  0.85194825359E+03  0.00000000000E+00 0. -1.
         -2   -1    0    0    0  501 -0.00000000000E+00 -0.00000000000E+00 -0.81817222121E+02  0.81817222121E+02  0.00000000000E+00 0.  1.
         25    2    1    2    0    0  0.19896855714E+03  0.12906500181E+03  0.46014883046E+03  0.53257020604E+03  0.12509123377E+03 0.  0.
          5    1    3    3  502    0  0.20442872915E+03  0.11342143110E+03  0.34882639170E+03  0.41994386562E+03  0.41800000000E+01 0.  1.
         -5    1    3    3    0  502 -0.54601720042E+01  0.15643570709E+02  0.11132243877E+03  0.11262634042E+03  0.41800000000E+01 0.  1.
        -11    1    1    2    0    0 -0.17556994939E+03 -0.72425851674E+02  0.26076144268E+03  0.32259392602E+03  0.00000000000E+00 0.  1.
         11    1    1    2    0    0 -0.23398607751E+02 -0.56639150132E+02  0.49220758333E+02  0.78601343648E+02  0.00000000000E+00 0. -1.
</event>
<event>
 7    1  0.2666594E-009  0.1357366E+03  0.7561462E-02  0.1219184E+00
          1   -1    0    0  501    0  0.00000000000E+00  0.00000000000E+00  0.24863159250E+03  0.24863159250E+03  0.00000000000E+00 0. -1.
         -1   -1    0    0    0  501 -0.00000000000E+00 -0.00000000000E+00 -0.94722574057E+02  0.94722574057E+02  0.00000000000E+00 0.  1.
         25    2    1    2    0    0  0.14739487815E+02  0.10504072986E+03  0.26033253659E+02  0.16606146118E+03  0.12509145119E+03 0.  0.
          5    1    3    3  502    0  0.65356597896E+02  0.26872868069E+02  0.11229153694E+02  0.71674278647E+02  0.41800000000E+01 0.  1.
         -5    1    3    3    0  502 -0.50617110082E+02  0.78167861796E+02  0.14804099965E+02  0.94387182533E+02  0.41800000000E+01 0.  1.
        -11    1    1    2    0    0  0.31452455150E+01 -0.36292354110E+02  0.89329762173E+02  0.96471933463E+02  0.00000000000E+00 0. -1.
         11    1    1    2    0    0 -0.17884733330E+02 -0.68748375755E+02  0.38546002607E+02  0.80820771910E+02  0.00000000000E+00 0.  1.
</event>
<event>
 7    1  0.2666594E-009  0.9819526E+02  0.7561462E-02  0.1284137E+00
         -1   -1    0    0    0  501 -0.00000000000E+00  0.00000000000E+00  0.32898015724E+03  0.32898015724E+03  0.00000000000E+00 0.  1.
          1   -1    0    0  501    0  0.00000000000E+00 -0.00000000000E+00 -0.42676052064E+02  0.42676052064E+02  0.00000000000E+00 0. -1.
         25    2    1    2    0    0 -0.95430855977E+01  0.42752197919E+02  0.13507723275E+03  0.18924169924E+03  0.12509093099E+03 0.  0.
          5    1    3    3  502    0  0.42136267028E+02  0.25341115168E+02  0.12397193053E+03  0.13343218905E+03  0.41800000000E+01 0. -1.
         -5    1    3    3    0  502 -0.51679352626E+02  0.17411082750E+02  0.11105302224E+02  0.55809510192E+02  0.41800000000E+01 0. -1.
        -11    1    1    2    0    0  0.44698217304E+02 -0.33895424254E+02  0.50933097234E+02  0.75769458289E+02  0.00000000000E+00 0. -1.
         11    1    1    2    0    0 -0.35155131706E+02 -0.88567736642E+01  0.10029377519E+03  0.10664505177E+03  0.00000000000E+00 0.  1.
</event>
<event>
 7    1  0.2666594E-009  0.9806484E+02  0.7561462E-02  0.1284419E+00
          2   -1    0    0  501    0  0.00000000000E+00  0.00000000000E+00  0.20546912776E+03  0.20546912776E+03  0.00000000000E+00 0. -1.
         -2   -1    0    0    0  501 -0.00000000000E+00 -0.00000000000E+00 -0.13511054415E+03  0.13511054415E+03  0.00000000000E+00 0.  1.
         25    2    1    2    0    0  0.50590544662E+02 -0.53493282859E+02  0.14262949719E+03  0.20349834002E+03  0.12508983333E+03 0.  0.
          5    1    3    3  502    0  0.47074826590E+02 -0.16365649335E+02 -0.58457960418E+01  0.50353942328E+02  0.41800000000E+01 0. -1.
         -5    1    3    3    0  502  0.35157180721E+01 -0.37127633525E+02  0.14847529323E+03  0.15314439769E+03  0.41800000000E+01 0. -1.
        -11    1    1    2    0    0  0.21788169059E+02  0.16318485160E+02 -0.42436158500E+02  0.50416711685E+02  0.00000000000E+00 0.  1.
         11    1    1    2    0    0 -0.72378713721E+02  0.37174797699E+02 -0.29834755082E+02  0.86664620202E+02  0.00000000000E+00 0. -1.
</event>
<event>
 7    1  0.2666594E-009  0.1681729E+03  0.7561462E-02  0.1179767E+00
         -2   -1    0    0    0  501 -0.00000000000E+00  0.00000000000E+00  0.31051170095E+03  0.31051170095E+03  0.00000000000E+00 0.  1.
          2   -1    0    0  501    0  0.00000000000E+00 -0.00000000000E+00 -0.97120476142E+02  0.97120476142E+02  0.00000000000E+00 0. -1.
         25    2    1    2    0    0 -0.34822743754E+02  0.13299618707E+03  0.12050534485E+03  0.22152613696E+03  0.12510668231E+03 0.  0.
          5    1    3    3  502    0 -0.75215658549E+02  0.57557231888E+02  0.89608874699E+02  0.13045096036E+03  0.41800000000E+01 0.  1.
         -5    1    3    3    0  502  0.40392914795E+02  0.75438955182E+02  0.30896470152E+02  0.91075176599E+02  0.41800000000E+01 0.  1.
        -11    1    1    2    0    0 -0.10723121606E+02 -0.97594301793E+02  0.34599342361E+02  0.10409970015E+03  0.00000000000E+00 0. -1.
         11    1    1    2    0    0  0.45545865360E+02 -0.35401885277E+02  0.58286537591E+02  0.82006339980E+02  0.00000000000E+00 0.  1.
</event>
<event>
 7    1  0.2666594E-009  0.1265828E+03  0.7561462E-02  0.1232616E+00
          2   -1    0    0  501    0  0.00000000000E+00  0.00000000000E+00  0.97075738106E+03  0.97075738106E+03  0.00000000000E+00 0.  1.
         -2   -1    0    0    0  501 -0.00000000000E+00 -0.00000000000E+00 -0.17854405931E+02  0.17854405931E+02  0.00000000000E+00 0. -1.
         25    2    1    2    0    0  0.73597951416E+02 -0.62500329934E+01  0.49767612134E+03  0.51844540538E+03  0.12509354596E+03 0.  0.
          5    1    3    3  502    0  0.10712468227E+03 -0.92001886755E+01  0.42227090452E+03  0.43576430582E+03  0.41800000000E+01 0.  1.
         -5    1    3    3    0  502 -0.33526730856E+02  0.29501556820E+01  0.75405216823E+02  0.82681099561E+02  0.41800000000E+01 0.  1.
        -11    1    1    2    0    0 -0.38676896098E+02  0.45099679602E+02  0.31437376051E+03  0.31993865770E+03  0.00000000000E+00 0.  1.
         11    1    1    2    0    0 -0.34921055318E+02 -0.38849646608E+02  0.14085309328E+03  0.15022772391E+03  0.00000000000E+00 0. -1.
</event>
<event>
 7    1  0.2666594E-009  0.1068276E+03  0.7561462E-02  0.1266560E+00
         -2   -1    0    0    0  501 -0.00000000000E+00  0.00000000000E+00  0.39126760364E+02  0.39126760364E+02  0.00000000000E+00 0. -1.
          2   -1    0    0  501    0  0.00000000000E+00 -0.00000000000E+00 -0.38391959300E+03  0.38391959300E+03  0.00000000000E+00 0.  1.
         25    2    1    2    0    0  0.21452882882E+02 -0.60592021941E+01 -0.27855742376E+03  0.30616837765E+03  0.12509155456E+03 0.  0.
          5    1    3    3  502    0 -0.52397688517E+02  0.23404561639E+01 -0.11618572392E+03  0.12754446417E+03  0.41800000000E+01 0.  1.
         -5    1    3    3    0  502  0.73850571399E+02 -0.83996583579E+01 -0.16237169985E+03  0.17862391348E+03  0.41800000000E+01 0.  1.
        -11    1    1    2    0    0  0.29274672644E+02  0.18152097061E+02 -0.25136061055E+01  0.34537274093E+02  0.00000000000E+00 0. -1.
         11    1    1    2    0    0 -0.50727555525E+02 -0.12092894867E+02 -0.63721802761E+02  0.82340701618E+02  0.00000000000E+00 0.  1.
</event>
<event>
 7    1  0.2666594E-009  0.1122829E+03  0.7561462E-02  0.1256400E+00
         -2   -1    0    0    0  501 -0.00000000000E+00  0.00000000000E+00  0.75220688410E+03  0.75220688410E+03  0.00000000000E+00 0.  1.
          2   -1    0    0  501    0  0.00000000000E+00 -0.00000000000E+00 -0.32230348321E+02  0.32230348321E+02  0.00000000000E+00 0. -1.
         25    2    1    2    0    0  0.45582073788E+02 -0.20087678861E+02  0.63618544407E+03  0.65027799100E+03  0.12509318939E+03 0.  0.
          5    1    3    3  502    0  0.52571087744E+02 -0.64882450771E+02  0.31611790396E+03  0.32698846048E+03  0.41800000000E+01 0. -1.
         -5    1    3    3    0  502 -0.69890139565E+01  0.44794771909E+02  0.32006754011E+03  0.32328953051E+03  0.41800000000E+01 0. -1.
        -11    1    1    2    0    0 -0.82637679329E+01  0.48073641206E+02  0.70365635101E+02  0.85619433789E+02  0.00000000000E+00 0.  1.
         11    1    1    2    0    0 -0.37318305855E+02 -0.27985962344E+02  0.13425456607E+02  0.48539807636E+02  0.00000000000E+00 0. -1.
</event>
<event>
 7    1  0.2666594E-009  0.3261177E+03  0.7561462E-02  0.1072868E+00
         -1   -1    0    0    0  501 -0.00000000000E+00  0.00000000000E+00  0.84117813132E+03  0.84117813132E+03  0.00000000000E+00 0.  1.
          1   -1    0    0  501    0  0.00000000000E+00 -0.00000000000E+00 -0.13348440777E+03  0.13348440777E+03  0.00000000000E+00 0. -1.
         25    2    1    2    0    0 -0.30805700477E+03 -0.50755100774E+02  0.43856387956E+03  0.55268568718E+03  0.12509194185E+03 0.  0.
          5    1    3    3  502    0  0.16818063542E+01  0.11992438424E+02  0.51013728798E+02  0.52597718371E+02  0.41800000000E+01 0.  1.
         -5    1    3    3    0  502 -0.30973881112E+03 -0.62747539198E+02  0.38755015076E+03  0.50008796881E+03  0.41800000000E+01 0.  1.
        -11    1    1    2    0    0  0.12388476244E+03  0.62620787143E+02  0.13672531622E+03  0.19483995853E+03  0.00000000000E+00 0. -1.
         11    1    1    2    0    0  0.18417224233E+03 -0.11865686370E+02  0.13240452778E+03  0.22713689338E+03  0.00000000000E+00 0.  1.
</event>
<event>
 7    1  0.2666594E-009  0.8847929E+02  0.7561462E-02  0.1306577E+00
         -2   -1    0    0    0  501 -0.00000000000E+00  0.00000000000E+00  0.26530775957E+02  0.26530775957E+02  0.00000000000E+00 0. -1.
          2   -1    0    0  501    0  0.00000000000E+00 -0.00000000000E+00 -0.49426199321E+03  0.49426199321E+03  0.00000000000E+00 0.  1.
         25    2    1    2    0    0 -0.51341921122E+02 -0.16670054815E+02 -0.22293321283E+03  0.26126809623E+03  0.12509163494E+03 0.  0.
          5    1    3    3  502    0 -0.21986559188E+02  0.33014550846E+02 -0.10709132155E+02  0.41298029784E+02  0.41800000000E+01 0.  1.
         -5    1    3    3    0  502 -0.29355361933E+02 -0.49684605661E+02 -0.21222408068E+03  0.21997006645E+03  0.41800000000E+01 0.  1.
        -11    1    1    2    0    0  0.89335272970E+01 -0.20790872729E+02 -0.12504806941E+03  0.12707906185E+03  0.00000000000E+00 0.  1.
         11    1    1    2    0    0  0.42408393824E+02  0.37460927544E+02 -0.11974993501E+03  0.13244561108E+03  0.00000000000E+00 0. -1.
</event>
<event>
 7    1  0.2666594E-009  0.1391431E+03  0.7561462E-02  0.1214487E+00
         -1   -1    0    0    0  501 -0.00000000000E+00  0.00000000000E+00  0.61338886371E+03  0.61338886371E+03  0.00000000000E+00 0.  1.
          1   -1    0    0  501    0  0.00000000000E+00 -0.00000000000E+00 -0.41903779036E+02  0.41903779036E+02  0.00000000000E+00 0. -1.
         25    2    1    2    0    0  0.65285249438E+02 -0.90761783441E+02  0.23467952724E+03  0.28847529064E+03  0.12507456846E+03 0.  0.
          5    1    3    3  502    0  0.87524762356E+02 -0.74880814025E+02  0.10511675516E+03  0.15599591325E+03  0.41800000000E+01 0. -1.
         -5    1    3    3    0  502 -0.22239512918E+02 -0.15880969416E+02  0.12956277208E+03  0.13247937739E+03  0.41800000000E+01 0. -1.
        -11    1    1    2    0    0 -0.68428665761E+02  0.30301738587E+02  0.25017279263E+03  0.26112660498E+03  0.00000000000E+00 0.  1.
         11    1    1    2    0    0  0.31434163228E+01  0.60460044854E+02  0.86632764805E+02  0.10569074712E+03  0.00000000000E+00 0. -1.
</event>
<event>
 7    1  0.2666594E-009  0.1086116E+03  0.7561462E-02  0.1263163E+00
         -2   -1    0    0    0  501 -0.00000000000E+00  0.00000000000E+00  0.72719865633E+03  0.72719865633E+03  0.00000000000E+00 0. -1.
          2   -1    0    0  501    0  0.00000000000E+00 -0.00000000000E+00 -0.18099011560E+02  0.18099011560E+02  0.00000000000E+00 0.  1.
         25    2    1    2    0    0  0.34837157264E+02 -0.12960003237E+02  0.37672549467E+03  0.39868582836E+03  0.12508677866E+03 0.  0.
          5    1    3    3  502    0 -0.38380058629E+02 -0.33657864039E+02  0.19535777219E+03  0.20196042253E+03  0.41800000000E+01 0. -1.
         -5    1    3    3    0  502  0.73217215894E+02  0.20697860802E+02  0.18136772248E+03  0.19672540584E+03  0.41800000000E+01 0. -1.
        -11    1    1    2    0    0 -0.37966968393E+02 -0.28969579284E+02  0.10456004707E+03  0.11495012247E+03  0.00000000000E+00 0.  1.
         11    1    1    2    0    0  0.31298111288E+01  0.41929582522E+02  0.22781410304E+03  0.23166171706E+03  0.00000000000E+00 0. -1.
</event>
<event>
 7    1  0.2666594E-009  0.1885269E+03  0.7561462E-02  0.1159797E+00
          1   -1    0    0  501    0  0.00000000000E+00  0.00000000000E+00  0.91020092097E+03  0.91020092097E+03  0.00000000000E+00 0. -1.
         -1   -1    0    0    0  501 -0.00000000000E+00 -0.00000000000E+00 -0.44897348818E+02  0.44897348818E+02  0.00000000000E+00 0.  1.
         25    2    1    2    0    0 -0.14358675958E+03 -0.89366148135E+02  0.48844505369E+03  0.53181925019E+03  0.12509867479E+03 0.  0.
          5    1    3    3  502    0 -0.13988082395E+03 -0.25351595538E+02  0.28581390340E+03  0.31924349340E+03  0.41800000000E+01 0. -1.
         -5    1    3    3    0  502 -0.37059356365E+01 -0.64014552597E+02  0.20263115029E+03  0.21257575679E+03  0.41800000000E+01 0. -1.
        -11    1    1    2    0    0  0.13191312229E+03  0.73916121396E+02  0.37437139330E+03  0.40375562529E+03  0.00000000000E+00 0.  1.
         11    1    1    2    0    0  0.11673637290E+02  0.15450026739E+02  0.24871251644E+01  0.19523394310E+02  0.00000000000E+00 0. -1.
</event>
<event>
 7    1  0.2666594E-009  0.1961601E+03  0.7561462E-02  0.1153020E+00
          2   -1    0    0  501    0  0.00000000000E+00  0.00000000000E+00  0.14376371328E+04  0.14376371328E+04  0.00000000000E+00 0. -1.
         -2   -1    0    0    0  501 -0.00000000000E+00 -0.00000000000E+00 -0.28097860819E+02  0.28097860819E+02  0.00000000000E+00 0.  1.
         25    2    1    2    0    0 -0.24375892246E+02 -0.16803797360E+03  0.74818292034E+03  0.77733927719E+03  0.12509086650E+03 0.  0.
          5    1    3    3  502    0  0.41988983062E+02 -0.23489327033E+02  0.12082619409E+03  0.13012019352E+03  0.41800000000E+01 0. -1.
         -5    1    3    3    0  502 -0.66364875308E+02 -0.14454864657E+03  0.62735672625E+03  0.64721908367E+03  0.41800000000E+01 0. -1.
        -11    1    1    2    0    0 -0.48456491727E+01  0.15102492357E+03  0.45894774259E+03  0.48318219988E+03  0.00000000000E+00 0.  1.
         11    1    1    2    0    0  0.29221541418E+02  0.17013050032E+02  0.20240860901E+03  0.20521351651E+03  0.00000000000E+00 0. -1.
</event>
<event>
 7    1  0.2666594E-009  0.1167247E+03  0.7561462E-02  0.1248600E+00
         -2   -1    0    0    0  501 -0.00000000000E+00  0.00000000000E+00  0.56295463778E+02  0.56295463778E+02  0.00000000000E+00 0. -1.
          2   -1    0    0  501    0  0.00000000000E+00 -0.00000000000E+00 -0.25173504472E+03  0.25173504472E+03  0.00000000000E+00 0.  1.
         25    2    1    2    0    0 -0.29740096909E+02 -0.34044842872E+02 -0.91111234193E+02  0.16121036143E+03  0.12507597270E+03 0.  0.
          5    1    3    3  502    0  0.41249765502E+02 -0.41480436556E+02 -0.57754452472E+02  0.82311718188E+02  0.41800000000E+01 0.  1.
         -5    1    3    3    0  502 -0.70989862411E+02  0.74355936844E+01 -0.33356781721E+02  0.78898643241E+02  0.41800000000E+01 0.  1.
        -11    1    1    2    0    0 -0.25735727710E+02  0.39938795758E+02 -0.47370055646E+02  0.67092154975E+02  0.00000000000E+00 0.  1.
         11    1    1    2    0    0  0.55475824619E+02 -0.58939528854E+01 -0.56958291104E+02  0.79727992094E+02  0.00000000000E+00 0. -1.
</event>
<event>
 7    1  0.2666594E-009  0.2123723E+03  0.7561462E-02  0.1139701E+00
          2   -1    0    0  501    0  0.00000000000E+00  0.00000000000E+00  0.76879798583E+03  0.76879798583E+03  0.00000000000E+00 0. -1.
         -2   -1    0    0    0  501 -0.00000000000E+00 -0.00000000000E+00 -0.11927545587E+03  0.11927545587E+03  0.00000000000E+00 0.  1.
         25    2    1    2    0    0 -0.18896367393E+03  0.20931659939E+02  0.24967199136E+02  0.22894585684E+03  0.12508972731E+03 0.  0.
          5    1    3    3  502    0 -0.10401338654E+03  0.73625230808E+02  0.12319244402E+02  0.12809642998E+03  0.41800000000E+01 0.  1.
         -5    1    3    3    0  502 -0.84950287385E+02 -0.52693570869E+02  0.12647954734E+02  0.10084942685E+03  0.41800000000E+01 0.  1.
        -11    1    1    2    0    0  0.10443288295E+03  0.14685964235E+02  0.21559682060E+03  0.24000811161E+03  0.00000000000E+00 0.  1.
         11    1    1    2    0    0  0.84530790982E+02 -0.35617624175E+02  0.40895851023E+03  0.41911947326E+03  0.00000000000E+00 0. -1.
</event>
<event>
 7    1  0.2666594E-009  0.9217061E+02  0.7561462E-02  0.1297679E+00
         -1   -1    0    0    0  501 -0.00000000000E+00  0.00000000000E+00  0.43212756133E+02  0.43212756133E+02  0.00000000000E+00 0.  1.
          1   -1    0    0  501    0  0.00000000000E+00 -0.00000000000E+00 -0.37893114633E+03  0.37893114633E+03  0.00000000000E+00 0. -1.
         25    2    1    2    0    0  0.28364305939E+02  0.42233322994E+02 -0.10492514327E+03  0.17101207039E+03  0.12509058760E+03 0.  0.
          5    1    3    3  502    0 -0.13951398313E+02 -0.19414572517E+02  0.15789118093E+02  0.28954028927E+02  0.41800000000E+01 0. -1.
         -5    1    3    3    0  502  0.42315704252E+02  0.61647895511E+02 -0.12071426137E+03  0.14205804146E+03  0.41800000000E+01 0. -1.
        -11    1    1    2    0    0 -0.88686603945E+01 -0.58880538245E+02 -0.89277740020E+02  0.10731302709E+03  0.00000000000E+00 0.  1.
         11    1    1    2    0    0 -0.19495645544E+02  0.16647215251E+02 -0.14151550691E+03  0.14381880498E+03  0.00000000000E+00 0. -1.
</event>
<event>
 7    1  0.2666594E-009  0.6632688E+02  0.7561462E-02  0.1373049E+00
          2   -1    0    0  501    0  0.00000000000E+00  0.00000000000E+00  0.20912793535E+03  0.20912793535E+03  0.00000000000E+00 0. -1.
         -2   -1    0    0    0  501 -0.00000000000E+00 -0.00000000000E+00 -0.62489174740E+02  0.62489174740E+02  0.00000000000E+00 0.  1.
         25    2    1    2    0    0  0.17828000057E+02  0.30880803987E+02  0.97294600287E+02  0.16243253465E+03  0.12508647979E+03 0.  0.
          5    1    3    3  502    0  0.47262448211E+02  0.11927773804E+02  0.11352563690E+03  0.12361858045E+03  0.41800000000E+01 0.  1.
         -5    1    3    3    0  502 -0.29434448155E+02  0.18953030183E+02 -0.16231036612E+02  0.38813954202E+02  0.41800000000E+01 0.  1.
        -11    1    1    2    0    0 -0.25479413798E+02 -0.12126090826E+02 -0.21516825467E+02  0.35485439047E+02  0.00000000000E+00 0.  1.
         11    1    1    2    0    0  0.76514137407E+01 -0.18754713161E+02  0.70860985790E+02  0.73699136393E+02  0.00000000000E+00 0. -1.
</event>
<event>
 7    1  0.2666594E-009  0.1364676E+03  0.7561462E-02  0.1218163E+00
         -2   -1    0    0    0  501 -0.00000000000E+00  0.00000000000E+00  0.11435193051E+03  0.11435193051E+03  0.00000000000E+00 0.  1.
          2   -1    0    0  501    0  0.00000000000E+00 -0.00000000000E+00 -0.43768021960E+03  0.43768021960E+03  0.00000000000E+00 0. -1.
         25    2    1    2    0    0  0.88255700105E+02  0.73481790656E+02  0.27204830203E+02  0.17197714901E+03  0.12508954727E+03 0.  0.
          5    1    3    3  502    0  0.10305387625E+03  0.84059193393E+02  0.50333899217E+02  0.14225689162E+03  0.41800000000E+01 0. -1.
         -5    1    3    3    0  502 -0.14798176142E+02 -0.10577402737E+02 -0.23129069014E+02  0.29720257388E+02  0.41800000000E+01 0. -1.
        -11    1    1    2    0    0 -0.85439389245E+02 -0.53001450721E+02 -0.34397246908E+03  0.35836587797E+03  0.00000000000E+00 0. -1.
         11    1    1    2    0    0 -0.28163108595E+01 -0.20480339935E+02 -0.65606502196E+01  0.21689123127E+02  0.00000000000E+00 0.  1.
</event>
<event>
 7    1  0.2666594E-009  0.1400546E+03  0.7561462E-02  0.1213255E+00
         -2   -1    0    0    0  501 -0.00000000000E+00  0.00000000000E+00  0.28339567867E+03  0.28339567867E+03  0.00000000000E+00 0.  1.
          2   -1    0    0  501    0  0.00000000000E+00 -0.00000000000E+00 -0.11525540575E+03  0.11525540575E+03  0.00000000000E+00 0. -1.
         25    2    1    2    0    0  0.11114820263E+03  0.60277998524E+02  0.10514818209E+02  0.17817331034E+03  0.12509119497E+03 0.  0.
          5    1    3    3  502    0  0.55208623731E+02  0.24945235741E+02  0.67468453734E+02  0.90772912093E+02  0.41800000000E+01 0. -1.
         -5    1    3    3    0  502  0.55939578903E+02  0.35332762783E+02 -0.56953635526E+02  0.87400398245E+02  0.41800000000E+01 0. -1.
        -11    1    1    2    0    0 -0.25556564219E+02 -0.62440269528E+02  0.56715713591E+02  0.88139647161E+02  0.00000000000E+00 0. -1.
         11    1    1    2    0    0 -0.85591638415E+02  0.21622710045E+01  0.10090974112E+03  0.13233812692E+03  0.00000000000E+00 0.  1.
</event>
<event>
 7    1  0.2666594E-009  0.1053639E+03  0.7561462E-02  0.1269404E+00
          2   -1    0    0  501    0  0.00000000000E+00  0.00000000000E+00  0.71253911352E+03  0.71253911352E+03  0.00000000000E+00 0.  1.
         -2   -1    0    0    0  501 -0.00000000000E+00 -0.00000000000E+00 -0.25537491179E+02  0.25537491179E+02  0.00000000000E+00 0. -1.
         25    2    1    2    0    0 -0.13412791980E+02  0.73056249251E+02  0.46757413158E+03  0.48968558991E+03  0.12509712190E+03 0.  0.
          5    1    3    3  502    0 -0.14310864622E+02  0.84133495741E+02  0.15585154067E+03  0.17773694349E+03  0.41800000000E+01 0.  1.
         -5    1    3    3    0  502  0.89807264239E+00 -0.11077246490E+02  0.31172259091E+03  0.31194864643E+03  0.41800000000E+01 0.  1.
        -11    1    1    2    0    0 -0.36608485181E+02 -0.28009526145E+02  0.11774136649E+03  0.12644265153E+03  0.00000000000E+00 0.  1.
         11    1    1    2    0    0  0.50021277161E+02 -0.45046723106E+02  0.10168612428E+03  0.12194836326E+03  0.00000000000E+00 0. -1.
</event>
<event>
 7    1  0.2666594E-009  0.1204019E+03  0.7561462E-02  0.1242435E+00
          3   -1    0    0  501    0  0.00000000000E+00  0.00000000000E+00  0.31212106728E+02  0.31212106728E+02  0.00000000000E+00 0. -1.
         -3   -1    0    0    0  501 -0.00000000000E+00 -0.00000000000E+00 -0.63811012406E+03  0.63811012406E+03  0.00000000000E+00 0.  1.
         25    2    1    2    0    0 -0.87299208839E+02  0.11780841317E+01 -0.27979984246E+03  0.31868052103E+03  0.12508710125E+03 0.  0.
          5    1    3    3  502    0  0.17867133500E+02  0.20078862518E+02 -0.10907949342E+02  0.29306158710E+02  0.41800000000E+01 0. -1.
         -5    1    3    3    0  502 -0.10516634234E+03 -0.18900778386E+02 -0.26889189312E+03  0.28937436232E+03  0.41800000000E+01 0. -1.
        -11    1    1    2    0    0  0.88495598198E+02 -0.17579981683E+02 -0.32043943205E+03  0.33289931852E+03  0.00000000000E+00 0.  1.
         11    1    1    2    0    0 -0.11963893596E+01  0.16401897552E+02 -0.66587428170E+01  0.17742391234E+02  0.00000000000E+00 0. -1.
</event>
<event>
 7    1  0.2666594E-009  0.2287183E+03  0.7561462E-02  0.1127545E+00
         -2   -1    0    0    0  501 -0.00000000000E+00  0.00000000000E+00  0.32765469536E+02  0.32765469536E+02  0.00000000000E+00 0.  1.
          2   -1    0    0  501    0  0.00000000000E+00 -0.00000000000E+00 -0.20020070240E+04  0.20020070240E+04  0.00000000000E+00 0. -1.
         25    2    1    2    0    0  0.19792293925E+03  0.69973867632E+02 -0.13941644254E+04  0.14154196912E+04  0.12509446551E+03 0.  0.
          5    1    3    3  502    0  0.13100852057E+03  0.89814757376E+02 -0.11661688234E+04  0.11769439750E+04  0.41800000000E+01 0.  1.
         -5    1    3    3    0  502  0.66914418681E+02 -0.19840889743E+02 -0.22799560195E+03  0.23847571626E+03  0.41800000000E+01 0.  1.
        -11    1    1    2    0    0  0.22652019057E+01 -0.22851861175E+02 -0.40145834238E+02  0.46249613030E+02  0.00000000000E+00 0.  1.
         11    1    1    2    0    0 -0.20018814116E+03 -0.47122006458E+02 -0.53493129489E+03  0.57310318932E+03  0.00000000000E+00 0. -1.
</event>
<event>
 7    1  0.2666594E-009  0.1536134E+03  0.7561462E-02  0.1196102E+00
          1   -1    0    0  501    0  0.00000000000E+00  0.00000000000E+00  0.42696500208E+03  0.42696500208E+03  0.00000000000E+00 0. -1.
         -1   -1    0    0    0  501 -0.00000000000E+00 -0.00000000000E+00 -0.80672098787E+02  0.80672098787E+02  0.00000000000E+00 0.  1.
         25    2    1    2    0    0 -0.52684268806E+02 -0.13967252053E+03  0.20700368091E+03  0.28422218692E+03  0.12509069693E+03 0.  0.
          5    1    3    3  502    0 -0.24891925823E+02 -0.18639327819E+02 -0.11038096767E+02  0.33261757214E+02  0.41800000000E+01 0.  1.
         -5    1    3    3    0  502 -0.27792342983E+02 -0.12103319271E+03  0.21804177768E+03  0.25096042971E+03  0.41800000000E+01 0.  1.
        -11    1    1    2    0    0  0.19361572094E+02  0.22045617440E+02 -0.95005374831E+01  0.30840556654E+02  0.00000000000E+00 0.  1.
         11    1    1    2    0    0  0.33322696711E+02  0.11762690309E+03  0.14878975986E+03  0.19257435729E+03  0.00000000000E+00 0. -1.
</event>
<event>
 7    1  0.2666594E-009  0.1039501E+03  0.7561462E-02  0.1272202E+00
          3   -1    0    0  501    0  0.00000000000E+00  0.00000000000E+00  0.27866142219E+03  0.27866142219E+03  0.00000000000E+00 0. -1.
         -3   -1    0    0    0  501 -0.00000000000E+00 -0.00000000000E+00 -0.68393064986E+02  0.68393064986E+02  0.00000000000E+00 0.  1.
         25    2    1    2    0    0  0.22118559888E+02 -0.60704068842E+02  0.47010016569E+02  0.14843380330E+03  0.12509371543E+03 0.  0.
          5    1    3    3  502    0 -0.42069652728E+02 -0.28259925965E+02 -0.15383440951E+02  0.53128163451E+02  0.41800000000E+01 0. -1.
         -5    1    3    3    0  502  0.64188212616E+02 -0.32444142877E+02  0.62393457520E+02  0.95305639849E+02  0.41800000000E+01 0. -1.
        -11    1    1    2    0    0 -0.40573417095E+02  0.46527287198E+02  0.40862130406E+02  0.74031779190E+02  0.00000000000E+00 0.  1.
         11    1    1    2    0    0  0.18454857208E+02  0.14176781643E+02  0.12239621023E+03  0.12458890468E+03  0.00000000000E+00 0. -1.
</event>
<event>
 7    1  0.2666594E-009  0.1054161E+03  0.7561462E-02  0.1269302E+00
          2   -1    0    0  501    0  0.00000000000E+00  0.00000000000E+00  0.45304746320E+02  0.45304746320E+02  0.00000000000E+00 0. -1.
         -2   -1    0    0    0  501 -0.00000000000E+00 -0.00000000000E+00 -0.33511649223E+03  0.33511649223E+03  0.00000000000E+00 0.  1.
         25    2    1    2    0    0 -0.18230089649E+02  0.56913637899E+02 -0.15631292791E+03  0.20892985219E+03  0.12508578399E+03 0.  0.
          5    1    3    3  502    0 -0.55981647669E+02 -0.80221733247E+01 -0.36439913827E+02  0.67406526838E+02  0.41800000000E+01 0. -1.
         -5    1    3    3    0  502  0.37751558020E+02  0.64935811224E+02 -0.11987301408E+03  0.14152332535E+03  0.41800000000E+01 0. -1.
        -11    1    1    2    0    0  0.35395484727E+02 -0.47748653630E+02 -0.30757964647E+02  0.66924036428E+02  0.00000000000E+00 0. -1.
         11    1    1    2    0    0 -0.17165395078E+02 -0.91649842692E+01 -0.10274085335E+03  0.10456734993E+03  0.00000000000E+00 0.  1.
</event>
<event>
 7    1  0.2666594E-009  0.1689193E+03  0.7561462E-02  0.1178980E+00
         -2   -1    0    0    0  501 -0.00000000000E+00  0.00000000000E+00  0.36796864515E+02  0.36796864515E+02  0.00000000000E+00 0. -1.
          2   -1    0    0  501    0  0.00000000000E+00 -0.00000000000E+00 -0.80437155114E+03  0.80437155114E+03  0.00000000000E+00 0.  1.
         25    2    1    2    0    0 -0.12269999508E+03 -0.49467955811E+02 -0.42698301247E+03  0.46417704047E+03  0.12507383629E+03 0.  0.
          5    1    3    3  502    0  0.23963435906E+02  0.56259500056E+01 -0.49135236631E+02  0.55114802482E+02  0.41800000000E+01 0. -1.
         -5    1    3    3    0  502 -0.14666343098E+03 -0.55093905817E+02 -0.37784777583E+03  0.40906223799E+03  0.41800000000E+01 0. -1.
        -11    1    1    2    0    0 -0.54012469938E+01  0.25191676207E+02 -0.26726085266E+02  0.37122468302E+02  0.00000000000E+00 0. -1.
         11    1    1    2    0    0  0.12810124207E+03  0.24276279604E+02 -0.31386558890E+03  0.33986890688E+03  0.00000000000E+00 0.  1.
</event>
<event>
 7    1  0.2666594E-009  0.1738460E+03  0.7561462E-02  0.1173895E+00
          1   -1    0    0  501    0  0.00000000000E+00  0.00000000000E+00  0.76726027470E+03  0.76726027470E+03  0.00000000000E+00 0. -1.
         -1   -1    0    0    0  501 -0.00000000000E+00 -0.00000000000E+00 -0.44989481482E+02  0.44989481482E+02  0.00000000000E+00 0.  1.
         25    2    1    2    0    0 -0.34864108205E+01 -0.14699754892E+03  0.30665413058E+03  0.36236003761E+03  0.12509039374E+03 0.  0.
          5    1    3    3  502    0  0.59378557056E+02 -0.52081688850E+02  0.12894246841E+03  0.15126780197E+03  0.41800000000E+01 0.  1.
         -5    1    3    3    0  502 -0.62864967876E+02 -0.94915860066E+02  0.17771166217E+03  0.21109223564E+03  0.41800000000E+01 0.  1.
        -11    1    1    2    0    0 -0.22101295016E+02  0.78600276393E+02  0.31596985183E+03  0.32634861414E+03  0.00000000000E+00 0. -1.
         11    1    1    2    0    0  0.25587705837E+02  0.68397272523E+02  0.99646810808E+02  0.12354110443E+03  0.00000000000E+00 0.  1.
</event>
<event>
 7    1  0.3217460E-009  0.2563662E+03  0.7561462E-02  0.1109346E+00
         -2   -1    0    0    0  501 -0.00000000000E+00  0.00000000000E+00  0.52360131802E+02  0.52360131802E+02  0.00000000000E+00 0.  1.
          2   -1    0    0  501    0  0.00000000000E+00 -0.00000000000E+00 -0.13085868237E+04  0.13085868237E+04  0.00000000000E+00 0. -1.
         25    2    1    2    0    0  0.21914485796E+03  0.90020671388E+02 -0.58554573399E+03  0.64392491122E+03  0.12508914681E+03 0.  0.
          5    1    3    3  502    0  0.33792328338E+02  0.68293430400E+02 -0.11837056222E+03  0.14083670150E+03  0.41800000000E+01 0.  1.
         -5    1    3    3    0  502  0.18535252962E+03  0.21727240989E+02 -0.46717517177E+03  0.50308820972E+03  0.41800000000E+01 0.  1.
        -11    1    1    2    0    0 -0.75444372968E+02  0.79064404156E+01 -0.15036194706E+03  0.16841342089E+03  0.00000000000E+00 0.  1.
         11    1    1    2    0    0 -0.14370048499E+03 -0.97927111804E+02 -0.52031901090E+03  0.54860862344E+03  0.00000000000E+00 0. -1.
</event>
<event>
 7    1  0.2666594E-009  0.1263721E+03  0.7561462E-02  0.1232940E+00
         -2   -1    0    0    0  501 -0.00000000000E+00  0.00000000000E+00  0.21071485931E+02  0.21071485931E+02  0.00000000000E+00 0.  1.
          2   -1    0    0  501    0  0.00000000000E+00 -0.00000000000E+00 -0.16785884909E+04  0.16785884909E+04  0.00000000000E+00 0. -1.
         25    2    1    2    0    0 -0.22018296201E+02 -0.10239102626E+03 -0.13724421959E+04  0.13821046552E+04  0.12508784550E+03 0.  0.
          5    1    3    3  502    0 -0.49989098180E+02 -0.79458134994E+02 -0.12683850571E+04  0.12718610893E+04  0.41800000000E+01 0.  1.
         -5    1    3    3    0  502  0.27970801978E+02 -0.22932891261E+02 -0.10405713887E+03  0.11024356587E+03  0.41800000000E+01 0.  1.
        -11    1    1    2    0    0  0.41932517589E+02  0.88953070455E+02 -0.27397724325E+03  0.29109193496E+03  0.00000000000E+00 0. -1.
         11    1    1    2    0    0 -0.19914221388E+02  0.13437955800E+02 -0.11097565810E+02  0.26463386716E+02  0.00000000000E+00 0.  1.
</event>
<event>
 7    1  0.2666594E-009  0.1201081E+03  0.7561462E-02  0.1242919E+00
          1   -1    0    0  501    0  0.00000000000E+00  0.00000000000E+00  0.20133072387E+03  0.20133072387E+03  0.00000000000E+00 0. -1.
         -1   -1    0    0    0  501 -0.00000000000E+00 -0.00000000000E+00 -0.11249688851E+03  0.11249688851E+03  0.00000000000E+00 0.  1.
         25    2    1    2    0    0  0.15890712618E+02  0.98707457208E+02  0.27447427803E+02  0.16247107056E+03  0.12509120920E+03 0.  0.
          5    1    3    3  502    0 -0.33040360905E+02  0.66110649679E+02  0.59863971784E+02  0.95202158418E+02  0.41800000000E+01 0.  1.
         -5    1    3    3    0  502  0.48931073523E+02  0.32596807529E+02 -0.32416543981E+02  0.67268912142E+02  0.41800000000E+01 0.  1.
        -11    1    1    2    0    0  0.12077417188E+02 -0.46244069605E+02  0.76325802616E+02  0.90055572424E+02  0.00000000000E+00 0. -1.
         11    1    1    2    0    0 -0.27968129806E+02 -0.52463387603E+02 -0.14939395056E+02  0.61300969391E+02  0.00000000000E+00 0.  1.
</event>
<event>
 7    1  0.2666594E-009  0.9876546E+02  0.7561462E-02  0.1282914E+00
         -1   -1    0    0    0  501 -0.00000000000E+00  0.00000000000E+00  0.52030283783E+02  0.52030283783E+02  0.00000000000E+00 0.  1.
          1   -1    0    0  501    0  0.00000000000E+00 -0.00000000000E+00 -0.47024451859E+03  0.47024451859E+03  0.00000000000E+00 0. -1.
         25    2    1    2    0    0  0.61522815573E+02  0.40977169386E+02 -0.36462498059E+03  0.39250882276E+03  0.12509042420E+03 0.  0.
          5    1    3    3  502    0  0.60117115165E+02  0.89879831476E+01 -0.57779967737E+02  0.83969330403E+02  0.41800000000E+01 0. -1.
         -5    1    3    3    0  502  0.14057004083E+01  0.31989186239E+02 -0.30684501286E+03  0.30853949236E+03  0.41800000000E+01 0. -1.
        -11    1    1    2    0    0  0.20402032590E+00 -0.42562663581E+02  0.71413765561E+01  0.43158095585E+02  0.00000000000E+00 0.  1.
         11    1    1    2    0    0 -0.61726835899E+02  0.15854941949E+01 -0.60730630774E+02  0.86607884030E+02  0.00000000000E+00 0. -1.
</event>
<event>
 7    1  0.2666594E-009  0.8724991E+02  0.7561462E-02  0.1309651E+00
         -1   -1    0    0    0  501 -0.00000000000E+00  0.00000000000E+00  0.90593485540E+02  0.90593485540E+02  0.00000000000E+00 0.  1.
          1   -1    0    0  501    0  0.00000000000E+00 -0.00000000000E+00 -0.14702730562E+03  0.14702730562E+03  0.00000000000E+00 0. -1.
         25    2    1    2    0    0  0.30168414836E+02  0.10254156756E+02 -0.13862671386E+02  0.12982342500E+03  0.12508663812E+03 0.  0.
          5    1    3    3  502    0 -0.18890369934E+02 -0.42428126620E+02 -0.30629676856E+02  0.55791052231E+02  0.41800000000E+01 0.  1.
         -5    1    3    3    0  502  0.49058784770E+02  0.52682283377E+02  0.16767005470E+02  0.74032372766E+02  0.41800000000E+01 0.  1.
        -11    1    1    2    0    0 -0.13448792415E+02 -0.28193708349E+02 -0.66539343870E+02  0.73506730920E+02  0.00000000000E+00 0. -1.
         11    1    1    2    0    0 -0.16719622421E+02  0.17939551593E+02  0.23968195177E+02  0.34290635242E+02  0.00000000000E+00 0.  1.
</event>
<event>
 7    1  0.2898887E-009  0.1068583E+03  0.7561462E-02  0.1266501E+00
          2   -1    0    0  501    0  0.00000000000E+00  0.00000000000E+00  0.16000367236E+03  0.16000367236E+03  0.00000000000E+00 0. -1.
         -2   -1    0    0    0  501 -0.00000000000E+00 -0.00000000000E+00 -0.14673168720E+03  0.14673168720E+03  0.00000000000E+00 0.  1.
         25    2    1    2    0    0 -0.65380965567E+02  0.82365659971E+02 -0.17870221054E+02  0.16439570020E+03  0.12509128204E+03 0.  0.
          5    1    3    3  502    0 -0.23158014983E+02  0.36465767264E+02  0.53913997771E+02  0.69211540915E+02  0.41800000000E+01 0.  1.
         -5    1    3    3    0  502 -0.42222950584E+02  0.45899892707E+02 -0.71784218825E+02  0.95184159285E+02  0.41800000000E+01 0.  1.
        -11    1    1    2    0    0  0.50047687855E+02 -0.44545869413E+02  0.61914824612E+02  0.91228016794E+02  0.00000000000E+00 0. -1.
         11    1    1    2    0    0  0.15333277712E+02 -0.37819790558E+02 -0.30772618394E+02  0.51111642569E+02  0.00000000000E+00 0.  1.
</event>
<event>
 7    1  0.2666594E-009  0.1146498E+03  0.7561462E-02  0.1252194E+00
          2   -1    0    0  501    0  0.00000000000E+00  0.00000000000E+00  0.41244989523E+03  0.41244989523E+03  0.00000000000E+00 0. -1.
         -2   -1    0    0    0  501 -0.00000000000E+00 -0.00000000000E+00 -0.42815192722E+02  0.42815192722E+02  0.00000000000E+00 0.  1.
         25    2    1    2    0    0  0.34553974037E+02  0.22539610098E+02  0.93896252825E+02  0.16175899375E+03  0.12508978623E+03 0.  0.
          5    1    3    3  502    0  0.10381877751E+02  0.73909109036E+02  0.55263092705E+02  0.92961398438E+02  0.41800000000E+01 0.  1.
         -5    1    3    3    0  502  0.24172096286E+02 -0.51369498938E+02  0.38633160120E+02  0.68797595313E+02  0.41800000000E+01 0.  1.
        -11    1    1    2    0    0  0.26615012708E+02  0.98835586935E+01  0.51294016731E+02  0.58626954434E+02  0.00000000000E+00 0.  1.
         11    1    1    2    0    0 -0.61168986744E+02 -0.32423168791E+02  0.22444443295E+03  0.23487913976E+03  0.00000000000E+00 0. -1.
</event>
<event>
 7    1  0.2666594E-009  0.1365838E+03  0.7561462E-02  0.1218001E+00
         -2   -1    0    0    0  501 -0.00000000000E+00  0.00000000000E+00  0.22930552015E+02  0.22930552015E+02  0.00000000000E+00 0. -1.
          2   -1    0    0  501    0  0.00000000000E+00 -0.00000000000E+00 -0.10640118812E+04  0.10640118812E+04  0.00000000000E+00 0.  1.
         25    2    1    2    0    0  0.57286097736E+02  0.76406600582E+02 -0.75768600150E+03  0.77385845934E+03  0.12509665310E+03 0.  0.
          5    1    3    3  502    0  0.89747166003E+02  0.31182707895E+02 -0.57571607747E+03  0.58351811398E+03  0.41800000000E+01 0.  1.
         -5    1    3    3    0  502 -0.32461068266E+02  0.45223892687E+02 -0.18196992403E+03  0.19034034537E+03  0.41800000000E+01 0.  1.
        -11    1    1    2    0    0  0.11027658300E+02  0.80216848646E+01 -0.54702505454E+01  0.14692866183E+02  0.00000000000E+00 0. -1.
         11    1    1    2    0    0 -0.68313756036E+02 -0.84428285446E+02 -0.27792507715E+03  0.29839110770E+03  0.00000000000E+00 0.  1.
</event>
<event>
 7    1  0.2666594E-009  0.1163949E+03  0.7561462E-02  0.1249166E+00
          2   -1    0    0  501    0  0.00000000000E+00  0.00000000000E+00  0.72828264083E+03  0.72828264083E+03  0.00000000000E+00 0. -1.
         -2   -1    0    0    0  501 -0.00000000000E+00 -0.00000000000E+00 -0.37020720188E+02  0.37020720188E+02  0.00000000000E+00 0.  1.
         25    2    1    2    0    0 -0.43091637406E+02  0.80101100407E+02  0.56225050359E+03  0.58313464705E+03  0.12508921736E+03 0.  0.
          5    1    3    3  502    0 -0.33947471572E+02 -0.98641150537E+01  0.41952127581E+02  0.55019860055E+02  0.41800000000E+01 0.  1.
         -5    1    3    3    0  502 -0.91441658334E+01  0.89965215461E+02  0.52029837601E+03  0.52811478699E+03  0.41800000000E+01 0.  1.
        -11    1    1    2    0    0  0.39828796967E+02 -0.16710559669E+02  0.58154043535E+01  0.43582046763E+02  0.00000000000E+00 0.  1.
         11    1    1    2    0    0  0.32628404390E+01 -0.63390540738E+02  0.12319601270E+03  0.13858666720E+03  0.00000000000E+00 0. -1.
</event>
<event>
 7    1  0.2666594E-009  0.1610997E+03  0.7561462E-02  0.1187461E+00
         -1   -1    0    0    0  501 -0.00000000000E+00  0.00000000000E+00  0.10684566970E+03  0.10684566970E+03  0.00000000000E+00 0.  1.
          1   -1    0    0  501    0  0.00000000000E+00 -0.00000000000E+00 -0.28130092657E+03  0.28130092657E+03  0.00000000000E+00 0. -1.
         25    2    1    2    0    0 -0.77634967442E+02  0.10913754259E+03 -0.86015706489E+02  0.20244591733E+03  0.12508979298E+03 0.  0.
          5    1    3    3  502    0  0.28052344753E+02  0.38898762047E+01  0.28602617356E+01  0.28770100455E+02  0.41800000000E+01 0.  1.
         -5    1    3    3    0  502 -0.10568731219E+03  0.10524766639E+03 -0.88875968225E+02  0.17367581687E+03  0.41800000000E+01 0.  1.
        -11    1    1    2    0    0  0.84384755810E+02 -0.86940550207E+02 -0.32954736420E+02  0.12556058671E+03  0.00000000000E+00 0.  1.
         11    1    1    2    0    0 -0.67497883687E+01 -0.22196992384E+02 -0.55484813958E+02  0.60140092234E+02  0.00000000000E+00 0. -1.
</event>
<event>
 7    1  0.2666594E-009  0.7232395E+02  0.7561462E-02  0.1352364E+00
         -1   -1    0    0    0  501 -0.00000000000E+00  0.00000000000E+00  0.90343622617E+02  0.90343622617E+02  0.00000000000E+00 0.  1.
          1   -1    0    0  501    0  0.00000000000E+00 -0.00000000000E+00 -0.17852157729E+03  0.17852157729E+03  0.00000000000E+00 0. -1.
         25    2    1    2    0    0  0.54659883809E+01  0.58650702350E+02 -0.23662981172E+02  0.14027571446E+03  0.12509019735E+03 0.  0.
          5    1    3    3  502    0 -0.30824269007E+01  0.36998138132E+02  0.50280656535E+02  0.62641682627E+02  0.41800000000E+01 0.  1.
         -5    1    3    3    0  502  0.85484152816E+01  0.21652564218E+02 -0.73943637706E+02  0.77634031831E+02  0.41800000000E+01 0.  1.
        -11    1    1    2    0    0  0.12788993379E+02  0.76266108696E+01 -0.57604197979E+02  0.59497623228E+02  0.00000000000E+00 0. -1.
         11    1    1    2    0    0 -0.18254981760E+02 -0.66277313219E+02 -0.69107755210E+01  0.69091862219E+02  0.00000000000E+00 0.  1.
</event>
<event>
 7    1  0.2666594E-009  0.1145887E+03  0.7561462E-02  0.1252301E+00
          2   -1    0    0  501    0  0.00000000000E+00  0.00000000000E+00  0.50607355557E+03  0.50607355557E+03  0.00000000000E+00 0. -1.
         -2   -1    0    0    0  501 -0.00000000000E+00 -0.00000000000E+00 -0.29844540502E+02  0.29844540502E+02  0.00000000000E+00 0.  1.
         25    2    1    2    0    0  0.29417872041E+02 -0.71510343859E+01  0.34174566680E+03  0.36516993722E+03  0.12506971570E+03 0.  0.
          5    1    3    3  502    0 -0.26951703015E+02 -0.49726412665E+02  0.12764254754E+03  0.13967534770E+03  0.41800000000E+01 0. -1.
         -5    1    3    3    0  502  0.56369575056E+02  0.42575378279E+02  0.21410311926E+03  0.22549458952E+03  0.41800000000E+01 0. -1.
        -11    1    1    2    0    0 -0.40449985247E+02 -0.37830043918E+02  0.51049796826E+02  0.75321944248E+02  0.00000000000E+00 0. -1.
         11    1    1    2    0    0  0.11032113205E+02  0.44981078304E+02  0.83433551441E+02  0.95426214602E+02  0.00000000000E+00 0.  1.
</event>
<event>
 7    1  0.2666594E-009  0.2705029E+03  0.7561462E-02  0.1100992E+00
          1   -1    0    0  501    0  0.00000000000E+00  0.00000000000E+00  0.58359147852E+03  0.58359147852E+03  0.00000000000E+00 0. -1.
         -1   -1    0    0    0  501 -0.00000000000E+00 -0.00000000000E+00 -0.17871076571E+03  0.17871076571E+03  0.00000000000E+00 0.  1.
         25    2    1    2    0    0  0.24489515534E+03  0.99646016287E+02  0.38098590527E+03  0.48031178548E+03  0.12508471365E+03 0.  0.
          5    1    3    3  502    0  0.24987087737E+03  0.94367263852E+02  0.38682993252E+03  0.47010159002E+03  0.41800000000E+01 0. -1.
         -5    1    3    3    0  502 -0.49757220301E+01  0.52787524352E+01 -0.58440272478E+01  0.10210195467E+02  0.41800000000E+01 0. -1.
        -11    1    1    2    0    0 -0.20734860855E+03 -0.74552200144E+02  0.55061747835E+02  0.22711951058E+03  0.00000000000E+00 0. -1.
         11    1    1    2    0    0 -0.37546546786E+02 -0.25093816143E+02 -0.31166940302E+02  0.54870948160E+02  0.00000000000E+00 0.  1.
</event>
<event>
 7    1  0.2666594E-009  0.1146039E+03  0.7561462E-02  0.1252274E+00
         -2   -1    0    0    0  501 -0.00000000000E+00  0.00000000000E+00  0.12713075576E+02  0.12713075576E+02  0.00000000000E+00 0. -1.
          2   -1    0    0  501    0  0.00000000000E+00 -0.00000000000E+00 -0.11151544130E+04  0.11151544130E+04  0.00000000000E+00 0.  1.
         25    2    1    2    0    0  0.79323270196E+01 -0.42683406941E+02 -0.74321747127E+03  0.75492009938E+03  0.12508937532E+03 0.  0.
          5    1    3    3  502    0 -0.22955851779E+02  0.37324452419E+02 -0.18678424037E+03  0.19190078356E+03  0.41800000000E+01 0. -1.
         -5    1    3    3    0  502  0.30888178798E+02 -0.80007859360E+02 -0.55643323089E+03  0.56301931582E+03  0.41800000000E+01 0. -1.
        -11    1    1    2    0    0 -0.48504136385E+02  0.28976716114E+02 -0.17899675418E+03  0.18770226245E+03  0.00000000000E+00 0. -1.
         11    1    1    2    0    0  0.40571809365E+02  0.13706690827E+02 -0.18022711199E+03  0.18524512675E+03  0.00000000000E+00 0.  1.
</event>
<event>
 7    1  0.2666594E-009  0.1101926E+03  0.7561462E-02  0.1260214E+00
          2   -1    0    0  501    0  0.00000000000E+00  0.00000000000E+00  0.62400217267E+03  0.62400217267E+03  0.00000000000E+00 0.  1.
         -2   -1    0    0    0  501 -0.00000000000E+00 -0.00000000000E+00 -0.21195959614E+02  0.21195959614E+02  0.00000000000E+00 0. -1.
         25    2    1    2    0    0 -0.63077903510E+01  0.37420582059E+02  0.36831264363E+03  0.39082264731E+03  0.12509216606E+03 0.  0.
          5    1    3    3  502    0  0.48452315219E+02  0.46782351561E+02  0.26487651617E+03  0.27333725777E+03  0.41800000000E+01 0.  1.
         -5    1    3    3    0  502 -0.54760105570E+02 -0.93617695013E+01  0.10343612746E+03  0.11748538953E+03  0.41800000000E+01 0.  1.
        -11    1    1    2    0    0  0.10297458778E+02  0.28937298786E+02  0.95190737299E+02  0.10002340419E+03  0.00000000000E+00 0.  1.
         11    1    1    2    0    0 -0.39896684268E+01 -0.66357880845E+02  0.13930283213E+03  0.15435208079E+03  0.00000000000E+00 0. -1.
</event>
<event>
 7    1  0.2666594E-009  0.1855534E+03  0.7561462E-02  0.1162534E+00
          2   -1    0    0  501    0  0.00000000000E+00  0.00000000000E+00  0.18010754321E+03  0.18010754321E+03  0.00000000000E+00 0. -1.
         -2   -1    0    0    0  501 -0.00000000000E+00 -0.00000000000E+00 -0.24383697987E+03  0.24383697987E+03  0.00000000000E+00 0.  1.
         25    2    1    2    0    0 -0.16746274359E+03 -0.32499280826E+02 -0.85579064630E+02  0.22819030587E+03  0.12508823144E+03 0.  0.
          5    1    3    3  502    0 -0.12708914256E+03 -0.49448394296E+02 -0.51644803587E+01  0.13653182088E+03  0.41800000000E+01 0. -1.
         -5    1    3    3    0  502 -0.40373601033E+02  0.16949113470E+02 -0.80414584272E+02  0.91658484994E+02  0.41800000000E+01 0. -1.
        -11    1    1    2    0    0 -0.97830539517E+01 -0.23173268186E+01  0.10842175613E+02  0.14786173279E+02  0.00000000000E+00 0. -1.
         11    1    1    2    0    0  0.17724579755E+03  0.34816607644E+02  0.11007452358E+02  0.18096804393E+03  0.00000000000E+00 0.  1.
</event>
<event>
 7    1  0.2666594E-009  0.9814512E+02  0.7561462E-02  0.1284246E+00
          1   -1    0    0  501    0  0.00000000000E+00  0.00000000000E+00  0.24737348468E+02  0.24737348468E+02  0.00000000000E+00 0. -1.
         -1   -1    0    0    0  501 -0.00000000000E+00 -0.00000000000E+00 -0.60664673633E+03  0.60664673633E+03  0.00000000000E+00 0.  1.
         25    2    1    2    0    0 -0.15926459641E+01  0.26627913225E+02 -0.44383389436E+03  0.46189305364E+03  0.12508031397E+03 0.  0.
          5    1    3    3  502    0  0.54476952279E+02  0.38402695023E+02 -0.29240254758E+03  0.29993203821E+03  0.41800000000E+01 0. -1.
         -5    1    3    3    0  502 -0.56069598243E+02 -0.11774781798E+02 -0.15143134678E+03  0.16196101543E+03  0.41800000000E+01 0. -1.
        -11    1    1    2    0    0 -0.32668435792E+02 -0.14121076868E+02 -0.12621767053E+03  0.13113936046E+03  0.00000000000E+00 0.  1.
         11    1    1    2    0    0  0.34261081756E+02 -0.12506836357E+02 -0.11857822974E+02  0.38351670686E+02  0.00000000000E+00 0. -1.
</event>
<event>
 7    1  0.2666594E-009  0.1077543E+03  0.7561462E-02  0.1264786E+00
         -2   -1    0    0    0  501 -0.00000000000E+00  0.00000000000E+00  0.25944381791E+02  0.25944381791E+02  0.00000000000E+00 0.  1.
          2   -1    0    0  501    0  0.00000000000E+00 -0.00000000000E+00 -0.60307526047E+03  0.60307526047E+03  0.00000000000E+00 0. -1.
         25    2    1    2    0    0 -0.56681015956E+02 -0.16621806657E+02 -0.37739724745E+03  0.40195196788E+03  0.12509068740E+03 0.  0.
          5    1    3    3  502    0 -0.34940008107E+02  0.53731026945E+02 -0.16142620829E+03  0.17373462679E+03  0.41800000000E+01 0.  1.
         -5    1    3    3    0  502 -0.21741007849E+02 -0.70352833602E+02 -0.21597103916E+03  0.22821734109E+03  0.41800000000E+01 0.  1.
        -11    1    1    2    0    0  0.21442960103E+02  0.32451272039E+02 -0.20991473201E+02  0.44198727834E+02  0.00000000000E+00 0.  1.
         11    1    1    2    0    0  0.35238055853E+02 -0.15829465382E+02 -0.17874215803E+03  0.18286894655E+03  0.00000000000E+00 0. -1.
</event>
<event>
 7    1  0.2666594E-009  0.1148285E+03  0.7561462E-02  0.1251881E+00
         -2   -1    0    0    0  501 -0.00000000000E+00  0.00000000000E+00  0.10623019222E+02  0.10623019222E+02  0.00000000000E+00 0.  1.
          2   -1    0    0  501    0  0.00000000000E+00 -0.00000000000E+00 -0.15323210903E+04  0.15323210903E+04  0.00000000000E+00 0. -1.
         25    2    1    2    0    0  0.39351523825E+02  0.43811991249E+02 -0.10816088374E+04  0.10904095472E+04  0.12508905032E+03 0.  0.
          5    1    3    3  502    0  0.62284132415E+02  0.74919671742E+02 -0.68621943049E+03  0.69311387921E+03  0.41800000000E+01 0.  1.
         -5    1    3    3    0  502 -0.22932608590E+02 -0.31107680493E+02 -0.39538940687E+03  0.39729566797E+03  0.41800000000E+01 0.  1.
        -11    1    1    2    0    0 -0.42662979311E+02 -0.61733946214E+02 -0.41377837343E+03  0.42052794465E+03  0.00000000000E+00 0. -1.
         11    1    1    2    0    0  0.33114554856E+01  0.17921954965E+02 -0.26310860314E+02  0.32006617716E+02  0.00000000000E+00 0.  1.
</event>
<event>
 7    1  0.2666594E-009  0.9530801E+02  0.7561462E-02  0.1290484E+00
          1   -1    0    0  501    0  0.00000000000E+00  0.00000000000E+00  0.71376230280E+03  0.71376230280E+03  0.00000000000E+00 0. -1.
         -1   -1    0    0    0  501 -0.00000000000E+00 -0.00000000000E+00 -0.17468295684E+02  0.17468295684E+02  0.00000000000E+00 0.  1.
         25    2    1    2    0    0  0.12301579552E+02  0.84604185520E+01  0.31693551552E+03  0.34105482202E+03  0.12508942034E+03 0.  0.
          5    1    3    3  502    0  0.44793269927E+02 -0.27798672368E+02  0.26304396025E+03  0.26830728771E+03  0.41800000000E+01 0. -1.
         -5    1    3    3    0  502 -0.32491690375E+02  0.36259090920E+02  0.53891555274E+02  0.72747534306E+02  0.41800000000E+01 0. -1.
        -11    1    1    2    0    0 -0.20353434507E+02 -0.46090425386E+02  0.16997087815E+03  0.17728138376E+03  0.00000000000E+00 0.  1.
         11    1    1    2    0    0  0.80518549549E+01  0.37630006834E+02  0.20938761344E+03  0.21289439270E+03  0.00000000000E+00 0. -1.
</event>
<event>
 7    1  0.2666594E-009  0.1239761E+03  0.7561462E-02  0.1236678E+00
          2   -1    0    0  501    0  0.00000000000E+00  0.00000000000E+00  0.13163651175E+04  0.13163651175E+04  0.00000000000E+00 0. -1.
         -2   -1    0    0    0  501 -0.00000000000E+00 -0.00000000000E+00 -0.20153205894E+02  0.20153205894E+02  0.00000000000E+00 0.  1.
         25    2    1    2    0    0 -0.98343516681E+02  0.22399761690E+02  0.99074702810E+03  0.10036935695E+04  0.12509161131E+03 0.  0.
          5    1    3    3  502    0  0.55407988228E+01 -0.28927626665E+02  0.43307039312E+03  0.43409094190E+03  0.41800000000E+01 0. -1.
         -5    1    3    3    0  502 -0.10388431550E+03  0.51327388354E+02  0.55767663498E+03  0.56960262763E+03  0.41800000000E+01 0. -1.
        -11    1    1    2    0    0  0.31003687903E+02 -0.15208040891E+02  0.21015846678E+02  0.40424979690E+02  0.00000000000E+00 0.  1.
         11    1    1    2    0    0  0.67339828778E+02 -0.71917207991E+01  0.28444903684E+03  0.29239977419E+03  0.00000000000E+00 0. -1.
</event>
<event>
 7    1  0.2666594E-009  0.1100246E+03  0.7561462E-02  0.1260524E+00
          1   -1    0    0  501    0  0.00000000000E+00  0.00000000000E+00  0.35057374827E+03  0.35057374827E+03  0.00000000000E+00 0. -1.
         -1   -1    0    0    0  501 -0.00000000000E+00 -0.00000000000E+00 -0.51822792462E+02  0.51822792462E+02  0.00000000000E+00 0.  1.
         25    2    1    2    0    0 -0.13474571339E+02  0.70191358391E+02  0.21480722622E+03  0.25864452089E+03  0.12508578211E+03 0.  0.
          5    1    3    3  502    0  0.35563269253E+02  0.34967312943E+02  0.18729823971E+02  0.53439103664E+02  0.41800000000E+01 0. -1.
         -5    1    3    3    0  502 -0.49037840592E+02  0.35224045448E+02  0.19607740225E+03  0.20520541723E+03  0.41800000000E+01 0. -1.
        -11    1    1    2    0    0  0.48741885000E+02 -0.40069200735E+02  0.22982054587E+02  0.67152714270E+02  0.00000000000E+00 0. -1.
         11    1    1    2    0    0 -0.35267313660E+02 -0.30122157656E+02  0.60961675000E+02  0.76599305568E+02  0.00000000000E+00 0.  1.
</event>
<event>
 7    1  0.3733546E-009  0.1162727E+03  0.7561462E-02  0.1249376E+00
          2   -1    0    0  501    0  0.00000000000E+00  0.00000000000E+00  0.38342995568E+03  0.38342995568E+03  0.00000000000E+00 0. -1.
         -2   -1    0    0    0  501 -0.00000000000E+00 -0.00000000000E+00 -0.49784944506E+02  0.49784944506E+02  0.00000000000E+00 0.  1.
         25    2    1    2    0    0 -0.84557943250E+02 -0.75133304684E+01  0.16747018936E+03  0.22560466877E+03  0.12507880055E+03 0.  0.
          5    1    3    3  502    0  0.92814884880E+01  0.36421246138E+02  0.13878101950E+02  0.40283089660E+02  0.41800000000E+01 0.  1.
         -5    1    3    3    0  502 -0.93839431738E+02 -0.43934576606E+02  0.15359208741E+03  0.18532157911E+03  0.41800000000E+01 0.  1.
        -11    1    1    2    0    0  0.37320098885E+02 -0.13013749748E+02  0.67809489904E+01  0.40101480428E+02  0.00000000000E+00 0.  1.
         11    1    1    2    0    0  0.47237844366E+02  0.20527080216E+02  0.15939387283E+03  0.16750875099E+03  0.00000000000E+00 0. -1.
</event>
<event>
 7    1  0.2666594E-009  0.1150933E+03  0.7561462E-02  0.1251418E+00
         -3   -1    0    0    0  501 -0.00000000000E+00  0.00000000000E+00  0.40811431747E+02  0.40811431747E+02  0.00000000000E+00 0.  1.
          3   -1    0    0  501    0  0.00000000000E+00 -0.00000000000E+00 -0.41098876264E+03  0.41098876264E+03  0.00000000000E+00 0. -1.
         25    2    1    2    0    0 -0.68677965581E+01 -0.44613726216E+02 -0.29768620503E+03  0.32604445889E+03  0.12510140411E+03 0.  0.
          5    1    3    3  502    0  0.57738104074E+02 -0.11140951070E+02 -0.15477455068E+03  0.16562138567E+03  0.41800000000E+01 0.  1.
         -5    1    3    3    0  502 -0.64605900632E+02 -0.33472775147E+02 -0.14291165434E+03  0.16042307322E+03  0.41800000000E+01 0.  1.
        -11    1    1    2    0    0 -0.23000969581E+01 -0.26525642401E+02 -0.37386853025E+02  0.45898550412E+02  0.00000000000E+00 0. -1.
         11    1    1    2    0    0  0.91678935163E+01  0.71139368617E+02 -0.35104272844E+02  0.79857185091E+02  0.00000000000E+00 0.  1.
</event>
<event>
 7    1  0.2666594E-009  0.1078667E+03  0.7561462E-02  0.1264572E+00
         -4   -1    0    0    0  501 -0.00000000000E+00  0.00000000000E+00  0.48724334648E+02  0.48724334648E+02  0.00000000000E+00 0.  1.
          4   -1    0    0  501    0  0.00000000000E+00 -0.00000000000E+00 -0.33015954252E+03  0.33015954252E+03  0.00000000000E+00 0. -1.
         25    2    1    2    0    0 -0.48556043597E+00 -0.51400538790E+02 -0.92761431265E+02  0.16399677942E+03  0.12509200363E+03 0.  0.
          5    1    3    3  502    0  0.28768793985E+02 -0.85367440286E+02 -0.60049447277E+02  0.10834505935E+03  0.41800000000E+01 0. -1.
         -5    1    3    3    0  502 -0.29254354421E+02  0.33966901496E+02 -0.32711983988E+02  0.55651720066E+02  0.41800000000E+01 0. -1.
        -11    1    1    2    0    0  0.30492283427E+02  0.17115071335E+02 -0.20245934804E+02  0.40405480958E+02  0.00000000000E+00 0.  1.
         11    1    1    2    0    0 -0.30006722991E+02  0.34285467455E+02 -0.16842784180E+03  0.17448161679E+03  0.00000000000E+00 0. -1.
</event>
<event>
 7    1  0.2666594E-009  0.1276268E+03  0.7561462E-02  0.1231020E+00
          2   -1    0    0  501    0  0.00000000000E+00  0.00000000000E+00  0.55982632380E+03  0.55982632380E+03  0.00000000000E+00 0.  1.
         -2   -1    0    0    0  501 -0.00000000000E+00 -0.00000000000E+00 -0.51918057831E+02  0.51918057831E+02  0.00000000000E+00 0. -1.
         25    2    1    2    0    0  0.10359442118E+03  0.31439546422E+02  0.13669387037E+03  0.21460206407E+03  0.12509429453E+03 0.  0.
          5    1    3    3  502    0  0.90075610682E+02 -0.61732027323E+01  0.21930578791E+02  0.93006165160E+02  0.41800000000E+01 0.  1.
         -5    1    3    3    0  502  0.13518810502E+02  0.37612749154E+02  0.11476329158E+03  0.12159589891E+03  0.41800000000E+01 0.  1.
        -11    1    1    2    0    0 -0.10556211928E+03 -0.13252885775E+02  0.36065632173E+03  0.37602125261E+03  0.00000000000E+00 0.  1.
         11    1    1    2    0    0  0.19676980934E+01 -0.18186660647E+02  0.10558073868E+02  0.21121064961E+02  0.00000000000E+00 0. -1.
</event>
<event>
 7    1  0.2666594E-009  0.1093499E+03  0.7561462E-02  0.1261779E+00
          2   -1    0    0  501    0  0.00000000000E+00  0.00000000000E+00  0.36971905022E+03  0.36971905022E+03  0.00000000000E+00 0. -1.
         -2   -1    0    0    0  501 -0.00000000000E+00 -0.00000000000E+00 -0.36070378890E+02  0.36070378890E+02  0.00000000000E+00 0.  1.
         25    2    1    2    0    0 -0.15035198904E+02  0.31457163614E+02  0.16235966108E+03  0.20791240555E+03  0.12510514973E+03 0.  0.
          5    1    3    3  502    0 -0.33241945660E+02  0.74383442978E+02  0.11772823212E+03  0.14323174431E+03  0.41800000000E+01 0. -1.
         -5    1    3    3    0  502  0.18206746756E+02 -0.42926279365E+02  0.44631428958E+02  0.64680661239E+02  0.41800000000E+01 0. -1.
        -11    1    1    2    0    0  0.21041092651E+02  0.25483718362E+02  0.10602937348E+03  0.11106023376E+03  0.00000000000E+00 0. -1.
         11    1    1    2    0    0 -0.60058937478E+01 -0.56940881976E+02  0.65259636774E+02  0.86816789803E+02  0.00000000000E+00 0.  1.
</event>
<event>
 7    1  0.2666594E-009  0.5174148E+02  0.7561462E-02  0.1436169E+00
         -1   -1    0    0    0  501 -0.00000000000E+00  0.00000000000E+00  0.27954085032E+02  0.27954085032E+02  0.00000000000E+00 0.  1.
          1   -1    0    0  501    0  0.00000000000E+00 -0.00000000000E+00 -0.43734398038E+03  0.43734398038E+03  0.00000000000E+00 0. -1.
         25    2    1    2    0    0  0.21610261867E+02 -0.45370615136E+01 -0.24566636850E+03  0.27657069378E+03  0.12510713688E+03 0.  0.
          5    1    3    3  502    0  0.29718870676E+01  0.20977639603E+02  0.63791137496E+01  0.22517969898E+02  0.41800000000E+01 0.  1.
         -5    1    3    3    0  502  0.18638374800E+02 -0.25514701117E+02 -0.25204548225E+03  0.25405272388E+03  0.41800000000E+01 0.  1.
        -11    1    1    2    0    0 -0.23923365849E+02  0.21938962191E+02 -0.16762930229E+03  0.17074316526E+03  0.00000000000E+00 0. -1.
         11    1    1    2    0    0  0.23131039817E+01 -0.17401900677E+02  0.39057754429E+01  0.17984206377E+02  0.00000000000E+00 0.  1.
</event>
<event>
 7    1  0.2666594E-009  0.9005498E+02  0.7561462E-02  0.1302719E+00
          1   -1    0    0  501    0  0.00000000000E+00  0.00000000000E+00  0.43244332182E+02  0.43244332182E+02  0.00000000000E+00 0. -1.
         -1   -1    0    0    0  501 -0.00000000000E+00 -0.00000000000E+00 -0.28146109920E+03  0.28146109920E+03  0.00000000000E+00 0.  1.
         25    2    1    2    0    0 -0.34987697896E+02 -0.22745295811E+02 -0.14322666810E+03  0.19468545374E+03  0.12508820871E+03 0.  0.
          5    1    3    3  502    0  0.26330878394E+02  0.80949957673E+01  0.76361663290E+01  0.28889921247E+02  0.41800000000E+01 0.  1.
         -5    1    3    3    0  502 -0.61318576289E+02 -0.30840291578E+02 -0.15086283443E+03  0.16579553250E+03  0.41800000000E+01 0.  1.
        -11    1    1    2    0    0 -0.11533807288E+02 -0.18174840251E+02 -0.74616655883E+01  0.22782229524E+02  0.00000000000E+00 0.  1.
         11    1    1    2    0    0  0.46521505184E+02  0.40920136062E+02 -0.87528433324E+02  0.10723774811E+03  0.00000000000E+00 0. -1.
</event>
<event>
 7    1  0.2666594E-009  0.8737578E+02  0.7561462E-02  0.1309334E+00
          2   -1    0    0  501    0  0.00000000000E+00  0.00000000000E+00  0.27563822529E+03  0.27563822529E+03  0.00000000000E+00 0. -1.
         -2   -1    0    0    0  501 -0.00000000000E+00 -0.00000000000E+00 -0.51195126103E+02  0.51195126103E+02  0.00000000000E+00 0.  1.
         25    2    1    2    0    0 -0.36882514418E+02 -0.29301748267E+02  0.12704997724E+03  0.18442376020E+03  0.12510601221E+03 0.  0.
          5    1    3    3  502    0 -0.68339655674E+02 -0.80058515087E+01  0.21563562625E+02  0.72227846632E+02  0.41800000000E+01 0.  1.
         -5    1    3    3    0  502  0.31457141256E+02 -0.21295896759E+02  0.10548641461E+03  0.11219591357E+03  0.41800000000E+01 0.  1.
        -11    1    1    2    0    0  0.10253337086E+02  0.38178196983E+02 -0.15504603356E+01  0.39561465766E+02  0.00000000000E+00 0.  1.
         11    1    1    2    0    0  0.26629177332E+02 -0.88764487159E+01  0.98943582282E+02  0.10284812542E+03  0.00000000000E+00 0. -1.
</event>
<event>
 7    1  0.2666594E-009  0.1157615E+03  0.7561462E-02  0.1250258E+00
         -1   -1    0    0    0  501 -0.00000000000E+00  0.00000000000E+00  0.30577835583E+02  0.30577835583E+02  0.00000000000E+00 0.  1.
          1   -1    0    0  501    0  0.00000000000E+00 -0.00000000000E+00 -0.49070193685E+03  0.49070193685E+03  0.00000000000E+00 0. -1.
         25    2    1    2    0    0 -0.41211117125E+02 -0.31892353500E+02 -0.21449687457E+03  0.25371661510E+03  0.12509089971E+03 0.  0.
          5    1    3    3  502    0 -0.38257680716E+02 -0.74922277671E+02 -0.96902608623E+02  0.12839231201E+03  0.41800000000E+01 0. -1.
         -5    1    3    3    0  502 -0.29534364100E+01  0.43029924171E+02 -0.11759426595E+03  0.12532430309E+03  0.41800000000E+01 0. -1.
        -11    1    1    2    0    0  0.61404692868E+02  0.48153723692E+02 -0.15862850154E+03  0.17678325405E+03  0.00000000000E+00 0.  1.
         11    1    1    2    0    0 -0.20193575742E+02 -0.16261370192E+02 -0.86998725157E+02  0.90779903287E+02  0.00000000000E+00 0. -1.
</event>
<event>
 7    1  0.2666594E-009  0.1237444E+03  0.7561462E-02  0.1237045E+00
         -1   -1    0    0    0  501 -0.00000000000E+00  0.00000000000E+00  0.31065370773E+02  0.31065370773E+02  0.00000000000E+00 0.  1.
          1   -1    0    0  501    0  0.00000000000E+00 -0.00000000000E+00 -0.56608842601E+03  0.56608842601E+03  0.00000000000E+00 0. -1.
         25    2    1    2    0    0 -0.61755881176E+02 -0.42132579802E+02 -0.25732507141E+03  0.29572450906E+03  0.12509136557E+03 0.  0.
          5    1    3    3  502    0 -0.50738501884E+02 -0.78381624342E+02 -0.23157645565E+03  0.24972625377E+03  0.41800000000E+01 0.  1.
         -5    1    3    3    0  502 -0.11017379292E+02  0.36249044540E+02 -0.25748615760E+02  0.45998255294E+02  0.41800000000E+01 0.  1.
        -11    1    1    2    0    0  0.60426926631E+02  0.67448374231E+02 -0.23397864029E+03  0.25089181087E+03  0.00000000000E+00 0.  1.
         11    1    1    2    0    0  0.13289545450E+01 -0.25315794429E+02 -0.43719343535E+02  0.50537476855E+02  0.00000000000E+00 0. -1.
</event>
<event>
 7    1  0.2666594E-009  0.1335377E+03  0.7561462E-02  0.1222299E+00
         -2   -1    0    0    0  501 -0.00000000000E+00  0.00000000000E+00  0.62283247994E+02  0.62283247994E+02  0.00000000000E+00 0.  1.
          2   -1    0    0  501    0  0.00000000000E+00 -0.00000000000E+00 -0.39456977899E+03  0.39456977899E+03  0.00000000000E+00 0. -1.
         25    2    1    2    0    0  0.87100239332E+02  0.49679303057E+02 -0.10290610449E+03  0.19050346698E+03  0.12508964684E+03 0.  0.
          5    1    3    3  502    0 -0.27578312543E+02  0.29196944448E+02 -0.44609297658E+02  0.60170480515E+02  0.41800000000E+01 0.  1.
         -5    1    3    3    0  502  0.11467855187E+03  0.20482358609E+02 -0.58296806828E+02  0.13033298646E+03  0.41800000000E+01 0.  1.
        -11    1    1    2    0    0 -0.28668430490E+02 -0.42487494501E+02 -0.32111838319E+02  0.60483355197E+02  0.00000000000E+00 0.  1.
         11    1    1    2    0    0 -0.58431808842E+02 -0.71918085566E+01 -0.19726858819E+03  0.20586620481E+03  0.00000000000E+00 0. -1.
</event>
<event>
 7    1  0.4402474E-009  0.9138760E+02  0.7561462E-02  0.1299526E+00
          1   -1    0    0  501    0  0.00000000000E+00  0.00000000000E+00  0.17494359382E+03  0.17494359382E+03  0.00000000000E+00 0. -1.
         -1   -1    0    0    0  501 -0.00000000000E+00 -0.00000000000E+00 -0.13705314851E+03  0.13705314851E+03  0.00000000000E+00 0.  1.
         25    2    1    2    0    0  0.84494183905E+02 -0.32881845769E+02 -0.42438363107E+02  0.16021974118E+03  0.12509543519E+03 0.  0.
          5    1    3    3  502    0  0.40484513861E+02 -0.95675876835E+01  0.43796482386E+02  0.60548648755E+02  0.41800000000E+01 0. -1.
         -5    1    3    3    0  502  0.44009670044E+02 -0.23314258085E+02 -0.86234845493E+02  0.99671092422E+02  0.41800000000E+01 0. -1.
        -11    1    1    2    0    0 -0.50088339584E+02  0.23488102800E+02 -0.85781633278E+01  0.55983190526E+02  0.00000000000E+00 0.  1.
         11    1    1    2    0    0 -0.34405844321E+02  0.93937429692E+01  0.88906971746E+02  0.95793810632E+02  0.00000000000E+00 0. -1.
</event>
<event>
 7    1  0.2666594E-009  0.1500467E+03  0.7561462E-02  0.1200416E+00
         -2   -1    0    0    0  501 -0.00000000000E+00  0.00000000000E+00  0.73293458234E+03  0.73293458234E+03  0.00000000000E+00 0.  1.
          2   -1    0    0  501    0  0.00000000000E+00 -0.00000000000E+00 -0.66105684638E+02  0.66105684638E+02  0.00000000000E+00 0. -1.
         25    2    1    2    0    0  0.11086105132E+03  0.75131696284E+02  0.97091051015E+02  0.20738640417E+03  0.12508998346E+03 0.  0.
          5    1    3    3  502    0  0.74481966092E+02  0.23212769030E+02  0.11710571159E+03  0.14077505463E+03  0.41800000000E+01 0.  1.
         -5    1    3    3    0  502  0.36379085223E+02  0.51918927255E+02 -0.20014660577E+02  0.66611349536E+02  0.41800000000E+01 0.  1.
        -11    1    1    2    0    0 -0.12407041798E+03 -0.58435074710E+02  0.46637216473E+03  0.48611842447E+03  0.00000000000E+00 0.  1.
         11    1    1    2    0    0  0.13209366663E+02 -0.16696621574E+02  0.10336568196E+03  0.10553543834E+03  0.00000000000E+00 0. -1.
</event>
<event>
 7    1  0.2666594E-009  0.7435818E+02  0.7561462E-02  0.1345870E+00
         -4   -1    0    0    0  501 -0.00000000000E+00  0.00000000000E+00  0.18696826337E+03  0.18696826337E+03  0.00000000000E+00 0.  1.
          4   -1    0    0  501    0  0.00000000000E+00 -0.00000000000E+00 -0.55932723238E+02  0.55932723238E+02  0.00000000000E+00 0. -1.
         25    2    1    2    0    0 -0.34185466768E+02  0.34500623945E+02  0.10387579754E+03  0.16969706976E+03  0.12509186616E+03 0.  0.
          5    1    3    3  502    0 -0.20534696492E+02 -0.28095676758E+02  0.99330040493E+02  0.10533266424E+03  0.41800000000E+01 0. -1.
         -5    1    3    3    0  502 -0.13650770276E+02  0.62596300702E+02  0.45457570501E+01  0.64364405520E+02  0.41800000000E+01 0. -1.
        -11    1    1    2    0    0  0.17506725895E+02 -0.24168028224E+02  0.39888703425E+02  0.49816540433E+02  0.00000000000E+00 0.  1.
         11    1    1    2    0    0  0.16678740873E+02 -0.10332595720E+02 -0.12728960836E+02  0.23387376411E+02  0.00000000000E+00 0. -1.
</event>
<event>
 7    1  0.2666594E-009  0.7245926E+02  0.7561462E-02  0.1351924E+00
         -1   -1    0    0    0  501 -0.00000000000E+00  0.00000000000E+00  0.15947986280E+02  0.15947986280E+02  0.00000000000E+00 0.  1.
          1   -1    0    0  501    0  0.00000000000E+00 -0.00000000000E+00 -0.95829844831E+03  0.95829844831E+03  0.00000000000E+00 0. -1.
         25    2    1    2    0    0 -0.20453473783E+02  0.33594309362E+02 -0.70941636711E+03  0.72143162065E+03  0.12508029078E+03 0.  0.
          5    1    3    3  502    0 -0.19550173783E+02  0.36887208467E+02 -0.71345683555E+03  0.71468944587E+03  0.41800000000E+01 0. -1.
         -5    1    3    3    0  502 -0.90330000093E+00 -0.32928991057E+01  0.40404684483E+01  0.67421747748E+01  0.41800000000E+01 0. -1.
        -11    1    1    2    0    0  0.56476293215E+01  0.30890210575E+02 -0.61423193305E+02  0.68984849802E+02  0.00000000000E+00 0. -1.
         11    1    1    2    0    0  0.14805844462E+02 -0.64484519936E+02 -0.17151090162E+03  0.18382996414E+03  0.00000000000E+00 0.  1.
</event>
<event>
 7    1  0.2666594E-009  0.2250114E+03  0.7561462E-02  0.1130201E+00
          2   -1    0    0  501    0  0.00000000000E+00  0.00000000000E+00  0.90561806411E+03  0.90561806411E+03  0.00000000000E+00 0. -1.
         -2   -1    0    0    0  501 -0.00000000000E+00 -0.00000000000E+00 -0.61456846804E+02  0.61456846804E+02  0.00000000000E+00 0.  1.
         25    2    1    2    0    0  0.45454770542E+02 -0.20175593135E+03  0.50424745161E+03  0.55918073462E+03  0.12508400981E+03 0.  0.
          5    1    3    3  502    0  0.10323812507E+02 -0.20214872358E+03  0.45958945353E+03  0.50220576036E+03  0.41800000000E+01 0. -1.
         -5    1    3    3    0  502  0.35130958035E+02  0.39279222823E+00  0.44657998082E+02  0.56974974251E+02  0.41800000000E+01 0. -1.
        -11    1    1    2    0    0 -0.44446054179E+02  0.89523533074E+02  0.92376475600E+02  0.13610043332E+03  0.00000000000E+00 0.  1.
         11    1    1    2    0    0 -0.10087163629E+01  0.11223239828E+03  0.24753729009E+03  0.27179374297E+03  0.00000000000E+00 0. -1.
</event>
<event>
 7    1  0.2666594E-009  0.1054463E+03  0.7561462E-02  0.1269243E+00
         -1   -1    0    0    0  501 -0.00000000000E+00  0.00000000000E+00  0.16952030834E+02  0.16952030834E+02  0.00000000000E+00 0.  1.
          1   -1    0    0  501    0  0.00000000000E+00 -0.00000000000E+00 -0.89023411400E+03  0.89023411400E+03  0.00000000000E+00 0. -1.
         25    2    1    2    0    0 -0.12369744663E+02  0.33011096169E+02 -0.65555919597E+03  0.66831740019E+03  0.12509014723E+03 0.  0.
          5    1    3    3  502    0  0.41846137764E+02  0.49162937083E+02 -0.46548298714E+03  0.46995742078E+03  0.41800000000E+01 0.  1.
         -5    1    3    3    0  502 -0.54215882427E+02 -0.16151840914E+02 -0.19007620883E+03  0.19835997942E+03  0.41800000000E+01 0.  1.
        -11    1    1    2    0    0  0.21935991120E+02 -0.58376759656E+02 -0.98339995132E+02  0.11644650453E+03  0.00000000000E+00 0.  1.
         11    1    1    2    0    0 -0.95662464569E+01  0.25365663487E+02 -0.11938289207E+03  0.12242224011E+03  0.00000000000E+00 0. -1.
</event>
<event>
 7    1  0.3549229E-009  0.1264579E+03  0.7561462E-02  0.1232808E+00
         -2   -1    0    0    0  501 -0.00000000000E+00  0.00000000000E+00  0.42264935891E+02  0.42264935891E+02  0.00000000000E+00 0.  1.
          2   -1    0    0  501    0  0.00000000000E+00 -0.00000000000E+00 -0.62417331023E+03  0.62417331023E+03  0.00000000000E+00 0. -1.
         25    2    1    2    0    0 -0.48989079007E+01 -0.10221338648E+03 -0.18055499595E+03  0.24232049581E+03  0.12509012932E+03 0.  0.
          5    1    3    3  502    0 -0.23954965813E+02 -0.11891434310E+03 -0.17941476645E+03  0.21661392430E+03  0.41800000000E+01 0.  1.
         -5    1    3    3    0  502  0.19056057912E+02  0.16700956625E+02 -0.11402295024E+01  0.25706571508E+02  0.41800000000E+01 0.  1.
        -11    1    1    2    0    0 -0.11314600850E+02  0.40317726956E+02 -0.42718177321E+02  0.59819578508E+02  0.00000000000E+00 0. -1.
         11    1    1    2    0    0  0.16213508751E+02  0.61895659520E+02 -0.35863520106E+03  0.36429817180E+03  0.00000000000E+00 0.  1.
</event>
<event>
 7    1  0.2666594E-009  0.9421215E+02  0.7561462E-02  0.1292960E+00
         -2   -1    0    0    0  501 -0.00000000000E+00  0.00000000000E+00  0.30037879130E+02  0.30037879130E+02  0.00000000000E+00 0.  1.
          2   -1    0    0  501    0  0.00000000000E+00 -0.00000000000E+00 -0.41319865966E+03  0.41319865966E+03  0.00000000000E+00 0. -1.
         25    2    1    2    0    0 -0.13059995560E+01  0.42120069978E+02 -0.19377948897E+03  0.23447138797E+03  0.12510210031E+03 0.  0.
          5    1    3    3  502    0 -0.27533505352E+02 -0.28177025156E+02 -0.18422163444E+02  0.43690813332E+02  0.41800000000E+01 0. -1.
         -5    1    3    3    0  502  0.26227505796E+02  0.70297095134E+02 -0.17535732553E+03  0.19078057464E+03  0.41800000000E+01 0. -1.
        -11    1    1    2    0    0  0.26707247140E+02 -0.40099063830E+02 -0.60253865616E+02  0.77147522912E+02  0.00000000000E+00 0.  1.
         11    1    1    2    0    0 -0.25401247584E+02 -0.20210061479E+01 -0.12912742595E+03  0.13161762791E+03  0.00000000000E+00 0. -1.
</event>
<event>
 7    1  0.3252323E-009  0.8222534E+02  0.7561462E-02  0.1322852E+00
          4   -1    0    0  501    0  0.00000000000E+00  0.00000000000E+00  0.71023689541E+02  0.71023689541E+02  0.00000000000E+00 0. -1.
         -4   -1    0    0    0  501 -0.00000000000E+00 -0.00000000000E+00 -0.22088530931E+03  0.22088530931E+03  0.00000000000E+00 0.  1.
         25    2    1    2    0    0  0.54014888940E+02 -0.31942773469E+02 -0.86742323106E+02  0.16465086654E+03  0.12509087989E+03 0.  0.
          5    1    3    3  502    0  0.31900610739E+02 -0.58435690349E+02 -0.10575002007E+03  0.12503166805E+03  0.41800000000E+01 0.  1.
         -5    1    3    3    0  502  0.22114278201E+02  0.26492916880E+02  0.19007696961E+02  0.39619198489E+02  0.41800000000E+01 0.  1.
        -11    1    1    2    0    0 -0.38460667099E+02  0.25497730741E+02 -0.86740260169E+02  0.98250852011E+02  0.00000000000E+00 0.  1.
         11    1    1    2    0    0 -0.15554221841E+02  0.64450427287E+01  0.23620963510E+02  0.29007280293E+02  0.00000000000E+00 0. -1.
</event>
<event>
 7    1  0.2666594E-009  0.8951081E+02  0.7561462E-02  0.1304041E+00
          2   -1    0    0  501    0  0.00000000000E+00  0.00000000000E+00  0.46963037164E+03  0.46963037164E+03  0.00000000000E+00 0. -1.
         -2   -1    0    0    0  501 -0.00000000000E+00 -0.00000000000E+00 -0.38017796706E+02  0.38017796706E+02  0.00000000000E+00 0.  1.
         25    2    1    2    0    0  0.44834906712E+02  0.13867788335E+02  0.33544369309E+03  0.36106927376E+03  0.12508423083E+03 0.  0.
          5    1    3    3  502    0  0.54902406113E+02  0.47232969174E+02  0.10295711016E+03  0.12594787218E+03  0.41800000000E+01 0. -1.
         -5    1    3    3    0  502 -0.10067499401E+02 -0.33365180839E+02  0.23248658293E+03  0.23512140158E+03  0.41800000000E+01 0. -1.
        -11    1    1    2    0    0 -0.34732469318E+02 -0.34155308919E+02  0.10980778505E+03  0.12012776203E+03  0.00000000000E+00 0. -1.
         11    1    1    2    0    0 -0.10102437394E+02  0.20287520584E+02 -0.13638903211E+02  0.26451132557E+02  0.00000000000E+00 0.  1.
</event>
<event>
 7    1  0.2666594E-009  0.8817997E+02  0.7561462E-02  0.1307320E+00
          2   -1    0    0  501    0  0.00000000000E+00  0.00000000000E+00  0.34409110089E+03  0.34409110089E+03  0.00000000000E+00 0. -1.
         -2   -1    0    0    0  501 -0.00000000000E+00 -0.00000000000E+00 -0.37943635532E+02  0.37943635532E+02  0.00000000000E+00 0.  1.
         25    2    1    2    0    0  0.38185942684E+02  0.15499158687E+02  0.17942604413E+03  0.22257364130E+03  0.12508769065E+03 0.  0.
          5    1    3    3  502    0 -0.15796957108E+02 -0.18960207168E+02  0.14981589441E+03  0.15189242222E+03  0.41800000000E+01 0.  1.
         -5    1    3    3    0  502  0.53982899792E+02  0.34459365855E+02  0.29610149720E+02  0.70681219086E+02  0.41800000000E+01 0.  1.
        -11    1    1    2    0    0  0.16758493020E+02 -0.26269430819E+02  0.82263332551E+02  0.87966959514E+02  0.00000000000E+00 0. -1.
         11    1    1    2    0    0 -0.54944435704E+02  0.10770272132E+02  0.44458088680E+02  0.71494135604E+02  0.00000000000E+00 0.  1.
</event>
<event>
 7    1  0.2666594E-009  0.7608266E+02  0.7561462E-02  0.1340551E+00
          2   -1    0    0  501    0  0.00000000000E+00  0.00000000000E+00  0.17795374998E+03  0.17795374998E+03  0.00000000000E+00 0. -1.
         -2   -1    0    0    0  501 -0.00000000000E+00 -0.00000000000E+00 -0.74464126825E+02  0.74464126825E+02  0.00000000000E+00 0.  1.
         25    2    1    2    0    0 -0.19250116529E+02  0.11539512122E+02  0.83599964648E+02  0.15211954796E+03  0.12509066894E+03 0.  0.
          5    1    3    3  502    0  0.42373614629E+02 -0.62252401243E+01  0.76086876749E+02  0.87412596603E+02  0.41800000000E+01 0. -1.
         -5    1    3    3    0  502 -0.61623731158E+02  0.17764752247E+02  0.75130878988E+01  0.64706951358E+02  0.41800000000E+01 0. -1.
        -11    1    1    2    0    0  0.27970504301E+02 -0.18645091097E+02 -0.32474542940E+02  0.46739538637E+02  0.00000000000E+00 0.  1.
         11    1    1    2    0    0 -0.87203877715E+01  0.71055789746E+01  0.52364201450E+02  0.53558790212E+02  0.00000000000E+00 0. -1.
</event>
<event>
 7    1  0.2666594E-009  0.1493305E+03  0.7561462E-02  0.1201298E+00
         -1   -1    0    0    0  501 -0.00000000000E+00  0.00000000000E+00  0.58140771912E+02  0.58140771912E+02  0.00000000000E+00 0.  1.
          1   -1    0    0  501    0  0.00000000000E+00 -0.00000000000E+00 -0.58130075636E+03  0.58130075636E+03  0.00000000000E+00 0. -1.
         25    2    1    2    0    0  0.33909343750E+02  0.12483145350E+03 -0.40157532075E+03  0.44004882938E+03  0.12508996215E+03 0.  0.
          5    1    3    3  502    0  0.17894877471E+02 -0.17665831302E+02 -0.13440367036E+03  0.13679958787E+03  0.41800000000E+01 0. -1.
         -5    1    3    3    0  502  0.16014466280E+02  0.14249728480E+03 -0.26717165039E+03  0.30324924151E+03  0.41800000000E+01 0. -1.
        -11    1    1    2    0    0 -0.27334925404E+02 -0.11211810900E+03 -0.48938607571E+02  0.12535013292E+03  0.00000000000E+00 0.  1.
         11    1    1    2    0    0 -0.65744183461E+01 -0.12713344500E+02 -0.72646056130E+02  0.74042565975E+02  0.00000000000E+00 0. -1.
</event>
<event>
 7    1  0.2666594E-009  0.1304581E+03  0.7561462E-02  0.1226778E+00
          1   -1    0    0  501    0  0.00000000000E+00  0.00000000000E+00  0.24145089070E+03  0.24145089070E+03  0.00000000000E+00 0.  1.
         -1   -1    0    0    0  501 -0.00000000000E+00 -0.00000000000E+00 -0.78817393523E+02  0.78817393523E+02  0.00000000000E+00 0. -1.
         25    2    1    2    0    0  0.81893467217E+02  0.22027829466E+02  0.11415623229E+03  0.18939625307E+03  0.12509008778E+03 0.  0.
          5    1    3    3  502    0  0.68095513352E+02  0.68496547776E+02  0.99149634669E+02  0.13848067898E+03  0.41800000000E+01 0. -1.
         -5    1    3    3    0  502  0.13797953866E+02 -0.46468718310E+02  0.15006597624E+02  0.50915574085E+02  0.41800000000E+01 0. -1.
        -11    1    1    2    0    0 -0.30905505795E+02  0.29764232392E+02  0.38242020314E+02  0.57476185816E+02  0.00000000000E+00 0.  1.
         11    1    1    2    0    0 -0.50987961423E+02 -0.51792061858E+02  0.10235244567E+02  0.73395845338E+02  0.00000000000E+00 0. -1.
</event>
<event>
 7    1  0.2666594E-009  0.2624711E+03  0.7561462E-02  0.1105668E+00
          2   -1    0    0  501    0  0.00000000000E+00  0.00000000000E+00  0.11821660719E+04  0.11821660719E+04  0.00000000000E+00 0. -1.
         -2   -1    0    0    0  501 -0.00000000000E+00 -0.00000000000E+00 -0.68687904360E+02  0.68687904360E+02  0.00000000000E+00 0.  1.
         25    2    1    2    0    0 -0.23310025200E+03  0.10783686914E+03  0.69506528589E+03  0.75148432381E+03  0.12509364275E+03 0.  0.
          5    1    3    3  502    0 -0.10604499363E+03  0.14819501687E+02  0.15157879019E+03  0.18563070958E+03  0.41800000000E+01 0.  1.
         -5    1    3    3    0  502 -0.12705525837E+03  0.93017367454E+02  0.54348649570E+03  0.56585361423E+03  0.41800000000E+01 0.  1.
        -11    1    1    2    0    0  0.19679182846E+03 -0.10688151941E+03  0.29286861713E+03  0.36867697221E+03  0.00000000000E+00 0.  1.
         11    1    1    2    0    0  0.36308423539E+02 -0.95534972781E+00  0.12554426449E+03  0.13069268021E+03  0.00000000000E+00 0. -1.
</event>
<event>
 7    1  0.2666594E-009  0.8659102E+02  0.7561462E-02  0.1311324E+00
         -2   -1    0    0    0  501 -0.00000000000E+00  0.00000000000E+00  0.20117237267E+03  0.20117237267E+03  0.00000000000E+00 0. -1.
          2   -1    0    0  501    0  0.00000000000E+00 -0.00000000000E+00 -0.75015800555E+02  0.75015800555E+02  0.00000000000E+00 0.  1.
         25    2    1    2    0    0  0.46410115085E+02  0.40911579543E+02  0.84500476984E+02  0.16314111551E+03  0.12508811629E+03 0.  0.
          5    1    3    3  502    0  0.12709273979E+02  0.35130354823E+02  0.11258548374E+03  0.11869553919E+03  0.41800000000E+01 0. -1.
         -5    1    3    3    0  502  0.33700841106E+02  0.57812247201E+01 -0.28085006752E+02  0.44445576324E+02  0.41800000000E+01 0. -1.
        -11    1    1    2    0    0 -0.67531146697E+02 -0.17807959849E+02  0.42459771849E+02  0.81733783919E+02  0.00000000000E+00 0. -1.
         11    1    1    2    0    0  0.21121031612E+02 -0.23103619695E+02 -0.80367671919E+00  0.31313273792E+02  0.00000000000E+00 0.  1.
</event>
<event>
 7    1  0.2666594E-009  0.9593064E+02  0.7561462E-02  0.1289094E+00
          2   -1    0    0  501    0  0.00000000000E+00  0.00000000000E+00  0.95041095416E+02  0.95041095416E+02  0.00000000000E+00 0. -1.
         -2   -1    0    0    0  501 -0.00000000000E+00 -0.00000000000E+00 -0.14374448859E+03  0.14374448859E+03  0.00000000000E+00 0.  1.
         25    2    1    2    0    0 -0.32546949775E+02 -0.96520918016E+01 -0.59006228849E+02  0.14241268938E+03  0.12508865751E+03 0.  0.
          5    1    3    3  502    0  0.30627833579E+02 -0.15703248685E+02 -0.69766971355E+02  0.77907373856E+02  0.41800000000E+01 0. -1.
         -5    1    3    3    0  502 -0.63174783354E+02  0.60511568839E+01  0.10760742506E+02  0.64505315523E+02  0.41800000000E+01 0. -1.
        -11    1    1    2    0    0  0.40350334246E+02  0.43218336157E+02  0.16438999495E+02  0.61369493711E+02  0.00000000000E+00 0.  1.
         11    1    1    2    0    0 -0.78033844713E+01 -0.33566244355E+02 -0.61361638222E+01  0.35003400917E+02  0.00000000000E+00 0. -1.
</event>
<event>
 7    1  0.2666594E-009  0.1595019E+03  0.7561462E-02  0.1189260E+00
          2   -1    0    0  501    0  0.00000000000E+00  0.00000000000E+00  0.24458900629E+03  0.24458900629E+03  0.00000000000E+00 0.  1.
         -2   -1    0    0    0  501 -0.00000000000E+00 -0.00000000000E+00 -0.16651068033E+03  0.16651068033E+03  0.00000000000E+00 0. -1.
         25    2    1    2    0    0 -0.29328561879E+02 -0.13473398013E+03 -0.60373799416E+02  0.19571474668E+03  0.12508339806E+03 0.  0.
          5    1    3    3  502    0  0.43179718216E+02 -0.64616143514E+02 -0.53670986901E+02  0.94539839765E+02  0.41800000000E+01 0.  1.
         -5    1    3    3    0  502 -0.72508280096E+02 -0.70117836618E+02 -0.67028125147E+01  0.10117490692E+03  0.41800000000E+01 0.  1.
        -11    1    1    2    0    0  0.13452957749E+02  0.18305974121E+02  0.81875159874E+02  0.84968420987E+02  0.00000000000E+00 0. -1.
         11    1    1    2    0    0  0.15875604130E+02  0.11642800601E+03  0.56576965499E+02  0.13041651895E+03  0.00000000000E+00 0.  1.
</event>
<event>
 7    1  0.2666594E-009  0.9543326E+02  0.7561462E-02  0.1290203E+00
         -2   -1    0    0    0  501 -0.00000000000E+00  0.00000000000E+00  0.40066635588E+02  0.40066635588E+02  0.00000000000E+00 0. -1.
          2   -1    0    0  501    0  0.00000000000E+00 -0.00000000000E+00 -0.32873868431E+03  0.32873868431E+03  0.00000000000E+00 0.  1.
         25    2    1    2    0    0 -0.29775606617E+02  0.14580039957E+01 -0.13604354165E+03  0.18719983185E+03  0.12508884562E+03 0.  0.
          5    1    3    3  502    0 -0.28089295452E+02  0.43001502751E+02 -0.13597491772E+03  0.14541247679E+03  0.41800000000E+01 0. -1.
         -5    1    3    3    0  502 -0.16863111651E+01 -0.41543498755E+02 -0.68623930756E-01  0.41787355066E+02  0.41800000000E+01 0. -1.
        -11    1    1    2    0    0  0.20752245569E+02 -0.46863740526E+02 -0.68120014750E+02  0.85247887257E+02  0.00000000000E+00 0. -1.
         11    1    1    2    0    0  0.90233610476E+01  0.45405736530E+02 -0.84508492327E+02  0.96357600790E+02  0.00000000000E+00 0.  1.
</event>
<event>
 7    1  0.2666594E-009  0.1061119E+03  0.7561462E-02  0.1267944E+00
          2   -1    0    0  501    0  0.00000000000E+00  0.00000000000E+00  0.15257849471E+03  0.15257849471E+03  0.00000000000E+00 0. -1.
         -2   -1    0    0    0  501 -0.00000000000E+00 -0.00000000000E+00 -0.11408739511E+03  0.11408739511E+03  0.00000000000E+00 0.  1.
         25    2    1    2    0    0 -0.49639954819E+02  0.37598611836E+01  0.81332701349E+02  0.15728738642E+03  0.12508417945E+03 0.  0.
          5    1    3    3  502    0 -0.84796180522E+02 -0.78308728425E+01  0.23402616326E+02  0.88413062675E+02  0.41800000000E+01 0.  1.
         -5    1    3    3    0  502  0.35156225704E+02  0.11590734026E+02  0.57930085023E+02  0.68874323748E+02  0.41800000000E+01 0.  1.
        -11    1    1    2    0    0  0.14123218286E+02 -0.37900574653E+02  0.49414920205E+01  0.40747235455E+02  0.00000000000E+00 0. -1.
         11    1    1    2    0    0  0.35516736533E+02  0.34140713470E+02 -0.47783093766E+02  0.68631267947E+02  0.00000000000E+00 0.  1.
</event>
<event>
 7    1  0.2666594E-009  0.1104814E+03  0.7561462E-02  0.1259681E+00
          2   -1    0    0  501    0  0.00000000000E+00  0.00000000000E+00  0.57365077570E+03  0.57365077570E+03  0.00000000000E+00 0. -1.
         -2   -1    0    0    0  501 -0.00000000000E+00 -0.00000000000E+00 -0.28234588260E+02  0.28234588260E+02  0.00000000000E+00 0.  1.
         25    2    1    2    0    0  0.43692600870E+02  0.49976800830E+02  0.28629590413E+03  0.31940393316E+03  0.12508718483E+03 0.  0.
          5    1    3    3  502    0  0.70596292049E+02 -0.12096246311E+02  0.11982422066E+03  0.13966199154E+03  0.41800000000E+01 0.  1.
         -5    1    3    3    0  502 -0.26903691179E+02  0.62073047140E+02  0.16647168347E+03  0.17974194162E+03  0.41800000000E+01 0.  1.
        -11    1    1    2    0    0 -0.40330144762E+02 -0.10312619321E+02  0.33659195879E+02  0.53533280873E+02  0.00000000000E+00 0.  1.
         11    1    1    2    0    0 -0.33624561078E+01 -0.39664181508E+02  0.22546108744E+03  0.22894814993E+03  0.00000000000E+00 0. -1.
</event>
<event>
 7    1  0.2666594E-009  0.3026833E+03  0.7561462E-02  0.1083907E+00
         -1   -1    0    0    0  501 -0.00000000000E+00  0.00000000000E+00  0.72398919574E+03  0.72398919574E+03  0.00000000000E+00 0.  1.
          1   -1    0    0  501    0  0.00000000000E+00 -0.00000000000E+00 -0.14209351474E+03  0.14209351474E+03  0.00000000000E+00 0. -1.
         25    2    1    2    0    0 -0.45371328569E+02 -0.28667982458E+03  0.41010717644E+03  0.51776329537E+03  0.12508818722E+03 0.  0.
          5    1    3    3  502    0  0.13182723346E+02  0.70431747525E+01  0.30419802162E+02  0.34150069824E+02  0.41800000000E+01 0.  1.
         -5    1    3    3    0  502 -0.58554051916E+02 -0.29372299933E+03  0.37968737428E+03  0.48361322554E+03  0.41800000000E+01 0.  1.
        -11    1    1    2    0    0  0.18333314280E+02  0.96909012778E+02  0.13147766725E+02  0.99500406733E+02  0.00000000000E+00 0.  1.
         11    1    1    2    0    0  0.27038014289E+02  0.18977081180E+03  0.15864073784E+03  0.24881900838E+03  0.00000000000E+00 0. -1.
</event>
<event>
 7    1  0.2666594E-009  0.1188522E+03  0.7561462E-02  0.1245003E+00
         -2   -1    0    0    0  501 -0.00000000000E+00  0.00000000000E+00  0.19453447158E+03  0.19453447158E+03  0.00000000000E+00 0.  1.
          2   -1    0    0  501    0  0.00000000000E+00 -0.00000000000E+00 -0.90159759879E+02  0.90159759879E+02  0.00000000000E+00 0. -1.
         25    2    1    2    0    0  0.53128596413E+02 -0.71304368378E+01  0.19768091470E+01  0.13610658869E+03  0.12509038661E+03 0.  0.
          5    1    3    3  502    0 -0.13324133761E+02 -0.50225917065E+02 -0.16479613177E+02  0.54673808501E+02  0.41800000000E+01 0. -1.
         -5    1    3    3    0  502  0.66452730174E+02  0.43095480228E+02  0.18456422324E+02  0.81432780185E+02  0.41800000000E+01 0. -1.
        -11    1    1    2    0    0 -0.41885290392E+02  0.48096855286E+02  0.49442350095E+02  0.80698395415E+02  0.00000000000E+00 0. -1.
         11    1    1    2    0    0 -0.11243306022E+02 -0.40966418448E+02  0.52955552460E+02  0.67889247360E+02  0.00000000000E+00 0.  1.
</event>
<event>
 7    1  0.2666594E-009  0.1003590E+03  0.7561462E-02  0.1279543E+00
         -1   -1    0    0    0  501 -0.00000000000E+00  0.00000000000E+00  0.30108240062E+02  0.30108240062E+02  0.00000000000E+00 0.  1.
          1   -1    0    0  501    0  0.00000000000E+00 -0.00000000000E+00 -0.54715166089E+03  0.54715166089E+03  0.00000000000E+00 0. -1.
         25    2    1    2    0    0 -0.20168393699E+02 -0.60907923583E+02 -0.22592134702E+03  0.26608967188E+03  0.12508684655E+03 0.  0.
          5    1    3    3  502    0  0.27884786278E+02 -0.47232176752E+01 -0.17232201700E+03  0.17467747432E+03  0.41800000000E+01 0. -1.
         -5    1    3    3    0  502 -0.48053179977E+02 -0.56184705907E+02 -0.53599330016E+02  0.91412197555E+02  0.41800000000E+01 0. -1.
        -11    1    1    2    0    0  0.47914942557E+02  0.46693407332E+02 -0.12145774934E+03  0.13866542786E+03  0.00000000000E+00 0.  1.
         11    1    1    2    0    0 -0.27746548858E+02  0.14214516251E+02 -0.16966432447E+03  0.17250480121E+03  0.00000000000E+00 0. -1.
</event>
<event>
 7    1  0.2666594E-009  0.1638466E+03  0.7561462E-02  0.1184421E+00
          2   -1    0    0  501    0  0.00000000000E+00  0.00000000000E+00  0.11932599426E+04  0.11932599426E+04  0.00000000000E+00 0.  1.
         -2   -1    0    0    0  501 -0.00000000000E+00 -0.00000000000E+00 -0.31854767703E+02  0.31854767703E+02  0.00000000000E+00 0. -1.
         25    2    1    2    0    0 -0.93779362848E+02  0.10655849293E+03  0.85756432841E+03  0.87818761826E+03  0.12509050396E+03 0.  0.
          5    1    3    3  502    0 -0.15211933711E+02 -0.19571509925E+02  0.40184459582E+02  0.47399473836E+02  0.41800000000E+01 0. -1.
         -5    1    3    3    0  502 -0.78567429137E+02  0.12613000286E+03  0.81737986883E+03  0.83078814442E+03  0.41800000000E+01 0. -1.
        -11    1    1    2    0    0  0.72594137162E+02 -0.37590854408E+02  0.91678681568E+02  0.12283306452E+03  0.00000000000E+00 0.  1.
         11    1    1    2    0    0  0.21185225686E+02 -0.68967638522E+02  0.21216216493E+03  0.22409402754E+03  0.00000000000E+00 0. -1.
</event>
<event>
 7    1  0.2666594E-009  0.1837858E+03  0.7561462E-02  0.1164189E+00
          2   -1    0    0  501    0  0.00000000000E+00  0.00000000000E+00  0.66265519578E+02  0.66265519578E+02  0.00000000000E+00 0.  1.
         -2   -1    0    0    0  501 -0.00000000000E+00 -0.00000000000E+00 -0.73696491239E+03  0.73696491239E+03  0.00000000000E+00 0. -1.
         25    2    1    2    0    0  0.16909210001E+03  0.11906365250E+02 -0.51283024751E+03  0.55441570594E+03  0.12509201577E+03 0.  0.
          5    1    3    3  502    0  0.12052785817E+03 -0.27763315619E+02 -0.19890464005E+03  0.23426116733E+03  0.41800000000E+01 0. -1.
         -5    1    3    3    0  502  0.48564241837E+02  0.39669680869E+02 -0.31392560747E+03  0.32015453861E+03  0.41800000000E+01 0. -1.
        -11    1    1    2    0    0 -0.61820200247E+02 -0.35284466486E+02 -0.22779461541E+02  0.74737103248E+02  0.00000000000E+00 0.  1.
         11    1    1    2    0    0 -0.10727189976E+03  0.23378101237E+02 -0.13508968376E+03  0.17407762278E+03  0.00000000000E+00 0. -1.
</event>
<event>
 7    1  0.2666594E-009  0.1658304E+03  0.7561462E-02  0.1182267E+00
         -3   -1    0    0    0  501 -0.00000000000E+00  0.00000000000E+00  0.42491007165E+02  0.42491007165E+02  0.00000000000E+00 0.  1.
          3   -1    0    0  501    0  0.00000000000E+00 -0.00000000000E+00 -0.77762050816E+03  0.77762050816E+03  0.00000000000E+00 0. -1.
         25    2    1    2    0    0  0.10105098095E+03  0.99729219693E+02 -0.45749728069E+03  0.49508335605E+03  0.12508616867E+03 0.  0.
          5    1    3    3  502    0 -0.26739983280E+02  0.67564015878E+01 -0.10712228415E+03  0.11069476875E+03  0.41800000000E+01 0.  1.
         -5    1    3    3    0  502  0.12779096423E+03  0.92972818105E+02 -0.35037499654E+03  0.38438858730E+03  0.41800000000E+01 0.  1.
        -11    1    1    2    0    0 -0.58933399292E+02 -0.79477821311E+02 -0.97417589465E+02  0.13885264265E+03  0.00000000000E+00 0.  1.
         11    1    1    2    0    0 -0.42117581661E+02 -0.20251398381E+02 -0.18021463084E+03  0.18617551663E+03  0.00000000000E+00 0. -1.
</event>
<event>
 7    1  0.2666594E-009  0.1552195E+03  0.7561462E-02  0.1194202E+00
         -1   -1    0    0    0  501 -0.00000000000E+00  0.00000000000E+00  0.25622993279E+02  0.25622993279E+02  0.00000000000E+00 0.  1.
          1   -1    0    0  501    0  0.00000000000E+00 -0.00000000000E+00 -0.12727255874E+04  0.12727255874E+04  0.00000000000E+00 0. -1.
         25    2    1    2    0    0 -0.12592706706E+03  0.31779943327E+02 -0.86262690574E+03  0.88127164045E+03  0.12508770816E+03 0.  0.
          5    1    3    3  502    0 -0.11119570022E+02 -0.39993027656E+02 -0.28089913283E+03  0.28398042596E+03  0.41800000000E+01 0. -1.
         -5    1    3    3    0  502 -0.11480749704E+03  0.71772970983E+02 -0.58172777291E+03  0.59729121450E+03  0.41800000000E+01 0. -1.
        -11    1    1    2    0    0  0.69259344537E+02 -0.21058674369E+01 -0.79471724007E+02  0.10543740513E+03  0.00000000000E+00 0.  1.
         11    1    1    2    0    0  0.56667722522E+02 -0.29674075890E+02 -0.30500396435E+03  0.31163953508E+03  0.00000000000E+00 0. -1.
</event>
<event>
 7    1  0.2666594E-009  0.2387294E+03  0.7561462E-02  0.1120642E+00
          3   -1    0    0  501    0  0.00000000000E+00  0.00000000000E+00  0.92459372739E+02  0.92459372739E+02  0.00000000000E+00 0. -1.
         -3   -1    0    0    0  501 -0.00000000000E+00 -0.00000000000E+00 -0.80583226287E+03  0.80583226287E+03  0.00000000000E+00 0.  1.
         25    2    1    2    0    0 -0.82012130746E+02  0.21428236593E+03 -0.20200758891E+03  0.33029914795E+03  0.12509012437E+03 0.  0.
          5    1    3    3  502    0 -0.47840545627E+02  0.16426329618E+03 -0.69822620450E+02  0.18483457200E+03  0.41800000000E+01 0.  1.
         -5    1    3    3    0  502 -0.34171585119E+02  0.50019069750E+02 -0.13218496846E+03  0.14546457595E+03  0.41800000000E+01 0.  1.
        -11    1    1    2    0    0  0.91099157716E+02 -0.11891646273E+03 -0.34291947291E+03  0.37421109890E+03  0.00000000000E+00 0.  1.
         11    1    1    2    0    0 -0.90870269694E+01 -0.95365903203E+02 -0.16844582831E+03  0.19378138875E+03  0.00000000000E+00 0. -1.
</event>
<event>
 7    1  0.2666594E-009  0.1186522E+03  0.7561462E-02  0.1245337E+00
         -1   -1    0    0    0  501 -0.00000000000E+00  0.00000000000E+00  0.10557960697E+04  0.10557960697E+04  0.00000000000E+00 0.  1.
          1   -1    0    0  501    0  0.00000000000E+00 -0.00000000000E+00 -0.20113739273E+02  0.20113739273E+02  0.00000000000E+00 0. -1.
         25    2    1    2    0    0  0.81020448037E+02  0.25761552976E+02  0.74583267376E+03  0.76101380667E+03  0.12509063145E+03 0.  0.
          5    1    3    3  502    0 -0.22410137349E+02  0.29235742281E+02  0.34613512152E+03  0.34811483397E+03  0.41800000000E+01 0. -1.
         -5    1    3    3    0  502  0.10343058539E+03 -0.34741893051E+01  0.39969755225E+03  0.41289897270E+03  0.41800000000E+01 0. -1.
        -11    1    1    2    0    0 -0.40576148284E+02  0.10959724526E+02  0.36323381936E+02  0.55551124620E+02  0.00000000000E+00 0. -1.
         11    1    1    2    0    0 -0.40444299753E+02 -0.36721277502E+02  0.25352627476E+03  0.25934487772E+03  0.00000000000E+00 0.  1.
</event>
<event>
 7    1  0.2666594E-009  0.8569308E+02  0.7561462E-02  0.1313630E+00
         -1   -1    0    0    0  501 -0.00000000000E+00  0.00000000000E+00  0.42062486527E+03  0.42062486527E+03  0.00000000000E+00 0.  1.
          1   -1    0    0  501    0  0.00000000000E+00 -0.00000000000E+00 -0.36629557814E+02  0.36629557814E+02  0.00000000000E+00 0. -1.
         25    2    1    2    0    0  0.44492423352E+02  0.42234563269E+02  0.24135260388E+03  0.27867835159E+03  0.12508880914E+03 0.  0.
          5    1    3    3  502    0  0.65557673286E+02  0.18604155144E+02  0.23677320554E+03  0.24642026373E+03  0.41800000000E+01 0.  1.
         -5    1    3    3    0  502 -0.21065249934E+02  0.23630408125E+02  0.45793983426E+01  0.32258087856E+02  0.41800000000E+01 0.  1.
        -11    1    1    2    0    0 -0.32108763325E+02 -0.57086690888E+01  0.13547827229E+03  0.13934821078E+03  0.00000000000E+00 0.  1.
         11    1    1    2    0    0 -0.12383660027E+02 -0.36525894181E+02  0.71644312910E+01  0.39227860725E+02  0.00000000000E+00 0. -1.
</event>
<event>
 7    1  0.2666594E-009  0.1168684E+03  0.7561462E-02  0.1248354E+00
          1   -1    0    0  501    0  0.00000000000E+00  0.00000000000E+00  0.99711555502E+02  0.99711555502E+02  0.00000000000E+00 0. -1.
         -1   -1    0    0    0  501 -0.00000000000E+00 -0.00000000000E+00 -0.16612476165E+03  0.16612476165E+03  0.00000000000E+00 0.  1.
         25    2    1    2    0    0 -0.42080282458E+02  0.11098755309E+02 -0.88287994322E+02  0.15917457470E+03  0.12509133762E+03 0.  0.
          5    1    3    3  502    0 -0.13333524692E+02  0.66118257521E+02 -0.61721236747E+02  0.91522621925E+02  0.41800000000E+01 0.  1.
         -5    1    3    3    0  502 -0.28746757766E+02 -0.55019502212E+02 -0.26566757575E+02  0.67651952772E+02  0.41800000000E+01 0.  1.
        -11    1    1    2    0    0  0.45286926530E+00 -0.48186271279E+02  0.51942538060E+01  0.48467536588E+02  0.00000000000E+00 0.  1.
         11    1    1    2    0    0  0.41627413193E+02  0.37087515969E+02  0.16680534367E+02  0.58194205869E+02  0.00000000000E+00 0. -1.
</event>
<event>
 7    1  0.2666594E-009  0.1133504E+03  0.7561462E-02  0.1254488E+00
          2   -1    0    0  501    0  0.00000000000E+00  0.00000000000E+00  0.95360515329E+02  0.95360515329E+02  0.00000000000E+00 0. -1.
         -2   -1    0    0    0  501 -0.00000000000E+00 -0.00000000000E+00 -0.26151197680E+03  0.26151197680E+03  0.00000000000E+00 0.  1.
         25    2    1    2    0    0  0.58674758888E+02  0.80307552652E+01  0.22881241100E+02  0.14027937750E+03  0.12509009631E+03 0.  0.
          5    1    3    3  502    0  0.50449289195E+02  0.55070530099E+02 -0.18384220206E+02  0.77028215728E+02  0.41800000000E+01 0.  1.
         -5    1    3    3    0  502  0.82254696928E+01 -0.47039774834E+02  0.41265461306E+02  0.63251161767E+02  0.41800000000E+01 0.  1.
        -11    1    1    2    0    0  0.17486091546E+02  0.16405735357E+02 -0.28553434907E+02  0.37285522595E+02  0.00000000000E+00 0. -1.
         11    1    1    2    0    0 -0.76160850434E+02 -0.24436490622E+02 -0.16047926767E+03  0.17930759204E+03  0.00000000000E+00 0.  1.
</event>
<event>
 7    1  0.2666594E-009  0.1497961E+03  0.7561462E-02  0.1200724E+00
          4   -1    0    0  501    0  0.00000000000E+00  0.00000000000E+00  0.12785386213E+03  0.12785386213E+03  0.00000000000E+00 0. -1.
         -4   -1    0    0    0  501 -0.00000000000E+00 -0.00000000000E+00 -0.19096125854E+03  0.19096125854E+03  0.00000000000E+00 0.  1.
         25    2    1    2    0    0  0.93964780186E+02  0.61296227786E+02 -0.33129109583E+02  0.17126460381E+03  0.12508964450E+03 0.  0.
          5    1    3    3  502    0  0.57756828611E+02 -0.33192518129E+02 -0.12311907935E+02  0.67872306487E+02  0.41800000000E+01 0.  1.
         -5    1    3    3    0  502  0.36207951575E+02  0.94488745915E+02 -0.20817201649E+02  0.10339229733E+03  0.41800000000E+01 0.  1.
        -11    1    1    2    0    0 -0.55850411226E+02 -0.72802546807E+02  0.85398215437E+01  0.92154260930E+02  0.00000000000E+00 0. -1.
         11    1    1    2    0    0 -0.38114368960E+02  0.11506319020E+02 -0.38518108370E+02  0.55396255929E+02  0.00000000000E+00 0.  1.
</event>
<event>
 7    1  0.2666594E-009  0.2243312E+03  0.7561462E-02  0.1130695E+00
          2   -1    0    0  501    0  0.00000000000E+00  0.00000000000E+00  0.25816907152E+03  0.25816907152E+03  0.00000000000E+00 0.  1.
         -2   -1    0    0    0  501 -0.00000000000E+00 -0.00000000000E+00 -0.23314585878E+03  0.23314585878E+03  0.00000000000E+00 0. -1.
         25    2    1    2    0    0  0.13565060046E+03  0.16957901160E+03 -0.18009521893E+02  0.25125933592E+03  0.12509510152E+03 0.  0.
          5    1    3    3  502    0  0.12947975373E+03  0.16847186161E+03  0.19113844646E+02  0.21337897328E+03  0.41800000000E+01 0.  1.
         -5    1    3    3    0  502  0.61708467317E+01  0.11071499978E+01 -0.37123366539E+02  0.37880362640E+02  0.41800000000E+01 0.  1.
        -11    1    1    2    0    0 -0.29162437224E+01 -0.49593177042E+02 -0.15097559172E+02  0.51922287888E+02  0.00000000000E+00 0. -1.
         11    1    1    2    0    0 -0.13273435674E+03 -0.11998583456E+03  0.58130293805E+02  0.18813330650E+03  0.00000000000E+00 0.  1.
</event>
<event>
 7    1  0.2666594E-009  0.1176012E+03  0.7561462E-02  0.1247108E+00
          2   -1    0    0  501    0  0.00000000000E+00  0.00000000000E+00  0.23503900547E+03  0.23503900547E+03  0.00000000000E+00 0. -1.
         -2   -1    0    0    0  501 -0.00000000000E+00 -0.00000000000E+00 -0.14542893464E+03  0.14542893464E+03  0.00000000000E+00 0.  1.
         25    2    1    2    0    0  0.38801958110E+02  0.76645331744E+02 -0.77539489992E+02  0.17041694253E+03  0.12509781358E+03 0.  0.
          5    1    3    3  502    0  0.66995217061E+02  0.54746339474E+01 -0.63326997103E+02  0.92445182071E+02  0.41800000000E+01 0. -1.
         -5    1    3    3    0  502 -0.28193258951E+02  0.71170697797E+02 -0.14212492889E+02  0.77971760460E+02  0.41800000000E+01 0. -1.
        -11    1    1    2    0    0 -0.35123722986E+02 -0.35711910858E+02  0.14764011634E+02  0.52220614062E+02  0.00000000000E+00 0.  1.
         11    1    1    2    0    0 -0.36782351245E+01 -0.40933420886E+02  0.15238554919E+03  0.15783038352E+03  0.00000000000E+00 0. -1.
</event>
<event>
 7    1  0.2666594E-009  0.1150490E+03  0.7561462E-02  0.1251496E+00
          2   -1    0    0  501    0  0.00000000000E+00  0.00000000000E+00  0.95140116261E+03  0.95140116261E+03  0.00000000000E+00 0. -1.
         -2   -1    0    0    0  501 -0.00000000000E+00 -0.00000000000E+00 -0.23921374224E+02  0.23921374224E+02  0.00000000000E+00 0.  1.
         25    2    1    2    0    0  0.47118024522E+02 -0.65992973595E+02  0.62092021088E+03  0.63856598333E+03  0.12509766578E+03 0.  0.
          5    1    3    3  502    0  0.54108506033E+02  0.23191671352E+02  0.22135335050E+03  0.22908592760E+03  0.41800000000E+01 0.  1.
         -5    1    3    3    0  502 -0.69904815102E+01 -0.89184644947E+02  0.39956686038E+03  0.40948005573E+03  0.41800000000E+01 0.  1.
        -11    1    1    2    0    0 -0.29653081293E+02  0.48211058239E+02  0.30665230323E+03  0.31183208052E+03  0.00000000000E+00 0.  1.
         11    1    1    2    0    0 -0.17464943229E+02  0.17781915355E+02 -0.92725721004E-01  0.24924472989E+02  0.00000000000E+00 0. -1.
</event>
<event>
 7    1  0.2666594E-009  0.1205729E+03  0.7561462E-02  0.1242155E+00
          2   -1    0    0  501    0  0.00000000000E+00  0.00000000000E+00  0.13771105637E+03  0.13771105637E+03  0.00000000000E+00 0. -1.
         -2   -1    0    0    0  501 -0.00000000000E+00 -0.00000000000E+00 -0.15239294243E+03  0.15239294243E+03  0.00000000000E+00 0.  1.
         25    2    1    2    0    0  0.79708406004E+02 -0.13409855434E+02 -0.57339408339E+02  0.15958890032E+03  0.12509018805E+03 0.  0.
          5    1    3    3  502    0 -0.31228610474E+02 -0.18090262281E+02 -0.46916911078E+01  0.36632882318E+02  0.41800000000E+01 0. -1.
         -5    1    3    3    0  502  0.11093701648E+03  0.46804068468E+01 -0.52647717232E+02  0.12295601800E+03  0.41800000000E+01 0. -1.
        -11    1    1    2    0    0 -0.55720482538E+02 -0.13822683478E+02  0.65915443568E+02  0.87411008766E+02  0.00000000000E+00 0. -1.
         11    1    1    2    0    0 -0.23987923466E+02  0.27232538912E+02 -0.23257921284E+02  0.43104089716E+02  0.00000000000E+00 0.  1.
</event>
<event>
 7    1  0.2666594E-009  0.1048819E+03  0.7561462E-02  0.1270352E+00
          1   -1    0    0  501    0  0.00000000000E+00  0.00000000000E+00  0.69810598943E+02  0.69810598943E+02  0.00000000000E+00 0. -1.
         -1   -1    0    0    0  501 -0.00000000000E+00 -0.00000000000E+00 -0.31407979370E+03  0.31407979370E+03  0.00000000000E+00 0.  1.
         25    2    1    2    0    0 -0.50714829022E+02 -0.62704109533E+02 -0.21213391987E+03  0.25913273017E+03  0.12508066458E+03 0.  0.
          5    1    3    3  502    0  0.29959868523E+02 -0.22417650436E+02 -0.13577104769E+03  0.14089497707E+03  0.41800000000E+01 0. -1.
         -5    1    3    3    0  502 -0.80674697545E+02 -0.40286459097E+02 -0.76362872181E+02  0.11823775310E+03  0.41800000000E+01 0. -1.
        -11    1    1    2    0    0  0.18723515297E+02  0.34218149958E+02 -0.61497695775E+02  0.72824572757E+02  0.00000000000E+00 0.  1.
         11    1    1    2    0    0  0.31991313724E+02  0.28485959575E+02  0.29362420889E+02  0.51933089714E+02  0.00000000000E+00 0. -1.
</event>
<event>
 7    1  0.2666594E-009  0.4282655E+03  0.7561462E-02  0.1034409E+00
          1   -1    0    0  501    0  0.00000000000E+00  0.00000000000E+00  0.28724996237E+04  0.28724996237E+04  0.00000000000E+00 0. -1.
         -1   -1    0    0    0  501 -0.00000000000E+00 -0.00000000000E+00 -0.86076388267E+02  0.86076388267E+02  0.00000000000E+00 0.  1.
         25    2    1    2    0    0  0.42335354807E+03 -0.38154138237E+02  0.20959126346E+04  0.21422378262E+04  0.12509663227E+03 0.  0.
          5    1    3    3  502    0  0.19461948081E+03  0.18850278838E+02  0.11994694913E+04  0.12153092644E+04  0.41800000000E+01 0. -1.
         -5    1    3    3    0  502  0.22873406725E+03 -0.57004417075E+02  0.89644314333E+03  0.92692856182E+03  0.41800000000E+01 0. -1.
        -11    1    1    2    0    0 -0.31167384762E+03  0.23625115108E+02  0.57825646831E+03  0.65732737391E+03  0.00000000000E+00 0.  1.
         11    1    1    2    0    0 -0.11167970045E+03  0.14529023130E+02  0.11225413255E+03  0.15901081184E+03  0.00000000000E+00 0. -1.
</event>
<event>
 7    1  0.2666594E-009  0.2656678E+03  0.7561462E-02  0.1103785E+00
          1   -1    0    0  501    0  0.00000000000E+00  0.00000000000E+00  0.20431927431E+04  0.20431927431E+04  0.00000000000E+00 0. -1.
         -1   -1    0    0    0  501 -0.00000000000E+00 -0.00000000000E+00 -0.39776077517E+02  0.39776077517E+02  0.00000000000E+00 0.  1.
         25    2    1    2    0    0  0.16231904079E+03 -0.19477039944E+03  0.75650596297E+03  0.80760886022E+03  0.12509124508E+03 0.  0.
          5    1    3    3  502    0  0.25509881423E+02  0.12962352965E+02  0.41662508477E+02  0.50715023979E+02  0.41800000000E+01 0.  1.
         -5    1    3    3    0  502  0.13680915937E+03 -0.20773275240E+03  0.71484345449E+03  0.75689383624E+03  0.41800000000E+01 0.  1.
        -11    1    1    2    0    0 -0.20177299954E+02  0.28132111604E+02  0.68325986935E+02  0.76596211573E+02  0.00000000000E+00 0.  1.
         11    1    1    2    0    0 -0.14214174084E+03  0.16663828784E+03  0.11785847157E+04  0.11987637488E+04  0.00000000000E+00 0. -1.
</event>
<event>
 7    1  0.2666594E-009  0.7304775E+02  0.7561462E-02  0.1350025E+00
         -2   -1    0    0    0  501 -0.00000000000E+00  0.00000000000E+00  0.20971645386E+02  0.20971645386E+02  0.00000000000E+00 0.  1.
          2   -1    0    0  501    0  0.00000000000E+00 -0.00000000000E+00 -0.65918870933E+03  0.65918870933E+03  0.00000000000E+00 0. -1.
         25    2    1    2    0    0 -0.34498754394E+01  0.27422340746E+02 -0.41325707356E+03  0.43265740906E+03  0.12508852206E+03 0.  0.
          5    1    3    3  502    0 -0.52464200244E+01  0.40104686242E+02 -0.41675746659E+03  0.41873639577E+03  0.41800000000E+01 0. -1.
         -5    1    3    3    0  502  0.17965445850E+01 -0.12682345496E+02  0.35003930264E+01  0.13921013292E+02  0.41800000000E+01 0. -1.
        -11    1    1    2    0    0 -0.40794449617E+02 -0.24573518855E+02 -0.59533978921E+02  0.76238701423E+02  0.00000000000E+00 0.  1.
         11    1    1    2    0    0  0.44244325056E+02 -0.28488218906E+01 -0.16542601146E+03  0.17126424423E+03  0.00000000000E+00 0. -1.
</event>
<event>
 7    1  0.2666594E-009  0.1354257E+03  0.7561462E-02  0.1219620E+00
         -2   -1    0    0    0  501 -0.00000000000E+00  0.00000000000E+00  0.12796253585E+02  0.12796253585E+02  0.00000000000E+00 0.  1.
          2   -1    0    0  501    0  0.00000000000E+00 -0.00000000000E+00 -0.22182420889E+04  0.22182420889E+04  0.00000000000E+00 0. -1.
         25    2    1    2    0    0  0.67870582345E+02  0.76557229674E+02 -0.16617388003E+04  0.16695779473E+04  0.12508899349E+03 0.  0.
          5    1    3    3  502    0 -0.18352580443E+02  0.39835132075E+02 -0.19829982083E+03  0.20313529063E+03  0.41800000000E+01 0. -1.
         -5    1    3    3    0  502  0.86223162788E+02  0.36722097598E+02 -0.14634389795E+04  0.14664426567E+04  0.41800000000E+01 0. -1.
        -11    1    1    2    0    0 -0.25287865445E+02  0.16808644622E+02 -0.63175066603E+02  0.70093478392E+02  0.00000000000E+00 0.  1.
         11    1    1    2    0    0 -0.42582716900E+02 -0.93365874296E+02 -0.48053196839E+03  0.49136691678E+03  0.00000000000E+00 0. -1.
</event>
<event>
 7    1  0.2666594E-009  0.6204919E+02  0.7561462E-02  0.1389428E+00
         -2   -1    0    0    0  501 -0.00000000000E+00  0.00000000000E+00  0.28175508768E+03  0.28175508768E+03  0.00000000000E+00 0. -1.
          2   -1    0    0  501    0  0.00000000000E+00 -0.00000000000E+00 -0.60900576913E+02  0.60900576913E+02  0.00000000000E+00 0.  1.
         25    2    1    2    0    0  0.37200533880E+02 -0.21432890195E+02  0.44374929257E+02  0.13949052669E+03  0.12508087058E+03 0.  0.
          5    1    3    3  502    0 -0.14264790578E+02 -0.74697527471E+01 -0.37880687821E+02  0.41372700735E+02  0.41800000000E+01 0. -1.
         -5    1    3    3    0  502  0.51465324458E+02 -0.13963137448E+02  0.82255617078E+02  0.98117825953E+02  0.41800000000E+01 0. -1.
        -11    1    1    2    0    0  0.21455275882E+01  0.13709142016E+02 -0.68691283276E+01  0.15483177562E+02  0.00000000000E+00 0.  1.
         11    1    1    2    0    0 -0.39346061468E+02  0.77237481797E+01  0.18334870984E+03  0.18768196035E+03  0.00000000000E+00 0. -1.
</event>
<event>
 7    1  0.2666594E-009  0.1240947E+03  0.7561462E-02  0.1236491E+00
         -1   -1    0    0    0  501 -0.00000000000E+00  0.00000000000E+00  0.16311452012E+04  0.16311452012E+04  0.00000000000E+00 0.  1.
          1   -1    0    0  501    0  0.00000000000E+00 -0.00000000000E+00 -0.20423003245E+02  0.20423003245E+02  0.00000000000E+00 0. -1.
         25    2    1    2    0    0  0.99303761348E+02  0.42655792078E+02  0.12983900384E+04  0.13088712689E+04  0.12508618356E+03 0.  0.
          5    1    3    3  502    0  0.26059778286E+02  0.21268744338E+02  0.10087733023E+04  0.10093426174E+04  0.41800000000E+01 0.  1.
         -5    1    3    3    0  502  0.73243983062E+02  0.21387047740E+02  0.28961673604E+03  0.29952865149E+03  0.41800000000E+01 0.  1.
        -11    1    1    2    0    0 -0.52230679556E+02  0.23015303846E+02  0.16601233935E+03  0.17555012080E+03  0.00000000000E+00 0.  1.
         11    1    1    2    0    0 -0.47073081792E+02 -0.65671095924E+02  0.14631982025E+03  0.16714681471E+03  0.00000000000E+00 0. -1.
</event>
<event>
 7    1  0.2666594E-009  0.1122557E+03  0.7561462E-02  0.1256449E+00
         -1   -1    0    0    0  501 -0.00000000000E+00  0.00000000000E+00  0.88378261932E+02  0.88378261932E+02  0.00000000000E+00 0.  1.
          1   -1    0    0  501    0  0.00000000000E+00 -0.00000000000E+00 -0.21855888684E+03  0.21855888684E+03  0.00000000000E+00 0. -1.
         25    2    1    2    0    0  0.70923372984E+02 -0.36572255394E+02 -0.43339891862E+02  0.15457411807E+03  0.12508859681E+03 0.  0.
          5    1    3    3  502    0 -0.30011921876E+02 -0.28598182878E+02  0.55977274830E+01  0.42040200661E+02  0.41800000000E+01 0.  1.
         -5    1    3    3    0  502  0.10093529486E+03 -0.79740725159E+01 -0.48937619345E+02  0.11253391741E+03  0.41800000000E+01 0.  1.
        -11    1    1    2    0    0 -0.52998675630E+02  0.35007177667E+02 -0.10756468028E+03  0.12491806335E+03  0.00000000000E+00 0. -1.
         11    1    1    2    0    0 -0.17924697353E+02  0.15650777268E+01  0.20723947240E+02  0.27444967347E+02  0.00000000000E+00 0.  1.
</event>
<event>
 7    1  0.2666594E-009  0.1102818E+03  0.7561462E-02  0.1260049E+00
          2   -1    0    0  501    0  0.00000000000E+00  0.00000000000E+00  0.17303541565E+04  0.17303541565E+04  0.00000000000E+00 0. -1.
         -2   -1    0    0    0  501 -0.00000000000E+00 -0.00000000000E+00 -0.20752310547E+02  0.20752310547E+02  0.00000000000E+00 0.  1.
         25    2    1    2    0    0 -0.69875732007E+02 -0.26384024297E+02  0.15290309479E+04  0.15359562507E+04  0.12508888671E+03 0.  0.
          5    1    3    3  502    0 -0.20454493325E+00  0.31114863184E+02  0.89053656415E+03  0.89108979404E+03  0.41800000000E+01 0.  1.
         -5    1    3    3    0  502 -0.69671187074E+02 -0.57498887480E+02  0.63849438379E+03  0.64486645664E+03  0.41800000000E+01 0.  1.
        -11    1    1    2    0    0 -0.11407980555E+02  0.11318353939E+02 -0.52433483840E+00  0.16078621933E+02  0.00000000000E+00 0.  1.
         11    1    1    2    0    0  0.81283712562E+02  0.15065670358E+02  0.18109523290E+03  0.19907159449E+03  0.00000000000E+00 0. -1.
</event>
<event>
 7    1  0.2666594E-009  0.1221094E+03  0.7561462E-02  0.1239657E+00
         -2   -1    0    0    0  501 -0.00000000000E+00  0.00000000000E+00  0.39181791304E+03  0.39181791304E+03  0.00000000000E+00 0.  1.
          2   -1    0    0  501    0  0.00000000000E+00 -0.00000000000E+00 -0.42703802202E+02  0.42703802202E+02  0.00000000000E+00 0. -1.
         25    2    1    2    0    0 -0.61725912879E+02  0.19610072813E+02  0.14093294772E+03  0.19925854573E+03  0.12508888447E+03 0.  0.
          5    1    3    3  502    0 -0.97957575885E+02  0.56147256390E+01  0.79018067886E+02  0.12604974919E+03  0.41800000000E+01 0. -1.
         -5    1    3    3    0  502  0.36231663006E+02  0.13995347174E+02  0.61914879831E+02  0.73208796542E+02  0.41800000000E+01 0. -1.
        -11    1    1    2    0    0  0.82498715846E+02 -0.23569553930E+02  0.14329504497E+03  0.16701805861E+03  0.00000000000E+00 0. -1.
         11    1    1    2    0    0 -0.20772802967E+02  0.39594811171E+01  0.64886118154E+02  0.68245110909E+02  0.00000000000E+00 0.  1.
</event>
<event>
 7    1  0.2666594E-009  0.1018516E+03  0.7561462E-02  0.1276450E+00
         -1   -1    0    0    0  501 -0.00000000000E+00  0.00000000000E+00  0.46533854507E+02  0.46533854507E+02  0.00000000000E+00 0.  1.
          1   -1    0    0  501    0  0.00000000000E+00 -0.00000000000E+00 -0.26991040251E+03  0.26991040251E+03  0.00000000000E+00 0. -1.
         25    2    1    2    0    0 -0.56696425364E+01 -0.96013538234E+01 -0.13648206671E+03  0.18546998961E+03  0.12508969451E+03 0.  0.
          5    1    3    3  502    0  0.37065628221E+02 -0.52818366152E+02 -0.69726129106E+02  0.95093880342E+02  0.41800000000E+01 0.  1.
         -5    1    3    3    0  502 -0.42735270757E+02  0.43217012329E+02 -0.66755937600E+02  0.90376109267E+02  0.41800000000E+01 0.  1.
        -11    1    1    2    0    0 -0.32036173350E+02 -0.12529307198E+02 -0.79280461182E+00  0.34408261812E+02  0.00000000000E+00 0.  1.
         11    1    1    2    0    0  0.37705815887E+02  0.22130661021E+02 -0.86101676683E+02  0.96566005595E+02  0.00000000000E+00 0. -1.
</event>
<event>
 7    1  0.2735354E-009  0.9092890E+02  0.7561462E-02  0.1300618E+00
          1   -1    0    0  501    0  0.00000000000E+00  0.00000000000E+00  0.96542068682E+03  0.96542068682E+03  0.00000000000E+00 0. -1.
         -1   -1    0    0    0  501 -0.00000000000E+00 -0.00000000000E+00 -0.14903307150E+02  0.14903307150E+02  0.00000000000E+00 0.  1.
         25    2    1    2    0    0  0.27936400684E+02  0.33816283312E+02  0.65990760153E+03  0.67308993889E+03  0.12509212516E+03 0.  0.
          5    1    3    3  502    0 -0.34037541130E+02  0.15617160129E+02  0.48714905127E+03  0.48860425750E+03  0.41800000000E+01 0. -1.
         -5    1    3    3    0  502  0.61973941814E+02  0.18199123182E+02  0.17275855026E+03  0.18448568139E+03  0.41800000000E+01 0. -1.
        -11    1    1    2    0    0  0.27241697414E+01  0.18560299772E+02  0.12413129166E+02  0.22494257136E+02  0.00000000000E+00 0.  1.
         11    1    1    2    0    0 -0.30660570425E+02 -0.52376583083E+02  0.27819664898E+03  0.28473979795E+03  0.00000000000E+00 0. -1.
</event>
<event>
 7    1  0.2666594E-009  0.1080729E+03  0.7561462E-02  0.1264181E+00
         -3   -1    0    0    0  501 -0.00000000000E+00  0.00000000000E+00  0.95338090031E+02  0.95338090031E+02  0.00000000000E+00 0.  1.
          3   -1    0    0  501    0  0.00000000000E+00 -0.00000000000E+00 -0.17159544912E+03  0.17159544912E+03  0.00000000000E+00 0. -1.
         25    2    1    2    0    0  0.14218553973E+02 -0.63743791747E+02 -0.29514418773E+02  0.14416502665E+03  0.12508803193E+03 0.  0.
          5    1    3    3  502    0  0.47468504797E+02 -0.25100115415E+02 -0.63110618337E+02  0.82968049805E+02  0.41800000000E+01 0.  1.
         -5    1    3    3    0  502 -0.33249950824E+02 -0.38643676332E+02  0.33596199564E+02  0.61196976849E+02  0.41800000000E+01 0.  1.
        -11    1    1    2    0    0 -0.39589385123E+02 -0.30304031957E+01 -0.28994847847E+02  0.49165068490E+02  0.00000000000E+00 0. -1.
         11    1    1    2    0    0  0.25370831150E+02  0.66774194942E+02 -0.17748092470E+02  0.73603444007E+02  0.00000000000E+00 0.  1.
</event>
<event>
 7    1  0.2666594E-009  0.1223436E+03  0.7561462E-02  0.1239280E+00
          1   -1    0    0  501    0  0.00000000000E+00  0.00000000000E+00  0.38410256427E+03  0.38410256427E+03  0.00000000000E+00 0. -1.
         -1   -1    0    0    0  501 -0.00000000000E+00 -0.00000000000E+00 -0.48616139159E+02  0.48616139159E+02  0.00000000000E+00 0.  1.
         25    2    1    2    0    0  0.10053869916E+02 -0.68262347379E+02  0.11361372984E+03  0.18252167034E+03  0.12508098244E+03 0.  0.
          5    1    3    3  502    0  0.63108539810E+02 -0.53411597889E+02  0.90439793999E+02  0.12260634292E+03  0.41800000000E+01 0. -1.
         -5    1    3    3    0  502 -0.53054669894E+02 -0.14850749490E+02  0.23173935839E+02  0.59915327423E+02  0.41800000000E+01 0. -1.
        -11    1    1    2    0    0  0.33624523508E+02  0.12621458936E+02  0.34029642673E+02  0.49476523597E+02  0.00000000000E+00 0.  1.
         11    1    1    2    0    0 -0.43678393424E+02  0.55640888444E+02  0.18784305260E+03  0.20072050949E+03  0.00000000000E+00 0. -1.
</event>
<event>
 7    1  0.2666594E-009  0.6286638E+02  0.7561462E-02  0.1386182E+00
         -1   -1    0    0    0  501 -0.00000000000E+00  0.00000000000E+00  0.46079168671E+02  0.46079168671E+02  0.00000000000E+00 0.  1.
          1   -1    0    0  501    0  0.00000000000E+00 -0.00000000000E+00 -0.26830370099E+03  0.26830370099E+03  0.00000000000E+00 0. -1.
         25    2    1    2    0    0 -0.14813549814E+02  0.42452276811E+01 -0.14676682702E+03  0.19345778499E+03  0.12509176568E+03 0.  0.
          5    1    3    3  502    0  0.26604256060E+01  0.11101013343E+02  0.21176111442E+02  0.24417421187E+02  0.41800000000E+01 0.  1.
         -5    1    3    3    0  502 -0.17473975420E+02 -0.68557856623E+01 -0.16794293846E+03  0.16904036380E+03  0.41800000000E+01 0.  1.
        -11    1    1    2    0    0 -0.97095593399E+01  0.41403521638E+02 -0.37388945099E+02  0.56625615777E+02  0.00000000000E+00 0. -1.
         11    1    1    2    0    0  0.24523109154E+02 -0.45648749319E+02 -0.38068760195E+02  0.64299468892E+02  0.00000000000E+00 0.  1.
</event>
<event>
 7    1  0.2666594E-009  0.6838609E+02  0.7561462E-02  0.1365669E+00
         -1   -1    0    0    0  501 -0.00000000000E+00  0.00000000000E+00  0.99803848599E+02  0.99803848599E+02  0.00000000000E+00 0.  1.
          1   -1    0    0  501    0  0.00000000000E+00 -0.00000000000E+00 -0.12943255856E+03  0.12943255856E+03  0.00000000000E+00 0. -1.
         25    2    1    2    0    0  0.12201224311E+02 -0.29814242655E+02 -0.27052536206E+02  0.13197598869E+03  0.12509221773E+03 0.  0.
          5    1    3    3  502    0  0.22729284740E+02 -0.20253435485E+02  0.47165163390E+02  0.56292513457E+02  0.41800000000E+01 0.  1.
         -5    1    3    3    0  502 -0.10528060429E+02 -0.95608071698E+01 -0.74217699596E+02  0.75683475234E+02  0.41800000000E+01 0.  1.
        -11    1    1    2    0    0  0.26912275070E+02  0.42322977184E+02 -0.18155122047E+02  0.53339604458E+02  0.00000000000E+00 0. -1.
         11    1    1    2    0    0 -0.39113499381E+02 -0.12508734530E+02  0.15578948292E+02  0.43920814009E+02  0.00000000000E+00 0.  1.
</event>
<event>
 7    1  0.2666594E-009  0.7325869E+02  0.7561462E-02  0.1349350E+00
          2   -1    0    0  501    0  0.00000000000E+00  0.00000000000E+00  0.15548524732E+03  0.15548524732E+03  0.00000000000E+00 0. -1.
         -2   -1    0    0    0  501 -0.00000000000E+00 -0.00000000000E+00 -0.85817122058E+02  0.85817122058E+02  0.00000000000E+00 0.  1.
         25    2    1    2    0    0  0.13684313701E+02  0.35287125399E+02  0.19942200358E+02  0.13220675829E+03  0.12509394039E+03 0.  0.
          5    1    3    3  502    0 -0.37411263651E+02 -0.55624338154E+01 -0.31085720847E+02  0.49135911088E+02  0.41800000000E+01 0. -1.
         -5    1    3    3    0  502  0.51095577351E+02  0.40849559215E+02  0.51027921205E+02  0.83070847205E+02  0.41800000000E+01 0. -1.
        -11    1    1    2    0    0 -0.18376912159E+02 -0.21151711184E+02  0.74831053200E+02  0.79904895404E+02  0.00000000000E+00 0. -1.
         11    1    1    2    0    0  0.46925984585E+01 -0.14135414215E+02 -0.25105128295E+02  0.29190715682E+02  0.00000000000E+00 0.  1.
</event>
<event>
 7    1  0.2666594E-009  0.1200901E+03  0.7561462E-02  0.1242948E+00
         -1   -1    0    0    0  501 -0.00000000000E+00  0.00000000000E+00  0.74963701920E+02  0.74963701920E+02  0.00000000000E+00 0.  1.
          1   -1    0    0  501    0  0.00000000000E+00 -0.00000000000E+00 -0.39700508468E+03  0.39700508468E+03  0.00000000000E+00 0. -1.
         25    2    1    2    0    0  0.45776762128E+02 -0.89200886011E+02 -0.63901484217E+02  0.17258260714E+03  0.12509614936E+03 0.  0.
          5    1    3    3  502    0 -0.27092021105E+02 -0.53766039166E+01 -0.54245859243E+02  0.61016154600E+02  0.41800000000E+01 0. -1.
         -5    1    3    3    0  502  0.72868783232E+02 -0.83824282094E+02 -0.96556249747E+01  0.11156645254E+03  0.41800000000E+01 0. -1.
        -11    1    1    2    0    0 -0.11696413983E+02  0.36579051648E+02 -0.22541939706E+03  0.22866730787E+03  0.00000000000E+00 0. -1.
         11    1    1    2    0    0 -0.34080348145E+02  0.52621834362E+02 -0.32720501484E+02  0.70718871588E+02  0.00000000000E+00 0.  1.
</event>
<event>
 7    1  0.2666594E-009  0.1240967E+03  0.7561462E-02  0.1236488E+00
         -1   -1    0    0    0  501 -0.00000000000E+00  0.00000000000E+00  0.52490624921E+02  0.52490624921E+02  0.00000000000E+00 0.  1.
          1   -1    0    0  501    0  0.00000000000E+00 -0.00000000000E+00 -0.37294541860E+03  0.37294541860E+03  0.00000000000E+00 0. -1.
         25    2    1    2    0    0  0.69378059926E+02  0.22475670946E+01 -0.25998927670E+03  0.29675040303E+03  0.12509200992E+03 0.  0.
          5    1    3    3  502    0  0.37990512075E+02  0.63462102862E+02 -0.13894692251E+03  0.15746249453E+03  0.41800000000E+01 0.  1.
         -5    1    3    3    0  502  0.31387547851E+02 -0.61214535767E+02 -0.12104235419E+03  0.13928790851E+03  0.41800000000E+01 0.  1.
        -11    1    1    2    0    0 -0.43572268815E+02  0.37710648630E+02 -0.56903864879E+02  0.80985711505E+02  0.00000000000E+00 0. -1.
         11    1    1    2    0    0 -0.25805791111E+02 -0.39958215725E+02 -0.35616520974E+01  0.47699928978E+02  0.00000000000E+00 0.  1.
</event>
<event>
 7    1  0.2666594E-009  0.1267960E+03  0.7561462E-02  0.1232289E+00
         -1   -1    0    0    0  501 -0.00000000000E+00  0.00000000000E+00  0.26411116381E+02  0.26411116381E+02  0.00000000000E+00 0.  1.
          1   -1    0    0  501    0  0.00000000000E+00 -0.00000000000E+00 -0.68227074975E+03  0.68227074975E+03  0.00000000000E+00 0. -1.
         25    2    1    2    0    0 -0.15718409449E+02  0.61712699869E+02 -0.40441688162E+03  0.42808443369E+03  0.12509093694E+03 0.  0.
          5    1    3    3  502    0 -0.59777578879E+02  0.66840364841E+02 -0.32337005617E+03  0.33559895550E+03  0.41800000000E+01 0.  1.
         -5    1    3    3    0  502  0.44059169430E+02 -0.51276649726E+01 -0.81046825457E+02  0.92485478188E+02  0.41800000000E+01 0.  1.
        -11    1    1    2    0    0  0.27309635279E+02  0.21808048262E+02 -0.40904032238E+02  0.53800994428E+02  0.00000000000E+00 0.  1.
         11    1    1    2    0    0 -0.11591225830E+02 -0.83520748131E+02 -0.21053871951E+03  0.22679643802E+03  0.00000000000E+00 0. -1.
</event>
<event>
 7    1  0.2666594E-009  0.9947310E+02  0.7561462E-02  0.1281408E+00
          1   -1    0    0  501    0  0.00000000000E+00  0.00000000000E+00  0.17536901671E+02  0.17536901671E+02  0.00000000000E+00 0.  1.
         -1   -1    0    0    0  501 -0.00000000000E+00 -0.00000000000E+00 -0.77465850154E+03  0.77465850154E+03  0.00000000000E+00 0. -1.
         25    2    1    2    0    0  0.28885143080E+02  0.27497490700E+02 -0.46272447397E+03  0.48099072133E+03  0.12509065394E+03 0.  0.
          5    1    3    3  502    0 -0.44690223390E+02  0.14164853667E+02 -0.98773494379E+02  0.10941450881E+03  0.41800000000E+01 0.  1.
         -5    1    3    3    0  502  0.73575366470E+02  0.13332637033E+02 -0.36395097959E+03  0.37157621252E+03  0.41800000000E+01 0.  1.
        -11    1    1    2    0    0 -0.25412734499E+02 -0.49005096456E+02 -0.27928997193E+03  0.28469315934E+03  0.00000000000E+00 0. -1.
         11    1    1    2    0    0 -0.34724085809E+01  0.21507605756E+02 -0.15107153962E+02  0.26511522543E+02  0.00000000000E+00 0.  1.
</event>
<event>
 7    1  0.2666594E-009  0.1297531E+03  0.7561462E-02  0.1227823E+00
         -2   -1    0    0    0  501 -0.00000000000E+00  0.00000000000E+00  0.13337581785E+03  0.13337581785E+03  0.00000000000E+00 0.  1.
          2   -1    0    0  501    0  0.00000000000E+00 -0.00000000000E+00 -0.18099909751E+03  0.18099909751E+03  0.00000000000E+00 0. -1.
         25    2    1    2    0    0 -0.10391150615E+03 -0.15686369294E+02  0.46620749302E+01  0.16343594774E+03  0.12508361515E+03 0.  0.
          5    1    3    3  502    0 -0.44191415481E+01 -0.21984865442E+02 -0.46138303617E+02  0.51469200316E+02  0.41800000000E+01 0. -1.
         -5    1    3    3    0  502 -0.99492364600E+02  0.62984961476E+01  0.50800378547E+02  0.11196674742E+03  0.41800000000E+01 0. -1.
        -11    1    1    2    0    0  0.77022136328E+02 -0.31010766088E+02 -0.12519917211E+02  0.83969193308E+02  0.00000000000E+00 0.  1.
         11    1    1    2    0    0  0.26889369821E+02  0.46697135383E+02 -0.39765437380E+02  0.66969774319E+02  0.00000000000E+00 0. -1.
</event>
<event>
 7    1  0.2666594E-009  0.1033111E+03  0.7561462E-02  0.1273483E+00
          1   -1    0    0  501    0  0.00000000000E+00  0.00000000000E+00  0.68087285767E+03  0.68087285767E+03  0.00000000000E+00 0. -1.
         -1   -1    0    0    0  501 -0.00000000000E+00 -0.00000000000E+00 -0.22777590624E+02  0.22777590624E+02  0.00000000000E+00 0.  1.
         25    2    1    2    0    0 -0.18086039417E+02  0.37436579930E+02  0.48755520648E+03  0.50506074207E+03  0.12509065301E+03 0.  0.
          5    1    3    3  502    0 -0.49251530155E+02 -0.29097026233E+02  0.18517528847E+03  0.19385486844E+03  0.41800000000E+01 0.  1.
         -5    1    3    3    0  502  0.31165490738E+02  0.66533606163E+02  0.30237991802E+03  0.31120587363E+03  0.41800000000E+01 0.  1.
        -11    1    1    2    0    0 -0.21400446403E+02 -0.27703970876E+02  0.14801841380E+03  0.15210174204E+03  0.00000000000E+00 0. -1.
         11    1    1    2    0    0  0.39486485820E+02 -0.97326090540E+01  0.22521646768E+02  0.46487964190E+02  0.00000000000E+00 0.  1.
</event>
<event>
 7    1  0.2666594E-009  0.1298662E+03  0.7561462E-02  0.1227654E+00
          2   -1    0    0  501    0  0.00000000000E+00  0.00000000000E+00  0.74124361051E+02  0.74124361051E+02  0.00000000000E+00 0.  1.
         -2   -1    0    0    0  501 -0.00000000000E+00 -0.00000000000E+00 -0.25745345241E+03  0.25745345241E+03  0.00000000000E+00 0. -1.
         25    2    1    2    0    0 -0.46579975508E+02  0.60267287611E+02 -0.54269892255E+02  0.15618541704E+03  0.12508726241E+03 0.  0.
          5    1    3    3  502    0 -0.36168562773E+01 -0.36619222551E+02  0.14061856718E-01  0.37034061448E+02  0.41800000000E+01 0.  1.
         -5    1    3    3    0  502 -0.42963119231E+02  0.96886510162E+02 -0.54283954111E+02  0.11915135559E+03  0.41800000000E+01 0.  1.
        -11    1    1    2    0    0  0.64326107576E+02 -0.12307016845E+02 -0.55742787947E+02  0.86003309167E+02  0.00000000000E+00 0. -1.
         11    1    1    2    0    0 -0.17746132068E+02 -0.47960270766E+02 -0.73316411157E+02  0.89389087255E+02  0.00000000000E+00 0.  1.
</event>
<event>
 7    1  0.2666594E-009  0.9022617E+02  0.7561462E-02  0.1302305E+00
         -2   -1    0    0    0  501 -0.00000000000E+00  0.00000000000E+00  0.26424552542E+02  0.26424552542E+02  0.00000000000E+00 0.  1.
          2   -1    0    0  501    0  0.00000000000E+00 -0.00000000000E+00 -0.93003227787E+03  0.93003227787E+03  0.00000000000E+00 0. -1.
         25    2    1    2    0    0 -0.56881256777E+02  0.23330773754E+02 -0.77262620767E+03  0.78509750774E+03  0.12508811892E+03 0.  0.
          5    1    3    3  502    0 -0.12647907705E+02 -0.30393786093E+02 -0.56707688407E+03  0.56804701975E+03  0.41800000000E+01 0. -1.
         -5    1    3    3    0  502 -0.44233349073E+02  0.53724559847E+02 -0.20554932360E+03  0.21705048798E+03  0.41800000000E+01 0. -1.
        -11    1    1    2    0    0 -0.97688897945E+00  0.10488523741E+02  0.10459423265E+02  0.14844627897E+02  0.00000000000E+00 0.  1.
         11    1    1    2    0    0  0.57858145757E+02 -0.33819297495E+02 -0.14144094092E+03  0.15651469478E+03  0.00000000000E+00 0. -1.
</event>
<event>
 7    1  0.2666594E-009  0.1657447E+03  0.7561462E-02  0.1182360E+00
          1   -1    0    0  501    0  0.00000000000E+00  0.00000000000E+00  0.32021681685E+03  0.32021681685E+03  0.00000000000E+00 0. -1.
         -1   -1    0    0    0  501 -0.00000000000E+00 -0.00000000000E+00 -0.10339560832E+03  0.10339560832E+03  0.00000000000E+00 0.  1.
         25    2    1    2    0    0  0.10094505608E+03 -0.10023920313E+03  0.77312158089E+02  0.20460114811E+03  0.12508660132E+03 0.  0.
          5    1    3    3  502    0  0.10345069906E+03 -0.11330520030E+03  0.31460778257E+02  0.15667599854E+03  0.41800000000E+01 0. -1.
         -5    1    3    3    0  502 -0.25056429796E+01  0.13065997169E+02  0.45851379832E+02  0.47925149569E+02  0.41800000000E+01 0. -1.
        -11    1    1    2    0    0 -0.10685333866E+03  0.58333782322E+02  0.12444798693E+03  0.17409126225E+03  0.00000000000E+00 0.  1.
         11    1    1    2    0    0  0.59082825728E+01  0.41905420809E+02  0.15061063518E+02  0.44920014809E+02  0.00000000000E+00 0. -1.
</event>
<event>
 7    1  0.2666594E-009  0.1372518E+03  0.7561462E-02  0.1217075E+00
          2   -1    0    0  501    0  0.00000000000E+00  0.00000000000E+00  0.58490116087E+03  0.58490116087E+03  0.00000000000E+00 0. -1.
         -2   -1    0    0    0  501 -0.00000000000E+00 -0.00000000000E+00 -0.34838415978E+02  0.34838415978E+02  0.00000000000E+00 0.  1.
         25    2    1    2    0    0  0.84490092433E+02 -0.10448483299E+02  0.38007161613E+03  0.40908347923E+03  0.12508842098E+03 0.  0.
          5    1    3    3  502    0  0.68310039438E+02 -0.64592852730E+02  0.25361558264E+03  0.27051217028E+03  0.41800000000E+01 0. -1.
         -5    1    3    3    0  502  0.16180052995E+02  0.54144369432E+02  0.12645603349E+03  0.13857130894E+03  0.41800000000E+01 0. -1.
        -11    1    1    2    0    0 -0.68296370518E+02 -0.34097326474E+02  0.11536549428E+03  0.13833372390E+03  0.00000000000E+00 0.  1.
         11    1    1    2    0    0 -0.16193721914E+02  0.44545809773E+02  0.54625634476E+02  0.72322373714E+02  0.00000000000E+00 0. -1.
</event>
<event>
 7    1  0.2666594E-009  0.1442586E+03  0.7561462E-02  0.1207711E+00
          4   -1    0    0  501    0  0.00000000000E+00  0.00000000000E+00  0.12348368662E+03  0.12348368662E+03  0.00000000000E+00 0.  1.
         -4   -1    0    0    0  501 -0.00000000000E+00 -0.00000000000E+00 -0.28053009578E+03  0.28053009578E+03  0.00000000000E+00 0. -1.
         25    2    1    2    0    0 -0.18221310577E+00 -0.14135262614E+03 -0.26703695737E+02  0.19063408047E+03  0.12509063575E+03 0.  0.
          5    1    3    3  502    0 -0.95006960391E+01 -0.11785032389E+03 -0.72070583148E+02  0.13853015347E+03  0.41800000000E+01 0. -1.
         -5    1    3    3    0  502  0.93184829333E+01 -0.23502302258E+02  0.45366887411E+02  0.52103927001E+02  0.41800000000E+01 0. -1.
        -11    1    1    2    0    0  0.15267416328E+02  0.75258479009E+02 -0.13033022205E+02  0.77889616329E+02  0.00000000000E+00 0.  1.
         11    1    1    2    0    0 -0.15085203222E+02  0.66094147134E+02 -0.11730969122E+03  0.13549008560E+03  0.00000000000E+00 0. -1.
</event>
<event>
 7    1  0.2666594E-009  0.1188794E+03  0.7561462E-02  0.1244957E+00
          2   -1    0    0  501    0  0.00000000000E+00  0.00000000000E+00  0.12964148190E+03  0.12964148190E+03  0.00000000000E+00 0. -1.
         -2   -1    0    0    0  501 -0.00000000000E+00 -0.00000000000E+00 -0.19939633914E+03  0.19939633914E+03  0.00000000000E+00 0.  1.
         25    2    1    2    0    0  0.55756803840E+02 -0.32539350001E+01 -0.14509167859E+03  0.19954796825E+03  0.12509351369E+03 0.  0.
          5    1    3    3  502    0  0.23768637388E+02  0.60649584428E+02 -0.64765784772E+02  0.91953246227E+02  0.41800000000E+01 0.  1.
         -5    1    3    3    0  502  0.31988166452E+02 -0.63903519428E+02 -0.80325893822E+02  0.10759472202E+03  0.41800000000E+01 0.  1.
        -11    1    1    2    0    0  0.11975782374E+02  0.26668360384E+02  0.40114304127E+02  0.49636460436E+02  0.00000000000E+00 0. -1.
         11    1    1    2    0    0 -0.67732586214E+02 -0.23414425384E+02  0.35222517225E+02  0.79853392357E+02  0.00000000000E+00 0.  1.
</event>
<event>
 7    1  0.2666594E-009  0.1065156E+03  0.7561462E-02  0.1267162E+00
          3   -1    0    0  501    0  0.00000000000E+00  0.00000000000E+00  0.64879069393E+02  0.64879069393E+02  0.00000000000E+00 0. -1.
         -3   -1    0    0    0  501 -0.00000000000E+00 -0.00000000000E+00 -0.26533106234E+03  0.26533106234E+03  0.00000000000E+00 0.  1.
         25    2    1    2    0    0 -0.56258721858E+02 -0.36183773720E+01 -0.17193689756E+03  0.21997359670E+03  0.12509176657E+03 0.  0.
          5    1    3    3  502    0 -0.70706255005E+02 -0.35562294274E+02 -0.51622334343E+02  0.94585353379E+02  0.41800000000E+01 0. -1.
         -5    1    3    3    0  502  0.14447533147E+02  0.31943916902E+02 -0.12031456321E+03  0.12538824332E+03  0.41800000000E+01 0. -1.
        -11    1    1    2    0    0 -0.20702123122E+02  0.57207950762E+01  0.10520659672E+02  0.23916305693E+02  0.00000000000E+00 0. -1.
         11    1    1    2    0    0  0.76960844980E+02 -0.21024177042E+01 -0.39035755060E+02  0.86320229341E+02  0.00000000000E+00 0.  1.
</event>
<event>
 7    1  0.2666594E-009  0.1814799E+03  0.7561462E-02  0.1166378E+00
         -1   -1    0    0    0  501 -0.00000000000E+00  0.00000000000E+00  0.17920554979E+03  0.17920554979E+03  0.00000000000E+00 0.  1.
          1   -1    0    0  501    0  0.00000000000E+00 -0.00000000000E+00 -0.24195890743E+03  0.24195890743E+03  0.00000000000E+00 0. -1.
         25    2    1    2    0    0 -0.92386881342E+02  0.14693622621E+03 -0.78316322929E+02  0.22784027412E+03  0.12510856748E+03 0.  0.
          5    1    3    3  502    0 -0.21241149931E+02 -0.40806485956E+01  0.23538618212E+02  0.32239371748E+02  0.41800000000E+01 0. -1.
         -5    1    3    3    0  502 -0.71145731412E+02  0.15101687481E+03 -0.10185494114E+03  0.19560090237E+03  0.41800000000E+01 0. -1.
        -11    1    1    2    0    0  0.11198413055E+02 -0.25667152759E+02 -0.29414376615E+02  0.40612962676E+02  0.00000000000E+00 0. -1.
         11    1    1    2    0    0  0.81188468287E+02 -0.12126907345E+03  0.44977341908E+02  0.15271122043E+03  0.00000000000E+00 0.  1.
</event>
<event>
 7    1  0.2666594E-009  0.8220929E+02  0.7561462E-02  0.1322896E+00
          2   -1    0    0  501    0  0.00000000000E+00  0.00000000000E+00  0.20093808674E+03  0.20093808674E+03  0.00000000000E+00 0. -1.
         -2   -1    0    0    0  501 -0.00000000000E+00 -0.00000000000E+00 -0.89475509573E+02  0.89475509573E+02  0.00000000000E+00 0.  1.
         25    2    1    2    0    0  0.55404820179E+02 -0.38090848230E+00  0.22342292105E+01  0.13682814290E+03  0.12508840762E+03 0.  0.
          5    1    3    3  502    0 -0.18300945808E+02 -0.48558607028E+01 -0.45049705324E+02  0.49045411105E+02  0.41800000000E+01 0.  1.
         -5    1    3    3    0  502  0.73705765987E+02  0.44749522205E+01  0.47283934535E+02  0.87782731800E+02  0.41800000000E+01 0.  1.
        -11    1    1    2    0    0 -0.82055631837E+01  0.18714120549E+02 -0.10944731211E+02  0.23180524506E+02  0.00000000000E+00 0.  1.
         11    1    1    2    0    0 -0.47199256995E+02 -0.18333212066E+02  0.12017307917E+03  0.13040492890E+03  0.00000000000E+00 0. -1.
</event>
<event>
 7    1  0.2666594E-009  0.1212324E+03  0.7561462E-02  0.1241078E+00
         -1   -1    0    0    0  501 -0.00000000000E+00  0.00000000000E+00  0.37397453475E+03  0.37397453475E+03  0.00000000000E+00 0.  1.
          1   -1    0    0  501    0  0.00000000000E+00 -0.00000000000E+00 -0.65307374712E+02  0.65307374712E+02  0.00000000000E+00 0. -1.
         25    2    1    2    0    0 -0.24867540253E+02  0.83256078932E+02  0.26811722948E+03  0.30835757073E+03  0.12509026121E+03 0.  0.
          5    1    3    3  502    0  0.20115711797E+02 -0.33452535499E+01 -0.22022426283E+01  0.20932148839E+02  0.41800000000E+01 0.  1.
         -5    1    3    3    0  502 -0.44983252050E+02  0.86601332482E+02  0.27031947210E+03  0.28742542190E+03  0.41800000000E+01 0.  1.
        -11    1    1    2    0    0 -0.11751618790E+02 -0.86420986738E+02  0.23024382311E+02  0.90204266383E+02  0.00000000000E+00 0.  1.
         11    1    1    2    0    0  0.36619159043E+02  0.31649078058E+01  0.17525548254E+02  0.40720072348E+02  0.00000000000E+00 0. -1.
</event>
<event>
 7    1  0.2666594E-009  0.1893425E+03  0.7561462E-02  0.1159056E+00
          2   -1    0    0  501    0  0.00000000000E+00  0.00000000000E+00  0.64297131333E+02  0.64297131333E+02  0.00000000000E+00 0. -1.
         -2   -1    0    0    0  501 -0.00000000000E+00 -0.00000000000E+00 -0.78687349962E+03  0.78687349962E+03  0.00000000000E+00 0.  1.
         25    2    1    2    0    0  0.15041833250E+02 -0.17525727437E+03 -0.54280557474E+03  0.58414549397E+03  0.12508675865E+03 0.  0.
          5    1    3    3  502    0  0.48578319996E+02 -0.40442966968E+02 -0.27750346923E+03  0.28464211667E+03  0.41800000000E+01 0. -1.
         -5    1    3    3    0  502 -0.33536486747E+02 -0.13481430740E+03 -0.26530210552E+03  0.29950337730E+03  0.41800000000E+01 0. -1.
        -11    1    1    2    0    0 -0.73204096016E+01  0.14282474503E+03 -0.18440915060E+03  0.23336501669E+03  0.00000000000E+00 0.  1.
         11    1    1    2    0    0 -0.77214236481E+01  0.32432529335E+02  0.46383570509E+01  0.33660120296E+02  0.00000000000E+00 0. -1.
</event>
<event>
 7    1  0.2725230E-009  0.1796430E+03  0.7561462E-02  0.1168149E+00
         -1   -1    0    0    0  501 -0.00000000000E+00  0.00000000000E+00  0.22378486431E+02  0.22378486431E+02  0.00000000000E+00 0.  1.
          1   -1    0    0  501    0  0.00000000000E+00 -0.00000000000E+00 -0.18215461411E+04  0.18215461411E+04  0.00000000000E+00 0. -1.
         25    2    1    2    0    0 -0.13881451462E+03  0.40165999654E+02 -0.13527298080E+04  0.13661654992E+04  0.12508981079E+03 0.  0.
          5    1    3    3  502    0 -0.15230767243E+03  0.60928768210E+02 -0.10969451973E+04  0.11091511079E+04  0.41800000000E+01 0. -1.
         -5    1    3    3    0  502  0.13493157812E+02 -0.20762768556E+02 -0.25578461066E+03  0.25701439126E+03  0.41800000000E+01 0. -1.
        -11    1    1    2    0    0  0.92455994710E+02  0.19529134359E+02 -0.25434887919E+03  0.27133530989E+03  0.00000000000E+00 0.  1.
         11    1    1    2    0    0  0.46358519912E+02 -0.59695134013E+02 -0.19208896753E+03  0.20642381849E+03  0.00000000000E+00 0. -1.
</event>
<event>
 7    1  0.2666594E-009  0.1187033E+03  0.7561462E-02  0.1245252E+00
          1   -1    0    0  501    0  0.00000000000E+00  0.00000000000E+00  0.12323934641E+04  0.12323934641E+04  0.00000000000E+00 0. -1.
         -1   -1    0    0    0  501 -0.00000000000E+00 -0.00000000000E+00 -0.17146423955E+02  0.17146423955E+02  0.00000000000E+00 0.  1.
         25    2    1    2    0    0  0.25651378284E+02 -0.70503918692E+02  0.92751349153E+03  0.93891294482E+03  0.12508974864E+03 0.  0.
          5    1    3    3  502    0  0.54306799653E+02  0.55583363811E+01  0.55042308717E+03  0.55313937745E+03  0.41800000000E+01 0. -1.
         -5    1    3    3    0  502 -0.28655421369E+02 -0.76062255074E+02  0.37709040436E+03  0.38577356737E+03  0.41800000000E+01 0. -1.
        -11    1    1    2    0    0  0.11988926300E+02  0.61376737535E+02  0.92944394994E+02  0.11202454564E+03  0.00000000000E+00 0.  1.
         11    1    1    2    0    0 -0.37640304584E+02  0.91271811575E+01  0.19478915362E+03  0.19860239760E+03  0.00000000000E+00 0. -1.
</event>
<event>
 7    1  0.2666594E-009  0.8477745E+02  0.7561462E-02  0.1316016E+00
         -2   -1    0    0    0  501 -0.00000000000E+00  0.00000000000E+00  0.26858214311E+02  0.26858214311E+02  0.00000000000E+00 0.  1.
          2   -1    0    0  501    0  0.00000000000E+00 -0.00000000000E+00 -0.72074612022E+03  0.72074612022E+03  0.00000000000E+00 0. -1.
         25    2    1    2    0    0  0.54478901539E+01  0.52111820643E+02 -0.19359604524E+03  0.23637400542E+03  0.12509164780E+03 0.  0.
          5    1    3    3  502    0  0.20657685186E+02  0.39057147410E+02 -0.20712920733E+03  0.21183054938E+03  0.41800000000E+01 0. -1.
         -5    1    3    3    0  502 -0.15209795032E+02  0.13054673233E+02  0.13533162094E+02  0.24543456041E+02  0.41800000000E+01 0. -1.
        -11    1    1    2    0    0 -0.30777296338E+02  0.14065877683E+02 -0.18556804926E+03  0.18862818398E+03  0.00000000000E+00 0.  1.
         11    1    1    2    0    0  0.25329406184E+02 -0.66177698326E+02 -0.31472381141E+03  0.32260214513E+03  0.00000000000E+00 0. -1.
</event>
<event>
 7    1  0.2666594E-009  0.1376443E+03  0.7561462E-02  0.1216534E+00
          2   -1    0    0  501    0  0.00000000000E+00  0.00000000000E+00  0.36184366406E+03  0.36184366406E+03  0.00000000000E+00 0. -1.
         -2   -1    0    0    0  501 -0.00000000000E+00 -0.00000000000E+00 -0.75162121768E+02  0.75162121768E+02  0.00000000000E+00 0.  1.
         25    2    1    2    0    0 -0.51961966281E+02  0.97278235684E+02  0.77539455504E+02  0.18391087046E+03  0.12509092708E+03 0.  0.
          5    1    3    3  502    0 -0.88335543214E+02  0.40628625690E+02  0.31683499124E+02  0.10234827765E+03  0.41800000000E+01 0.  1.
         -5    1    3    3    0  502  0.36373576933E+02  0.56649609994E+02  0.45855956380E+02  0.81562592816E+02  0.41800000000E+01 0.  1.
        -11    1    1    2    0    0  0.20982917742E+02 -0.32085129292E+02  0.16295309517E+03  0.16740205967E+03  0.00000000000E+00 0. -1.
         11    1    1    2    0    0  0.30979048539E+02 -0.65193106392E+02  0.46188991621E+02  0.85692855690E+02  0.00000000000E+00 0.  1.
</event>
<event>
 7    1  0.2666594E-009  0.7643361E+02  0.7561462E-02  0.1339488E+00
          2   -1    0    0  501    0  0.00000000000E+00  0.00000000000E+00  0.24203306597E+03  0.24203306597E+03  0.00000000000E+00 0.  1.
         -2   -1    0    0    0  501 -0.00000000000E+00 -0.00000000000E+00 -0.52018660421E+02  0.52018660421E+02  0.00000000000E+00 0. -1.
         25    2    1    2    0    0  0.14051688481E+02  0.26918921690E+02  0.11057516413E+03  0.16969420766E+03  0.12508868413E+03 0.  0.
          5    1    3    3  502    0 -0.25951510693E+02  0.27501674950E+02 -0.12632894834E+02  0.40085975904E+02  0.41800000000E+01 0.  1.
         -5    1    3    3    0  502  0.40003199174E+02 -0.58275326075E+00  0.12320805896E+03  0.12960823175E+03  0.41800000000E+01 0.  1.
        -11    1    1    2    0    0 -0.41750109869E+02 -0.13993264937E+02  0.82625326628E+02  0.93625999263E+02  0.00000000000E+00 0.  1.
         11    1    1    2    0    0  0.27698421388E+02 -0.12925656753E+02 -0.31860852068E+01  0.30731519468E+02  0.00000000000E+00 0. -1.
</event>
<event>
 7    1  0.2666594E-009  0.1008708E+03  0.7561462E-02  0.1278475E+00
         -1   -1    0    0    0  501 -0.00000000000E+00  0.00000000000E+00  0.21040882628E+02  0.21040882628E+02  0.00000000000E+00 0.  1.
          1   -1    0    0  501    0  0.00000000000E+00 -0.00000000000E+00 -0.65251900727E+03  0.65251900727E+03  0.00000000000E+00 0. -1.
         25    2    1    2    0    0  0.37263477744E+02 -0.11789658112E+02 -0.29315768496E+03  0.32111730867E+03  0.12508930758E+03 0.  0.
          5    1    3    3  502    0 -0.33992498605E+02  0.60713623896E+01 -0.24446030130E+02  0.42513905863E+02  0.41800000000E+01 0.  1.
         -5    1    3    3    0  502  0.71255976349E+02 -0.17861020502E+02 -0.26871165483E+03  0.27860340281E+03  0.41800000000E+01 0.  1.
        -11    1    1    2    0    0  0.23308650412E+02  0.21884504376E+02 -0.66697405882E+02  0.73964644711E+02  0.00000000000E+00 0.  1.
         11    1    1    2    0    0 -0.60572128157E+02 -0.10094846264E+02 -0.27162303380E+03  0.27847793651E+03  0.00000000000E+00 0. -1.
</event>
<event>
 7    1  0.2666594E-009  0.9326425E+02  0.7561462E-02  0.1295134E+00
          2   -1    0    0  501    0  0.00000000000E+00  0.00000000000E+00  0.14328708534E+03  0.14328708534E+03  0.00000000000E+00 0. -1.
         -2   -1    0    0    0  501 -0.00000000000E+00 -0.00000000000E+00 -0.92442189729E+02  0.92442189729E+02  0.00000000000E+00 0.  1.
         25    2    1    2    0    0  0.92138379197E+01  0.26366597627E+02  0.55695378190E+02  0.13974668977E+03  0.12508824832E+03 0.  0.
          5    1    3    3  502    0  0.25811433264E+02 -0.46255501845E+02  0.28783217769E+02  0.60429691073E+02  0.41800000000E+01 0.  1.
         -5    1    3    3    0  502 -0.16597595344E+02  0.72622099472E+02  0.26912160421E+02  0.79316998692E+02  0.41800000000E+01 0.  1.
        -11    1    1    2    0    0 -0.30635649716E+02 -0.19375412479E+02  0.34881303724E+02  0.50305615907E+02  0.00000000000E+00 0. -1.
         11    1    1    2    0    0  0.21421811797E+02 -0.69911851480E+01 -0.39731786304E+02  0.45676969397E+02  0.00000000000E+00 0.  1.
</event>
<event>
 7    1  0.2666594E-009  0.1152635E+03  0.7561462E-02  0.1251122E+00
          1   -1    0    0  501    0  0.00000000000E+00  0.00000000000E+00  0.17656314071E+03  0.17656314071E+03  0.00000000000E+00 0. -1.
         -1   -1    0    0    0  501 -0.00000000000E+00 -0.00000000000E+00 -0.90905285447E+02  0.90905285447E+02  0.00000000000E+00 0.  1.
         25    2    1    2    0    0 -0.56511107458E+02 -0.43342795558E+01  0.12586244378E+02  0.13790960487E+03  0.12509338241E+03 0.  0.
          5    1    3    3  502    0  0.31784523109E+02  0.14777198877E+02  0.29379682973E+02  0.45926677296E+02  0.41800000000E+01 0. -1.
         -5    1    3    3    0  502 -0.88295630566E+02 -0.19111478433E+02 -0.16793438595E+02  0.91982927573E+02  0.41800000000E+01 0. -1.
        -11    1    1    2    0    0  0.50681230710E+02 -0.37187456089E+02  0.56343139657E+02  0.84415895559E+02  0.00000000000E+00 0.  1.
         11    1    1    2    0    0  0.58298767478E+01  0.41521735645E+02  0.16728471230E+02  0.45142925731E+02  0.00000000000E+00 0. -1.
</event>
<event>
 7    1  0.2666594E-009  0.1099437E+03  0.7561462E-02  0.1260674E+00
          1   -1    0    0  501    0  0.00000000000E+00  0.00000000000E+00  0.25983642924E+03  0.25983642924E+03  0.00000000000E+00 0. -1.
         -1   -1    0    0    0  501 -0.00000000000E+00 -0.00000000000E+00 -0.80512312132E+02  0.80512312132E+02  0.00000000000E+00 0.  1.
         25    2    1    2    0    0 -0.78300349604E+02  0.53089725324E+02  0.76179893079E+02  0.17435842614E+03  0.12509205000E+03 0.  0.
          5    1    3    3  502    0 -0.18795640499E+02  0.16502918170E+02 -0.34859756758E+02  0.43107974333E+02  0.41800000000E+01 0. -1.
         -5    1    3    3    0  502 -0.59504709105E+02  0.36586807154E+02  0.11103964984E+03  0.13125045181E+03  0.41800000000E+01 0. -1.
        -11    1    1    2    0    0  0.45819902283E+02 -0.73192859730E+02  0.47668241166E+02  0.98635284642E+02  0.00000000000E+00 0.  1.
         11    1    1    2    0    0  0.32480447321E+02  0.20103134406E+02  0.55475982860E+02  0.67355030587E+02  0.00000000000E+00 0. -1.
</event>
<event>
 7    1  0.2666594E-009  0.9155037E+02  0.7561462E-02  0.1299140E+00
          1   -1    0    0  501    0  0.00000000000E+00  0.00000000000E+00  0.41588437524E+03  0.41588437524E+03  0.00000000000E+00 0. -1.
         -1   -1    0    0    0  501 -0.00000000000E+00 -0.00000000000E+00 -0.31356491830E+02  0.31356491830E+02  0.00000000000E+00 0.  1.
         25    2    1    2    0    0  0.32741453422E+02  0.19005762904E+01  0.23841012140E+03  0.27122525241E+03  0.12509251217E+03 0.  0.
          5    1    3    3  502    0  0.51708127142E+02  0.46302309032E+02  0.82178661863E+02  0.10764961263E+03  0.41800000000E+01 0. -1.
         -5    1    3    3    0  502 -0.18966673720E+02 -0.44401732742E+02  0.15623145953E+03  0.16357563978E+03  0.41800000000E+01 0. -1.
        -11    1    1    2    0    0 -0.12967457178E+02 -0.28876831158E+02  0.13801787219E+03  0.14160141018E+03  0.00000000000E+00 0. -1.
         11    1    1    2    0    0 -0.19773996244E+02  0.26976254867E+02  0.80998898271E+01  0.34414204471E+02  0.00000000000E+00 0.  1.
</event>
<event>
 7    1  0.2666594E-009  0.1011127E+03  0.7561462E-02  0.1277973E+00
          4   -1    0    0  501    0  0.00000000000E+00  0.00000000000E+00  0.18841048288E+02  0.18841048288E+02  0.00000000000E+00 0. -1.
         -4   -1    0    0    0  501 -0.00000000000E+00 -0.00000000000E+00 -0.13632671968E+04  0.13632671968E+04  0.00000000000E+00 0.  1.
         25    2    1    2    0    0  0.72606374695E+02 -0.54659959890E+02 -0.10378142004E+04  0.10492689075E+04  0.12509008352E+03 0.  0.
          5    1    3    3  502    0  0.15350320937E+02  0.10730855511E+02 -0.70519766670E+03  0.70545871965E+03  0.41800000000E+01 0.  1.
         -5    1    3    3    0  502  0.57256053758E+02 -0.65390815401E+02 -0.33261653367E+03  0.34381018789E+03  0.41800000000E+01 0.  1.
        -11    1    1    2    0    0 -0.41003699981E+02  0.49036508734E+02 -0.28948240716E+03  0.29645564029E+03  0.00000000000E+00 0.  1.
         11    1    1    2    0    0 -0.31602674714E+02  0.56234511564E+01 -0.17129540989E+02  0.36383697262E+02  0.00000000000E+00 0. -1.
</event>
<event>
 7    1  0.2666594E-009  0.1157482E+03  0.7561462E-02  0.1250281E+00
          1   -1    0    0  501    0  0.00000000000E+00  0.00000000000E+00  0.52545458821E+03  0.52545458821E+03  0.00000000000E+00 0. -1.
         -1   -1    0    0    0  501 -0.00000000000E+00 -0.00000000000E+00 -0.44481004648E+02  0.44481004648E+02  0.00000000000E+00 0.  1.
         25    2    1    2    0    0  0.60761683176E+02  0.91932168936E+02  0.27850159846E+03  0.32458365920E+03  0.12509158905E+03 0.  0.
          5    1    3    3  502    0  0.63771792804E+02  0.64229117749E+02  0.28199136080E+03  0.29619051485E+03  0.41800000000E+01 0.  1.
         -5    1    3    3    0  502 -0.30101096276E+01  0.27703051186E+02 -0.34897623410E+01  0.28393144352E+02  0.41800000000E+01 0.  1.
        -11    1    1    2    0    0 -0.22877251968E+02 -0.56016417573E+02  0.34931957446E+02  0.69867369683E+02  0.00000000000E+00 0. -1.
         11    1    1    2    0    0 -0.37884431208E+02 -0.35915751362E+02  0.16754002766E+03  0.17548456397E+03  0.00000000000E+00 0.  1.
</event>
<event>
 7    1  0.2666594E-009  0.1045291E+03  0.7561462E-02  0.1271050E+00
         -4   -1    0    0    0  501 -0.00000000000E+00  0.00000000000E+00  0.20713939447E+03  0.20713939447E+03  0.00000000000E+00 0.  1.
          4   -1    0    0  501    0  0.00000000000E+00 -0.00000000000E+00 -0.72071517958E+02  0.72071517958E+02  0.00000000000E+00 0. -1.
         25    2    1    2    0    0 -0.32902344071E+02 -0.33094144299E+02  0.11136253585E+03  0.17386354305E+03  0.12509648509E+03 0.  0.
          5    1    3    3  502    0 -0.78013281814E+01  0.34513217313E+02  0.92615741697E+02  0.99232912387E+02  0.41800000000E+01 0.  1.
         -5    1    3    3    0  502 -0.25101015889E+02 -0.67607361612E+02  0.18746794149E+02  0.74630630666E+02  0.41800000000E+01 0.  1.
        -11    1    1    2    0    0  0.35338008294E+02 -0.24846530259E+02  0.18914193306E+02  0.47157943175E+02  0.00000000000E+00 0.  1.
         11    1    1    2    0    0 -0.24356642231E+01  0.57940674558E+02  0.47911473611E+01  0.58189426200E+02  0.00000000000E+00 0. -1.
</event>
<event>
 7    1  0.2666594E-009  0.1172646E+03  0.7561462E-02  0.1247679E+00
         -1   -1    0    0    0  501 -0.00000000000E+00  0.00000000000E+00  0.11702995212E+03  0.11702995212E+03  0.00000000000E+00 0.  1.
          1   -1    0    0  501    0  0.00000000000E+00 -0.00000000000E+00 -0.19655396122E+03  0.19655396122E+03  0.00000000000E+00 0. -1.
         25    2    1    2    0    0  0.87694181604E+02  0.30060718968E+01 -0.10355234298E+03  0.18458077819E+03  0.12509064708E+03 0.  0.
          5    1    3    3  502    0  0.96954314728E+02  0.16325691708E+02 -0.12389917033E+03  0.15822497958E+03  0.41800000000E+01 0. -1.
         -5    1    3    3    0  502 -0.92601331242E+01 -0.13319619812E+02  0.20346827349E+02  0.26355798614E+02  0.41800000000E+01 0. -1.
        -11    1    1    2    0    0 -0.46800224239E+02 -0.41985923489E+02  0.34239762907E+02  0.71592179210E+02  0.00000000000E+00 0.  1.
         11    1    1    2    0    0 -0.40893957365E+02  0.38979851592E+02 -0.10211429021E+02  0.57410955938E+02  0.00000000000E+00 0. -1.
</event>
<event>
 7    1  0.2666594E-009  0.1210012E+03  0.7561462E-02  0.1241455E+00
         -2   -1    0    0    0  501 -0.00000000000E+00  0.00000000000E+00  0.42037165086E+02  0.42037165086E+02  0.00000000000E+00 0.  1.
          2   -1    0    0  501    0  0.00000000000E+00 -0.00000000000E+00 -0.55566555974E+03  0.55566555974E+03  0.00000000000E+00 0. -1.
         25    2    1    2    0    0 -0.98141354684E+02  0.28259520052E+02 -0.22955347353E+03  0.28066486325E+03  0.12509053634E+03 0.  0.
          5    1    3    3  502    0 -0.42405169258E+02  0.75455779586E+01  0.23173867976E+00  0.43274244411E+02  0.41800000000E+01 0.  1.
         -5    1    3    3    0  502 -0.55736185426E+02  0.20713942093E+02 -0.22978521221E+03  0.23739061884E+03  0.41800000000E+01 0.  1.
        -11    1    1    2    0    0  0.11129463943E+03 -0.38120818217E+01 -0.20598132858E+03  0.23415664939E+03  0.00000000000E+00 0. -1.
         11    1    1    2    0    0 -0.13153284744E+02 -0.24447438230E+02 -0.78093592546E+02  0.82881212179E+02  0.00000000000E+00 0.  1.
</event>
<event>
 7    1  0.2666594E-009  0.9602507E+02  0.7561462E-02  0.1288884E+00
         -2   -1    0    0    0  501 -0.00000000000E+00  0.00000000000E+00  0.49662143798E+02  0.49662143798E+02  0.00000000000E+00 0.  1.
          2   -1    0    0  501    0  0.00000000000E+00 -0.00000000000E+00 -0.28066702033E+03  0.28066702033E+03  0.00000000000E+00 0. -1.
         25    2    1    2    0    0  0.31271884178E+02 -0.24643780351E+02 -0.97675480449E+02  0.16362616019E+03  0.12509106350E+03 0.  0.
          5    1    3    3  502    0  0.33408495347E+02 -0.63909231965E+02 -0.10074076362E+03  0.12396245942E+03  0.41800000000E+01 0. -1.
         -5    1    3    3    0  502 -0.21366111684E+01  0.39265451614E+02  0.30652831694E+01  0.39663700769E+02  0.41800000000E+01 0. -1.
        -11    1    1    2    0    0 -0.16471322471E+02  0.49041335027E+02 -0.12747515522E+03  0.13757278875E+03  0.00000000000E+00 0. -1.
         11    1    1    2    0    0 -0.14800561707E+02 -0.24397554676E+02 -0.58542408636E+01  0.29130215191E+02  0.00000000000E+00 0.  1.
</event>
<event>
 7    1  0.2666594E-009  0.9454403E+02  0.7561462E-02  0.1292206E+00
          2   -1    0    0  501    0  0.00000000000E+00  0.00000000000E+00  0.20948269813E+03  0.20948269813E+03  0.00000000000E+00 0. -1.
         -2   -1    0    0    0  501 -0.00000000000E+00 -0.00000000000E+00 -0.86454867958E+02  0.86454867958E+02  0.00000000000E+00 0.  1.
         25    2    1    2    0    0  0.55046676076E+02 -0.46585315471E+02  0.37419479544E+02  0.14914086126E+03  0.12506978405E+03 0.  0.
          5    1    3    3  502    0  0.52716936733E+02 -0.13772988591E+02  0.78936894829E+02  0.96006647678E+02  0.41800000000E+01 0. -1.
         -5    1    3    3    0  502  0.23297393437E+01 -0.32812326881E+02 -0.41517415285E+02  0.53134213579E+02  0.41800000000E+01 0. -1.
        -11    1    1    2    0    0 -0.64893564176E+02  0.12868994019E+02  0.14855255317E+02  0.67804603746E+02  0.00000000000E+00 0.  1.
         11    1    1    2    0    0  0.98468881001E+01  0.33716321452E+02  0.70753095310E+02  0.78992101083E+02  0.00000000000E+00 0. -1.
</event>
<event>
 7    1  0.2666594E-009  0.1534984E+03  0.7561462E-02  0.1196239E+00
          1   -1    0    0  501    0  0.00000000000E+00  0.00000000000E+00  0.78954674938E+02  0.78954674938E+02  0.00000000000E+00 0. -1.
         -1   -1    0    0    0  501 -0.00000000000E+00 -0.00000000000E+00 -0.42557428644E+03  0.42557428644E+03  0.00000000000E+00 0.  1.
         25    2    1    2    0    0 -0.80259309044E+02 -0.83926582587E+02 -0.57381495359E+02  0.18006881412E+03  0.12508762471E+03 0.  0.
          5    1    3    3  502    0  0.28526065012E+02 -0.35033279164E+02 -0.37962480661E+02  0.59158172487E+02  0.41800000000E+01 0. -1.
         -5    1    3    3    0  502 -0.10878537406E+03 -0.48893303423E+02 -0.19419014697E+02  0.12091064163E+03  0.41800000000E+01 0. -1.
        -11    1    1    2    0    0  0.91633938054E+02  0.45692336796E+02 -0.24109792372E+03  0.26194040748E+03  0.00000000000E+00 0. -1.
         11    1    1    2    0    0 -0.11374629010E+02  0.38234245791E+02 -0.48140192422E+02  0.62519739784E+02  0.00000000000E+00 0.  1.
</event>
<event>
 7    1  0.2666594E-009  0.1051871E+03  0.7561462E-02  0.1269751E+00
         -2   -1    0    0    0  501 -0.00000000000E+00  0.00000000000E+00  0.13045650109E+03  0.13045650109E+03  0.00000000000E+00 0.  1.
          2   -1    0    0  501    0  0.00000000000E+00 -0.00000000000E+00 -0.13755896779E+03  0.13755896779E+03  0.00000000000E+00 0. -1.
         25    2    1    2    0    0  0.47107576150E+02 -0.48894857494E+02  0.29483484700E+02  0.14535149865E+03  0.12509177219E+03 0.  0.
          5    1    3    3  502    0  0.84065003796E+02 -0.20774541602E+02  0.43044347449E+02  0.96792534265E+02  0.41800000000E+01 0.  1.
         -5    1    3    3    0  502 -0.36957427646E+02 -0.28120315892E+02 -0.13560862750E+02  0.48558964389E+02  0.41800000000E+01 0.  1.
        -11    1    1    2    0    0 -0.52979277629E+02  0.39954119517E+02  0.16609883864E+02  0.68403390021E+02  0.00000000000E+00 0.  1.
         11    1    1    2    0    0  0.58717014784E+01  0.89407379765E+01 -0.53195835265E+02  0.54260580197E+02  0.00000000000E+00 0. -1.
</event>
<event>
 7    1  0.2666594E-009  0.1774852E+03  0.7561462E-02  0.1170259E+00
          2   -1    0    0  501    0  0.00000000000E+00  0.00000000000E+00  0.53089228215E+03  0.53089228215E+03  0.00000000000E+00 0. -1.
         -2   -1    0    0    0  501 -0.00000000000E+00 -0.00000000000E+00 -0.66582841711E+02  0.66582841711E+02  0.00000000000E+00 0.  1.
         25    2    1    2    0    0  0.10083576814E+03 -0.10349581794E+03  0.30061727703E+03  0.35622679431E+03  0.12509014857E+03 0.  0.
          5    1    3    3  502    0  0.11562202324E+03 -0.52105564373E+02  0.25873200915E+03  0.28817211360E+03  0.41800000000E+01 0. -1.
         -5    1    3    3    0  502 -0.14786255101E+02 -0.51390253571E+02  0.41885267881E+02  0.68054680716E+02  0.41800000000E+01 0. -1.
        -11    1    1    2    0    0  0.18724128242E+02  0.45979228040E+01  0.33718085895E+02  0.38841256274E+02  0.00000000000E+00 0.  1.
         11    1    1    2    0    0 -0.11955989638E+03  0.98897895139E+02  0.12997407752E+03  0.20240707328E+03  0.00000000000E+00 0. -1.
</event>
<event>
 7    1  0.2666594E-009  0.9784439E+02  0.7561462E-02  0.1284895E+00
         -2   -1    0    0    0  501 -0.00000000000E+00  0.00000000000E+00  0.19691101906E+03  0.19691101906E+03  0.00000000000E+00 0.  1.
          2   -1    0    0  501    0  0.00000000000E+00 -0.00000000000E+00 -0.10462241456E+03  0.10462241456E+03  0.00000000000E+00 0. -1.
         25    2    1    2    0    0  0.89588530740E+02  0.41548948786E+01  0.26097133323E+02  0.15610861461E+03  0.12508185799E+03 0.  0.
          5    1    3    3  502    0  0.17937552887E+02 -0.22442121443E+02  0.64308619901E+02  0.70558313557E+02  0.41800000000E+01 0.  1.
         -5    1    3    3    0  502  0.71650977853E+02  0.26597016321E+02 -0.38211486578E+02  0.85550301057E+02  0.41800000000E+01 0.  1.
        -11    1    1    2    0    0 -0.35734224683E+02  0.26458510722E+01  0.81496912413E+02  0.89026299903E+02  0.00000000000E+00 0.  1.
         11    1    1    2    0    0 -0.53854306056E+02 -0.68007459508E+01 -0.15305441237E+02  0.56398519109E+02  0.00000000000E+00 0. -1.
</event>
<event>
 7    1  0.2666594E-009  0.1092440E+03  0.7561462E-02  0.1261976E+00
          2   -1    0    0  501    0  0.00000000000E+00  0.00000000000E+00  0.25583170844E+03  0.25583170844E+03  0.00000000000E+00 0.  1.
         -2   -1    0    0    0  501 -0.00000000000E+00 -0.00000000000E+00 -0.89295063264E+02  0.89295063264E+02  0.00000000000E+00 0. -1.
         25    2    1    2    0    0 -0.60135576997E+02  0.61626974666E+02  0.14172824791E+02  0.15252033452E+03  0.12508961529E+03 0.  0.
          5    1    3    3  502    0 -0.21234180337E+02 -0.13292041317E+02  0.53557554446E+02  0.59274385827E+02  0.41800000000E+01 0.  1.
         -5    1    3    3    0  502 -0.38901396660E+02  0.74919015983E+02 -0.39384729655E+02  0.93245948694E+02  0.41800000000E+01 0.  1.
        -11    1    1    2    0    0 -0.97786396481E+01  0.58580238346E+01  0.50729214582E+02  0.51994148216E+02  0.00000000000E+00 0.  1.
         11    1    1    2    0    0  0.69914216645E+02 -0.67484998501E+02  0.10163460580E+03  0.14061228897E+03  0.00000000000E+00 0. -1.
</event>
<event>
 7    1  0.2666594E-009  0.1102224E+03  0.7561462E-02  0.1260159E+00
          3   -1    0    0  501    0  0.00000000000E+00  0.00000000000E+00  0.20748272928E+02  0.20748272928E+02  0.00000000000E+00 0. -1.
         -3   -1    0    0    0  501 -0.00000000000E+00 -0.00000000000E+00 -0.92271509819E+03  0.92271509819E+03  0.00000000000E+00 0.  1.
         25    2    1    2    0    0  0.38382740423E+02  0.57803077700E+02 -0.66164234560E+03  0.67692907568E+03  0.12509176414E+03 0.  0.
          5    1    3    3  502    0 -0.28183460178E+02  0.51702558434E+02 -0.47459342715E+03  0.47825082903E+03  0.41800000000E+01 0.  1.
         -5    1    3    3    0  502  0.66566200601E+02  0.61005192655E+01 -0.18704891845E+03  0.19867824665E+03  0.41800000000E+01 0.  1.
        -11    1    1    2    0    0 -0.36266952270E+02  0.32574999455E+00 -0.26443907610E+02  0.44885166700E+02  0.00000000000E+00 0. -1.
         11    1    1    2    0    0 -0.21157881527E+01 -0.58128827695E+02 -0.21388057206E+03  0.22164912874E+03  0.00000000000E+00 0.  1.
</event>
<event>
 7    1  0.2666594E-009  0.1099918E+03  0.7561462E-02  0.1260585E+00
          1   -1    0    0  501    0  0.00000000000E+00  0.00000000000E+00  0.32418732524E+03  0.32418732524E+03  0.00000000000E+00 0. -1.
         -1   -1    0    0    0  501 -0.00000000000E+00 -0.00000000000E+00 -0.39454681853E+02  0.39454681853E+02  0.00000000000E+00 0.  1.
         25    2    1    2    0    0  0.32055168642E+02  0.55924507560E+01  0.16717755669E+03  0.21131768342E+03  0.12509204021E+03 0.  0.
          5    1    3    3  502    0 -0.48152527216E+02 -0.21833881025E+01  0.57327599725E+02  0.75015726025E+02  0.41800000000E+01 0. -1.
         -5    1    3    3    0  502  0.80207695859E+02  0.77758388585E+01  0.10984995696E+03  0.13630195740E+03  0.41800000000E+01 0. -1.
        -11    1    1    2    0    0  0.10966301690E+02  0.31968833421E+02  0.71030722104E+02  0.78661487182E+02  0.00000000000E+00 0.  1.
         11    1    1    2    0    0 -0.43021470332E+02 -0.37561284177E+02  0.46524364589E+02  0.73662836485E+02  0.00000000000E+00 0. -1.
</event>
<event>
 7    1  0.2666594E-009  0.1041179E+03  0.7561462E-02  0.1271867E+00
         -1   -1    0    0    0  501 -0.00000000000E+00  0.00000000000E+00  0.21149243653E+03  0.21149243653E+03  0.00000000000E+00 0.  1.
          1   -1    0    0  501    0  0.00000000000E+00 -0.00000000000E+00 -0.67094456357E+02  0.67094456357E+02  0.00000000000E+00 0. -1.
         25    2    1    2    0    0  0.98380108362E+01 -0.40804739192E+02  0.57875658730E+02  0.14407824729E+03  0.12508851375E+03 0.  0.
          5    1    3    3  502    0 -0.46249440179E+02 -0.16165163225E+02 -0.12445527117E+02  0.50721659714E+02  0.41800000000E+01 0.  1.
         -5    1    3    3    0  502  0.56087451015E+02 -0.24639575967E+02  0.70321185847E+02  0.93356587578E+02  0.41800000000E+01 0.  1.
        -11    1    1    2    0    0 -0.49282852804E+02  0.22512386987E+02  0.26290605080E+02  0.60222944662E+02  0.00000000000E+00 0. -1.
         11    1    1    2    0    0  0.39444841967E+02  0.18292352205E+02  0.60231716358E+02  0.74285700928E+02  0.00000000000E+00 0.  1.
</event>
<event>
 7    1  0.2666594E-009  0.1024109E+03  0.7561462E-02  0.1275306E+00
         -4   -1    0    0    0  501 -0.00000000000E+00  0.00000000000E+00  0.29186945273E+03  0.29186945273E+03  0.00000000000E+00 0.  1.
          4   -1    0    0  501    0  0.00000000000E+00 -0.00000000000E+00 -0.70182887084E+02  0.70182887084E+02  0.00000000000E+00 0. -1.
         25    2    1    2    0    0 -0.66922629804E+02 -0.10909111869E+02  0.20108417607E+03  0.24633329768E+03  0.12509036965E+03 0.  0.
          5    1    3    3  502    0 -0.77831101894E+02 -0.75355558072E+00  0.21299012149E+03  0.22680500991E+03  0.41800000000E+01 0. -1.
         -5    1    3    3    0  502  0.10908472090E+02 -0.10155556288E+02 -0.11905945421E+02  0.19528287770E+02  0.41800000000E+01 0. -1.
        -11    1    1    2    0    0 -0.18399234855E+02 -0.13303520085E+02  0.14238382749E+02  0.26800131216E+02  0.00000000000E+00 0.  1.
         11    1    1    2    0    0  0.85321864659E+02  0.24212631954E+02  0.63640068228E+01  0.88918910912E+02  0.00000000000E+00 0. -1.
</event>
<event>
 7    1  0.2666594E-009  0.9887396E+02  0.7561462E-02  0.1282682E+00
         -1   -1    0    0    0  501 -0.00000000000E+00  0.00000000000E+00  0.68629317100E+02  0.68629317100E+02  0.00000000000E+00 0.  1.
          1   -1    0    0  501    0  0.00000000000E+00 -0.00000000000E+00 -0.25880520557E+03  0.25880520557E+03  0.00000000000E+00 0. -1.
         25    2    1    2    0    0  0.76876540161E+02 -0.87424370644E+01 -0.10917455235E+03  0.18317600300E+03  0.12509169660E+03 0.  0.
          5    1    3    3  502    0  0.68600160761E+01 -0.22430901547E+01 -0.11235349817E+03  0.11266264787E+03  0.41800000000E+01 0. -1.
         -5    1    3    3    0  502  0.70016524084E+02 -0.64993469097E+01  0.31789458136E+01  0.70513355129E+02  0.41800000000E+01 0. -1.
        -11    1    1    2    0    0 -0.91247604596E+02  0.27531728702E+02 -0.59983866069E+02  0.11261521042E+03  0.00000000000E+00 0. -1.
         11    1    1    2    0    0  0.14371064435E+02 -0.18789291638E+02 -0.21017470052E+02  0.31643309255E+02  0.00000000000E+00 0.  1.
</event>
<event>
 7    1  0.2666594E-009  0.6687993E+02  0.7561462E-02  0.1371036E+00
         -2   -1    0    0    0  501 -0.00000000000E+00  0.00000000000E+00  0.20163031129E+02  0.20163031129E+02  0.00000000000E+00 0.  1.
          2   -1    0    0  501    0  0.00000000000E+00 -0.00000000000E+00 -0.10261532244E+04  0.10261532244E+04  0.00000000000E+00 0. -1.
         25    2    1    2    0    0 -0.59266951512E+01 -0.35558256013E+02 -0.87234937122E+03  0.88201009854E+03  0.12509545622E+03 0.  0.
          5    1    3    3  502    0 -0.35853395465E+02 -0.38071727625E+02 -0.14795018734E+03  0.15697659935E+03  0.41800000000E+01 0. -1.
         -5    1    3    3    0  502  0.29926700314E+02  0.25134716122E+01 -0.72439918388E+03  0.72503349918E+03  0.41800000000E+01 0. -1.
        -11    1    1    2    0    0  0.21175313080E+02  0.18787924389E+02  0.45086116501E+00  0.28312245808E+02  0.00000000000E+00 0.  1.
         11    1    1    2    0    0 -0.15248617929E+02  0.16770331624E+02 -0.13409168317E+03  0.13599391114E+03  0.00000000000E+00 0. -1.
</event>
<event>
 7    1  0.2666594E-009  0.1192625E+03  0.7561462E-02  0.1244319E+00
         -2   -1    0    0    0  501 -0.00000000000E+00  0.00000000000E+00  0.17773725437E+03  0.17773725437E+03  0.00000000000E+00 0.  1.
          2   -1    0    0  501    0  0.00000000000E+00 -0.00000000000E+00 -0.10424400992E+03  0.10424400992E+03  0.00000000000E+00 0. -1.
         25    2    1    2    0    0  0.50956812840E+02  0.12231744052E+02 -0.25839807765E+02  0.13806276179E+03  0.12508964062E+03 0.  0.
          5    1    3    3  502    0 -0.18920600349E+02  0.51446499791E+02 -0.52467114369E+01  0.55224377219E+02  0.41800000000E+01 0.  1.
         -5    1    3    3    0  502  0.69877413189E+02 -0.39214755739E+02 -0.20593096328E+02  0.82838384569E+02  0.41800000000E+01 0.  1.
        -11    1    1    2    0    0 -0.17966084041E+02 -0.50020396924E+02  0.60137714022E+02  0.80258114431E+02  0.00000000000E+00 0. -1.
         11    1    1    2    0    0 -0.32990728798E+02  0.37788652872E+02  0.39195338202E+02  0.63660388071E+02  0.00000000000E+00 0.  1.
</event>
<event>
 7    1  0.2666594E-009  0.2461665E+03  0.7561462E-02  0.1115752E+00
         -1   -1    0    0    0  501 -0.00000000000E+00  0.00000000000E+00  0.12862520293E+04  0.12862520293E+04  0.00000000000E+00 0.  1.
          1   -1    0    0  501    0  0.00000000000E+00 -0.00000000000E+00 -0.67453781813E+02  0.67453781813E+02  0.00000000000E+00 0. -1.
         25    2    1    2    0    0 -0.36045596095E+02  0.23024413686E+03  0.95010643809E+03  0.98623619505E+03  0.12509173104E+03 0.  0.
          5    1    3    3  502    0 -0.57765901009E+02  0.55604611698E+02  0.42180837428E+03  0.42938158924E+03  0.41800000000E+01 0.  1.
         -5    1    3    3    0  502  0.21720304914E+02  0.17463952516E+03  0.52829806380E+03  0.55685460581E+03  0.41800000000E+01 0.  1.
        -11    1    1    2    0    0  0.39813650756E+02 -0.13644745968E+03  0.97932777404E+02  0.17260899435E+03  0.00000000000E+00 0. -1.
         11    1    1    2    0    0 -0.37680546610E+01 -0.93796677185E+02  0.17075903198E+03  0.19486062170E+03  0.00000000000E+00 0.  1.
</event>
<event>
 7    1  0.2666594E-009  0.8640142E+02  0.7561462E-02  0.1311808E+00
         -1   -1    0    0    0  501 -0.00000000000E+00  0.00000000000E+00  0.23132685912E+02  0.23132685912E+02  0.00000000000E+00 0. -1.
          1   -1    0    0  501    0  0.00000000000E+00 -0.00000000000E+00 -0.67892641184E+03  0.67892641184E+03  0.00000000000E+00 0.  1.
         25    2    1    2    0    0  0.11581298143E+02  0.29137815068E+02 -0.51795749041E+03  0.53376959420E+03  0.12508748573E+03 0.  0.
          5    1    3    3  502    0  0.67652461971E+02  0.65588499727E+01 -0.29120629502E+03  0.29906262351E+03  0.41800000000E+01 0. -1.
         -5    1    3    3    0  502 -0.56071163828E+02  0.22578965095E+02 -0.22675119539E+03  0.23470697069E+03  0.41800000000E+01 0. -1.
        -11    1    1    2    0    0  0.45297816261E+01 -0.27555426963E+02 -0.14703947870E+03  0.14966772790E+03  0.00000000000E+00 0.  1.
         11    1    1    2    0    0 -0.16111079770E+02 -0.15823881052E+01  0.92032431848E+01  0.18621775656E+02  0.00000000000E+00 0. -1.
</event>
<event>
 7    1  0.2666594E-009  0.1122333E+03  0.7561462E-02  0.1256489E+00
          2   -1    0    0  501    0  0.00000000000E+00  0.00000000000E+00  0.38567033190E+02  0.38567033190E+02  0.00000000000E+00 0. -1.
         -2   -1    0    0    0  501 -0.00000000000E+00 -0.00000000000E+00 -0.67569830728E+03  0.67569830728E+03  0.00000000000E+00 0.  1.
         25    2    1    2    0    0  0.72415819785E+02  0.76057309256E+02 -0.46683443245E+03  0.49458281551E+03  0.12509599848E+03 0.  0.
          5    1    3    3  502    0  0.50712914746E+02  0.71880745612E+02 -0.46356134950E+03  0.47185298395E+03  0.41800000000E+01 0.  1.
         -5    1    3    3    0  502  0.21702905039E+02  0.41765636446E+01 -0.32730829491E+01  0.22729831566E+02  0.41800000000E+01 0.  1.
        -11    1    1    2    0    0 -0.54783870407E+02 -0.78890471564E+02 -0.17636441380E+03  0.20082177525E+03  0.00000000000E+00 0.  1.
         11    1    1    2    0    0 -0.17631949378E+02  0.28331623078E+01  0.60675721573E+01  0.18860749705E+02  0.00000000000E+00 0. -1.
</event>
<event>
 7    1  0.2666594E-009  0.9980441E+02  0.7561462E-02  0.1280708E+00
         -1   -1    0    0    0  501 -0.00000000000E+00  0.00000000000E+00  0.16426331935E+03  0.16426331935E+03  0.00000000000E+00 0.  1.
          1   -1    0    0  501    0  0.00000000000E+00 -0.00000000000E+00 -0.10994228058E+03  0.10994228058E+03  0.00000000000E+00 0. -1.
         25    2    1    2    0    0 -0.30675750136E+02  0.72354243752E+02  0.27565309740E+02  0.15027884978E+03  0.12509095952E+03 0.  0.
          5    1    3    3  502    0 -0.27033030255E+02  0.49499179084E+02  0.76998525658E+02  0.95536374268E+02  0.41800000000E+01 0.  1.
         -5    1    3    3    0  502 -0.36427198808E+01  0.22855064669E+02 -0.49433215917E+02  0.54742475511E+02  0.41800000000E+01 0.  1.
        -11    1    1    2    0    0  0.62586231370E+01 -0.89488465493E+02  0.11556161012E+02  0.90448331533E+02  0.00000000000E+00 0. -1.
         11    1    1    2    0    0  0.24417126999E+02  0.17134221740E+02  0.15199568013E+02  0.33478418620E+02  0.00000000000E+00 0.  1.
</event>
<event>
 7    1  0.2666594E-009  0.1507169E+03  0.7561462E-02  0.1199595E+00
         -2   -1    0    0    0  501 -0.00000000000E+00  0.00000000000E+00  0.10588070330E+03  0.10588070330E+03  0.00000000000E+00 0. -1.
          2   -1    0    0  501    0  0.00000000000E+00 -0.00000000000E+00 -0.28943104208E+03  0.28943104208E+03  0.00000000000E+00 0.  1.
         25    2    1    2    0    0 -0.35849806969E+02  0.13171274967E+03 -0.11070605376E+03  0.21573164913E+03  0.12510338529E+03 0.  0.
          5    1    3    3  502    0 -0.56834340051E+02  0.10146697168E+03 -0.12956760564E+03  0.17415776004E+03  0.41800000000E+01 0.  1.
         -5    1    3    3    0  502  0.20984533083E+02  0.30245777993E+02  0.18861551878E+02  0.41573889093E+02  0.41800000000E+01 0.  1.
        -11    1    1    2    0    0  0.48772646591E+02 -0.12328426304E+03 -0.32672899453E+02  0.13654778991E+03  0.00000000000E+00 0. -1.
         11    1    1    2    0    0 -0.12922839622E+02 -0.84284866321E+01 -0.40171385567E+02  0.43032306343E+02  0.00000000000E+00 0.  1.
</event>
<event>
 7    1  0.2666594E-009  0.1548028E+03  0.7561462E-02  0.1194693E+00
          4   -1    0    0  501    0  0.00000000000E+00  0.00000000000E+00  0.14669213035E+03  0.14669213035E+03  0.00000000000E+00 0. -1.
         -4   -1    0    0    0  501 -0.00000000000E+00 -0.00000000000E+00 -0.21805404614E+03  0.21805404614E+03  0.00000000000E+00 0.  1.
         25    2    1    2    0    0  0.12351813532E+03 -0.63113153732E+02 -0.69985526392E+02  0.19946086586E+03  0.12508662270E+03 0.  0.
          5    1    3    3  502    0  0.45348591500E+02 -0.45714527810E+02 -0.95545874124E+02  0.11529440258E+03  0.41800000000E+01 0.  1.
         -5    1    3    3    0  502  0.78169543824E+02 -0.17398625922E+02  0.25560347732E+02  0.84166463285E+02  0.41800000000E+01 0.  1.
        -11    1    1    2    0    0 -0.59874218656E+02 -0.17311027492E+02 -0.60444491569E+01  0.62618919650E+02  0.00000000000E+00 0.  1.
         11    1    1    2    0    0 -0.63643916669E+02  0.80424181224E+02  0.46680597565E+01  0.10266639098E+03  0.00000000000E+00 0. -1.
</event>
<event>
 7    1  0.2666594E-009  0.1066840E+03  0.7561462E-02  0.1266837E+00
          3   -1    0    0  501    0  0.00000000000E+00  0.00000000000E+00  0.40846491002E+03  0.40846491002E+03  0.00000000000E+00 0. -1.
         -3   -1    0    0    0  501 -0.00000000000E+00 -0.00000000000E+00 -0.40342854175E+02  0.40342854175E+02  0.00000000000E+00 0.  1.
         25    2    1    2    0    0 -0.40087322674E+02 -0.47914741723E+02  0.25713669467E+03  0.29269125528E+03  0.12508427264E+03 0.  0.
          5    1    3    3  502    0  0.20475170755E+02 -0.56714294675E+02  0.55956142895E+02  0.82366899696E+02  0.41800000000E+01 0. -1.
         -5    1    3    3    0  502 -0.60562493429E+02  0.87995529518E+01  0.20118055177E+03  0.21032435559E+03  0.41800000000E+01 0. -1.
        -11    1    1    2    0    0 -0.87807263847E+01 -0.11618712221E+02 -0.62465658495E+01  0.15846615236E+02  0.00000000000E+00 0.  1.
         11    1    1    2    0    0  0.48868049059E+02  0.59533453944E+02  0.11723192703E+03  0.14026989368E+03  0.00000000000E+00 0. -1.
</event>
<event>
 7    1  0.2666594E-009  0.1037945E+03  0.7561462E-02  0.1272513E+00
          1   -1    0    0  501    0  0.00000000000E+00  0.00000000000E+00  0.79143194046E+03  0.79143194046E+03  0.00000000000E+00 0. -1.
         -1   -1    0    0    0  501 -0.00000000000E+00 -0.00000000000E+00 -0.23123999324E+02  0.23123999324E+02  0.00000000000E+00 0.  1.
         25    2    1    2    0    0 -0.49063188286E+02 -0.15196891195E+02  0.61147981426E+03  0.62625293265E+03  0.12508809081E+03 0.  0.
          5    1    3    3  502    0 -0.64793746810E+02  0.19146920174E+02  0.16767396555E+03  0.18082274553E+03  0.41800000000E+01 0.  1.
         -5    1    3    3    0  502  0.15730558524E+02 -0.34343811368E+02  0.44380584871E+03  0.44543018712E+03  0.41800000000E+01 0.  1.
        -11    1    1    2    0    0  0.49167095032E+02  0.48220610946E+02  0.86167849551E+02  0.11030652225E+03  0.00000000000E+00 0.  1.
         11    1    1    2    0    0 -0.10390674575E+00 -0.33023719751E+02  0.70660277329E+02  0.77996484889E+02  0.00000000000E+00 0. -1.
</event>
<event>
 7    1  0.2666594E-009  0.1769730E+03  0.7561462E-02  0.1170765E+00
          1   -1    0    0  501    0  0.00000000000E+00  0.00000000000E+00  0.12079782235E+03  0.12079782235E+03  0.00000000000E+00 0. -1.
         -1   -1    0    0    0  501 -0.00000000000E+00 -0.00000000000E+00 -0.26369952208E+03  0.26369952208E+03  0.00000000000E+00 0.  1.
         25    2    1    2    0    0 -0.16414734470E+02  0.13848491983E+03 -0.60118508990E+02  0.19674577984E+03  0.12508856956E+03 0.  0.
          5    1    3    3  502    0 -0.69285267775E+02  0.89276957262E+02 -0.22879380080E+02  0.11537660881E+03  0.41800000000E+01 0.  1.
         -5    1    3    3    0  502  0.52870533306E+02  0.49207962568E+02 -0.37239128910E+02  0.81369171030E+02  0.41800000000E+01 0.  1.
        -11    1    1    2    0    0 -0.23057699901E+02  0.14639126377E+01 -0.10976904814E+02  0.25579151750E+02  0.00000000000E+00 0.  1.
         11    1    1    2    0    0  0.39472434371E+02 -0.13994883247E+03 -0.71806285929E+02  0.16217241283E+03  0.00000000000E+00 0. -1.
</event>
<event>
 7    1  0.2666594E-009  0.9326257E+02  0.7561462E-02  0.1295138E+00
         -2   -1    0    0    0  501 -0.00000000000E+00  0.00000000000E+00  0.80624276908E+02  0.80624276908E+02  0.00000000000E+00 0.  1.
          2   -1    0    0  501    0  0.00000000000E+00 -0.00000000000E+00 -0.15780883911E+03  0.15780883911E+03  0.00000000000E+00 0. -1.
         25    2    1    2    0    0  0.49347772180E+01  0.18141993067E+01 -0.84491780281E+02  0.15104393646E+03  0.12509103270E+03 0.  0.
          5    1    3    3  502    0 -0.27487889780E+01 -0.60946793033E+02 -0.33630937486E+02  0.69789539174E+02  0.41800000000E+01 0. -1.
         -5    1    3    3    0  502  0.76835661960E+01  0.62760992340E+02 -0.50860842795E+02  0.81254397289E+02  0.41800000000E+01 0. -1.
        -11    1    1    2    0    0  0.27688762488E+02 -0.79560292587E+01  0.34163703646E+02  0.44689200222E+02  0.00000000000E+00 0.  1.
         11    1    1    2    0    0 -0.32623539706E+02  0.61418299520E+01 -0.26856485571E+02  0.42699979336E+02  0.00000000000E+00 0. -1.
</event>
<event>
 7    1  0.2666594E-009  0.8108855E+02  0.7561462E-02  0.1325990E+00
         -4   -1    0    0    0  501 -0.00000000000E+00  0.00000000000E+00  0.42034301211E+03  0.42034301211E+03  0.00000000000E+00 0.  1.
          4   -1    0    0  501    0  0.00000000000E+00 -0.00000000000E+00 -0.42118637098E+02  0.42118637098E+02  0.00000000000E+00 0. -1.
         25    2    1    2    0    0 -0.28696621201E+02  0.66068737576E+02  0.25135318111E+03  0.28985231974E+03  0.12508945380E+03 0.  0.
          5    1    3    3  502    0 -0.18912981570E+02  0.19376160961E+02 -0.60290478876E+01  0.28052777116E+02  0.41800000000E+01 0. -1.
         -5    1    3    3    0  502 -0.97836396312E+01  0.46692576614E+02  0.25738222900E+03  0.26179954263E+03  0.41800000000E+01 0. -1.
        -11    1    1    2    0    0  0.39472906885E+02 -0.30962597072E+02  0.11409928007E+02  0.51448802246E+02  0.00000000000E+00 0. -1.
         11    1    1    2    0    0 -0.10776285684E+02 -0.35106140503E+02  0.11546126590E+03  0.12116052722E+03  0.00000000000E+00 0.  1.
</event>
<event>
 7    1  0.2666594E-009  0.1263650E+03  0.7561462E-02  0.1232951E+00
         -1   -1    0    0    0  501 -0.00000000000E+00  0.00000000000E+00  0.73727840806E+02  0.73727840806E+02  0.00000000000E+00 0.  1.
          1   -1    0    0  501    0  0.00000000000E+00 -0.00000000000E+00 -0.35645543783E+03  0.35645543783E+03  0.00000000000E+00 0. -1.
         25    2    1    2    0    0  0.42960318884E+02 -0.92333195301E+02 -0.66753947903E+02  0.17457481018E+03  0.12509702968E+03 0.  0.
          5    1    3    3  502    0  0.54557586484E+02 -0.14516315073E+02  0.17469745043E+02  0.59244561253E+02  0.41800000000E+01 0.  1.
         -5    1    3    3    0  502 -0.11597267600E+02 -0.77816880228E+02 -0.84223692946E+02  0.11533024893E+03  0.41800000000E+01 0.  1.
        -11    1    1    2    0    0  0.95859515502E+01  0.46895181163E+02 -0.28568155389E+02  0.55742156271E+02  0.00000000000E+00 0. -1.
         11    1    1    2    0    0 -0.52546270434E+02  0.45438014138E+02 -0.18740549373E+03  0.19986631218E+03  0.00000000000E+00 0.  1.
</event>
<event>
 7    1  0.2666594E-009  0.1420924E+03  0.7561462E-02  0.1210541E+00
         -2   -1    0    0    0  501 -0.00000000000E+00  0.00000000000E+00  0.19636295156E+02  0.19636295156E+02  0.00000000000E+00 0.  1.
          2   -1    0    0  501    0  0.00000000000E+00 -0.00000000000E+00 -0.11153590114E+04  0.11153590114E+04  0.00000000000E+00 0. -1.
         25    2    1    2    0    0  0.34222623386E+02 -0.87398941068E+02 -0.72762374683E+03  0.74423984450E+03  0.12508743478E+03 0.  0.
          5    1    3    3  502    0  0.11185647209E+02 -0.11623387532E+03 -0.49054376244E+03  0.50426787300E+03  0.41800000000E+01 0. -1.
         -5    1    3    3    0  502  0.23036976176E+02  0.28834934255E+02 -0.23707998440E+03  0.23997197150E+03  0.41800000000E+01 0. -1.
        -11    1    1    2    0    0 -0.65086773840E+02  0.52621391705E+02 -0.25812501151E+03  0.27135552429E+03  0.00000000000E+00 0.  1.
         11    1    1    2    0    0  0.30864150454E+02  0.34777549363E+02 -0.10997395794E+03  0.11939993781E+03  0.00000000000E+00 0. -1.
</event>
<event>
 7    1  0.2666594E-009  0.9052928E+02  0.7561462E-02  0.1301575E+00
         -2   -1    0    0    0  501 -0.00000000000E+00  0.00000000000E+00  0.10377210442E+03  0.10377210442E+03  0.00000000000E+00 0.  1.
          2   -1    0    0  501    0  0.00000000000E+00 -0.00000000000E+00 -0.13061109740E+03  0.13061109740E+03  0.00000000000E+00 0. -1.
         25    2    1    2    0    0  0.14173790135E+02  0.33318483324E+02 -0.20317493540E+02  0.13179849150E+03  0.12508806562E+03 0.  0.
          5    1    3    3  502    0 -0.28995810535E+02  0.76998445650E+01  0.41927462368E+02  0.51724550608E+02  0.41800000000E+01 0. -1.
         -5    1    3    3    0  502  0.43169600670E+02  0.25618638759E+02 -0.62244955908E+02  0.80073940892E+02  0.41800000000E+01 0. -1.
        -11    1    1    2    0    0  0.38555760364E+02 -0.27473678700E+02  0.69454715505E+01  0.47849652596E+02  0.00000000000E+00 0.  1.
         11    1    1    2    0    0 -0.52729550499E+02 -0.58448046242E+01 -0.13466970984E+02  0.54735057727E+02  0.00000000000E+00 0. -1.
</event>
<event>
 7    1  0.2666594E-009  0.1440549E+03  0.7561462E-02  0.1207975E+00
          1   -1    0    0  501    0  0.00000000000E+00  0.00000000000E+00  0.50671358877E+03  0.50671358877E+03  0.00000000000E+00 0. -1.
         -1   -1    0    0    0  501 -0.00000000000E+00 -0.00000000000E+00 -0.47196330912E+02  0.47196330912E+02  0.00000000000E+00 0.  1.
         25    2    1    2    0    0 -0.10198166676E+03  0.24691979008E+02  0.18904762171E+03  0.24979095354E+03  0.12508622232E+03 0.  0.
          5    1    3    3  502    0  0.22721387611E+02  0.12652091289E+02  0.45384839871E+01  0.26728395123E+02  0.41800000000E+01 0. -1.
         -5    1    3    3    0  502 -0.12470305437E+03  0.12039887718E+02  0.18450913772E+03  0.22306255842E+03  0.41800000000E+01 0. -1.
        -11    1    1    2    0    0  0.41034333492E+02  0.32875942293E+02  0.13410117465E+03  0.14404085931E+03  0.00000000000E+00 0.  1.
         11    1    1    2    0    0  0.60947333271E+02 -0.57567921301E+02  0.13636846150E+03  0.16007810683E+03  0.00000000000E+00 0. -1.
</event>
<event>
 7    1  0.2666594E-009  0.1071542E+03  0.7561462E-02  0.1265932E+00
         -1   -1    0    0    0  501 -0.00000000000E+00  0.00000000000E+00  0.22223266329E+03  0.22223266329E+03  0.00000000000E+00 0.  1.
          1   -1    0    0  501    0  0.00000000000E+00 -0.00000000000E+00 -0.61347269334E+02  0.61347269334E+02  0.00000000000E+00 0. -1.
         25    2    1    2    0    0  0.20213316740E+02  0.12265044366E+01  0.13117886394E+03  0.18238290407E+03  0.12508216046E+03 0.  0.
          5    1    3    3  502    0 -0.48589559767E+02 -0.30254633694E+00  0.89200059624E+02  0.10166198842E+03  0.41800000000E+01 0. -1.
         -5    1    3    3    0  502  0.68802876506E+02  0.15290507736E+01  0.41978804316E+02  0.80720915652E+02  0.41800000000E+01 0. -1.
        -11    1    1    2    0    0 -0.31358447438E+02 -0.43077327049E+02  0.13610004160E+02  0.54993095427E+02  0.00000000000E+00 0.  1.
         11    1    1    2    0    0  0.11145130698E+02  0.41850822612E+02  0.16096525856E+02  0.46203933125E+02  0.00000000000E+00 0. -1.
</event>
<event>
 7    1  0.2666594E-009  0.2166720E+03  0.7561462E-02  0.1136389E+00
          1   -1    0    0  501    0  0.00000000000E+00  0.00000000000E+00  0.50161679247E+03  0.50161679247E+03  0.00000000000E+00 0. -1.
         -1   -1    0    0    0  501 -0.00000000000E+00 -0.00000000000E+00 -0.96646773303E+02  0.96646773303E+02  0.00000000000E+00 0.  1.
         25    2    1    2    0    0  0.16758101739E+03 -0.88172020040E+02  0.17208904158E+03  0.28481594625E+03  0.12509109680E+03 0.  0.
          5    1    3    3  502    0  0.70020201471E+01 -0.63975419356E+02  0.47728902187E+02  0.80233428644E+02  0.41800000000E+01 0.  1.
         -5    1    3    3    0  502  0.16057899724E+03 -0.24196600684E+02  0.12436013939E+03  0.20458251760E+03  0.41800000000E+01 0.  1.
        -11    1    1    2    0    0 -0.90143817537E+02  0.92093977986E+02  0.17169311245E+03  0.21467588007E+03  0.00000000000E+00 0.  1.
         11    1    1    2    0    0 -0.77437199851E+02 -0.39219579457E+01  0.61187865141E+02  0.98771739457E+02  0.00000000000E+00 0. -1.
</event>
<event>
 7    1  0.2666594E-009  0.1602437E+03  0.7561462E-02  0.1188422E+00
         -1   -1    0    0    0  501 -0.00000000000E+00  0.00000000000E+00  0.53668338324E+03  0.53668338324E+03  0.00000000000E+00 0.  1.
          1   -1    0    0  501    0  0.00000000000E+00 -0.00000000000E+00 -0.75118339626E+02  0.75118339626E+02  0.00000000000E+00 0. -1.
         25    2    1    2    0    0 -0.15635389758E+03 -0.18053800152E+02  0.14865602493E+03  0.25003920000E+03  0.12509399187E+03 0.  0.
          5    1    3    3  502    0 -0.41744794958E+02 -0.11477411122E+02 -0.18459092483E+02  0.47250072671E+02  0.41800000000E+01 0.  1.
         -5    1    3    3    0  502 -0.11460910262E+03 -0.65763890295E+01  0.16711511741E+03  0.20278912733E+03  0.41800000000E+01 0.  1.
        -11    1    1    2    0    0  0.44265739288E+02 -0.12394700703E+02  0.27359571886E+02  0.53494209537E+02  0.00000000000E+00 0.  1.
         11    1    1    2    0    0  0.11208815829E+03  0.30448500854E+02  0.28554944679E+03  0.30826831332E+03  0.00000000000E+00 0. -1.
</event>
<event>
 7    1  0.2666594E-009  0.9563004E+02  0.7561462E-02  0.1289763E+00
          1   -1    0    0  501    0  0.00000000000E+00  0.00000000000E+00  0.29345954122E+02  0.29345954122E+02  0.00000000000E+00 0.  1.
         -1   -1    0    0    0  501 -0.00000000000E+00 -0.00000000000E+00 -0.53246606632E+03  0.53246606632E+03  0.00000000000E+00 0. -1.
         25    2    1    2    0    0 -0.44205932746E+02 -0.11634944953E+01 -0.37309789012E+03  0.39598653944E+03  0.12509110918E+03 0.  0.
          5    1    3    3  502    0 -0.34680243091E+02  0.35917818490E+02 -0.34422603493E+03  0.34785319385E+03  0.41800000000E+01 0. -1.
         -5    1    3    3    0  502 -0.95256896548E+01 -0.37081312985E+02 -0.28871855194E+02  0.48133345598E+02  0.41800000000E+01 0. -1.
        -11    1    1    2    0    0 -0.28090884061E+02  0.99824685703E+01 -0.32412145206E+02  0.44037422755E+02  0.00000000000E+00 0.  1.
         11    1    1    2    0    0  0.72296816807E+02 -0.88189740750E+01 -0.97610076868E+02  0.12178805824E+03  0.00000000000E+00 0. -1.
</event>
<event>
 7    1  0.2700938E-009  0.1327599E+03  0.7561462E-02  0.1223417E+00
          2   -1    0    0  501    0  0.00000000000E+00  0.00000000000E+00  0.11650315989E+04  0.11650315989E+04  0.00000000000E+00 0. -1.
         -2   -1    0    0    0  501 -0.00000000000E+00 -0.00000000000E+00 -0.19311188354E+02  0.19311188354E+02  0.00000000000E+00 0.  1.
         25    2    1    2    0    0  0.96660573367E+01  0.10293505127E+03  0.56705079612E+03  0.58981730620E+03  0.12509513129E+03 0.  0.
          5    1    3    3  502    0 -0.20301629131E+02 -0.46103380713E+01  0.13629412374E+02  0.25231818091E+02  0.41800000000E+01 0. -1.
         -5    1    3    3    0  502  0.29967686468E+02  0.10754538934E+03  0.55342138374E+03  0.56458548811E+03  0.41800000000E+01 0. -1.
        -11    1    1    2    0    0 -0.45340530701E+02 -0.41198772282E+02  0.19892397270E+03  0.20814381922E+03  0.00000000000E+00 0.  1.
         11    1    1    2    0    0  0.35674473364E+02 -0.61736278989E+02  0.37974564167E+03  0.38638166178E+03  0.00000000000E+00 0. -1.
</event>
<event>
 7    1  0.2666594E-009  0.8602564E+02  0.7561462E-02  0.1312772E+00
          1   -1    0    0  501    0  0.00000000000E+00  0.00000000000E+00  0.11854175575E+03  0.11854175575E+03  0.00000000000E+00 0. -1.
         -1   -1    0    0    0  501 -0.00000000000E+00 -0.00000000000E+00 -0.77080322645E+02  0.77080322645E+02  0.00000000000E+00 0.  1.
         25    2    1    2    0    0  0.15945669578E+02  0.11455905613E+02  0.50824142647E+02  0.13644171083E+03  0.12509094622E+03 0.  0.
          5    1    3    3  502    0  0.60021400379E+02  0.36587632675E+02  0.98743640585E+01  0.71106953484E+02  0.41800000000E+01 0.  1.
         -5    1    3    3    0  502 -0.44075730801E+02 -0.25131727063E+02  0.40949778588E+02  0.65334757344E+02  0.41800000000E+01 0.  1.
        -11    1    1    2    0    0  0.16685944628E+02 -0.23878966907E+01  0.10556561867E+02  0.19888785714E+02  0.00000000000E+00 0. -1.
         11    1    1    2    0    0 -0.32631614207E+02 -0.90680089219E+01 -0.19919271405E+02  0.39291581857E+02  0.00000000000E+00 0.  1.
</event>
<event>
 7    1  0.2666594E-009  0.1062751E+03  0.7561462E-02  0.1267627E+00
          1   -1    0    0  501    0  0.00000000000E+00  0.00000000000E+00  0.32020860084E+03  0.32020860084E+03  0.00000000000E+00 0. -1.
         -1   -1    0    0    0  501 -0.00000000000E+00 -0.00000000000E+00 -0.62338176046E+02  0.62338176046E+02  0.00000000000E+00 0.  1.
         25    2    1    2    0    0 -0.49547610549E+02  0.32986081699E+02  0.56077397297E+02  0.14945488066E+03  0.12509612132E+03 0.  0.
          5    1    3    3  502    0  0.17388315266E+01  0.66292015147E+02  0.10120228265E+00  0.66446500654E+02  0.41800000000E+01 0.  1.
         -5    1    3    3    0  502 -0.51286442076E+02 -0.33305933448E+02  0.55976195015E+02  0.83008380010E+02  0.41800000000E+01 0.  1.
        -11    1    1    2    0    0  0.54914670073E+02 -0.37043211366E+01  0.38648722213E+02  0.67253748691E+02  0.00000000000E+00 0.  1.
         11    1    1    2    0    0 -0.53670595243E+01 -0.29281760562E+02  0.16314430528E+03  0.16583814753E+03  0.00000000000E+00 0. -1.
</event>
<event>
 7    1  0.2666594E-009  0.8505604E+02  0.7561462E-02  0.1315286E+00
         -4   -1    0    0    0  501 -0.00000000000E+00  0.00000000000E+00  0.14059191239E+03  0.14059191239E+03  0.00000000000E+00 0.  1.
          4   -1    0    0  501    0  0.00000000000E+00 -0.00000000000E+00 -0.14477929492E+03  0.14477929492E+03  0.00000000000E+00 0. -1.
         25    2    1    2    0    0  0.85221911824E+01 -0.22691500046E+02 -0.91477838227E+02  0.15685396779E+03  0.12508972943E+03 0.  0.
          5    1    3    3  502    0  0.18865477640E+02  0.22472782753E+02  0.20204528198E+02  0.35869591173E+02  0.41800000000E+01 0. -1.
         -5    1    3    3    0  502 -0.10343286458E+02 -0.45164282799E+02 -0.11168236642E+03  0.12098437662E+03  0.41800000000E+01 0. -1.
        -11    1    1    2    0    0  0.20700120918E+02 -0.28370745710E+02  0.38232217555E+02  0.51914320541E+02  0.00000000000E+00 0. -1.
         11    1    1    2    0    0 -0.29222312100E+02  0.51062245755E+02  0.49058238143E+02  0.76602918977E+02  0.00000000000E+00 0.  1.
</event>
<event>
 7    1  0.2666594E-009  0.1385586E+03  0.7561462E-02  0.1215282E+00
         -2   -1    0    0    0  501 -0.00000000000E+00  0.00000000000E+00  0.61997747512E+02  0.61997747512E+02  0.00000000000E+00 0.  1.
          2   -1    0    0  501    0  0.00000000000E+00 -0.00000000000E+00 -0.31806779310E+03  0.31806779310E+03  0.00000000000E+00 0. -1.
         25    2    1    2    0    0 -0.60273152540E+02 -0.62914028897E+02 -0.11257255164E+03  0.18950177675E+03  0.12508923239E+03 0.  0.
          5    1    3    3  502    0  0.44807397897E+01  0.34616361705E+02 -0.29497412284E+02  0.45890513815E+02  0.41800000000E+01 0.  1.
         -5    1    3    3    0  502 -0.64753892330E+02 -0.97530390601E+02 -0.83075139354E+02  0.14361126293E+03  0.41800000000E+01 0.  1.
        -11    1    1    2    0    0  0.31333087183E+02  0.83578104258E+02 -0.11055499861E+03  0.14208965333E+03  0.00000000000E+00 0. -1.
         11    1    1    2    0    0  0.28940065358E+02 -0.20664075361E+02 -0.32942495338E+02  0.48474110539E+02  0.00000000000E+00 0.  1.
</event>
<event>
 7    1  0.3540506E-009  0.1038050E+03  0.7561462E-02  0.1272492E+00
          1   -1    0    0  501    0  0.00000000000E+00  0.00000000000E+00  0.32457778781E+03  0.32457778781E+03  0.00000000000E+00 0.  1.
         -1   -1    0    0    0  501 -0.00000000000E+00 -0.00000000000E+00 -0.50167801141E+02  0.50167801141E+02  0.00000000000E+00 0. -1.
         25    2    1    2    0    0  0.71015363518E+01  0.51953425865E+02  0.21509985154E+03  0.25429917495E+03  0.12510209418E+03 0.  0.
          5    1    3    3  502    0  0.40268876276E+02  0.81510601706E+02  0.14265039065E+03  0.16921042208E+03  0.41800000000E+01 0.  1.
         -5    1    3    3    0  502 -0.33167339924E+02 -0.29557175841E+02  0.72449460892E+02  0.85088752870E+02  0.41800000000E+01 0.  1.
        -11    1    1    2    0    0 -0.27914905692E+02 -0.22203485274E+02  0.73315075572E+02  0.81531202765E+02  0.00000000000E+00 0.  1.
         11    1    1    2    0    0  0.20813369341E+02 -0.29749940591E+02 -0.14004940449E+02  0.38915211235E+02  0.00000000000E+00 0. -1.
</event>
<event>
 7    1  0.2666594E-009  0.1048412E+03  0.7561462E-02  0.1270433E+00
          1   -1    0    0  501    0  0.00000000000E+00  0.00000000000E+00  0.82355850378E+02  0.82355850378E+02  0.00000000000E+00 0. -1.
         -1   -1    0    0    0  501 -0.00000000000E+00 -0.00000000000E+00 -0.26891544488E+03  0.26891544488E+03  0.00000000000E+00 0.  1.
         25    2    1    2    0    0 -0.16402008049E+02  0.90016246681E+02 -0.47080187907E+02  0.16197627248E+03  0.12509123958E+03 0.  0.
          5    1    3    3  502    0  0.22096083516E+02  0.54229606611E+02  0.32051117186E+02  0.66886722545E+02  0.41800000000E+01 0. -1.
         -5    1    3    3    0  502 -0.38498091565E+02  0.35786640070E+02 -0.79131305093E+02  0.95089549938E+02  0.41800000000E+01 0. -1.
        -11    1    1    2    0    0  0.26873715255E+02 -0.76916713852E+02 -0.44480594568E+02  0.92827262884E+02  0.00000000000E+00 0. -1.
         11    1    1    2    0    0 -0.10471707206E+02 -0.13099532829E+02 -0.94998812024E+02  0.96467759889E+02  0.00000000000E+00 0.  1.
</event>
<event>
 7    1  0.2666594E-009  0.1540284E+03  0.7561462E-02  0.1195608E+00
          1   -1    0    0  501    0  0.00000000000E+00  0.00000000000E+00  0.14662634757E+03  0.14662634757E+03  0.00000000000E+00 0. -1.
         -1   -1    0    0    0  501 -0.00000000000E+00 -0.00000000000E+00 -0.22135460886E+03  0.22135460886E+03  0.00000000000E+00 0.  1.
         25    2    1    2    0    0  0.48550940609E+02  0.11818277031E+03  0.23479087835E+02  0.18034338196E+03  0.12509239312E+03 0.  0.
          5    1    3    3  502    0  0.13979205227E+02  0.13475984256E+03  0.69663112028E+00  0.13554922000E+03  0.41800000000E+01 0. -1.
         -5    1    3    3    0  502  0.34571735382E+02 -0.16577072251E+02  0.22782456715E+02  0.44794161960E+02  0.41800000000E+01 0. -1.
        -11    1    1    2    0    0  0.56950326806E+01 -0.29022427347E+02  0.15419875123E+02  0.33354268620E+02  0.00000000000E+00 0. -1.
         11    1    1    2    0    0 -0.54245973290E+02 -0.89160342965E+02 -0.11362722424E+03  0.15428330585E+03  0.00000000000E+00 0.  1.
</event>
<event>
 7    1  0.2666594E-009  0.9541211E+02  0.7561462E-02  0.1290251E+00
          2   -1    0    0  501    0  0.00000000000E+00  0.00000000000E+00  0.88682121259E+03  0.88682121259E+03  0.00000000000E+00 0. -1.
         -2   -1    0    0    0  501 -0.00000000000E+00 -0.00000000000E+00 -0.12782346170E+02  0.12782346170E+02  0.00000000000E+00 0.  1.
         25    2    1    2    0    0  0.40277331709E+02 -0.50858510609E+02  0.50659051142E+03  0.52582363658E+03  0.12509076295E+03 0.  0.
          5    1    3    3  502    0  0.44052701362E+02  0.22003553312E+02  0.34442245305E+03  0.34794984612E+03  0.41800000000E+01 0.  1.
         -5    1    3    3    0  502 -0.37753696532E+01 -0.72862063921E+02  0.16216805837E+03  0.17787379045E+03  0.41800000000E+01 0.  1.
        -11    1    1    2    0    0 -0.12653618080E+02  0.33225938829E+02  0.20473211628E+03  0.20779633418E+03  0.00000000000E+00 0.  1.
         11    1    1    2    0    0 -0.27623713629E+02  0.17632571779E+02  0.16271623873E+03  0.16598358801E+03  0.00000000000E+00 0. -1.
</event>
<event>
 7    1  0.2666594E-009  0.8529819E+02  0.7561462E-02  0.1314655E+00
         -2   -1    0    0    0  501 -0.00000000000E+00  0.00000000000E+00  0.43303079797E+03  0.43303079797E+03  0.00000000000E+00 0.  1.
          2   -1    0    0  501    0  0.00000000000E+00 -0.00000000000E+00 -0.44682476422E+02  0.44682476422E+02  0.00000000000E+00 0. -1.
         25    2    1    2    0    0  0.42346959133E+02  0.55217419357E+02  0.12339048108E+03  0.18898565885E+03  0.12509252608E+03 0.  0.
          5    1    3    3  502    0  0.70195287302E+01  0.56240577341E+01 -0.25882295474E+02  0.27717673568E+02  0.41800000000E+01 0. -1.
         -5    1    3    3    0  502  0.35327430403E+02  0.49593361623E+02  0.14927277655E+03  0.16126798528E+03  0.41800000000E+01 0. -1.
        -11    1    1    2    0    0 -0.58612917652E+02 -0.21902815578E+02  0.88305445671E+02  0.10822688751E+03  0.00000000000E+00 0. -1.
         11    1    1    2    0    0  0.16265958519E+02 -0.33314603779E+02  0.17665239480E+03  0.18050072803E+03  0.00000000000E+00 0.  1.
</event>
<event>
 7    1  0.3383223E-009  0.2861848E+03  0.7561462E-02  0.1092358E+00
         -2   -1    0    0    0  501 -0.00000000000E+00  0.00000000000E+00  0.67544264302E+02  0.67544264302E+02  0.00000000000E+00 0.  1.
          2   -1    0    0  501    0  0.00000000000E+00 -0.00000000000E+00 -0.13778649939E+04  0.13778649939E+04  0.00000000000E+00 0. -1.
         25    2    1    2    0    0  0.26906977123E+03 -0.33872070863E+02 -0.46205974384E+03  0.55017472262E+03  0.12508860683E+03 0.  0.
          5    1    3    3  502    0  0.16536105630E+03  0.24546523888E+02 -0.18953636207E+03  0.25276138099E+03  0.41800000000E+01 0. -1.
         -5    1    3    3    0  502  0.10370871493E+03 -0.58418594751E+02 -0.27252338178E+03  0.29741334163E+03  0.41800000000E+01 0. -1.
        -11    1    1    2    0    0 -0.15451750314E+03  0.64539254748E+02 -0.48282909001E+03  0.51104295743E+03  0.00000000000E+00 0. -1.
         11    1    1    2    0    0 -0.11455226809E+03 -0.30667183884E+02 -0.36543189574E+03  0.38419157814E+03  0.00000000000E+00 0.  1.
</event>
<event>
 7    1  0.2666594E-009  0.1398220E+03  0.7561462E-02  0.1213569E+00
          2   -1    0    0  501    0  0.00000000000E+00  0.00000000000E+00  0.18645975171E+03  0.18645975171E+03  0.00000000000E+00 0. -1.
         -2   -1    0    0    0  501 -0.00000000000E+00 -0.00000000000E+00 -0.15641739773E+03  0.15641739773E+03  0.00000000000E+00 0.  1.
         25    2    1    2    0    0  0.95366314927E+02 -0.84944998146E+02  0.46664091723E+02  0.18475643153E+03  0.12508802821E+03 0.  0.
          5    1    3    3  502    0  0.55787062106E+02 -0.41343307975E+02 -0.39737601473E+02  0.80112513277E+02  0.41800000000E+01 0.  1.
         -5    1    3    3    0  502  0.39579252821E+02 -0.43601690171E+02  0.86401693196E+02  0.10464391825E+03  0.41800000000E+01 0.  1.
        -11    1    1    2    0    0 -0.67781511796E+02  0.67355553176E+01  0.14321226785E+02  0.69604587373E+02  0.00000000000E+00 0. -1.
         11    1    1    2    0    0 -0.27584803131E+02  0.78209442828E+02 -0.30942964525E+02  0.88516130535E+02  0.00000000000E+00 0.  1.
</event>
<event>
 7    1  0.2666594E-009  0.1169888E+03  0.7561462E-02  0.1248149E+00
         -1   -1    0    0    0  501 -0.00000000000E+00  0.00000000000E+00  0.20190902191E+03  0.20190902191E+03  0.00000000000E+00 0.  1.
          1   -1    0    0  501    0  0.00000000000E+00 -0.00000000000E+00 -0.77916061797E+02  0.77916061797E+02  0.00000000000E+00 0. -1.
         25    2    1    2    0    0 -0.15112060882E+02  0.62178771252E+02  0.11922439998E+03  0.18427530166E+03  0.12509338620E+03 0.  0.
          5    1    3    3  502    0 -0.61106070058E+02  0.68579179540E+02  0.64148270752E+02  0.11211390951E+03  0.41800000000E+01 0. -1.
         -5    1    3    3    0  502  0.45994009176E+02 -0.64004082879E+01  0.55076129226E+02  0.72161392149E+02  0.41800000000E+01 0. -1.
        -11    1    1    2    0    0  0.42088900065E+02 -0.23374585283E+02  0.12780416559E+01  0.48160981472E+02  0.00000000000E+00 0. -1.
         11    1    1    2    0    0 -0.26976839183E+02 -0.38804185970E+02  0.34905184773E+01  0.47388800579E+02  0.00000000000E+00 0.  1.
</event>
<event>
 7    1  0.2666594E-009  0.9115413E+02  0.7561462E-02  0.1300081E+00
          1   -1    0    0  501    0  0.00000000000E+00  0.00000000000E+00  0.22015076726E+03  0.22015076726E+03  0.00000000000E+00 0. -1.
         -1   -1    0    0    0  501 -0.00000000000E+00 -0.00000000000E+00 -0.59994533566E+02  0.59994533566E+02  0.00000000000E+00 0.  1.
         25    2    1    2    0    0  0.84903990495E+01 -0.23953982604E+02  0.55422519056E+02  0.13915436129E+03  0.12508557266E+03 0.  0.
          5    1    3    3  502    0 -0.54874045260E+02 -0.12013915639E+02  0.48201122647E+02  0.74137140737E+02  0.41800000000E+01 0. -1.
         -5    1    3    3    0  502  0.63364444310E+02 -0.11940066965E+02  0.72213964087E+01  0.65017220549E+02  0.41800000000E+01 0. -1.
        -11    1    1    2    0    0  0.17838425331E+02 -0.83448767712E+01  0.96532800427E+02  0.98521205559E+02  0.00000000000E+00 0. -1.
         11    1    1    2    0    0 -0.26328824380E+02  0.32298859375E+02  0.82009142073E+01  0.42469733976E+02  0.00000000000E+00 0.  1.
</event>
<event>
 7    1  0.2666594E-009  0.1450367E+03  0.7561462E-02  0.1206708E+00
          2   -1    0    0  501    0  0.00000000000E+00  0.00000000000E+00  0.16022434888E+03  0.16022434888E+03  0.00000000000E+00 0. -1.
         -2   -1    0    0    0  501 -0.00000000000E+00 -0.00000000000E+00 -0.13807426410E+03  0.13807426410E+03  0.00000000000E+00 0.  1.
         25    2    1    2    0    0  0.75684630365E+02 -0.46832116498E+02  0.14502555663E+02  0.15420568684E+03  0.12509060446E+03 0.  0.
          5    1    3    3  502    0 -0.34027387528E+02 -0.15771814217E+02  0.13565606323E+02  0.40101263079E+02  0.41800000000E+01 0.  1.
         -5    1    3    3    0  502  0.10971201789E+03 -0.31060302281E+02  0.93694934040E+00  0.11410442376E+03  0.41800000000E+01 0.  1.
        -11    1    1    2    0    0 -0.98596069671E+02  0.16098139339E+02  0.23470310379E+02  0.10262158893E+03  0.00000000000E+00 0. -1.
         11    1    1    2    0    0  0.22911439306E+02  0.30733977159E+02 -0.15822781266E+02  0.41471337211E+02  0.00000000000E+00 0.  1.
</event>
<event>
 7    1  0.2666594E-009  0.8927543E+02  0.7561462E-02  0.1304616E+00
          1   -1    0    0  501    0  0.00000000000E+00  0.00000000000E+00  0.61815484074E+02  0.61815484074E+02  0.00000000000E+00 0. -1.
         -1   -1    0    0    0  501 -0.00000000000E+00 -0.00000000000E+00 -0.24809496395E+03  0.24809496395E+03  0.00000000000E+00 0.  1.
         25    2    1    2    0    0  0.24105795224E+02 -0.37295860240E+02 -0.15260262496E+03  0.20225449326E+03  0.12508896171E+03 0.  0.
          5    1    3    3  502    0 -0.21947135429E+02 -0.24023655735E+02  0.86913897714E+01  0.33938553955E+02  0.41800000000E+01 0.  1.
         -5    1    3    3    0  502  0.46052930653E+02 -0.13272204505E+02 -0.16129401473E+03  0.16831593930E+03  0.41800000000E+01 0.  1.
        -11    1    1    2    0    0  0.13413292872E+02  0.54667705057E+02 -0.35010437625E+02  0.66288801049E+02  0.00000000000E+00 0.  1.
         11    1    1    2    0    0 -0.37519088096E+02 -0.17371844817E+02  0.13335827101E+01  0.41367153718E+02  0.00000000000E+00 0. -1.
</event>
<event>
 7    1  0.2666594E-009  0.1633699E+03  0.7561462E-02  0.1184944E+00
          2   -1    0    0  501    0  0.00000000000E+00  0.00000000000E+00  0.72971143556E+03  0.72971143556E+03  0.00000000000E+00 0. -1.
         -2   -1    0    0    0  501 -0.00000000000E+00 -0.00000000000E+00 -0.43563322687E+02  0.43563322687E+02  0.00000000000E+00 0.  1.
         25    2    1    2    0    0 -0.22748664496E+02 -0.13273940654E+03  0.27242103707E+03  0.32863075095E+03  0.12509075603E+03 0.  0.
          5    1    3    3  502    0 -0.14310721339E+02  0.21252838200E+02  0.66026824087E+02  0.70947119574E+02  0.41800000000E+01 0. -1.
         -5    1    3    3    0  502 -0.84379431565E+01 -0.15399224474E+03  0.20639421299E+03  0.25768363138E+03  0.41800000000E+01 0. -1.
        -11    1    1    2    0    0  0.41995750723E+02  0.79912778367E+02  0.34083432537E+03  0.35258719854E+03  0.00000000000E+00 0. -1.
         11    1    1    2    0    0 -0.19247086227E+02  0.52826628176E+02  0.72892750432E+02  0.92056808755E+02  0.00000000000E+00 0.  1.
</event>
<event>
 7    1  0.2666594E-009  0.3232230E+03  0.7561462E-02  0.1074175E+00
         -1   -1    0    0    0  501 -0.00000000000E+00  0.00000000000E+00  0.97663644673E+02  0.97663644673E+02  0.00000000000E+00 0.  1.
          1   -1    0    0  501    0  0.00000000000E+00 -0.00000000000E+00 -0.13350649612E+04  0.13350649612E+04  0.00000000000E+00 0. -1.
         25    2    1    2    0    0 -0.29855497843E+03  0.11279308401E+03 -0.36198769365E+03  0.49853726935E+03  0.12508782368E+03 0.  0.
          5    1    3    3  502    0 -0.59290999728E+02  0.54381921542E+02 -0.16321051640E+03  0.18201088182E+03  0.41800000000E+01 0. -1.
         -5    1    3    3    0  502 -0.23926397870E+03  0.58411162470E+02 -0.19877717725E+03  0.31652638753E+03  0.41800000000E+01 0. -1.
        -11    1    1    2    0    0  0.89552786829E+02 -0.26003807114E+02 -0.34795603801E+03  0.36023506770E+03  0.00000000000E+00 0.  1.
         11    1    1    2    0    0  0.20900219160E+03 -0.86789276898E+02 -0.52745758485E+03  0.57395626880E+03  0.00000000000E+00 0. -1.
</event>
<event>
 7    1  0.2666594E-009  0.2145194E+03  0.7561462E-02  0.1138036E+00
         -2   -1    0    0    0  501 -0.00000000000E+00  0.00000000000E+00  0.48212528347E+03  0.48212528347E+03  0.00000000000E+00 0.  1.
          2   -1    0    0  501    0  0.00000000000E+00 -0.00000000000E+00 -0.11296937977E+03  0.11296937977E+03  0.00000000000E+00 0. -1.
         25    2    1    2    0    0  0.14046072963E+03  0.14455495191E+03  0.24807363823E+03  0.34323886365E+03  0.12508811630E+03 0.  0.
          5    1    3    3  502    0  0.11051859159E+03  0.13959357019E+03  0.12800985204E+03  0.21932787909E+03  0.41800000000E+01 0.  1.
         -5    1    3    3    0  502  0.29942138039E+02  0.49613817213E+01  0.12006378619E+03  0.12391098456E+03  0.41800000000E+01 0.  1.
        -11    1    1    2    0    0 -0.12051946538E+03 -0.62302629409E+02  0.65979845623E+02  0.15086384324E+03  0.00000000000E+00 0. -1.
         11    1    1    2    0    0 -0.19941264248E+02 -0.82252322506E+02  0.55102419836E+02  0.10099195636E+03  0.00000000000E+00 0.  1.
</event>
<event>
 7    1  0.2666594E-009  0.1075549E+03  0.7561462E-02  0.1265166E+00
         -1   -1    0    0    0  501 -0.00000000000E+00  0.00000000000E+00  0.14987676084E+02  0.14987676084E+02  0.00000000000E+00 0.  1.
          1   -1    0    0  501    0  0.00000000000E+00 -0.00000000000E+00 -0.95310300617E+03  0.95310300617E+03  0.00000000000E+00 0. -1.
         25    2    1    2    0    0  0.29410844941E+02 -0.15766192591E+02 -0.66590790758E+03  0.67837659167E+03  0.12509151896E+03 0.  0.
          5    1    3    3  502    0  0.51633777734E+02  0.33522942945E+02 -0.50090050775E+03  0.50468666098E+03  0.41800000000E+01 0. -1.
         -5    1    3    3    0  502 -0.22222932793E+02 -0.49289135536E+02 -0.16500739983E+03  0.17368993069E+03  0.41800000000E+01 0. -1.
        -11    1    1    2    0    0 -0.26888851248E+02  0.54283387634E+02 -0.16472854012E+03  0.17551406902E+03  0.00000000000E+00 0. -1.
         11    1    1    2    0    0 -0.25219936929E+01 -0.38517195043E+02 -0.10747888238E+03  0.11420002156E+03  0.00000000000E+00 0.  1.
</event>
<event>
 7    1  0.2666594E-009  0.8971870E+02  0.7561462E-02  0.1303534E+00
         -2   -1    0    0    0  501 -0.00000000000E+00  0.00000000000E+00  0.22070166044E+02  0.22070166044E+02  0.00000000000E+00 0.  1.
          2   -1    0    0  501    0  0.00000000000E+00 -0.00000000000E+00 -0.57515525872E+03  0.57515525872E+03  0.00000000000E+00 0. -1.
         25    2    1    2    0    0 -0.44115379832E+01 -0.28467024809E+02 -0.34891864422E+03  0.37177958955E+03  0.12508401077E+03 0.  0.
          5    1    3    3  502    0 -0.33258072745E+01  0.30770624529E+02 -0.27586712064E+03  0.27762930857E+03  0.41800000000E+01 0.  1.
         -5    1    3    3    0  502 -0.10857307087E+01 -0.59237649338E+02 -0.73051523578E+02  0.94150280973E+02  0.41800000000E+01 0.  1.
        -11    1    1    2    0    0  0.36644394366E+02  0.40305716209E+02 -0.16287025530E+03  0.17173841288E+03  0.00000000000E+00 0. -1.
         11    1    1    2    0    0 -0.32232856383E+02 -0.11838691399E+02 -0.41296193152E+02  0.53707422331E+02  0.00000000000E+00 0.  1.
</event>
<event>
 7    1  0.2666594E-009  0.1474204E+03  0.7561462E-02  0.1203679E+00
         -1   -1    0    0    0  501 -0.00000000000E+00  0.00000000000E+00  0.33666032563E+03  0.33666032563E+03  0.00000000000E+00 0.  1.
          1   -1    0    0  501    0  0.00000000000E+00 -0.00000000000E+00 -0.79056065289E+02  0.79056065289E+02  0.00000000000E+00 0. -1.
         25    2    1    2    0    0  0.11818848382E+03 -0.26826911238E+02  0.16485569240E+03  0.23982061508E+03  0.12509327410E+03 0.  0.
          5    1    3    3  502    0 -0.12079005994E+02  0.25905515898E+02  0.97814278854E+01  0.30498309317E+02  0.41800000000E+01 0.  1.
         -5    1    3    3    0  502  0.13026748981E+03 -0.52732427135E+02  0.15507426452E+03  0.20932230576E+03  0.41800000000E+01 0.  1.
        -11    1    1    2    0    0 -0.57779037775E+02  0.29525440426E+02  0.95392251246E+02  0.11536832510E+03  0.00000000000E+00 0.  1.
         11    1    1    2    0    0 -0.60409446046E+02 -0.26985291883E+01 -0.26436833090E+01  0.60527450738E+02  0.00000000000E+00 0. -1.
</event>
<event>
 7    1  0.2666594E-009  0.1144796E+03  0.7561462E-02  0.1252492E+00
         -1   -1    0    0    0  501 -0.00000000000E+00  0.00000000000E+00  0.15704357586E+02  0.15704357586E+02  0.00000000000E+00 0.  1.
          1   -1    0    0  501    0  0.00000000000E+00 -0.00000000000E+00 -0.96552193295E+03  0.96552193295E+03  0.00000000000E+00 0. -1.
         25    2    1    2    0    0 -0.46245281931E+02 -0.13894655418E+02 -0.68058854820E+03  0.69367180642E+03  0.12509242795E+03 0.  0.
          5    1    3    3  502    0  0.12524797776E+02 -0.58421680883E+02 -0.32958860370E+03  0.33498669144E+03  0.41800000000E+01 0. -1.
         -5    1    3    3    0  502 -0.58770079708E+02  0.44527025465E+02 -0.35099994450E+03  0.35868511498E+03  0.41800000000E+01 0. -1.
        -11    1    1    2    0    0  0.22520426543E+02  0.48373984736E+02 -0.19676965352E+03  0.20387620890E+03  0.00000000000E+00 0. -1.
         11    1    1    2    0    0  0.23724855389E+02 -0.34479329318E+02 -0.72459373641E+02  0.83678275208E+02  0.00000000000E+00 0.  1.
</event>
<event>
 7    1  0.2666594E-009  0.1752830E+03  0.7561462E-02  0.1172448E+00
         -1   -1    0    0    0  501 -0.00000000000E+00  0.00000000000E+00  0.65582468062E+02  0.65582468062E+02  0.00000000000E+00 0.  1.
          1   -1    0    0  501    0  0.00000000000E+00 -0.00000000000E+00 -0.77369856413E+03  0.77369856413E+03  0.00000000000E+00 0. -1.
         25    2    1    2    0    0 -0.85741049890E+02  0.13840071322E+03 -0.15966446025E+03  0.26008986438E+03  0.12509081752E+03 0.  0.
          5    1    3    3  502    0 -0.36160730160E+02  0.26401599332E+02 -0.12482833268E+03  0.13268092513E+03  0.41800000000E+01 0.  1.
         -5    1    3    3    0  502 -0.49580319730E+02  0.11199911389E+03 -0.34836127572E+02  0.12740893925E+03  0.41800000000E+01 0.  1.
        -11    1    1    2    0    0  0.47200702122E+02 -0.13652937840E+03 -0.47108061425E+03  0.49273230315E+03  0.00000000000E+00 0. -1.
         11    1    1    2    0    0  0.38540347767E+02 -0.18713348226E+01 -0.77371021567E+02  0.86458864660E+02  0.00000000000E+00 0.  1.
</event>
<event>
 7    1  0.2666594E-009  0.1152294E+03  0.7561462E-02  0.1251181E+00
         -1   -1    0    0    0  501 -0.00000000000E+00  0.00000000000E+00  0.14848050415E+02  0.14848050415E+02  0.00000000000E+00 0.  1.
          1   -1    0    0  501    0  0.00000000000E+00 -0.00000000000E+00 -0.96959251662E+03  0.96959251662E+03  0.00000000000E+00 0. -1.
         25    2    1    2    0    0 -0.29219705403E+02  0.45124434173E+02 -0.63361285325E+03  0.64807623942E+03  0.12509020168E+03 0.  0.
          5    1    3    3  502    0  0.46991882046E+02  0.11483888327E+02 -0.16111317427E+03  0.16827074610E+03  0.41800000000E+01 0. -1.
         -5    1    3    3    0  502 -0.76211587449E+02  0.33640545847E+02 -0.47249967898E+03  0.47980549333E+03  0.41800000000E+01 0. -1.
        -11    1    1    2    0    0  0.35099635016E+02  0.14935971956E+02 -0.96443561487E+02  0.10371320161E+03  0.00000000000E+00 0. -1.
         11    1    1    2    0    0 -0.58799296123E+01 -0.60060406129E+02 -0.22468805147E+03  0.23265112600E+03  0.00000000000E+00 0.  1.
</event>
<event>
 7    1  0.2666594E-009  0.1006376E+03  0.7561462E-02  0.1278961E+00
          3   -1    0    0  501    0  0.00000000000E+00  0.00000000000E+00  0.36698590684E+03  0.36698590684E+03  0.00000000000E+00 0. -1.
         -3   -1    0    0    0  501 -0.00000000000E+00 -0.00000000000E+00 -0.53342148674E+02  0.53342148674E+02  0.00000000000E+00 0.  1.
         25    2    1    2    0    0  0.70585494695E+02  0.44140460250E+02  0.12975562670E+03  0.19853216206E+03  0.12509118442E+03 0.  0.
          5    1    3    3  502    0  0.74806982960E+02  0.39885196728E+02  0.15256184399E+03  0.17458379724E+03  0.41800000000E+01 0.  1.
         -5    1    3    3    0  502 -0.42214882656E+01  0.42552635220E+01 -0.22806217284E+02  0.23948364822E+02  0.41800000000E+01 0.  1.
        -11    1    1    2    0    0 -0.55934760459E+01  0.18194942820E+02  0.88860223820E+02  0.90876192128E+02  0.00000000000E+00 0. -1.
         11    1    1    2    0    0 -0.64992018649E+02 -0.62335403069E+02  0.95027907646E+02  0.13091970133E+03  0.00000000000E+00 0.  1.
</event>
<event>
 7    1  0.2666594E-009  0.1001927E+03  0.7561462E-02  0.1279891E+00
         -2   -1    0    0    0  501 -0.00000000000E+00  0.00000000000E+00  0.11032532829E+02  0.11032532829E+02  0.00000000000E+00 0.  1.
          2   -1    0    0  501    0  0.00000000000E+00 -0.00000000000E+00 -0.20125176986E+04  0.20125176986E+04  0.00000000000E+00 0. -1.
         25    2    1    2    0    0 -0.35722927102E+02  0.45776750616E+02 -0.16420372685E+04  0.16478183397E+04  0.12508897318E+03 0.  0.
          5    1    3    3  502    0 -0.56878502026E+02  0.32265550924E+02 -0.38592654127E+03  0.39144986579E+03  0.41800000000E+01 0. -1.
         -5    1    3    3    0  502  0.21155574924E+02  0.13511199692E+02 -0.12561107272E+04  0.12563684739E+04  0.41800000000E+01 0. -1.
        -11    1    1    2    0    0 -0.24167117990E+02  0.11300839081E+02 -0.88995221440E+02  0.92908062056E+02  0.00000000000E+00 0. -1.
         11    1    1    2    0    0  0.59890045092E+02 -0.57077589697E+02 -0.27045267587E+03  0.28282382968E+03  0.00000000000E+00 0.  1.
</event>
<event>
 7    1  0.2666594E-009  0.1101744E+03  0.7561462E-02  0.1260247E+00
          2   -1    0    0  501    0  0.00000000000E+00  0.00000000000E+00  0.10280519478E+04  0.10280519478E+04  0.00000000000E+00 0. -1.
         -2   -1    0    0    0  501 -0.00000000000E+00 -0.00000000000E+00 -0.16231892871E+02  0.16231892871E+02  0.00000000000E+00 0.  1.
         25    2    1    2    0    0 -0.43176959926E+02 -0.55564989222E+02  0.52751027170E+03  0.54668808623E+03  0.12509619888E+03 0.  0.
          5    1    3    3  502    0  0.28142941235E+02 -0.35501011670E+02  0.36753360244E+03  0.37033872103E+03  0.41800000000E+01 0.  1.
         -5    1    3    3    0  502 -0.71319901162E+02 -0.20063977552E+02  0.15997666927E+03  0.17634936520E+03  0.41800000000E+01 0.  1.
        -11    1    1    2    0    0 -0.19366391064E+02  0.44439013460E+01  0.28862953071E+02  0.35041053380E+02  0.00000000000E+00 0. -1.
         11    1    1    2    0    0  0.62543350990E+02  0.51121087876E+02  0.45544683021E+03  0.46255470111E+03  0.00000000000E+00 0.  1.
</event>
<event>
 7    1  0.2666594E-009  0.1102855E+03  0.7561462E-02  0.1260042E+00
         -2   -1    0    0    0  501 -0.00000000000E+00  0.00000000000E+00  0.24878542534E+02  0.24878542534E+02  0.00000000000E+00 0.  1.
          2   -1    0    0  501    0  0.00000000000E+00 -0.00000000000E+00 -0.64867126785E+03  0.64867126785E+03  0.00000000000E+00 0. -1.
         25    2    1    2    0    0 -0.42824454106E+02  0.34902963467E+02 -0.42900916789E+03  0.45027594120E+03  0.12508959334E+03 0.  0.
          5    1    3    3  502    0 -0.77210910510E+02  0.16699481532E+01 -0.34459035194E+03  0.35316327170E+03  0.41800000000E+01 0. -1.
         -5    1    3    3    0  502  0.34386456404E+02  0.33233015314E+02 -0.84418815952E+02  0.97112669501E+02  0.41800000000E+01 0. -1.
        -11    1    1    2    0    0  0.40195599460E+02  0.16720868697E+02 -0.14542754443E+03  0.15180396682E+03  0.00000000000E+00 0. -1.
         11    1    1    2    0    0  0.26288546453E+01 -0.51623832164E+02 -0.49356013002E+02  0.71469902361E+02  0.00000000000E+00 0.  1.
</event>
<event>
 7    1  0.2666594E-009  0.2624070E+03  0.7561462E-02  0.1105706E+00
          2   -1    0    0  501    0  0.00000000000E+00  0.00000000000E+00  0.71661347135E+03  0.71661347135E+03  0.00000000000E+00 0. -1.
         -2   -1    0    0    0  501 -0.00000000000E+00 -0.00000000000E+00 -0.10120981455E+03  0.10120981455E+03  0.00000000000E+00 0.  1.
         25    2    1    2    0    0 -0.21009861058E+03 -0.12816386782E+03  0.32060492870E+03  0.42308726329E+03  0.12509160190E+03 0.  0.
          5    1    3    3  502    0 -0.99911414409E+02 -0.13198466399E+03  0.18554801677E+03  0.24869214138E+03  0.41800000000E+01 0. -1.
         -5    1    3    3    0  502 -0.11018719617E+03  0.38207961723E+01  0.13505691194E+03  0.17439512191E+03  0.41800000000E+01 0. -1.
        -11    1    1    2    0    0  0.11463679246E+03  0.91333549529E+02  0.10911876272E+03  0.18273017220E+03  0.00000000000E+00 0.  1.
         11    1    1    2    0    0  0.95461818115E+02  0.36830318293E+02  0.18567996538E+03  0.21200585041E+03  0.00000000000E+00 0. -1.
</event>
<event>
 7    1  0.2666594E-009  0.7123542E+02  0.7561462E-02  0.1355942E+00
          1   -1    0    0  501    0  0.00000000000E+00  0.00000000000E+00  0.20172606195E+03  0.20172606195E+03  0.00000000000E+00 0. -1.
         -1   -1    0    0    0  501 -0.00000000000E+00 -0.00000000000E+00 -0.63583466963E+02  0.63583466963E+02  0.00000000000E+00 0.  1.
         25    2    1    2    0    0 -0.22041477094E+02  0.62824253672E+01  0.56792231723E+02  0.13928246408E+03  0.12509576986E+03 0.  0.
          5    1    3    3  502    0 -0.46382890915E+02 -0.75928604150E+00  0.87576551160E+02  0.99192105522E+02  0.41800000000E+01 0. -1.
         -5    1    3    3    0  502  0.24341413821E+02  0.70417114087E+01 -0.30784319436E+02  0.40090358561E+02  0.41800000000E+01 0. -1.
        -11    1    1    2    0    0  0.19681417680E+01  0.29295627620E+02  0.79929908544E+02  0.85152202905E+02  0.00000000000E+00 0. -1.
         11    1    1    2    0    0  0.20073335326E+02 -0.35578052987E+02  0.14204547150E+01  0.40874861921E+02  0.00000000000E+00 0.  1.
</event>
<event>
 7    1  0.5182051E-009  0.1001323E+03  0.7561462E-02  0.1280018E+00
         -2   -1    0    0    0  501 -0.00000000000E+00  0.00000000000E+00  0.15539648162E+02  0.15539648162E+02  0.00000000000E+00 0.  1.
          2   -1    0    0  501    0  0.00000000000E+00 -0.00000000000E+00 -0.13157211343E+04  0.13157211343E+04  0.00000000000E+00 0. -1.
         25    2    1    2    0    0 -0.72737440947E+02  0.33993464530E+01 -0.96953839069E+03  0.98028279934E+03  0.12508950708E+03 0.  0.
          5    1    3    3  502    0  0.15664102863E+02  0.70774863874E+01 -0.20322681766E+02  0.26943250105E+02  0.41800000000E+01 0.  1.
         -5    1    3    3    0  502 -0.88401543810E+02 -0.36781399344E+01 -0.94921570892E+03  0.95333954923E+03  0.41800000000E+01 0.  1.
        -11    1    1    2    0    0  0.52327099373E+02 -0.30118074246E+02 -0.29821557000E+03  0.30426591974E+03  0.00000000000E+00 0. -1.
         11    1    1    2    0    0  0.20410341574E+02  0.26718727793E+02 -0.32427525418E+02  0.46712063354E+02  0.00000000000E+00 0.  1.
</event>
<event>
 7    1  0.2666594E-009  0.6318984E+02  0.7561462E-02  0.1384913E+00
         -2   -1    0    0    0  501 -0.00000000000E+00  0.00000000000E+00  0.20427390403E+02  0.20427390403E+02  0.00000000000E+00 0.  1.
          2   -1    0    0  501    0  0.00000000000E+00 -0.00000000000E+00 -0.69320394516E+03  0.69320394516E+03  0.00000000000E+00 0. -1.
         25    2    1    2    0    0  0.41006684682E+02  0.21455002247E+02 -0.34933704619E+03  0.37393249993E+03  0.12508907767E+03 0.  0.
          5    1    3    3  502    0  0.17000727153E+02 -0.11787727663E+01  0.48364049947E+01  0.18201028603E+02  0.41800000000E+01 0.  1.
         -5    1    3    3    0  502  0.24005957530E+02  0.22633775013E+02 -0.35417345118E+03  0.35573147132E+03  0.41800000000E+01 0.  1.
        -11    1    1    2    0    0 -0.37860535656E+01  0.19714777612E+02 -0.12075494488E+02  0.23426997781E+02  0.00000000000E+00 0.  1.
         11    1    1    2    0    0 -0.37220631117E+02 -0.41169779859E+02 -0.31136401408E+03  0.31627183785E+03  0.00000000000E+00 0. -1.
</event>
<event>
 7    1  0.2666594E-009  0.1673426E+03  0.7561462E-02  0.1180648E+00
          1   -1    0    0  501    0  0.00000000000E+00  0.00000000000E+00  0.65851670637E+02  0.65851670637E+02  0.00000000000E+00 0. -1.
         -1   -1    0    0    0  501 -0.00000000000E+00 -0.00000000000E+00 -0.63924821195E+03  0.63924821195E+03  0.00000000000E+00 0.  1.
         25    2    1    2    0    0 -0.10965068505E+03  0.11134800567E+03 -0.16930663923E+03  0.26217304991E+03  0.12509324087E+03 0.  0.
          5    1    3    3  502    0 -0.11044605820E+03  0.60318798794E+02 -0.55944410712E+02  0.13778221492E+03  0.41800000000E+01 0. -1.
         -5    1    3    3    0  502  0.79537314916E+00  0.51029206876E+02 -0.11336222852E+03  0.12439083498E+03  0.41800000000E+01 0. -1.
        -11    1    1    2    0    0  0.93838362527E+02 -0.83837809876E+02 -0.38687909055E+03  0.40682901489E+03  0.00000000000E+00 0.  1.
         11    1    1    2    0    0  0.15812322521E+02 -0.27510195794E+02 -0.17210811532E+02  0.36097817797E+02  0.00000000000E+00 0. -1.
</event>
<event>
 7    1  0.2666594E-009  0.1335466E+03  0.7561462E-02  0.1222286E+00
         -2   -1    0    0    0  501 -0.00000000000E+00  0.00000000000E+00  0.10255533025E+03  0.10255533025E+03  0.00000000000E+00 0.  1.
          2   -1    0    0  501    0  0.00000000000E+00 -0.00000000000E+00 -0.23906889808E+03  0.23906889808E+03  0.00000000000E+00 0. -1.
         25    2    1    2    0    0 -0.43571577293E+02 -0.95793830146E+02 -0.28626601096E+02  0.16597217704E+03  0.12510931628E+03 0.  0.
          5    1    3    3  502    0 -0.41984356216E+02 -0.12913766228E+01  0.32553116618E+02  0.53306018628E+02  0.41800000000E+01 0.  1.
         -5    1    3    3    0  502 -0.15872210767E+01 -0.94502453523E+02 -0.61179717714E+02  0.11266615842E+03  0.41800000000E+01 0.  1.
        -11    1    1    2    0    0 -0.77091233963E+01  0.74253205209E+02 -0.90626434442E+02  0.11741430785E+03  0.00000000000E+00 0. -1.
         11    1    1    2    0    0  0.51280700689E+02  0.21540624937E+02 -0.17260532286E+02  0.58237743437E+02  0.00000000000E+00 0.  1.
</event>
<event>
 7    1  0.2666594E-009  0.1261531E+03  0.7561462E-02  0.1233278E+00
          2   -1    0    0  501    0  0.00000000000E+00  0.00000000000E+00  0.11852197595E+04  0.11852197595E+04  0.00000000000E+00 0. -1.
         -2   -1    0    0    0  501 -0.00000000000E+00 -0.00000000000E+00 -0.15669202301E+02  0.15669202301E+02  0.00000000000E+00 0.  1.
         25    2    1    2    0    0  0.40301377526E+02  0.72090506606E+02  0.68865606730E+03  0.70478092278E+03  0.12509087863E+03 0.  0.
          5    1    3    3  502    0 -0.44609448786E+02  0.21940173376E+02  0.27703467014E+03  0.28149077247E+03  0.41800000000E+01 0. -1.
         -5    1    3    3    0  502  0.84910826311E+02  0.50150333230E+02  0.41162139716E+03  0.42329015031E+03  0.41800000000E+01 0. -1.
        -11    1    1    2    0    0  0.16894662497E+02 -0.11783996525E+02  0.23614888016E+02  0.31336163310E+02  0.00000000000E+00 0.  1.
         11    1    1    2    0    0 -0.57196040023E+02 -0.60306510081E+02  0.45727960191E+03  0.46477187574E+03  0.00000000000E+00 0. -1.
</event>
<event>
 7    1  0.2666594E-009  0.8114120E+02  0.7561462E-02  0.1325844E+00
          1   -1    0    0  501    0  0.00000000000E+00  0.00000000000E+00  0.13846556115E+03  0.13846556115E+03  0.00000000000E+00 0. -1.
         -1   -1    0    0    0  501 -0.00000000000E+00 -0.00000000000E+00 -0.10409739397E+03  0.10409739397E+03  0.00000000000E+00 0.  1.
         25    2    1    2    0    0  0.41216942880E+02  0.22984111833E+01 -0.12693154406E+02  0.13231936146E+03  0.12507269156E+03 0.  0.
          5    1    3    3  502    0  0.20600544294E+02 -0.22024637428E+02  0.51896022788E+02  0.60167571500E+02  0.41800000000E+01 0. -1.
         -5    1    3    3    0  502  0.20616398585E+02  0.24323048611E+02 -0.64589177194E+02  0.72151789963E+02  0.41800000000E+01 0. -1.
        -11    1    1    2    0    0 -0.38112889045E+02  0.41168135984E+02  0.25539714542E+02  0.61641582967E+02  0.00000000000E+00 0.  1.
         11    1    1    2    0    0 -0.31040538350E+01 -0.43466547168E+02  0.21521607043E+02  0.48602010685E+02  0.00000000000E+00 0. -1.
</event>
<event>
 7    1  0.2666594E-009  0.9364440E+02  0.7561462E-02  0.1294259E+00
         -1   -1    0    0    0  501 -0.00000000000E+00  0.00000000000E+00  0.59429880713E+02  0.59429880713E+02  0.00000000000E+00 0.  1.
          1   -1    0    0  501    0  0.00000000000E+00 -0.00000000000E+00 -0.24112235590E+03  0.24112235590E+03  0.00000000000E+00 0. -1.
         25    2    1    2    0    0 -0.46370578649E+02 -0.38860777726E+02 -0.10110065932E+03  0.17184155980E+03  0.12509111780E+03 0.  0.
          5    1    3    3  502    0  0.27136797529E+02 -0.32820368529E+02 -0.86547745492E+02  0.96548262648E+02  0.41800000000E+01 0.  1.
         -5    1    3    3    0  502 -0.73507376178E+02 -0.60404091971E+01 -0.14552913823E+02  0.75293297156E+02  0.41800000000E+01 0.  1.
        -11    1    1    2    0    0  0.25737146608E+02 -0.98208044560E+00 -0.79780305260E+02  0.83834732092E+02  0.00000000000E+00 0. -1.
         11    1    1    2    0    0  0.20633432041E+02  0.39842858172E+02 -0.81151061393E+00  0.44875944721E+02  0.00000000000E+00 0.  1.
</event>
<event>
 7    1  0.2666594E-009  0.1072998E+03  0.7561462E-02  0.1265654E+00
         -4   -1    0    0    0  501 -0.00000000000E+00  0.00000000000E+00  0.60895497800E+02  0.60895497800E+02  0.00000000000E+00 0.  1.
          4   -1    0    0  501    0  0.00000000000E+00 -0.00000000000E+00 -0.27378749139E+03  0.27378749139E+03  0.00000000000E+00 0. -1.
         25    2    1    2    0    0  0.63810047907E+02 -0.12649427913E+02 -0.14658072404E+03  0.20338767965E+03  0.12509560077E+03 0.  0.
          5    1    3    3  502    0 -0.30816980831E+02 -0.30664492523E+02 -0.35372054585E+02  0.56201886577E+02  0.41800000000E+01 0.  1.
         -5    1    3    3    0  502  0.94627028739E+02  0.18015064609E+02 -0.11120866946E+03  0.14718579308E+03  0.41800000000E+01 0.  1.
        -11    1    1    2    0    0 -0.10663908846E+02  0.18177740247E+02  0.20472271564E+02  0.29381339237E+02  0.00000000000E+00 0.  1.
         11    1    1    2    0    0 -0.53146139061E+02 -0.55283123337E+01 -0.86783541107E+02  0.10191397030E+03  0.00000000000E+00 0. -1.
</event>
<event>
 7    1  0.2666594E-009  0.1578838E+03  0.7561462E-02  0.1191107E+00
          1   -1    0    0  501    0  0.00000000000E+00  0.00000000000E+00  0.11074433765E+03  0.11074433765E+03  0.00000000000E+00 0. -1.
         -1   -1    0    0    0  501 -0.00000000000E+00 -0.00000000000E+00 -0.25892503449E+03  0.25892503449E+03  0.00000000000E+00 0.  1.
         25    2    1    2    0    0 -0.12734629100E+02 -0.11665014141E+03 -0.19874972043E+02  0.17266994036E+03  0.12510182861E+03 0.  0.
          5    1    3    3  502    0  0.19401237234E+02  0.21711705638E+02 -0.32656591750E+01  0.29596335884E+02  0.41800000000E+01 0.  1.
         -5    1    3    3    0  502 -0.32135866334E+02 -0.13836184705E+03 -0.16609312868E+02  0.14307360447E+03  0.41800000000E+01 0.  1.
        -11    1    1    2    0    0 -0.33325172463E+02  0.24957383950E+02 -0.62507481404E+02  0.75104083543E+02  0.00000000000E+00 0.  1.
         11    1    1    2    0    0  0.46059801563E+02  0.91692757457E+02 -0.65798243390E+02  0.12189534824E+03  0.00000000000E+00 0. -1.
</event>
<event>
 7    1  0.2666594E-009  0.2036089E+03  0.7561462E-02  0.1146729E+00
          2   -1    0    0  501    0  0.00000000000E+00  0.00000000000E+00  0.46648496947E+03  0.46648496947E+03  0.00000000000E+00 0. -1.
         -2   -1    0    0    0  501 -0.00000000000E+00 -0.00000000000E+00 -0.13954964201E+03  0.13954964201E+03  0.00000000000E+00 0.  1.
         25    2    1    2    0    0  0.62942794945E+02  0.17787693558E+03  0.10854570584E+02  0.22664457708E+03  0.12509173821E+03 0.  0.
          5    1    3    3  502    0  0.93594125962E+02  0.14355043755E+03 -0.17692856896E+02  0.17232845999E+03  0.41800000000E+01 0.  1.
         -5    1    3    3    0  502 -0.30651331017E+02  0.34326498028E+02  0.28547427480E+02  0.54316117090E+02  0.41800000000E+01 0.  1.
        -11    1    1    2    0    0 -0.55478674675E+02 -0.13315259990E+03  0.15365602184E+03  0.21075500291E+03  0.00000000000E+00 0.  1.
         11    1    1    2    0    0 -0.74641202698E+01 -0.44724335676E+02  0.16242473504E+03  0.16863503149E+03  0.00000000000E+00 0. -1.
</event>
<event>
 7    1  0.2666594E-009  0.1063855E+03  0.7561462E-02  0.1267414E+00
         -1   -1    0    0    0  501 -0.00000000000E+00  0.00000000000E+00  0.44911146547E+03  0.44911146547E+03  0.00000000000E+00 0.  1.
          1   -1    0    0  501    0  0.00000000000E+00 -0.00000000000E+00 -0.34136404211E+02  0.34136404211E+02  0.00000000000E+00 0. -1.
         25    2    1    2    0    0 -0.37837986208E+02 -0.46646715957E+02  0.23453370465E+03  0.27251043051E+03  0.12509295267E+03 0.  0.
          5    1    3    3  502    0 -0.21461169574E-01 -0.62856779471E+02  0.42303048626E+02  0.75881456952E+02  0.41800000000E+01 0. -1.
         -5    1    3    3    0  502 -0.37816525038E+02  0.16210063515E+02  0.19223065603E+03  0.19662897356E+03  0.41800000000E+01 0. -1.
        -11    1    1    2    0    0  0.61104840159E+02  0.57595374635E+01  0.11147178621E+03  0.12725145533E+03  0.00000000000E+00 0.  1.
         11    1    1    2    0    0 -0.23266853951E+02  0.40887178493E+02  0.68969570401E+02  0.83485983849E+02  0.00000000000E+00 0. -1.
</event>
<event>
 7    1  0.2666594E-009  0.9920744E+02  0.7561462E-02  0.1281971E+00
          1   -1    0    0  501    0  0.00000000000E+00  0.00000000000E+00  0.11824344872E+04  0.11824344872E+04  0.00000000000E+00 0. -1.
         -1   -1    0    0    0  501 -0.00000000000E+00 -0.00000000000E+00 -0.39463239999E+02  0.39463239999E+02  0.00000000000E+00 0.  1.
         25    2    1    2    0    0 -0.50342487268E+02  0.29034383358E+02  0.10905050563E+04  0.10991950678E+04  0.12510458763E+03 0.  0.
          5    1    3    3  502    0 -0.73118981907E+02  0.39287020488E+02  0.10332746521E+04  0.10366117087E+04  0.41800000000E+01 0. -1.
         -5    1    3    3    0  502  0.22776494639E+02 -0.10252637130E+02  0.57230404243E+02  0.62583359178E+02  0.41800000000E+01 0. -1.
        -11    1    1    2    0    0  0.54164324328E+02  0.62184475654E+01 -0.54517459518E+01  0.54792012684E+02  0.00000000000E+00 0.  1.
         11    1    1    2    0    0 -0.38218370605E+01 -0.35252830923E+02  0.57917936862E+02  0.67910646713E+02  0.00000000000E+00 0. -1.
</event>
<event>
 7    1  0.3319756E-009  0.1986766E+03  0.7561462E-02  0.1150860E+00
          2   -1    0    0  501    0  0.00000000000E+00  0.00000000000E+00  0.21845693465E+04  0.21845693465E+04  0.00000000000E+00 0. -1.
         -2   -1    0    0    0  501 -0.00000000000E+00 -0.00000000000E+00 -0.19196630730E+02  0.19196630730E+02  0.00000000000E+00 0.  1.
         25    2    1    2    0    0  0.17119544922E+03 -0.67667800599E+01  0.99606097340E+03  0.10184010491E+04  0.12509821310E+03 0.  0.
          5    1    3    3  502    0  0.14940622839E+03  0.36898817404E+02  0.60481643190E+03  0.62410266183E+03  0.41800000000E+01 0.  1.
         -5    1    3    3    0  502  0.21789220833E+02 -0.43665597464E+02  0.39124454151E+03  0.39429838727E+03  0.41800000000E+01 0.  1.
        -11    1    1    2    0    0 -0.46808195151E+02  0.44349239410E+02  0.38754864755E+03  0.39287633727E+03  0.00000000000E+00 0.  1.
         11    1    1    2    0    0 -0.12438725407E+03 -0.37582459350E+02  0.78176309483E+03  0.79248859087E+03  0.00000000000E+00 0. -1.
</event>
<event>
 7    1  0.2666594E-009  0.8113216E+02  0.7561462E-02  0.1325869E+00
          2   -1    0    0  501    0  0.00000000000E+00  0.00000000000E+00  0.11320078936E+03  0.11320078936E+03  0.00000000000E+00 0. -1.
         -2   -1    0    0    0  501 -0.00000000000E+00 -0.00000000000E+00 -0.11968989923E+03  0.11968989923E+03  0.00000000000E+00 0.  1.
         25    2    1    2    0    0 -0.52941056115E+01  0.37155551035E+02 -0.17441658590E+02  0.13174914903E+03  0.12508023140E+03 0.  0.
          5    1    3    3  502    0  0.18419839086E+02  0.62736611498E+02  0.30535580179E+02  0.72284624582E+02  0.41800000000E+01 0.  1.
         -5    1    3    3    0  502 -0.23713944698E+02 -0.25581060462E+02 -0.47977238769E+02  0.59464524444E+02  0.41800000000E+01 0.  1.
        -11    1    1    2    0    0  0.17000978077E+02  0.51143332099E+01 -0.33987510584E+02  0.38345019696E+02  0.00000000000E+00 0.  1.
         11    1    1    2    0    0 -0.11706872466E+02 -0.42269884245E+02  0.44940059302E+02  0.62796519865E+02  0.00000000000E+00 0. -1.
</event>
<event>
 7    1  0.2666594E-009  0.1353090E+03  0.7561462E-02  0.1219784E+00
          2   -1    0    0  501    0  0.00000000000E+00  0.00000000000E+00  0.45825190584E+03  0.45825190584E+03  0.00000000000E+00 0. -1.
         -2   -1    0    0    0  501 -0.00000000000E+00 -0.00000000000E+00 -0.54095262723E+02  0.54095262723E+02  0.00000000000E+00 0.  1.
         25    2    1    2    0    0  0.57421210339E+02 -0.64266466504E+02  0.96724634491E+02  0.18008170202E+03  0.12508553222E+03 0.  0.
          5    1    3    3  502    0 -0.69733308139E+01 -0.78446341768E+02  0.25394354640E+02  0.82854097829E+02  0.41800000000E+01 0. -1.
         -5    1    3    3    0  502  0.64394541153E+02  0.14179875264E+02  0.71330279851E+02  0.97227604190E+02  0.41800000000E+01 0. -1.
        -11    1    1    2    0    0 -0.47767516231E+02 -0.11638855894E+02  0.10824638315E+03  0.11888851096E+03  0.00000000000E+00 0.  1.
         11    1    1    2    0    0 -0.96536941079E+01  0.75905322398E+02  0.19918562547E+03  0.21337695558E+03  0.00000000000E+00 0. -1.
</event>
<event>
 7    1  0.2666594E-009  0.4886976E+02  0.7561462E-02  0.1451535E+00
         -2   -1    0    0    0  501 -0.00000000000E+00  0.00000000000E+00  0.23837713891E+02  0.23837713891E+02  0.00000000000E+00 0.  1.
          2   -1    0    0  501    0  0.00000000000E+00 -0.00000000000E+00 -0.56886414602E+03  0.56886414602E+03  0.00000000000E+00 0. -1.
         25    2    1    2    0    0  0.25788457131E+01  0.33286388459E+02 -0.45483609539E+03  0.47290403722E+03  0.12509084960E+03 0.  0.
          5    1    3    3  502    0 -0.12919986585E+02  0.68741077283E+01  0.17073381345E+01  0.15315574228E+02  0.41800000000E+01 0.  1.
         -5    1    3    3    0  502  0.15498832298E+02  0.26412280731E+02 -0.45654343352E+03  0.45758846299E+03  0.41800000000E+01 0.  1.
        -11    1    1    2    0    0 -0.13969160307E+02  0.23800682810E+01 -0.79650925519E+02  0.80901619890E+02  0.00000000000E+00 0. -1.
         11    1    1    2    0    0  0.11390314594E+02 -0.35666456740E+02 -0.10539411221E+02  0.38896202795E+02  0.00000000000E+00 0.  1.
</event>
<event>
 7    1  0.2666594E-009  0.8909615E+02  0.7561462E-02  0.1305055E+00
          1   -1    0    0  501    0  0.00000000000E+00  0.00000000000E+00  0.38525756966E+03  0.38525756966E+03  0.00000000000E+00 0. -1.
         -1   -1    0    0    0  501 -0.00000000000E+00 -0.00000000000E+00 -0.33027745447E+02  0.33027745447E+02  0.00000000000E+00 0.  1.
         25    2    1    2    0    0 -0.29123870906E+01 -0.95685873601E+01  0.14813531733E+03  0.19414265644E+03  0.12508900409E+03 0.  0.
          5    1    3    3  502    0 -0.57740640959E+01  0.37513642449E+02  0.14121392875E+03  0.14628554015E+03  0.41800000000E+01 0. -1.
         -5    1    3    3    0  502  0.28616770053E+01 -0.47082229809E+02  0.69213885858E+01  0.47857116284E+02  0.41800000000E+01 0. -1.
        -11    1    1    2    0    0  0.23539233528E+02  0.45496593558E+02  0.11182956163E+03  0.12300360317E+03  0.00000000000E+00 0. -1.
         11    1    1    2    0    0 -0.20626846438E+02 -0.35928006198E+02  0.92264945256E+02  0.10113905550E+03  0.00000000000E+00 0.  1.
</event>
<event>
 7    1  0.2666594E-009  0.1012719E+03  0.7561462E-02  0.1277644E+00
         -2   -1    0    0    0  501 -0.00000000000E+00  0.00000000000E+00  0.72494310945E+02  0.72494310945E+02  0.00000000000E+00 0. -1.
          2   -1    0    0  501    0  0.00000000000E+00 -0.00000000000E+00 -0.18167747555E+03  0.18167747555E+03  0.00000000000E+00 0.  1.
         25    2    1    2    0    0  0.18612153650E+02 -0.11847913382E+02 -0.10128418941E+03  0.16245962107E+03  0.12509139115E+03 0.  0.
          5    1    3    3  502    0 -0.42232488556E+02 -0.26108259739E+02 -0.85490958706E+01  0.50554759978E+02  0.41800000000E+01 0.  1.
         -5    1    3    3    0  502  0.60844642206E+02  0.14260346357E+02 -0.92735093538E+02  0.11190486110E+03  0.41800000000E+01 0.  1.
        -11    1    1    2    0    0  0.72243296829E+01 -0.35455877882E+02  0.43302799285E+01  0.36442578669E+02  0.00000000000E+00 0.  1.
         11    1    1    2    0    0 -0.25836483333E+02  0.47303791264E+02 -0.12229255127E+02  0.55269586753E+02  0.00000000000E+00 0. -1.
</event>
<event>
 7    1  0.2666594E-009  0.1074326E+03  0.7561462E-02  0.1265399E+00
          3   -1    0    0  501    0  0.00000000000E+00  0.00000000000E+00  0.49675052409E+02  0.49675052409E+02  0.00000000000E+00 0. -1.
         -3   -1    0    0    0  501 -0.00000000000E+00 -0.00000000000E+00 -0.29521639368E+03  0.29521639368E+03  0.00000000000E+00 0.  1.
         25    2    1    2    0    0  0.18708987473E+02 -0.40880461921E+02 -0.93961670693E+02  0.16277813830E+03  0.12508672340E+03 0.  0.
          5    1    3    3  502    0 -0.17799864010E+02  0.31643616602E+02 -0.68401252292E+02  0.77552287817E+02  0.41800000000E+01 0. -1.
         -5    1    3    3    0  502  0.36508851483E+02 -0.72524078523E+02 -0.25560418401E+02  0.85225850486E+02  0.41800000000E+01 0. -1.
        -11    1    1    2    0    0  0.27541542360E+02  0.42607213261E+02 -0.53886374186E+02  0.74011164701E+02  0.00000000000E+00 0. -1.
         11    1    1    2    0    0 -0.46250529833E+02 -0.17267513404E+01 -0.97693296392E+02  0.10810214309E+03  0.00000000000E+00 0.  1.
</event>
<event>
 7    1  0.2666594E-009  0.1448209E+03  0.7561462E-02  0.1206985E+00
         -2   -1    0    0    0  501 -0.00000000000E+00  0.00000000000E+00  0.73870404913E+02  0.73870404913E+02  0.00000000000E+00 0.  1.
          2   -1    0    0  501    0  0.00000000000E+00 -0.00000000000E+00 -0.35399893308E+03  0.35399893308E+03  0.00000000000E+00 0. -1.
         25    2    1    2    0    0 -0.32689732223E+02 -0.10274207941E+03 -0.75040446103E+02  0.18139297862E+03  0.12509112945E+03 0.  0.
          5    1    3    3  502    0 -0.65003099640E+02 -0.14832786272E+02 -0.10628242295E+02  0.67645003110E+02  0.41800000000E+01 0.  1.
         -5    1    3    3    0  502  0.32313367417E+02 -0.87909293136E+02 -0.64412203808E+02  0.11374797551E+03  0.41800000000E+01 0.  1.
        -11    1    1    2    0    0  0.46936269397E+02  0.31726438983E+02 -0.51056476602E+02  0.76264959965E+02  0.00000000000E+00 0.  1.
         11    1    1    2    0    0 -0.14246537174E+02  0.71015640425E+02 -0.15403160546E+03  0.17021139940E+03  0.00000000000E+00 0. -1.
</event>
<event>
 7    1  0.2666594E-009  0.1075222E+03  0.7561462E-02  0.1265228E+00
          2   -1    0    0  501    0  0.00000000000E+00  0.00000000000E+00  0.31550103422E+03  0.31550103422E+03  0.00000000000E+00 0. -1.
         -2   -1    0    0    0  501 -0.00000000000E+00 -0.00000000000E+00 -0.75076033008E+02  0.75076033008E+02  0.00000000000E+00 0.  1.
         25    2    1    2    0    0  0.68798760715E+01 -0.76692992570E+02  0.22658913962E+03  0.27003516533E+03  0.12508878652E+03 0.  0.
          5    1    3    3  502    0  0.24107454304E+02 -0.86206083032E+02  0.74255497150E+02  0.11637873243E+03  0.41800000000E+01 0. -1.
         -5    1    3    3    0  502 -0.17227578232E+02  0.95130904620E+01  0.15233364247E+03  0.15365643290E+03  0.41800000000E+01 0. -1.
        -11    1    1    2    0    0 -0.39316339649E+02  0.47648537898E+02  0.36193894105E+02  0.71597176604E+02  0.00000000000E+00 0.  1.
         11    1    1    2    0    0  0.32436463577E+02  0.29044454672E+02 -0.22358032515E+02  0.48944725299E+02  0.00000000000E+00 0. -1.
</event>
<event>
 7    1  0.2666594E-009  0.1163017E+03  0.7561462E-02  0.1249326E+00
          1   -1    0    0  501    0  0.00000000000E+00  0.00000000000E+00  0.52098844515E+03  0.52098844515E+03  0.00000000000E+00 0. -1.
         -1   -1    0    0    0  501 -0.00000000000E+00 -0.00000000000E+00 -0.39720487211E+02  0.39720487211E+02  0.00000000000E+00 0.  1.
         25    2    1    2    0    0 -0.15349961136E+02 -0.60980076838E+02  0.38853095300E+03  0.41298118632E+03  0.12507185031E+03 0.  0.
          5    1    3    3  502    0 -0.32554398443E+02  0.18567930690E+02  0.39691272604E+02  0.54748757328E+02  0.41800000000E+01 0.  1.
         -5    1    3    3    0  502  0.17204437307E+02 -0.79548007528E+02  0.34883968039E+03  0.35823242899E+03  0.41800000000E+01 0.  1.
        -11    1    1    2    0    0 -0.85552923444E+01 -0.23811695286E+02  0.31664603227E+02  0.40531925158E+02  0.00000000000E+00 0. -1.
         11    1    1    2    0    0  0.23905253480E+02  0.84791772124E+02  0.61072401720E+02  0.10719582089E+03  0.00000000000E+00 0.  1.
</event>
<event>
 7    1  0.2666594E-009  0.1116032E+03  0.7561462E-02  0.1257629E+00
         -1   -1    0    0    0  501 -0.00000000000E+00  0.00000000000E+00  0.31762295257E+02  0.31762295257E+02  0.00000000000E+00 0.  1.
          1   -1    0    0  501    0  0.00000000000E+00 -0.00000000000E+00 -0.66204439624E+03  0.66204439624E+03  0.00000000000E+00 0. -1.
         25    2    1    2    0    0  0.34225997172E+02 -0.80402887439E+02 -0.45535310996E+03  0.48024011241E+03  0.12509223648E+03 0.  0.
          5    1    3    3  502    0 -0.23540591261E+02 -0.72578399788E+02 -0.13980874309E+03  0.15932903250E+03  0.41800000000E+01 0.  1.
         -5    1    3    3    0  502  0.57766588434E+02 -0.78244876504E+01 -0.31554436687E+03  0.32091107991E+03  0.41800000000E+01 0.  1.
        -11    1    1    2    0    0 -0.14829779572E+02  0.51087903446E+02 -0.23578760153E+02  0.58188093035E+02  0.00000000000E+00 0. -1.
         11    1    1    2    0    0 -0.19396217600E+02  0.29314983993E+02 -0.15135023087E+03  0.15537848605E+03  0.00000000000E+00 0.  1.
</event>
<event>
 7    1  0.2666594E-009  0.6947662E+02  0.7561462E-02  0.1361882E+00
          2   -1    0    0  501    0  0.00000000000E+00  0.00000000000E+00  0.68289491557E+03  0.68289491557E+03  0.00000000000E+00 0.  1.
         -2   -1    0    0    0  501 -0.00000000000E+00 -0.00000000000E+00 -0.54334887916E+02  0.54334887916E+02  0.00000000000E+00 0. -1.
         25    2    1    2    0    0  0.28354267182E+02 -0.43491769978E+02  0.61831351355E+03  0.63297194492E+03  0.12508550477E+03 0.  0.
          5    1    3    3  502    0  0.50377963812E+02 -0.29202766007E+02  0.59426202886E+03  0.59712274461E+03  0.41800000000E+01 0. -1.
         -5    1    3    3    0  502 -0.22023696630E+02 -0.14289003971E+02  0.24051484684E+02  0.35849200315E+02  0.41800000000E+01 0. -1.
        -11    1    1    2    0    0 -0.20268409705E+02  0.17528990589E+02  0.49627888265E+02  0.56400365572E+02  0.00000000000E+00 0.  1.
         11    1    1    2    0    0 -0.80858574766E+01  0.25962779389E+02 -0.39381374158E+02  0.47857492990E+02  0.00000000000E+00 0. -1.
</event>
<event>
 7    1  0.2666594E-009  0.1139866E+03  0.7561462E-02  0.1253360E+00
          2   -1    0    0  501    0  0.00000000000E+00  0.00000000000E+00  0.28993401131E+02  0.28993401131E+02  0.00000000000E+00 0. -1.
         -2   -1    0    0    0  501 -0.00000000000E+00 -0.00000000000E+00 -0.78676307515E+03  0.78676307515E+03  0.00000000000E+00 0.  1.
         25    2    1    2    0    0  0.80930100819E+02 -0.52957488528E+02 -0.54536888272E+03  0.56783008294E+03  0.12509839344E+03 0.  0.
          5    1    3    3  502    0  0.13065753239E+01 -0.22734528624E+02 -0.38928964992E+03  0.38997752482E+03  0.41800000000E+01 0.  1.
         -5    1    3    3    0  502  0.79623525495E+02 -0.30222959904E+02 -0.15607923280E+03  0.17785255812E+03  0.41800000000E+01 0.  1.
        -11    1    1    2    0    0 -0.58724202287E+02 -0.35562403948E+01 -0.14873520019E+03  0.15994792452E+03  0.00000000000E+00 0.  1.
         11    1    1    2    0    0 -0.22205898532E+02  0.56513728923E+02 -0.63665591103E+02  0.87978468826E+02  0.00000000000E+00 0. -1.
</event>
<event>
 7    1  0.2666594E-009  0.1283068E+03  0.7561462E-02  0.1229990E+00
         -1   -1    0    0    0  501 -0.00000000000E+00  0.00000000000E+00  0.11246945263E+03  0.11246945263E+03  0.00000000000E+00 0.  1.
          1   -1    0    0  501    0  0.00000000000E+00 -0.00000000000E+00 -0.21416562852E+03  0.21416562852E+03  0.00000000000E+00 0. -1.
         25    2    1    2    0    0 -0.46244878956E+02 -0.90417270757E+02 -0.98651306142E+02  0.18892245965E+03  0.12508294798E+03 0.  0.
          5    1    3    3  502    0  0.32256819954E+02  0.20860637329E+01 -0.15348197522E+00  0.32593711850E+02  0.41800000000E+01 0. -1.
         -5    1    3    3    0  502 -0.78501698910E+02 -0.92503334490E+02 -0.98497824166E+02  0.15632874780E+03  0.41800000000E+01 0. -1.
        -11    1    1    2    0    0  0.24355819794E+02  0.62983198113E+02 -0.46399448461E+02  0.81932887291E+02  0.00000000000E+00 0. -1.
         11    1    1    2    0    0  0.21889059161E+02  0.27434072644E+02  0.43354578709E+02  0.55779734203E+02  0.00000000000E+00 0.  1.
</event>
<event>
 7    1  0.2666594E-009  0.1725307E+03  0.7561462E-02  0.1175234E+00
         -1   -1    0    0    0  501 -0.00000000000E+00  0.00000000000E+00  0.90389877796E+02  0.90389877796E+02  0.00000000000E+00 0.  1.
          1   -1    0    0  501    0  0.00000000000E+00 -0.00000000000E+00 -0.59098401510E+03  0.59098401510E+03  0.00000000000E+00 0. -1.
         25    2    1    2    0    0  0.11601000702E+03 -0.96406429055E+02 -0.46477420157E+03  0.50439612205E+03  0.12509143938E+03 0.  0.
          5    1    3    3  502    0  0.74409295843E+02  0.95570975573E+01 -0.25308996543E+03  0.26400773554E+03  0.41800000000E+01 0.  1.
         -5    1    3    3    0  502  0.41600711182E+02 -0.10596352661E+03 -0.21168423613E+03  0.24038838651E+03  0.41800000000E+01 0.  1.
        -11    1    1    2    0    0 -0.10426347827E+03  0.65957376787E+02 -0.59188724925E+02  0.13683769076E+03  0.00000000000E+00 0. -1.
         11    1    1    2    0    0 -0.11746528754E+02  0.30449052268E+02  0.23368789182E+02  0.40140080090E+02  0.00000000000E+00 0.  1.
</event>
<event>
 7    1  0.2666594E-009  0.9799514E+02  0.7561462E-02  0.1284569E+00
          3   -1    0    0  501    0  0.00000000000E+00  0.00000000000E+00  0.11854702576E+03  0.11854702576E+03  0.00000000000E+00 0. -1.
         -3   -1    0    0    0  501 -0.00000000000E+00 -0.00000000000E+00 -0.12163987270E+03  0.12163987270E+03  0.00000000000E+00 0.  1.
         25    2    1    2    0    0  0.22282507246E+02  0.22180078314E+02 -0.44367316411E+02  0.13639612530E+03  0.12508788202E+03 0.  0.
          5    1    3    3  502    0  0.52295212395E+02 -0.35465570648E+02 -0.15708866931E+02  0.65244439158E+02  0.41800000000E+01 0.  1.
         -5    1    3    3    0  502 -0.30012705149E+02  0.57645648962E+02 -0.28658449480E+02  0.71151686145E+02  0.41800000000E+01 0.  1.
        -11    1    1    2    0    0  0.20755129539E+02 -0.69879473515E+01 -0.18441760560E+02  0.28630496728E+02  0.00000000000E+00 0.  1.
         11    1    1    2    0    0 -0.43037636785E+02 -0.15192130963E+02  0.59716230031E+02  0.75160276426E+02  0.00000000000E+00 0. -1.
</event>
<event>
 7    1  0.2666594E-009  0.1353718E+03  0.7561462E-02  0.1219696E+00
         -1   -1    0    0    0  501 -0.00000000000E+00  0.00000000000E+00  0.29830069789E+02  0.29830069789E+02  0.00000000000E+00 0.  1.
          1   -1    0    0  501    0  0.00000000000E+00 -0.00000000000E+00 -0.85430158555E+03  0.85430158555E+03  0.00000000000E+00 0. -1.
         25    2    1    2    0    0  0.20640691367E+02  0.10043669955E+03 -0.59640933794E+03  0.61795210103E+03  0.12508849677E+03 0.  0.
          5    1    3    3  502    0  0.68844959336E+02  0.44824529505E+02 -0.23171408098E+03  0.24588158654E+03  0.41800000000E+01 0. -1.
         -5    1    3    3    0  502 -0.48204267968E+02  0.55612170048E+02 -0.36469525695E+03  0.37207051449E+03  0.41800000000E+01 0. -1.
        -11    1    1    2    0    0  0.15818754791E+02 -0.50647023098E+02 -0.35173274958E+02  0.63659352990E+02  0.00000000000E+00 0.  1.
         11    1    1    2    0    0 -0.36459446158E+02 -0.49789676455E+02 -0.19288890286E+03  0.20252020132E+03  0.00000000000E+00 0. -1.
</event>
<event>
 7    1  0.2666594E-009  0.1319537E+03  0.7561462E-02  0.1224585E+00
          1   -1    0    0  501    0  0.00000000000E+00  0.00000000000E+00  0.59617185405E+02  0.59617185405E+02  0.00000000000E+00 0. -1.
         -1   -1    0    0    0  501 -0.00000000000E+00 -0.00000000000E+00 -0.47344281590E+03  0.47344281590E+03  0.00000000000E+00 0.  1.
         25    2    1    2    0    0 -0.66664136655E+02  0.36196431717E+02 -0.57667981697E+02  0.15724991814E+03  0.12509057461E+03 0.  0.
          5    1    3    3  502    0 -0.50095150761E+02 -0.42407267804E+02 -0.23250190144E+02  0.69756320388E+02  0.41800000000E+01 0. -1.
         -5    1    3    3    0  502 -0.16568985894E+02  0.78603699521E+02 -0.34417791554E+02  0.87493597751E+02  0.41800000000E+01 0. -1.
        -11    1    1    2    0    0  0.75776020845E+01 -0.55134540512E+02 -0.20483333993E+03  0.21225912173E+03  0.00000000000E+00 0. -1.
         11    1    1    2    0    0  0.59086534570E+02  0.18938108795E+02 -0.15132430887E+03  0.16355096143E+03  0.00000000000E+00 0.  1.
</event>
<event>
 7    1  0.2666594E-009  0.1176626E+03  0.7561462E-02  0.1247004E+00
          2   -1    0    0  501    0  0.00000000000E+00  0.00000000000E+00  0.48874154933E+03  0.48874154933E+03  0.00000000000E+00 0. -1.
         -2   -1    0    0    0  501 -0.00000000000E+00 -0.00000000000E+00 -0.41199434256E+02  0.41199434256E+02  0.00000000000E+00 0.  1.
         25    2    1    2    0    0  0.32043990636E+02  0.52036070121E+02  0.37087762608E+03  0.39614765501E+03  0.12509269009E+03 0.  0.
          5    1    3    3  502    0 -0.31434498489E+02  0.54641827988E+02  0.26648030086E+03  0.27386690236E+03  0.41800000000E+01 0. -1.
         -5    1    3    3    0  502  0.63478489125E+02 -0.26057578672E+01  0.10439732522E+03  0.12228075265E+03  0.41800000000E+01 0. -1.
        -11    1    1    2    0    0  0.31549555246E+02 -0.18754597533E+02  0.16962284689E+02  0.40433012091E+02  0.00000000000E+00 0. -1.
         11    1    1    2    0    0 -0.63593545882E+02 -0.33281472587E+02  0.59702204300E+02  0.93360316483E+02  0.00000000000E+00 0.  1.
</event>
