<event>
 8    1  0.7112384E-009  0.1529936E+03  0.7561462E-02  0.1196842E+00
         -2   -1    0    0    0  501 -0.00000000000E+00  0.00000000000E+00  0.25699574597E+02  0.25699574597E+02  0.00000000000E+00 0.  1.
          2   -1    0    0  501    0  0.00000000000E+00 -0.00000000000E+00 -0.15045965244E+04  0.15045965244E+04  0.00000000000E+00 0. -1.
         25    2    1    2    0    0 -0.57113375295E+02  0.12294940851E+03 -0.11325059586E+04  0.11474303039E+04  0.12509221128E+03 0.  0.
         23    2    1    2    0    0  0.57113375295E+02 -0.12294940851E+03 -0.34639099122E+03  0.38286579512E+03  0.90669750132E+02 0.  0.
          5    1    3    3  502    0 -0.79888382548E+02  0.10497085471E+03 -0.61055037211E+03  0.62465211381E+03  0.41800000000E+01 0.  1.
         -5    1    3    3    0  502  0.22775007253E+02  0.17978553802E+02 -0.52195558647E+03  0.52277819005E+03  0.41800000000E+01 0.  1.
        -11    1    4    4    0    0  0.60674866724E+01 -0.73074147178E+02 -0.86713679359E+02  0.11356014956E+03  0.00000000000E+00 0.  1.
         11    1    4    4    0    0  0.51045888622E+02 -0.49875261331E+02 -0.25967731186E+03  0.26930564556E+03  0.00000000000E+00 0. -1.
</event>
<event>
 8    1  0.7112384E-009  0.1260512E+03  0.7561462E-02  0.1233435E+00
          2   -1    0    0  501    0  0.00000000000E+00  0.00000000000E+00  0.11433136956E+04  0.11433136956E+04  0.00000000000E+00 0. -1.
         -2   -1    0    0    0  501 -0.00000000000E+00 -0.00000000000E+00 -0.71725647359E+02  0.71725647359E+02  0.00000000000E+00 0.  1.
         25    2    1    2    0    0  0.41839936892E+02 -0.79997528089E+02  0.10741269493E+04  0.10851478152E+04  0.12508754000E+03 0.  0.
         23    2    1    2    0    0 -0.41839936892E+02  0.79997528089E+02 -0.25389011436E+01  0.12989152774E+03  0.93355118445E+02 0.  0.
          5    1    3    3  502    0  0.74933553933E+02 -0.91616276376E+02  0.78834257346E+03  0.79718885161E+03  0.41800000000E+01 0.  1.
         -5    1    3    3    0  502 -0.33093617041E+02  0.11618748287E+02  0.28578437588E+03  0.28795896356E+03  0.41800000000E+01 0.  1.
        -11    1    4    4    0    0  0.15049547699E+00  0.41131671138E+02  0.40936647427E+02  0.58031423574E+02  0.00000000000E+00 0. -1.
         11    1    4    4    0    0 -0.41990432369E+02  0.38865856951E+02 -0.43475548570E+02  0.71860104164E+02  0.00000000000E+00 0.  1.
</event>
<event>
 8    1  0.7112384E-009  0.2152087E+03  0.7561462E-02  0.1137506E+00
         -2   -1    0    0    0  501 -0.00000000000E+00  0.00000000000E+00  0.26644295610E+02  0.26644295610E+02  0.00000000000E+00 0.  1.
          2   -1    0    0  501    0  0.00000000000E+00 -0.00000000000E+00 -0.19229709779E+04  0.19229709779E+04  0.00000000000E+00 0. -1.
         25    2    1    2    0    0 -0.14123302187E+03 -0.12321182842E+03 -0.70073550363E+03  0.73607455051E+03  0.12509027430E+03 0.  0.
         23    2    1    2    0    0  0.14123302187E+03  0.12321182842E+03 -0.11955911787E+04  0.12135407230E+04  0.90082732914E+02 0.  0.
          5    1    3    3  502    0 -0.48138963168E+02 -0.11984573049E+03 -0.46334433486E+03  0.48102578303E+03  0.41800000000E+01 0. -1.
         -5    1    3    3    0  502 -0.93094058702E+02 -0.33660979275E+01 -0.23739116877E+03  0.25504876748E+03  0.41800000000E+01 0. -1.
        -11    1    4    4    0    0  0.72060067754E+02  0.11840509034E+03 -0.79811515766E+03  0.81006186410E+03  0.00000000000E+00 0.  1.
         11    1    4    4    0    0  0.69172954117E+02  0.48067380835E+01 -0.39747602103E+03  0.40347885893E+03  0.00000000000E+00 0. -1.
</event>
<event>
 8    1  0.7112384E-009  0.1066975E+03  0.7561462E-02  0.1266811E+00
          2   -1    0    0  501    0  0.00000000000E+00  0.00000000000E+00  0.27282785943E+03  0.27282785943E+03  0.00000000000E+00 0. -1.
         -2   -1    0    0    0  501 -0.00000000000E+00 -0.00000000000E+00 -0.53282360200E+02  0.53282360200E+02  0.00000000000E+00 0.  1.
         25    2    1    2    0    0 -0.14027162069E+02 -0.38877035502E+02  0.16985925190E+03  0.21495858967E+03  0.12508734809E+03 0.  0.
         23    2    1    2    0    0  0.14027162069E+02  0.38877035502E+02  0.49686247326E+02  0.11115162995E+03  0.90431059392E+02 0.  0.
          5    1    3    3  502    0 -0.57328320323E+02 -0.52746938636E+02  0.68618881625E+02  0.10389802290E+03  0.41800000000E+01 0.  1.
         -5    1    3    3    0  502  0.43301158254E+02  0.13869903134E+02  0.10124037027E+03  0.11106056677E+03  0.41800000000E+01 0.  1.
        -11    1    4    4    0    0 -0.33305120464E+02  0.12798375349E+02 -0.28363004999E+01  0.35792094954E+02  0.00000000000E+00 0.  1.
         11    1    4    4    0    0  0.47332282533E+02  0.26078660153E+02  0.52522547826E+02  0.75359534999E+02  0.00000000000E+00 0. -1.
</event>
<event>
 8    1  0.7112384E-009  0.8149453E+02  0.7561462E-02  0.1324863E+00
          3   -1    0    0  501    0  0.00000000000E+00  0.00000000000E+00  0.75789759810E+02  0.75789759810E+02  0.00000000000E+00 0. -1.
         -3   -1    0    0    0  501 -0.00000000000E+00 -0.00000000000E+00 -0.16798571955E+03  0.16798571955E+03  0.00000000000E+00 0.  1.
         25    2    1    2    0    0  0.21622531590E+02 -0.23313045780E+02 -0.56588141559E+02  0.14092663270E+03  0.12508823312E+03 0.  0.
         23    2    1    2    0    0 -0.21622531590E+02  0.23313045780E+02 -0.35607818181E+02  0.10284884666E+03  0.91098499259E+02 0.  0.
          5    1    3    3  502    0  0.68427297034E+02 -0.33326223460E+02 -0.15674790777E+02  0.77820971565E+02  0.41800000000E+01 0.  1.
         -5    1    3    3    0  502 -0.46804765444E+02  0.10013177680E+02 -0.40913350781E+02  0.63105661138E+02  0.41800000000E+01 0.  1.
        -11    1    4    4    0    0 -0.10285943428E+02 -0.24467969399E+01  0.29812340992E+02  0.31631679103E+02  0.00000000000E+00 0. -1.
         11    1    4    4    0    0 -0.11336588162E+02  0.25759842720E+02 -0.65420159173E+02  0.71217167554E+02  0.00000000000E+00 0.  1.
</event>
<event>
 8    1  0.7112384E-009  0.9934581E+02  0.7561462E-02  0.1281678E+00
          2   -1    0    0  501    0  0.00000000000E+00  0.00000000000E+00  0.28462969412E+02  0.28462969412E+02  0.00000000000E+00 0. -1.
         -2   -1    0    0    0  501 -0.00000000000E+00 -0.00000000000E+00 -0.57876360852E+03  0.57876360852E+03  0.00000000000E+00 0.  1.
         25    2    1    2    0    0  0.40152982957E+02 -0.12750170688E+01 -0.43797206301E+03  0.45725369099E+03  0.12509005649E+03 0.  0.
         23    2    1    2    0    0 -0.40152982957E+02  0.12750170688E+01 -0.11232857610E+03  0.14997288695E+03  0.90886028092E+02 0.  0.
          5    1    3    3  502    0  0.17446823334E+01  0.59014318757E+02 -0.17686295978E+03  0.18650392134E+03  0.41800000000E+01 0.  1.
         -5    1    3    3    0  502  0.38408300624E+02 -0.60289335825E+02 -0.26110910323E+03  0.27074976965E+03  0.41800000000E+01 0.  1.
        -11    1    4    4    0    0 -0.10916334749E+02  0.26893523908E+02 -0.10684277247E+03  0.11071497650E+03  0.00000000000E+00 0.  1.
         11    1    4    4    0    0 -0.29236648209E+02 -0.25618506839E+02 -0.54858036275E+01  0.39257910446E+02  0.00000000000E+00 0. -1.
</event>
<event>
 8    1  0.7112384E-009  0.1853955E+03  0.7561462E-02  0.1162681E+00
         -1   -1    0    0    0  501 -0.00000000000E+00  0.00000000000E+00  0.11392841966E+03  0.11392841966E+03  0.00000000000E+00 0.  1.
          1   -1    0    0  501    0  0.00000000000E+00 -0.00000000000E+00 -0.35633902198E+03  0.35633902198E+03  0.00000000000E+00 0. -1.
         25    2    1    2    0    0  0.79747213053E+01  0.16457382017E+03 -0.16619359160E+03  0.26535910076E+03  0.12508798503E+03 0.  0.
         23    2    1    2    0    0 -0.79747213053E+01 -0.16457382017E+03 -0.76217010719E+02  0.20490834089E+03  0.95027664275E+02 0.  0.
          5    1    3    3  502    0 -0.29714537047E+02  0.27943825296E+01  0.29440505897E+00  0.30138370227E+02  0.41800000000E+01 0.  1.
         -5    1    3    3    0  502  0.37689258352E+02  0.16177943764E+03 -0.16648799666E+03  0.23522073053E+03  0.41800000000E+01 0.  1.
        -11    1    4    4    0    0  0.21582283732E+02 -0.11303709997E+03 -0.93460193914E+01  0.11545791017E+03  0.00000000000E+00 0.  1.
         11    1    4    4    0    0 -0.29557005037E+02 -0.51536720198E+02 -0.66870991327E+02  0.89450430723E+02  0.00000000000E+00 0. -1.
</event>
<event>
 8    1  0.7112384E-009  0.1172075E+03  0.7561462E-02  0.1247776E+00
          1   -1    0    0  501    0  0.00000000000E+00  0.00000000000E+00  0.19872918249E+03  0.19872918249E+03  0.00000000000E+00 0. -1.
         -1   -1    0    0    0  501 -0.00000000000E+00 -0.00000000000E+00 -0.91705123398E+02  0.91705123398E+02  0.00000000000E+00 0.  1.
         25    2    1    2    0    0  0.25285226676E+01 -0.74369568767E+02  0.91435943724E+02  0.17188517032E+03  0.12508698487E+03 0.  0.
         23    2    1    2    0    0 -0.25285226676E+01  0.74369568767E+02  0.15588115373E+02  0.11854913557E+03  0.90959782426E+02 0.  0.
          5    1    3    3  502    0 -0.26531667552E+02  0.97783452012E+01  0.76310593704E+02  0.81488186441E+02  0.41800000000E+01 0. -1.
         -5    1    3    3    0  502  0.29060190220E+02 -0.84147913968E+02  0.15125350020E+02  0.90396983877E+02  0.41800000000E+01 0. -1.
        -11    1    4    4    0    0  0.33607251402E+02 -0.46058153135E+00  0.10839850729E+02  0.35315178691E+02  0.00000000000E+00 0.  1.
         11    1    4    4    0    0 -0.36135774069E+02  0.74830150299E+02  0.47482646432E+01  0.83233956883E+02  0.00000000000E+00 0. -1.
</event>
<event>
 8    1  0.7112384E-009  0.1722796E+03  0.7561462E-02  0.1175491E+00
          1   -1    0    0  501    0  0.00000000000E+00  0.00000000000E+00  0.31290214656E+03  0.31290214656E+03  0.00000000000E+00 0. -1.
         -1   -1    0    0    0  501 -0.00000000000E+00 -0.00000000000E+00 -0.15014163123E+03  0.15014163123E+03  0.00000000000E+00 0.  1.
         25    2    1    2    0    0 -0.15542287222E+03  0.51874323914E+02  0.18631266527E+03  0.27785653578E+03  0.12507849753E+03 0.  0.
         23    2    1    2    0    0  0.15542287222E+03 -0.51874323914E+02 -0.23552149947E+02  0.18518724201E+03  0.83020456195E+02 0.  0.
          5    1    3    3  502    0 -0.11556951338E+03  0.52879107426E+01  0.18271470816E+03  0.21630166759E+03  0.41800000000E+01 0.  1.
         -5    1    3    3    0  502 -0.39853358835E+02  0.46586413171E+02  0.35979571104E+01  0.61554868191E+02  0.41800000000E+01 0.  1.
        -11    1    4    4    0    0  0.43463615307E+02 -0.31172280948E+02  0.27806478625E+02  0.60282644340E+02  0.00000000000E+00 0. -1.
         11    1    4    4    0    0  0.11195925691E+03 -0.20702042966E+02 -0.51358628572E+02  0.12490459767E+03  0.00000000000E+00 0.  1.
</event>
<event>
 8    1  0.7112384E-009  0.1825799E+03  0.7561462E-02  0.1165329E+00
         -2   -1    0    0    0  501 -0.00000000000E+00  0.00000000000E+00  0.57604642837E+03  0.57604642837E+03  0.00000000000E+00 0.  1.
          2   -1    0    0  501    0  0.00000000000E+00 -0.00000000000E+00 -0.75953098182E+02  0.75953098182E+02  0.00000000000E+00 0. -1.
         25    2    1    2    0    0  0.13976587925E+03  0.98870741334E+02  0.33617496184E+03  0.39745121689E+03  0.12507573842E+03 0.  0.
         23    2    1    2    0    0 -0.13976587925E+03 -0.98870741334E+02  0.16391836835E+03  0.25454830967E+03  0.92820719546E+02 0.  0.
          5    1    3    3  502    0  0.26659265943E+02  0.20057659847E+02 -0.49450073930E+00  0.33626523908E+02  0.41800000000E+01 0. -1.
         -5    1    3    3    0  502  0.11310661331E+03  0.78813081487E+02  0.33666946258E+03  0.36382469298E+03  0.41800000000E+01 0. -1.
        -11    1    4    4    0    0 -0.10071655920E+03 -0.11365740688E+03  0.13931473067E+03  0.20608354038E+03  0.00000000000E+00 0.  1.
         11    1    4    4    0    0 -0.39049320054E+02  0.14786665546E+02  0.24603637679E+02  0.48464769284E+02  0.00000000000E+00 0. -1.
</event>
<event>
 8    1  0.7112384E-009  0.3411146E+03  0.7561462E-02  0.1066322E+00
         -2   -1    0    0    0  501 -0.00000000000E+00  0.00000000000E+00  0.21011551323E+03  0.21011551323E+03  0.00000000000E+00 0.  1.
          2   -1    0    0  501    0  0.00000000000E+00 -0.00000000000E+00 -0.57408721421E+03  0.57408721421E+03  0.00000000000E+00 0. -1.
         25    2    1    2    0    0  0.19861440736E+03 -0.26082091306E+03 -0.16474128563E+03  0.38763707598E+03  0.12509028733E+03 0.  0.
         23    2    1    2    0    0 -0.19861440736E+03  0.26082091306E+03 -0.19923041536E+03  0.39656565146E+03  0.10048047579E+03 0.  0.
          5    1    3    3  502    0 -0.12584662154E+02 -0.19602584257E+02  0.59396307343E+01  0.24400545985E+02  0.41800000000E+01 0.  1.
         -5    1    3    3    0  502  0.21119906951E+03 -0.24121832880E+03 -0.17068091636E+03  0.36323653000E+03  0.41800000000E+01 0.  1.
        -11    1    4    4    0    0 -0.15884665548E+03  0.14357148568E+03 -0.93044697612E+02  0.23345737772E+03  0.00000000000E+00 0.  1.
         11    1    4    4    0    0 -0.39767751879E+02  0.11724942738E+03 -0.10618571774E+03  0.16310827374E+03  0.00000000000E+00 0. -1.
</event>
<event>
 8    1  0.7112384E-009  0.9397643E+02  0.7561462E-02  0.1293498E+00
          4   -1    0    0  501    0  0.00000000000E+00  0.00000000000E+00  0.17909011458E+03  0.17909011458E+03  0.00000000000E+00 0. -1.
         -4   -1    0    0    0  501 -0.00000000000E+00 -0.00000000000E+00 -0.14387410438E+03  0.14387410438E+03  0.00000000000E+00 0.  1.
         25    2    1    2    0    0 -0.47757765633E+01 -0.63172078598E+02  0.11902759893E+03  0.18392462391E+03  0.12508868222E+03 0.  0.
         23    2    1    2    0    0  0.47757765633E+01  0.63172078598E+02 -0.83811588732E+02  0.13903959504E+03  0.91071988163E+02 0.  0.
          5    1    3    3  502    0  0.19585816620E+02 -0.57063816378E+02  0.13898600180E+03  0.15157329728E+03  0.41800000000E+01 0.  1.
         -5    1    3    3    0  502 -0.24361593183E+02 -0.61082622199E+01 -0.19958402873E+02  0.32351326635E+02  0.41800000000E+01 0.  1.
        -11    1    4    4    0    0  0.29020212909E+02 -0.51909668544E+01 -0.52127893686E+02  0.59886861617E+02  0.00000000000E+00 0.  1.
         11    1    4    4    0    0 -0.24244436345E+02  0.68363045452E+02 -0.31683695046E+02  0.79152733427E+02  0.00000000000E+00 0. -1.
</event>
<event>
 8    1  0.7112384E-009  0.8286489E+02  0.7561462E-02  0.1321112E+00
         -2   -1    0    0    0  501 -0.00000000000E+00  0.00000000000E+00  0.25927783791E+02  0.25927783791E+02  0.00000000000E+00 0.  1.
          2   -1    0    0  501    0  0.00000000000E+00 -0.00000000000E+00 -0.10282765643E+04  0.10282765643E+04  0.00000000000E+00 0. -1.
         25    2    1    2    0    0 -0.30140016467E+02  0.38285818483E+02 -0.89528615983E+03  0.90529498693E+03  0.12508989125E+03 0.  0.
         23    2    1    2    0    0  0.30140016467E+02 -0.38285818483E+02 -0.10706262068E+03  0.14890936116E+03  0.91309192332E+02 0.  0.
          5    1    3    3  502    0 -0.42760309991E+00  0.67770664755E+02 -0.77297795556E+03  0.77595453348E+03  0.41800000000E+01 0.  1.
         -5    1    3    3    0  502 -0.29712413367E+02 -0.29484846273E+02 -0.12230820427E+03  0.12934045346E+03  0.41800000000E+01 0.  1.
        -11    1    4    4    0    0  0.11612711941E+02  0.16577764024E+01  0.15061167772E+02  0.19090366049E+02  0.00000000000E+00 0.  1.
         11    1    4    4    0    0  0.18527304526E+02 -0.39943594885E+02 -0.12212378845E+03  0.12981899511E+03  0.00000000000E+00 0. -1.
</event>
<event>
 8    1  0.7112384E-009  0.7660767E+02  0.7561462E-02  0.1338964E+00
         -2   -1    0    0    0  501 -0.00000000000E+00  0.00000000000E+00  0.17699124553E+03  0.17699124553E+03  0.00000000000E+00 0.  1.
          2   -1    0    0  501    0  0.00000000000E+00 -0.00000000000E+00 -0.77465016551E+02  0.77465016551E+02  0.00000000000E+00 0. -1.
         25    2    1    2    0    0  0.28879636567E+02  0.26952419556E+01  0.98923844454E+02  0.16209369335E+03  0.12508853139E+03 0.  0.
         23    2    1    2    0    0 -0.28879636567E+02 -0.26952419556E+01  0.60238452626E+00  0.92362568729E+02  0.87687989472E+02 0.  0.
          5    1    3    3  502    0 -0.15348462494E+01  0.31267039690E+02  0.11340851998E+03  0.11772403462E+03  0.41800000000E+01 0.  1.
         -5    1    3    3    0  502  0.30414482817E+02 -0.28571797734E+02 -0.14484675525E+02  0.44369658730E+02  0.41800000000E+01 0.  1.
        -11    1    4    4    0    0  0.10330357510E+02 -0.30121723907E+02 -0.22732850846E+02  0.39125657120E+02  0.00000000000E+00 0. -1.
         11    1    4    4    0    0 -0.39209994078E+02  0.27426481952E+02  0.23335235373E+02  0.53236911610E+02  0.00000000000E+00 0.  1.
</event>
<event>
 8    1  0.7112384E-009  0.1780723E+03  0.7561462E-02  0.1169682E+00
          1   -1    0    0  501    0  0.00000000000E+00  0.00000000000E+00  0.41882975723E+03  0.41882975723E+03  0.00000000000E+00 0. -1.
         -1   -1    0    0    0  501 -0.00000000000E+00 -0.00000000000E+00 -0.96195597152E+02  0.96195597152E+02  0.00000000000E+00 0.  1.
         25    2    1    2    0    0 -0.13925814055E+03 -0.26100885451E+02  0.51800913812E+02  0.19597281659E+03  0.12509166335E+03 0.  0.
         23    2    1    2    0    0  0.13925814055E+03  0.26100885451E+02  0.27083324627E+03  0.31905253779E+03  0.91486549049E+02 0.  0.
          5    1    3    3  502    0 -0.13341134987E+03  0.25127544795E+02  0.26482360425E+02  0.13837907932E+03  0.41800000000E+01 0. -1.
         -5    1    3    3    0  502 -0.58467906822E+01 -0.51228430246E+02  0.25318553387E+02  0.57593737267E+02  0.41800000000E+01 0. -1.
        -11    1    4    4    0    0  0.42376190534E+02 -0.34219436351E+02  0.91511850150E+02  0.10649474197E+03  0.00000000000E+00 0. -1.
         11    1    4    4    0    0  0.96881950016E+02  0.60320321802E+02  0.17932139612E+03  0.21255779583E+03  0.00000000000E+00 0.  1.
</event>
<event>
 8    1  0.7112384E-009  0.8503081E+02  0.7561462E-02  0.1315352E+00
         -1   -1    0    0    0  501 -0.00000000000E+00  0.00000000000E+00  0.33043065615E+03  0.33043065615E+03  0.00000000000E+00 0.  1.
          1   -1    0    0  501    0  0.00000000000E+00 -0.00000000000E+00 -0.57095119174E+02  0.57095119174E+02  0.00000000000E+00 0. -1.
         25    2    1    2    0    0  0.30249239324E+02 -0.11166345402E+02  0.25808600750E+03  0.28861107375E+03  0.12509300891E+03 0.  0.
         23    2    1    2    0    0 -0.30249239324E+02  0.11166345402E+02  0.15249529478E+02  0.98914701570E+02  0.92259776111E+02 0.  0.
          5    1    3    3  502    0  0.22648875512E+02  0.48537547567E+02  0.55546490488E+02  0.77277099398E+02  0.41800000000E+01 0.  1.
         -5    1    3    3    0  502  0.76003638115E+01 -0.59703892970E+02  0.20253951701E+03  0.21133397435E+03  0.41800000000E+01 0.  1.
        -11    1    4    4    0    0 -0.22970178178E+02 -0.15927283227E+02 -0.32910793781E+02  0.43179020182E+02  0.00000000000E+00 0.  1.
         11    1    4    4    0    0 -0.72790611456E+01  0.27093628629E+02  0.48160323259E+02  0.55735681389E+02  0.00000000000E+00 0. -1.
</event>
<event>
 8    1  0.7112384E-009  0.1495492E+03  0.7561462E-02  0.1201028E+00
          2   -1    0    0  501    0  0.00000000000E+00  0.00000000000E+00  0.17444372116E+04  0.17444372116E+04  0.00000000000E+00 0. -1.
         -2   -1    0    0    0  501 -0.00000000000E+00 -0.00000000000E+00 -0.16448379616E+02  0.16448379616E+02  0.00000000000E+00 0.  1.
         25    2    1    2    0    0  0.81022146435E+02 -0.96907026881E+02  0.10767544647E+04  0.10913310481E+04  0.12509084456E+03 0.  0.
         23    2    1    2    0    0 -0.81022146435E+02  0.96907026881E+02  0.65123436737E+03  0.66955454313E+03  0.90782844760E+02 0.  0.
          5    1    3    3  502    0  0.89279434544E+02 -0.11325782591E+03  0.73302828700E+03  0.74709175776E+03  0.41800000000E+01 0.  1.
         -5    1    3    3    0  502 -0.82572881090E+01  0.16350799026E+02  0.34372617765E+03  0.34423929037E+03  0.41800000000E+01 0.  1.
        -11    1    4    4    0    0 -0.39216026473E+01  0.40036015393E+02  0.72224297299E+02  0.82671703842E+02  0.00000000000E+00 0.  1.
         11    1    4    4    0    0 -0.77100543788E+02  0.56871011489E+02  0.57901007007E+03  0.58688283928E+03  0.00000000000E+00 0. -1.
</event>
<event>
 8    1  0.7112384E-009  0.1049647E+03  0.7561462E-02  0.1270189E+00
         -2   -1    0    0    0  501 -0.00000000000E+00  0.00000000000E+00  0.17633397063E+02  0.17633397063E+02  0.00000000000E+00 0. -1.
          2   -1    0    0  501    0  0.00000000000E+00 -0.00000000000E+00 -0.79063673041E+03  0.79063673041E+03  0.00000000000E+00 0.  1.
         25    2    1    2    0    0 -0.17359082364E+02  0.43420411142E+02 -0.54724876301E+03  0.56330716199E+03  0.12508828996E+03 0.  0.
         23    2    1    2    0    0  0.17359082364E+02 -0.43420411142E+02 -0.22575457034E+03  0.24496296548E+03  0.82795281190E+02 0.  0.
          5    1    3    3  502    0  0.96342449462E+01  0.83917250074E+02 -0.33508778081E+03  0.34559545249E+03  0.41800000000E+01 0.  1.
         -5    1    3    3    0  502 -0.26993327310E+02 -0.40496838932E+02 -0.21216098220E+03  0.21771170950E+03  0.41800000000E+01 0.  1.
        -11    1    4    4    0    0  0.29543134990E+02  0.18765675555E+01 -0.24835149750E+02  0.38640690909E+02  0.00000000000E+00 0. -1.
         11    1    4    4    0    0 -0.12184052626E+02 -0.45296978697E+02 -0.20091942059E+03  0.20632227458E+03  0.00000000000E+00 0.  1.
</event>
<event>
 8    1  0.7112384E-009  0.9893773E+02  0.7561462E-02  0.1282546E+00
         -1   -1    0    0    0  501 -0.00000000000E+00  0.00000000000E+00  0.40091683617E+02  0.40091683617E+02  0.00000000000E+00 0.  1.
          1   -1    0    0  501    0  0.00000000000E+00 -0.00000000000E+00 -0.35380820881E+03  0.35380820881E+03  0.00000000000E+00 0. -1.
         25    2    1    2    0    0  0.49493606812E+02  0.14880935302E+02 -0.18447210616E+03  0.22879893361E+03  0.12509170524E+03 0.  0.
         23    2    1    2    0    0 -0.49493606812E+02 -0.14880935302E+02 -0.12924441903E+03  0.16510095881E+03  0.88787090276E+02 0.  0.
          5    1    3    3  502    0  0.77524638664E+02 -0.26962418062E+02 -0.13518071863E+03  0.15820347872E+03  0.41800000000E+01 0.  1.
         -5    1    3    3    0  502 -0.28031031852E+02  0.41843353365E+02 -0.49291387523E+02  0.70595454892E+02  0.41800000000E+01 0.  1.
        -11    1    4    4    0    0 -0.12096261472E+02 -0.23807089271E+02  0.34710143248E+01  0.26928516141E+02  0.00000000000E+00 0.  1.
         11    1    4    4    0    0 -0.37397345340E+02  0.89261539683E+01 -0.13271543336E+03  0.13817244267E+03  0.00000000000E+00 0. -1.
</event>
<event>
 8    1  0.7112384E-009  0.8282272E+02  0.7561462E-02  0.1321227E+00
         -2   -1    0    0    0  501 -0.00000000000E+00  0.00000000000E+00  0.29047697596E+02  0.29047697596E+02  0.00000000000E+00 0.  1.
          2   -1    0    0  501    0  0.00000000000E+00 -0.00000000000E+00 -0.48945491351E+03  0.48945491351E+03  0.00000000000E+00 0. -1.
         25    2    1    2    0    0 -0.11549068524E+02 -0.29030748290E+02 -0.34151005575E+03  0.36503780382E+03  0.12508922700E+03 0.  0.
         23    2    1    2    0    0  0.11549068524E+02  0.29030748290E+02 -0.11889716016E+03  0.15346480728E+03  0.91862653180E+02 0.  0.
          5    1    3    3  502    0  0.10662023166E+02  0.28250177270E+02 -0.17337918966E+02  0.35068890598E+02  0.41800000000E+01 0. -1.
         -5    1    3    3    0  502 -0.22211091690E+02 -0.57280925559E+02 -0.32417213679E+03  0.32996891323E+03  0.41800000000E+01 0. -1.
        -11    1    4    4    0    0  0.35808107696E+02  0.33361876230E+02 -0.22314927447E+02  0.53788394188E+02  0.00000000000E+00 0.  1.
         11    1    4    4    0    0 -0.24259039172E+02 -0.43311279405E+01 -0.96582232718E+02  0.99676413096E+02  0.00000000000E+00 0. -1.
</event>
<event>
 8    1  0.7112384E-009  0.1197251E+03  0.7561462E-02  0.1243551E+00
          2   -1    0    0  501    0  0.00000000000E+00  0.00000000000E+00  0.57540972300E+03  0.57540972300E+03  0.00000000000E+00 0. -1.
         -2   -1    0    0    0  501 -0.00000000000E+00 -0.00000000000E+00 -0.38972533663E+02  0.38972533663E+02  0.00000000000E+00 0.  1.
         25    2    1    2    0    0  0.61535837257E+02 -0.51615819586E+02  0.42233411390E+03  0.44773152602E+03  0.12508622437E+03 0.  0.
         23    2    1    2    0    0 -0.61535837257E+02  0.51615819586E+02  0.11410307543E+03  0.16665073064E+03  0.91115871845E+02 0.  0.
          5    1    3    3  502    0  0.33196466925E+02 -0.92699308094E+02  0.27701652582E+03  0.29402516068E+03  0.41800000000E+01 0.  1.
         -5    1    3    3    0  502  0.28339370332E+02  0.41083488507E+02  0.14531758808E+03  0.15370636534E+03  0.41800000000E+01 0.  1.
        -11    1    4    4    0    0 -0.49134837096E+02  0.13829537745E+02  0.11610619234E+03  0.12683113273E+03  0.00000000000E+00 0. -1.
         11    1    4    4    0    0 -0.12401000161E+02  0.37786281841E+02 -0.20031169070E+01  0.39819597910E+02  0.00000000000E+00 0.  1.
</event>
<event>
 8    1  0.7112384E-009  0.1357464E+03  0.7561462E-02  0.1219170E+00
         -1   -1    0    0    0  501 -0.00000000000E+00  0.00000000000E+00  0.61749067864E+03  0.61749067864E+03  0.00000000000E+00 0.  1.
          1   -1    0    0  501    0  0.00000000000E+00 -0.00000000000E+00 -0.47825765286E+02  0.47825765286E+02  0.00000000000E+00 0. -1.
         25    2    1    2    0    0 -0.64858458631E+02 -0.99088223571E+02  0.41370709787E+03  0.44813510219E+03  0.12508561583E+03 0.  0.
         23    2    1    2    0    0  0.64858458631E+02  0.99088223571E+02  0.15595781549E+03  0.21718134173E+03  0.93913786414E+02 0.  0.
          5    1    3    3  502    0 -0.65311473493E+02 -0.89126340143E+02  0.16167292260E+03  0.19586908735E+03  0.41800000000E+01 0.  1.
         -5    1    3    3    0  502  0.45301486152E+00 -0.99618834279E+01  0.25203417526E+03  0.25226601484E+03  0.41800000000E+01 0.  1.
        -11    1    4    4    0    0  0.23440196502E+02  0.10560788180E+03  0.10049838976E+03  0.14765633700E+03  0.00000000000E+00 0. -1.
         11    1    4    4    0    0  0.41418262129E+02 -0.65196582344E+01  0.55459425727E+02  0.69525004734E+02  0.00000000000E+00 0.  1.
</event>
<event>
 8    1  0.7112384E-009  0.7803341E+02  0.7561462E-02  0.1334727E+00
          1   -1    0    0  501    0  0.00000000000E+00  0.00000000000E+00  0.15887567424E+03  0.15887567424E+03  0.00000000000E+00 0. -1.
         -1   -1    0    0    0  501 -0.00000000000E+00 -0.00000000000E+00 -0.93364475879E+02  0.93364475879E+02  0.00000000000E+00 0.  1.
         25    2    1    2    0    0 -0.20802022079E+01  0.55797192157E+02  0.32508990129E+02  0.14079067383E+03  0.12509006957E+03 0.  0.
         23    2    1    2    0    0  0.20802022079E+01 -0.55797192157E+02  0.33002208228E+02  0.11144947629E+03  0.90632147292E+02 0.  0.
          5    1    3    3  502    0  0.18011273576E+02 -0.15181293869E+02  0.57912823961E+02  0.62659757728E+02  0.41800000000E+01 0.  1.
         -5    1    3    3    0  502 -0.20091475783E+02  0.70978486026E+02 -0.25403833832E+02  0.78130916103E+02  0.41800000000E+01 0.  1.
        -11    1    4    4    0    0  0.90353571797E+01 -0.22596369360E+02  0.62137662788E+02  0.66733220546E+02  0.00000000000E+00 0. -1.
         11    1    4    4    0    0 -0.69551549718E+01 -0.33200822797E+02 -0.29135454560E+02  0.44716255741E+02  0.00000000000E+00 0.  1.
</event>
<event>
 8    1  0.7112384E-009  0.1223727E+03  0.7561462E-02  0.1239233E+00
          1   -1    0    0  501    0  0.00000000000E+00  0.00000000000E+00  0.74669025355E+03  0.74669025355E+03  0.00000000000E+00 0. -1.
         -1   -1    0    0    0  501 -0.00000000000E+00 -0.00000000000E+00 -0.30957313174E+02  0.30957313174E+02  0.00000000000E+00 0.  1.
         25    2    1    2    0    0 -0.63357659696E+02  0.13934285235E+02  0.17179363386E+03  0.22219090422E+03  0.12508951968E+03 0.  0.
         23    2    1    2    0    0  0.63357659696E+02 -0.13934285235E+02  0.54393930652E+03  0.55545666251E+03  0.91944425658E+02 0.  0.
          5    1    3    3  502    0  0.82386831921E+01  0.51064035939E+02  0.32653624829E+02  0.61311852701E+02  0.41800000000E+01 0.  1.
         -5    1    3    3    0  502 -0.71596342888E+02 -0.37129750703E+02  0.13914000904E+03  0.16087905152E+03  0.41800000000E+01 0.  1.
        -11    1    4    4    0    0  0.71026736724E+02  0.22776602001E+02  0.33826733500E+03  0.34639336145E+03  0.00000000000E+00 0.  1.
         11    1    4    4    0    0 -0.76690770280E+01 -0.36710887236E+02  0.20567197152E+03  0.20906330107E+03  0.00000000000E+00 0. -1.
</event>
<event>
 8    1  0.7112384E-009  0.2112834E+03  0.7561462E-02  0.1140554E+00
         -2   -1    0    0    0  501 -0.00000000000E+00  0.00000000000E+00  0.47479794308E+02  0.47479794308E+02  0.00000000000E+00 0.  1.
          2   -1    0    0  501    0  0.00000000000E+00 -0.00000000000E+00 -0.10143931363E+04  0.10143931363E+04  0.00000000000E+00 0. -1.
         25    2    1    2    0    0 -0.12413830720E+03 -0.14454890741E+03 -0.48245488546E+03  0.53358633701E+03  0.12508779554E+03 0.  0.
         23    2    1    2    0    0  0.12413830720E+03  0.14454890741E+03 -0.48445845653E+03  0.52828659359E+03  0.89900071856E+02 0.  0.
          5    1    3    3  502    0 -0.78879499387E+02 -0.14756856860E+03 -0.44212144441E+03  0.47274443611E+03  0.41800000000E+01 0. -1.
         -5    1    3    3    0  502 -0.45258807816E+02  0.30196611949E+01 -0.40333441048E+02  0.60841900902E+02  0.41800000000E+01 0. -1.
        -11    1    4    4    0    0  0.91938561173E+02  0.40040804629E+02 -0.25810934151E+03  0.27690503289E+03  0.00000000000E+00 0.  1.
         11    1    4    4    0    0  0.32199746030E+02  0.10450810278E+03 -0.22634911502E+03  0.25138156070E+03  0.00000000000E+00 0. -1.
</event>
<event>
 8    1  0.7112384E-009  0.7278165E+02  0.7561462E-02  0.1350881E+00
          4   -1    0    0  501    0  0.00000000000E+00  0.00000000000E+00  0.30541813832E+03  0.30541813832E+03  0.00000000000E+00 0. -1.
         -4   -1    0    0    0  501 -0.00000000000E+00 -0.00000000000E+00 -0.51482468430E+02  0.51482468430E+02  0.00000000000E+00 0.  1.
         25    2    1    2    0    0 -0.14173170649E+02 -0.20963287661E+02  0.22269278798E+03  0.25666821773E+03  0.12508460328E+03 0.  0.
         23    2    1    2    0    0  0.14173170649E+02  0.20963287661E+02  0.31242881914E+02  0.10023238902E+03  0.91815445015E+02 0.  0.
          5    1    3    3  502    0 -0.26197563249E+02 -0.25552766851E+02  0.23530462980E+03  0.23817010186E+03  0.41800000000E+01 0. -1.
         -5    1    3    3    0  502  0.12024392600E+02  0.45894791904E+01 -0.12611841822E+02  0.18498115871E+02  0.41800000000E+01 0. -1.
        -11    1    4    4    0    0 -0.74533630978E+01 -0.34694194787E+02  0.10219578635E+02  0.36928032182E+02  0.00000000000E+00 0.  1.
         11    1    4    4    0    0  0.21626533747E+02  0.55657482448E+02  0.21023303280E+02  0.63304356841E+02  0.00000000000E+00 0. -1.
</event>
<event>
 8    1  0.7112384E-009  0.1179947E+03  0.7561462E-02  0.1246442E+00
          1   -1    0    0  501    0  0.00000000000E+00  0.00000000000E+00  0.20089300252E+03  0.20089300252E+03  0.00000000000E+00 0. -1.
         -1   -1    0    0    0  501 -0.00000000000E+00 -0.00000000000E+00 -0.84325023299E+02  0.84325023299E+02  0.00000000000E+00 0.  1.
         25    2    1    2    0    0  0.19442656964E+02  0.63801641862E+02  0.11014580630E+03  0.17952342722E+03  0.12509154992E+03 0.  0.
         23    2    1    2    0    0 -0.19442656964E+02 -0.63801641862E+02  0.64221729229E+01  0.10569459860E+03  0.81740060279E+02 0.  0.
          5    1    3    3  502    0  0.38051689052E+02  0.90761719965E+02  0.48975228097E+02  0.11000757346E+03  0.41800000000E+01 0. -1.
         -5    1    3    3    0  502 -0.18609032088E+02 -0.26960078103E+02  0.61170578206E+02  0.69515853765E+02  0.41800000000E+01 0. -1.
        -11    1    4    4    0    0  0.12307489991E+02 -0.70872050529E+02 -0.24634149083E+01  0.71974928059E+02  0.00000000000E+00 0.  1.
         11    1    4    4    0    0 -0.31750146955E+02  0.70704086670E+01  0.88855878312E+01  0.33719670543E+02  0.00000000000E+00 0. -1.
</event>
<event>
 8    1  0.7112384E-009  0.1071254E+03  0.7561462E-02  0.1265988E+00
          2   -1    0    0  501    0  0.00000000000E+00  0.00000000000E+00  0.27274296021E+02  0.27274296021E+02  0.00000000000E+00 0.  1.
         -2   -1    0    0    0  501 -0.00000000000E+00 -0.00000000000E+00 -0.69614433305E+03  0.69614433305E+03  0.00000000000E+00 0. -1.
         25    2    1    2    0    0 -0.24074170703E+02  0.56026093136E+02 -0.52547552772E+03  0.54359016511E+03  0.12508896258E+03 0.  0.
         23    2    1    2    0    0  0.24074170703E+02 -0.56026093136E+02 -0.14339450930E+03  0.17982846396E+03  0.89765262462E+02 0.  0.
          5    1    3    3  502    0 -0.21598207581E+02  0.93513677261E+02 -0.43598717456E+03  0.44644549409E+03  0.41800000000E+01 0. -1.
         -5    1    3    3    0  502 -0.24759631223E+01 -0.37487584125E+02 -0.89488353158E+02  0.97144671022E+02  0.41800000000E+01 0. -1.
        -11    1    4    4    0    0  0.39013680951E+02 -0.26110979236E+02 -0.18372888746E+02  0.50412434764E+02  0.00000000000E+00 0.  1.
         11    1    4    4    0    0 -0.14939510248E+02 -0.29915113900E+02 -0.12502162056E+03  0.12941602920E+03  0.00000000000E+00 0. -1.
</event>
<event>
 8    1  0.7112384E-009  0.1727131E+03  0.7561462E-02  0.1175048E+00
          1   -1    0    0  501    0  0.00000000000E+00  0.00000000000E+00  0.12269496191E+03  0.12269496191E+03  0.00000000000E+00 0. -1.
         -1   -1    0    0    0  501 -0.00000000000E+00 -0.00000000000E+00 -0.29596319769E+03  0.29596319769E+03  0.00000000000E+00 0.  1.
         25    2    1    2    0    0 -0.15481043218E+03 -0.12176982348E+02 -0.99957027962E+02  0.22305368052E+03  0.12508792164E+03 0.  0.
         23    2    1    2    0    0  0.15481043218E+03  0.12176982348E+02 -0.73311207818E+02  0.19560447908E+03  0.93659117182E+02 0.  0.
          5    1    3    3  502    0 -0.10168824205E+03  0.30540212079E+02 -0.11123844648E+03  0.15383324576E+03  0.41800000000E+01 0. -1.
         -5    1    3    3    0  502 -0.53122190132E+02 -0.42717194427E+02  0.11281418519E+02  0.69220434757E+02  0.41800000000E+01 0. -1.
        -11    1    4    4    0    0  0.18825121622E+02 -0.23669682962E+02  0.10356188275E+02  0.31967010045E+02  0.00000000000E+00 0. -1.
         11    1    4    4    0    0  0.13598531056E+03  0.35846665310E+02 -0.83667396093E+02  0.16363746903E+03  0.00000000000E+00 0.  1.
</event>
<event>
 8    1  0.7112384E-009  0.1620786E+03  0.7561462E-02  0.1186370E+00
          1   -1    0    0  501    0  0.00000000000E+00  0.00000000000E+00  0.65528404736E+03  0.65528404736E+03  0.00000000000E+00 0. -1.
         -1   -1    0    0    0  501 -0.00000000000E+00 -0.00000000000E+00 -0.48688026662E+02  0.48688026662E+02  0.00000000000E+00 0.  1.
         25    2    1    2    0    0  0.13755739888E+03  0.54240221362E+01  0.25516859991E+03  0.31576320521E+03  0.12507569461E+03 0.  0.
         23    2    1    2    0    0 -0.13755739888E+03 -0.54240221362E+01  0.35142742079E+03  0.38820886881E+03  0.90848421772E+02 0.  0.
          5    1    3    3  502    0 -0.15903475593E+02 -0.24580748084E+02  0.40023914683E+02  0.49764644668E+02  0.41800000000E+01 0. -1.
         -5    1    3    3    0  502  0.15346087447E+03  0.30004770220E+02  0.21514468523E+03  0.26599856054E+03  0.41800000000E+01 0. -1.
        -11    1    4    4    0    0 -0.52467075052E+02 -0.77640115177E+01  0.25107953423E+03  0.25662035451E+03  0.00000000000E+00 0. -1.
         11    1    4    4    0    0 -0.85090323828E+02  0.23399893816E+01  0.10034788656E+03  0.13158851431E+03  0.00000000000E+00 0.  1.
</event>
<event>
 8    1  0.7112384E-009  0.2057113E+03  0.7561462E-02  0.1145008E+00
          2   -1    0    0  501    0  0.00000000000E+00  0.00000000000E+00  0.13837739472E+04  0.13837739472E+04  0.00000000000E+00 0. -1.
         -2   -1    0    0    0  501 -0.00000000000E+00 -0.00000000000E+00 -0.58819221086E+02  0.58819221086E+02  0.00000000000E+00 0.  1.
         25    2    1    2    0    0  0.67866521887E+02 -0.18068130645E+03  0.11304896341E+04  0.11536493014E+04  0.12509315915E+03 0.  0.
         23    2    1    2    0    0 -0.67866521887E+02  0.18068130645E+03  0.19446509206E+03  0.28894386696E+03  0.91762121419E+02 0.  0.
          5    1    3    3  502    0  0.33514197584E+02 -0.18335746739E+02  0.50658467996E+03  0.50804026555E+03  0.41800000000E+01 0. -1.
         -5    1    3    3    0  502  0.34352324303E+02 -0.16234555971E+03  0.62390495413E+03  0.64560903582E+03  0.41800000000E+01 0. -1.
        -11    1    4    4    0    0 -0.25919471741E+00  0.10700359380E+03  0.64421980909E+02  0.12490007162E+03  0.00000000000E+00 0.  1.
         11    1    4    4    0    0 -0.67607327170E+02  0.73677712654E+02  0.13004311115E+03  0.16404379533E+03  0.00000000000E+00 0. -1.
</event>
<event>
 8    1  0.7112384E-009  0.8136019E+02  0.7561462E-02  0.1325235E+00
          2   -1    0    0  501    0  0.00000000000E+00  0.00000000000E+00  0.12196458167E+04  0.12196458167E+04  0.00000000000E+00 0. -1.
         -2   -1    0    0    0  501 -0.00000000000E+00 -0.00000000000E+00 -0.10750496008E+02  0.10750496008E+02  0.00000000000E+00 0.  1.
         25    2    1    2    0    0 -0.13210764320E+02  0.15975535706E+02  0.87436743713E+03  0.88351258941E+03  0.12508532490E+03 0.  0.
         23    2    1    2    0    0  0.13210764320E+02 -0.15975535706E+02  0.33452788360E+03  0.34688372333E+03  0.89384957186E+02 0.  0.
          5    1    3    3  502    0 -0.39262423069E+02 -0.83931390014E+01  0.79905795345E+03  0.80007691382E+03  0.41800000000E+01 0. -1.
         -5    1    3    3    0  502  0.26051658748E+02  0.24368674707E+02  0.75309483676E+02  0.83435675596E+02  0.41800000000E+01 0. -1.
        -11    1    4    4    0    0  0.18713502943E+02  0.32579513594E+02  0.90112928742E+02  0.97631756231E+02  0.00000000000E+00 0. -1.
         11    1    4    4    0    0 -0.55027386228E+01 -0.48555049299E+02  0.24441495486E+03  0.24925196710E+03  0.00000000000E+00 0.  1.
</event>
<event>
 8    1  0.7112384E-009  0.9099090E+02  0.7561462E-02  0.1300470E+00
         -2   -1    0    0    0  501 -0.00000000000E+00  0.00000000000E+00  0.20327124999E+02  0.20327124999E+02  0.00000000000E+00 0.  1.
          2   -1    0    0  501    0  0.00000000000E+00 -0.00000000000E+00 -0.83416432704E+03  0.83416432704E+03  0.00000000000E+00 0. -1.
         25    2    1    2    0    0 -0.17586037573E+02  0.38456261911E+02 -0.27819949698E+03  0.30794580780E+03  0.12508999810E+03 0.  0.
         23    2    1    2    0    0  0.17586037573E+02 -0.38456261911E+02 -0.53563770506E+03  0.54654564424E+03  0.10008115384E+03 0.  0.
          5    1    3    3  502    0  0.16009527354E+01  0.51919026983E+02 -0.27929193181E+03  0.28411195678E+03  0.41800000000E+01 0.  1.
         -5    1    3    3    0  502 -0.19186990309E+02 -0.13462765071E+02  0.10924348330E+01  0.23833851018E+02  0.41800000000E+01 0.  1.
        -11    1    4    4    0    0 -0.40188893755E+02 -0.22786100204E+02 -0.17613672030E+03  0.18209474947E+03  0.00000000000E+00 0.  1.
         11    1    4    4    0    0  0.57774931328E+02 -0.15670161708E+02 -0.35950098476E+03  0.36445089477E+03  0.00000000000E+00 0. -1.
</event>
<event>
 8    1  0.7112384E-009  0.9551070E+02  0.7561462E-02  0.1290030E+00
          2   -1    0    0  501    0  0.00000000000E+00  0.00000000000E+00  0.71831937868E+02  0.71831937868E+02  0.00000000000E+00 0. -1.
         -2   -1    0    0    0  501 -0.00000000000E+00 -0.00000000000E+00 -0.23869737149E+03  0.23869737149E+03  0.00000000000E+00 0.  1.
         25    2    1    2    0    0  0.18438696992E+02 -0.61898668147E+02 -0.55635684598E+02  0.15137221099E+03  0.12508711442E+03 0.  0.
         23    2    1    2    0    0 -0.18438696992E+02  0.61898668147E+02 -0.11122974902E+03  0.15915709836E+03  0.93741635507E+02 0.  0.
          5    1    3    3  502    0  0.38314130803E+02  0.46351873367E+01  0.23994022905E+02  0.45635984880E+02  0.41800000000E+01 0. -1.
         -5    1    3    3    0  502 -0.19875433811E+02 -0.66533855484E+02 -0.79629707503E+02  0.10573622611E+03  0.41800000000E+01 0. -1.
        -11    1    4    4    0    0  0.17715896981E+02  0.13750305563E+02 -0.93843265736E+02  0.96485659208E+02  0.00000000000E+00 0.  1.
         11    1    4    4    0    0 -0.36154593973E+02  0.48148362584E+02 -0.17386483284E+02  0.62671439156E+02  0.00000000000E+00 0. -1.
</event>
<event>
 8    1  0.7112384E-009  0.1020191E+03  0.7561462E-02  0.1276107E+00
         -1   -1    0    0    0  501 -0.00000000000E+00  0.00000000000E+00  0.11521748471E+03  0.11521748471E+03  0.00000000000E+00 0.  1.
          1   -1    0    0  501    0  0.00000000000E+00 -0.00000000000E+00 -0.14673689797E+03  0.14673689797E+03  0.00000000000E+00 0. -1.
         25    2    1    2    0    0  0.94032361743E+01  0.22333174357E+02  0.48685949422E+02  0.13640029732E+03  0.12509007918E+03 0.  0.
         23    2    1    2    0    0 -0.94032361743E+01 -0.22333174357E+02 -0.80205362678E+02  0.12555408536E+03  0.93507949508E+02 0.  0.
          5    1    3    3  502    0  0.24228554900E+02 -0.42839187787E+02 -0.62438513744E+01  0.49786313007E+02  0.41800000000E+01 0.  1.
         -5    1    3    3    0  502 -0.14825318726E+02  0.65172362144E+02  0.54929800797E+02  0.86613984311E+02  0.41800000000E+01 0.  1.
        -11    1    4    4    0    0 -0.10148932696E+02 -0.54532579517E+02 -0.23295247195E+02  0.60162044559E+02  0.00000000000E+00 0.  1.
         11    1    4    4    0    0  0.74569652163E+00  0.32199405161E+02 -0.56910115483E+02  0.65392040802E+02  0.00000000000E+00 0. -1.
</event>
<event>
 8    1  0.7112384E-009  0.1285864E+03  0.7561462E-02  0.1229568E+00
         -2   -1    0    0    0  501 -0.00000000000E+00  0.00000000000E+00  0.64843596197E+02  0.64843596197E+02  0.00000000000E+00 0.  1.
          2   -1    0    0  501    0  0.00000000000E+00 -0.00000000000E+00 -0.32548122459E+03  0.32548122459E+03  0.00000000000E+00 0. -1.
         25    2    1    2    0    0 -0.73280821219E+02  0.48407408215E+01 -0.57282668886E+02  0.15597197152E+03  0.12510971271E+03 0.  0.
         23    2    1    2    0    0  0.73280821219E+02 -0.48407408215E+01 -0.20335495951E+03  0.23435284927E+03  0.90412979558E+02 0.  0.
          5    1    3    3  502    0 -0.42821402791E+02  0.64746061022E+02 -0.30729414324E+02  0.83591233150E+02  0.41800000000E+01 0.  1.
         -5    1    3    3    0  502 -0.30459418428E+02 -0.59905320201E+02 -0.26553254562E+02  0.72380738371E+02  0.41800000000E+01 0.  1.
        -11    1    4    4    0    0  0.75603153604E+02 -0.33966166552E+02 -0.11850461768E+03  0.14461286844E+03  0.00000000000E+00 0.  1.
         11    1    4    4    0    0 -0.23223323851E+01  0.29125425730E+02 -0.84850341826E+02  0.89739980831E+02  0.00000000000E+00 0. -1.
</event>
<event>
 8    1  0.7112384E-009  0.1552466E+03  0.7561462E-02  0.1194170E+00
          1   -1    0    0  501    0  0.00000000000E+00  0.00000000000E+00  0.16443920090E+03  0.16443920090E+03  0.00000000000E+00 0. -1.
         -1   -1    0    0    0  501 -0.00000000000E+00 -0.00000000000E+00 -0.16373168964E+03  0.16373168964E+03  0.00000000000E+00 0.  1.
         25    2    1    2    0    0 -0.89322269947E+02  0.76239727827E+02 -0.29749622797E+02  0.17413705501E+03  0.12509080647E+03 0.  0.
         23    2    1    2    0    0  0.89322269947E+02 -0.76239727827E+02  0.30457134059E+02  0.15403383553E+03  0.94909543588E+02 0.  0.
          5    1    3    3  502    0  0.31717671817E+02  0.10001513839E+02 -0.48711556165E+01  0.33870954246E+02  0.41800000000E+01 0.  1.
         -5    1    3    3    0  502 -0.12103994176E+03  0.66238213988E+02 -0.24878467181E+02  0.14026610076E+03  0.41800000000E+01 0.  1.
        -11    1    4    4    0    0 -0.12717531024E+01 -0.42099655889E+02  0.38266202823E+02  0.56906068748E+02  0.00000000000E+00 0. -1.
         11    1    4    4    0    0  0.90594023049E+02 -0.34140071938E+02 -0.78090687635E+01  0.97127766777E+02  0.00000000000E+00 0.  1.
</event>
<event>
 8    1  0.7112384E-009  0.8214332E+02  0.7561462E-02  0.1323077E+00
          1   -1    0    0  501    0  0.00000000000E+00  0.00000000000E+00  0.23003320845E+03  0.23003320845E+03  0.00000000000E+00 0. -1.
         -1   -1    0    0    0  501 -0.00000000000E+00 -0.00000000000E+00 -0.70831000109E+02  0.70831000109E+02  0.00000000000E+00 0.  1.
         25    2    1    2    0    0 -0.38192032072E+02  0.46002241267E+02  0.12398050909E+03  0.18599350390E+03  0.12509028477E+03 0.  0.
         23    2    1    2    0    0  0.38192032072E+02 -0.46002241267E+02  0.35221699249E+02  0.11487070466E+03  0.91541647214E+02 0.  0.
          5    1    3    3  502    0 -0.32288014781E+01 -0.24831235902E+02 -0.12460876929E+02  0.28280051083E+02  0.41800000000E+01 0. -1.
         -5    1    3    3    0  502 -0.34963230594E+02  0.70833477169E+02  0.13644138602E+03  0.15771345282E+03  0.41800000000E+01 0. -1.
        -11    1    4    4    0    0  0.17497738445E+02 -0.21788547318E+02  0.65320646135E+02  0.71047156568E+02  0.00000000000E+00 0. -1.
         11    1    4    4    0    0  0.20694293627E+02 -0.24213693948E+02 -0.30098946886E+02  0.43823548087E+02  0.00000000000E+00 0.  1.
</event>
<event>
 8    1  0.7112384E-009  0.1146106E+03  0.7561462E-02  0.1252262E+00
          1   -1    0    0  501    0  0.00000000000E+00  0.00000000000E+00  0.10264788980E+04  0.10264788980E+04  0.00000000000E+00 0. -1.
         -1   -1    0    0    0  501 -0.00000000000E+00 -0.00000000000E+00 -0.64451731644E+02  0.64451731644E+02  0.00000000000E+00 0.  1.
         25    2    1    2    0    0 -0.88432979002E+01  0.59385720920E+02  0.97192563444E+03  0.98177881546E+03  0.12508131694E+03 0.  0.
         23    2    1    2    0    0  0.88432979002E+01 -0.59385720920E+02 -0.98984680381E+01  0.10915181423E+03  0.90616064316E+02 0.  0.
          5    1    3    3  502    0  0.89079920478E+01  0.94480850984E+02  0.56435105084E+03  0.57228975572E+03  0.41800000000E+01 0.  1.
         -5    1    3    3    0  502 -0.17751289948E+02 -0.35095130063E+02  0.40757458360E+03  0.40948905974E+03  0.41800000000E+01 0.  1.
        -11    1    4    4    0    0  0.34764283542E+00  0.17410555463E+02 -0.24958396071E+02  0.30433038487E+02  0.00000000000E+00 0.  1.
         11    1    4    4    0    0  0.84956550648E+01 -0.76796276384E+02  0.15059928033E+02  0.78718775738E+02  0.00000000000E+00 0. -1.
</event>
<event>
 8    1  0.7112384E-009  0.1197905E+03  0.7561462E-02  0.1243443E+00
         -1   -1    0    0    0  501 -0.00000000000E+00  0.00000000000E+00  0.50151412278E+02  0.50151412278E+02  0.00000000000E+00 0.  1.
          1   -1    0    0  501    0  0.00000000000E+00 -0.00000000000E+00 -0.34710732199E+03  0.34710732199E+03  0.00000000000E+00 0. -1.
         25    2    1    2    0    0 -0.70858574687E+02 -0.12993551652E+02 -0.19541744996E+03  0.24295139949E+03  0.12509049833E+03 0.  0.
         23    2    1    2    0    0  0.70858574687E+02  0.12993551652E+02 -0.10153845975E+03  0.15430733478E+03  0.91164273523E+02 0.  0.
          5    1    3    3  502    0  0.20937223754E+02 -0.39391404606E+02 -0.37879747487E+02  0.58671950411E+02  0.41800000000E+01 0.  1.
         -5    1    3    3    0  502 -0.91795798441E+02  0.26397852954E+02 -0.15753770248E+03  0.18427944908E+03  0.41800000000E+01 0.  1.
        -11    1    4    4    0    0 -0.10528522109E+02 -0.10077514654E+02 -0.56743463745E+02  0.58585209372E+02  0.00000000000E+00 0. -1.
         11    1    4    4    0    0  0.81387096796E+02  0.23071066306E+02 -0.44794996007E+02  0.95722125407E+02  0.00000000000E+00 0.  1.
</event>
<event>
 8    1  0.7112384E-009  0.1157674E+03  0.7561462E-02  0.1250248E+00
          4   -1    0    0  501    0  0.00000000000E+00  0.00000000000E+00  0.79178574262E+02  0.79178574262E+02  0.00000000000E+00 0. -1.
         -4   -1    0    0    0  501 -0.00000000000E+00 -0.00000000000E+00 -0.19675302674E+03  0.19675302674E+03  0.00000000000E+00 0.  1.
         25    2    1    2    0    0 -0.43561316787E+02 -0.41501158471E+02 -0.46915365093E+02  0.14651489809E+03  0.12508249040E+03 0.  0.
         23    2    1    2    0    0  0.43561316787E+02  0.41501158471E+02 -0.70659087383E+02  0.12941670291E+03  0.90200010466E+02 0.  0.
          5    1    3    3  502    0 -0.76435098792E+02 -0.57561889573E+02 -0.52573814616E+02  0.10925737431E+03  0.41800000000E+01 0.  1.
         -5    1    3    3    0  502  0.32873782005E+02  0.16060731102E+02  0.56584495232E+01  0.37257523776E+02  0.41800000000E+01 0.  1.
        -11    1    4    4    0    0  0.23224220388E+02 -0.22161054423E+02  0.78771416352E-01  0.32101136284E+02  0.00000000000E+00 0.  1.
         11    1    4    4    0    0  0.20337096399E+02  0.63662212894E+02 -0.70737858799E+02  0.97315566627E+02  0.00000000000E+00 0. -1.
</event>
<event>
 8    1  0.7112384E-009  0.1411710E+03  0.7561462E-02  0.1211762E+00
          1   -1    0    0  501    0  0.00000000000E+00  0.00000000000E+00  0.16886898128E+03  0.16886898128E+03  0.00000000000E+00 0. -1.
         -1   -1    0    0    0  501 -0.00000000000E+00 -0.00000000000E+00 -0.12297467794E+03  0.12297467794E+03  0.00000000000E+00 0.  1.
         25    2    1    2    0    0  0.89029334926E+02 -0.28069084363E+02  0.13510690550E+02  0.15666589140E+03  0.12509023461E+03 0.  0.
         23    2    1    2    0    0 -0.89029334926E+02  0.28069084363E+02  0.32383612788E+02  0.13517776783E+03  0.92250932584E+02 0.  0.
          5    1    3    3  502    0 -0.69169214679E+01 -0.51657951893E+02 -0.13791182121E+02  0.54074549473E+02  0.41800000000E+01 0. -1.
         -5    1    3    3    0  502  0.95946256394E+02  0.23588867530E+02  0.27301872671E+02  0.10259134193E+03  0.41800000000E+01 0. -1.
        -11    1    4    4    0    0 -0.17325538891E+02 -0.32808802734E+02  0.70747476911E+01  0.37770939749E+02  0.00000000000E+00 0. -1.
         11    1    4    4    0    0 -0.71703796036E+02  0.60877887097E+02  0.25308865097E+02  0.97406828076E+02  0.00000000000E+00 0.  1.
</event>
<event>
 8    1  0.7112384E-009  0.1471795E+03  0.7561462E-02  0.1203982E+00
          1   -1    0    0  501    0  0.00000000000E+00  0.00000000000E+00  0.13167475450E+03  0.13167475450E+03  0.00000000000E+00 0. -1.
         -1   -1    0    0    0  501 -0.00000000000E+00 -0.00000000000E+00 -0.19978445542E+03  0.19978445542E+03  0.00000000000E+00 0.  1.
         25    2    1    2    0    0  0.11328946342E+03 -0.77380331162E+01  0.30467767014E+01  0.16896882136E+03  0.12508716986E+03 0.  0.
         23    2    1    2    0    0 -0.11328946342E+03  0.77380331162E+01 -0.71156477624E+02  0.16249038856E+03  0.91899414508E+02 0.  0.
          5    1    3    3  502    0  0.31072692908E+02  0.54119122925E+02  0.17596998519E+02  0.64973213462E+02  0.41800000000E+01 0. -1.
         -5    1    3    3    0  502  0.82216770514E+02 -0.61857156041E+02 -0.14550221818E+02  0.10399560790E+03  0.41800000000E+01 0. -1.
        -11    1    4    4    0    0 -0.15869738631E+02  0.25286311063E+02 -0.54458153330E+02  0.62104239755E+02  0.00000000000E+00 0.  1.
         11    1    4    4    0    0 -0.97419724791E+02 -0.17548277947E+02 -0.16698324294E+02  0.10038614880E+03  0.00000000000E+00 0. -1.
</event>
<event>
 8    1  0.7112384E-009  0.1176319E+03  0.7561462E-02  0.1247056E+00
          2   -1    0    0  501    0  0.00000000000E+00  0.00000000000E+00  0.72634547073E+03  0.72634547073E+03  0.00000000000E+00 0. -1.
         -2   -1    0    0    0  501 -0.00000000000E+00 -0.00000000000E+00 -0.24199133051E+02  0.24199133051E+02  0.00000000000E+00 0.  1.
         25    2    1    2    0    0  0.45201637731E+02  0.11673243789E+01  0.55106186890E+03  0.56688699577E+03  0.12508849632E+03 0.  0.
         23    2    1    2    0    0 -0.45201637731E+02 -0.11673243789E+01  0.15108446877E+03  0.18365760801E+03  0.94122524272E+02 0.  0.
          5    1    3    3  502    0 -0.42783001635E+02  0.68173947163E+00  0.22877076576E+03  0.23277539747E+03  0.41800000000E+01 0. -1.
         -5    1    3    3    0  502  0.87984639366E+02  0.48558490723E+00  0.32229110314E+03  0.33411159830E+03  0.41800000000E+01 0. -1.
        -11    1    4    4    0    0 -0.64584138078E+02  0.26994981134E+02  0.95622753487E+02  0.11850548883E+03  0.00000000000E+00 0. -1.
         11    1    4    4    0    0  0.19382500347E+02 -0.28162305512E+02  0.55461715287E+02  0.65152119183E+02  0.00000000000E+00 0.  1.
</event>
<event>
 8    1  0.7112384E-009  0.1139617E+03  0.7561462E-02  0.1253404E+00
         -2   -1    0    0    0  501 -0.00000000000E+00  0.00000000000E+00  0.49773829680E+02  0.49773829680E+02  0.00000000000E+00 0.  1.
          2   -1    0    0  501    0  0.00000000000E+00 -0.00000000000E+00 -0.49301077201E+03  0.49301077201E+03  0.00000000000E+00 0. -1.
         25    2    1    2    0    0 -0.72906094118E+02 -0.60161831560E+02 -0.34328169642E+03  0.37739183514E+03  0.12509008592E+03 0.  0.
         23    2    1    2    0    0  0.72906094118E+02  0.60161831560E+02 -0.99955245902E+02  0.16539276655E+03  0.91809430376E+02 0.  0.
          5    1    3    3  502    0 -0.32218931884E+02  0.16482902336E+02 -0.23856046437E+03  0.24132615523E+03  0.41800000000E+01 0.  1.
         -5    1    3    3    0  502 -0.40687162234E+02 -0.76644733896E+02 -0.10472123206E+03  0.13606567991E+03  0.41800000000E+01 0.  1.
        -11    1    4    4    0    0  0.60172760307E+02  0.67089729027E+02 -0.11392514637E+03  0.14526090940E+03  0.00000000000E+00 0. -1.
         11    1    4    4    0    0  0.12733333811E+02 -0.69278974668E+01  0.13969900466E+02  0.20131857149E+02  0.00000000000E+00 0.  1.
</event>
<event>
 8    1  0.7112384E-009  0.1115526E+03  0.7561462E-02  0.1257721E+00
          1   -1    0    0  501    0  0.00000000000E+00  0.00000000000E+00  0.27259016500E+03  0.27259016500E+03  0.00000000000E+00 0. -1.
         -1   -1    0    0    0  501 -0.00000000000E+00 -0.00000000000E+00 -0.64904113527E+02  0.64904113527E+02  0.00000000000E+00 0.  1.
         25    2    1    2    0    0  0.67061179072E+02 -0.15203553838E+02  0.69887714222E+02  0.15893359038E+03  0.12508894342E+03 0.  0.
         23    2    1    2    0    0 -0.67061179072E+02  0.15203553838E+02  0.13779833725E+03  0.17856068815E+03  0.90372494786E+02 0.  0.
          5    1    3    3  502    0 -0.19462566212E+02 -0.17030111203E+02  0.67335558501E+02  0.72252100383E+02  0.41800000000E+01 0. -1.
         -5    1    3    3    0  502  0.86523745284E+02  0.18265573643E+01  0.25521557213E+01  0.86681490000E+02  0.41800000000E+01 0. -1.
        -11    1    4    4    0    0 -0.43184424432E+02  0.51255466556E+02  0.10378456749E+03  0.12354454182E+03  0.00000000000E+00 0.  1.
         11    1    4    4    0    0 -0.23876754641E+02 -0.36051912718E+02  0.34013769765E+02  0.55016146324E+02  0.00000000000E+00 0. -1.
</event>
<event>
 8    1  0.7112384E-009  0.1007205E+03  0.7561462E-02  0.1278788E+00
          1   -1    0    0  501    0  0.00000000000E+00  0.00000000000E+00  0.27729941472E+02  0.27729941472E+02  0.00000000000E+00 0. -1.
         -1   -1    0    0    0  501 -0.00000000000E+00 -0.00000000000E+00 -0.48604900292E+03  0.48604900292E+03  0.00000000000E+00 0.  1.
         25    2    1    2    0    0  0.19320991010E+02 -0.21412735876E+02 -0.33379951957E+03  0.35763382181E+03  0.12509206724E+03 0.  0.
         23    2    1    2    0    0 -0.19320991010E+02  0.21412735876E+02 -0.12451954188E+03  0.15614512259E+03  0.89690451251E+02 0.  0.
          5    1    3    3  502    0  0.11885890726E+02 -0.73861429231E+02 -0.20735610670E+03  0.22047859876E+03  0.41800000000E+01 0.  1.
         -5    1    3    3    0  502  0.74351002841E+01  0.52448693356E+02 -0.12644341287E+03  0.13715522305E+03  0.41800000000E+01 0.  1.
        -11    1    4    4    0    0 -0.16866186117E+02 -0.23206584828E+02 -0.10228570506E+03  0.10623266575E+03  0.00000000000E+00 0.  1.
         11    1    4    4    0    0 -0.24548048930E+01  0.44619320704E+02 -0.22233836820E+02  0.49912456831E+02  0.00000000000E+00 0. -1.
</event>
<event>
 8    1  0.7112384E-009  0.7948419E+02  0.7561462E-02  0.1330522E+00
          1   -1    0    0  501    0  0.00000000000E+00  0.00000000000E+00  0.53638002495E+03  0.53638002495E+03  0.00000000000E+00 0. -1.
         -1   -1    0    0    0  501 -0.00000000000E+00 -0.00000000000E+00 -0.27381327051E+02  0.27381327051E+02  0.00000000000E+00 0.  1.
         25    2    1    2    0    0 -0.47492035221E+02  0.13462138251E+02  0.26450971836E+03  0.29673102371E+03  0.12508871552E+03 0.  0.
         23    2    1    2    0    0  0.47492035221E+02 -0.13462138251E+02  0.24448897954E+03  0.26703032829E+03  0.95360434848E+02 0.  0.
          5    1    3    3  502    0 -0.21442322213E+02  0.38717666241E+02  0.18709506061E+02  0.48232238991E+02  0.41800000000E+01 0.  1.
         -5    1    3    3    0  502 -0.26049713008E+02 -0.25255527989E+02  0.24580021230E+03  0.24849878472E+03  0.41800000000E+01 0.  1.
        -11    1    4    4    0    0 -0.13006485964E+02 -0.11655247138E+02  0.25674099382E+01  0.17652338564E+02  0.00000000000E+00 0.  1.
         11    1    4    4    0    0  0.60498521186E+02 -0.18068911128E+01  0.24192156960E+03  0.24937798972E+03  0.00000000000E+00 0. -1.
</event>
<event>
 8    1  0.7112384E-009  0.1200901E+03  0.7561462E-02  0.1242948E+00
          1   -1    0    0  501    0  0.00000000000E+00  0.00000000000E+00  0.87182786174E+03  0.87182786174E+03  0.00000000000E+00 0. -1.
         -1   -1    0    0    0  501 -0.00000000000E+00 -0.00000000000E+00 -0.18343878436E+02  0.18343878436E+02  0.00000000000E+00 0.  1.
         25    2    1    2    0    0 -0.45331697130E+02  0.23583417914E+02  0.61069494507E+03  0.62546594713E+03  0.12509274447E+03 0.  0.
         23    2    1    2    0    0  0.45331697130E+02 -0.23583417914E+02  0.24278903823E+03  0.26470579304E+03  0.92257787856E+02 0.  0.
          5    1    3    3  502    0  0.35586032219E+02  0.38289317050E+02  0.21636633281E+03  0.22263041091E+03  0.41800000000E+01 0.  1.
         -5    1    3    3    0  502 -0.80917729349E+02 -0.14705899137E+02  0.39432861227E+03  0.40283553622E+03  0.41800000000E+01 0.  1.
        -11    1    4    4    0    0  0.61806861127E+02  0.14858428665E+02  0.14160005172E+03  0.15521416054E+03  0.00000000000E+00 0.  1.
         11    1    4    4    0    0 -0.16475163997E+02 -0.38441846579E+02  0.10118898651E+03  0.10949163251E+03  0.00000000000E+00 0. -1.
</event>
<event>
 8    1  0.7112384E-009  0.1157251E+03  0.7561462E-02  0.1250321E+00
         -4   -1    0    0    0  501 -0.00000000000E+00  0.00000000000E+00  0.14430236309E+03  0.14430236309E+03  0.00000000000E+00 0.  1.
          4   -1    0    0  501    0  0.00000000000E+00 -0.00000000000E+00 -0.16851806821E+03  0.16851806821E+03  0.00000000000E+00 0. -1.
         25    2    1    2    0    0  0.13399619362E+02 -0.94385780699E+02 -0.74239781287E+02  0.17391158930E+03  0.12508185468E+03 0.  0.
         23    2    1    2    0    0 -0.13399619362E+02  0.94385780699E+02  0.50024076166E+02  0.13890884201E+03  0.87778316200E+02 0.  0.
          5    1    3    3  502    0 -0.27036637963E+02 -0.13980679180E+02 -0.77900261279E+02  0.83739848877E+02  0.41800000000E+01 0. -1.
         -5    1    3    3    0  502  0.40436257325E+02 -0.80405101519E+02  0.36604799918E+01  0.90171740421E+02  0.41800000000E+01 0. -1.
        -11    1    4    4    0    0  0.15596031135E+02  0.72877511006E+02 -0.31995312358E+01  0.74596278713E+02  0.00000000000E+00 0. -1.
         11    1    4    4    0    0 -0.28995650497E+02  0.21508269693E+02  0.53223607402E+02  0.64312563297E+02  0.00000000000E+00 0.  1.
</event>
<event>
 8    1  0.7112384E-009  0.1430879E+03  0.7561462E-02  0.1209233E+00
          2   -1    0    0  501    0  0.00000000000E+00  0.00000000000E+00  0.53687423327E+03  0.53687423327E+03  0.00000000000E+00 0. -1.
         -2   -1    0    0    0  501 -0.00000000000E+00 -0.00000000000E+00 -0.47226180814E+02  0.47226180814E+02  0.00000000000E+00 0.  1.
         25    2    1    2    0    0  0.88634605338E+02 -0.74547304617E+02  0.23472917300E+03  0.29010082051E+03  0.12508919823E+03 0.  0.
         23    2    1    2    0    0 -0.88634605338E+02  0.74547304617E+02  0.25491887946E+03  0.29399959358E+03  0.89658976299E+02 0.  0.
          5    1    3    3  502    0 -0.14115015939E+02 -0.62175407665E+02  0.11688068017E+03  0.13320503290E+03  0.41800000000E+01 0.  1.
         -5    1    3    3    0  502  0.10274962128E+03 -0.12371896952E+02  0.11784849283E+03  0.15689578761E+03  0.41800000000E+01 0.  1.
        -11    1    4    4    0    0 -0.65086961946E+02  0.68293442342E+02  0.25246064764E+03  0.26951193941E+03  0.00000000000E+00 0. -1.
         11    1    4    4    0    0 -0.23547643392E+02  0.62538622745E+01  0.24582318200E+01  0.24487654162E+02  0.00000000000E+00 0.  1.
</event>
<event>
 8    1  0.7112384E-009  0.1133573E+03  0.7561462E-02  0.1254476E+00
         -2   -1    0    0    0  501 -0.00000000000E+00  0.00000000000E+00  0.28227211718E+02  0.28227211718E+02  0.00000000000E+00 0.  1.
          2   -1    0    0  501    0  0.00000000000E+00 -0.00000000000E+00 -0.16551866546E+04  0.16551866546E+04  0.00000000000E+00 0. -1.
         25    2    1    2    0    0 -0.47800093202E+02 -0.61990067642E+02 -0.15044934131E+04  0.15117129269E+04  0.12509166992E+03 0.  0.
         23    2    1    2    0    0  0.47800093202E+02  0.61990067642E+02 -0.12246602979E+03  0.17170093943E+03  0.91409336247E+02 0.  0.
          5    1    3    3  502    0 -0.61768680399E+02 -0.35677892048E+01 -0.11833150270E+04  0.11849388273E+04  0.41800000000E+01 0. -1.
         -5    1    3    3    0  502  0.13968587197E+02 -0.58422278438E+02 -0.32117838608E+03  0.32677409955E+03  0.41800000000E+01 0. -1.
        -11    1    4    4    0    0 -0.15706607530E+02 -0.50009336250E-01  0.48932643886E+01  0.16451263095E+02  0.00000000000E+00 0.  1.
         11    1    4    4    0    0  0.63506700732E+02  0.62040076979E+02 -0.12735929418E+03  0.15524967634E+03  0.00000000000E+00 0. -1.
</event>
<event>
 8    1  0.7112384E-009  0.2873031E+03  0.7561462E-02  0.1091766E+00
          1   -1    0    0  501    0  0.00000000000E+00  0.00000000000E+00  0.12310964222E+04  0.12310964222E+04  0.00000000000E+00 0. -1.
         -1   -1    0    0    0  501 -0.00000000000E+00 -0.00000000000E+00 -0.89364378055E+02  0.89364378055E+02  0.00000000000E+00 0.  1.
         25    2    1    2    0    0  0.27240614683E+03  0.72566293698E+02  0.85279052272E+03  0.90684759652E+03  0.12509960778E+03 0.  0.
         23    2    1    2    0    0 -0.27240614683E+03 -0.72566293698E+02  0.28894152146E+03  0.41361320377E+03  0.90098300193E+02 0.  0.
          5    1    3    3  502    0  0.17398388377E+03  0.43510288386E+02  0.70089199458E+03  0.72348503611E+03  0.41800000000E+01 0.  1.
         -5    1    3    3    0  502  0.98422263058E+02  0.29056005312E+02  0.15189852814E+03  0.18336256041E+03  0.41800000000E+01 0.  1.
        -11    1    4    4    0    0 -0.12959371449E+03  0.55799904069E+01  0.15977540923E+03  0.20580050662E+03  0.00000000000E+00 0. -1.
         11    1    4    4    0    0 -0.14281243234E+03 -0.78146284105E+02  0.12916611223E+03  0.20781269715E+03  0.00000000000E+00 0.  1.
</event>
<event>
 8    1  0.7112384E-009  0.7250595E+02  0.7561462E-02  0.1351773E+00
         -1   -1    0    0    0  501 -0.00000000000E+00  0.00000000000E+00  0.13568784183E+03  0.13568784183E+03  0.00000000000E+00 0.  1.
          1   -1    0    0  501    0  0.00000000000E+00 -0.00000000000E+00 -0.10399812301E+03  0.10399812301E+03  0.00000000000E+00 0. -1.
         25    2    1    2    0    0 -0.14382247222E+00  0.50770684111E+02  0.20522525067E+02  0.13654840738E+03  0.12508641202E+03 0.  0.
         23    2    1    2    0    0  0.14382247222E+00 -0.50770684111E+02  0.11167193753E+02  0.10313755746E+03  0.89078428884E+02 0.  0.
          5    1    3    3  502    0  0.23663913905E+02  0.46332289505E+02  0.66427202381E+02  0.84479035791E+02  0.41800000000E+01 0. -1.
         -5    1    3    3    0  502 -0.23807736377E+02  0.44383946061E+01 -0.45904677313E+02  0.52069371586E+02  0.41800000000E+01 0. -1.
        -11    1    4    4    0    0 -0.18863505511E+02 -0.63123840463E+01 -0.32422802164E+02  0.38038350815E+02  0.00000000000E+00 0. -1.
         11    1    4    4    0    0  0.19007327984E+02 -0.44458300065E+02  0.43589995917E+02  0.65099206645E+02  0.00000000000E+00 0.  1.
</event>
<event>
 8    1  0.7112384E-009  0.1498865E+03  0.7561462E-02  0.1200613E+00
         -2   -1    0    0    0  501 -0.00000000000E+00  0.00000000000E+00  0.22172676984E+03  0.22172676984E+03  0.00000000000E+00 0.  1.
          2   -1    0    0  501    0  0.00000000000E+00 -0.00000000000E+00 -0.18732425788E+03  0.18732425788E+03  0.00000000000E+00 0. -1.
         25    2    1    2    0    0 -0.53396032855E+02 -0.91184927274E+02 -0.11969595330E+03  0.20283388255E+03  0.12509450582E+03 0.  0.
         23    2    1    2    0    0  0.53396032855E+02  0.91184927274E+02  0.15409846526E+03  0.20621714517E+03  0.87254493759E+02 0.  0.
          5    1    3    3  502    0 -0.77651326371E+02 -0.10085439038E+02 -0.48988305492E+02  0.92459564366E+02  0.41800000000E+01 0.  1.
         -5    1    3    3    0  502  0.24255293515E+02 -0.81099488236E+02 -0.70707647804E+02  0.11037431818E+03  0.41800000000E+01 0. -1.
        -11    1    4    4    0    0  0.77553102806E+02  0.70221697500E+02  0.11082883803E+03  0.15240932351E+03  0.00000000000E+00 0.  1.
         11    1    4    4    0    0 -0.24157069951E+02  0.20963229774E+02  0.43269627234E+02  0.53807821663E+02  0.00000000000E+00 0. -1.
</event>
<event>
 8    1  0.7112384E-009  0.8182496E+02  0.7561462E-02  0.1323951E+00
         -2   -1    0    0    0  501 -0.00000000000E+00  0.00000000000E+00  0.11052455322E+03  0.11052455322E+03  0.00000000000E+00 0. -1.
          2   -1    0    0  501    0  0.00000000000E+00 -0.00000000000E+00 -0.11345590900E+03  0.11345590900E+03  0.00000000000E+00 0.  1.
         25    2    1    2    0    0 -0.15498181439E+02 -0.85388769469E+01  0.16619607957E+02  0.12741847486E+03  0.12508457267E+03 0.  0.
         23    2    1    2    0    0  0.15498181439E+02  0.85388769469E+01 -0.19550963739E+02  0.96561987351E+02  0.92891717449E+02 0.  0.
          5    1    3    3  502    0  0.50673258150E+02  0.76672305480E+01  0.27483361603E+02  0.58304142913E+02  0.41800000000E+01 0.  1.
         -5    1    3    3    0  502 -0.66171439589E+02 -0.16206107495E+02 -0.10863753646E+02  0.69114331949E+02  0.41800000000E+01 0.  1.
        -11    1    4    4    0    0  0.22365339506E+02 -0.97804801690E+01 -0.52695110041E+02  0.58074442105E+02  0.00000000000E+00 0.  1.
         11    1    4    4    0    0 -0.68671580667E+01  0.18319357116E+02  0.33144146302E+02  0.38487545247E+02  0.00000000000E+00 0. -1.
</event>
<event>
 8    1  0.7112384E-009  0.6575989E+02  0.7561462E-02  0.1375136E+00
         -2   -1    0    0    0  501 -0.00000000000E+00  0.00000000000E+00  0.15513040500E+03  0.15513040500E+03  0.00000000000E+00 0.  1.
          2   -1    0    0  501    0  0.00000000000E+00 -0.00000000000E+00 -0.10358648472E+03  0.10358648472E+03  0.00000000000E+00 0. -1.
         25    2    1    2    0    0 -0.12731455848E+02 -0.39805998794E+02 -0.20540718305E+02  0.13347715381E+03  0.12509045517E+03 0.  0.
         23    2    1    2    0    0  0.12731455848E+02  0.39805998794E+02  0.72084638585E+02  0.12523973591E+03  0.93499672844E+02 0.  0.
          5    1    3    3  502    0 -0.20243414791E+02 -0.46040072659E+02 -0.68091537327E+02  0.84755023382E+02  0.41800000000E+01 0.  1.
         -5    1    3    3    0  502  0.75119589427E+01  0.62340738650E+01  0.47550819022E+02  0.48722130432E+02  0.41800000000E+01 0.  1.
        -11    1    4    4    0    0  0.31505389595E+02  0.40900004351E+02  0.92365275660E+00  0.51635773102E+02  0.00000000000E+00 0. -1.
         11    1    4    4    0    0 -0.18773933747E+02 -0.10940055567E+01  0.71160985829E+02  0.73603962805E+02  0.00000000000E+00 0.  1.
</event>
<event>
 8    1  0.7112384E-009  0.1055963E+03  0.7561462E-02  0.1268949E+00
         -2   -1    0    0    0  501 -0.00000000000E+00  0.00000000000E+00  0.29091982460E+02  0.29091982460E+02  0.00000000000E+00 0.  1.
          2   -1    0    0  501    0  0.00000000000E+00 -0.00000000000E+00 -0.47574106199E+03  0.47574106199E+03  0.00000000000E+00 0. -1.
         25    2    1    2    0    0 -0.12263562883E+02 -0.21710462276E+02 -0.33658487170E+03  0.35994784933E+03  0.12510531257E+03 0.  0.
         23    2    1    2    0    0  0.12263562883E+02  0.21710462276E+02 -0.11006420783E+03  0.14488519512E+03  0.90861712362E+02 0.  0.
          5    1    3    3  502    0 -0.34507185918E+02  0.44854032965E+02 -0.13444145147E+03  0.14592671595E+03  0.41800000000E+01 0.  1.
         -5    1    3    3    0  502  0.22243623035E+02 -0.66564495242E+02 -0.20214342022E+03  0.21402113338E+03  0.41800000000E+01 0.  1.
        -11    1    4    4    0    0 -0.17307735916E+02  0.43887030125E+02 -0.27948515732E+02  0.54833827765E+02  0.00000000000E+00 0.  1.
         11    1    4    4    0    0  0.29571298799E+02 -0.22176567848E+02 -0.82115692100E+02  0.90051367359E+02  0.00000000000E+00 0. -1.
</event>
<event>
 8    1  0.7112384E-009  0.1203090E+03  0.7561462E-02  0.1242588E+00
         -1   -1    0    0    0  501 -0.00000000000E+00  0.00000000000E+00  0.54091662577E+02  0.54091662577E+02  0.00000000000E+00 0.  1.
          1   -1    0    0  501    0  0.00000000000E+00 -0.00000000000E+00 -0.30833979561E+03  0.30833979561E+03  0.00000000000E+00 0. -1.
         25    2    1    2    0    0  0.24177853085E+02 -0.61456414875E+02 -0.12060881919E+03  0.18588842809E+03  0.12508621396E+03 0.  0.
         23    2    1    2    0    0 -0.24177853085E+02  0.61456414875E+02 -0.13363931385E+03  0.17654303010E+03  0.94586023082E+02 0.  0.
          5    1    3    3  502    0 -0.42295322179E+02 -0.12541465021E+02 -0.61824806074E+01  0.44742352303E+02  0.41800000000E+01 0.  1.
         -5    1    3    3    0  502  0.66473175264E+02 -0.48914949853E+02 -0.11442633858E+03  0.14114607579E+03  0.41800000000E+01 0.  1.
        -11    1    4    4    0    0 -0.36602345881E+02  0.81921617034E+02 -0.91991491530E+02  0.12850415392E+03  0.00000000000E+00 0. -1.
         11    1    4    4    0    0  0.12424492797E+02 -0.20465202159E+02 -0.41647822317E+02  0.48038876178E+02  0.00000000000E+00 0.  1.
</event>
<event>
 8    1  0.7112384E-009  0.1119612E+03  0.7561462E-02  0.1256981E+00
          2   -1    0    0  501    0  0.00000000000E+00  0.00000000000E+00  0.40054855081E+03  0.40054855081E+03  0.00000000000E+00 0. -1.
         -2   -1    0    0    0  501 -0.00000000000E+00 -0.00000000000E+00 -0.34530116710E+02  0.34530116710E+02  0.00000000000E+00 0.  1.
         25    2    1    2    0    0  0.24779971625E+02 -0.30799574823E+02  0.24849732485E+03  0.28099982957E+03  0.12508925996E+03 0.  0.
         23    2    1    2    0    0 -0.24779971625E+02  0.30799574823E+02  0.11752110924E+03  0.15407883794E+03  0.91468116747E+02 0.  0.
          5    1    3    3  502    0 -0.42695981057E+02  0.16191744485E+02  0.11918719160E+03  0.12770347853E+03  0.41800000000E+01 0.  1.
         -5    1    3    3    0  502  0.67475952681E+02 -0.46991319309E+02  0.12931013326E+03  0.15329635104E+03  0.41800000000E+01 0.  1.
        -11    1    4    4    0    0 -0.29237541168E+02  0.59709864590E+02  0.99673793071E+02  0.11981221460E+03  0.00000000000E+00 0.  1.
         11    1    4    4    0    0  0.44575695432E+01 -0.28910289766E+02  0.17847316172E+02  0.34266623340E+02  0.00000000000E+00 0. -1.
</event>
<event>
 8    1  0.7112384E-009  0.1809495E+03  0.7561462E-02  0.1166887E+00
          2   -1    0    0  501    0  0.00000000000E+00  0.00000000000E+00  0.34029425607E+03  0.34029425607E+03  0.00000000000E+00 0. -1.
         -2   -1    0    0    0  501 -0.00000000000E+00 -0.00000000000E+00 -0.11114891056E+03  0.11114891056E+03  0.00000000000E+00 0.  1.
         25    2    1    2    0    0  0.12053338290E+03 -0.95833290991E+02  0.63596872847E+02  0.20833613250E+03  0.12508823211E+03 0.  0.
         23    2    1    2    0    0 -0.12053338290E+03  0.95833290991E+02  0.16554847267E+03  0.24310703413E+03  0.89344374098E+02 0.  0.
          5    1    3    3  502    0  0.50736106334E+02 -0.11464212845E+03  0.32825222962E+02  0.12966085672E+03  0.41800000000E+01 0.  1.
         -5    1    3    3    0  502  0.69797276569E+02  0.18808837460E+02  0.30771649884E+02  0.78675275784E+02  0.41800000000E+01 0.  1.
        -11    1    4    4    0    0 -0.66102946854E+02  0.86440748592E+02  0.15075296628E+03  0.18592487581E+03  0.00000000000E+00 0.  1.
         11    1    4    4    0    0 -0.54430436050E+02  0.93925423994E+01  0.14795506387E+02  0.57182158324E+02  0.00000000000E+00 0. -1.
</event>
<event>
 8    1  0.7112384E-009  0.8059192E+02  0.7561462E-02  0.1327380E+00
          2   -1    0    0  501    0  0.00000000000E+00  0.00000000000E+00  0.31771723442E+03  0.31771723442E+03  0.00000000000E+00 0.  1.
         -2   -1    0    0    0  501 -0.00000000000E+00 -0.00000000000E+00 -0.48096945747E+02  0.48096945747E+02  0.00000000000E+00 0. -1.
         25    2    1    2    0    0  0.36991024657E+02 -0.35396217957E+02  0.10398927751E+03  0.17053391621E+03  0.12508724391E+03 0.  0.
         23    2    1    2    0    0 -0.36991024657E+02  0.35396217957E+02  0.16563101116E+03  0.19528026396E+03  0.89886158465E+02 0.  0.
          5    1    3    3  502    0  0.15732230943E+02 -0.58898345693E+02 -0.66176679346E+00  0.61109970963E+02  0.41800000000E+01 0. -1.
         -5    1    3    3    0  502  0.21258793714E+02  0.23502127736E+02  0.10465104431E+03  0.10942394524E+03  0.41800000000E+01 0. -1.
        -11    1    4    4    0    0 -0.16247258257E+02  0.43040559135E+02  0.16691171579E+03  0.17313573866E+03  0.00000000000E+00 0.  1.
         11    1    4    4    0    0 -0.20743766400E+02 -0.76443411777E+01 -0.12807046338E+01  0.22144525302E+02  0.00000000000E+00 0. -1.
</event>
<event>
 8    1  0.7112384E-009  0.1010857E+03  0.7561462E-02  0.1278029E+00
         -2   -1    0    0    0  501 -0.00000000000E+00  0.00000000000E+00  0.23269549131E+03  0.23269549131E+03  0.00000000000E+00 0.  1.
          2   -1    0    0  501    0  0.00000000000E+00 -0.00000000000E+00 -0.64119016203E+02  0.64119016203E+02  0.00000000000E+00 0. -1.
         25    2    1    2    0    0  0.27270922477E+02  0.38471278142E+02  0.13096620779E+03  0.18714887067E+03  0.12509520277E+03 0.  0.
         23    2    1    2    0    0 -0.27270922477E+02 -0.38471278142E+02  0.37610267320E+02  0.10966563684E+03  0.91587538683E+02 0.  0.
          5    1    3    3  502    0  0.61898248254E+02  0.55751214002E+02  0.49833321338E+02  0.97161840839E+02  0.41800000000E+01 0.  1.
         -5    1    3    3    0  502 -0.34627325778E+02 -0.17279935860E+02  0.81132886452E+02  0.89987029831E+02  0.41800000000E+01 0.  1.
        -11    1    4    4    0    0 -0.23955710773E+02  0.13676507497E+02 -0.18327919606E+02  0.33118508014E+02  0.00000000000E+00 0. -1.
         11    1    4    4    0    0 -0.33152117036E+01 -0.52147785639E+02  0.55938186926E+02  0.76547128831E+02  0.00000000000E+00 0.  1.
</event>
<event>
 8    1  0.7112384E-009  0.2443012E+03  0.7561462E-02  0.1116960E+00
         -2   -1    0    0    0  501 -0.00000000000E+00  0.00000000000E+00  0.16884592952E+03  0.16884592952E+03  0.00000000000E+00 0.  1.
          2   -1    0    0  501    0  0.00000000000E+00 -0.00000000000E+00 -0.38637265603E+03  0.38637265603E+03  0.00000000000E+00 0. -1.
         25    2    1    2    0    0  0.90125553414E+01 -0.22776819375E+03 -0.70928883917E+02  0.26951555859E+03  0.12509257974E+03 0.  0.
         23    2    1    2    0    0 -0.90125553414E+01  0.22776819375E+03 -0.14659784260E+03  0.28570302696E+03  0.90419665566E+02 0.  0.
          5    1    3    3  502    0 -0.39498492830E+02 -0.84256932226E+02 -0.72376001268E+02  0.11796236486E+03  0.41800000000E+01 0.  1.
         -5    1    3    3    0  502  0.48511048172E+02 -0.14351126153E+03  0.14471173513E+01  0.15155319373E+03  0.41800000000E+01 0.  1.
        -11    1    4    4    0    0  0.37075728871E+02  0.13934429890E+03 -0.71974366948E+02  0.16115754033E+03  0.00000000000E+00 0. -1.
         11    1    4    4    0    0 -0.46088284213E+02  0.88423894858E+02 -0.74623475648E+02  0.12454548664E+03  0.00000000000E+00 0.  1.
</event>
<event>
 8    1  0.7112384E-009  0.1334670E+03  0.7561462E-02  0.1222400E+00
         -1   -1    0    0    0  501 -0.00000000000E+00  0.00000000000E+00  0.10636078837E+03  0.10636078837E+03  0.00000000000E+00 0.  1.
          1   -1    0    0  501    0  0.00000000000E+00 -0.00000000000E+00 -0.18141379742E+03  0.18141379742E+03  0.00000000000E+00 0. -1.
         25    2    1    2    0    0  0.74925681009E+02  0.41490231985E+02 -0.26033040036E+02  0.15381905292E+03  0.12508910762E+03 0.  0.
         23    2    1    2    0    0 -0.74925681009E+02 -0.41490231985E+02 -0.49019969009E+02  0.13395553287E+03  0.90586038660E+02 0.  0.
          5    1    3    3  502    0  0.67974292074E+01  0.75040536071E+02 -0.15466785704E+02  0.77032337091E+02  0.41800000000E+01 0. -1.
         -5    1    3    3    0  502  0.68128251802E+02 -0.33550304086E+02 -0.10566254331E+02  0.76786715833E+02  0.41800000000E+01 0. -1.
        -11    1    4    4    0    0 -0.11211230831E+02 -0.49902759386E+02  0.30560738499E+01  0.51237844202E+02  0.00000000000E+00 0.  1.
         11    1    4    4    0    0 -0.63714450178E+02  0.84125274015E+01 -0.52076042859E+02  0.82717688668E+02  0.00000000000E+00 0. -1.
</event>
<event>
 8    1  0.7112384E-009  0.9618246E+02  0.7561462E-02  0.1288535E+00
          4   -1    0    0  501    0  0.00000000000E+00  0.00000000000E+00  0.21703550434E+02  0.21703550434E+02  0.00000000000E+00 0. -1.
         -4   -1    0    0    0  501 -0.00000000000E+00 -0.00000000000E+00 -0.88584711278E+03  0.88584711278E+03  0.00000000000E+00 0.  1.
         25    2    1    2    0    0  0.74962292434E+02  0.12078749558E+02 -0.60315926702E+03  0.62065535425E+03  0.12508687337E+03 0.  0.
         23    2    1    2    0    0 -0.74962292434E+02 -0.12078749558E+02 -0.26098429532E+03  0.28689530896E+03  0.91819793190E+02 0.  0.
          5    1    3    3  502    0  0.24502510750E+02  0.35439003872E+02 -0.56582113417E+02  0.71241167783E+02  0.41800000000E+01 0.  1.
         -5    1    3    3    0  502  0.50459781684E+02 -0.23360254313E+02 -0.54657715360E+03  0.54941418647E+03  0.41800000000E+01 0.  1.
        -11    1    4    4    0    0 -0.50249043527E+02  0.18901479553E+02 -0.53980877317E+02  0.76132564784E+02  0.00000000000E+00 0. -1.
         11    1    4    4    0    0 -0.24713248907E+02 -0.30980229111E+02 -0.20700341801E+03  0.21076274418E+03  0.00000000000E+00 0.  1.
</event>
<event>
 8    1  0.7112384E-009  0.1421907E+03  0.7561462E-02  0.1210411E+00
         -4   -1    0    0    0  501 -0.00000000000E+00  0.00000000000E+00  0.11061196809E+03  0.11061196809E+03  0.00000000000E+00 0. -1.
          4   -1    0    0  501    0  0.00000000000E+00 -0.00000000000E+00 -0.22823268422E+03  0.22823268422E+03  0.00000000000E+00 0.  1.
         25    2    1    2    0    0  0.38778369571E+02  0.99392887099E+02 -0.15582461408E+02  0.16514571085E+03  0.12509030640E+03 0.  0.
         23    2    1    2    0    0 -0.38778369571E+02 -0.99392887099E+02 -0.10203825472E+03  0.17369894146E+03  0.91524908555E+02 0.  0.
          5    1    3    3  502    0  0.70737431553E+02  0.10712177638E+03 -0.24651565209E+02  0.13078238132E+03  0.41800000000E+01 0. -1.
         -5    1    3    3    0  502 -0.31959061982E+02 -0.77288892809E+01  0.90691038009E+01  0.34363329525E+02  0.41800000000E+01 0. -1.
        -11    1    4    4    0    0 -0.50184952382E+02 -0.45594356085E+02 -0.12989085116E+02  0.69036882060E+02  0.00000000000E+00 0.  1.
         11    1    4    4    0    0  0.11406582811E+02 -0.53798531014E+02 -0.89049169608E+02  0.10466205940E+03  0.00000000000E+00 0. -1.
</event>
<event>
 8    1  0.7112384E-009  0.1424050E+03  0.7561462E-02  0.1210129E+00
          2   -1    0    0  501    0  0.00000000000E+00  0.00000000000E+00  0.77254263466E+02  0.77254263466E+02  0.00000000000E+00 0. -1.
         -2   -1    0    0    0  501 -0.00000000000E+00 -0.00000000000E+00 -0.37719145124E+03  0.37719145124E+03  0.00000000000E+00 0.  1.
         25    2    1    2    0    0 -0.10597996304E+03  0.69676021607E+02 -0.11060196273E+03  0.20967765024E+03  0.12508166251E+03 0.  0.
         23    2    1    2    0    0  0.10597996304E+03 -0.69676021607E+02 -0.18933522504E+03  0.24476806447E+03  0.89314485888E+02 0.  0.
          5    1    3    3  502    0 -0.24867162122E+02  0.37779419136E+01 -0.10154255414E+03  0.10469484848E+03  0.41800000000E+01 0. -1.
         -5    1    3    3    0  502 -0.81112800919E+02  0.65898079694E+02 -0.90594085910E+01  0.10498280175E+03  0.41800000000E+01 0. -1.
        -11    1    4    4    0    0  0.11930199533E+03 -0.46608400543E+02 -0.16308525800E+03  0.20736950226E+03  0.00000000000E+00 0.  1.
         11    1    4    4    0    0 -0.13322032285E+02 -0.23067621064E+02 -0.26249967037E+02  0.37398562208E+02  0.00000000000E+00 0. -1.
</event>
<event>
 8    1  0.7112384E-009  0.1581320E+03  0.7561462E-02  0.1190822E+00
         -1   -1    0    0    0  501 -0.00000000000E+00  0.00000000000E+00  0.26891844126E+02  0.26891844126E+02  0.00000000000E+00 0.  1.
          1   -1    0    0  501    0  0.00000000000E+00 -0.00000000000E+00 -0.18962739528E+04  0.18962739528E+04  0.00000000000E+00 0. -1.
         25    2    1    2    0    0 -0.35324362840E+01  0.14512021733E+03 -0.15471230381E+04  0.15589450526E+04  0.12509047254E+03 0.  0.
         23    2    1    2    0    0  0.35324362840E+01 -0.14512021733E+03 -0.32225907048E+03  0.36422074427E+03  0.87940243705E+02 0.  0.
          5    1    3    3  502    0  0.25216883289E+01  0.72485441513E+01 -0.39201327511E+01  0.95781075964E+01  0.41800000000E+01 0.  1.
         -5    1    3    3    0  502 -0.60541246129E+01  0.13787167318E+03 -0.15432029054E+04  0.15493669450E+04  0.41800000000E+01 0.  1.
        -11    1    4    4    0    0  0.45405580889E+02 -0.69500762792E+02 -0.16807416566E+03  0.18745919014E+03  0.00000000000E+00 0. -1.
         11    1    4    4    0    0 -0.41873144605E+02 -0.75619454539E+02 -0.15418490482E+03  0.17676155413E+03  0.00000000000E+00 0.  1.
</event>
<event>
 8    1  0.7112384E-009  0.1223126E+03  0.7561462E-02  0.1239330E+00
          1   -1    0    0  501    0  0.00000000000E+00  0.00000000000E+00  0.10361546700E+04  0.10361546700E+04  0.00000000000E+00 0. -1.
         -1   -1    0    0    0  501 -0.00000000000E+00 -0.00000000000E+00 -0.16929067279E+02  0.16929067279E+02  0.00000000000E+00 0.  1.
         25    2    1    2    0    0 -0.43311036615E+02  0.55661138044E+02  0.66762093608E+03  0.68289115359E+03  0.12509438509E+03 0.  0.
         23    2    1    2    0    0  0.43311036615E+02 -0.55661138044E+02  0.35160466663E+03  0.37019258368E+03  0.91884162033E+02 0.  0.
          5    1    3    3  502    0  0.43001256217E+02  0.31544169599E+02  0.22532665590E+03  0.23158954409E+03  0.41800000000E+01 0.  1.
         -5    1    3    3    0  502 -0.86312292831E+02  0.24116968445E+02  0.44229428018E+03  0.45130160950E+03  0.41800000000E+01 0.  1.
        -11    1    4    4    0    0 -0.11139190187E+02 -0.44448057028E+02  0.73712609705E+02  0.86794355583E+02  0.00000000000E+00 0.  1.
         11    1    4    4    0    0  0.54450226802E+02 -0.11213081016E+02  0.27789205693E+03  0.28339822810E+03  0.00000000000E+00 0. -1.
</event>
<event>
 8    1  0.7112384E-009  0.1099076E+03  0.7561462E-02  0.1260741E+00
          2   -1    0    0  501    0  0.00000000000E+00  0.00000000000E+00  0.15054356488E+04  0.15054356488E+04  0.00000000000E+00 0. -1.
         -2   -1    0    0    0  501 -0.00000000000E+00 -0.00000000000E+00 -0.10252592521E+02  0.10252592521E+02  0.00000000000E+00 0.  1.
         25    2    1    2    0    0 -0.22644139171E+02  0.19879519078E+02  0.11888442595E+04  0.11957870967E+04  0.12509258561E+03 0.  0.
         23    2    1    2    0    0  0.22644139171E+02 -0.19879519078E+02  0.30633879679E+03  0.31990114463E+03  0.87093809190E+02 0.  0.
          5    1    3    3  502    0  0.42045055345E+02 -0.25207733672E+02  0.40584366150E+03  0.40881507616E+03  0.41800000000E+01 0. -1.
         -5    1    3    3    0  502 -0.64689194516E+02  0.45087252749E+02  0.78300059799E+03  0.78697202053E+03  0.41800000000E+01 0. -1.
        -11    1    4    4    0    0  0.44187633200E+02  0.18289669716E+02  0.14304018221E+03  0.15082291826E+03  0.00000000000E+00 0.  1.
         11    1    4    4    0    0 -0.21543494029E+02 -0.38169188794E+02  0.16329861458E+03  0.16907822637E+03  0.00000000000E+00 0. -1.
</event>
<event>
 8    1  0.7112384E-009  0.1469165E+03  0.7561462E-02  0.1204314E+00
         -1   -1    0    0    0  501 -0.00000000000E+00  0.00000000000E+00  0.50951126330E+02  0.50951126330E+02  0.00000000000E+00 0.  1.
          1   -1    0    0  501    0  0.00000000000E+00 -0.00000000000E+00 -0.52337365921E+03  0.52337365921E+03  0.00000000000E+00 0. -1.
         25    2    1    2    0    0  0.46309972283E+02  0.10521483274E+03 -0.18373854818E+03  0.25024314193E+03  0.12508797478E+03 0.  0.
         23    2    1    2    0    0 -0.46309972283E+02 -0.10521483274E+03 -0.28868398470E+03  0.32408164361E+03  0.92063533172E+02 0.  0.
          5    1    3    3  502    0  0.73880415104E+02  0.85672153124E+02 -0.73763111572E+02  0.13511662587E+03  0.41800000000E+01 0. -1.
         -5    1    3    3    0  502 -0.27570442821E+02  0.19542679617E+02 -0.10997543661E+03  0.11512651606E+03  0.41800000000E+01 0. -1.
        -11    1    4    4    0    0  0.26698916156E+02 -0.43195175129E+02 -0.11547077554E+03  0.12614339175E+03  0.00000000000E+00 0. -1.
         11    1    4    4    0    0 -0.73008888439E+02 -0.62019657611E+02 -0.17321320916E+03  0.19793825186E+03  0.00000000000E+00 0.  1.
</event>
<event>
 8    1  0.7112384E-009  0.1373073E+03  0.7561462E-02  0.1216999E+00
         -2   -1    0    0    0  501 -0.00000000000E+00  0.00000000000E+00  0.11860871848E+02  0.11860871848E+02  0.00000000000E+00 0.  1.
          2   -1    0    0  501    0  0.00000000000E+00 -0.00000000000E+00 -0.23432980172E+04  0.23432980172E+04  0.00000000000E+00 0. -1.
         25    2    1    2    0    0  0.85183413247E+02 -0.26492332908E+02 -0.18670920343E+04  0.18734027747E+04  0.12508890466E+03 0.  0.
         23    2    1    2    0    0 -0.85183413247E+02  0.26492332908E+02 -0.46434511106E+03  0.48175611437E+03  0.92274124051E+02 0.  0.
          5    1    3    3  502    0  0.18017621873E+01 -0.57273531029E+02 -0.10284422563E+04  0.10300458488E+04  0.41800000000E+01 0.  1.
         -5    1    3    3    0  502  0.83381651059E+02  0.30781198120E+02 -0.83864977802E+03  0.84335692590E+03  0.41800000000E+01 0.  1.
        -11    1    4    4    0    0 -0.40057444298E+02  0.59881889548E+02 -0.27303494615E+03  0.28238010086E+03  0.00000000000E+00 0. -1.
         11    1    4    4    0    0 -0.45125968949E+02 -0.33389556640E+02 -0.19131016491E+03  0.19937601351E+03  0.00000000000E+00 0.  1.
</event>
<event>
 8    1  0.7112384E-009  0.1014955E+03  0.7561462E-02  0.1277182E+00
         -1   -1    0    0    0  501 -0.00000000000E+00  0.00000000000E+00  0.67859874937E+02  0.67859874937E+02  0.00000000000E+00 0.  1.
          1   -1    0    0  501    0  0.00000000000E+00 -0.00000000000E+00 -0.24474045413E+03  0.24474045413E+03  0.00000000000E+00 0. -1.
         25    2    1    2    0    0  0.47523245017E+02  0.45946501415E+02 -0.10620812137E+03  0.17690877105E+03  0.12508800271E+03 0.  0.
         23    2    1    2    0    0 -0.47523245017E+02 -0.45946501415E+02 -0.70672457818E+02  0.13569155801E+03  0.95121305776E+02 0.  0.
          5    1    3    3  502    0  0.59974005934E+02  0.77569788168E+02 -0.47702147534E+02  0.10911883753E+03  0.41800000000E+01 0. -1.
         -5    1    3    3    0  502 -0.12450760917E+02 -0.31623286753E+02 -0.58505973841E+02  0.67789933526E+02  0.41800000000E+01 0. -1.
        -11    1    4    4    0    0 -0.47130387466E+02 -0.32715752605E+02  0.61829634322E+01  0.57704617909E+02  0.00000000000E+00 0.  1.
         11    1    4    4    0    0 -0.39285755106E+00 -0.13230748810E+02 -0.76855421250E+02  0.77986940104E+02  0.00000000000E+00 0. -1.
</event>
<event>
 8    1  0.7112384E-009  0.1043681E+03  0.7561462E-02  0.1271370E+00
          1   -1    0    0  501    0  0.00000000000E+00  0.00000000000E+00  0.26586216373E+03  0.26586216373E+03  0.00000000000E+00 0. -1.
         -1   -1    0    0    0  501 -0.00000000000E+00 -0.00000000000E+00 -0.67738747342E+02  0.67738747342E+02  0.00000000000E+00 0.  1.
         25    2    1    2    0    0 -0.14187601505E+02  0.11723743156E+02  0.14412379001E+02  0.12725000902E+03  0.12508442724E+03 0.  0.
         23    2    1    2    0    0  0.14187601505E+02 -0.11723743156E+02  0.18371103738E+03  0.20635090205E+03  0.92153216594E+02 0.  0.
          5    1    3    3  502    0  0.75605652737E+01 -0.55010453937E+02  0.11604672158E+02  0.56881042584E+02  0.41800000000E+01 0. -1.
         -5    1    3    3    0  502 -0.21748166778E+02  0.66734197093E+02  0.28077068430E+01  0.70368966438E+02  0.41800000000E+01 0. -1.
        -11    1    4    4    0    0 -0.22216914067E+02  0.23319316019E+02  0.12406828442E+03  0.12818081357E+03  0.00000000000E+00 0. -1.
         11    1    4    4    0    0  0.36404515571E+02 -0.35043059175E+02  0.59642752965E+02  0.78170088471E+02  0.00000000000E+00 0.  1.
</event>
<event>
 8    1  0.7112384E-009  0.9694074E+02  0.7561462E-02  0.1286864E+00
         -1   -1    0    0    0  501 -0.00000000000E+00  0.00000000000E+00  0.16116538326E+03  0.16116538326E+03  0.00000000000E+00 0.  1.
          1   -1    0    0  501    0  0.00000000000E+00 -0.00000000000E+00 -0.80280516815E+02  0.80280516815E+02  0.00000000000E+00 0. -1.
         25    2    1    2    0    0  0.17621666607E+02 -0.28265517476E+02  0.61984002314E+02  0.14352276886E+03  0.12508919228E+03 0.  0.
         23    2    1    2    0    0 -0.17621666607E+02  0.28265517476E+02  0.18900864128E+02  0.97923131213E+02  0.90123439513E+02 0.  0.
          5    1    3    3  502    0 -0.24599357071E+02 -0.52919858441E+02  0.72676717288E+02  0.93300682856E+02  0.41800000000E+01 0. -1.
         -5    1    3    3    0  502  0.42221023678E+02  0.24654340965E+02 -0.10692714974E+02  0.50222086002E+02  0.41800000000E+01 0. -1.
        -11    1    4    4    0    0 -0.17932794017E+02  0.55880162700E+02 -0.81680916728E+01  0.59252809269E+02  0.00000000000E+00 0. -1.
         11    1    4    4    0    0  0.31112741035E+00 -0.27614645224E+02  0.27068955801E+02  0.38670321944E+02  0.00000000000E+00 0.  1.
</event>
<event>
 8    1  0.7112384E-009  0.1499773E+03  0.7561462E-02  0.1200501E+00
          2   -1    0    0  501    0  0.00000000000E+00  0.00000000000E+00  0.42773243605E+03  0.42773243605E+03  0.00000000000E+00 0. -1.
         -2   -1    0    0    0  501 -0.00000000000E+00 -0.00000000000E+00 -0.10895152368E+03  0.10895152368E+03  0.00000000000E+00 0.  1.
         25    2    1    2    0    0  0.13896778424E+03 -0.30987558581E+02  0.16437759911E+02  0.19024451542E+03  0.12510196583E+03 0.  0.
         23    2    1    2    0    0 -0.13896778424E+03  0.30987558581E+02  0.30234315247E+03  0.34643944431E+03  0.91305163532E+02 0.  0.
          5    1    3    3  502    0  0.70296497264E+02  0.12732032907E+02 -0.48141907708E+02  0.86248581827E+02  0.41800000000E+01 0.  1.
         -5    1    3    3    0  502  0.68671286972E+02 -0.43719591488E+02  0.64579667619E+02  0.10399593359E+03  0.41800000000E+01 0.  1.
        -11    1    4    4    0    0 -0.32756321346E+02 -0.80300720990E+01  0.16537109234E+03  0.16877516651E+03  0.00000000000E+00 0. -1.
         11    1    4    4    0    0 -0.10621146289E+03  0.39017630680E+02  0.13697206012E+03  0.17766427780E+03  0.00000000000E+00 0.  1.
</event>
<event>
 8    1  0.7112384E-009  0.1119718E+03  0.7561462E-02  0.1256961E+00
         -2   -1    0    0    0  501 -0.00000000000E+00  0.00000000000E+00  0.35911334238E+02  0.35911334238E+02  0.00000000000E+00 0.  1.
          2   -1    0    0  501    0  0.00000000000E+00 -0.00000000000E+00 -0.36701395304E+03  0.36701395304E+03  0.00000000000E+00 0. -1.
         25    2    1    2    0    0  0.25113511896E+02 -0.29729157537E+02 -0.20150859934E+03  0.24034924963E+03  0.12509010712E+03 0.  0.
         23    2    1    2    0    0 -0.25113511896E+02  0.29729157537E+02 -0.12959401945E+03  0.16257603765E+03  0.90121289664E+02 0.  0.
          5    1    3    3  502    0  0.60474853625E+02 -0.55235009777E+02 -0.96928466950E+02  0.12696737507E+03  0.41800000000E+01 0. -1.
         -5    1    3    3    0  502 -0.35361341729E+02  0.25505852241E+02 -0.10458013239E+03  0.11338187456E+03  0.41800000000E+01 0. -1.
        -11    1    4    4    0    0  0.23002764864E+02 -0.18864378479E+02 -0.37419865746E+02  0.47804166338E+02  0.00000000000E+00 0. -1.
         11    1    4    4    0    0 -0.48116276760E+02  0.48593536016E+02 -0.92174153707E+02  0.11477187131E+03  0.00000000000E+00 0.  1.
</event>
<event>
 8    1  0.7112384E-009  0.9119491E+02  0.7561462E-02  0.1299984E+00
          2   -1    0    0  501    0  0.00000000000E+00  0.00000000000E+00  0.90643880880E+02  0.90643880880E+02  0.00000000000E+00 0. -1.
         -2   -1    0    0    0  501 -0.00000000000E+00 -0.00000000000E+00 -0.21308427631E+03  0.21308427631E+03  0.00000000000E+00 0.  1.
         25    2    1    2    0    0  0.53942335861E+01  0.55287632438E+02 -0.14151200809E+03  0.19687082597E+03  0.12508658452E+03 0.  0.
         23    2    1    2    0    0 -0.53942335861E+01 -0.55287632438E+02  0.19071612668E+02  0.10685733121E+03  0.89268935065E+02 0.  0.
          5    1    3    3  502    0 -0.28474811310E+02  0.18630166514E+02  0.11270602387E+02  0.36088735939E+02  0.41800000000E+01 0. -1.
         -5    1    3    3    0  502  0.33869044896E+02  0.36657465925E+02 -0.15278261048E+03  0.16078209003E+03  0.41800000000E+01 0. -1.
        -11    1    4    4    0    0 -0.41181013537E+02 -0.44531982484E+02  0.30350361840E+02  0.67824168286E+02  0.00000000000E+00 0. -1.
         11    1    4    4    0    0  0.35786779951E+02 -0.10755649954E+02 -0.11278749172E+02  0.39033162927E+02  0.00000000000E+00 0.  1.
</event>
<event>
 8    1  0.7112384E-009  0.1995298E+03  0.7561462E-02  0.1150136E+00
         -2   -1    0    0    0  501 -0.00000000000E+00  0.00000000000E+00  0.16535665904E+03  0.16535665904E+03  0.00000000000E+00 0.  1.
          2   -1    0    0  501    0  0.00000000000E+00 -0.00000000000E+00 -0.29757064727E+03  0.29757064727E+03  0.00000000000E+00 0. -1.
         25    2    1    2    0    0 -0.15710507737E+03  0.67983277776E+02 -0.16245698880E+03  0.26710119940E+03  0.12508815340E+03 0.  0.
         23    2    1    2    0    0  0.15710507737E+03 -0.67983277776E+02  0.30243000566E+02  0.19582610690E+03  0.90163704834E+02 0.  0.
          5    1    3    3  502    0 -0.11316499394E+03 -0.13083650666E+02 -0.58673773184E+02  0.12820913317E+03  0.41800000000E+01 0.  1.
         -5    1    3    3    0  502 -0.43940083423E+02  0.81066928442E+02 -0.10378321561E+03  0.13889206623E+03  0.41800000000E+01 0.  1.
        -11    1    4    4    0    0  0.82859938054E+02 -0.82701884453E+02  0.26568858881E+02  0.12004697118E+03  0.00000000000E+00 0. -1.
         11    1    4    4    0    0  0.74245139313E+02  0.14718606677E+02  0.36741416844E+01  0.75779135725E+02  0.00000000000E+00 0.  1.
</event>
<event>
 8    1  0.7112384E-009  0.2083619E+03  0.7561462E-02  0.1142870E+00
         -2   -1    0    0    0  501 -0.00000000000E+00  0.00000000000E+00  0.14918412652E+03  0.14918412652E+03  0.00000000000E+00 0.  1.
          2   -1    0    0  501    0  0.00000000000E+00 -0.00000000000E+00 -0.36323223079E+03  0.36323223079E+03  0.00000000000E+00 0. -1.
         25    2    1    2    0    0 -0.12477691475E+03 -0.13401674417E+03 -0.21330905600E+03  0.30769764516E+03  0.12508925332E+03 0.  0.
         23    2    1    2    0    0  0.12477691475E+03  0.13401674417E+03 -0.73904827101E+00  0.20471871215E+03  0.91539274317E+02 0.  0.
          5    1    3    3  502    0 -0.15015575514E+03 -0.11002265790E+03 -0.17250433465E+03  0.25382465192E+03  0.41800000000E+01 0. -1.
         -5    1    3    3    0  502  0.25378840395E+02 -0.23994086272E+02 -0.40804721349E+02  0.53872993236E+02  0.41800000000E+01 0. -1.
        -11    1    4    4    0    0  0.88742282764E+02  0.13226222777E+03 -0.25024808527E+02  0.16122881469E+03  0.00000000000E+00 0.  1.
         11    1    4    4    0    0  0.36034631981E+02  0.17545163940E+01  0.24285760256E+02  0.43489897459E+02  0.00000000000E+00 0. -1.
</event>
<event>
 8    1  0.7112384E-009  0.1021913E+03  0.7561462E-02  0.1275754E+00
          2   -1    0    0  501    0  0.00000000000E+00  0.00000000000E+00  0.50834024627E+03  0.50834024627E+03  0.00000000000E+00 0. -1.
         -2   -1    0    0    0  501 -0.00000000000E+00 -0.00000000000E+00 -0.32919669780E+02  0.32919669780E+02  0.00000000000E+00 0.  1.
         25    2    1    2    0    0 -0.37867147103E+02 -0.55647680832E+02  0.21518101463E+03  0.25783975052E+03  0.12509149722E+03 0.  0.
         23    2    1    2    0    0  0.37867147103E+02  0.55647680832E+02  0.26023956186E+03  0.28342016553E+03  0.89843060180E+02 0.  0.
          5    1    3    3  502    0 -0.32784896197E+02 -0.86130631304E+02  0.90184596418E+02  0.12901189441E+03  0.41800000000E+01 0.  1.
         -5    1    3    3    0  502 -0.50822509058E+01  0.30482950472E+02  0.12499641821E+03  0.12882785611E+03  0.41800000000E+01 0.  1.
        -11    1    4    4    0    0  0.35158379345E+02  0.11908322355E+02  0.26502319716E+02  0.45610226154E+02  0.00000000000E+00 0.  1.
         11    1    4    4    0    0  0.27087677577E+01  0.43739358477E+02  0.23373724214E+03  0.23780993938E+03  0.00000000000E+00 0. -1.
</event>
<event>
 8    1  0.7112384E-009  0.2046334E+03  0.7561462E-02  0.1145888E+00
          1   -1    0    0  501    0  0.00000000000E+00  0.00000000000E+00  0.13969657785E+04  0.13969657785E+04  0.00000000000E+00 0. -1.
         -1   -1    0    0    0  501 -0.00000000000E+00 -0.00000000000E+00 -0.41286754223E+02  0.41286754223E+02  0.00000000000E+00 0.  1.
         25    2    1    2    0    0  0.19763163410E+03  0.17007930107E+02  0.45343443450E+03  0.51048805433E+03  0.12509090588E+03 0.  0.
         23    2    1    2    0    0 -0.19763163410E+03 -0.17007930107E+02  0.90224458982E+03  0.92776447844E+03  0.85756020872E+02 0.  0.
          5    1    3    3  502    0  0.12550393961E+03 -0.90621810192E-01  0.13863448270E+03  0.18705143481E+03  0.41800000000E+01 0.  1.
         -5    1    3    3    0  502  0.72127694487E+02  0.17098551918E+02  0.31479995180E+03  0.32343661952E+03  0.41800000000E+01 0.  1.
        -11    1    4    4    0    0 -0.11448499648E+03 -0.43061712161E+02  0.63502949280E+03  0.64670208149E+03  0.00000000000E+00 0. -1.
         11    1    4    4    0    0 -0.83146637621E+02  0.26053782054E+02  0.26721509702E+03  0.28106239695E+03  0.00000000000E+00 0.  1.
</event>
<event>
 8    1  0.7112384E-009  0.1963234E+03  0.7561462E-02  0.1152879E+00
         -1   -1    0    0    0  501 -0.00000000000E+00  0.00000000000E+00  0.96083694988E+03  0.96083694988E+03  0.00000000000E+00 0.  1.
          1   -1    0    0  501    0  0.00000000000E+00 -0.00000000000E+00 -0.58787793418E+02  0.58787793418E+02  0.00000000000E+00 0. -1.
         25    2    1    2    0    0 -0.58988562619E+01  0.16683435138E+03  0.18917763731E+03  0.28160994085E+03  0.12508989975E+03 0.  0.
         23    2    1    2    0    0  0.58988562619E+01 -0.16683435138E+03  0.71287151915E+03  0.73801480245E+03  0.92798429508E+02 0.  0.
          5    1    3    3  502    0  0.40098256376E+02  0.58926069124E+01  0.44378142759E+02  0.60245206742E+02  0.41800000000E+01 0. -1.
         -5    1    3    3    0  502 -0.45997112638E+02  0.16094174446E+03  0.14479949455E+03  0.22136473410E+03  0.41800000000E+01 0. -1.
        -11    1    4    4    0    0 -0.27490917988E+02 -0.13686326986E+03  0.61025521563E+03  0.62601815741E+03  0.00000000000E+00 0.  1.
         11    1    4    4    0    0  0.33389774250E+02 -0.29971081514E+02  0.10261630352E+03  0.11199664504E+03  0.00000000000E+00 0. -1.
</event>
<event>
 8    1  0.7112384E-009  0.2435852E+03  0.7561462E-02  0.1117427E+00
          1   -1    0    0  501    0  0.00000000000E+00  0.00000000000E+00  0.88890808812E+02  0.88890808812E+02  0.00000000000E+00 0. -1.
         -1   -1    0    0    0  501 -0.00000000000E+00 -0.00000000000E+00 -0.79885463682E+03  0.79885463682E+03  0.00000000000E+00 0.  1.
         25    2    1    2    0    0  0.14872441720E+03 -0.19110458594E+03 -0.33933947733E+03  0.43524575902E+03  0.12509066646E+03 0.  0.
         23    2    1    2    0    0 -0.14872441720E+03  0.19110458594E+03 -0.37062435068E+03  0.45249968661E+03  0.93560900081E+02 0.  0.
          5    1    3    3  502    0  0.82285476599E+01 -0.28798660177E+02 -0.13672627834E+03  0.14003078024E+03  0.41800000000E+01 0. -1.
         -5    1    3    3    0  502  0.14049586954E+03 -0.16230592577E+03 -0.20261319898E+03  0.29521497878E+03  0.41800000000E+01 0. -1.
        -11    1    4    4    0    0 -0.46285243860E+02  0.55340145712E+02 -0.44703731748E+02  0.84872134172E+02  0.00000000000E+00 0.  1.
         11    1    4    4    0    0 -0.10243917334E+03  0.13576444023E+03 -0.32592061893E+03  0.36762755244E+03  0.00000000000E+00 0. -1.
</event>
<event>
 8    1  0.7112384E-009  0.9132948E+02  0.7561462E-02  0.1299664E+00
         -3   -1    0    0    0  501 -0.00000000000E+00  0.00000000000E+00  0.49492257766E+03  0.49492257766E+03  0.00000000000E+00 0.  1.
          3   -1    0    0  501    0  0.00000000000E+00 -0.00000000000E+00 -0.32722882668E+02  0.32722882668E+02  0.00000000000E+00 0. -1.
         25    2    1    2    0    0 -0.29565446401E+02 -0.37153432179E+02  0.35049477023E+03  0.37516377681E+03  0.12508709897E+03 0.  0.
         23    2    1    2    0    0  0.29565446401E+02  0.37153432179E+02  0.11170492476E+03  0.15248168352E+03  0.92293989236E+02 0.  0.
          5    1    3    3  502    0 -0.39454714236E+02  0.97225383621E+01  0.29010798956E+02  0.50102904943E+02  0.41800000000E+01 0. -1.
         -5    1    3    3    0  502  0.98892678353E+01 -0.46875970541E+02  0.32148397127E+03  0.32506087186E+03  0.41800000000E+01 0. -1.
        -11    1    4    4    0    0  0.52981868060E+02  0.44486660686E+02  0.47968564924E+02  0.84185061281E+02  0.00000000000E+00 0.  1.
         11    1    4    4    0    0 -0.23416421659E+02 -0.73332285068E+01  0.63736359838E+02  0.68296622238E+02  0.00000000000E+00 0. -1.
</event>
<event>
 8    1  0.7112384E-009  0.1345934E+03  0.7561462E-02  0.1220795E+00
          3   -1    0    0  501    0  0.00000000000E+00  0.00000000000E+00  0.38559806196E+03  0.38559806196E+03  0.00000000000E+00 0. -1.
         -3   -1    0    0    0  501 -0.00000000000E+00 -0.00000000000E+00 -0.55719604387E+02  0.55719604387E+02  0.00000000000E+00 0.  1.
         25    2    1    2    0    0  0.78674353413E+02 -0.78068663370E+01  0.26536502752E+03  0.30383692696E+03  0.12509068433E+03 0.  0.
         23    2    1    2    0    0 -0.78674353413E+02  0.78068663370E+01  0.64513430056E+02  0.13748073939E+03  0.92132350451E+02 0.  0.
          5    1    3    3  502    0  0.36407907559E+02 -0.66239564192E+02  0.13218905874E+03  0.15233067731E+03  0.41800000000E+01 0. -1.
         -5    1    3    3    0  502  0.42266445853E+02  0.58432697855E+02  0.13317596877E+03  0.15150624965E+03  0.41800000000E+01 0. -1.
        -11    1    4    4    0    0  0.19706446369E+02  0.11464831613E+02  0.14912174527E+02  0.27242601593E+02  0.00000000000E+00 0. -1.
         11    1    4    4    0    0 -0.98380799782E+02 -0.36579652757E+01  0.49601255530E+02  0.11023813780E+03  0.00000000000E+00 0.  1.
</event>
<event>
 8    1  0.7112384E-009  0.1056960E+03  0.7561462E-02  0.1268754E+00
          2   -1    0    0  501    0  0.00000000000E+00  0.00000000000E+00  0.68488008135E+03  0.68488008135E+03  0.00000000000E+00 0. -1.
         -2   -1    0    0    0  501 -0.00000000000E+00 -0.00000000000E+00 -0.20514082911E+02  0.20514082911E+02  0.00000000000E+00 0.  1.
         25    2    1    2    0    0 -0.50022331499E+02 -0.12232077840E+01  0.32192981746E+03  0.34898389396E+03  0.12508885238E+03 0.  0.
         23    2    1    2    0    0  0.50022331499E+02  0.12232077840E+01  0.34243618099E+03  0.35641027030E+03  0.85217444477E+02 0.  0.
          5    1    3    3  502    0  0.31361529735E+02  0.98371257364E+01  0.19463426212E+03  0.19743424977E+03  0.41800000000E+01 0. -1.
         -5    1    3    3    0  502 -0.81383861234E+02 -0.11060333520E+02  0.12729555534E+03  0.15154964419E+03  0.41800000000E+01 0. -1.
        -11    1    4    4    0    0  0.15823226055E+02  0.40772880370E+02  0.11485624249E+03  0.12290141861E+03  0.00000000000E+00 0.  1.
         11    1    4    4    0    0  0.34199105444E+02 -0.39549672586E+02  0.22757993849E+03  0.23350885169E+03  0.00000000000E+00 0. -1.
</event>
<event>
 8    1  0.7112384E-009  0.1311393E+03  0.7561462E-02  0.1225775E+00
          4   -1    0    0  501    0  0.00000000000E+00  0.00000000000E+00  0.42817629749E+02  0.42817629749E+02  0.00000000000E+00 0. -1.
         -4   -1    0    0    0  501 -0.00000000000E+00 -0.00000000000E+00 -0.48453531301E+03  0.48453531301E+03  0.00000000000E+00 0.  1.
         25    2    1    2    0    0 -0.72721759330E+02 -0.46567671637E+02 -0.16225750577E+03  0.22234156574E+03  0.12510504128E+03 0.  0.
         23    2    1    2    0    0  0.72721759330E+02  0.46567671637E+02 -0.27946017749E+03  0.30501137702E+03  0.86469341313E+02 0.  0.
          5    1    3    3  502    0 -0.97632710325E+02 -0.11105890791E+02 -0.14564345609E+03  0.17574121781E+03  0.41800000000E+01 0.  1.
         -5    1    3    3    0  502  0.24910950995E+02 -0.35461780846E+02 -0.16614049680E+02  0.46600347928E+02  0.41800000000E+01 0.  1.
        -11    1    4    4    0    0 -0.11679090791E+02  0.32871298064E+02 -0.10654510157E+03  0.11211057964E+03  0.00000000000E+00 0.  1.
         11    1    4    4    0    0  0.84400850121E+02  0.13696373573E+02 -0.17291507592E+03  0.19290079738E+03  0.00000000000E+00 0. -1.
</event>
<event>
 8    1  0.7112384E-009  0.1697324E+03  0.7561462E-02  0.1178127E+00
          2   -1    0    0  501    0  0.00000000000E+00  0.00000000000E+00  0.29492034334E+03  0.29492034334E+03  0.00000000000E+00 0. -1.
         -2   -1    0    0    0  501 -0.00000000000E+00 -0.00000000000E+00 -0.11737534015E+03  0.11737534015E+03  0.00000000000E+00 0.  1.
         25    2    1    2    0    0 -0.39968804480E+02 -0.12448103754E+03  0.97320903159E+01  0.18120116490E+03  0.12508442965E+03 0.  0.
         23    2    1    2    0    0  0.39968804480E+02  0.12448103754E+03  0.16781291287E+03  0.23109451859E+03  0.90279946599E+02 0.  0.
          5    1    3    3  502    0  0.10324332470E+02 -0.12941458176E+03  0.20037227834E+01  0.12990847977E+03  0.41800000000E+01 0. -1.
         -5    1    3    3    0  502 -0.50293136950E+02  0.49335442144E+01  0.77283675325E+01  0.51292685127E+02  0.41800000000E+01 0. -1.
        -11    1    4    4    0    0  0.45551304023E+02  0.13174591788E+02  0.51663024520E+02  0.70125311191E+02  0.00000000000E+00 0.  1.
         11    1    4    4    0    0 -0.55824995436E+01  0.11130644575E+03  0.11614988835E+03  0.16096920740E+03  0.00000000000E+00 0. -1.
</event>
<event>
 8    1  0.7112384E-009  0.9078555E+02  0.7561462E-02  0.1300960E+00
          1   -1    0    0  501    0  0.00000000000E+00  0.00000000000E+00  0.24342313014E+03  0.24342313014E+03  0.00000000000E+00 0. -1.
         -1   -1    0    0    0  501 -0.00000000000E+00 -0.00000000000E+00 -0.64882502286E+02  0.64882502286E+02  0.00000000000E+00 0.  1.
         25    2    1    2    0    0  0.54649278745E+02  0.32570038024E+02  0.95098043491E+02  0.16952442051E+03  0.12509012842E+03 0.  0.
         23    2    1    2    0    0 -0.54649278745E+02 -0.32570038024E+02  0.83442584363E+02  0.13878121192E+03  0.90830660313E+02 0.  0.
          5    1    3    3  502    0  0.12383108755E+02 -0.11860602187E+02  0.10568975029E+03  0.10715321266E+03  0.41800000000E+01 0. -1.
         -5    1    3    3    0  502  0.42266169990E+02  0.44430640211E+02 -0.10591706800E+02  0.62371207846E+02  0.41800000000E+01 0. -1.
        -11    1    4    4    0    0  0.16014765973E+02  0.11010568624E+02 -0.21325148710E+01  0.19551290757E+02  0.00000000000E+00 0.  1.
         11    1    4    4    0    0 -0.70664044718E+02 -0.43580606648E+02  0.85575099234E+02  0.11922992116E+03  0.00000000000E+00 0. -1.
</event>
<event>
 8    1  0.7112384E-009  0.1045958E+03  0.7561462E-02  0.1270918E+00
         -2   -1    0    0    0  501 -0.00000000000E+00  0.00000000000E+00  0.44968759470E+02  0.44968759470E+02  0.00000000000E+00 0. -1.
          2   -1    0    0  501    0  0.00000000000E+00 -0.00000000000E+00 -0.11823685982E+04  0.11823685982E+04  0.00000000000E+00 0.  1.
         25    2    1    2    0    0  0.22164160106E+02  0.26303833154E+02 -0.11223144260E+04  0.11297892979E+04  0.12510413780E+03 0.  0.
         23    2    1    2    0    0 -0.22164160106E+02 -0.26303833154E+02 -0.15085412756E+02  0.97548059759E+02  0.90027288379E+02 0.  0.
          5    1    3    3  502    0  0.70682477560E+02 -0.25320858509E+01 -0.51646481353E+03  0.52130202389E+03  0.41800000000E+01 0.  1.
         -5    1    3    3    0  502 -0.48518317454E+02  0.28835919005E+02 -0.60584961243E+03  0.60848727401E+03  0.41800000000E+01 0.  1.
        -11    1    4    4    0    0 -0.48936915581E+02 -0.87019365374E+01  0.16681177843E+02  0.52429067322E+02  0.00000000000E+00 0. -1.
         11    1    4    4    0    0  0.26772755475E+02 -0.17601896617E+02 -0.31766590599E+02  0.45118992437E+02  0.00000000000E+00 0.  1.
</event>
<event>
 8    1  0.7112384E-009  0.5028761E+02  0.7561462E-02  0.1443796E+00
         -2   -1    0    0    0  501 -0.00000000000E+00  0.00000000000E+00  0.33726987758E+02  0.33726987758E+02  0.00000000000E+00 0. -1.
          2   -1    0    0  501    0  0.00000000000E+00 -0.00000000000E+00 -0.57500836245E+03  0.57500836245E+03  0.00000000000E+00 0.  1.
         25    2    1    2    0    0  0.14271558763E+02  0.11800927345E+01 -0.48769078925E+03  0.50368051719E+03  0.12508671980E+03 0.  0.
         23    2    1    2    0    0 -0.14271558763E+02 -0.11800927345E+01 -0.53590585442E+02  0.10505483302E+03  0.89216013606E+02 0.  0.
          5    1    3    3  502    0  0.21002955364E+02  0.13755543040E+02 -0.48814684957E+03  0.48880994082E+03  0.41800000000E+01 0.  1.
         -5    1    3    3    0  502 -0.67313966017E+01 -0.12575450305E+02  0.45606032199E+00  0.14870576371E+02  0.41800000000E+01 0.  1.
        -11    1    4    4    0    0  0.11147256600E+02  0.22759120215E+02 -0.63822178935E+02  0.68669566816E+02  0.00000000000E+00 0.  1.
         11    1    4    4    0    0 -0.25418815363E+02 -0.23939212950E+02  0.10231593493E+02  0.36385266201E+02  0.00000000000E+00 0. -1.
</event>
<event>
 8    1  0.7112384E-009  0.1010056E+03  0.7561462E-02  0.1278195E+00
         -2   -1    0    0    0  501 -0.00000000000E+00  0.00000000000E+00  0.50381620517E+02  0.50381620517E+02  0.00000000000E+00 0.  1.
          2   -1    0    0  501    0  0.00000000000E+00 -0.00000000000E+00 -0.43428246901E+03  0.43428246901E+03  0.00000000000E+00 0. -1.
         25    2    1    2    0    0  0.66221876415E+02  0.19898297545E+02 -0.32576001403E+03  0.35573985397E+03  0.12509987131E+03 0.  0.
         23    2    1    2    0    0 -0.66221876415E+02 -0.19898297545E+02 -0.58140834463E+02  0.12892423556E+03  0.91977294591E+02 0.  0.
          5    1    3    3  502    0 -0.15936190967E+02  0.39204714515E+02 -0.19833965433E+03  0.20284738772E+03  0.41800000000E+01 0.  1.
         -5    1    3    3    0  502  0.82158067383E+02 -0.19306416970E+02 -0.12742035970E+03  0.15289246626E+03  0.41800000000E+01 0.  1.
        -11    1    4    4    0    0 -0.19914719974E+02 -0.20628880187E+02  0.22151156062E+02  0.36232864699E+02  0.00000000000E+00 0.  1.
         11    1    4    4    0    0 -0.46307156441E+02  0.73058264265E+00 -0.80291990525E+02  0.92691370856E+02  0.00000000000E+00 0. -1.
</event>
<event>
 8    1  0.7112384E-009  0.1160716E+03  0.7561462E-02  0.1249722E+00
         -2   -1    0    0    0  501 -0.00000000000E+00  0.00000000000E+00  0.63662912233E+03  0.63662912233E+03  0.00000000000E+00 0.  1.
          2   -1    0    0  501    0  0.00000000000E+00 -0.00000000000E+00 -0.36503298681E+02  0.36503298681E+02  0.00000000000E+00 0. -1.
         25    2    1    2    0    0  0.80828139838E+02  0.56880541519E+00  0.47666074238E+03  0.49938687020E+03  0.12509304967E+03 0.  0.
         23    2    1    2    0    0 -0.80828139838E+02 -0.56880541519E+00  0.12346508127E+03  0.17374555081E+03  0.91708115251E+02 0.  0.
          5    1    3    3  502    0  0.33250704399E+02  0.50655117668E+02  0.34831343646E+03  0.35356933225E+03  0.41800000000E+01 0. -1.
         -5    1    3    3    0  502  0.47577435439E+02 -0.50086312253E+02  0.12834730592E+03  0.14581753795E+03  0.41800000000E+01 0. -1.
        -11    1    4    4    0    0 -0.51027992797E+02 -0.30918308803E+02  0.11616260809E+03  0.13058923917E+03  0.00000000000E+00 0.  1.
         11    1    4    4    0    0 -0.29800147041E+02  0.30349503388E+02  0.73024731765E+01  0.43156311636E+02  0.00000000000E+00 0. -1.
</event>
<event>
 8    1  0.7112384E-009  0.1288529E+03  0.7561462E-02  0.1229168E+00
          1   -1    0    0  501    0  0.00000000000E+00  0.00000000000E+00  0.17767907565E+04  0.17767907565E+04  0.00000000000E+00 0. -1.
         -1   -1    0    0    0  501 -0.00000000000E+00 -0.00000000000E+00 -0.11879198800E+02  0.11879198800E+02  0.00000000000E+00 0.  1.
         25    2    1    2    0    0 -0.13300090584E+02 -0.69541079071E+02  0.13613635896E+04  0.13689305143E+04  0.12508827210E+03 0.  0.
         23    2    1    2    0    0  0.13300090584E+02  0.69541079071E+02  0.40354796808E+03  0.41973944098E+03  0.91199680270E+02 0.  0.
          5    1    3    3  502    0 -0.61122001533E+02 -0.71962138664E+02  0.98102679327E+03  0.98556861252E+03  0.41800000000E+01 0.  1.
         -5    1    3    3    0  502  0.47821910949E+02  0.24210595927E+01  0.38033679631E+03  0.38336190177E+03  0.41800000000E+01 0.  1.
        -11    1    4    4    0    0 -0.39178146977E+02  0.27068651646E+02  0.15160980794E+03  0.15891246951E+03  0.00000000000E+00 0. -1.
         11    1    4    4    0    0  0.52478237561E+02  0.42472427425E+02  0.25193816015E+03  0.26082697147E+03  0.00000000000E+00 0.  1.
</event>
<event>
 8    1  0.7112384E-009  0.8147859E+02  0.7561462E-02  0.1324907E+00
         -1   -1    0    0    0  501 -0.00000000000E+00  0.00000000000E+00  0.28046871500E+02  0.28046871500E+02  0.00000000000E+00 0.  1.
          1   -1    0    0  501    0  0.00000000000E+00 -0.00000000000E+00 -0.10421591377E+04  0.10421591377E+04  0.00000000000E+00 0. -1.
         25    2    1    2    0    0 -0.10696883320E+02 -0.61535938956E+02 -0.90496442425E+03  0.91570145355E+03  0.12508975888E+03 0.  0.
         23    2    1    2    0    0  0.10696883320E+02  0.61535938956E+02 -0.10914784200E+03  0.15450455570E+03  0.89762526830E+02 0.  0.
          5    1    3    3  502    0 -0.13782643824E+02 -0.79556978644E+02 -0.88352425903E+03  0.88721579270E+03  0.41800000000E+01 0.  1.
         -5    1    3    3    0  502  0.30857605047E+01  0.18021039687E+02 -0.21440165218E+02  0.28485660847E+02  0.41800000000E+01 0.  1.
        -11    1    4    4    0    0  0.12774447766E+02  0.48628480862E+02 -0.12454205909E+03  0.13430800479E+03  0.00000000000E+00 0. -1.
         11    1    4    4    0    0 -0.20775644464E+01  0.12907458095E+02  0.15394217100E+02  0.20196550909E+02  0.00000000000E+00 0.  1.
</event>
<event>
 8    1  0.7112384E-009  0.1212050E+03  0.7561462E-02  0.1241122E+00
         -2   -1    0    0    0  501 -0.00000000000E+00  0.00000000000E+00  0.63081778698E+02  0.63081778698E+02  0.00000000000E+00 0.  1.
          2   -1    0    0  501    0  0.00000000000E+00 -0.00000000000E+00 -0.31462388568E+03  0.31462388568E+03  0.00000000000E+00 0. -1.
         25    2    1    2    0    0 -0.30524101329E+02 -0.71131120804E+02 -0.19024797828E+03  0.24048541073E+03  0.12509029709E+03 0.  0.
         23    2    1    2    0    0  0.30524101329E+02  0.71131120804E+02 -0.61294128700E+02  0.13722025365E+03  0.95294651944E+02 0.  0.
          5    1    3    3  502    0 -0.64877164730E+02 -0.65610645697E+02 -0.71879050061E+02  0.11703791510E+03  0.41800000000E+01 0. -1.
         -5    1    3    3    0  502  0.34353063401E+02 -0.55204751072E+01 -0.11836892822E+03  0.12344749563E+03  0.41800000000E+01 0. -1.
        -11    1    4    4    0    0 -0.15655323132E+02 -0.12120768374E+02  0.59395501935E+01  0.20670762560E+02  0.00000000000E+00 0.  1.
         11    1    4    4    0    0  0.46179424460E+02  0.83251889178E+02 -0.67233678893E+02  0.11654949109E+03  0.00000000000E+00 0. -1.
</event>
<event>
 8    1  0.7112384E-009  0.8324417E+02  0.7561462E-02  0.1320089E+00
          1   -1    0    0  501    0  0.00000000000E+00  0.00000000000E+00  0.21756886722E+03  0.21756886722E+03  0.00000000000E+00 0. -1.
         -1   -1    0    0    0  501 -0.00000000000E+00 -0.00000000000E+00 -0.56346709242E+02  0.56346709242E+02  0.00000000000E+00 0.  1.
         25    2    1    2    0    0  0.91237224579E+01  0.23942623155E+02  0.84157197132E+02  0.15291754048E+03  0.12507937016E+03 0.  0.
         23    2    1    2    0    0 -0.91237224579E+01 -0.23942623155E+02  0.77064960846E+02  0.12099803599E+03  0.89694063390E+02 0.  0.
          5    1    3    3  502    0 -0.11276577607E+02 -0.32896356995E+02 -0.13898059676E+02  0.37682356201E+02  0.41800000000E+01 0.  1.
         -5    1    3    3    0  502  0.20400300065E+02  0.56838980150E+02  0.98055256807E+02  0.11523518427E+03  0.41800000000E+01 0.  1.
        -11    1    4    4    0    0  0.85339891904E+01 -0.43645227852E+02  0.56370038261E+01  0.44827566272E+02  0.00000000000E+00 0.  1.
         11    1    4    4    0    0 -0.17657711648E+02  0.19702604697E+02  0.71427957020E+02  0.76170469714E+02  0.00000000000E+00 0. -1.
</event>
<event>
 8    1  0.7112384E-009  0.2094390E+03  0.7561462E-02  0.1142011E+00
          1   -1    0    0  501    0  0.00000000000E+00  0.00000000000E+00  0.81320486951E+02  0.81320486951E+02  0.00000000000E+00 0. -1.
         -1   -1    0    0    0  501 -0.00000000000E+00 -0.00000000000E+00 -0.83950930826E+03  0.83950930826E+03  0.00000000000E+00 0.  1.
         25    2    1    2    0    0 -0.10528613418E+03  0.15873480374E+03 -0.63993558839E+03  0.67929736896E+03  0.12508177415E+03 0.  0.
         23    2    1    2    0    0  0.10528613418E+03 -0.15873480374E+03 -0.11825323292E+03  0.24153242625E+03  0.89845299611E+02 0.  0.
          5    1    3    3  502    0 -0.11968199863E+03  0.14372424990E+03 -0.43838344380E+03  0.47663188836E+03  0.41800000000E+01 0. -1.
         -5    1    3    3    0  502  0.14395864445E+02  0.15010553846E+02 -0.20155214459E+03  0.20266548060E+03  0.41800000000E+01 0. -1.
        -11    1    4    4    0    0  0.98805524321E+02 -0.68753971843E+02 -0.66062296419E+02  0.13730938529E+03  0.00000000000E+00 0.  1.
         11    1    4    4    0    0  0.64806098630E+01 -0.89980831899E+02 -0.52190936499E+02  0.10422304096E+03  0.00000000000E+00 0. -1.
</event>
<event>
 8    1  0.7112384E-009  0.1678779E+03  0.7561462E-02  0.1180079E+00
         -2   -1    0    0    0  501 -0.00000000000E+00  0.00000000000E+00  0.13514808806E+03  0.13514808806E+03  0.00000000000E+00 0.  1.
          2   -1    0    0  501    0  0.00000000000E+00 -0.00000000000E+00 -0.46562595250E+03  0.46562595250E+03  0.00000000000E+00 0. -1.
         25    2    1    2    0    0  0.50616025134E+02 -0.13702754059E+03 -0.37599742192E+03  0.42232684146E+03  0.12508945136E+03 0.  0.
         23    2    1    2    0    0 -0.50616025134E+02  0.13702754059E+03  0.45519557492E+02  0.17844719911E+03  0.91830517123E+02 0.  0.
          5    1    3    3  502    0  0.36115233059E+02 -0.15836309400E+03 -0.28964649370E+03  0.33210802959E+03  0.41800000000E+01 0. -1.
         -5    1    3    3    0  502  0.14500792075E+02  0.21335553419E+02 -0.86350928219E+02  0.90218811868E+02  0.41800000000E+01 0. -1.
        -11    1    4    4    0    0 -0.20841433056E+02  0.33847384711E+02  0.58021782422E+02  0.70331628867E+02  0.00000000000E+00 0.  1.
         11    1    4    4    0    0 -0.29774592078E+02  0.10318015587E+03 -0.12502224931E+02  0.10811557024E+03  0.00000000000E+00 0. -1.
</event>
<event>
 8    1  0.7112384E-009  0.1001551E+03  0.7561462E-02  0.1279970E+00
         -2   -1    0    0    0  501 -0.00000000000E+00  0.00000000000E+00  0.25660220520E+02  0.25660220520E+02  0.00000000000E+00 0. -1.
          2   -1    0    0  501    0  0.00000000000E+00 -0.00000000000E+00 -0.48798865414E+03  0.48798865414E+03  0.00000000000E+00 0.  1.
         25    2    1    2    0    0 -0.25018951991E+02 -0.98773366298E+01 -0.29505746572E+03  0.32160643247E+03  0.12509308371E+03 0.  0.
         23    2    1    2    0    0  0.25018951991E+02  0.98773366298E+01 -0.16727096790E+03  0.19204244219E+03  0.90427944591E+02 0.  0.
          5    1    3    3  502    0 -0.72902756506E+02 -0.17042198159E+02 -0.13614153358E+03  0.15542598878E+03  0.41800000000E+01 0.  1.
         -5    1    3    3    0  502  0.47883804514E+02  0.71648615293E+01 -0.15891593214E+03  0.16618044368E+03  0.41800000000E+01 0.  1.
        -11    1    4    4    0    0  0.46155899686E+02  0.23285940922E+02 -0.15645407874E+03  0.16477402974E+03  0.00000000000E+00 0.  1.
         11    1    4    4    0    0 -0.21136947694E+02 -0.13408604292E+02 -0.10816889162E+02  0.27268412459E+02  0.00000000000E+00 0. -1.
</event>
<event>
 8    1  0.7112384E-009  0.1207551E+03  0.7561462E-02  0.1241857E+00
         -1   -1    0    0    0  501 -0.00000000000E+00  0.00000000000E+00  0.23706053489E+02  0.23706053489E+02  0.00000000000E+00 0.  1.
          1   -1    0    0  501    0  0.00000000000E+00 -0.00000000000E+00 -0.14481052060E+04  0.14481052060E+04  0.00000000000E+00 0. -1.
         25    2    1    2    0    0  0.76738039933E+02  0.60695150698E+02 -0.12011769895E+04  0.12116294627E+04  0.12508863563E+03 0.  0.
         23    2    1    2    0    0 -0.76738039933E+02 -0.60695150698E+02 -0.22322216305E+03  0.26018179680E+03  0.91070331154E+02 0.  0.
          5    1    3    3  502    0 -0.10486224776E+02  0.38193162914E+02 -0.11472027370E+03  0.12143678273E+03  0.41800000000E+01 0.  1.
         -5    1    3    3    0  502  0.87224264709E+02  0.22501987783E+02 -0.10864567158E+04  0.10901926800E+04  0.41800000000E+01 0.  1.
        -11    1    4    4    0    0 -0.37574942351E+02  0.19520643601E+01 -0.15540261593E+03  0.15989265113E+03  0.00000000000E+00 0. -1.
         11    1    4    4    0    0 -0.39163097582E+02 -0.62647215058E+02 -0.67819547123E+02  0.10028914567E+03  0.00000000000E+00 0.  1.
</event>
<event>
 8    1  0.7112384E-009  0.1013100E+03  0.7561462E-02  0.1277565E+00
          2   -1    0    0  501    0  0.00000000000E+00  0.00000000000E+00  0.10622418566E+03  0.10622418566E+03  0.00000000000E+00 0.  1.
         -2   -1    0    0    0  501 -0.00000000000E+00 -0.00000000000E+00 -0.22781817388E+03  0.22781817388E+03  0.00000000000E+00 0. -1.
         25    2    1    2    0    0  0.48397076331E+02 -0.37245949789E+02 -0.16552486274E+03  0.21627444589E+03  0.12508644207E+03 0.  0.
         23    2    1    2    0    0 -0.48397076331E+02  0.37245949789E+02  0.43930874517E+02  0.11776791365E+03  0.90608067946E+02 0.  0.
          5    1    3    3  502    0  0.97216486197E+01  0.26630263782E+02  0.58896281887E+01  0.29254769204E+02  0.41800000000E+01 0.  1.
         -5    1    3    3    0  502  0.38675427712E+02 -0.63876213571E+02 -0.17141449093E+03  0.18701967669E+03  0.41800000000E+01 0.  1.
        -11    1    4    4    0    0 -0.69592717988E+02  0.21727759187E+02  0.52827340752E+02  0.90033159709E+02  0.00000000000E+00 0.  1.
         11    1    4    4    0    0  0.21195641656E+02  0.15518190602E+02 -0.88964662352E+01  0.27734753943E+02  0.00000000000E+00 0. -1.
</event>
<event>
 8    1  0.7112384E-009  0.1908567E+03  0.7561462E-02  0.1157691E+00
          1   -1    0    0  501    0  0.00000000000E+00  0.00000000000E+00  0.75400298491E+03  0.75400298491E+03  0.00000000000E+00 0. -1.
         -1   -1    0    0    0  501 -0.00000000000E+00 -0.00000000000E+00 -0.73359252876E+02  0.73359252876E+02  0.00000000000E+00 0.  1.
         25    2    1    2    0    0  0.18952788781E+03  0.49416167093E+01  0.19489755062E+03  0.29929567213E+03  0.12509038446E+03 0.  0.
         23    2    1    2    0    0 -0.18952788781E+03 -0.49416167093E+01  0.48574618142E+03  0.52806656566E+03  0.83424847445E+02 0.  0.
          5    1    3    3  502    0  0.79556777880E+02 -0.11186104705E+00  0.50841817577E+01  0.79828658536E+02  0.41800000000E+01 0.  1.
         -5    1    3    3    0  502  0.10997110993E+03  0.50534777563E+01  0.18981336886E+03  0.21946701359E+03  0.41800000000E+01 0.  1.
        -11    1    4    4    0    0 -0.13072102114E+03  0.10312773150E+02  0.22577825558E+03  0.26109415802E+03  0.00000000000E+00 0.  1.
         11    1    4    4    0    0 -0.58806866670E+02 -0.15254389859E+02  0.25996792584E+03  0.26697240764E+03  0.00000000000E+00 0. -1.
</event>
<event>
 8    1  0.7112384E-009  0.1116694E+03  0.7561462E-02  0.1257509E+00
          3   -1    0    0  501    0  0.00000000000E+00  0.00000000000E+00  0.18006205724E+03  0.18006205724E+03  0.00000000000E+00 0. -1.
         -3   -1    0    0    0  501 -0.00000000000E+00 -0.00000000000E+00 -0.84686535230E+02  0.84686535230E+02  0.00000000000E+00 0.  1.
         25    2    1    2    0    0  0.38229175726E+02  0.36334557278E+02  0.80102781659E+02  0.15762455903E+03  0.12508947218E+03 0.  0.
         23    2    1    2    0    0 -0.38229175726E+02 -0.36334557278E+02  0.15272740352E+02  0.10712403344E+03  0.91981693905E+02 0.  0.
          5    1    3    3  502    0 -0.45297130363E+02  0.11904666277E+02  0.16811415490E+02  0.49936431481E+02  0.41800000000E+01 0.  1.
         -5    1    3    3    0  502  0.83526306089E+02  0.24429891002E+02  0.63291366170E+02  0.10768812755E+03  0.41800000000E+01 0.  1.
        -11    1    4    4    0    0  0.12173466514E+02 -0.36826332021E+02 -0.21856120821E+02  0.44520355282E+02  0.00000000000E+00 0.  1.
         11    1    4    4    0    0 -0.50402642240E+02  0.49177474261E+00  0.37128861173E+02  0.62603678160E+02  0.00000000000E+00 0. -1.
</event>
<event>
 8    1  0.7112384E-009  0.1083215E+03  0.7561462E-02  0.1263710E+00
         -1   -1    0    0    0  501 -0.00000000000E+00  0.00000000000E+00  0.53904664965E+02  0.53904664965E+02  0.00000000000E+00 0.  1.
          1   -1    0    0  501    0  0.00000000000E+00 -0.00000000000E+00 -0.23935327742E+03  0.23935327742E+03  0.00000000000E+00 0. -1.
         25    2    1    2    0    0  0.45193120509E+01  0.30837581236E+02 -0.12859298225E+03  0.18208591275E+03  0.12509094269E+03 0.  0.
         23    2    1    2    0    0 -0.45193120509E+01 -0.30837581236E+02 -0.56855630208E+02  0.11117202963E+03  0.90306571675E+02 0.  0.
          5    1    3    3  502    0  0.22710088082E+02  0.73640954354E+02 -0.54404117158E+02  0.94424671684E+02  0.41800000000E+01 0.  1.
         -5    1    3    3    0  502 -0.18190776031E+02 -0.42803373118E+02 -0.74188865088E+02  0.87661241070E+02  0.41800000000E+01 0.  1.
        -11    1    4    4    0    0  0.84553640901E+01 -0.60136200301E+02 -0.24057548160E+02  0.65319379912E+02  0.00000000000E+00 0.  1.
         11    1    4    4    0    0 -0.12974676141E+02  0.29298619065E+02 -0.32798082048E+02  0.45852649718E+02  0.00000000000E+00 0. -1.
</event>
<event>
 8    1  0.7112384E-009  0.9875297E+02  0.7561462E-02  0.1282940E+00
          1   -1    0    0  501    0  0.00000000000E+00  0.00000000000E+00  0.10210319517E+03  0.10210319517E+03  0.00000000000E+00 0.  1.
         -1   -1    0    0    0  501 -0.00000000000E+00 -0.00000000000E+00 -0.17352752629E+03  0.17352752629E+03  0.00000000000E+00 0. -1.
         25    2    1    2    0    0  0.26731431986E+02  0.23481360155E+02 -0.98067946209E+02  0.16288308216E+03  0.12509049784E+03 0.  0.
         23    2    1    2    0    0 -0.26731431986E+02 -0.23481360155E+02  0.26643615092E+02  0.11274763930E+03  0.10361565621E+03 0.  0.
          5    1    3    3  502    0  0.55148811078E+02  0.21853626789E+02  0.12511610572E+01  0.59481174930E+02  0.41800000000E+01 0. -1.
         -5    1    3    3    0  502 -0.28417379092E+02  0.16277333660E+01 -0.99319107266E+02  0.10340190723E+03  0.41800000000E+01 0. -1.
        -11    1    4    4    0    0  0.23858178621E+02 -0.47584477661E+02  0.17048090085E+02  0.55893940431E+02  0.00000000000E+00 0. -1.
         11    1    4    4    0    0 -0.50589610607E+02  0.24103117506E+02  0.95955250075E+01  0.56853698868E+02  0.00000000000E+00 0.  1.
</event>
<event>
 8    1  0.7112384E-009  0.1677165E+03  0.7561462E-02  0.1180250E+00
         -1   -1    0    0    0  501 -0.00000000000E+00  0.00000000000E+00  0.45373663485E+02  0.45373663485E+02  0.00000000000E+00 0. -1.
          1   -1    0    0  501    0  0.00000000000E+00 -0.00000000000E+00 -0.75719171513E+03  0.75719171513E+03  0.00000000000E+00 0.  1.
         25    2    1    2    0    0  0.12165636836E+03 -0.82043716949E+02 -0.30852431293E+03  0.36381795054E+03  0.12507919896E+03 0.  0.
         23    2    1    2    0    0 -0.12165636836E+03  0.82043716949E+02 -0.40329373872E+03  0.43874742808E+03  0.91225119901E+02 0.  0.
          5    1    3    3  502    0  0.74296495806E+02 -0.87459003046E+02 -0.29103535298E+03  0.31287073303E+03  0.41800000000E+01 0.  1.
         -5    1    3    3    0  502  0.47359872558E+02  0.54152860972E+01 -0.17488959955E+02  0.50947217515E+02  0.41800000000E+01 0.  1.
        -11    1    4    4    0    0 -0.96193105043E+02  0.10446643864E+02 -0.23011093653E+03  0.24962629857E+03  0.00000000000E+00 0. -1.
         11    1    4    4    0    0 -0.25463263321E+02  0.71597073085E+02 -0.17318280219E+03  0.18912112951E+03  0.00000000000E+00 0.  1.
</event>
<event>
 8    1  0.7112384E-009  0.1426139E+03  0.7561462E-02  0.1209854E+00
         -2   -1    0    0    0  501 -0.00000000000E+00  0.00000000000E+00  0.67798247422E+02  0.67798247422E+02  0.00000000000E+00 0.  1.
          2   -1    0    0  501    0  0.00000000000E+00 -0.00000000000E+00 -0.47398117822E+03  0.47398117822E+03  0.00000000000E+00 0. -1.
         25    2    1    2    0    0  0.99034514419E+02  0.83671703308E+02 -0.30318765042E+03  0.35267378250E+03  0.12508899438E+03 0.  0.
         23    2    1    2    0    0 -0.99034514419E+02 -0.83671703308E+02 -0.10299528038E+03  0.18910564315E+03  0.91346195914E+02 0.  0.
          5    1    3    3  502    0 -0.10065558328E+02  0.80656374126E+01  0.69953375021E+01  0.15257035036E+02  0.41800000000E+01 0. -1.
         -5    1    3    3    0  502  0.10910007275E+03  0.75606065896E+02 -0.31018298792E+03  0.33741674746E+03  0.41800000000E+01 0. -1.
        -11    1    4    4    0    0 -0.30796315163E+02  0.12917748945E+00  0.10357651889E+02  0.32491701511E+02  0.00000000000E+00 0.  1.
         11    1    4    4    0    0 -0.68238199257E+02 -0.83800880798E+02 -0.11335293227E+03  0.15661394164E+03  0.00000000000E+00 0. -1.
</event>
<event>
 8    1  0.7112384E-009  0.1104190E+03  0.7561462E-02  0.1259796E+00
         -2   -1    0    0    0  501 -0.00000000000E+00  0.00000000000E+00  0.55929483974E+02  0.55929483974E+02  0.00000000000E+00 0.  1.
          2   -1    0    0  501    0  0.00000000000E+00 -0.00000000000E+00 -0.45325680841E+03  0.45325680841E+03  0.00000000000E+00 0. -1.
         25    2    1    2    0    0 -0.44054673334E+02 -0.65292015586E+01 -0.42290035477E+02  0.13934516070E+03  0.12508070192E+03 0.  0.
         23    2    1    2    0    0  0.44054673334E+02  0.65292015586E+01 -0.35503728896E+03  0.36984113169E+03  0.93528292083E+02 0.  0.
          5    1    3    3  502    0 -0.83342060167E+01  0.51626913890E+02 -0.47497347369E+02  0.70769114978E+02  0.41800000000E+01 0.  1.
         -5    1    3    3    0  502 -0.35720467317E+02 -0.58156115448E+02  0.52073118920E+01  0.68576045720E+02  0.41800000000E+01 0.  1.
        -11    1    4    4    0    0  0.63351527428E+02 -0.20679269977E+02 -0.18686114138E+03  0.19838884644E+03  0.00000000000E+00 0.  1.
         11    1    4    4    0    0 -0.19296854094E+02  0.27208471536E+02 -0.16817614758E+03  0.17145228525E+03  0.00000000000E+00 0. -1.
</event>
<event>
 8    1  0.7112384E-009  0.9879504E+02  0.7561462E-02  0.1282850E+00
         -2   -1    0    0    0  501 -0.00000000000E+00  0.00000000000E+00  0.44415111821E+02  0.44415111821E+02  0.00000000000E+00 0.  1.
          2   -1    0    0  501    0  0.00000000000E+00 -0.00000000000E+00 -0.27828870196E+03  0.27828870196E+03  0.00000000000E+00 0. -1.
         25    2    1    2    0    0 -0.72165071954E+01  0.26632676285E+02 -0.13211484123E+03  0.18402149044E+03  0.12509276656E+03 0.  0.
         23    2    1    2    0    0  0.72165071954E+01 -0.26632676285E+02 -0.10175874891E+03  0.13868232335E+03  0.90091988584E+02 0.  0.
          5    1    3    3  502    0  0.15967448079E+02  0.72162521253E+02 -0.96400542532E+02  0.12154392569E+03  0.41800000000E+01 0.  1.
         -5    1    3    3    0  502 -0.23183955274E+02 -0.45529844968E+02 -0.35714298702E+02  0.62477564747E+02  0.41800000000E+01 0.  1.
        -11    1    4    4    0    0 -0.18531243673E+02  0.14666349284E+02 -0.83372433297E+02  0.86657206436E+02  0.00000000000E+00 0. -1.
         11    1    4    4    0    0  0.25747750869E+02 -0.41299025569E+02 -0.18386315611E+02  0.52025116910E+02  0.00000000000E+00 0.  1.
</event>
<event>
 8    1  0.7112384E-009  0.1442154E+03  0.7561462E-02  0.1207767E+00
          1   -1    0    0  501    0  0.00000000000E+00  0.00000000000E+00  0.10396340138E+04  0.10396340138E+04  0.00000000000E+00 0. -1.
         -1   -1    0    0    0  501 -0.00000000000E+00 -0.00000000000E+00 -0.29733087009E+02  0.29733087009E+02  0.00000000000E+00 0.  1.
         25    2    1    2    0    0 -0.10876878196E+03  0.30343603384E+02  0.77345165740E+03  0.79159770661E+03  0.12509228829E+03 0.  0.
         23    2    1    2    0    0  0.10876878196E+03 -0.30343603384E+02  0.23644926939E+03  0.27776939419E+03  0.92174818469E+02 0.  0.
          5    1    3    3  502    0  0.10905286109E+02 -0.24654818538E+02  0.57791483370E+02  0.63907067624E+02  0.41800000000E+01 0. -1.
         -5    1    3    3    0  502 -0.11967406807E+03  0.54998421922E+02  0.71566017403E+03  0.72769063899E+03  0.41800000000E+01 0. -1.
        -11    1    4    4    0    0  0.38867334855E+02 -0.43406656346E+02  0.17270917961E+03  0.18227251097E+03  0.00000000000E+00 0. -1.
         11    1    4    4    0    0  0.69901447105E+02  0.13063052963E+02  0.63740089781E+02  0.95496883223E+02  0.00000000000E+00 0.  1.
</event>
<event>
 8    1  0.7112384E-009  0.9488392E+02  0.7561462E-02  0.1291438E+00
         -1   -1    0    0    0  501 -0.00000000000E+00  0.00000000000E+00  0.34275707023E+02  0.34275707023E+02  0.00000000000E+00 0.  1.
          1   -1    0    0  501    0  0.00000000000E+00 -0.00000000000E+00 -0.48328979876E+03  0.48328979876E+03  0.00000000000E+00 0. -1.
         25    2    1    2    0    0 -0.39148923865E+02  0.48457769822E+02 -0.19197899571E+03  0.23745176543E+03  0.12508641979E+03 0.  0.
         23    2    1    2    0    0  0.39148923865E+02 -0.48457769822E+02 -0.25703509603E+03  0.28011374036E+03  0.92281489206E+02 0.  0.
          5    1    3    3  502    0 -0.22892847591E+02 -0.53121423778E+01  0.11374077698E+02  0.26441319388E+02  0.41800000000E+01 0. -1.
         -5    1    3    3    0  502 -0.16256076274E+02  0.53769912200E+02 -0.20335307341E+03  0.21101044604E+03  0.41800000000E+01 0. -1.
        -11    1    4    4    0    0  0.58595307747E+02 -0.13561210792E+01 -0.16203438814E+03  0.17230900178E+03  0.00000000000E+00 0. -1.
         11    1    4    4    0    0 -0.19446383882E+02 -0.47101648743E+02 -0.95000707893E+02  0.10780473858E+03  0.00000000000E+00 0.  1.
</event>
<event>
 8    1  0.7112384E-009  0.9937844E+02  0.7561462E-02  0.1281608E+00
          2   -1    0    0  501    0  0.00000000000E+00  0.00000000000E+00  0.94690436954E+03  0.94690436954E+03  0.00000000000E+00 0. -1.
         -2   -1    0    0    0  501 -0.00000000000E+00 -0.00000000000E+00 -0.17540449542E+02  0.17540449542E+02  0.00000000000E+00 0.  1.
         25    2    1    2    0    0 -0.66073401437E+01 -0.68090397978E+02  0.45860618759E+03  0.48025714676E+03  0.12508929801E+03 0.  0.
         23    2    1    2    0    0  0.66073401437E+01  0.68090397978E+02  0.47075773241E+03  0.48418767232E+03  0.90249100641E+02 0.  0.
          5    1    3    3  502    0 -0.12840841212E+02 -0.75711453183E+02  0.46251780536E+03  0.46886810941E+03  0.41800000000E+01 0.  1.
         -5    1    3    3    0  502  0.62335010686E+01  0.76210552053E+01 -0.39116177756E+01  0.11389037345E+02  0.41800000000E+01 0.  1.
        -11    1    4    4    0    0 -0.31288717524E+02  0.66187577204E+02  0.35134582955E+03  0.35889228351E+03  0.00000000000E+00 0.  1.
         11    1    4    4    0    0  0.37896057667E+02  0.19028207738E+01  0.11941190286E+03  0.12529538881E+03  0.00000000000E+00 0. -1.
</event>
<event>
 8    1  0.7112384E-009  0.1094032E+03  0.7561462E-02  0.1261679E+00
          1   -1    0    0  501    0  0.00000000000E+00  0.00000000000E+00  0.17262968670E+03  0.17262968670E+03  0.00000000000E+00 0. -1.
         -1   -1    0    0    0  501 -0.00000000000E+00 -0.00000000000E+00 -0.14533151706E+03  0.14533151706E+03  0.00000000000E+00 0.  1.
         25    2    1    2    0    0 -0.22869409928E+02 -0.27963772411E+02  0.12403139609E+03  0.17982326581E+03  0.12509051616E+03 0.  0.
         23    2    1    2    0    0  0.22869409928E+02  0.27963772411E+02 -0.96733226442E+02  0.13813793795E+03  0.91759415454E+02 0.  0.
          5    1    3    3  502    0  0.29072044505E+02 -0.58043313956E+02  0.88871547673E+02  0.11013552766E+03  0.41800000000E+01 0.  1.
         -5    1    3    3    0  502 -0.51941454433E+02  0.30079541546E+02  0.35159848417E+02  0.69687738153E+02  0.41800000000E+01 0.  1.
        -11    1    4    4    0    0  0.13891866865E+02 -0.30986078419E+02 -0.15396935874E+02  0.37285206920E+02  0.00000000000E+00 0.  1.
         11    1    4    4    0    0  0.89775430629E+01  0.58949850829E+02 -0.81336290568E+02  0.10085273103E+03  0.00000000000E+00 0. -1.
</event>
<event>
 8    1  0.7112384E-009  0.2343115E+03  0.7561462E-02  0.1123641E+00
          2   -1    0    0  501    0  0.00000000000E+00  0.00000000000E+00  0.66705641252E+03  0.66705641252E+03  0.00000000000E+00 0. -1.
         -2   -1    0    0    0  501 -0.00000000000E+00 -0.00000000000E+00 -0.95510627234E+02  0.95510627234E+02  0.00000000000E+00 0.  1.
         25    2    1    2    0    0 -0.21779392970E+03  0.11266714111E+01  0.19465105660E+03  0.31775951247E+03  0.12508640504E+03 0.  0.
         23    2    1    2    0    0  0.21779392970E+03 -0.11266714111E+01  0.37689472869E+03  0.44480752729E+03  0.91480241657E+02 0.  0.
          5    1    3    3  502    0 -0.12894030796E+03  0.61480890340E+02  0.98796542462E+02  0.17373466003E+03  0.41800000000E+01 0.  1.
         -5    1    3    3    0  502 -0.88853621744E+02 -0.60354218929E+02  0.95854514133E+02  0.14402485244E+03  0.41800000000E+01 0.  1.
        -11    1    4    4    0    0  0.59860486261E+02 -0.63748755886E+01  0.38834154064E+02  0.71638037215E+02  0.00000000000E+00 0. -1.
         11    1    4    4    0    0  0.15793344344E+03  0.52482041776E+01  0.33806057462E+03  0.37316949007E+03  0.00000000000E+00 0.  1.
</event>
<event>
 8    1  0.7112384E-009  0.1323483E+03  0.7561462E-02  0.1224012E+00
          1   -1    0    0  501    0  0.00000000000E+00  0.00000000000E+00  0.40982022435E+03  0.40982022435E+03  0.00000000000E+00 0. -1.
         -1   -1    0    0    0  501 -0.00000000000E+00 -0.00000000000E+00 -0.55051570208E+02  0.55051570208E+02  0.00000000000E+00 0.  1.
         25    2    1    2    0    0  0.76935267236E+02 -0.69966502631E+02  0.18465046759E+03  0.24608398635E+03  0.12508871380E+03 0.  0.
         23    2    1    2    0    0 -0.76935267236E+02  0.69966502631E+02  0.17011818655E+03  0.21878780821E+03  0.90075306222E+02 0.  0.
          5    1    3    3  502    0  0.24666754615E+02 -0.90886617329E+02  0.67192515400E+02  0.11576326066E+03  0.41800000000E+01 0. -1.
         -5    1    3    3    0  502  0.52268512621E+02  0.20920114698E+02  0.11745795219E+03  0.13032072569E+03  0.41800000000E+01 0. -1.
        -11    1    4    4    0    0 -0.52027341152E+02  0.15828674736E+02  0.21163851534E+02  0.58354946517E+02  0.00000000000E+00 0.  1.
         11    1    4    4    0    0 -0.24907926084E+02  0.54137827896E+02  0.14895433501E+03  0.16043286169E+03  0.00000000000E+00 0. -1.
</event>
<event>
 8    1  0.7112384E-009  0.1242275E+03  0.7561462E-02  0.1236281E+00
         -2   -1    0    0    0  501 -0.00000000000E+00  0.00000000000E+00  0.15073506198E+03  0.15073506198E+03  0.00000000000E+00 0.  1.
          2   -1    0    0  501    0  0.00000000000E+00 -0.00000000000E+00 -0.13020667788E+03  0.13020667788E+03  0.00000000000E+00 0. -1.
         25    2    1    2    0    0  0.40497372467E+01  0.84441124583E+02 -0.15014121746E+02  0.15172077929E+03  0.12508823735E+03 0.  0.
         23    2    1    2    0    0 -0.40497372467E+01 -0.84441124583E+02  0.35542505840E+02  0.12922096057E+03  0.91038909464E+02 0.  0.
          5    1    3    3  502    0 -0.28869455461E+02  0.98700301109E+02  0.15947414103E+02  0.10414887092E+03  0.41800000000E+01 0. -1.
         -5    1    3    3    0  502  0.32919192708E+02 -0.14259176526E+02 -0.30961535850E+02  0.47571908369E+02  0.41800000000E+01 0. -1.
        -11    1    4    4    0    0  0.26567947455E+02 -0.90851781784E+01 -0.16586491363E+02  0.32611470225E+02  0.00000000000E+00 0. -1.
         11    1    4    4    0    0 -0.30617684702E+02 -0.75355946404E+02  0.52128997203E+02  0.96609490343E+02  0.00000000000E+00 0.  1.
</event>
<event>
 8    1  0.7112384E-009  0.1059242E+03  0.7561462E-02  0.1268309E+00
          1   -1    0    0  501    0  0.00000000000E+00  0.00000000000E+00  0.45919861178E+03  0.45919861178E+03  0.00000000000E+00 0. -1.
         -1   -1    0    0    0  501 -0.00000000000E+00 -0.00000000000E+00 -0.35466641023E+02  0.35466641023E+02  0.00000000000E+00 0.  1.
         25    2    1    2    0    0 -0.64974839088E+02 -0.62360020612E+01  0.19200332395E+03  0.23827257488E+03  0.12509167076E+03 0.  0.
         23    2    1    2    0    0  0.64974839088E+02  0.62360020612E+01  0.23172864680E+03  0.25639267792E+03  0.88195363295E+02 0.  0.
          5    1    3    3  502    0 -0.82704646210E+02 -0.40929219091E+02  0.16963026653E+03  0.19315061275E+03  0.41800000000E+01 0. -1.
         -5    1    3    3    0  502  0.17729807123E+02  0.34693217029E+02  0.22373057420E+02  0.45121962134E+02  0.41800000000E+01 0. -1.
        -11    1    4    4    0    0  0.37202037011E+02  0.26701133028E+02  0.37682056293E+02  0.59303283461E+02  0.00000000000E+00 0.  1.
         11    1    4    4    0    0  0.27772802076E+02 -0.20465130967E+02  0.19404659051E+03  0.19708939446E+03  0.00000000000E+00 0. -1.
</event>
<event>
 8    1  0.7112384E-009  0.1318961E+03  0.7561462E-02  0.1224669E+00
          1   -1    0    0  501    0  0.00000000000E+00  0.00000000000E+00  0.43236360970E+03  0.43236360970E+03  0.00000000000E+00 0. -1.
         -1   -1    0    0    0  501 -0.00000000000E+00 -0.00000000000E+00 -0.43117012268E+02  0.43117012268E+02  0.00000000000E+00 0.  1.
         25    2    1    2    0    0 -0.71120600623E+02  0.41671903413E+02  0.20989077764E+03  0.25786758021E+03  0.12508742151E+03 0.  0.
         23    2    1    2    0    0  0.71120600623E+02 -0.41671903413E+02  0.17935581980E+03  0.21761304176E+03  0.91609161552E+02 0.  0.
          5    1    3    3  502    0  0.34668631034E+02  0.49726002732E+01  0.72113523930E+02  0.80277477943E+02  0.41800000000E+01 0.  1.
         -5    1    3    3    0  502 -0.10578923166E+03  0.36699303140E+02  0.13777725371E+03  0.17759010227E+03  0.41800000000E+01 0.  1.
        -11    1    4    4    0    0  0.86423166937E+02 -0.17995282678E+02  0.16204765665E+03  0.18453248226E+03  0.00000000000E+00 0. -1.
         11    1    4    4    0    0 -0.15302566314E+02 -0.23676620736E+02  0.17308163148E+02  0.33080559500E+02  0.00000000000E+00 0.  1.
</event>
<event>
 8    1  0.7112384E-009  0.1141828E+03  0.7561462E-02  0.1253014E+00
          1   -1    0    0  501    0  0.00000000000E+00  0.00000000000E+00  0.31441637624E+03  0.31441637624E+03  0.00000000000E+00 0. -1.
         -1   -1    0    0    0  501 -0.00000000000E+00 -0.00000000000E+00 -0.12121303784E+03  0.12121303784E+03  0.00000000000E+00 0.  1.
         25    2    1    2    0    0 -0.22076571808E+02  0.97088039392E+02  0.24337280279E+03  0.29118869131E+03  0.12508825041E+03 0.  0.
         23    2    1    2    0    0  0.22076571808E+02 -0.97088039392E+02 -0.50169464394E+02  0.14444072276E+03  0.91829651088E+02 0.  0.
          5    1    3    3  502    0  0.18966075300E+02  0.82928204048E+02  0.63861952537E+02  0.10645478111E+03  0.41800000000E+01 0. -1.
         -5    1    3    3    0  502 -0.41042647107E+02  0.14159835344E+02  0.17951085026E+03  0.18473391020E+03  0.41800000000E+01 0. -1.
        -11    1    4    4    0    0  0.15219713804E+02 -0.63931908759E+02 -0.77006415289E+02  0.10123693319E+03  0.00000000000E+00 0.  1.
         11    1    4    4    0    0  0.68568580041E+01 -0.33156130633E+02  0.26836950895E+02  0.43203789574E+02  0.00000000000E+00 0. -1.
</event>
<event>
 8    1  0.7112384E-009  0.1797180E+03  0.7561462E-02  0.1168076E+00
          1   -1    0    0  501    0  0.00000000000E+00  0.00000000000E+00  0.11156423261E+03  0.11156423261E+03  0.00000000000E+00 0. -1.
         -1   -1    0    0    0  501 -0.00000000000E+00 -0.00000000000E+00 -0.43951307786E+03  0.43951307786E+03  0.00000000000E+00 0.  1.
         25    2    1    2    0    0  0.10830126867E+03 -0.11822688378E+03 -0.37225610785E+02  0.20674723382E+03  0.12510760068E+03 0.  0.
         23    2    1    2    0    0 -0.10830126867E+03  0.11822688378E+03 -0.29072323446E+03  0.34433007665E+03  0.91304117021E+02 0.  0.
          5    1    3    3  502    0 -0.23106275736E+02 -0.29466754976E+02 -0.29632232158E+02  0.47934655625E+02  0.41800000000E+01 0.  1.
         -5    1    3    3    0  502  0.13140754441E+03 -0.88760128808E+02 -0.75933786274E+01  0.15881257819E+03  0.41800000000E+01 0.  1.
        -11    1    4    4    0    0 -0.80133828352E+02  0.66107472242E+02 -0.25451120525E+03  0.27489558368E+03  0.00000000000E+00 0.  1.
         11    1    4    4    0    0 -0.28167440320E+02  0.52119411543E+02 -0.36212029214E+02  0.69434492967E+02  0.00000000000E+00 0. -1.
</event>
<event>
 8    1  0.7112384E-009  0.1316487E+03  0.7561462E-02  0.1225030E+00
          4   -1    0    0  501    0  0.00000000000E+00  0.00000000000E+00  0.36243034395E+02  0.36243034395E+02  0.00000000000E+00 0. -1.
         -4   -1    0    0    0  501 -0.00000000000E+00 -0.00000000000E+00 -0.87481941077E+03  0.87481941077E+03  0.00000000000E+00 0.  1.
         25    2    1    2    0    0  0.93954754115E+02 -0.61166666423E+02 -0.66418439534E+03  0.68509696279E+03  0.12509228801E+03 0.  0.
         23    2    1    2    0    0 -0.93954754115E+02  0.61166666423E+02 -0.17439198104E+03  0.22596548237E+03  0.89883142305E+02 0.  0.
          5    1    3    3  502    0  0.98176649414E+02 -0.51671789480E+02 -0.66467724313E+03  0.67388570118E+03  0.41800000000E+01 0. -1.
         -5    1    3    3    0  502 -0.42218952985E+01 -0.94948769426E+01  0.49284779376E+00  0.11211261616E+02  0.41800000000E+01 0. -1.
        -11    1    4    4    0    0 -0.68391939514E+02  0.82935818130E+02 -0.14965072713E+03  0.18425837145E+03  0.00000000000E+00 0.  1.
         11    1    4    4    0    0 -0.25562814602E+02 -0.21769151707E+02 -0.24741253912E+02  0.41707110923E+02  0.00000000000E+00 0. -1.
</event>
<event>
 8    1  0.7112384E-009  0.1052432E+03  0.7561462E-02  0.1269641E+00
          1   -1    0    0  501    0  0.00000000000E+00  0.00000000000E+00  0.22992852892E+03  0.22992852892E+03  0.00000000000E+00 0. -1.
         -1   -1    0    0    0  501 -0.00000000000E+00 -0.00000000000E+00 -0.95510626489E+02  0.95510626489E+02  0.00000000000E+00 0.  1.
         25    2    1    2    0    0  0.35149793309E+02  0.53278850199E+02  0.15569952239E+03  0.20968197855E+03  0.12510014792E+03 0.  0.
         23    2    1    2    0    0 -0.35149793309E+02 -0.53278850199E+02 -0.21281619958E+02  0.11575717686E+03  0.94194866090E+02 0.  0.
          5    1    3    3  502    0  0.36238390924E+02 -0.85785297209E+01 -0.46494414595E+01  0.37761115645E+02  0.41800000000E+01 0. -1.
         -5    1    3    3    0  502 -0.10885976146E+01  0.61857379920E+02  0.16034896385E+03  0.17192086291E+03  0.41800000000E+01 0. -1.
        -11    1    4    4    0    0  0.21796388376E+02 -0.49319228201E+02  0.23574396066E+01  0.53972459071E+02  0.00000000000E+00 0. -1.
         11    1    4    4    0    0 -0.56946181685E+02 -0.39596219980E+01 -0.23639059564E+02  0.61784717787E+02  0.00000000000E+00 0.  1.
</event>
<event>
 8    1  0.7112384E-009  0.1226062E+03  0.7561462E-02  0.1238859E+00
         -4   -1    0    0    0  501 -0.00000000000E+00  0.00000000000E+00  0.13218830796E+03  0.13218830796E+03  0.00000000000E+00 0. -1.
          4   -1    0    0  501    0  0.00000000000E+00 -0.00000000000E+00 -0.13092263440E+03  0.13092263440E+03  0.00000000000E+00 0.  1.
         25    2    1    2    0    0 -0.71226988611E+02 -0.18234704489E+02  0.19518271466E+02  0.14640666814E+03  0.12509261049E+03 0.  0.
         23    2    1    2    0    0  0.71226988611E+02  0.18234704489E+02 -0.18252597913E+02  0.11670427422E+03  0.88774669453E+02 0.  0.
          5    1    3    3  502    0 -0.73805310833E+01 -0.55524946238E+02 -0.23359351970E+02  0.60832751198E+02  0.41800000000E+01 0. -1.
         -5    1    3    3    0  502 -0.63846457528E+02  0.37290241750E+02  0.42877623437E+02  0.85573916938E+02  0.41800000000E+01 0. -1.
        -11    1    4    4    0    0  0.88144016163E+02  0.31379429650E+02 -0.18002708091E+02  0.95279240599E+02  0.00000000000E+00 0.  1.
         11    1    4    4    0    0 -0.16917027552E+02 -0.13144725161E+02 -0.24988982240E+00  0.21425033622E+02  0.00000000000E+00 0. -1.
</event>
<event>
 8    1  0.7112384E-009  0.1529599E+03  0.7561462E-02  0.1196882E+00
          1   -1    0    0  501    0  0.00000000000E+00  0.00000000000E+00  0.29898562836E+04  0.29898562836E+04  0.00000000000E+00 0. -1.
         -1   -1    0    0    0  501 -0.00000000000E+00 -0.00000000000E+00 -0.18034751568E+02  0.18034751568E+02  0.00000000000E+00 0.  1.
         25    2    1    2    0    0 -0.13859740828E+03 -0.40978501439E+02  0.24699220017E+04  0.24773071225E+04  0.12508958975E+03 0.  0.
         23    2    1    2    0    0  0.13859740828E+03  0.40978501439E+02  0.50189953031E+03  0.53058391266E+03  0.93422003241E+02 0.  0.
          5    1    3    3  502    0 -0.74759646798E+02  0.11859338462E+02  0.50741524315E+03  0.51304712267E+03  0.41800000000E+01 0. -1.
         -5    1    3    3    0  502 -0.63837761481E+02 -0.52837839901E+02  0.19625067586E+04  0.19642599998E+04  0.41800000000E+01 0. -1.
        -11    1    4    4    0    0  0.71054589595E+02  0.35342879206E+02  0.40267321264E+03  0.41041879829E+03  0.00000000000E+00 0. -1.
         11    1    4    4    0    0  0.67542818684E+02  0.56356222328E+01  0.99226317672E+02  0.12016511437E+03  0.00000000000E+00 0.  1.
</event>
<event>
 8    1  0.7112384E-009  0.1112949E+03  0.7561462E-02  0.1258191E+00
          1   -1    0    0  501    0  0.00000000000E+00  0.00000000000E+00  0.18792862880E+02  0.18792862880E+02  0.00000000000E+00 0. -1.
         -1   -1    0    0    0  501 -0.00000000000E+00 -0.00000000000E+00 -0.70002429755E+03  0.70002429755E+03  0.00000000000E+00 0.  1.
         25    2    1    2    0    0  0.67353365056E+01 -0.33445857708E+02 -0.43219300435E+03  0.45122291188E+03  0.12508930028E+03 0.  0.
         23    2    1    2    0    0 -0.67353365056E+01  0.33445857708E+02 -0.24903843032E+03  0.26759424855E+03  0.91774462263E+02 0.  0.
          5    1    3    3  502    0  0.13797881453E+02  0.46588962525E+02 -0.14555265517E+03  0.15350557250E+03  0.41800000000E+01 0.  1.
         -5    1    3    3    0  502 -0.70625449476E+01 -0.80034820233E+02 -0.28664034918E+03  0.29771733938E+03  0.41800000000E+01 0.  1.
        -11    1    4    4    0    0 -0.46809951894E+02  0.21777970061E+02 -0.17659459241E+03  0.18398668877E+03  0.00000000000E+00 0. -1.
         11    1    4    4    0    0  0.40074615388E+02  0.11667887647E+02 -0.72443837907E+02  0.83607559774E+02  0.00000000000E+00 0.  1.
</event>
<event>
 8    1  0.7112384E-009  0.1233126E+03  0.7561462E-02  0.1237730E+00
          4   -1    0    0  501    0  0.00000000000E+00  0.00000000000E+00  0.44002211406E+02  0.44002211406E+02  0.00000000000E+00 0. -1.
         -4   -1    0    0    0  501 -0.00000000000E+00 -0.00000000000E+00 -0.41034223354E+03  0.41034223354E+03  0.00000000000E+00 0.  1.
         25    2    1    2    0    0  0.24497586655E+02  0.69213423808E+02 -0.15399199254E+03  0.21154839065E+03  0.12509419664E+03 0.  0.
         23    2    1    2    0    0 -0.24497586655E+02 -0.69213423808E+02 -0.21234802959E+03  0.24279605429E+03  0.92019609438E+02 0.  0.
          5    1    3    3  502    0  0.31477715878E+02  0.98897631655E+02 -0.79042200001E+02  0.13052482494E+03  0.41800000000E+01 0. -1.
         -5    1    3    3    0  502 -0.69801292225E+01 -0.29684207847E+02 -0.74949792542E+02  0.81023565717E+02  0.41800000000E+01 0. -1.
        -11    1    4    4    0    0 -0.55387288708E+02 -0.33388318301E+02 -0.84023422815E+02  0.10603050095E+03  0.00000000000E+00 0. -1.
         11    1    4    4    0    0  0.30889702053E+02 -0.35825105507E+02 -0.12832460678E+03  0.13676555335E+03  0.00000000000E+00 0.  1.
</event>
<event>
 8    1  0.7112384E-009  0.1182833E+03  0.7561462E-02  0.1245956E+00
         -1   -1    0    0    0  501 -0.00000000000E+00  0.00000000000E+00  0.13808282027E+03  0.13808282027E+03  0.00000000000E+00 0.  1.
          1   -1    0    0  501    0  0.00000000000E+00 -0.00000000000E+00 -0.11078002014E+03  0.11078002014E+03  0.00000000000E+00 0. -1.
         25    2    1    2    0    0 -0.57386131088E+02 -0.88643169247E+01  0.28434907166E+02  0.14081767316E+03  0.12509727804E+03 0.  0.
         23    2    1    2    0    0  0.57386131088E+02  0.88643169247E+01 -0.11321070445E+01  0.10804516725E+03  0.91108354967E+02 0.  0.
          5    1    3    3  502    0 -0.29298955384E+02 -0.63596446581E+02  0.35740906614E+02  0.78726244734E+02  0.41800000000E+01 0.  1.
         -5    1    3    3    0  502 -0.28087175703E+02  0.54732129656E+02 -0.73059994482E+01  0.62091428423E+02  0.41800000000E+01 0.  1.
        -11    1    4    4    0    0 -0.10912158330E+02 -0.25913904245E+02 -0.12119460363E+02  0.30618408713E+02  0.00000000000E+00 0.  1.
         11    1    4    4    0    0  0.68298289418E+02  0.34778221170E+02  0.10987353319E+02  0.77426758541E+02  0.00000000000E+00 0. -1.
</event>
<event>
 8    1  0.7112384E-009  0.8927374E+02  0.7561462E-02  0.1304620E+00
          1   -1    0    0  501    0  0.00000000000E+00  0.00000000000E+00  0.36813320950E+02  0.36813320950E+02  0.00000000000E+00 0. -1.
         -1   -1    0    0    0  501 -0.00000000000E+00 -0.00000000000E+00 -0.36834619827E+03  0.36834619827E+03  0.00000000000E+00 0.  1.
         25    2    1    2    0    0 -0.29720695129E+02  0.27966100992E+02 -0.17242883718E+03  0.21690007322E+03  0.12509402603E+03 0.  0.
         23    2    1    2    0    0  0.29720695129E+02 -0.27966100992E+02 -0.15910404014E+03  0.18825944600E+03  0.91989678204E+02 0.  0.
          5    1    3    3  502    0  0.29285986056E+02 -0.87106862695E+01 -0.13377791584E+03  0.13728637296E+03  0.41800000000E+01 0.  1.
         -5    1    3    3    0  502 -0.59006681185E+02  0.36676787262E+02 -0.38650921340E+02  0.79613700258E+02  0.41800000000E+01 0.  1.
        -11    1    4    4    0    0  0.19987939380E+02 -0.50093254861E+02 -0.15451137912E+03  0.16365395865E+03  0.00000000000E+00 0.  1.
         11    1    4    4    0    0  0.97327557487E+01  0.22127153869E+02 -0.45926610230E+01  0.24605487357E+02  0.00000000000E+00 0. -1.
</event>
<event>
 8    1  0.7112384E-009  0.1253617E+03  0.7561462E-02  0.1234505E+00
          1   -1    0    0  501    0  0.00000000000E+00  0.00000000000E+00  0.10275342063E+03  0.10275342063E+03  0.00000000000E+00 0. -1.
         -1   -1    0    0    0  501 -0.00000000000E+00 -0.00000000000E+00 -0.15728563043E+03  0.15728563043E+03  0.00000000000E+00 0.  1.
         25    2    1    2    0    0  0.26543451745E+02  0.63761527645E+02 -0.50811255999E+02  0.15165529229E+03  0.12508979456E+03 0.  0.
         23    2    1    2    0    0 -0.26543451745E+02 -0.63761527645E+02 -0.37209538080E+01  0.10838375877E+03  0.83445230122E+02 0.  0.
          5    1    3    3  502    0  0.72398669915E+02  0.12644391340E+02 -0.32458213675E+02  0.80451575950E+02  0.41800000000E+01 0. -1.
         -5    1    3    3    0  502 -0.45855218170E+02  0.51117136306E+02 -0.18353042324E+02  0.71203716336E+02  0.41800000000E+01 0. -1.
        -11    1    4    4    0    0  0.29247748172E+02 -0.10208564291E+02 -0.16416433992E+01  0.31021614256E+02  0.00000000000E+00 0. -1.
         11    1    4    4    0    0 -0.55791199917E+02 -0.53552963354E+02 -0.20793104088E+01  0.77362144515E+02  0.00000000000E+00 0.  1.
</event>
<event>
 8    1  0.7112384E-009  0.1824160E+03  0.7561462E-02  0.1165485E+00
          1   -1    0    0  501    0  0.00000000000E+00  0.00000000000E+00  0.15423964611E+03  0.15423964611E+03  0.00000000000E+00 0. -1.
         -1   -1    0    0    0  501 -0.00000000000E+00 -0.00000000000E+00 -0.36524357760E+03  0.36524357760E+03  0.00000000000E+00 0.  1.
         25    2    1    2    0    0  0.14193393693E+02 -0.14911700457E+03 -0.27003806901E+03  0.33316878081E+03  0.12507415527E+03 0.  0.
         23    2    1    2    0    0 -0.14193393693E+02  0.14911700457E+03  0.59034137521E+02  0.18631444290E+03  0.93758779651E+02 0.  0.
          5    1    3    3  502    0  0.49573821620E+02 -0.11118147258E+02 -0.53162232641E+02  0.73653732884E+02  0.41800000000E+01 0. -1.
         -5    1    3    3    0  502 -0.35380427927E+02 -0.13799885732E+03 -0.21687583637E+03  0.25951504793E+03  0.41800000000E+01 0. -1.
        -11    1    4    4    0    0  0.18524740114E+02 -0.14543165692E+00  0.22604235443E+02  0.29225649806E+02  0.00000000000E+00 0. -1.
         11    1    4    4    0    0 -0.32718133807E+02  0.14926243623E+03  0.36429902078E+02  0.15708879309E+03  0.00000000000E+00 0.  1.
</event>
<event>
 8    1  0.7112384E-009  0.1094253E+03  0.7561462E-02  0.1261638E+00
          1   -1    0    0  501    0  0.00000000000E+00  0.00000000000E+00  0.28614046199E+03  0.28614046199E+03  0.00000000000E+00 0. -1.
         -1   -1    0    0    0  501 -0.00000000000E+00 -0.00000000000E+00 -0.77370556103E+02  0.77370556103E+02  0.00000000000E+00 0.  1.
         25    2    1    2    0    0 -0.67043030002E+02  0.44275543169E+02  0.18502260012E+03  0.23735286091E+03  0.12509167212E+03 0.  0.
         23    2    1    2    0    0  0.67043030002E+02 -0.44275543169E+02  0.23747305770E+02  0.12615815718E+03  0.94323138715E+02 0.  0.
          5    1    3    3  502    0 -0.28259105029E+02 -0.16354490125E+02 -0.57470861578E+01  0.33414783608E+02  0.41800000000E+01 0. -1.
         -5    1    3    3    0  502 -0.38783924973E+02  0.60630033294E+02  0.19076968627E+03  0.20393807730E+03  0.41800000000E+01 0. -1.
        -11    1    4    4    0    0  0.50631617220E+02 -0.68130267811E+02 -0.54231780656E+01  0.85057068576E+02  0.00000000000E+00 0.  1.
         11    1    4    4    0    0  0.16411412782E+02  0.23854724642E+02  0.29170483836E+02  0.41101088604E+02  0.00000000000E+00 0. -1.
</event>
<event>
 8    1  0.7112384E-009  0.1387055E+03  0.7561462E-02  0.1215081E+00
          1   -1    0    0  501    0  0.00000000000E+00  0.00000000000E+00  0.85257206656E+02  0.85257206656E+02  0.00000000000E+00 0. -1.
         -1   -1    0    0    0  501 -0.00000000000E+00 -0.00000000000E+00 -0.27360085639E+03  0.27360085639E+03  0.00000000000E+00 0.  1.
         25    2    1    2    0    0  0.36250033520E+02 -0.93299289546E+02 -0.14780944414E+03  0.21797596407E+03  0.12508823596E+03 0.  0.
         23    2    1    2    0    0 -0.36250033520E+02  0.93299289546E+02 -0.40534205595E+02  0.14088209898E+03  0.90476083192E+02 0.  0.
          5    1    3    3  502    0 -0.31369774658E+02 -0.84800446673E+02 -0.69769126310E+02  0.11428202791E+03  0.41800000000E+01 0.  1.
         -5    1    3    3    0  502  0.67619808177E+02 -0.84988428734E+01 -0.78040317835E+02  0.10369393616E+03  0.41800000000E+01 0.  1.
        -11    1    4    4    0    0 -0.52551140507E+01  0.86787295485E+02  0.30569855161E+01  0.86999977251E+02  0.00000000000E+00 0. -1.
         11    1    4    4    0    0 -0.30994919469E+02  0.65119940615E+01 -0.43591191111E+02  0.53882121729E+02  0.00000000000E+00 0.  1.
</event>
<event>
 8    1  0.7112384E-009  0.1850136E+03  0.7561462E-02  0.1163037E+00
          1   -1    0    0  501    0  0.00000000000E+00  0.00000000000E+00  0.12090183072E+03  0.12090183072E+03  0.00000000000E+00 0. -1.
         -1   -1    0    0    0  501 -0.00000000000E+00 -0.00000000000E+00 -0.53689155796E+03  0.53689155796E+03  0.00000000000E+00 0.  1.
         25    2    1    2    0    0 -0.15741994642E+03  0.16044990437E+02  0.21937003484E+01  0.20172020262E+03  0.12509095322E+03 0.  0.
         23    2    1    2    0    0  0.15741994642E+03 -0.16044990437E+02 -0.41818342758E+03  0.45607318606E+03  0.89927141008E+02 0.  0.
          5    1    3    3  502    0 -0.78956352371E+02  0.68497828315E+02  0.17343753870E+02  0.10603931470E+03  0.41800000000E+01 0. -1.
         -5    1    3    3    0  502 -0.78463594047E+02 -0.52452837878E+02 -0.15150053522E+02  0.95680887924E+02  0.41800000000E+01 0. -1.
        -11    1    4    4    0    0  0.12593065305E+03 -0.39160716269E+02 -0.37658317630E+03  0.39900749335E+03  0.00000000000E+00 0. -1.
         11    1    4    4    0    0  0.31489293372E+02  0.23115725831E+02 -0.41600251274E+02  0.57065692705E+02  0.00000000000E+00 0.  1.
</event>
<event>
 8    1  0.7112384E-009  0.1340959E+03  0.7561462E-02  0.1221502E+00
          1   -1    0    0  501    0  0.00000000000E+00  0.00000000000E+00  0.28345459117E+03  0.28345459117E+03  0.00000000000E+00 0. -1.
         -1   -1    0    0    0  501 -0.00000000000E+00 -0.00000000000E+00 -0.64431829005E+02  0.64431829005E+02  0.00000000000E+00 0.  1.
         25    2    1    2    0    0 -0.66216701786E+02 -0.42815025549E+02  0.10067284729E+03  0.17888634883E+03  0.12509006998E+03 0.  0.
         23    2    1    2    0    0  0.66216701786E+02  0.42815025549E+02  0.11834991487E+03  0.16900007135E+03  0.91304675442E+02 0.  0.
          5    1    3    3  502    0  0.22568221840E+02 -0.53466359274E+02  0.35548308406E+02  0.68184535208E+02  0.41800000000E+01 0. -1.
         -5    1    3    3    0  502 -0.88784923625E+02  0.10651333725E+02  0.65124538889E+02  0.11070181362E+03  0.41800000000E+01 0. -1.
        -11    1    4    4    0    0 -0.18365676152E+02  0.29664222992E+02  0.38198409227E+02  0.51733767055E+02  0.00000000000E+00 0. -1.
         11    1    4    4    0    0  0.84582377938E+02  0.13150802557E+02  0.80151505647E+02  0.11726630430E+03  0.00000000000E+00 0.  1.
</event>
<event>
 8    1  0.7112384E-009  0.1077287E+03  0.7561462E-02  0.1264835E+00
         -1   -1    0    0    0  501 -0.00000000000E+00  0.00000000000E+00  0.60937564129E+02  0.60937564129E+02  0.00000000000E+00 0.  1.
          1   -1    0    0  501    0  0.00000000000E+00 -0.00000000000E+00 -0.22264698491E+03  0.22264698491E+03  0.00000000000E+00 0. -1.
         25    2    1    2    0    0 -0.16745687995E+02 -0.38731625205E+02 -0.10320183182E+03  0.16756983617E+03  0.12509386494E+03 0.  0.
         23    2    1    2    0    0  0.16745687995E+02  0.38731625205E+02 -0.58507588962E+02  0.11601471287E+03  0.90860986010E+02 0.  0.
          5    1    3    3  502    0  0.11822219648E+01  0.43079952374E+02 -0.57774563410E+02  0.72198701668E+02  0.41800000000E+01 0. -1.
         -5    1    3    3    0  502 -0.17927909960E+02 -0.81811577578E+02 -0.45427268412E+02  0.95371134505E+02  0.41800000000E+01 0. -1.
        -11    1    4    4    0    0  0.44921418968E+02  0.39927131755E+02 -0.63436742758E+02  0.87386097658E+02  0.00000000000E+00 0.  1.
         11    1    4    4    0    0 -0.28175730973E+02 -0.11955065499E+01  0.49291537959E+01  0.28628615211E+02  0.00000000000E+00 0. -1.
</event>
<event>
 8    1  0.7112384E-009  0.1031178E+03  0.7561462E-02  0.1273873E+00
          1   -1    0    0  501    0  0.00000000000E+00  0.00000000000E+00  0.42655992088E+02  0.42655992088E+02  0.00000000000E+00 0. -1.
         -1   -1    0    0    0  501 -0.00000000000E+00 -0.00000000000E+00 -0.30421600711E+03  0.30421600711E+03  0.00000000000E+00 0.  1.
         25    2    1    2    0    0 -0.28044973834E+02  0.12839212672E+02 -0.12477216659E+03  0.17934791900E+03  0.12508483743E+03 0.  0.
         23    2    1    2    0    0  0.28044973834E+02 -0.12839212672E+02 -0.13678784844E+03  0.16752408020E+03  0.91662620667E+02 0.  0.
          5    1    3    3  502    0  0.69965907714E+01 -0.45350971957E+02 -0.11970703052E+02  0.47607069553E+02  0.41800000000E+01 0.  1.
         -5    1    3    3    0  502 -0.35041564606E+02  0.58190184629E+02 -0.11280146353E+03  0.13174084944E+03  0.41800000000E+01 0.  1.
        -11    1    4    4    0    0  0.47638488975E+02  0.21735356963E+02 -0.10222803534E+03  0.11485827173E+03  0.00000000000E+00 0.  1.
         11    1    4    4    0    0 -0.19593515141E+02 -0.34574569636E+02 -0.34559813096E+02  0.52665808475E+02  0.00000000000E+00 0. -1.
</event>
<event>
 8    1  0.7112384E-009  0.2268568E+03  0.7561462E-02  0.1128872E+00
         -2   -1    0    0    0  501 -0.00000000000E+00  0.00000000000E+00  0.11598935320E+03  0.11598935320E+03  0.00000000000E+00 0.  1.
          2   -1    0    0  501    0  0.00000000000E+00 -0.00000000000E+00 -0.51671347314E+03  0.51671347314E+03  0.00000000000E+00 0. -1.
         25    2    1    2    0    0 -0.21083505478E+02  0.21550419945E+03 -0.16113385976E+03  0.29748611128E+03  0.12508913404E+03 0.  0.
         23    2    1    2    0    0  0.21083505478E+02 -0.21550419945E+03 -0.23959026017E+03  0.33521671507E+03  0.89889816474E+02 0.  0.
          5    1    3    3  502    0 -0.37698919026E+02  0.53044883571E+02  0.38300216095E+01  0.65323117151E+02  0.41800000000E+01 0. -1.
         -5    1    3    3    0  502  0.16615413548E+02  0.16245931588E+03 -0.16496388137E+03  0.23216299412E+03  0.41800000000E+01 0. -1.
        -11    1    4    4    0    0 -0.21456352991E+02 -0.93643111541E+02 -0.57309994880E+02  0.11186528924E+03  0.00000000000E+00 0.  1.
         11    1    4    4    0    0  0.42539858469E+02 -0.12186108791E+03 -0.18228026529E+03  0.22335142583E+03  0.00000000000E+00 0. -1.
</event>
<event>
 8    1  0.7112384E-009  0.1051273E+03  0.7561462E-02  0.1269869E+00
         -2   -1    0    0    0  501 -0.00000000000E+00  0.00000000000E+00  0.36921206463E+02  0.36921206463E+02  0.00000000000E+00 0.  1.
          2   -1    0    0  501    0  0.00000000000E+00 -0.00000000000E+00 -0.62827388212E+03  0.62827388212E+03  0.00000000000E+00 0. -1.
         25    2    1    2    0    0 -0.79162930789E+02 -0.66043824790E+02 -0.38433802511E+03  0.41712243393E+03  0.12508737322E+03 0.  0.
         23    2    1    2    0    0  0.79162930789E+02  0.66043824790E+02 -0.20701465055E+03  0.24807265465E+03  0.89757562582E+02 0.  0.
          5    1    3    3  502    0 -0.54013379593E+02 -0.34036734404E+02 -0.52476951965E+02  0.82748095757E+02  0.41800000000E+01 0.  1.
         -5    1    3    3    0  502 -0.25149551196E+02 -0.32007090386E+02 -0.33186107315E+03  0.33437433817E+03  0.41800000000E+01 0.  1.
        -11    1    4    4    0    0  0.63594361064E+02  0.40358317755E+02 -0.55369477543E+02  0.93481632498E+02  0.00000000000E+00 0.  1.
         11    1    4    4    0    0  0.15568569726E+02  0.25685507035E+02 -0.15164517301E+03  0.15459102215E+03  0.00000000000E+00 0. -1.
</event>
<event>
 8    1  0.7112384E-009  0.1046161E+03  0.7561462E-02  0.1270878E+00
          2   -1    0    0  501    0  0.00000000000E+00  0.00000000000E+00  0.85358071379E+03  0.85358071379E+03  0.00000000000E+00 0. -1.
         -2   -1    0    0    0  501 -0.00000000000E+00 -0.00000000000E+00 -0.15894426170E+02  0.15894426170E+02  0.00000000000E+00 0.  1.
         25    2    1    2    0    0  0.20236598611E+02  0.36136407180E+02  0.52586968434E+03  0.54212597035E+03  0.12508510293E+03 0.  0.
         23    2    1    2    0    0 -0.20236598611E+02 -0.36136407180E+02  0.31181660327E+03  0.32734916960E+03  0.90622982271E+02 0.  0.
          5    1    3    3  502    0 -0.39128061396E+00  0.78031282261E+02  0.23901537175E+03  0.25146541402E+03  0.41800000000E+01 0.  1.
         -5    1    3    3    0  502  0.20627879225E+02 -0.41894875081E+02  0.28685431259E+03  0.29066055634E+03  0.41800000000E+01 0.  1.
        -11    1    4    4    0    0 -0.81180352992E+01  0.22712578821E+02  0.26745798143E+02  0.36015294697E+02  0.00000000000E+00 0.  1.
         11    1    4    4    0    0 -0.12118563312E+02 -0.58848986001E+02  0.28507080513E+03  0.29133387491E+03  0.00000000000E+00 0. -1.
</event>
<event>
 8    1  0.7112384E-009  0.1333273E+03  0.7561462E-02  0.1222600E+00
         -1   -1    0    0    0  501 -0.00000000000E+00  0.00000000000E+00  0.19101078200E+03  0.19101078200E+03  0.00000000000E+00 0.  1.
          1   -1    0    0  501    0  0.00000000000E+00 -0.00000000000E+00 -0.11597009315E+03  0.11597009315E+03  0.00000000000E+00 0. -1.
         25    2    1    2    0    0  0.77317789061E+02 -0.38870442023E+02  0.97660976001E+02  0.18076252004E+03  0.12509384737E+03 0.  0.
         23    2    1    2    0    0 -0.77317789061E+02  0.38870442023E+02 -0.22620287147E+02  0.12621835511E+03  0.89053040415E+02 0.  0.
          5    1    3    3  502    0  0.78365995453E+02 -0.73541135372E+02  0.42867642921E+02  0.11577838764E+03  0.41800000000E+01 0. -1.
         -5    1    3    3    0  502 -0.10482063923E+01  0.34670693349E+02  0.54793333080E+02  0.64984132401E+02  0.41800000000E+01 0. -1.
        -11    1    4    4    0    0 -0.85913401663E+02  0.16104186290E+01 -0.16303400145E+02  0.87461459453E+02  0.00000000000E+00 0.  1.
         11    1    4    4    0    0  0.85956126020E+01  0.37260023394E+02 -0.63168870015E+01  0.38756895654E+02  0.00000000000E+00 0. -1.
</event>
<event>
 8    1  0.7112384E-009  0.1176461E+03  0.7561462E-02  0.1247032E+00
          3   -1    0    0  501    0  0.00000000000E+00  0.00000000000E+00  0.69841628689E+02  0.69841628689E+02  0.00000000000E+00 0. -1.
         -3   -1    0    0    0  501 -0.00000000000E+00 -0.00000000000E+00 -0.26524850771E+03  0.26524850771E+03  0.00000000000E+00 0.  1.
         25    2    1    2    0    0 -0.53563632709E+02  0.29237030186E+02 -0.40228269644E+02  0.14487693070E+03  0.12508854738E+03 0.  0.
         23    2    1    2    0    0  0.53563632709E+02 -0.29237030186E+02 -0.15517860938E+03  0.19021320571E+03  0.91524838880E+02 0.  0.
          5    1    3    3  502    0 -0.70279245127E+02 -0.22864192019E+02 -0.49739960984E+02  0.89182283504E+02  0.41800000000E+01 0.  1.
         -5    1    3    3    0  502  0.16715612418E+02  0.52101222205E+02  0.95116913408E+01  0.55694647193E+02  0.41800000000E+01 0.  1.
        -11    1    4    4    0    0 -0.82255134205E+01  0.23663088683E+02 -0.18427365525E+02  0.31099334997E+02  0.00000000000E+00 0. -1.
         11    1    4    4    0    0  0.61789146130E+02 -0.52900118868E+02 -0.13675124386E+03  0.15911387071E+03  0.00000000000E+00 0.  1.
</event>
<event>
 8    1  0.7112384E-009  0.2480289E+03  0.7561462E-02  0.1114557E+00
          2   -1    0    0  501    0  0.00000000000E+00  0.00000000000E+00  0.41335747316E+03  0.41335747316E+03  0.00000000000E+00 0. -1.
         -2   -1    0    0    0  501 -0.00000000000E+00 -0.00000000000E+00 -0.15386651062E+03  0.15386651062E+03  0.00000000000E+00 0.  1.
         25    2    1    2    0    0  0.13548535899E+03  0.18186647211E+03  0.15344587416E+03  0.30103956307E+03  0.12508991191E+03 0.  0.
         23    2    1    2    0    0 -0.13548535899E+03 -0.18186647211E+03  0.10604508838E+03  0.26618442070E+03  0.90426151499E+02 0.  0.
          5    1    3    3  502    0  0.15613699869E+03  0.16879850763E+03  0.11998723642E+03  0.25939565887E+03  0.41800000000E+01 0. -1.
         -5    1    3    3    0  502 -0.20651639701E+02  0.13067964486E+02  0.33458637738E+02  0.41643904205E+02  0.41800000000E+01 0. -1.
        -11    1    4    4    0    0 -0.69811803719E+02 -0.30298547153E+02  0.52818819229E+02  0.92636480734E+02  0.00000000000E+00 0.  1.
         11    1    4    4    0    0 -0.65673555267E+02 -0.15156792496E+03  0.53226269152E+02  0.17354793997E+03  0.00000000000E+00 0. -1.
</event>
<event>
 8    1  0.7112384E-009  0.2404341E+03  0.7561462E-02  0.1119504E+00
          1   -1    0    0  501    0  0.00000000000E+00  0.00000000000E+00  0.69205995095E+02  0.69205995095E+02  0.00000000000E+00 0. -1.
         -1   -1    0    0    0  501 -0.00000000000E+00 -0.00000000000E+00 -0.99707935524E+03  0.99707935524E+03  0.00000000000E+00 0.  1.
         25    2    1    2    0    0 -0.23444827467E+03 -0.24648778463E+02 -0.40200572960E+03  0.48252496217E+03  0.12509267251E+03 0.  0.
         23    2    1    2    0    0  0.23444827467E+03  0.24648778463E+02 -0.52586763054E+03  0.58376038816E+03  0.93090655599E+02 0.  0.
          5    1    3    3  502    0 -0.12541435556E+03 -0.42048923487E+02 -0.31571161635E+03  0.34232757652E+03  0.41800000000E+01 0.  1.
         -5    1    3    3    0  502 -0.10903391911E+03  0.17400145024E+02 -0.86294113252E+02  0.14019738566E+03  0.41800000000E+01 0.  1.
        -11    1    4    4    0    0  0.17981996733E+03  0.32842075409E+02 -0.30057195708E+03  0.35179159165E+03  0.00000000000E+00 0. -1.
         11    1    4    4    0    0  0.54628307335E+02 -0.81932969461E+01 -0.22529567346E+03  0.23196879651E+03  0.00000000000E+00 0.  1.
</event>
<event>
 8    1  0.7112384E-009  0.1730008E+03  0.7561462E-02  0.1174754E+00
         -2   -1    0    0    0  501 -0.00000000000E+00  0.00000000000E+00  0.37816840531E+02  0.37816840531E+02  0.00000000000E+00 0.  1.
          2   -1    0    0  501    0  0.00000000000E+00 -0.00000000000E+00 -0.95240791916E+03  0.95240791916E+03  0.00000000000E+00 0. -1.
         25    2    1    2    0    0 -0.14531891939E+03  0.46249559579E+02 -0.55709739198E+03  0.59098570959E+03  0.12509993883E+03 0.  0.
         23    2    1    2    0    0  0.14531891939E+03 -0.46249559579E+02 -0.35749368665E+03  0.39923905010E+03  0.91287858112E+02 0.  0.
          5    1    3    3  502    0 -0.16240180710E+03  0.38978174486E+02 -0.54051096923E+03  0.56574130598E+03  0.41800000000E+01 0.  1.
         -5    1    3    3    0  502  0.17082887715E+02  0.72713850933E+01 -0.16586422748E+02  0.25244403606E+02  0.41800000000E+01 0.  1.
        -11    1    4    4    0    0  0.35257246744E+02  0.95199112522E+01 -0.17618127922E+03  0.17992649973E+03  0.00000000000E+00 0.  1.
         11    1    4    4    0    0  0.11006167264E+03 -0.55769470831E+02 -0.18131240743E+03  0.21931255037E+03  0.00000000000E+00 0. -1.
</event>
<event>
 8    1  0.7112384E-009  0.2886222E+03  0.7561462E-02  0.1091071E+00
          2   -1    0    0  501    0  0.00000000000E+00  0.00000000000E+00  0.59357827614E+03  0.59357827614E+03  0.00000000000E+00 0. -1.
         -2   -1    0    0    0  501 -0.00000000000E+00 -0.00000000000E+00 -0.25171644698E+03  0.25171644698E+03  0.00000000000E+00 0.  1.
         25    2    1    2    0    0 -0.24540126920E+03  0.13383066800E+03 -0.91815540142E+02  0.31970263678E+03  0.12508897605E+03 0.  0.
         23    2    1    2    0    0  0.24540126920E+03 -0.13383066800E+03  0.43367736930E+03  0.52559208634E+03  0.10019256440E+03 0.  0.
          5    1    3    3  502    0 -0.14573048474E+03  0.11043749796E+03 -0.11311259222E+03  0.21504824124E+03  0.41800000000E+01 0. -1.
         -5    1    3    3    0  502 -0.99670784457E+02  0.23393170036E+02  0.21297052081E+02  0.10465439554E+03  0.41800000000E+01 0. -1.
        -11    1    4    4    0    0  0.10215502111E+03 -0.10199258397E+02  0.20088431796E+03  0.22559739009E+03  0.00000000000E+00 0.  1.
         11    1    4    4    0    0  0.14324624809E+03 -0.12363140960E+03  0.23279305133E+03  0.29999469625E+03  0.00000000000E+00 0. -1.
</event>
<event>
 8    1  0.7112384E-009  0.1888409E+03  0.7561462E-02  0.1159511E+00
          1   -1    0    0  501    0  0.00000000000E+00  0.00000000000E+00  0.78171416554E+03  0.78171416554E+03  0.00000000000E+00 0. -1.
         -1   -1    0    0    0  501 -0.00000000000E+00 -0.00000000000E+00 -0.56644151880E+02  0.56644151880E+02  0.00000000000E+00 0.  1.
         25    2    1    2    0    0  0.17670263320E+03 -0.34837707684E+02  0.36563300089E+03  0.42634733209E+03  0.12508824799E+03 0.  0.
         23    2    1    2    0    0 -0.17670263320E+03  0.34837707684E+02  0.35943701277E+03  0.41201098533E+03  0.90114368592E+02 0.  0.
          5    1    3    3  502    0  0.50198552123E+02 -0.14177591503E+02  0.24415323111E+03  0.24969816058E+03  0.41800000000E+01 0.  1.
         -5    1    3    3    0  502  0.12650408108E+03 -0.20660116181E+02  0.12147976978E+03  0.17664917151E+03  0.41800000000E+01 0.  1.
        -11    1    4    4    0    0 -0.18083195423E+03  0.20272291349E+02  0.34910509402E+03  0.39368201399E+03  0.00000000000E+00 0. -1.
         11    1    4    4    0    0  0.41293210354E+01  0.14565416335E+02  0.10331918746E+02  0.18328971335E+02  0.00000000000E+00 0.  1.
</event>
<event>
 8    1  0.7112384E-009  0.1368723E+03  0.7561462E-02  0.1217601E+00
         -2   -1    0    0    0  501 -0.00000000000E+00  0.00000000000E+00  0.84010038897E+02  0.84010038897E+02  0.00000000000E+00 0.  1.
          2   -1    0    0  501    0  0.00000000000E+00 -0.00000000000E+00 -0.30754683195E+03  0.30754683195E+03  0.00000000000E+00 0. -1.
         25    2    1    2    0    0  0.10295089315E+02  0.11360638212E+03 -0.68246703806E+02  0.18253128715E+03  0.12509060431E+03 0.  0.
         23    2    1    2    0    0 -0.10295089315E+02 -0.11360638212E+03 -0.15529008925E+03  0.20902558370E+03  0.81020268457E+02 0.  0.
          5    1    3    3  502    0 -0.50539653254E+02  0.55438081138E+02 -0.17022964505E+01  0.75153227506E+02  0.41800000000E+01 0.  1.
         -5    1    3    3    0  502  0.60834742569E+02  0.58168300979E+02 -0.66544407355E+02  0.10737805964E+03  0.41800000000E+01 0.  1.
        -11    1    4    4    0    0 -0.10541355296E+02 -0.75674706522E+02 -0.37175441207E+02  0.84969375704E+02  0.00000000000E+00 0.  1.
         11    1    4    4    0    0  0.24626598107E+00 -0.37931675596E+02 -0.11811464804E+03  0.12405620800E+03  0.00000000000E+00 0. -1.
</event>
<event>
 8    1  0.7112384E-009  0.2326665E+03  0.7561462E-02  0.1124777E+00
          2   -1    0    0  501    0  0.00000000000E+00  0.00000000000E+00  0.92219660421E+03  0.92219660421E+03  0.00000000000E+00 0. -1.
         -2   -1    0    0    0  501 -0.00000000000E+00 -0.00000000000E+00 -0.62318162353E+02  0.62318162353E+02  0.00000000000E+00 0.  1.
         25    2    1    2    0    0 -0.18953973285E+03 -0.85148952307E+02  0.54247913751E+03  0.59422786965E+03  0.12508993577E+03 0.  0.
         23    2    1    2    0    0  0.18953973285E+03  0.85148952307E+02  0.31739930434E+03  0.39028689691E+03  0.91683635893E+02 0.  0.
          5    1    3    3  502    0  0.10918095390E+01 -0.42909579733E+02  0.61535544948E+02  0.75143328200E+02  0.41800000000E+01 0.  1.
         -5    1    3    3    0  502 -0.19063154239E+03 -0.42239372574E+02  0.48094359256E+03  0.51908454145E+03  0.41800000000E+01 0.  1.
        -11    1    4    4    0    0  0.14879209502E+03  0.20092317775E+02  0.21784719879E+03  0.26457549167E+03  0.00000000000E+00 0.  1.
         11    1    4    4    0    0  0.40747637834E+02  0.65056634531E+02  0.99552105552E+02  0.12571140523E+03  0.00000000000E+00 0. -1.
</event>
<event>
 8    1  0.7112384E-009  0.8676561E+02  0.7561462E-02  0.1310879E+00
         -2   -1    0    0    0  501 -0.00000000000E+00  0.00000000000E+00  0.15068887775E+02  0.15068887775E+02  0.00000000000E+00 0.  1.
          2   -1    0    0  501    0  0.00000000000E+00 -0.00000000000E+00 -0.80843490723E+03  0.80843490723E+03  0.00000000000E+00 0. -1.
         25    2    1    2    0    0  0.89452229673E+01  0.14675309735E+02 -0.51677775090E+03  0.53198084445E+03  0.12509593642E+03 0.  0.
         23    2    1    2    0    0 -0.89452229673E+01 -0.14675309735E+02 -0.27658826856E+03  0.29152295056E+03  0.90494080842E+02 0.  0.
          5    1    3    3  502    0  0.91092429757E+01 -0.32619896839E+02 -0.44256948012E+03  0.44388315255E+03  0.41800000000E+01 0.  1.
         -5    1    3    3    0  502 -0.16402000838E+00  0.47295206574E+02 -0.74208270772E+02  0.88097691902E+02  0.41800000000E+01 0.  1.
        -11    1    4    4    0    0 -0.24580827460E+02  0.33344351846E+02 -0.13388894499E+03  0.14015103449E+03  0.00000000000E+00 0.  1.
         11    1    4    4    0    0  0.15635604493E+02 -0.48019661581E+02 -0.14269932357E+03  0.15137191607E+03  0.00000000000E+00 0. -1.
</event>
<event>
 8    1  0.7112384E-009  0.1177038E+03  0.7561462E-02  0.1246934E+00
          1   -1    0    0  501    0  0.00000000000E+00  0.00000000000E+00  0.69845297379E+03  0.69845297379E+03  0.00000000000E+00 0. -1.
         -1   -1    0    0    0  501 -0.00000000000E+00 -0.00000000000E+00 -0.22321039435E+02  0.22321039435E+02  0.00000000000E+00 0.  1.
         25    2    1    2    0    0  0.12513085326E+02  0.60516743713E+02  0.40529278147E+03  0.42863572749E+03  0.12508994600E+03 0.  0.
         23    2    1    2    0    0 -0.12513085326E+02 -0.60516743713E+02  0.27083915288E+03  0.29213828573E+03  0.90399544717E+02 0.  0.
          5    1    3    3  502    0  0.75825455921E+01 -0.33844192977E+02  0.19427172032E+03  0.19738768481E+03  0.41800000000E+01 0. -1.
         -5    1    3    3    0  502  0.49305397344E+01  0.94360936690E+02  0.21102106115E+03  0.23124804268E+03  0.41800000000E+01 0. -1.
        -11    1    4    4    0    0  0.30089674602E+02 -0.55318836654E+02  0.19597805586E+03  0.20584693484E+03  0.00000000000E+00 0. -1.
         11    1    4    4    0    0 -0.42602759929E+02 -0.51979070590E+01  0.74861097023E+02  0.86291350892E+02  0.00000000000E+00 0.  1.
</event>
<event>
 8    1  0.7112384E-009  0.1024723E+03  0.7561462E-02  0.1275181E+00
         -3   -1    0    0    0  501 -0.00000000000E+00  0.00000000000E+00  0.21931319628E+03  0.21931319628E+03  0.00000000000E+00 0.  1.
          3   -1    0    0  501    0  0.00000000000E+00 -0.00000000000E+00 -0.73531434443E+02  0.73531434443E+02  0.00000000000E+00 0. -1.
         25    2    1    2    0    0  0.33480767960E+02  0.52971116009E+02  0.99368964843E+02  0.17160702701E+03  0.12509148488E+03 0.  0.
         23    2    1    2    0    0 -0.33480767960E+02 -0.52971116009E+02  0.46412796996E+02  0.12123760372E+03  0.92830533100E+02 0.  0.
          5    1    3    3  502    0 -0.20306257261E+02 -0.32667959437E+02  0.26961622375E+02  0.47158680418E+02  0.41800000000E+01 0. -1.
         -5    1    3    3    0  502  0.53787025220E+02  0.85639075446E+02  0.72407342468E+02  0.12444834659E+03  0.41800000000E+01 0. -1.
        -11    1    4    4    0    0 -0.30024942464E+02 -0.32377930086E+02  0.74280811607E+02  0.86414503989E+02  0.00000000000E+00 0.  1.
         11    1    4    4    0    0 -0.34558254955E+01 -0.20593185923E+02 -0.27868014611E+02  0.34823099728E+02  0.00000000000E+00 0. -1.
</event>
<event>
 8    1  0.7112384E-009  0.1172780E+03  0.7561462E-02  0.1247656E+00
          1   -1    0    0  501    0  0.00000000000E+00  0.00000000000E+00  0.60591343992E+03  0.60591343992E+03  0.00000000000E+00 0. -1.
         -1   -1    0    0    0  501 -0.00000000000E+00 -0.00000000000E+00 -0.40095390887E+02  0.40095390887E+02  0.00000000000E+00 0.  1.
         25    2    1    2    0    0  0.54377401435E+02  0.80021199199E+01  0.50184930166E+03  0.52011712566E+03  0.12509263415E+03 0.  0.
         23    2    1    2    0    0 -0.54377401435E+02 -0.80021199199E+01  0.63968747367E+02  0.12589170514E+03  0.93465421807E+02 0.  0.
          5    1    3    3  502    0  0.44995694388E+02 -0.53595767043E+02  0.32756078754E+03  0.33497859736E+03  0.41800000000E+01 0.  1.
         -5    1    3    3    0  502  0.93817070466E+01  0.61597886963E+02  0.17428851413E+03  0.18513852830E+03  0.41800000000E+01 0.  1.
        -11    1    4    4    0    0 -0.77305496668E+02  0.11560706954E+01  0.65250921584E+02  0.10116896304E+03  0.00000000000E+00 0.  1.
         11    1    4    4    0    0  0.22928095234E+02 -0.91581906152E+01 -0.12821742163E+01  0.24722742103E+02  0.00000000000E+00 0. -1.
</event>
<event>
 8    1  0.7112384E-009  0.2235252E+03  0.7561462E-02  0.1131282E+00
         -2   -1    0    0    0  501 -0.00000000000E+00  0.00000000000E+00  0.83543941956E+02  0.83543941956E+02  0.00000000000E+00 0.  1.
          2   -1    0    0  501    0  0.00000000000E+00 -0.00000000000E+00 -0.75137577058E+03  0.75137577058E+03  0.00000000000E+00 0. -1.
         25    2    1    2    0    0 -0.20298840136E+03  0.68240688565E+02 -0.22206681080E+03  0.33290089500E+03  0.12509298450E+03 0.  0.
         23    2    1    2    0    0  0.20298840136E+03 -0.68240688565E+02 -0.44576501782E+03  0.50201881754E+03  0.86344423021E+02 0.  0.
          5    1    3    3  502    0 -0.14618960755E+03  0.29161555236E+02 -0.67679978711E+02  0.16376766952E+03  0.41800000000E+01 0.  1.
         -5    1    3    3    0  502 -0.56798793802E+02  0.39079133329E+02 -0.15438683209E+03  0.16913322548E+03  0.41800000000E+01 0.  1.
        -11    1    4    4    0    0  0.11527176687E+03 -0.80053439434E+02 -0.23993305547E+03  0.27796403456E+03  0.00000000000E+00 0.  1.
         11    1    4    4    0    0  0.87716634489E+02  0.11812750870E+02 -0.20583196235E+03  0.22405478297E+03  0.00000000000E+00 0. -1.
</event>
<event>
 8    1  0.7112384E-009  0.3376427E+03  0.7561462E-02  0.1067804E+00
          3   -1    0    0  501    0  0.00000000000E+00  0.00000000000E+00  0.57335279526E+03  0.57335279526E+03  0.00000000000E+00 0. -1.
         -3   -1    0    0    0  501 -0.00000000000E+00 -0.00000000000E+00 -0.21555433329E+03  0.21555433329E+03  0.00000000000E+00 0.  1.
         25    2    1    2    0    0 -0.31350521415E+03  0.11479921469E+03  0.16357680545E+03  0.39226142692E+03  0.12508907534E+03 0.  0.
         23    2    1    2    0    0  0.31350521415E+03 -0.11479921469E+03  0.19422165652E+03  0.39664570163E+03  0.90229605788E+02 0.  0.
          5    1    3    3  502    0 -0.20438069034E+03  0.80355621917E+02  0.16973323239E+03  0.27758842759E+03  0.41800000000E+01 0. -1.
         -5    1    3    3    0  502 -0.10912452382E+03  0.34443592777E+02 -0.61564269352E+01  0.11467299933E+03  0.41800000000E+01 0. -1.
        -11    1    4    4    0    0  0.13161128695E+03 -0.85355512825E+02  0.12204900152E+03  0.19875375014E+03  0.00000000000E+00 0. -1.
         11    1    4    4    0    0  0.18189392720E+03 -0.29443701868E+02  0.72172654998E+02  0.19789195148E+03  0.00000000000E+00 0.  1.
</event>
<event>
 8    1  0.7112384E-009  0.1143533E+03  0.7561462E-02  0.1252714E+00
          2   -1    0    0  501    0  0.00000000000E+00  0.00000000000E+00  0.11170576953E+03  0.11170576953E+03  0.00000000000E+00 0. -1.
         -2   -1    0    0    0  501 -0.00000000000E+00 -0.00000000000E+00 -0.17601843474E+03  0.17601843474E+03  0.00000000000E+00 0.  1.
         25    2    1    2    0    0 -0.82169831799E+01  0.81221428182E+02 -0.55766566739E+02  0.15944269187E+03  0.12509045854E+03 0.  0.
         23    2    1    2    0    0  0.82169831799E+01 -0.81221428182E+02 -0.85460984671E+01  0.12828151240E+03  0.98583322206E+02 0.  0.
          5    1    3    3  502    0 -0.24737143944E+02 -0.24894001349E+02  0.54434232793E+01  0.35759486163E+02  0.41800000000E+01 0.  1.
         -5    1    3    3    0  502  0.16520160764E+02  0.10611542953E+03 -0.61209990018E+02  0.12368320571E+03  0.41800000000E+01 0.  1.
        -11    1    4    4    0    0 -0.90287230222E+01 -0.43282750161E+02  0.43216884540E+02  0.61827286939E+02  0.00000000000E+00 0. -1.
         11    1    4    4    0    0  0.17245706202E+02 -0.37938678021E+02 -0.51762983007E+02  0.66454225465E+02  0.00000000000E+00 0.  1.
</event>
<event>
 8    1  0.7112384E-009  0.1935961E+03  0.7561462E-02  0.1155257E+00
          1   -1    0    0  501    0  0.00000000000E+00  0.00000000000E+00  0.20807496487E+04  0.20807496487E+04  0.00000000000E+00 0. -1.
         -1   -1    0    0    0  501 -0.00000000000E+00 -0.00000000000E+00 -0.21052559605E+02  0.21052559605E+02  0.00000000000E+00 0.  1.
         25    2    1    2    0    0  0.36623090660E+01  0.17696442963E+03  0.11979556825E+04  0.12174053321E+04  0.12509237966E+03 0.  0.
         23    2    1    2    0    0 -0.36623090660E+01 -0.17696442963E+03  0.86174140651E+03  0.88439687616E+03  0.90718030163E+02 0.  0.
          5    1    3    3  502    0 -0.24531035927E+02  0.13864401562E+03  0.10936788050E+04  0.11027124447E+04  0.41800000000E+01 0.  1.
         -5    1    3    3    0  502  0.28193344993E+02  0.38320414004E+02  0.10427687752E+03  0.11469288738E+03  0.41800000000E+01 0.  1.
        -11    1    4    4    0    0 -0.46723702740E+02 -0.83954305199E+02  0.44209203939E+03  0.45241220259E+03  0.00000000000E+00 0. -1.
         11    1    4    4    0    0  0.43061393674E+02 -0.93010124430E+02  0.41964936712E+03  0.43198467356E+03  0.00000000000E+00 0.  1.
</event>
<event>
 8    1  0.7112384E-009  0.1890453E+03  0.7561462E-02  0.1159325E+00
         -2   -1    0    0    0  501 -0.00000000000E+00  0.00000000000E+00  0.19457992018E+02  0.19457992018E+02  0.00000000000E+00 0.  1.
          2   -1    0    0  501    0  0.00000000000E+00 -0.00000000000E+00 -0.22923166360E+04  0.22923166360E+04  0.00000000000E+00 0. -1.
         25    2    1    2    0    0 -0.15483646230E+03 -0.66005398759E+02 -0.15082650745E+04  0.15227743194E+04  0.12508816945E+03 0.  0.
         23    2    1    2    0    0  0.15483646230E+03  0.66005398759E+02 -0.76459356949E+03  0.78900030863E+03  0.97913828389E+02 0.  0.
          5    1    3    3  502    0 -0.15360952660E+03 -0.39117898770E+02 -0.14477983239E+04  0.14564558201E+04  0.41800000000E+01 0.  1.
         -5    1    3    3    0  502 -0.12269357017E+01 -0.26887499989E+02 -0.60466750524E+02  0.66318499273E+02  0.41800000000E+01 0.  1.
        -11    1    4    4    0    0  0.10647582694E+03  0.88965150829E+02 -0.49151907695E+03  0.51072781673E+03  0.00000000000E+00 0.  1.
         11    1    4    4    0    0  0.48360635360E+02 -0.22959752070E+02 -0.27307449254E+03  0.27827249189E+03  0.00000000000E+00 0. -1.
</event>
<event>
 8    1  0.7112384E-009  0.1868514E+03  0.7561462E-02  0.1161332E+00
         -1   -1    0    0    0  501 -0.00000000000E+00  0.00000000000E+00  0.48944773613E+02  0.48944773613E+02  0.00000000000E+00 0.  1.
          1   -1    0    0  501    0  0.00000000000E+00 -0.00000000000E+00 -0.78634591815E+03  0.78634591815E+03  0.00000000000E+00 0. -1.
         25    2    1    2    0    0 -0.12750763833E+03 -0.10115102405E+03 -0.36844150270E+03  0.42176844782E+03  0.12509898149E+03 0.  0.
         23    2    1    2    0    0  0.12750763833E+03  0.10115102405E+03 -0.36895964184E+03  0.41352224394E+03  0.91540709124E+02 0.  0.
          5    1    3    3  502    0 -0.40320716903E+02  0.26874901772E+02 -0.66483744246E+02  0.82374639336E+02  0.41800000000E+01 0.  1.
         -5    1    3    3    0  502 -0.87186921430E+02 -0.12802592582E+03 -0.30195775845E+03  0.33939380849E+03  0.41800000000E+01 0.  1.
        -11    1    4    4    0    0  0.76106044599E+02  0.89364276977E+02 -0.16266723224E+03  0.20059594330E+03  0.00000000000E+00 0.  1.
         11    1    4    4    0    0  0.51401593735E+02  0.11786747072E+02 -0.20629240961E+03  0.21292630064E+03  0.00000000000E+00 0. -1.
</event>
<event>
 8    1  0.7112384E-009  0.1081039E+03  0.7561462E-02  0.1264122E+00
         -4   -1    0    0    0  501 -0.00000000000E+00  0.00000000000E+00  0.32009319310E+02  0.32009319310E+02  0.00000000000E+00 0. -1.
          4   -1    0    0  501    0  0.00000000000E+00 -0.00000000000E+00 -0.59612969016E+03  0.59612969016E+03  0.00000000000E+00 0.  1.
         25    2    1    2    0    0 -0.64474310075E+02  0.55244763541E+02 -0.33160926362E+03  0.36444520020E+03  0.12508668862E+03 0.  0.
         23    2    1    2    0    0  0.64474310075E+02 -0.55244763541E+02 -0.23251110722E+03  0.26369380926E+03  0.90907037707E+02 0.  0.
          5    1    3    3  502    0 -0.45607655953E+02  0.56218424350E+02 -0.65751004735E+02  0.97883791005E+02  0.41800000000E+01 0.  1.
         -5    1    3    3    0  502 -0.18866654122E+02 -0.97366080962E+00 -0.26585825889E+03  0.26656140920E+03  0.41800000000E+01 0.  1.
        -11    1    4    4    0    0  0.38966970574E+01  0.24160471998E+02 -0.48590992191E+02  0.54405856093E+02  0.00000000000E+00 0.  1.
         11    1    4    4    0    0  0.60577613018E+02 -0.79405235538E+02 -0.18392011503E+03  0.20928795317E+03  0.00000000000E+00 0. -1.
</event>
<event>
 8    1  0.7112384E-009  0.1632711E+03  0.7561462E-02  0.1185052E+00
          2   -1    0    0  501    0  0.00000000000E+00  0.00000000000E+00  0.22173365209E+03  0.22173365209E+03  0.00000000000E+00 0. -1.
         -2   -1    0    0    0  501 -0.00000000000E+00 -0.00000000000E+00 -0.13251011696E+03  0.13251011696E+03  0.00000000000E+00 0.  1.
         25    2    1    2    0    0  0.91159321885E+02 -0.93030050582E+02  0.70679412678E+02  0.19392676777E+03  0.12508956633E+03 0.  0.
         23    2    1    2    0    0 -0.91159321885E+02  0.93030050582E+02  0.18544122447E+02  0.16031700127E+03  0.91613558720E+02 0.  0.
          5    1    3    3  502    0  0.10871566481E+03 -0.43399468348E+02  0.16537358512E+02  0.11829440500E+03  0.41800000000E+01 0.  1.
         -5    1    3    3    0  502 -0.17556342922E+02 -0.49630582234E+02  0.54142054167E+02  0.75632362776E+02  0.41800000000E+01 0.  1.
        -11    1    4    4    0    0  0.14102953704E+01  0.57387882716E+02 -0.71506744861E+01  0.57848856180E+02  0.00000000000E+00 0.  1.
         11    1    4    4    0    0 -0.92569617255E+02  0.35642167866E+02  0.25694796933E+02  0.10246814509E+03  0.00000000000E+00 0. -1.
</event>
<event>
 8    1  0.7112384E-009  0.2388140E+03  0.7561462E-02  0.1120585E+00
         -2   -1    0    0    0  501 -0.00000000000E+00  0.00000000000E+00  0.21020858070E+03  0.21020858070E+03  0.00000000000E+00 0.  1.
          2   -1    0    0  501    0  0.00000000000E+00 -0.00000000000E+00 -0.30182150201E+03  0.30182150201E+03  0.00000000000E+00 0. -1.
         25    2    1    2    0    0 -0.17420499348E+03  0.14236188376E+03 -0.73328502957E+02  0.26765365835E+03  0.12508847181E+03 0.  0.
         23    2    1    2    0    0  0.17420499348E+03 -0.14236188376E+03 -0.18284418355E+02  0.24437642436E+03  0.93654851061E+02 0.  0.
          5    1    3    3  502    0 -0.10786982053E+03  0.44109675599E+02 -0.90741079450E+02  0.14775986452E+03  0.41800000000E+01 0.  1.
         -5    1    3    3    0  502 -0.66335172948E+02  0.98252208162E+02  0.17412576493E+02  0.11989379383E+03  0.41800000000E+01 0.  1.
        -11    1    4    4    0    0  0.40137013892E+02 -0.89846272396E+02  0.49452718718E+01  0.98528108992E+02  0.00000000000E+00 0. -1.
         11    1    4    4    0    0  0.13406797959E+03 -0.52515611365E+02 -0.23229690226E+02  0.14584831537E+03  0.00000000000E+00 0.  1.
</event>
<event>
 8    1  0.7112384E-009  0.1062999E+03  0.7561462E-02  0.1267579E+00
         -4   -1    0    0    0  501 -0.00000000000E+00  0.00000000000E+00  0.16954322549E+02  0.16954322549E+02  0.00000000000E+00 0.  1.
          4   -1    0    0  501    0  0.00000000000E+00 -0.00000000000E+00 -0.91188182079E+03  0.91188182079E+03  0.00000000000E+00 0. -1.
         25    2    1    2    0    0 -0.55270752923E+01  0.74550281963E+01 -0.72549408666E+03  0.73625732889E+03  0.12508820316E+03 0.  0.
         23    2    1    2    0    0  0.55270752923E+01 -0.74550281963E+01 -0.16943341159E+03  0.19257881445E+03  0.91064772582E+02 0.  0.
          5    1    3    3  502    0 -0.62094260918E+02  0.19646991710E+02 -0.31554451031E+03  0.32222276752E+03  0.41800000000E+01 0. -1.
         -5    1    3    3    0  502  0.56567185626E+02 -0.12191963513E+02 -0.40994957634E+03  0.41403456137E+03  0.41800000000E+01 0. -1.
        -11    1    4    4    0    0  0.28782124081E+02 -0.40025846726E+02 -0.11404649633E+03  0.12424605587E+03  0.00000000000E+00 0.  1.
         11    1    4    4    0    0 -0.23255048789E+02  0.32570818530E+02 -0.55386915257E+02  0.68332758583E+02  0.00000000000E+00 0. -1.
</event>
<event>
 8    1  0.7112384E-009  0.1127234E+03  0.7561462E-02  0.1255608E+00
          2   -1    0    0  501    0  0.00000000000E+00  0.00000000000E+00  0.48197547247E+03  0.48197547247E+03  0.00000000000E+00 0. -1.
         -2   -1    0    0    0  501 -0.00000000000E+00 -0.00000000000E+00 -0.41433515483E+02  0.41433515483E+02  0.00000000000E+00 0.  1.
         25    2    1    2    0    0  0.61411906379E+02 -0.65179963992E+02  0.25154571108E+03  0.29486060024E+03  0.12509068254E+03 0.  0.
         23    2    1    2    0    0 -0.61411906379E+02  0.65179963992E+02  0.18899624590E+03  0.22854838771E+03  0.92167969542E+02 0.  0.
          5    1    3    3  502    0  0.86334147258E+02 -0.43789375459E+02  0.24157665417E+03  0.26028416514E+03  0.41800000000E+01 0.  1.
         -5    1    3    3    0  502 -0.24922240879E+02 -0.21390588534E+02  0.99690569172E+01  0.34576435098E+02  0.41800000000E+01 0.  1.
        -11    1    4    4    0    0  0.10724796406E+01  0.15711765616E+02 -0.68002475087E+01  0.17153808835E+02  0.00000000000E+00 0.  1.
         11    1    4    4    0    0 -0.62484386020E+02  0.49468198376E+02  0.19579649341E+03  0.21139457888E+03  0.00000000000E+00 0. -1.
</event>
<event>
 8    1  0.7112384E-009  0.1014372E+03  0.7561462E-02  0.1277303E+00
          1   -1    0    0  501    0  0.00000000000E+00  0.00000000000E+00  0.15182614850E+02  0.15182614850E+02  0.00000000000E+00 0. -1.
         -1   -1    0    0    0  501 -0.00000000000E+00 -0.00000000000E+00 -0.84974577390E+03  0.84974577390E+03  0.00000000000E+00 0.  1.
         25    2    1    2    0    0  0.28301783258E+02 -0.72277177676E+01 -0.56404567176E+03  0.57848653725E+03  0.12508366445E+03 0.  0.
         23    2    1    2    0    0 -0.28301783258E+02  0.72277177676E+01 -0.27051748730E+03  0.28644185150E+03  0.89532075366E+02 0.  0.
          5    1    3    3  502    0 -0.23227291013E+02  0.34979953049E+02 -0.38675333607E+03  0.38904847966E+03  0.41800000000E+01 0.  1.
         -5    1    3    3    0  502  0.51529074271E+02 -0.42207670817E+02 -0.17729233569E+03  0.18943805759E+03  0.41800000000E+01 0.  1.
        -11    1    4    4    0    0 -0.25796873306E+02 -0.39481026721E+02 -0.12561575597E+03  0.13417730170E+03  0.00000000000E+00 0.  1.
         11    1    4    4    0    0 -0.25049099516E+01  0.46708744488E+02 -0.14490173133E+03  0.15226454980E+03  0.00000000000E+00 0. -1.
</event>
<event>
 8    1  0.7112384E-009  0.8140333E+02  0.7561462E-02  0.1325116E+00
         -2   -1    0    0    0  501 -0.00000000000E+00  0.00000000000E+00  0.30587998883E+03  0.30587998883E+03  0.00000000000E+00 0.  1.
          2   -1    0    0  501    0  0.00000000000E+00 -0.00000000000E+00 -0.42500301340E+02  0.42500301340E+02  0.00000000000E+00 0. -1.
         25    2    1    2    0    0 -0.16457751602E+02  0.84645699451E+01  0.20011967628E+03  0.23672352400E+03  0.12509050903E+03 0.  0.
         23    2    1    2    0    0  0.16457751602E+02 -0.84645699451E+01  0.63260011209E+02  0.11165676617E+03  0.90127120673E+02 0.  0.
          5    1    3    3  502    0 -0.63363640796E+02 -0.46174095020E+01  0.16407315624E+03  0.17599359206E+03  0.41800000000E+01 0. -1.
         -5    1    3    3    0  502  0.46905889194E+02  0.13081979447E+02  0.36046520040E+02  0.60729931948E+02  0.41800000000E+01 0. -1.
        -11    1    4    4    0    0  0.32824792387E+02 -0.28041417669E+01  0.80647015607E+02  0.87116424012E+02  0.00000000000E+00 0.  1.
         11    1    4    4    0    0 -0.16367040785E+02 -0.56604281782E+01 -0.17387004398E+02  0.24540342156E+02  0.00000000000E+00 0. -1.
</event>
<event>
 8    1  0.7112384E-009  0.1925377E+03  0.7561462E-02  0.1156192E+00
          1   -1    0    0  501    0  0.00000000000E+00  0.00000000000E+00  0.11858640805E+04  0.11858640805E+04  0.00000000000E+00 0. -1.
         -1   -1    0    0    0  501 -0.00000000000E+00 -0.00000000000E+00 -0.44175739107E+02  0.44175739107E+02  0.00000000000E+00 0.  1.
         25    2    1    2    0    0 -0.51995632917E+02 -0.16326124761E+03  0.87542749132E+03  0.90076514412E+03  0.12508705563E+03 0.  0.
         23    2    1    2    0    0  0.51995632917E+02  0.16326124761E+03  0.26626085006E+03  0.32927467547E+03  0.90383576049E+02 0.  0.
          5    1    3    3  502    0 -0.81566831298E+02 -0.16011091237E+03  0.69555763135E+03  0.71840555618E+03  0.41800000000E+01 0. -1.
         -5    1    3    3    0  502  0.29571198380E+02 -0.31503352432E+01  0.17986985998E+03  0.18235958794E+03  0.41800000000E+01 0. -1.
        -11    1    4    4    0    0  0.24255211421E+02  0.27194791328E+02  0.12889421959E+03  0.13394622727E+03  0.00000000000E+00 0.  1.
         11    1    4    4    0    0  0.27740421496E+02  0.13606645628E+03  0.13736663047E+03  0.19532844820E+03  0.00000000000E+00 0. -1.
</event>
<event>
 8    1  0.7112384E-009  0.1152956E+03  0.7561462E-02  0.1251066E+00
         -2   -1    0    0    0  501 -0.00000000000E+00  0.00000000000E+00  0.36581408657E+03  0.36581408657E+03  0.00000000000E+00 0. -1.
          2   -1    0    0  501    0  0.00000000000E+00 -0.00000000000E+00 -0.44663563802E+02  0.44663563802E+02  0.00000000000E+00 0.  1.
         25    2    1    2    0    0  0.63848325084E+02  0.41148876914E+01  0.14860797606E+03  0.20451147741E+03  0.12508826055E+03 0.  0.
         23    2    1    2    0    0 -0.63848325084E+02 -0.41148876914E+01  0.17254254670E+03  0.20596617296E+03  0.92507259519E+02 0.  0.
          5    1    3    3  502    0  0.53005138425E+02  0.61855388680E+02  0.88585814160E+02  0.12041824064E+03  0.41800000000E+01 0.  1.
         -5    1    3    3    0  502  0.10843186660E+02 -0.57740500988E+02  0.60022161899E+02  0.84093236769E+02  0.41800000000E+01 0.  1.
        -11    1    4    4    0    0 -0.31735752166E+02 -0.33822187120E+02  0.14948609378E+03  0.15651578368E+03  0.00000000000E+00 0. -1.
         11    1    4    4    0    0 -0.32112572918E+02  0.29707299428E+02  0.23056452928E+02  0.49450389284E+02  0.00000000000E+00 0.  1.
</event>
<event>
 8    1  0.7112384E-009  0.9934597E+02  0.7561462E-02  0.1281677E+00
          2   -1    0    0  501    0  0.00000000000E+00  0.00000000000E+00  0.18832425378E+03  0.18832425378E+03  0.00000000000E+00 0.  1.
         -2   -1    0    0    0  501 -0.00000000000E+00 -0.00000000000E+00 -0.72178710587E+02  0.72178710587E+02  0.00000000000E+00 0. -1.
         25    2    1    2    0    0  0.39418550099E+02 -0.75654627229E+01  0.86465787573E+02  0.15727531922E+03  0.12509250695E+03 0.  0.
         23    2    1    2    0    0 -0.39418550099E+02  0.75654627229E+01  0.29679755623E+02  0.10322764515E+03  0.90354858816E+02 0.  0.
          5    1    3    3  502    0 -0.40251150846E+02  0.18401522278E+02  0.46542971541E+02  0.64362192057E+02  0.41800000000E+01 0. -1.
         -5    1    3    3    0  502  0.79669700945E+02 -0.25966985001E+02  0.39922816032E+02  0.92913127160E+02  0.41800000000E+01 0. -1.
        -11    1    4    4    0    0  0.13355921191E+01  0.25697654690E+02 -0.22780530469E+02  0.34367220303E+02  0.00000000000E+00 0. -1.
         11    1    4    4    0    0 -0.40754142219E+02 -0.18132191967E+02  0.52460286093E+02  0.68860424849E+02  0.00000000000E+00 0.  1.
</event>
<event>
 8    1  0.7112384E-009  0.5035949E+03  0.7561462E-02  0.1012845E+00
          1   -1    0    0  501    0  0.00000000000E+00  0.00000000000E+00  0.10980832701E+04  0.10980832701E+04  0.00000000000E+00 0. -1.
         -1   -1    0    0    0  501 -0.00000000000E+00 -0.00000000000E+00 -0.23663619267E+03  0.23663619267E+03  0.00000000000E+00 0.  1.
         25    2    1    2    0    0 -0.69594551678E+02 -0.48779575114E+03  0.52755545182E+03  0.73263312471E+03  0.12509374179E+03 0.  0.
         23    2    1    2    0    0  0.69594551678E+02  0.48779575114E+03  0.33389162565E+03  0.60208633809E+03  0.90753756866E+02 0.  0.
          5    1    3    3  502    0 -0.77448641147E+02 -0.49221522625E+03  0.51951839913E+03  0.71985481897E+03  0.41800000000E+01 0. -1.
         -5    1    3    3    0  502  0.78540894689E+01  0.44194751122E+01  0.80370526884E+01  0.12778305739E+02  0.41800000000E+01 0. -1.
        -11    1    4    4    0    0  0.87190141287E+02  0.39357959161E+03  0.24739085047E+03  0.47297912064E+03  0.00000000000E+00 0.  1.
         11    1    4    4    0    0 -0.17595589609E+02  0.94216159532E+02  0.86500775186E+02  0.12910721745E+03  0.00000000000E+00 0. -1.
</event>
<event>
 8    1  0.7112384E-009  0.1322746E+03  0.7561462E-02  0.1224119E+00
         -1   -1    0    0    0  501 -0.00000000000E+00  0.00000000000E+00  0.12577550390E+03  0.12577550390E+03  0.00000000000E+00 0.  1.
          1   -1    0    0  501    0  0.00000000000E+00 -0.00000000000E+00 -0.21483644388E+03  0.21483644388E+03  0.00000000000E+00 0. -1.
         25    2    1    2    0    0 -0.11755372075E+03  0.20041180924E+02 -0.21930556734E+02  0.17421377006E+03  0.12509581194E+03 0.  0.
         23    2    1    2    0    0  0.11755372075E+03 -0.20041180924E+02 -0.67130383243E+02  0.16639817771E+03  0.94664349132E+02 0.  0.
          5    1    3    3  502    0 -0.56576427807E+02  0.26893579602E+02 -0.71550439035E+02  0.95189781664E+02  0.41800000000E+01 0. -1.
         -5    1    3    3    0  502 -0.60977292945E+02 -0.68523986782E+01  0.49619882301E+02  0.79023988396E+02  0.41800000000E+01 0. -1.
        -11    1    4    4    0    0  0.66905709432E+02  0.26035154430E+02 -0.66597013892E+02  0.97925305617E+02  0.00000000000E+00 0.  1.
         11    1    4    4    0    0  0.50648011320E+02 -0.46076335354E+02 -0.53336935058E+00  0.68472872096E+02  0.00000000000E+00 0. -1.
</event>
<event>
 8    1  0.7112384E-009  0.1373549E+03  0.7561462E-02  0.1216933E+00
         -2   -1    0    0    0  501 -0.00000000000E+00  0.00000000000E+00  0.39874809416E+03  0.39874809416E+03  0.00000000000E+00 0. -1.
          2   -1    0    0  501    0  0.00000000000E+00 -0.00000000000E+00 -0.56031265510E+02  0.56031265510E+02  0.00000000000E+00 0.  1.
         25    2    1    2    0    0 -0.63411499768E+02 -0.79372673701E+02  0.21616858250E+03  0.26962259797E+03  0.12508576915E+03 0.  0.
         23    2    1    2    0    0  0.63411499768E+02  0.79372673701E+02  0.12654824615E+03  0.18515676170E+03  0.89148910061E+02 0.  0.
          5    1    3    3  502    0 -0.18074828765E+02 -0.91884288965E+02  0.19793129342E+03  0.21900614445E+03  0.41800000000E+01 0.  1.
         -5    1    3    3    0  502 -0.45336671003E+02  0.12511615264E+02  0.18237289083E+02  0.50616453523E+02  0.41800000000E+01 0.  1.
        -11    1    4    4    0    0  0.67721780331E+02  0.15160652909E+02  0.78922420410E+02  0.10509440219E+03  0.00000000000E+00 0.  1.
         11    1    4    4    0    0 -0.43102805633E+01  0.64212020791E+02  0.47625825739E+02  0.80062359508E+02  0.00000000000E+00 0. -1.
</event>
<event>
 8    1  0.7112384E-009  0.9235698E+02  0.7561462E-02  0.1297242E+00
         -1   -1    0    0    0  501 -0.00000000000E+00  0.00000000000E+00  0.14052390477E+03  0.14052390477E+03  0.00000000000E+00 0.  1.
          1   -1    0    0  501    0  0.00000000000E+00 -0.00000000000E+00 -0.18398498921E+03  0.18398498921E+03  0.00000000000E+00 0. -1.
         25    2    1    2    0    0  0.34250155428E+02 -0.82827872665E+02  0.54706300505E+02  0.16332142954E+03  0.12509028897E+03 0.  0.
         23    2    1    2    0    0 -0.34250155428E+02  0.82827872665E+02 -0.98167384941E+02  0.16118746445E+03  0.91164870380E+02 0.  0.
          5    1    3    3  502    0 -0.48103621390E+01 -0.13746487525E+02  0.78828403466E+02  0.80271384043E+02  0.41800000000E+01 0. -1.
         -5    1    3    3    0  502  0.39060517567E+02 -0.69081385140E+02 -0.24122102961E+02  0.83050045495E+02  0.41800000000E+01 0. -1.
        -11    1    4    4    0    0 -0.14732639973E+02  0.47492112465E+02 -0.10864394231E+03  0.11948245740E+03  0.00000000000E+00 0. -1.
         11    1    4    4    0    0 -0.19517515455E+02  0.35335760200E+02  0.10476557364E+02  0.41705007045E+02  0.00000000000E+00 0.  1.
</event>
<event>
 8    1  0.7112384E-009  0.1218057E+03  0.7561462E-02  0.1240148E+00
         -1   -1    0    0    0  501 -0.00000000000E+00  0.00000000000E+00  0.72329204906E+03  0.72329204906E+03  0.00000000000E+00 0.  1.
          1   -1    0    0  501    0  0.00000000000E+00 -0.00000000000E+00 -0.42491835560E+02  0.42491835560E+02  0.00000000000E+00 0. -1.
         25    2    1    2    0    0  0.22705843358E+02 -0.11856137661E+03  0.50404734376E+03  0.53318208728E+03  0.12508820125E+03 0.  0.
         23    2    1    2    0    0 -0.22705843358E+02  0.11856137661E+03  0.17675286974E+03  0.23260179734E+03  0.91047590960E+02 0.  0.
          5    1    3    3  502    0  0.25616862424E+02 -0.10221003998E+03  0.50513122037E+03  0.51602145121E+03  0.41800000000E+01 0. -1.
         -5    1    3    3    0  502 -0.29110190656E+01 -0.16351336633E+02 -0.10838766115E+01  0.17160636066E+02  0.41800000000E+01 0. -1.
        -11    1    4    4    0    0 -0.22642819408E+01  0.32352636196E+02 -0.26233754599E+01  0.32537703366E+02  0.00000000000E+00 0. -1.
         11    1    4    4    0    0 -0.20441561417E+02  0.86208740417E+02  0.17937624520E+03  0.20006409398E+03  0.00000000000E+00 0.  1.
</event>
<event>
 8    1  0.7112384E-009  0.1163810E+03  0.7561462E-02  0.1249190E+00
         -1   -1    0    0    0  501 -0.00000000000E+00  0.00000000000E+00  0.61391875086E+02  0.61391875086E+02  0.00000000000E+00 0.  1.
          1   -1    0    0  501    0  0.00000000000E+00 -0.00000000000E+00 -0.27103645795E+03  0.27103645795E+03  0.00000000000E+00 0. -1.
         25    2    1    2    0    0  0.15389175127E+02 -0.45763643745E+02 -0.50705571697E+02  0.14334564255E+03  0.12508309413E+03 0.  0.
         23    2    1    2    0    0 -0.15389175127E+02  0.45763643745E+02 -0.15893901117E+03  0.18908269049E+03  0.90330043574E+02 0.  0.
          5    1    3    3  502    0 -0.54991915530E+02 -0.20464903784E+02 -0.17208852048E+02  0.61290619587E+02  0.41800000000E+01 0.  1.
         -5    1    3    3    0  502  0.70381090657E+02 -0.25298739961E+02 -0.33496719650E+02  0.82055022960E+02  0.41800000000E+01 0.  1.
        -11    1    4    4    0    0 -0.51376582779E+02  0.21899159866E+02 -0.65023389174E+02  0.85715620517E+02  0.00000000000E+00 0.  1.
         11    1    4    4    0    0  0.35987407653E+02  0.23864483879E+02 -0.93915621995E+02  0.10336706997E+03  0.00000000000E+00 0. -1.
</event>
<event>
 8    1  0.7112384E-009  0.6519112E+02  0.7561462E-02  0.1377254E+00
          1   -1    0    0  501    0  0.00000000000E+00  0.00000000000E+00  0.15613056137E+02  0.15613056137E+02  0.00000000000E+00 0. -1.
         -1   -1    0    0    0  501 -0.00000000000E+00 -0.00000000000E+00 -0.89430765201E+03  0.89430765201E+03  0.00000000000E+00 0.  1.
         25    2    1    2    0    0  0.25280921597E+02  0.42035534943E+02 -0.54262675503E+03  0.55901465146E+03  0.12508986402E+03 0.  0.
         23    2    1    2    0    0 -0.25280921597E+02 -0.42035534943E+02 -0.33606784084E+03  0.35090605668E+03  0.88245995800E+02 0.  0.
          5    1    3    3  502    0  0.25015488108E+01  0.35717336493E+02 -0.53121062221E+03  0.53243232755E+03  0.41800000000E+01 0. -1.
         -5    1    3    3    0  502  0.22779372786E+02  0.63181984495E+01 -0.11416132828E+02  0.26582323919E+02  0.41800000000E+01 0. -1.
        -11    1    4    4    0    0 -0.35098460966E+02 -0.47524569806E+02 -0.33434774372E+03  0.33952746639E+03  0.00000000000E+00 0.  1.
         11    1    4    4    0    0  0.98175393694E+01  0.54890348631E+01 -0.17200971139E+01  0.11378590294E+02  0.00000000000E+00 0. -1.
</event>
<event>
 8    1  0.7112384E-009  0.7603869E+02  0.7561462E-02  0.1340684E+00
          2   -1    0    0  501    0  0.00000000000E+00  0.00000000000E+00  0.20821038245E+03  0.20821038245E+03  0.00000000000E+00 0. -1.
         -2   -1    0    0    0  501 -0.00000000000E+00 -0.00000000000E+00 -0.77484116717E+02  0.77484116717E+02  0.00000000000E+00 0.  1.
         25    2    1    2    0    0  0.12968672320E+01 -0.28922487471E+01 -0.94219557358E+00  0.12513443930E+03  0.12509073986E+03 0.  0.
         23    2    1    2    0    0 -0.12968672320E+01  0.28922487471E+01  0.13166846131E+03  0.16056005987E+03  0.91830834436E+02 0.  0.
          5    1    3    3  502    0  0.18260695175E+02  0.22569435335E+02 -0.55311900707E+02  0.62607596659E+02  0.41800000000E+01 0. -1.
         -5    1    3    3    0  502 -0.16963827943E+02 -0.25461684082E+02  0.54369705134E+02  0.62526842644E+02  0.41800000000E+01 0. -1.
        -11    1    4    4    0    0  0.43443840219E+02  0.14224721857E+02  0.63905173838E+02  0.78572140152E+02  0.00000000000E+00 0. -1.
         11    1    4    4    0    0 -0.44740707451E+02 -0.11332473110E+02  0.67763287472E+02  0.81987919714E+02  0.00000000000E+00 0.  1.
</event>
<event>
 8    1  0.7112384E-009  0.1989124E+03  0.7561462E-02  0.1150660E+00
          2   -1    0    0  501    0  0.00000000000E+00  0.00000000000E+00  0.45023128671E+03  0.45023128671E+03  0.00000000000E+00 0. -1.
         -2   -1    0    0    0  501 -0.00000000000E+00 -0.00000000000E+00 -0.12192329481E+03  0.12192329481E+03  0.00000000000E+00 0.  1.
         25    2    1    2    0    0  0.19430540271E+03  0.17254384251E+02  0.25429783189E+03  0.34404465701E+03  0.12508811061E+03 0.  0.
         23    2    1    2    0    0 -0.19430540271E+03 -0.17254384251E+02  0.74010160006E+02  0.22810992451E+03  0.92218927438E+02 0.  0.
          5    1    3    3  502    0  0.14581028312E+03  0.25265766345E+02  0.91730769864E+02  0.17415798619E+03  0.41800000000E+01 0. -1.
         -5    1    3    3    0  502  0.48495119587E+02 -0.80113820940E+01  0.16256706203E+03  0.16988667082E+03  0.41800000000E+01 0. -1.
        -11    1    4    4    0    0 -0.11143889596E+03 -0.32746654050E+02  0.83822995747E+02  0.14323849168E+03  0.00000000000E+00 0.  1.
         11    1    4    4    0    0 -0.82866506752E+02  0.15492269799E+02 -0.98128357407E+01  0.84871432827E+02  0.00000000000E+00 0. -1.
</event>
<event>
 8    1  0.7112384E-009  0.1560817E+03  0.7561462E-02  0.1193193E+00
          1   -1    0    0  501    0  0.00000000000E+00  0.00000000000E+00  0.11018542000E+04  0.11018542000E+04  0.00000000000E+00 0. -1.
         -1   -1    0    0    0  501 -0.00000000000E+00 -0.00000000000E+00 -0.22954161229E+02  0.22954161229E+02  0.00000000000E+00 0.  1.
         25    2    1    2    0    0  0.98686814479E+02  0.56447685692E+02  0.64900968282E+03  0.67066161781E+03  0.12509200067E+03 0.  0.
         23    2    1    2    0    0 -0.98686814479E+02 -0.56447685692E+02  0.42989035593E+03  0.45414674340E+03  0.92293650102E+02 0.  0.
          5    1    3    3  502    0 -0.28219758689E+02  0.14510144138E+02  0.80324729528E+02  0.86466372869E+02  0.41800000000E+01 0. -1.
         -5    1    3    3    0  502  0.12690657317E+03  0.41937541554E+02  0.56868495330E+03  0.58419524494E+03  0.41800000000E+01 0. -1.
        -11    1    4    4    0    0 -0.99061799876E+02 -0.95327531231E+01  0.29172387092E+03  0.30823194260E+03  0.00000000000E+00 0. -1.
         11    1    4    4    0    0  0.37498539697E+00 -0.46914932569E+02  0.13816648501E+03  0.14591480080E+03  0.00000000000E+00 0.  1.
</event>
<event>
 8    1  0.7112384E-009  0.7774738E+02  0.7561462E-02  0.1335568E+00
         -2   -1    0    0    0  501 -0.00000000000E+00  0.00000000000E+00  0.49963563991E+02  0.49963563991E+02  0.00000000000E+00 0.  1.
          2   -1    0    0  501    0  0.00000000000E+00 -0.00000000000E+00 -0.25618662431E+03  0.25618662431E+03  0.00000000000E+00 0. -1.
         25    2    1    2    0    0  0.20426898670E+02  0.31149365597E+02 -0.11840354248E+03  0.17622318022E+03  0.12509064398E+03 0.  0.
         23    2    1    2    0    0 -0.20426898670E+02 -0.31149365597E+02 -0.87819517842E+02  0.12992700808E+03  0.88211215545E+02 0.  0.
          5    1    3    3  502    0  0.29873735482E+02 -0.17544051846E+02  0.11793851933E+02  0.36834782071E+02  0.41800000000E+01 0. -1.
         -5    1    3    3    0  502 -0.94468368119E+01  0.48693417444E+02 -0.13019739441E+03  0.13938839815E+03  0.41800000000E+01 0. -1.
        -11    1    4    4    0    0 -0.20868524606E+02 -0.48847419567E+02 -0.15300193735E+02  0.55278039455E+02  0.00000000000E+00 0.  1.
         11    1    4    4    0    0  0.44162593616E+00  0.17698053970E+02 -0.72519324106E+02  0.74648968624E+02  0.00000000000E+00 0. -1.
</event>
<event>
 8    1  0.7112384E-009  0.8494113E+02  0.7561462E-02  0.1315587E+00
          1   -1    0    0  501    0  0.00000000000E+00  0.00000000000E+00  0.31648915736E+03  0.31648915736E+03  0.00000000000E+00 0. -1.
         -1   -1    0    0    0  501 -0.00000000000E+00 -0.00000000000E+00 -0.63798102103E+02  0.63798102103E+02  0.00000000000E+00 0.  1.
         25    2    1    2    0    0  0.17959365971E+02  0.31463429240E+01  0.26427291787E+03  0.29294976773E+03  0.12508778114E+03 0.  0.
         23    2    1    2    0    0 -0.17959365971E+02 -0.31463429240E+01 -0.11581862617E+02  0.87337491733E+02  0.84624225968E+02 0.  0.
          5    1    3    3  502    0  0.38563089987E+02  0.38242235284E+02  0.47261938954E+02  0.72116182252E+02  0.41800000000E+01 0. -1.
         -5    1    3    3    0  502 -0.20603724015E+02 -0.35095892360E+02  0.21701097891E+03  0.22083358547E+03  0.41800000000E+01 0. -1.
        -11    1    4    4    0    0  0.27740380754E+02  0.46894860679E+01 -0.26480535080E+02  0.38635977302E+02  0.00000000000E+00 0.  1.
         11    1    4    4    0    0 -0.45699746725E+02 -0.78358289919E+01  0.14898672463E+02  0.48701514431E+02  0.00000000000E+00 0. -1.
</event>
<event>
 8    1  0.7112384E-009  0.1198116E+03  0.7561462E-02  0.1243408E+00
          1   -1    0    0  501    0  0.00000000000E+00  0.00000000000E+00  0.17815663742E+03  0.17815663742E+03  0.00000000000E+00 0. -1.
         -1   -1    0    0    0  501 -0.00000000000E+00 -0.00000000000E+00 -0.94063670434E+02  0.94063670434E+02  0.00000000000E+00 0.  1.
         25    2    1    2    0    0 -0.31815899357E+02  0.52709997479E+02  0.10719804844E+02  0.13983613761E+03  0.12509450779E+03 0.  0.
         23    2    1    2    0    0  0.31815899357E+02 -0.52709997479E+02  0.73373162147E+02  0.13238417025E+03  0.91385733692E+02 0.  0.
          5    1    3    3  502    0  0.43365881941E+02  0.22519287940E+02  0.28587989636E+02  0.56766747284E+02  0.41800000000E+01 0.  1.
         -5    1    3    3    0  502 -0.75181781298E+02  0.30190709539E+02 -0.17868184792E+02  0.83069390327E+02  0.41800000000E+01 0.  1.
        -11    1    4    4    0    0 -0.27322379281E+02 -0.40841529378E+02  0.40582685969E+02  0.63729877859E+02  0.00000000000E+00 0.  1.
         11    1    4    4    0    0  0.59138278638E+02 -0.11868468101E+02  0.32790476178E+02  0.68654292388E+02  0.00000000000E+00 0. -1.
</event>
<event>
 8    1  0.7112384E-009  0.9162729E+02  0.7561462E-02  0.1298958E+00
         -2   -1    0    0    0  501 -0.00000000000E+00  0.00000000000E+00  0.15025816580E+03  0.15025816580E+03  0.00000000000E+00 0.  1.
          2   -1    0    0  501    0  0.00000000000E+00 -0.00000000000E+00 -0.78965493151E+02  0.78965493151E+02  0.00000000000E+00 0. -1.
         25    2    1    2    0    0  0.71561920748E+01  0.34589205366E+01  0.67422647710E+02  0.14231888966E+03  0.12508268350E+03 0.  0.
         23    2    1    2    0    0 -0.71561920748E+01 -0.34589205366E+01  0.38700249367E+01  0.86904769293E+02  0.86453956627E+02 0.  0.
          5    1    3    3  502    0 -0.48532596825E+02 -0.23246650065E+02  0.46765988959E+01  0.54177141591E+02  0.41800000000E+01 0.  1.
         -5    1    3    3    0  502  0.55688788899E+02  0.26705570602E+02  0.62746048814E+02  0.88141748065E+02  0.41800000000E+01 0.  1.
        -11    1    4    4    0    0 -0.31008453814E+02 -0.21275528833E+02  0.29361816718E+02  0.47710466525E+02  0.00000000000E+00 0.  1.
         11    1    4    4    0    0  0.23852261740E+02  0.17816608296E+02 -0.25491791781E+02  0.39194302768E+02  0.00000000000E+00 0. -1.
</event>
<event>
 8    1  0.7112384E-009  0.3610436E+03  0.7561462E-02  0.1058171E+00
         -1   -1    0    0    0  501 -0.00000000000E+00  0.00000000000E+00  0.12152133940E+03  0.12152133940E+03  0.00000000000E+00 0.  1.
          1   -1    0    0  501    0  0.00000000000E+00 -0.00000000000E+00 -0.12042498113E+04  0.12042498113E+04  0.00000000000E+00 0. -1.
         25    2    1    2    0    0  0.20734488111E+03  0.28773813650E+03 -0.38970255248E+03  0.54157279430E+03  0.12509147534E+03 0.  0.
         23    2    1    2    0    0 -0.20734488111E+03 -0.28773813650E+03 -0.69302591944E+03  0.78419835642E+03  0.94323922063E+02 0.  0.
          5    1    3    3  502    0  0.14149339391E+03  0.22951450935E+03 -0.35765518540E+03  0.44791962958E+03  0.41800000000E+01 0.  1.
         -5    1    3    3    0  502  0.65851487203E+02  0.58223627157E+02 -0.32047367075E+02  0.93653164723E+02  0.41800000000E+01 0.  1.
        -11    1    4    4    0    0 -0.35248760990E+02 -0.82398473075E+01 -0.44701753954E+02  0.57520579287E+02  0.00000000000E+00 0.  1.
         11    1    4    4    0    0 -0.17209612012E+03 -0.27949828920E+03 -0.64832416549E+03  0.72667777713E+03  0.00000000000E+00 0. -1.
</event>
<event>
 8    1  0.7112384E-009  0.8785265E+02  0.7561462E-02  0.1308137E+00
         -4   -1    0    0    0  501 -0.00000000000E+00  0.00000000000E+00  0.45766397262E+03  0.45766397262E+03  0.00000000000E+00 0.  1.
          4   -1    0    0  501    0  0.00000000000E+00 -0.00000000000E+00 -0.41765357521E+02  0.41765357521E+02  0.00000000000E+00 0. -1.
         25    2    1    2    0    0  0.51170539971E+01  0.63064614761E+01  0.38194879060E+03  0.40199452574E+03  0.12509502141E+03 0.  0.
         23    2    1    2    0    0 -0.51170539971E+01 -0.63064614761E+01  0.33949824501E+02  0.97434804407E+02  0.90966998567E+02 0.  0.
          5    1    3    3  502    0 -0.43768769111E+02 -0.10204230313E+02  0.31049620455E+03  0.31375977579E+03  0.41800000000E+01 0. -1.
         -5    1    3    3    0  502  0.48885823108E+02  0.16510691789E+02  0.71452586053E+02  0.88234749945E+02  0.41800000000E+01 0. -1.
        -11    1    4    4    0    0 -0.38902298707E+02 -0.18245376221E+02 -0.64319653446E+01  0.43447126215E+02  0.00000000000E+00 0. -1.
         11    1    4    4    0    0  0.33785244710E+02  0.11938914745E+02  0.40381789846E+02  0.53987678192E+02  0.00000000000E+00 0.  1.
</event>
<event>
 8    1  0.7112384E-009  0.1802375E+03  0.7561462E-02  0.1167573E+00
          1   -1    0    0  501    0  0.00000000000E+00  0.00000000000E+00  0.57609891544E+03  0.57609891544E+03  0.00000000000E+00 0. -1.
         -1   -1    0    0    0  501 -0.00000000000E+00 -0.00000000000E+00 -0.82089433700E+02  0.82089433700E+02  0.00000000000E+00 0.  1.
         25    2    1    2    0    0 -0.15684713598E+03  0.78368958578E+02  0.36081509175E+03  0.42021123550E+03  0.12508890548E+03 0.  0.
         23    2    1    2    0    0  0.15684713598E+03 -0.78368958578E+02  0.13319438999E+03  0.23797711363E+03  0.90275375127E+02 0.  0.
          5    1    3    3  502    0 -0.52095075862E+02  0.20562944246E+01  0.23055432213E+03  0.23641254859E+03  0.41800000000E+01 0.  1.
         -5    1    3    3    0  502 -0.10475206012E+03  0.76312664154E+02  0.13026076962E+03  0.18379868691E+03  0.41800000000E+01 0.  1.
        -11    1    4    4    0    0  0.47166876883E+02 -0.70921271896E+01  0.87068228513E+02  0.99276829922E+02  0.00000000000E+00 0. -1.
         11    1    4    4    0    0  0.10968025910E+03 -0.71276831389E+02  0.46126161474E+02  0.13870028371E+03  0.00000000000E+00 0.  1.
</event>
<event>
 8    1  0.7112384E-009  0.1145594E+03  0.7561462E-02  0.1252352E+00
         -2   -1    0    0    0  501 -0.00000000000E+00  0.00000000000E+00  0.39582121800E+02  0.39582121800E+02  0.00000000000E+00 0.  1.
          2   -1    0    0  501    0  0.00000000000E+00 -0.00000000000E+00 -0.52822738879E+03  0.52822738879E+03  0.00000000000E+00 0. -1.
         25    2    1    2    0    0 -0.80303394251E+02 -0.29576867082E+02 -0.19302527917E+03  0.24541600204E+03  0.12508728738E+03 0.  0.
         23    2    1    2    0    0  0.80303394251E+02  0.29576867082E+02 -0.29561998781E+03  0.32239350855E+03  0.96036300236E+02 0.  0.
          5    1    3    3  502    0  0.97833412272E+01  0.32269216707E+02 -0.16518962570E+02  0.37780479574E+02  0.41800000000E+01 0. -1.
         -5    1    3    3    0  502 -0.90086735478E+02 -0.61846083789E+02 -0.17650631660E+03  0.20763552247E+03  0.41800000000E+01 0. -1.
        -11    1    4    4    0    0  0.21202212983E+02  0.10675527851E+02 -0.37888386494E+01  0.24038636163E+02  0.00000000000E+00 0.  1.
         11    1    4    4    0    0  0.59101181268E+02  0.18901339231E+02 -0.29183114917E+03  0.29835487238E+03  0.00000000000E+00 0. -1.
</event>
<event>
 8    1  0.7112384E-009  0.1206798E+03  0.7561462E-02  0.1241980E+00
          2   -1    0    0  501    0  0.00000000000E+00  0.00000000000E+00  0.27200317540E+03  0.27200317540E+03  0.00000000000E+00 0. -1.
         -2   -1    0    0    0  501 -0.00000000000E+00 -0.00000000000E+00 -0.81682682695E+02  0.81682682695E+02  0.00000000000E+00 0.  1.
         25    2    1    2    0    0  0.92064152279E+02  0.39719010247E+02  0.12446522888E+03  0.20295780639E+03  0.12508744967E+03 0.  0.
         23    2    1    2    0    0 -0.92064152279E+02 -0.39719010247E+02  0.65855263822E+02  0.15072805170E+03  0.91261283613E+02 0.  0.
          5    1    3    3  502    0  0.17868938462E+02 -0.20587054482E+02  0.10061582420E+03  0.10432709262E+03  0.41800000000E+01 0. -1.
         -5    1    3    3    0  502  0.74195213817E+02  0.60306064730E+02  0.23849404681E+02  0.98630713777E+02  0.41800000000E+01 0. -1.
        -11    1    4    4    0    0 -0.64847209655E+02  0.57319157150E+01  0.72381880400E+02  0.97350665473E+02  0.00000000000E+00 0.  1.
         11    1    4    4    0    0 -0.27216942625E+02 -0.45450925962E+02 -0.65266165776E+01  0.53377386229E+02  0.00000000000E+00 0. -1.
</event>
<event>
 8    1  0.7112384E-009  0.4180950E+03  0.7561462E-02  0.1037688E+00
          1   -1    0    0  501    0  0.00000000000E+00  0.00000000000E+00  0.10028731155E+04  0.10028731155E+04  0.00000000000E+00 0. -1.
         -1   -1    0    0    0  501 -0.00000000000E+00 -0.00000000000E+00 -0.18097112611E+03  0.18097112611E+03  0.00000000000E+00 0.  1.
         25    2    1    2    0    0 -0.52896562617E+02 -0.40563844634E+03  0.35089148965E+03  0.55327478303E+03  0.12509017763E+03 0.  0.
         23    2    1    2    0    0  0.52896562617E+02  0.40563844634E+03  0.47101049974E+03  0.63056945859E+03  0.91795183701E+02 0.  0.
          5    1    3    3  502    0 -0.83332482820E+02 -0.17055373461E+03  0.17311593635E+03  0.25694255953E+03  0.41800000000E+01 0. -1.
         -5    1    3    3    0  502  0.30435920203E+02 -0.23508471173E+03  0.17777555330E+03  0.29633222350E+03  0.41800000000E+01 0. -1.
        -11    1    4    4    0    0  0.19418683125E+02  0.10907782329E+03  0.19384841300E+03  0.22327620565E+03  0.00000000000E+00 0.  1.
         11    1    4    4    0    0  0.33477879492E+02  0.29656062305E+03  0.27716208674E+03  0.40729325293E+03  0.00000000000E+00 0. -1.
</event>
<event>
 8    1  0.7112384E-009  0.1349894E+03  0.7561462E-02  0.1220235E+00
         -1   -1    0    0    0  501 -0.00000000000E+00  0.00000000000E+00  0.20523703242E+03  0.20523703242E+03  0.00000000000E+00 0.  1.
          1   -1    0    0  501    0  0.00000000000E+00 -0.00000000000E+00 -0.11456144501E+03  0.11456144501E+03  0.00000000000E+00 0. -1.
         25    2    1    2    0    0 -0.84677203826E+02  0.33028980676E+02  0.10234820957E+03  0.18543555800E+03  0.12510015091E+03 0.  0.
         23    2    1    2    0    0  0.84677203826E+02 -0.33028980676E+02 -0.11672622154E+02  0.13436291943E+03  0.98264956097E+02 0.  0.
          5    1    3    3  502    0 -0.31292715431E+00 -0.40633619880E+02  0.40058410413E+02  0.57213089697E+02  0.41800000000E+01 0.  1.
         -5    1    3    3    0  502 -0.84364276671E+02  0.73662600556E+02  0.62289799157E+02  0.12822246830E+03  0.41800000000E+01 0.  1.
        -11    1    4    4    0    0  0.13758166978E+02 -0.43265041116E+02 -0.36789122330E+02  0.58434497201E+02  0.00000000000E+00 0.  1.
         11    1    4    4    0    0  0.70919036847E+02  0.10236060440E+02  0.25116500175E+02  0.75928422226E+02  0.00000000000E+00 0. -1.
</event>
<event>
 8    1  0.7112384E-009  0.9881501E+02  0.7561462E-02  0.1282808E+00
         -2   -1    0    0    0  501 -0.00000000000E+00  0.00000000000E+00  0.10415002322E+02  0.10415002322E+02  0.00000000000E+00 0.  1.
          2   -1    0    0  501    0  0.00000000000E+00 -0.00000000000E+00 -0.12312591585E+04  0.12312591585E+04  0.00000000000E+00 0. -1.
         25    2    1    2    0    0 -0.72347834723E+01  0.11403299000E+02 -0.86920610697E+03  0.87826436734E+03  0.12508663090E+03 0.  0.
         23    2    1    2    0    0  0.72347834723E+01 -0.11403299000E+02 -0.35163804920E+03  0.36340979347E+03  0.90746807253E+02 0.  0.
          5    1    3    3  502    0  0.23750723671E+02 -0.43906292821E+02 -0.20521530890E+03  0.21124075088E+03  0.41800000000E+01 0. -1.
         -5    1    3    3    0  502 -0.30985507143E+02  0.55309591821E+02 -0.66399079807E+03  0.66702361647E+03  0.41800000000E+01 0. -1.
        -11    1    4    4    0    0  0.37669041910E+02  0.17942224625E+02 -0.24791330372E+03  0.25139985343E+03  0.00000000000E+00 0.  1.
         11    1    4    4    0    0 -0.30434258438E+02 -0.29345523625E+02 -0.10372474547E+03  0.11200994004E+03  0.00000000000E+00 0. -1.
</event>
<event>
 8    1  0.7112384E-009  0.7052547E+02  0.7561462E-02  0.1358315E+00
          1   -1    0    0  501    0  0.00000000000E+00  0.00000000000E+00  0.18550000307E+03  0.18550000307E+03  0.00000000000E+00 0. -1.
         -1   -1    0    0    0  501 -0.00000000000E+00 -0.00000000000E+00 -0.67043266090E+02  0.67043266090E+02  0.00000000000E+00 0.  1.
         25    2    1    2    0    0 -0.94692535932E+01  0.18334941811E+02  0.97130011712E+02  0.15971077750E+03  0.12508979343E+03 0.  0.
         23    2    1    2    0    0  0.94692535932E+01 -0.18334941811E+02  0.21326725264E+02  0.92832491655E+02  0.87961386082E+02 0.  0.
          5    1    3    3  502    0  0.34224214179E+02  0.34381040835E+02  0.10169873131E+03  0.11275396736E+03  0.41800000000E+01 0.  1.
         -5    1    3    3    0  502 -0.43693467772E+02 -0.16046099024E+02 -0.45687195996E+01  0.46956810141E+02  0.41800000000E+01 0.  1.
        -11    1    4    4    0    0 -0.48850586343E+01 -0.27933834741E+02 -0.28435722831E+02  0.40159099269E+02  0.00000000000E+00 0.  1.
         11    1    4    4    0    0  0.14354312227E+02  0.95988929299E+01  0.49762448095E+02  0.52673392385E+02  0.00000000000E+00 0. -1.
</event>
<event>
 8    1  0.7112384E-009  0.1329600E+03  0.7561462E-02  0.1223129E+00
          2   -1    0    0  501    0  0.00000000000E+00  0.00000000000E+00  0.11290759292E+03  0.11290759292E+03  0.00000000000E+00 0. -1.
         -2   -1    0    0    0  501 -0.00000000000E+00 -0.00000000000E+00 -0.20133212351E+03  0.20133212351E+03  0.00000000000E+00 0.  1.
         25    2    1    2    0    0 -0.10339691074E+03 -0.17091471257E+01 -0.62375241225E+02  0.17388342336E+03  0.12510368447E+03 0.  0.
         23    2    1    2    0    0  0.10339691074E+03  0.17091471257E+01 -0.26049289365E+02  0.14035629308E+03  0.91255033812E+02 0.  0.
          5    1    3    3  502    0 -0.96231782471E+02 -0.50243547601E+02 -0.23508010780E+02  0.11115335804E+03  0.41800000000E+01 0.  1.
         -5    1    3    3    0  502 -0.71651282667E+01  0.48534400475E+02 -0.38867230445E+02  0.62730065320E+02  0.41800000000E+01 0.  1.
        -11    1    4    4    0    0  0.89232089618E+02  0.12676885839E+02  0.18794250190E+02  0.92066786043E+02  0.00000000000E+00 0. -1.
         11    1    4    4    0    0  0.14164821120E+02 -0.10967738713E+02 -0.44843539555E+02  0.48289507035E+02  0.00000000000E+00 0.  1.
</event>
<event>
 8    1  0.7112384E-009  0.5078145E+02  0.7561462E-02  0.1441172E+00
          1   -1    0    0  501    0  0.00000000000E+00  0.00000000000E+00  0.36408461293E+03  0.36408461293E+03  0.00000000000E+00 0. -1.
         -1   -1    0    0    0  501 -0.00000000000E+00 -0.00000000000E+00 -0.31563976457E+02  0.31563976457E+02  0.00000000000E+00 0.  1.
         25    2    1    2    0    0 -0.18834036331E+02 -0.94239521838E+00  0.20425980829E+03  0.24026139261E+03  0.12509140043E+03 0.  0.
         23    2    1    2    0    0  0.18834036331E+02  0.94239521838E+00  0.12826082818E+03  0.15538719678E+03  0.85666398574E+02 0.  0.
          5    1    3    3  502    0  0.62902063089E+01 -0.19068672302E+02  0.20779158631E+03  0.20880133308E+03  0.41800000000E+01 0.  1.
         -5    1    3    3    0  502 -0.25124242640E+02  0.18126277083E+02 -0.35317780145E+01  0.31460059521E+02  0.41800000000E+01 0.  1.
        -11    1    4    4    0    0 -0.14942349820E+02  0.50363566784E+01 -0.60084328106E+01  0.16874239881E+02  0.00000000000E+00 0.  1.
         11    1    4    4    0    0  0.33776386150E+02 -0.40939614600E+01  0.13426926099E+03  0.13851295690E+03  0.00000000000E+00 0. -1.
</event>
<event>
 8    1  0.7112384E-009  0.1254272E+03  0.7561462E-02  0.1234403E+00
          1   -1    0    0  501    0  0.00000000000E+00  0.00000000000E+00  0.19606458919E+04  0.19606458919E+04  0.00000000000E+00 0. -1.
         -1   -1    0    0    0  501 -0.00000000000E+00 -0.00000000000E+00 -0.12274547278E+02  0.12274547278E+02  0.00000000000E+00 0.  1.
         25    2    1    2    0    0  0.87997030391E+02 -0.14948135888E+02  0.14591609125E+04  0.14672302454E+04  0.12508836977E+03 0.  0.
         23    2    1    2    0    0 -0.87997030391E+02  0.14948135888E+02  0.48921043209E+03  0.50569019377E+03  0.91808502252E+02 0.  0.
          5    1    3    3  502    0 -0.16678385227E+02 -0.25076865250E+02  0.11488136500E+03  0.11883693924E+03  0.41800000000E+01 0. -1.
         -5    1    3    3    0  502  0.10467541562E+03  0.10128729363E+02  0.13442795475E+04  0.13483933062E+04  0.41800000000E+01 0. -1.
        -11    1    4    4    0    0 -0.98171451532E+02  0.24568675441E+02  0.47529456879E+03  0.48594874301E+03  0.00000000000E+00 0. -1.
         11    1    4    4    0    0  0.10174421142E+02 -0.96205395536E+01  0.13915863302E+02  0.19741450765E+02  0.00000000000E+00 0.  1.
</event>
<event>
 8    1  0.7112384E-009  0.1573403E+03  0.7561462E-02  0.1191733E+00
          1   -1    0    0  501    0  0.00000000000E+00  0.00000000000E+00  0.23261523981E+03  0.23261523981E+03  0.00000000000E+00 0. -1.
         -1   -1    0    0    0  501 -0.00000000000E+00 -0.00000000000E+00 -0.14379918089E+03  0.14379918089E+03  0.00000000000E+00 0.  1.
         25    2    1    2    0    0  0.85083138319E+02  0.11698479989E+03  0.70017658925E+02  0.20365225161E+03  0.12508870130E+03 0.  0.
         23    2    1    2    0    0 -0.85083138319E+02 -0.11698479989E+03  0.18798399998E+02  0.17276216909E+03  0.92567831318E+02 0.  0.
          5    1    3    3  502    0  0.31903788392E+02  0.10396883334E+03  0.93930304317E+02  0.14376280635E+03  0.41800000000E+01 0. -1.
         -5    1    3    3    0  502  0.53179349927E+02  0.13015966549E+02 -0.23912645392E+02  0.59889445260E+02  0.41800000000E+01 0. -1.
        -11    1    4    4    0    0 -0.88961155794E+01 -0.45849063444E+02  0.45456182688E+02  0.65173169599E+02  0.00000000000E+00 0. -1.
         11    1    4    4    0    0 -0.76187022740E+02 -0.71135736445E+02 -0.26657782690E+02  0.10758899949E+03  0.00000000000E+00 0.  1.
</event>
<event>
 8    1  0.7112384E-009  0.7209465E+02  0.7561462E-02  0.1353112E+00
         -1   -1    0    0    0  501 -0.00000000000E+00  0.00000000000E+00  0.15154355481E+03  0.15154355481E+03  0.00000000000E+00 0.  1.
          1   -1    0    0  501    0  0.00000000000E+00 -0.00000000000E+00 -0.90549752595E+02  0.90549752595E+02  0.00000000000E+00 0. -1.
         25    2    1    2    0    0 -0.42789219842E+02 -0.10465193389E+02  0.33288847740E+02  0.13673312366E+03  0.12508941648E+03 0.  0.
         23    2    1    2    0    0  0.42789219842E+02  0.10465193389E+02  0.27704954473E+02  0.10536018374E+03  0.91612041828E+02 0.  0.
          5    1    3    3  502    0 -0.32479028793E+01 -0.31783385236E+02 -0.39574592891E+02  0.51032864437E+02  0.41800000000E+01 0. -1.
         -5    1    3    3    0  502 -0.39541316963E+02  0.21318191848E+02  0.72863440630E+02  0.85700259225E+02  0.41800000000E+01 0. -1.
        -11    1    4    4    0    0  0.41996034216E+02 -0.12543857863E+02 -0.23127571570E+02  0.49557036097E+02  0.00000000000E+00 0. -1.
         11    1    4    4    0    0  0.79318562624E+00  0.23009051252E+02  0.50832526044E+02  0.55803147643E+02  0.00000000000E+00 0.  1.
</event>
<event>
 8    1  0.7112384E-009  0.1308903E+03  0.7561462E-02  0.1226141E+00
          2   -1    0    0  501    0  0.00000000000E+00  0.00000000000E+00  0.10730746657E+04  0.10730746657E+04  0.00000000000E+00 0. -1.
         -2   -1    0    0    0  501 -0.00000000000E+00 -0.00000000000E+00 -0.19379557285E+02  0.19379557285E+02  0.00000000000E+00 0.  1.
         25    2    1    2    0    0  0.69922035420E+02 -0.58794273517E+02  0.65506390084E+03  0.67312845305E+03  0.12508933798E+03 0.  0.
         23    2    1    2    0    0 -0.69922035420E+02  0.58794273517E+02  0.39863120761E+03  0.41932576998E+03  0.92635868058E+02 0.  0.
          5    1    3    3  502    0  0.59867531259E+02  0.28596568888E+02  0.25951407597E+03  0.26789347338E+03  0.41800000000E+01 0. -1.
         -5    1    3    3    0  502  0.10054504161E+02 -0.87390842405E+02  0.39554982488E+03  0.40523497967E+03  0.41800000000E+01 0. -1.
        -11    1    4    4    0    0  0.52302904326E+01  0.23741120608E+02  0.19310829438E+02  0.31046817539E+02  0.00000000000E+00 0.  1.
         11    1    4    4    0    0 -0.75152325852E+02  0.35053152909E+02  0.37932037817E+03  0.38827895244E+03  0.00000000000E+00 0. -1.
</event>
<event>
 8    1  0.7112384E-009  0.1281780E+03  0.7561462E-02  0.1230185E+00
          2   -1    0    0  501    0  0.00000000000E+00  0.00000000000E+00  0.38014915441E+02  0.38014915441E+02  0.00000000000E+00 0.  1.
         -2   -1    0    0    0  501 -0.00000000000E+00 -0.00000000000E+00 -0.60588856909E+03  0.60588856909E+03  0.00000000000E+00 0. -1.
         25    2    1    2    0    0  0.20030524390E+02 -0.72296984236E+02 -0.46386427321E+03  0.48625673275E+03  0.12508984907E+03 0.  0.
         23    2    1    2    0    0 -0.20030524390E+02  0.72296984236E+02 -0.10400938044E+03  0.15764675179E+03  0.91686810899E+02 0.  0.
          5    1    3    3  502    0 -0.41984732175E+02  0.15006757409E+01 -0.80054667513E+02  0.90505204016E+02  0.41800000000E+01 0.  1.
         -5    1    3    3    0  502  0.62015256564E+02 -0.73797659977E+02 -0.38380960570E+03  0.39575152873E+03  0.41800000000E+01 0.  1.
        -11    1    4    4    0    0  0.24378786103E+02 -0.81967531636E+01 -0.15480998385E+02  0.30019548386E+02  0.00000000000E+00 0. -1.
         11    1    4    4    0    0 -0.44409310493E+02  0.80493737400E+02 -0.88528382053E+02  0.12762720340E+03  0.00000000000E+00 0.  1.
</event>
<event>
 8    1  0.7112384E-009  0.1091475E+03  0.7561462E-02  0.1262157E+00
         -1   -1    0    0    0  501 -0.00000000000E+00  0.00000000000E+00  0.52304380447E+03  0.52304380447E+03  0.00000000000E+00 0.  1.
          1   -1    0    0  501    0  0.00000000000E+00 -0.00000000000E+00 -0.41778528497E+02  0.41778528497E+02  0.00000000000E+00 0. -1.
         25    2    1    2    0    0  0.29113117590E+02  0.77138509499E+02  0.36087194390E+03  0.39073516271E+03  0.12508990455E+03 0.  0.
         23    2    1    2    0    0 -0.29113117590E+02 -0.77138509499E+02  0.12039333207E+03  0.17408717026E+03  0.94941377584E+02 0.  0.
          5    1    3    3  502    0  0.26412783884E+02  0.82686366599E+02  0.11204397775E+03  0.14179561250E+03  0.41800000000E+01 0.  1.
         -5    1    3    3    0  502  0.27003337054E+01 -0.55478571002E+01  0.24882796615E+03  0.24893955021E+03  0.41800000000E+01 0.  1.
        -11    1    4    4    0    0 -0.58211504492E+02 -0.23223468789E+02  0.75557764517E+02  0.98167634874E+02  0.00000000000E+00 0.  1.
         11    1    4    4    0    0  0.29098386902E+02 -0.53915040710E+02  0.44835567557E+02  0.75919535386E+02  0.00000000000E+00 0. -1.
</event>
<event>
 8    1  0.7112384E-009  0.1750416E+03  0.7561462E-02  0.1172690E+00
          1   -1    0    0  501    0  0.00000000000E+00  0.00000000000E+00  0.37017611995E+03  0.37017611995E+03  0.00000000000E+00 0. -1.
         -1   -1    0    0    0  501 -0.00000000000E+00 -0.00000000000E+00 -0.11289554202E+03  0.11289554202E+03  0.00000000000E+00 0.  1.
         25    2    1    2    0    0  0.11006439559E+03  0.85694518022E+02  0.25730579733E+03  0.31829530001E+03  0.12509157875E+03 0.  0.
         23    2    1    2    0    0 -0.11006439559E+03 -0.85694518022E+02 -0.25219390877E-01  0.16477636196E+03  0.87712754084E+02 0.  0.
          5    1    3    3  502    0  0.11401195193E+02  0.85753942208E+02  0.14356882057E+03  0.16766992722E+03  0.41800000000E+01 0.  1.
         -5    1    3    3    0  502  0.98663200397E+02 -0.59424186547E-01  0.11373697676E+03  0.15062537279E+03  0.41800000000E+01 0.  1.
        -11    1    4    4    0    0 -0.89956598816E+02 -0.10401591285E+03  0.15512004156E+01  0.13752783725E+03  0.00000000000E+00 0.  1.
         11    1    4    4    0    0 -0.20107796775E+02  0.18321394825E+02 -0.15764198065E+01  0.27248524710E+02  0.00000000000E+00 0. -1.
</event>
<event>
 8    1  0.7112384E-009  0.2607187E+03  0.7561462E-02  0.1106712E+00
         -1   -1    0    0    0  501 -0.00000000000E+00  0.00000000000E+00  0.86311378406E+03  0.86311378406E+03  0.00000000000E+00 0.  1.
          1   -1    0    0  501    0  0.00000000000E+00 -0.00000000000E+00 -0.92761639002E+02  0.92761639002E+02  0.00000000000E+00 0. -1.
         25    2    1    2    0    0  0.19720690495E+03 -0.13429110654E+03  0.57354792775E+03  0.63366382253E+03  0.12509176596E+03 0.  0.
         23    2    1    2    0    0 -0.19720690495E+03  0.13429110654E+03  0.19680421731E+03  0.32221160052E+03  0.90353477556E+02 0.  0.
          5    1    3    3  502    0  0.59800911971E+02 -0.11269917467E+03  0.23087935744E+03  0.26381812511E+03  0.41800000000E+01 0.  1.
         -5    1    3    3    0  502  0.13740599298E+03 -0.21591931865E+02  0.34266857030E+03  0.36984569742E+03  0.41800000000E+01 0.  1.
        -11    1    4    4    0    0 -0.12312763978E+02  0.49885802830E+02  0.47980755765E+02  0.70301852071E+02  0.00000000000E+00 0.  1.
         11    1    4    4    0    0 -0.18489414097E+03  0.84405303707E+02  0.14882346154E+03  0.25190974845E+03  0.00000000000E+00 0. -1.
</event>
<event>
 8    1  0.7112384E-009  0.1258522E+03  0.7561462E-02  0.1233743E+00
         -2   -1    0    0    0  501 -0.00000000000E+00  0.00000000000E+00  0.14379468044E+02  0.14379468044E+02  0.00000000000E+00 0.  1.
          2   -1    0    0  501    0  0.00000000000E+00 -0.00000000000E+00 -0.22310359310E+04  0.22310359310E+04  0.00000000000E+00 0. -1.
         25    2    1    2    0    0 -0.60970568293E+02  0.52548932801E+02 -0.19336707448E+04  0.19393846443E+04  0.12510574984E+03 0.  0.
         23    2    1    2    0    0  0.60970568293E+02 -0.52548932801E+02 -0.28298571818E+03  0.30603075478E+03  0.84232450066E+02 0.  0.
          5    1    3    3  502    0  0.23646327566E+02  0.55479602006E+02 -0.60514556858E+03  0.60815768236E+03  0.41800000000E+01 0. -1.
         -5    1    3    3    0  502 -0.84616895859E+02 -0.29306692050E+01 -0.13285251762E+04  0.13312269619E+04  0.41800000000E+01 0. -1.
        -11    1    4    4    0    0 -0.14932555712E+02 -0.17115476121E+02 -0.12662056022E+03  0.12864170014E+03  0.00000000000E+00 0. -1.
         11    1    4    4    0    0  0.75903124006E+02 -0.35433456680E+02 -0.15636515795E+03  0.17738905465E+03  0.00000000000E+00 0.  1.
</event>
<event>
 8    1  0.7112384E-009  0.1056894E+03  0.7561462E-02  0.1268767E+00
          1   -1    0    0  501    0  0.00000000000E+00  0.00000000000E+00  0.15064507171E+02  0.15064507171E+02  0.00000000000E+00 0. -1.
         -1   -1    0    0    0  501 -0.00000000000E+00 -0.00000000000E+00 -0.82513605989E+03  0.82513605989E+03  0.00000000000E+00 0.  1.
         25    2    1    2    0    0  0.56693552320E+01  0.21613284814E+02 -0.41401847348E+03  0.43307966683E+03  0.12508967091E+03 0.  0.
         23    2    1    2    0    0 -0.56693552320E+01 -0.21613284814E+02 -0.39605307924E+03  0.40712090023E+03  0.91597544520E+02 0.  0.
          5    1    3    3  502    0 -0.19596936903E+00  0.69822252734E+02 -0.31551631033E+03  0.32317673163E+03  0.41800000000E+01 0.  1.
         -5    1    3    3    0  502  0.58653246010E+01 -0.48208967920E+02 -0.98502163151E+02  0.10990293520E+03  0.41800000000E+01 0.  1.
        -11    1    4    4    0    0  0.41075708078E+02 -0.20551436054E+02 -0.23361695249E+03  0.23808917617E+03  0.00000000000E+00 0.  1.
         11    1    4    4    0    0 -0.46745063310E+02 -0.10618487606E+01 -0.16243612674E+03  0.16903172406E+03  0.00000000000E+00 0. -1.
</event>
<event>
 8    1  0.7112384E-009  0.7774189E+02  0.7561462E-02  0.1335585E+00
         -3   -1    0    0    0  501 -0.00000000000E+00  0.00000000000E+00  0.94664039934E+02  0.94664039934E+02  0.00000000000E+00 0.  1.
          3   -1    0    0  501    0  0.00000000000E+00 -0.00000000000E+00 -0.18301971210E+03  0.18301971210E+03  0.00000000000E+00 0. -1.
         25    2    1    2    0    0  0.53492306695E+02  0.21418071678E+02 -0.95432338753E+02  0.16755782045E+03  0.12509249076E+03 0.  0.
         23    2    1    2    0    0 -0.53492306695E+02 -0.21418071678E+02  0.70766665872E+01  0.11012593158E+03  0.93581413362E+02 0.  0.
          5    1    3    3  502    0  0.57936315431E+02  0.18299706720E+02 -0.12401691470E+03  0.13816353877E+03  0.41800000000E+01 0.  1.
         -5    1    3    3    0  502 -0.44440087357E+01  0.31183649581E+01  0.28584575950E+02  0.29394281687E+02  0.41800000000E+01 0.  1.
        -11    1    4    4    0    0 -0.30574075738E+02 -0.45286351231E+02 -0.28426791076E+02  0.61593101610E+02  0.00000000000E+00 0. -1.
         11    1    4    4    0    0 -0.22918230957E+02  0.23868279553E+02  0.35503457663E+02  0.48532829972E+02  0.00000000000E+00 0.  1.
</event>
<event>
 8    1  0.7112384E-009  0.1187867E+03  0.7561462E-02  0.1245112E+00
         -2   -1    0    0    0  501 -0.00000000000E+00  0.00000000000E+00  0.71857508304E+02  0.71857508304E+02  0.00000000000E+00 0.  1.
          2   -1    0    0  501    0  0.00000000000E+00 -0.00000000000E+00 -0.22436164054E+03  0.22436164054E+03  0.00000000000E+00 0. -1.
         25    2    1    2    0    0 -0.51909412670E+02  0.39444869183E+02 -0.65678454967E+02  0.15560114313E+03  0.12509025329E+03 0.  0.
         23    2    1    2    0    0  0.51909412670E+02 -0.39444869183E+02 -0.86825677268E+02  0.14061800571E+03  0.89354577217E+02 0.  0.
          5    1    3    3  502    0 -0.78552091209E+02 -0.15055878554E+02 -0.41006527329E+02  0.89978431838E+02  0.41800000000E+01 0.  1.
         -5    1    3    3    0  502  0.26642678539E+02  0.54500747737E+02 -0.24671927638E+02  0.65622711290E+02  0.41800000000E+01 0.  1.
        -11    1    4    4    0    0 -0.34240521063E+01 -0.41171631664E+02 -0.47065165631E+01  0.41580989465E+02  0.00000000000E+00 0.  1.
         11    1    4    4    0    0  0.55333464776E+02  0.17267624814E+01 -0.82119160705E+02  0.99037016250E+02  0.00000000000E+00 0. -1.
</event>
<event>
 8    1  0.7112384E-009  0.8347261E+02  0.7561462E-02  0.1319476E+00
         -1   -1    0    0    0  501 -0.00000000000E+00  0.00000000000E+00  0.66279137902E+02  0.66279137902E+02  0.00000000000E+00 0.  1.
          1   -1    0    0  501    0  0.00000000000E+00 -0.00000000000E+00 -0.24070640493E+03  0.24070640493E+03  0.00000000000E+00 0. -1.
         25    2    1    2    0    0  0.58324331542E+02  0.17802248272E+01 -0.13156931743E+03  0.19069108435E+03  0.12509079707E+03 0.  0.
         23    2    1    2    0    0 -0.58324331542E+02 -0.17802248272E+01 -0.42857949594E+02  0.11629445848E+03  0.91009342266E+02 0.  0.
          5    1    3    3  502    0  0.20720674641E+02  0.69567942965E+01  0.22686403129E+02  0.31778744963E+02  0.41800000000E+01 0. -1.
         -5    1    3    3    0  502  0.37603656900E+02 -0.51765694693E+01 -0.15425572056E+03  0.15891233939E+03  0.41800000000E+01 0. -1.
        -11    1    4    4    0    0  0.26607362876E+01 -0.36319855127E+02 -0.24340572203E+02  0.43802680845E+02  0.00000000000E+00 0.  1.
         11    1    4    4    0    0 -0.60985067829E+02  0.34539630299E+02 -0.18517377391E+02  0.72491777636E+02  0.00000000000E+00 0. -1.
</event>
<event>
 8    1  0.7112384E-009  0.1678219E+03  0.7561462E-02  0.1180139E+00
         -4   -1    0    0    0  501 -0.00000000000E+00  0.00000000000E+00  0.16159257219E+03  0.16159257219E+03  0.00000000000E+00 0.  1.
          4   -1    0    0  501    0  0.00000000000E+00 -0.00000000000E+00 -0.23826220498E+03  0.23826220498E+03  0.00000000000E+00 0. -1.
         25    2    1    2    0    0 -0.35497369585E+02  0.15616604562E+03 -0.59247552125E+01  0.20329986220E+03  0.12509130342E+03 0.  0.
         23    2    1    2    0    0  0.35497369585E+02 -0.15616604562E+03 -0.70744877586E+02  0.19655491497E+03  0.89337001536E+02 0.  0.
          5    1    3    3  502    0 -0.21651528622E+02  0.85032339591E+02  0.59075505871E+02  0.10586158539E+03  0.41800000000E+01 0.  1.
         -5    1    3    3    0  502 -0.13845840963E+02  0.71133706030E+02 -0.65000261084E+02  0.97438276804E+02  0.41800000000E+01 0.  1.
        -11    1    4    4    0    0 -0.18058225066E+02 -0.80546960576E+02 -0.62475781430E+02  0.10352359932E+03  0.00000000000E+00 0. -1.
         11    1    4    4    0    0  0.53555594650E+02 -0.75619085045E+02 -0.82690961562E+01  0.93031315655E+02  0.00000000000E+00 0.  1.
</event>
<event>
 8    1  0.7112384E-009  0.1147982E+03  0.7561462E-02  0.1251934E+00
          2   -1    0    0  501    0  0.00000000000E+00  0.00000000000E+00  0.39223564426E+03  0.39223564426E+03  0.00000000000E+00 0. -1.
         -2   -1    0    0    0  501 -0.00000000000E+00 -0.00000000000E+00 -0.46233732704E+02  0.46233732704E+02  0.00000000000E+00 0.  1.
         25    2    1    2    0    0 -0.57011652404E+02 -0.48981542229E+02  0.22667124246E+03  0.26958671389E+03  0.12509046389E+03 0.  0.
         23    2    1    2    0    0  0.57011652404E+02  0.48981542229E+02  0.11933066909E+03  0.16888266308E+03  0.92908693421E+02 0.  0.
          5    1    3    3  502    0  0.25005506435E+02 -0.41956909594E+01  0.13909058471E+03  0.14144448497E+03  0.41800000000E+01 0. -1.
         -5    1    3    3    0  502 -0.82017158839E+02 -0.44785851270E+02  0.87580657754E+02  0.12814222891E+03  0.41800000000E+01 0. -1.
        -11    1    4    4    0    0  0.17219849232E+02 -0.22627858766E+02  0.60298894084E+01  0.29067211187E+02  0.00000000000E+00 0.  1.
         11    1    4    4    0    0  0.39791803172E+02  0.71609400995E+02  0.11330077968E+03  0.13981545189E+03  0.00000000000E+00 0. -1.
</event>
<event>
 8    1  0.7112384E-009  0.1147911E+03  0.7561462E-02  0.1251946E+00
          1   -1    0    0  501    0  0.00000000000E+00  0.00000000000E+00  0.72080161189E+03  0.72080161189E+03  0.00000000000E+00 0. -1.
         -1   -1    0    0    0  501 -0.00000000000E+00 -0.00000000000E+00 -0.31814603442E+02  0.31814603442E+02  0.00000000000E+00 0.  1.
         25    2    1    2    0    0  0.10927569706E+01 -0.10563230407E+03  0.38329108106E+03  0.41679537852E+03  0.12508779697E+03 0.  0.
         23    2    1    2    0    0 -0.10927569706E+01  0.10563230407E+03  0.30569592738E+03  0.33582083681E+03  0.90367342760E+02 0.  0.
          5    1    3    3  502    0 -0.19313850746E+02 -0.93756607664E+02  0.38082181253E+03  0.39269078371E+03  0.41800000000E+01 0. -1.
         -5    1    3    3    0  502  0.20406607717E+02 -0.11875696409E+02  0.24692685297E+01  0.24104594806E+02  0.41800000000E+01 0. -1.
        -11    1    4    4    0    0 -0.15500078154E+02  0.53142437318E+02  0.50652144115E+02  0.75033397700E+02  0.00000000000E+00 0.  1.
         11    1    4    4    0    0  0.14407321183E+02  0.52489866754E+02  0.25504378327E+03  0.26078743911E+03  0.00000000000E+00 0. -1.
</event>
<event>
 8    1  0.7112384E-009  0.1118540E+03  0.7561462E-02  0.1257175E+00
         -2   -1    0    0    0  501 -0.00000000000E+00  0.00000000000E+00  0.63471518598E+02  0.63471518598E+02  0.00000000000E+00 0.  1.
          2   -1    0    0  501    0  0.00000000000E+00 -0.00000000000E+00 -0.32487737684E+03  0.32487737684E+03  0.00000000000E+00 0. -1.
         25    2    1    2    0    0  0.68071776126E+02  0.42402992875E+02 -0.82025186027E+02  0.16972596016E+03  0.12508792867E+03 0.  0.
         23    2    1    2    0    0 -0.68071776126E+02 -0.42402992875E+02 -0.17938067222E+03  0.21862293528E+03  0.95847700836E+02 0.  0.
          5    1    3    3  502    0 -0.25134013159E+02  0.12485759007E+02  0.14778040527E+02  0.31991806408E+02  0.41800000000E+01 0.  1.
         -5    1    3    3    0  502  0.93205789285E+02  0.29917233868E+02 -0.96803226554E+02  0.13773415375E+03  0.41800000000E+01 0.  1.
        -11    1    4    4    0    0 -0.51348479438E+02  0.45463923523E+00 -0.16115666431E+03  0.16914001149E+03  0.00000000000E+00 0. -1.
         11    1    4    4    0    0 -0.16723296688E+02 -0.42857632110E+02 -0.18224007911E+02  0.49482923787E+02  0.00000000000E+00 0.  1.
</event>
<event>
 8    1  0.7112384E-009  0.1891337E+03  0.7561462E-02  0.1159245E+00
          1   -1    0    0  501    0  0.00000000000E+00  0.00000000000E+00  0.45783864424E+03  0.45783864424E+03  0.00000000000E+00 0. -1.
         -1   -1    0    0    0  501 -0.00000000000E+00 -0.00000000000E+00 -0.85114600550E+02  0.85114600550E+02  0.00000000000E+00 0.  1.
         25    2    1    2    0    0 -0.58376293036E+01  0.16491500118E+03  0.19973937835E+03  0.28770513059E+03  0.12508951744E+03 0.  0.
         23    2    1    2    0    0  0.58376293036E+01 -0.16491500118E+03  0.17298466534E+03  0.25524811420E+03  0.89425219206E+02 0.  0.
          5    1    3    3  502    0 -0.39019897737E+02  0.45928545677E+01  0.19128573672E+02  0.43897852604E+02  0.41800000000E+01 0.  1.
         -5    1    3    3    0  502  0.33182268433E+02  0.16032214661E+03  0.18061080468E+03  0.24380727799E+03  0.41800000000E+01 0.  1.
        -11    1    4    4    0    0  0.27394121221E+02 -0.41677027399E+02  0.11878506820E+02  0.51269010275E+02  0.00000000000E+00 0.  1.
         11    1    4    4    0    0 -0.21556491917E+02 -0.12323797378E+03  0.16110615852E+03  0.20397910392E+03  0.00000000000E+00 0. -1.
</event>
<event>
 8    1  0.7112384E-009  0.1005877E+03  0.7561462E-02  0.1279065E+00
          2   -1    0    0  501    0  0.00000000000E+00  0.00000000000E+00  0.45080558061E+03  0.45080558061E+03  0.00000000000E+00 0. -1.
         -2   -1    0    0    0  501 -0.00000000000E+00 -0.00000000000E+00 -0.30938327076E+02  0.30938327076E+02  0.00000000000E+00 0.  1.
         25    2    1    2    0    0 -0.17960972609E+02  0.15863456167E+02  0.15156627827E+03  0.19797895947E+03  0.12509630652E+03 0.  0.
         23    2    1    2    0    0  0.17960972609E+02 -0.15863456167E+02  0.26830097526E+03  0.28376494821E+03  0.89235008424E+02 0.  0.
          5    1    3    3  502    0  0.44658413699E+02  0.61698259920E+01  0.15555243049E+02  0.47873569463E+02  0.41800000000E+01 0. -1.
         -5    1    3    3    0  502 -0.62619386308E+02  0.96936301750E+01  0.13601103522E+03  0.15010539001E+03  0.41800000000E+01 0. -1.
        -11    1    4    4    0    0 -0.25687999861E+02  0.22603033253E+02  0.99610684523E+02  0.10532359147E+03  0.00000000000E+00 0. -1.
         11    1    4    4    0    0  0.43648972470E+02 -0.38466489420E+02  0.16869029074E+03  0.17844135674E+03  0.00000000000E+00 0.  1.
</event>
<event>
 8    1  0.7112384E-009  0.8944190E+02  0.7561462E-02  0.1304209E+00
          2   -1    0    0  501    0  0.00000000000E+00  0.00000000000E+00  0.22329687457E+03  0.22329687457E+03  0.00000000000E+00 0. -1.
         -2   -1    0    0    0  501 -0.00000000000E+00 -0.00000000000E+00 -0.56399671387E+02  0.56399671387E+02  0.00000000000E+00 0.  1.
         25    2    1    2    0    0 -0.90932429178E+01 -0.64141031620E+00  0.13341350727E+03  0.18311166128E+03  0.12509043969E+03 0.  0.
         23    2    1    2    0    0  0.90932429178E+01  0.64141031620E+00  0.33483695914E+02  0.96584884675E+02  0.90135362548E+02 0.  0.
          5    1    3    3  502    0 -0.56384572892E+02  0.18818959005E+02  0.11327356804E+03  0.12799119850E+03  0.41800000000E+01 0.  1.
         -5    1    3    3    0  502  0.47291329975E+02 -0.19460369321E+02  0.20139939234E+02  0.55120462781E+02  0.41800000000E+01 0.  1.
        -11    1    4    4    0    0  0.31728804516E+02  0.20581650142E+02 -0.14001421070E+02  0.40328168203E+02  0.00000000000E+00 0.  1.
         11    1    4    4    0    0 -0.22635561598E+02 -0.19940239826E+02  0.47485116984E+02  0.56256716472E+02  0.00000000000E+00 0. -1.
</event>
<event>
 8    1  0.7112384E-009  0.1090484E+03  0.7561462E-02  0.1262342E+00
          1   -1    0    0  501    0  0.00000000000E+00  0.00000000000E+00  0.10950727542E+03  0.10950727542E+03  0.00000000000E+00 0. -1.
         -1   -1    0    0    0  501 -0.00000000000E+00 -0.00000000000E+00 -0.15483392899E+03  0.15483392899E+03  0.00000000000E+00 0.  1.
         25    2    1    2    0    0  0.45592263599E+02  0.54311406610E+02 -0.10144463370E+02  0.14414718199E+03  0.12508843492E+03 0.  0.
         23    2    1    2    0    0 -0.45592263599E+02 -0.54311406610E+02 -0.35182190202E+02  0.12019402241E+03  0.90445746878E+02 0.  0.
          5    1    3    3  502    0  0.29457693231E+02  0.93396690024E+02  0.71278791290E+01  0.98280091874E+02  0.41800000000E+01 0.  1.
         -5    1    3    3    0  502  0.16134570368E+02 -0.39085283414E+02 -0.17272342499E+02  0.45867090118E+02  0.41800000000E+01 0.  1.
        -11    1    4    4    0    0 -0.12006163332E+02 -0.38752861510E+02 -0.62274334266E+02  0.74323784493E+02  0.00000000000E+00 0.  1.
         11    1    4    4    0    0 -0.33586100267E+02 -0.15558545100E+02  0.27092144064E+02  0.45870237920E+02  0.00000000000E+00 0. -1.
</event>
<event>
 8    1  0.7112384E-009  0.1311002E+03  0.7561462E-02  0.1225832E+00
         -1   -1    0    0    0  501 -0.00000000000E+00  0.00000000000E+00  0.64197242648E+02  0.64197242648E+02  0.00000000000E+00 0.  1.
          1   -1    0    0  501    0  0.00000000000E+00 -0.00000000000E+00 -0.40929393509E+03  0.40929393509E+03  0.00000000000E+00 0. -1.
         25    2    1    2    0    0  0.68862263608E+02  0.48199058747E+02 -0.30635859067E+03  0.34142264394E+03  0.12509466455E+03 0.  0.
         23    2    1    2    0    0 -0.68862263608E+02 -0.48199058747E+02 -0.38738101772E+02  0.13206853380E+03  0.94214099152E+02 0.  0.
          5    1    3    3  502    0  0.27849831666E+02  0.87774428955E+02 -0.16601792359E+03  0.18989309323E+03  0.41800000000E+01 0.  1.
         -5    1    3    3    0  502  0.41012431942E+02 -0.39575370208E+02 -0.14034066708E+03  0.15152955071E+03  0.41800000000E+01 0.  1.
        -11    1    4    4    0    0 -0.49563594827E+02  0.10860755032E+02  0.11664110567E+02  0.52063013813E+02  0.00000000000E+00 0.  1.
         11    1    4    4    0    0 -0.19298668781E+02 -0.59059813779E+02 -0.50402212340E+02  0.80005519992E+02  0.00000000000E+00 0. -1.
</event>
<event>
 8    1  0.7112384E-009  0.1276232E+03  0.7561462E-02  0.1231026E+00
         -1   -1    0    0    0  501 -0.00000000000E+00  0.00000000000E+00  0.13260629456E+04  0.13260629456E+04  0.00000000000E+00 0.  1.
          1   -1    0    0  501    0  0.00000000000E+00 -0.00000000000E+00 -0.12622066183E+02  0.12622066183E+02  0.00000000000E+00 0. -1.
         25    2    1    2    0    0 -0.93559789168E+01 -0.67708850308E+02  0.77204077691E+03  0.78508949951E+03  0.12508612345E+03 0.  0.
         23    2    1    2    0    0  0.93559789168E+01  0.67708850308E+02  0.54140010253E+03  0.55359551229E+03  0.93176700202E+02 0.  0.
          5    1    3    3  502    0 -0.18291759154E+02  0.34351177665E+02  0.25408039168E+03  0.25707763360E+03  0.41800000000E+01 0.  1.
         -5    1    3    3    0  502  0.89357802377E+01 -0.10206002797E+03  0.51796038523E+03  0.52801186591E+03  0.41800000000E+01 0.  1.
        -11    1    4    4    0    0 -0.38350522130E+02  0.49239463322E+02  0.24570729138E+03  0.25351007935E+03  0.00000000000E+00 0.  1.
         11    1    4    4    0    0  0.47706501047E+02  0.18469386986E+02  0.29569281115E+03  0.30008543294E+03  0.00000000000E+00 0. -1.
</event>
<event>
 8    1  0.7112384E-009  0.1160370E+03  0.7561462E-02  0.1249782E+00
         -2   -1    0    0    0  501 -0.00000000000E+00  0.00000000000E+00  0.16077514432E+02  0.16077514432E+02  0.00000000000E+00 0.  1.
          2   -1    0    0  501    0  0.00000000000E+00 -0.00000000000E+00 -0.95828571074E+03  0.95828571074E+03  0.00000000000E+00 0. -1.
         25    2    1    2    0    0 -0.10006342446E+02 -0.43748148091E+02 -0.68228572459E+03  0.69510803909E+03  0.12508936277E+03 0.  0.
         23    2    1    2    0    0  0.10006342446E+02  0.43748148091E+02 -0.25992247171E+03  0.27925518608E+03  0.91704636189E+02 0.  0.
          5    1    3    3  502    0  0.27787112068E+02 -0.75679427881E+02 -0.35396771307E+03  0.36305662602E+03  0.41800000000E+01 0. -1.
         -5    1    3    3    0  502 -0.37793454514E+02  0.31931279790E+02 -0.32831801152E+03  0.33205141307E+03  0.41800000000E+01 0. -1.
        -11    1    4    4    0    0 -0.28511083944E+02 -0.14403059661E+02 -0.93545795216E+02  0.98849106409E+02  0.00000000000E+00 0. -1.
         11    1    4    4    0    0  0.38517426390E+02  0.58151207752E+02 -0.16637667650E+03  0.18040607967E+03  0.00000000000E+00 0.  1.
</event>
<event>
 8    1  0.7112384E-009  0.1133077E+03  0.7561462E-02  0.1254564E+00
         -2   -1    0    0    0  501 -0.00000000000E+00  0.00000000000E+00  0.13349956972E+03  0.13349956972E+03  0.00000000000E+00 0.  1.
          2   -1    0    0  501    0  0.00000000000E+00 -0.00000000000E+00 -0.13990052935E+03  0.13990052935E+03  0.00000000000E+00 0. -1.
         25    2    1    2    0    0 -0.45809893279E+02  0.25895908599E+02 -0.68134190824E+02  0.15185655601E+03  0.12509596812E+03 0.  0.
         23    2    1    2    0    0  0.45809893279E+02 -0.25895908599E+02  0.61733231190E+02  0.12154354306E+03  0.90513516239E+02 0.  0.
          5    1    3    3  502    0 -0.43947702684E+02 -0.40655764784E+02 -0.53559639574E+01  0.60253220090E+02  0.41800000000E+01 0.  1.
         -5    1    3    3    0  502 -0.18621905950E+01  0.66551673382E+02 -0.62778226867E+02  0.91603335924E+02  0.41800000000E+01 0.  1.
        -11    1    4    4    0    0  0.23811018865E+02 -0.57012071906E+02  0.19795448412E+02  0.64878353403E+02  0.00000000000E+00 0.  1.
         11    1    4    4    0    0  0.21998874414E+02  0.31116163308E+02  0.41937782778E+02  0.56665189656E+02  0.00000000000E+00 0. -1.
</event>
<event>
 8    1  0.7112384E-009  0.1714396E+03  0.7561462E-02  0.1176355E+00
          2   -1    0    0  501    0  0.00000000000E+00  0.00000000000E+00  0.20131773911E+04  0.20131773911E+04  0.00000000000E+00 0. -1.
         -2   -1    0    0    0  501 -0.00000000000E+00 -0.00000000000E+00 -0.17264920878E+02  0.17264920878E+02  0.00000000000E+00 0.  1.
         25    2    1    2    0    0  0.12514746874E+03 -0.90487091344E+02  0.11224052975E+04  0.11398645682E+04  0.12509108401E+03 0.  0.
         23    2    1    2    0    0 -0.12514746874E+03  0.90487091344E+02  0.87350717268E+03  0.89057774376E+03  0.79146284342E+02 0.  0.
          5    1    3    3  502    0  0.89836154381E+02 -0.22254964718E+02  0.89527687351E+03  0.90005775966E+03  0.41800000000E+01 0.  1.
         -5    1    3    3    0  502  0.35311314359E+02 -0.68232126626E+02  0.22712842401E+03  0.23980680853E+03  0.41800000000E+01 0.  1.
        -11    1    4    4    0    0 -0.86193684902E+02  0.13817982515E+02  0.41650370808E+03  0.42555331840E+03  0.00000000000E+00 0. -1.
         11    1    4    4    0    0 -0.38953783839E+02  0.76669108829E+02  0.45700346461E+03  0.46502442536E+03  0.00000000000E+00 0.  1.
</event>
<event>
 8    1  0.7112384E-009  0.1499162E+03  0.7561462E-02  0.1200576E+00
          3   -1    0    0  501    0  0.00000000000E+00  0.00000000000E+00  0.30160257690E+03  0.30160257690E+03  0.00000000000E+00 0. -1.
         -3   -1    0    0    0  501 -0.00000000000E+00 -0.00000000000E+00 -0.89383548858E+02  0.89383548858E+02  0.00000000000E+00 0.  1.
         25    2    1    2    0    0  0.10855381581E+03 -0.49074103826E+02  0.76808188630E+02  0.18904585182E+03  0.12508652068E+03 0.  0.
         23    2    1    2    0    0 -0.10855381581E+03  0.49074103826E+02  0.13541083942E+03  0.20194027394E+03  0.90838208997E+02 0.  0.
          5    1    3    3  502    0  0.53101383405E+02  0.27018286272E+02 -0.10419123516E+02  0.60628172061E+02  0.41800000000E+01 0. -1.
         -5    1    3    3    0  502  0.55452432408E+02 -0.76092390098E+02  0.87227312145E+02  0.12841767976E+03  0.41800000000E+01 0. -1.
        -11    1    4    4    0    0 -0.85826437226E+02 -0.62451438012E+01  0.56568786407E+02  0.10298158449E+03  0.00000000000E+00 0.  1.
         11    1    4    4    0    0 -0.22727378587E+02  0.55319247628E+02  0.78842053009E+02  0.98958689453E+02  0.00000000000E+00 0. -1.
</event>
<event>
 8    1  0.7112384E-009  0.1059494E+03  0.7561462E-02  0.1268260E+00
          1   -1    0    0  501    0  0.00000000000E+00  0.00000000000E+00  0.10135075890E+03  0.10135075890E+03  0.00000000000E+00 0. -1.
         -1   -1    0    0    0  501 -0.00000000000E+00 -0.00000000000E+00 -0.19235606605E+03  0.19235606605E+03  0.00000000000E+00 0.  1.
         25    2    1    2    0    0 -0.65238402191E+02 -0.46141778498E+02 -0.85891702740E+02  0.17149394129E+03  0.12509066494E+03 0.  0.
         23    2    1    2    0    0  0.65238402191E+02  0.46141778498E+02 -0.51136044051E+01  0.12221288366E+03  0.92329448929E+02 0.  0.
          5    1    3    3  502    0 -0.28409764395E+02  0.22620709322E+02  0.18612508675E+02  0.41020837173E+02  0.41800000000E+01 0. -1.
         -5    1    3    3    0  502 -0.36828637796E+02 -0.68762487820E+02 -0.10450421142E+03  0.13047310411E+03  0.41800000000E+01 0. -1.
        -11    1    4    4    0    0  0.59696918807E+02  0.98366186420E+01  0.33306120200E+02  0.69063585370E+02  0.00000000000E+00 0. -1.
         11    1    4    4    0    0  0.55414833837E+01  0.36305159856E+02 -0.38419724605E+02  0.53149298292E+02  0.00000000000E+00 0.  1.
</event>
<event>
 8    1  0.7112384E-009  0.1106155E+03  0.7561462E-02  0.1259434E+00
         -1   -1    0    0    0  501 -0.00000000000E+00  0.00000000000E+00  0.30787672466E+02  0.30787672466E+02  0.00000000000E+00 0.  1.
          1   -1    0    0  501    0  0.00000000000E+00 -0.00000000000E+00 -0.68725340197E+03  0.68725340197E+03  0.00000000000E+00 0. -1.
         25    2    1    2    0    0  0.66613180005E+02  0.55124140849E+02 -0.44909330788E+03  0.47413992236E+03  0.12509148709E+03 0.  0.
         23    2    1    2    0    0 -0.66613180005E+02 -0.55124140849E+02 -0.20737242163E+03  0.24390115208E+03  0.94912928928E+02 0.  0.
          5    1    3    3  502    0  0.77274979137E+02  0.70885172786E+02 -0.21508772968E+03  0.23932474585E+03  0.41800000000E+01 0. -1.
         -5    1    3    3    0  502 -0.10661799132E+02 -0.15761031936E+02 -0.23400557820E+03  0.23481517651E+03  0.41800000000E+01 0. -1.
        -11    1    4    4    0    0 -0.43841111057E+02 -0.81387969003E+01 -0.19075223615E+02  0.48498940088E+02  0.00000000000E+00 0.  1.
         11    1    4    4    0    0 -0.22772068947E+02 -0.46985343949E+02 -0.18829719801E+03  0.19540221199E+03  0.00000000000E+00 0. -1.
</event>
<event>
 8    1  0.7112384E-009  0.4514446E+03  0.7561462E-02  0.1027292E+00
         -2   -1    0    0    0  501 -0.00000000000E+00  0.00000000000E+00  0.18332986331E+03  0.18332986331E+03  0.00000000000E+00 0.  1.
          2   -1    0    0  501    0  0.00000000000E+00 -0.00000000000E+00 -0.11747033514E+04  0.11747033514E+04  0.00000000000E+00 0. -1.
         25    2    1    2    0    0 -0.41647713849E+03 -0.14668238965E+03 -0.37157306467E+03  0.59049384424E+03  0.12508999714E+03 0.  0.
         23    2    1    2    0    0  0.41647713849E+03  0.14668238965E+03 -0.61980042344E+03  0.76753937048E+03  0.99975947170E+02 0.  0.
          5    1    3    3  502    0  0.81066720176E+01 -0.41262383881E+01 -0.14810574790E+02  0.17876506931E+02  0.41800000000E+01 0.  1.
         -5    1    3    3    0  502 -0.42458381051E+03 -0.14255615126E+03 -0.35676248988E+03  0.57261733731E+03  0.41800000000E+01 0.  1.
        -11    1    4    4    0    0  0.18867942007E+03  0.37497255055E+02 -0.19930313874E+03  0.27699766931E+03  0.00000000000E+00 0.  1.
         11    1    4    4    0    0  0.22779771842E+03  0.10918513460E+03 -0.42049728471E+03  0.49054170116E+03  0.00000000000E+00 0. -1.
</event>
<event>
 8    1  0.7112384E-009  0.2116525E+03  0.7561462E-02  0.1140264E+00
          2   -1    0    0  501    0  0.00000000000E+00  0.00000000000E+00  0.35297620594E+03  0.35297620594E+03  0.00000000000E+00 0. -1.
         -2   -1    0    0    0  501 -0.00000000000E+00 -0.00000000000E+00 -0.41402580158E+03  0.41402580158E+03  0.00000000000E+00 0.  1.
         25    2    1    2    0    0 -0.80717818279E+02  0.18582358561E+03  0.27469371885E+03  0.36352369640E+03  0.12508823891E+03 0.  0.
         23    2    1    2    0    0  0.80717818279E+02 -0.18582358561E+03 -0.33574331449E+03  0.40347831112E+03  0.95002121901E+02 0.  0.
          5    1    3    3  502    0 -0.46853648132E+02  0.21737651943E+02  0.13748254136E+03  0.14692416899E+03  0.41800000000E+01 0.  1.
         -5    1    3    3    0  502 -0.33864170147E+02  0.16408593367E+03  0.13721117750E+03  0.21659952742E+03  0.41800000000E+01 0.  1.
        -11    1    4    4    0    0  0.28484916303E+02 -0.40911667380E+02 -0.17021422322E+03  0.17736413609E+03  0.00000000000E+00 0.  1.
         11    1    4    4    0    0  0.52232901976E+02 -0.14491191823E+03 -0.16552909126E+03  0.22611417503E+03  0.00000000000E+00 0. -1.
</event>
<event>
 8    1  0.7112384E-009  0.1058309E+03  0.7561462E-02  0.1268491E+00
         -2   -1    0    0    0  501 -0.00000000000E+00  0.00000000000E+00  0.11852374679E+03  0.11852374679E+03  0.00000000000E+00 0.  1.
          2   -1    0    0  501    0  0.00000000000E+00 -0.00000000000E+00 -0.11300091724E+03  0.11300091724E+03  0.00000000000E+00 0. -1.
         25    2    1    2    0    0  0.19977376386E+02  0.12267439786E+02  0.21980756347E+01  0.12729520481E+03  0.12509856908E+03 0.  0.
         23    2    1    2    0    0 -0.19977376386E+02 -0.12267439786E+02  0.33247539211E+01  0.10422945922E+03  0.10150438678E+03 0.  0.
          5    1    3    3  502    0 -0.42808413660E+02  0.14128319456E+02 -0.32201832518E+02  0.55557178729E+02  0.41800000000E+01 0. -1.
         -5    1    3    3    0  502  0.62785790047E+02 -0.18608796708E+01  0.34399908153E+02  0.71738026080E+02  0.41800000000E+01 0. -1.
        -11    1    4    4    0    0 -0.57941543065E+02  0.10905508487E+02 -0.42479227912E+01  0.59111736365E+02  0.00000000000E+00 0.  1.
         11    1    4    4    0    0  0.37964166679E+02 -0.23172948272E+02  0.75726767123E+01  0.45117722857E+02  0.00000000000E+00 0. -1.
</event>
<event>
 8    1  0.7112384E-009  0.1228356E+03  0.7561462E-02  0.1238491E+00
          1   -1    0    0  501    0  0.00000000000E+00  0.00000000000E+00  0.49443992914E+02  0.49443992914E+02  0.00000000000E+00 0. -1.
         -1   -1    0    0    0  501 -0.00000000000E+00 -0.00000000000E+00 -0.77236470622E+03  0.77236470622E+03  0.00000000000E+00 0.  1.
         25    2    1    2    0    0  0.11030809603E+03  0.41713540612E+02 -0.61525873031E+03  0.63882647701E+03  0.12509223391E+03 0.  0.
         23    2    1    2    0    0 -0.11030809603E+03 -0.41713540612E+02 -0.10766198299E+03  0.18298222212E+03  0.89350408568E+02 0.  0.
          5    1    3    3  502    0  0.71893767876E+02  0.16520707576E+02 -0.11659956317E+03  0.13803832138E+03  0.41800000000E+01 0. -1.
         -5    1    3    3    0  502  0.38414328152E+02  0.25192833037E+02 -0.49865916714E+03  0.50078815563E+03  0.41800000000E+01 0. -1.
        -11    1    4    4    0    0 -0.70651972223E+02 -0.48126160982E+02 -0.21851715285E+02  0.88234494450E+02  0.00000000000E+00 0. -1.
         11    1    4    4    0    0 -0.39656123805E+02  0.64126203695E+01 -0.85810267707E+02  0.94747727673E+02  0.00000000000E+00 0.  1.
</event>
<event>
 8    1  0.7112384E-009  0.9570091E+02  0.7561462E-02  0.1289605E+00
         -1   -1    0    0    0  501 -0.00000000000E+00  0.00000000000E+00  0.23978777611E+03  0.23978777611E+03  0.00000000000E+00 0.  1.
          1   -1    0    0  501    0  0.00000000000E+00 -0.00000000000E+00 -0.63247231041E+02  0.63247231041E+02  0.00000000000E+00 0. -1.
         25    2    1    2    0    0  0.29060828093E+02 -0.24790240738E+02  0.43473636623E+02  0.13783046821E+03  0.12509273809E+03 0.  0.
         23    2    1    2    0    0 -0.29060828093E+02  0.24790240738E+02  0.13306690845E+03  0.16520453894E+03  0.90147932848E+02 0.  0.
          5    1    3    3  502    0 -0.34614845758E+02 -0.49732498059E+02  0.99213863353E+01  0.61541979305E+02  0.41800000000E+01 0. -1.
         -5    1    3    3    0  502  0.63675673851E+02  0.24942257321E+02  0.33552250288E+02  0.76288488909E+02  0.41800000000E+01 0. -1.
        -11    1    4    4    0    0  0.41217700949E+00  0.31842974286E+02  0.13101527894E+03  0.13483007164E+03  0.00000000000E+00 0.  1.
         11    1    4    4    0    0 -0.29473005102E+02 -0.70527335488E+01  0.20516295062E+01  0.30374467302E+02  0.00000000000E+00 0. -1.
</event>
<event>
 8    1  0.7112384E-009  0.1050581E+03  0.7561462E-02  0.1270005E+00
          1   -1    0    0  501    0  0.00000000000E+00  0.00000000000E+00  0.68054623823E+03  0.68054623823E+03  0.00000000000E+00 0. -1.
         -1   -1    0    0    0  501 -0.00000000000E+00 -0.00000000000E+00 -0.20369562590E+02  0.20369562590E+02  0.00000000000E+00 0.  1.
         25    2    1    2    0    0 -0.14324895107E+02 -0.11183319457E+02  0.50696814005E+03  0.52248826865E+03  0.12508807539E+03 0.  0.
         23    2    1    2    0    0  0.14324895107E+02  0.11183319457E+02  0.15320853560E+03  0.17842753217E+03  0.89628453085E+02 0.  0.
          5    1    3    3  502    0 -0.64184757350E+02  0.19807967731E+02  0.25418634738E+03  0.26294526095E+03  0.41800000000E+01 0.  1.
         -5    1    3    3    0  502  0.49859862244E+02 -0.30991287188E+02  0.25278179267E+03  0.25954300771E+03  0.41800000000E+01 0.  1.
        -11    1    4    4    0    0  0.15989018047E+02  0.46207509468E+02  0.52281358820E+02  0.71582980585E+02  0.00000000000E+00 0.  1.
         11    1    4    4    0    0 -0.16641229406E+01 -0.35024190012E+02  0.10092717678E+03  0.10684455159E+03  0.00000000000E+00 0. -1.
</event>
<event>
 8    1  0.7112384E-009  0.1793176E+03  0.7561462E-02  0.1168465E+00
         -3   -1    0    0    0  501 -0.00000000000E+00  0.00000000000E+00  0.31234051756E+03  0.31234051756E+03  0.00000000000E+00 0.  1.
          3   -1    0    0  501    0  0.00000000000E+00 -0.00000000000E+00 -0.16133590960E+03  0.16133590960E+03  0.00000000000E+00 0. -1.
         25    2    1    2    0    0  0.12213459261E+03 -0.11854066236E+03 -0.27495636566E+02  0.21300755612E+03  0.12508981409E+03 0.  0.
         23    2    1    2    0    0 -0.12213459261E+03  0.11854066236E+03  0.17850024452E+03  0.26066887104E+03  0.84363355146E+02 0.  0.
          5    1    3    3  502    0  0.68435840857E+02 -0.48358818602E+02  0.48038311871E+02  0.96680874313E+02  0.41800000000E+01 0. -1.
         -5    1    3    3    0  502  0.53698751751E+02 -0.70181843761E+02 -0.75533948438E+02  0.11632668181E+03  0.41800000000E+01 0. -1.
        -11    1    4    4    0    0 -0.74075652802E+02  0.11663385409E+03  0.10821530082E+03  0.17550273385E+03  0.00000000000E+00 0.  1.
         11    1    4    4    0    0 -0.48058939807E+02  0.19068082740E+01  0.70284943698E+02  0.85166137190E+02  0.00000000000E+00 0. -1.
</event>
<event>
 8    1  0.7112384E-009  0.3102600E+03  0.7561462E-02  0.1080221E+00
          2   -1    0    0  501    0  0.00000000000E+00  0.00000000000E+00  0.32440858053E+03  0.32440858053E+03  0.00000000000E+00 0. -1.
         -2   -1    0    0    0  501 -0.00000000000E+00 -0.00000000000E+00 -0.38413495884E+03  0.38413495884E+03  0.00000000000E+00 0.  1.
         25    2    1    2    0    0  0.19313847522E+03 -0.24031036413E+03 -0.16256625737E+03  0.37030640678E+03  0.12508998821E+03 0.  0.
         23    2    1    2    0    0 -0.19313847522E+03  0.24031036413E+03  0.10283987906E+03  0.33823713259E+03  0.93684445989E+02 0.  0.
          5    1    3    3  502    0  0.15154479610E+03 -0.15437921000E+03 -0.16897237533E+03  0.27453215063E+03  0.41800000000E+01 0. -1.
         -5    1    3    3    0  502  0.41593679121E+02 -0.85931154132E+02  0.64061179685E+01  0.95774256148E+02  0.41800000000E+01 0. -1.
        -11    1    4    4    0    0 -0.18012142949E+03  0.21828664754E+03  0.61484814055E+02  0.28960865356E+03  0.00000000000E+00 0.  1.
         11    1    4    4    0    0 -0.13017045731E+02  0.22023716592E+02  0.41355065001E+02  0.48628479035E+02  0.00000000000E+00 0. -1.
</event>
<event>
 8    1  0.7112384E-009  0.1839802E+03  0.7561462E-02  0.1164006E+00
          2   -1    0    0  501    0  0.00000000000E+00  0.00000000000E+00  0.45287096797E+03  0.45287096797E+03  0.00000000000E+00 0. -1.
         -2   -1    0    0    0  501 -0.00000000000E+00 -0.00000000000E+00 -0.93779305298E+02  0.93779305298E+02  0.00000000000E+00 0.  1.
         25    2    1    2    0    0 -0.16885252771E+03  0.35546149474E+02  0.14891738028E+03  0.25999780985E+03  0.12509104733E+03 0.  0.
         23    2    1    2    0    0  0.16885252771E+03 -0.35546149474E+02  0.21017428240E+03  0.28665246342E+03  0.90673595655E+02 0.  0.
          5    1    3    3  502    0 -0.52231707374E+01 -0.34061157658E+01 -0.20133044172E+02  0.21487089259E+02  0.41800000000E+01 0.  1.
         -5    1    3    3    0  502 -0.16362935697E+03  0.38952265240E+02  0.16905042445E+03  0.23851072059E+03  0.41800000000E+01 0.  1.
        -11    1    4    4    0    0  0.13415852076E+03  0.10474147432E+02  0.16793406153E+03  0.21519773577E+03  0.00000000000E+00 0. -1.
         11    1    4    4    0    0  0.34694006945E+02 -0.46020296906E+02  0.42240220867E+02  0.71454727654E+02  0.00000000000E+00 0.  1.
</event>
<event>
 8    1  0.7112384E-009  0.8669597E+02  0.7561462E-02  0.1311056E+00
          3   -1    0    0  501    0  0.00000000000E+00  0.00000000000E+00  0.15459877566E+03  0.15459877566E+03  0.00000000000E+00 0. -1.
         -3   -1    0    0    0  501 -0.00000000000E+00 -0.00000000000E+00 -0.99366243786E+02  0.99366243786E+02  0.00000000000E+00 0.  1.
         25    2    1    2    0    0 -0.45898540829E+02 -0.32902026383E+02  0.48317864013E+02  0.14550510164E+03  0.12509156339E+03 0.  0.
         23    2    1    2    0    0  0.45898540829E+02  0.32902026383E+02  0.69146678651E+01  0.10845991781E+03  0.92339166927E+02 0.  0.
          5    1    3    3  502    0 -0.54206692356E+02 -0.40561789542E+02  0.83927904586E+02  0.10791195409E+03  0.41800000000E+01 0. -1.
         -5    1    3    3    0  502  0.83081515264E+01  0.76597631589E+01 -0.35610040573E+02  0.37593147555E+02  0.41800000000E+01 0. -1.
        -11    1    4    4    0    0  0.42025237356E+02 -0.15621005609E+02 -0.23941690511E+02  0.50826577060E+02  0.00000000000E+00 0.  1.
         11    1    4    4    0    0  0.38733034729E+01  0.48523031993E+02  0.30856358376E+02  0.57633340748E+02  0.00000000000E+00 0. -1.
</event>
<event>
 8    1  0.7112384E-009  0.9973214E+02  0.7561462E-02  0.1280860E+00
          1   -1    0    0  501    0  0.00000000000E+00  0.00000000000E+00  0.47190011155E+03  0.47190011155E+03  0.00000000000E+00 0. -1.
         -1   -1    0    0    0  501 -0.00000000000E+00 -0.00000000000E+00 -0.38814166140E+02  0.38814166140E+02  0.00000000000E+00 0.  1.
         25    2    1    2    0    0  0.29958484118E+02  0.17920772170E+02  0.37478487667E+03  0.39664829964E+03  0.12508998751E+03 0.  0.
         23    2    1    2    0    0 -0.29958484118E+02 -0.17920772170E+02  0.58301068739E+02  0.11406597806E+03  0.91615325619E+02 0.  0.
          5    1    3    3  502    0  0.67876612548E+02  0.38008621032E+02  0.16484592622E+03  0.18232811521E+03  0.41800000000E+01 0.  1.
         -5    1    3    3    0  502 -0.37918128429E+02 -0.20087848862E+02  0.20993895045E+03  0.21432018443E+03  0.41800000000E+01 0.  1.
        -11    1    4    4    0    0  0.17490430801E+02 -0.24958196933E+02  0.58651110990E+02  0.66096744126E+02  0.00000000000E+00 0. -1.
         11    1    4    4    0    0 -0.47448914919E+02  0.70374247631E+01 -0.35004225139E+00  0.47969233931E+02  0.00000000000E+00 0.  1.
</event>
<event>
 8    1  0.7112384E-009  0.1583141E+03  0.7561462E-02  0.1190613E+00
         -2   -1    0    0    0  501 -0.00000000000E+00  0.00000000000E+00  0.68631385178E+02  0.68631385178E+02  0.00000000000E+00 0.  1.
          2   -1    0    0  501    0  0.00000000000E+00 -0.00000000000E+00 -0.65646573322E+03  0.65646573322E+03  0.00000000000E+00 0. -1.
         25    2    1    2    0    0 -0.30399261203E+02 -0.11070016191E+03 -0.65065106144E+02  0.18182284987E+03  0.12508972687E+03 0.  0.
         23    2    1    2    0    0  0.30399261203E+02  0.11070016191E+03 -0.52276924190E+03  0.54327426853E+03  0.93169789346E+02 0.  0.
          5    1    3    3  502    0  0.46545423387E+02 -0.22147956498E+02 -0.12497526501E+02  0.53204031651E+02  0.41800000000E+01 0. -1.
         -5    1    3    3    0  502 -0.76944684590E+02 -0.88552205408E+02 -0.52567579643E+02  0.12861881821E+03  0.41800000000E+01 0. -1.
        -11    1    4    4    0    0 -0.33552428302E+02  0.36941399921E+02 -0.16024967918E+03  0.16784037700E+03  0.00000000000E+00 0.  1.
         11    1    4    4    0    0  0.63951689505E+02  0.73758761985E+02 -0.36251956272E+03  0.37543389153E+03  0.00000000000E+00 0. -1.
</event>
<event>
 8    1  0.7112384E-009  0.1224845E+03  0.7561462E-02  0.1239054E+00
         -4   -1    0    0    0  501 -0.00000000000E+00  0.00000000000E+00  0.37266916308E+03  0.37266916308E+03  0.00000000000E+00 0.  1.
          4   -1    0    0  501    0  0.00000000000E+00 -0.00000000000E+00 -0.64680525909E+02  0.64680525909E+02  0.00000000000E+00 0. -1.
         25    2    1    2    0    0  0.45532458824E+02  0.99913041579E+02  0.18389808385E+03  0.24803681017E+03  0.12509169946E+03 0.  0.
         23    2    1    2    0    0 -0.45532458824E+02 -0.99913041579E+02  0.12409055333E+03  0.18931287882E+03  0.91570082328E+02 0.  0.
          5    1    3    3  502    0 -0.14265196376E+02  0.25327034310E+02  0.13948609169E+03  0.14254401660E+03  0.41800000000E+01 0. -1.
         -5    1    3    3    0  502  0.59797655200E+02  0.74586007270E+02  0.44411992159E+02  0.10549279357E+03  0.41800000000E+01 0. -1.
        -11    1    4    4    0    0 -0.65094772831E+01 -0.71120905381E+02  0.12126817391E+03  0.14073566172E+03  0.00000000000E+00 0.  1.
         11    1    4    4    0    0 -0.39022981541E+02 -0.28792136198E+02  0.28223794150E+01  0.48577217096E+02  0.00000000000E+00 0. -1.
</event>
<event>
 8    1  0.7112384E-009  0.1005437E+03  0.7561462E-02  0.1279157E+00
          2   -1    0    0  501    0  0.00000000000E+00  0.00000000000E+00  0.12822672563E+04  0.12822672563E+04  0.00000000000E+00 0. -1.
         -2   -1    0    0    0  501 -0.00000000000E+00 -0.00000000000E+00 -0.15096312305E+02  0.15096312305E+02  0.00000000000E+00 0.  1.
         25    2    1    2    0    0 -0.21614394724E+02 -0.66085096587E+02  0.94488742956E+03  0.95566453937E+03  0.12509210694E+03 0.  0.
         23    2    1    2    0    0  0.21614394724E+02  0.66085096587E+02  0.32228351440E+03  0.34169902920E+03  0.89761577818E+02 0.  0.
          5    1    3    3  502    0 -0.53664002616E+01 -0.75930954634E+02  0.92393227248E+03  0.92707207090E+03  0.41800000000E+01 0. -1.
         -5    1    3    3    0  502 -0.16247994463E+02  0.98458580470E+01  0.20955157086E+02  0.28592468470E+02  0.41800000000E+01 0. -1.
        -11    1    4    4    0    0 -0.17785201541E+02  0.63468286249E+02  0.13417322597E+03  0.14948910101E+03  0.00000000000E+00 0.  1.
         11    1    4    4    0    0  0.39399596265E+02  0.26168103380E+01  0.18811028843E+03  0.19220992819E+03  0.00000000000E+00 0. -1.
</event>
<event>
 8    1  0.7112384E-009  0.1141865E+03  0.7561462E-02  0.1253008E+00
          2   -1    0    0  501    0  0.00000000000E+00  0.00000000000E+00  0.80351144314E+03  0.80351144314E+03  0.00000000000E+00 0.  1.
         -2   -1    0    0    0  501 -0.00000000000E+00 -0.00000000000E+00 -0.19229635325E+02  0.19229635325E+02  0.00000000000E+00 0. -1.
         25    2    1    2    0    0 -0.50407403290E+02  0.18344999820E+02  0.51932524753E+03  0.53686588829E+03  0.12509525957E+03 0.  0.
         23    2    1    2    0    0  0.50407403290E+02 -0.18344999820E+02  0.26495656029E+03  0.28587519017E+03  0.92979568682E+02 0.  0.
          5    1    3    3  502    0  0.10325213923E+02  0.57048628412E+02  0.31149945376E+03  0.31687621895E+03  0.41800000000E+01 0. -1.
         -5    1    3    3    0  502 -0.60732617214E+02 -0.38703628592E+02  0.20782579377E+03  0.21998966934E+03  0.41800000000E+01 0. -1.
        -11    1    4    4    0    0  0.96811821836E+00  0.29378185187E+02  0.34155904281E+02  0.45062632136E+02  0.00000000000E+00 0. -1.
         11    1    4    4    0    0  0.49439285072E+02 -0.47723185007E+02  0.23080065601E+03  0.24081255804E+03  0.00000000000E+00 0.  1.
</event>
<event>
 8    1  0.7112384E-009  0.3901283E+03  0.7561462E-02  0.1047253E+00
          1   -1    0    0  501    0  0.00000000000E+00  0.00000000000E+00  0.18439203446E+03  0.18439203446E+03  0.00000000000E+00 0. -1.
         -1   -1    0    0    0  501 -0.00000000000E+00 -0.00000000000E+00 -0.86895584091E+03  0.86895584091E+03  0.00000000000E+00 0.  1.
         25    2    1    2    0    0 -0.13110914648E+03  0.35212709890E+03 -0.23707182157E+03  0.46155623136E+03  0.12509198237E+03 0.  0.
         23    2    1    2    0    0  0.13110914648E+03 -0.35212709890E+03 -0.44749198488E+03  0.59179164401E+03  0.93729244727E+02 0.  0.
          5    1    3    3  502    0  0.10251292251E+02  0.13999516648E+03 -0.71802950161E+02  0.15772403647E+03  0.41800000000E+01 0.  1.
         -5    1    3    3    0  502 -0.14136043873E+03  0.21213193243E+03 -0.16526887141E+03  0.30383219489E+03  0.41800000000E+01 0.  1.
        -11    1    4    4    0    0  0.28580516437E+02 -0.19611305571E+03 -0.19757679052E+03  0.27984596601E+03  0.00000000000E+00 0.  1.
         11    1    4    4    0    0  0.10252863004E+03 -0.15601404319E+03 -0.24991519436E+03  0.31194567800E+03  0.00000000000E+00 0. -1.
</event>
<event>
 8    1  0.7112384E-009  0.1138808E+03  0.7561462E-02  0.1253548E+00
         -2   -1    0    0    0  501 -0.00000000000E+00  0.00000000000E+00  0.81604590509E+02  0.81604590509E+02  0.00000000000E+00 0.  1.
          2   -1    0    0  501    0  0.00000000000E+00 -0.00000000000E+00 -0.22680126106E+03  0.22680126106E+03  0.00000000000E+00 0. -1.
         25    2    1    2    0    0 -0.35293933221E+02  0.36690776700E+02 -0.14672128437E+03  0.19941389443E+03  0.12508753411E+03 0.  0.
         23    2    1    2    0    0  0.35293933221E+02 -0.36690776700E+02  0.15246138173E+01  0.10899195714E+03  0.96358951096E+02 0.  0.
          5    1    3    3  502    0  0.17549941623E+02 -0.37643056980E+02 -0.30902153129E+02  0.51936650429E+02  0.41800000000E+01 0.  1.
         -5    1    3    3    0  502 -0.52843874843E+02  0.74333833680E+02 -0.11581913124E+03  0.14747724401E+03  0.41800000000E+01 0.  1.
        -11    1    4    4    0    0  0.55869779533E+02 -0.45775527774E+02  0.25046364747E+02  0.76447050925E+02  0.00000000000E+00 0.  1.
         11    1    4    4    0    0 -0.20575846313E+02  0.90847510748E+01 -0.23521750929E+02  0.32544906212E+02  0.00000000000E+00 0. -1.
</event>
<event>
 8    1  0.7112384E-009  0.2168168E+03  0.7561462E-02  0.1136279E+00
          2   -1    0    0  501    0  0.00000000000E+00  0.00000000000E+00  0.11697248692E+04  0.11697248692E+04  0.00000000000E+00 0. -1.
         -2   -1    0    0    0  501 -0.00000000000E+00 -0.00000000000E+00 -0.47177821216E+02  0.47177821216E+02  0.00000000000E+00 0.  1.
         25    2    1    2    0    0  0.16448276027E+03 -0.11316405925E+03  0.72312438178E+03  0.76053693823E+03  0.12508749002E+03 0.  0.
         23    2    1    2    0    0 -0.16448276027E+03  0.11316405925E+03  0.39942266616E+03  0.45636575214E+03  0.94183601286E+02 0.  0.
          5    1    3    3  502    0  0.52848541464E+02  0.23032165711E+02  0.22004296381E+03  0.22750786210E+03  0.41800000000E+01 0. -1.
         -5    1    3    3    0  502  0.11163421881E+03 -0.13619622496E+03  0.50308141797E+03  0.53302907614E+03  0.41800000000E+01 0. -1.
        -11    1    4    4    0    0 -0.86230321105E+02  0.57202223415E+02  0.30289838729E+03  0.32008623160E+03  0.00000000000E+00 0. -1.
         11    1    4    4    0    0 -0.78252439167E+02  0.55961835836E+02  0.96524278875E+02  0.13627952054E+03  0.00000000000E+00 0.  1.
</event>
<event>
 8    1  0.7112384E-009  0.1266544E+03  0.7561462E-02  0.1232506E+00
          1   -1    0    0  501    0  0.00000000000E+00  0.00000000000E+00  0.19007619068E+04  0.19007619068E+04  0.00000000000E+00 0. -1.
         -1   -1    0    0    0  501 -0.00000000000E+00 -0.00000000000E+00 -0.14730507481E+02  0.14730507481E+02  0.00000000000E+00 0.  1.
         25    2    1    2    0    0 -0.46874646304E+02 -0.60388374923E+02  0.15850364694E+04  0.15918018524E+04  0.12509412342E+03 0.  0.
         23    2    1    2    0    0  0.46874646304E+02  0.60388374923E+02  0.30099492985E+03  0.32369056181E+03  0.91288792919E+02 0.  0.
          5    1    3    3  502    0  0.31254069602E+02  0.12848943967E+02  0.59699691043E+03  0.59796713596E+03  0.41800000000E+01 0.  1.
         -5    1    3    3    0  502 -0.78128715906E+02 -0.73237318890E+02  0.98803955901E+03  0.99383471649E+03  0.41800000000E+01 0.  1.
        -11    1    4    4    0    0 -0.23748770278E+02  0.13489158096E+02  0.34302942794E+02  0.43848071339E+02  0.00000000000E+00 0.  1.
         11    1    4    4    0    0  0.70623416582E+02  0.46899216827E+02  0.26669198706E+03  0.27984249047E+03  0.00000000000E+00 0. -1.
</event>
<event>
 8    1  0.7112384E-009  0.1635854E+03  0.7561462E-02  0.1184707E+00
          1   -1    0    0  501    0  0.00000000000E+00  0.00000000000E+00  0.26039921364E+03  0.26039921364E+03  0.00000000000E+00 0. -1.
         -1   -1    0    0    0  501 -0.00000000000E+00 -0.00000000000E+00 -0.11664065054E+03  0.11664065054E+03  0.00000000000E+00 0.  1.
         25    2    1    2    0    0  0.10218319573E+03  0.85881565183E+02  0.97226733142E+02  0.20716514010E+03  0.12508920380E+03 0.  0.
         23    2    1    2    0    0 -0.10218319573E+03 -0.85881565183E+02  0.46531829956E+02  0.16987472407E+03  0.94208077958E+02 0.  0.
          5    1    3    3  502    0  0.13064927436E+03  0.69324769691E+02  0.90028157851E+02  0.17319843588E+03  0.41800000000E+01 0. -1.
         -5    1    3    3    0  502 -0.28466078633E+02  0.16556795492E+02  0.71985752910E+01  0.33966704225E+02  0.41800000000E+01 0. -1.
        -11    1    4    4    0    0 -0.12020970061E+02 -0.45787364156E+02 -0.19442364486E+02  0.51176087916E+02  0.00000000000E+00 0.  1.
         11    1    4    4    0    0 -0.90162225668E+02 -0.40094201027E+02  0.65974194443E+02  0.11869863616E+03  0.00000000000E+00 0. -1.
</event>
<event>
 8    1  0.7112384E-009  0.1362274E+03  0.7561462E-02  0.1218497E+00
         -1   -1    0    0    0  501 -0.00000000000E+00  0.00000000000E+00  0.24875782396E+02  0.24875782396E+02  0.00000000000E+00 0.  1.
          1   -1    0    0  501    0  0.00000000000E+00 -0.00000000000E+00 -0.10842749167E+04  0.10842749167E+04  0.00000000000E+00 0. -1.
         25    2    1    2    0    0 -0.35313392769E+02 -0.10363407076E+03 -0.75293853048E+03  0.77107026354E+03  0.12508342937E+03 0.  0.
         23    2    1    2    0    0  0.35313392769E+02  0.10363407076E+03 -0.30646060380E+03  0.33808043554E+03  0.91614534211E+02 0.  0.
          5    1    3    3  502    0  0.20675527456E+02 -0.18687187908E+02 -0.30636651920E+02  0.41626497191E+02  0.41800000000E+01 0.  1.
         -5    1    3    3    0  502 -0.55988920225E+02 -0.84946882848E+02 -0.72230187856E+03  0.72944376635E+03  0.41800000000E+01 0.  1.
        -11    1    4    4    0    0  0.46419686166E+02  0.11652696381E+03 -0.27658901648E+03  0.30370183502E+03  0.00000000000E+00 0. -1.
         11    1    4    4    0    0 -0.11106293397E+02 -0.12892893049E+02 -0.29871587322E+02  0.34378600514E+02  0.00000000000E+00 0.  1.
</event>
<event>
 8    1  0.7112384E-009  0.1111238E+03  0.7561462E-02  0.1258503E+00
         -2   -1    0    0    0  501 -0.00000000000E+00  0.00000000000E+00  0.18881708440E+02  0.18881708440E+02  0.00000000000E+00 0.  1.
          2   -1    0    0  501    0  0.00000000000E+00 -0.00000000000E+00 -0.80456539295E+03  0.80456539295E+03  0.00000000000E+00 0. -1.
         25    2    1    2    0    0  0.36013267301E+01  0.54039285965E+02 -0.51579721037E+03  0.53350512023E+03  0.12509091536E+03 0.  0.
         23    2    1    2    0    0 -0.36013267301E+01 -0.54039285965E+02 -0.26988647414E+03  0.28994198116E+03  0.91073758753E+02 0.  0.
          5    1    3    3  502    0  0.54849467057E+02  0.51990659964E+02 -0.39527977248E+03  0.40246125738E+03  0.41800000000E+01 0.  1.
         -5    1    3    3    0  502 -0.51248140327E+02  0.20486260001E+01 -0.12051743789E+03  0.13104386285E+03  0.41800000000E+01 0.  1.
        -11    1    4    4    0    0 -0.40861489569E+02 -0.25513264148E+02 -0.72434967735E+02  0.86990876119E+02  0.00000000000E+00 0.  1.
         11    1    4    4    0    0  0.37260162839E+02 -0.28526021816E+02 -0.19745150641E+03  0.20295110504E+03  0.00000000000E+00 0. -1.
</event>
<event>
 8    1  0.7112384E-009  0.1086513E+03  0.7561462E-02  0.1263088E+00
         -2   -1    0    0    0  501 -0.00000000000E+00  0.00000000000E+00  0.11452842571E+03  0.11452842571E+03  0.00000000000E+00 0.  1.
          2   -1    0    0  501    0  0.00000000000E+00 -0.00000000000E+00 -0.12557263917E+03  0.12557263917E+03  0.00000000000E+00 0. -1.
         25    2    1    2    0    0  0.14717963938E+02  0.38909279336E+02 -0.37293472711E+02  0.13699980239E+03  0.12509033643E+03 0.  0.
         23    2    1    2    0    0 -0.14717963938E+02 -0.38909279336E+02  0.26249259247E+02  0.10310126249E+03  0.90610684991E+02 0.  0.
          5    1    3    3  502    0 -0.21124824566E+02 -0.33193909935E+02 -0.40083111334E+02  0.56322482934E+02  0.41800000000E+01 0.  1.
         -5    1    3    3    0  502  0.35842788504E+02  0.72103189272E+02  0.27896386224E+01  0.80677319456E+02  0.41800000000E+01 0.  1.
        -11    1    4    4    0    0  0.36683825369E+02 -0.23003957654E+02  0.15246943157E+00  0.43300211991E+02  0.00000000000E+00 0.  1.
         11    1    4    4    0    0 -0.51401789308E+02 -0.15905321682E+02  0.26096789816E+02  0.59801050497E+02  0.00000000000E+00 0. -1.
</event>
<event>
 8    1  0.7112384E-009  0.1021907E+03  0.7561462E-02  0.1275755E+00
         -2   -1    0    0    0  501 -0.00000000000E+00  0.00000000000E+00  0.66097214695E+02  0.66097214695E+02  0.00000000000E+00 0. -1.
          2   -1    0    0  501    0  0.00000000000E+00 -0.00000000000E+00 -0.29962561307E+03  0.29962561307E+03  0.00000000000E+00 0.  1.
         25    2    1    2    0    0  0.18936730875E+02 -0.45256538017E+02 -0.32197530689E+02  0.13817220584E+03  0.12509245970E+03 0.  0.
         23    2    1    2    0    0 -0.18936730875E+02  0.45256538017E+02 -0.20133086769E+03  0.22755062193E+03  0.94012835538E+02 0.  0.
          5    1    3    3  502    0 -0.38032521409E+02  0.16909676124E+02 -0.33725041911E+02  0.53733236300E+02  0.41800000000E+01 0. -1.
         -5    1    3    3    0  502  0.56969252284E+02 -0.62166214140E+02  0.15275112221E+01  0.84438969540E+02  0.41800000000E+01 0. -1.
        -11    1    4    4    0    0  0.22361388486E+02  0.16879226027E+02 -0.16046174105E+03  0.16288925780E+03  0.00000000000E+00 0.  1.
         11    1    4    4    0    0 -0.41298119362E+02  0.28377311990E+02 -0.40869126642E+02  0.64661364129E+02  0.00000000000E+00 0. -1.
</event>
<event>
 8    1  0.7112384E-009  0.1161517E+03  0.7561462E-02  0.1249584E+00
          2   -1    0    0  501    0  0.00000000000E+00  0.00000000000E+00  0.47899093598E+03  0.47899093598E+03  0.00000000000E+00 0. -1.
         -2   -1    0    0    0  501 -0.00000000000E+00 -0.00000000000E+00 -0.44430234175E+02  0.44430234175E+02  0.00000000000E+00 0.  1.
         25    2    1    2    0    0  0.68329747202E+02 -0.39588007353E+02  0.13958608155E+03  0.20338945115E+03  0.12508728952E+03 0.  0.
         23    2    1    2    0    0 -0.68329747202E+02  0.39588007353E+02  0.29497462026E+03  0.32003171901E+03  0.95781573866E+02 0.  0.
          5    1    3    3  502    0  0.95237754714E+02 -0.28857971033E+02  0.14262796154E+03  0.17396327264E+03  0.41800000000E+01 0.  1.
         -5    1    3    3    0  502 -0.26908007512E+02 -0.10730036320E+02 -0.30418799962E+01  0.29426178508E+02  0.41800000000E+01 0.  1.
        -11    1    4    4    0    0 -0.67099142907E+02  0.33588081623E+01  0.26379946073E+03  0.27222000671E+03  0.00000000000E+00 0. -1.
         11    1    4    4    0    0 -0.12306042946E+01  0.36229199190E+02  0.31175159532E+02  0.47811712297E+02  0.00000000000E+00 0.  1.
</event>
<event>
 8    1  0.7112384E-009  0.2567090E+03  0.7561462E-02  0.1109137E+00
         -1   -1    0    0    0  501 -0.00000000000E+00  0.00000000000E+00  0.23957474089E+03  0.23957474089E+03  0.00000000000E+00 0.  1.
          1   -1    0    0  501    0  0.00000000000E+00 -0.00000000000E+00 -0.31340223891E+03  0.31340223891E+03  0.00000000000E+00 0. -1.
         25    2    1    2    0    0  0.79225361465E+02 -0.23502162881E+03 -0.76068214550E+02  0.28800270366E+03  0.12508940859E+03 0.  0.
         23    2    1    2    0    0 -0.79225361465E+02  0.23502162881E+03  0.22407165230E+01  0.26497427614E+03  0.93244422334E+02 0.  0.
          5    1    3    3  502    0  0.56981103166E+02 -0.19851374126E+03 -0.70292119000E+01  0.20669163942E+03  0.41800000000E+01 0.  1.
         -5    1    3    3    0  502  0.22244258299E+02 -0.36507887552E+02 -0.69039002650E+02  0.81311064239E+02  0.41800000000E+01 0.  1.
        -11    1    4    4    0    0 -0.99580544099E+02  0.19861692919E+03  0.10603694441E+02  0.22243517631E+03  0.00000000000E+00 0.  1.
         11    1    4    4    0    0  0.20355182635E+02  0.36404699619E+02 -0.83629779179E+01  0.42539099827E+02  0.00000000000E+00 0. -1.
</event>
<event>
 8    1  0.7112384E-009  0.1198956E+03  0.7561462E-02  0.1243269E+00
          2   -1    0    0  501    0  0.00000000000E+00  0.00000000000E+00  0.44216630587E+03  0.44216630587E+03  0.00000000000E+00 0.  1.
         -2   -1    0    0    0  501 -0.00000000000E+00 -0.00000000000E+00 -0.35318180303E+02  0.35318180303E+02  0.00000000000E+00 0. -1.
         25    2    1    2    0    0  0.50171502009E+02 -0.26981144011E+02  0.28399497018E+03  0.31550872575E+03  0.12508977253E+03 0.  0.
         23    2    1    2    0    0 -0.50171502009E+02  0.26981144011E+02  0.12285315539E+03  0.16197576042E+03  0.88871184475E+02 0.  0.
          5    1    3    3  502    0  0.10691695428E+02  0.48158783800E+02  0.13759266135E+03  0.14622856651E+03  0.41800000000E+01 0.  1.
         -5    1    3    3    0  502  0.39479806581E+02 -0.75139927811E+02  0.14640230883E+03  0.16928015923E+03  0.41800000000E+01 0.  1.
        -11    1    4    4    0    0  0.52116634884E+00  0.49732924380E+02  0.63733216770E+02  0.80842799936E+02  0.00000000000E+00 0.  1.
         11    1    4    4    0    0 -0.50692668358E+02 -0.22751780369E+02  0.59119938617E+02  0.81132960486E+02  0.00000000000E+00 0. -1.
</event>
<event>
 8    1  0.7112384E-009  0.1088045E+03  0.7561462E-02  0.1262800E+00
         -1   -1    0    0    0  501 -0.00000000000E+00  0.00000000000E+00  0.14655648442E+02  0.14655648442E+02  0.00000000000E+00 0.  1.
          1   -1    0    0  501    0  0.00000000000E+00 -0.00000000000E+00 -0.13022889346E+04  0.13022889346E+04  0.00000000000E+00 0. -1.
         25    2    1    2    0    0 -0.33899895172E+02  0.35644736820E+02 -0.10416414813E+04  0.10502783098E+04  0.12509117572E+03 0.  0.
         23    2    1    2    0    0  0.33899895172E+02 -0.35644736820E+02 -0.24599180486E+03  0.26666627327E+03  0.90438836181E+02 0.  0.
          5    1    3    3  502    0 -0.71300024308E+02 -0.37103549862E+01 -0.40107871727E+03  0.40740528967E+03  0.41800000000E+01 0. -1.
         -5    1    3    3    0  502  0.37400129135E+02  0.39355091807E+02 -0.64056276403E+03  0.64287302010E+03  0.41800000000E+01 0. -1.
        -11    1    4    4    0    0 -0.24446639494E+02 -0.19005137934E+02 -0.14958506095E+03  0.15275642019E+03  0.00000000000E+00 0. -1.
         11    1    4    4    0    0  0.58346534667E+02 -0.16639598887E+02 -0.96406743909E+02  0.11390985309E+03  0.00000000000E+00 0.  1.
</event>
<event>
 8    1  0.7112384E-009  0.1313000E+03  0.7561462E-02  0.1225539E+00
          1   -1    0    0  501    0  0.00000000000E+00  0.00000000000E+00  0.61333516019E+03  0.61333516019E+03  0.00000000000E+00 0. -1.
         -1   -1    0    0    0  501 -0.00000000000E+00 -0.00000000000E+00 -0.48450771662E+02  0.48450771662E+02  0.00000000000E+00 0.  1.
         25    2    1    2    0    0 -0.65411487158E+02 -0.72610665300E+02  0.47510657652E+03  0.50092391939E+03  0.12509013789E+03 0.  0.
         23    2    1    2    0    0  0.65411487158E+02  0.72610665300E+02  0.89777812010E+02  0.16086201246E+03  0.90915126117E+02 0.  0.
          5    1    3    3  502    0 -0.86472788201E+02 -0.19369952401E+02  0.18473953797E+03  0.20493634974E+03  0.41800000000E+01 0. -1.
         -5    1    3    3    0  502  0.21061301043E+02 -0.53240712899E+02  0.29036703854E+03  0.29598756965E+03  0.41800000000E+01 0. -1.
        -11    1    4    4    0    0  0.39893119455E+02  0.40406981118E+00 -0.36450153618E+01  0.40061332844E+02  0.00000000000E+00 0.  1.
         11    1    4    4    0    0  0.25518367704E+02  0.72206595489E+02  0.93422827372E+02  0.12080067962E+03  0.00000000000E+00 0. -1.
</event>
<event>
 8    1  0.7112384E-009  0.9711095E+02  0.7561462E-02  0.1286491E+00
          2   -1    0    0  501    0  0.00000000000E+00  0.00000000000E+00  0.51217974898E+03  0.51217974898E+03  0.00000000000E+00 0. -1.
         -2   -1    0    0    0  501 -0.00000000000E+00 -0.00000000000E+00 -0.27240014537E+02  0.27240014537E+02  0.00000000000E+00 0.  1.
         25    2    1    2    0    0 -0.30219814433E+02  0.19590440017E+02  0.33924244112E+03  0.36336499054E+03  0.12510659444E+03 0.  0.
         23    2    1    2    0    0  0.30219814433E+02 -0.19590440017E+02  0.14569729333E+03  0.17605477298E+03  0.92035641360E+02 0.  0.
          5    1    3    3  502    0  0.29686855039E+01  0.58477067393E+02  0.27480236330E+03  0.28100212059E+03  0.41800000000E+01 0.  1.
         -5    1    3    3    0  502 -0.33188499937E+02 -0.38886627376E+02  0.64440077820E+02  0.82362869949E+02  0.41800000000E+01 0.  1.
        -11    1    4    4    0    0  0.10641322507E+02  0.29507938846E+02  0.10430140172E+03  0.10891619990E+03  0.00000000000E+00 0. -1.
         11    1    4    4    0    0  0.19578491926E+02 -0.49098378863E+02  0.41395891608E+02  0.67138573079E+02  0.00000000000E+00 0.  1.
</event>
<event>
 8    1  0.7112384E-009  0.1575106E+03  0.7561462E-02  0.1191536E+00
         -2   -1    0    0    0  501 -0.00000000000E+00  0.00000000000E+00  0.13615557459E+03  0.13615557459E+03  0.00000000000E+00 0. -1.
          2   -1    0    0  501    0  0.00000000000E+00 -0.00000000000E+00 -0.24026828385E+03  0.24026828385E+03  0.00000000000E+00 0.  1.
         25    2    1    2    0    0  0.53439960970E+02  0.13169386992E+03 -0.78068739206E+02  0.20479501951E+03  0.12508863727E+03 0.  0.
         23    2    1    2    0    0 -0.53439960970E+02 -0.13169386992E+03 -0.26043970057E+02  0.17162883893E+03  0.92623243159E+02 0.  0.
          5    1    3    3  502    0  0.48403703190E+01  0.80405769709E+02  0.20709104781E+02  0.83275785245E+02  0.41800000000E+01 0.  1.
         -5    1    3    3    0  502  0.48599590651E+02  0.51288100209E+02 -0.98777843987E+02  0.12151923427E+03  0.41800000000E+01 0.  1.
        -11    1    4    4    0    0 -0.66146862609E+02 -0.55532502986E+02 -0.36398346545E+02  0.93723561350E+02  0.00000000000E+00 0.  1.
         11    1    4    4    0    0  0.12706901639E+02 -0.76161366932E+02  0.10354376488E+02  0.77905277579E+02  0.00000000000E+00 0. -1.
</event>
<event>
 8    1  0.7112384E-009  0.1443386E+03  0.7561462E-02  0.1207607E+00
         -2   -1    0    0    0  501 -0.00000000000E+00  0.00000000000E+00  0.25795567167E+02  0.25795567167E+02  0.00000000000E+00 0.  1.
          2   -1    0    0  501    0  0.00000000000E+00 -0.00000000000E+00 -0.83272862935E+03  0.83272862935E+03  0.00000000000E+00 0. -1.
         25    2    1    2    0    0 -0.44145239595E+02  0.87054697374E+02 -0.43259704482E+03  0.46077515723E+03  0.12508485047E+03 0.  0.
         23    2    1    2    0    0  0.44145239595E+02 -0.87054697374E+02 -0.37433601736E+03  0.39774903929E+03  0.92463624453E+02 0.  0.
          5    1    3    3  502    0  0.20231328865E+02  0.87321573727E+02 -0.19642523863E+03  0.21595071353E+03  0.41800000000E+01 0. -1.
         -5    1    3    3    0  502 -0.64376568460E+02 -0.26687635295E+00 -0.23617180620E+03  0.24482444370E+03  0.41800000000E+01 0. -1.
        -11    1    4    4    0    0 -0.53613298140E+01 -0.84700427879E+02 -0.23319917769E+03  0.24816277484E+03  0.00000000000E+00 0. -1.
         11    1    4    4    0    0  0.49506569409E+02 -0.23542694943E+01 -0.14113683967E+03  0.14958626445E+03  0.00000000000E+00 0.  1.
</event>
<event>
 8    1  0.7112384E-009  0.9232894E+02  0.7561462E-02  0.1297308E+00
         -3   -1    0    0    0  501 -0.00000000000E+00  0.00000000000E+00  0.43632932620E+03  0.43632932620E+03  0.00000000000E+00 0.  1.
          3   -1    0    0  501    0  0.00000000000E+00 -0.00000000000E+00 -0.28839893555E+02  0.28839893555E+02  0.00000000000E+00 0. -1.
         25    2    1    2    0    0 -0.19363726377E+02 -0.20371735355E+02  0.28335438104E+03  0.31101041437E+03  0.12509121108E+03 0.  0.
         23    2    1    2    0    0  0.19363726377E+02  0.20371735355E+02  0.12413505160E+03  0.15415880538E+03  0.86979680043E+02 0.  0.
          5    1    3    3  502    0 -0.50462874492E+02  0.80831875262E+01  0.42907361589E+02  0.66860703714E+02  0.41800000000E+01 0.  1.
         -5    1    3    3    0  502  0.31099148115E+02 -0.28454922881E+02  0.24044701945E+03  0.24414971066E+03  0.41800000000E+01 0.  1.
        -11    1    4    4    0    0 -0.10549448091E+02 -0.30352839883E+02  0.37209161943E+02  0.49164087265E+02  0.00000000000E+00 0.  1.
         11    1    4    4    0    0  0.29913174468E+02  0.50724575239E+02  0.86925889655E+02  0.10499471812E+03  0.00000000000E+00 0. -1.
</event>
<event>
 8    1  0.7112384E-009  0.1233648E+03  0.7561462E-02  0.1237647E+00
         -2   -1    0    0    0  501 -0.00000000000E+00  0.00000000000E+00  0.19301856612E+03  0.19301856612E+03  0.00000000000E+00 0.  1.
          2   -1    0    0  501    0  0.00000000000E+00 -0.00000000000E+00 -0.11466489476E+03  0.11466489476E+03  0.00000000000E+00 0. -1.
         25    2    1    2    0    0  0.92184620204E+02  0.40695377149E+02  0.30614606592E+02  0.16351974430E+03  0.12508930696E+03 0.  0.
         23    2    1    2    0    0 -0.92184620204E+02 -0.40695377149E+02  0.47739064769E+02  0.14416371658E+03  0.91378558471E+02 0.  0.
          5    1    3    3  502    0  0.70142470999E+02  0.50615593359E+02  0.73848734273E+02  0.11381130209E+03  0.41800000000E+01 0. -1.
         -5    1    3    3    0  502  0.22042149206E+02 -0.99202162096E+01 -0.43234127681E+02  0.49708442217E+02  0.41800000000E+01 0. -1.
        -11    1    4    4    0    0 -0.58839799016E+02  0.23422255951E+02  0.16593030321E+02  0.65467951528E+02  0.00000000000E+00 0.  1.
         11    1    4    4    0    0 -0.33344821189E+02 -0.64117633101E+02  0.31146034448E+02  0.78695765047E+02  0.00000000000E+00 0. -1.
</event>
<event>
 8    1  0.7112384E-009  0.9409251E+02  0.7561462E-02  0.1293233E+00
         -2   -1    0    0    0  501 -0.00000000000E+00  0.00000000000E+00  0.13421346784E+02  0.13421346784E+02  0.00000000000E+00 0.  1.
          2   -1    0    0  501    0  0.00000000000E+00 -0.00000000000E+00 -0.12039600705E+04  0.12039600705E+04  0.00000000000E+00 0. -1.
         25    2    1    2    0    0 -0.18383846105E+02 -0.64783164967E+01 -0.96823564502E+03  0.97647741447E+03  0.12509173554E+03 0.  0.
         23    2    1    2    0    0  0.18383846105E+02  0.64783164967E+01 -0.22230307867E+03  0.24090400279E+03  0.90753211463E+02 0.  0.
          5    1    3    3  502    0  0.32924105883E+02  0.34798851433E+02 -0.21280407038E+03  0.21816966237E+03  0.41800000000E+01 0.  1.
         -5    1    3    3    0  502 -0.51307951988E+02 -0.41277167930E+02 -0.75543157464E+03  0.75830775210E+03  0.41800000000E+01 0.  1.
        -11    1    4    4    0    0  0.39442714936E+02 -0.16669336045E+02 -0.19413112067E+03  0.19879760194E+03  0.00000000000E+00 0. -1.
         11    1    4    4    0    0 -0.21058868831E+02  0.23147652542E+02 -0.28171958002E+02  0.42106400847E+02  0.00000000000E+00 0.  1.
</event>
<event>
 8    1  0.7112384E-009  0.1719993E+03  0.7561462E-02  0.1175779E+00
         -1   -1    0    0    0  501 -0.00000000000E+00  0.00000000000E+00  0.70657723516E+03  0.70657723516E+03  0.00000000000E+00 0.  1.
          1   -1    0    0  501    0  0.00000000000E+00 -0.00000000000E+00 -0.56402147206E+02  0.56402147206E+02  0.00000000000E+00 0. -1.
         25    2    1    2    0    0  0.11685250153E+03  0.11847706214E+03  0.30995045123E+03  0.37337389133E+03  0.12508980431E+03 0.  0.
         23    2    1    2    0    0 -0.11685250153E+03 -0.11847706214E+03  0.34022463673E+03  0.38960549104E+03  0.91369107720E+02 0.  0.
          5    1    3    3  502    0 -0.67669179668E+01  0.35682941445E+01 -0.89790633920E+01  0.12514786505E+02  0.41800000000E+01 0.  1.
         -5    1    3    3    0  502  0.12361941949E+03  0.11490876799E+03  0.31892951462E+03  0.36085910483E+03  0.41800000000E+01 0.  1.
        -11    1    4    4    0    0 -0.44922884353E+02 -0.48240171494E+02  0.23501798568E+03  0.24408734764E+03  0.00000000000E+00 0.  1.
         11    1    4    4    0    0 -0.71929617173E+02 -0.70236890645E+02  0.10520665105E+03  0.14551814340E+03  0.00000000000E+00 0. -1.
</event>
<event>
 8    1  0.7112384E-009  0.1026080E+03  0.7561462E-02  0.1274905E+00
          2   -1    0    0  501    0  0.00000000000E+00  0.00000000000E+00  0.14191807449E+03  0.14191807449E+03  0.00000000000E+00 0. -1.
         -2   -1    0    0    0  501 -0.00000000000E+00 -0.00000000000E+00 -0.11893160082E+03  0.11893160082E+03  0.00000000000E+00 0.  1.
         25    2    1    2    0    0  0.57485808712E+02 -0.14746362918E+02 -0.30718402993E+02  0.14181929695E+03  0.12508804612E+03 0.  0.
         23    2    1    2    0    0 -0.57485808712E+02  0.14746362918E+02  0.53704876661E+02  0.11903037837E+03  0.88101894270E+02 0.  0.
          5    1    3    3  502    0 -0.28132945383E+02  0.25169159421E+02 -0.28065169005E+02  0.47223673228E+02  0.41800000000E+01 0.  1.
         -5    1    3    3    0  502  0.85618754096E+02 -0.39915522340E+02 -0.26532339880E+01  0.94595623721E+02  0.41800000000E+01 0.  1.
        -11    1    4    4    0    0 -0.18844936801E+02 -0.14860206105E+02 -0.19633261497E+02  0.31006810954E+02  0.00000000000E+00 0.  1.
         11    1    4    4    0    0 -0.38640871911E+02  0.29606569023E+02  0.73338138158E+02  0.88023567411E+02  0.00000000000E+00 0. -1.
</event>
<event>
 8    1  0.7112384E-009  0.1089397E+03  0.7561462E-02  0.1262546E+00
          2   -1    0    0  501    0  0.00000000000E+00  0.00000000000E+00  0.26266832600E+04  0.26266832600E+04  0.00000000000E+00 0.  1.
         -2   -1    0    0    0  501 -0.00000000000E+00 -0.00000000000E+00 -0.81463613736E+01  0.81463613736E+01  0.00000000000E+00 0. -1.
         25    2    1    2    0    0  0.68722182039E+02  0.18783578427E+02  0.20273823202E+04  0.20324865767E+04  0.12508817391E+03 0.  0.
         23    2    1    2    0    0 -0.68722182039E+02 -0.18783578427E+02  0.59115457849E+03  0.60234304469E+03  0.90982672530E+02 0.  0.
          5    1    3    3  502    0  0.29267634089E+02 -0.29153799468E+02  0.16057913731E+04  0.16063280938E+04  0.41800000000E+01 0. -1.
         -5    1    3    3    0  502  0.39454547951E+02  0.47937377895E+02  0.42159094703E+03  0.42615848293E+03  0.41800000000E+01 0. -1.
        -11    1    4    4    0    0 -0.74051145531E+01 -0.46325126763E+02  0.19785837603E+03  0.20334401898E+03  0.00000000000E+00 0. -1.
         11    1    4    4    0    0 -0.61317067486E+02  0.27541548335E+02  0.39329620245E+03  0.39899902571E+03  0.00000000000E+00 0.  1.
</event>
<event>
 8    1  0.7112384E-009  0.1267917E+03  0.7561462E-02  0.1232295E+00
          2   -1    0    0  501    0  0.00000000000E+00  0.00000000000E+00  0.12339617923E+03  0.12339617923E+03  0.00000000000E+00 0. -1.
         -2   -1    0    0    0  501 -0.00000000000E+00 -0.00000000000E+00 -0.20931386604E+03  0.20931386604E+03  0.00000000000E+00 0.  1.
         25    2    1    2    0    0 -0.91366564204E+02 -0.36267057925E+02  0.13614302337E+02  0.15967877644E+03  0.12509521922E+03 0.  0.
         23    2    1    2    0    0  0.91366564204E+02  0.36267057925E+02 -0.99531989150E+02  0.17303126883E+03  0.10183346495E+03 0.  0.
          5    1    3    3  502    0 -0.65725198371E+02 -0.77382100520E+02  0.33704625336E+02  0.10705729938E+03  0.41800000000E+01 0. -1.
         -5    1    3    3    0  502 -0.25641365832E+02  0.41115042595E+02 -0.20090322999E+02  0.52621477056E+02  0.41800000000E+01 0. -1.
        -11    1    4    4    0    0  0.21649621601E+02  0.24391411646E+02 -0.96921931591E+02  0.10226195725E+03  0.00000000000E+00 0.  1.
         11    1    4    4    0    0  0.69716942602E+02  0.11875646279E+02 -0.26100575589E+01  0.70769311575E+02  0.00000000000E+00 0. -1.
</event>
<event>
 8    1  0.7112384E-009  0.1665134E+03  0.7561462E-02  0.1181533E+00
         -2   -1    0    0    0  501 -0.00000000000E+00  0.00000000000E+00  0.21669594319E+02  0.21669594319E+02  0.00000000000E+00 0.  1.
          2   -1    0    0  501    0  0.00000000000E+00 -0.00000000000E+00 -0.15640009527E+04  0.15640009527E+04  0.00000000000E+00 0. -1.
         25    2    1    2    0    0  0.14110853838E+03 -0.35540437028E+02 -0.71393777429E+03  0.73927634252E+03  0.12509045838E+03 0.  0.
         23    2    1    2    0    0 -0.14110853838E+03  0.35540437028E+02 -0.82839358413E+03  0.84639420454E+03  0.94723159734E+02 0.  0.
          5    1    3    3  502    0  0.77479028773E+02 -0.52661146375E+02 -0.19746391341E+03  0.21859932693E+03  0.41800000000E+01 0. -1.
         -5    1    3    3    0  502  0.63629509607E+02  0.17120709347E+02 -0.51647386088E+03  0.52067701558E+03  0.41800000000E+01 0. -1.
        -11    1    4    4    0    0 -0.73754713691E+02 -0.29650362721E+02 -0.35159946395E+03  0.36047341768E+03  0.00000000000E+00 0.  1.
         11    1    4    4    0    0 -0.67353824689E+02  0.65190799749E+02 -0.47679412018E+03  0.48592078687E+03  0.00000000000E+00 0. -1.
</event>
<event>
 8    1  0.7112384E-009  0.1083371E+03  0.7561462E-02  0.1263681E+00
          1   -1    0    0  501    0  0.00000000000E+00  0.00000000000E+00  0.80552603322E+02  0.80552603322E+02  0.00000000000E+00 0. -1.
         -1   -1    0    0    0  501 -0.00000000000E+00 -0.00000000000E+00 -0.19378787016E+03  0.19378787016E+03  0.00000000000E+00 0.  1.
         25    2    1    2    0    0 -0.55472021867E+02 -0.26488679142E+02 -0.48943314508E+02  0.14771617314E+03  0.12508327002E+03 0.  0.
         23    2    1    2    0    0  0.55472021867E+02  0.26488679142E+02 -0.64291952332E+02  0.12662430034E+03  0.90119159836E+02 0.  0.
          5    1    3    3  502    0  0.46159378815E+01  0.26940501506E+02  0.25827737718E+02  0.37837044540E+02  0.41800000000E+01 0.  1.
         -5    1    3    3    0  502 -0.60087959749E+02 -0.53429180648E+02 -0.74771052226E+02  0.10987912860E+03  0.41800000000E+01 0.  1.
        -11    1    4    4    0    0  0.30764124384E+02 -0.32380087043E+02 -0.20103999962E+02  0.48980324626E+02  0.00000000000E+00 0.  1.
         11    1    4    4    0    0  0.24707897483E+02  0.58868766185E+02 -0.44187952370E+02  0.77643975715E+02  0.00000000000E+00 0. -1.
</event>
<event>
 8    1  0.7112384E-009  0.1917626E+03  0.7561462E-02  0.1156881E+00
          2   -1    0    0  501    0  0.00000000000E+00  0.00000000000E+00  0.78403167854E+03  0.78403167854E+03  0.00000000000E+00 0. -1.
         -2   -1    0    0    0  501 -0.00000000000E+00 -0.00000000000E+00 -0.59020505344E+02  0.59020505344E+02  0.00000000000E+00 0.  1.
         25    2    1    2    0    0  0.63143676748E+02 -0.17290180214E+03  0.34041778400E+03  0.40671095895E+03  0.12508948545E+03 0.  0.
         23    2    1    2    0    0 -0.63143676748E+02  0.17290180214E+03  0.38459338920E+03  0.43634122494E+03  0.92733124981E+02 0.  0.
          5    1    3    3  502    0  0.14475595675E+02 -0.13381625997E+03  0.12993575050E+03  0.18712858136E+03  0.41800000000E+01 0. -1.
         -5    1    3    3    0  502  0.48668081073E+02 -0.39085542166E+02  0.21048203350E+03  0.21958237759E+03  0.41800000000E+01 0. -1.
        -11    1    4    4    0    0 -0.60617242719E+02  0.13121179803E+03  0.35985753131E+03  0.38779946995E+03  0.00000000000E+00 0. -1.
         11    1    4    4    0    0 -0.25264340286E+01  0.41690004110E+02  0.24735857897E+02  0.48541754990E+02  0.00000000000E+00 0.  1.
</event>
<event>
 8    1  0.7112384E-009  0.1570720E+03  0.7561462E-02  0.1192043E+00
         -2   -1    0    0    0  501 -0.00000000000E+00  0.00000000000E+00  0.47423808764E+02  0.47423808764E+02  0.00000000000E+00 0.  1.
          2   -1    0    0  501    0  0.00000000000E+00 -0.00000000000E+00 -0.54028810869E+03  0.54028810869E+03  0.00000000000E+00 0. -1.
         25    2    1    2    0    0 -0.10666061960E+03 -0.46384498291E+02 -0.27503836382E+03  0.32376056572E+03  0.12508714118E+03 0.  0.
         23    2    1    2    0    0  0.10666061960E+03  0.46384498291E+02 -0.21782593610E+03  0.26395135173E+03  0.93242523482E+02 0.  0.
          5    1    3    3  502    0 -0.12627892853E+03 -0.66119662017E+02 -0.23292490355E+03  0.27311107739E+03  0.41800000000E+01 0.  1.
         -5    1    3    3    0  502  0.19618308934E+02  0.19735163727E+02 -0.42113460265E+02  0.50649488332E+02  0.41800000000E+01 0.  1.
        -11    1    4    4    0    0 -0.91484507935E+01  0.23682714793E+02 -0.15566663110E+02  0.29780633510E+02  0.00000000000E+00 0.  1.
         11    1    4    4    0    0  0.11580907039E+03  0.22701783498E+02 -0.20225927299E+03  0.23417071822E+03  0.00000000000E+00 0. -1.
</event>
<event>
 8    1  0.7112384E-009  0.1370043E+03  0.7561462E-02  0.1217418E+00
          2   -1    0    0  501    0  0.00000000000E+00  0.00000000000E+00  0.26557600971E+03  0.26557600971E+03  0.00000000000E+00 0. -1.
         -2   -1    0    0    0  501 -0.00000000000E+00 -0.00000000000E+00 -0.95195380840E+02  0.95195380840E+02  0.00000000000E+00 0.  1.
         25    2    1    2    0    0  0.30346217144E+02  0.98620969458E+02  0.30279526776E+02  0.16496085537E+03  0.12509294765E+03 0.  0.
         23    2    1    2    0    0 -0.30346217144E+02 -0.98620969458E+02  0.14010110209E+03  0.19581053517E+03  0.89813464284E+02 0.  0.
          5    1    3    3  502    0  0.53401802562E+02  0.10771182128E+03  0.52650965445E+02  0.13131331053E+03  0.41800000000E+01 0. -1.
         -5    1    3    3    0  502 -0.23055585418E+02 -0.90908518196E+01 -0.22371438669E+02  0.33647544842E+02  0.41800000000E+01 0. -1.
        -11    1    4    4    0    0 -0.46802451753E+02 -0.24839892758E+02  0.92130759862E+02  0.10628060348E+03  0.00000000000E+00 0. -1.
         11    1    4    4    0    0  0.16456234610E+02 -0.73781076700E+02  0.47970342228E+02  0.89529931699E+02  0.00000000000E+00 0.  1.
</event>
<event>
 8    1  0.7112384E-009  0.1097932E+03  0.7561462E-02  0.1260953E+00
          2   -1    0    0  501    0  0.00000000000E+00  0.00000000000E+00  0.30284080909E+02  0.30284080909E+02  0.00000000000E+00 0. -1.
         -2   -1    0    0    0  501 -0.00000000000E+00 -0.00000000000E+00 -0.54734783524E+03  0.54734783524E+03  0.00000000000E+00 0.  1.
         25    2    1    2    0    0  0.91284881404E+01  0.67637421450E+02 -0.25733725753E+03  0.29415664283E+03  0.12509003292E+03 0.  0.
         23    2    1    2    0    0 -0.91284881404E+01 -0.67637421450E+02 -0.25972649680E+03  0.28347527331E+03  0.90786713584E+02 0.  0.
          5    1    3    3  502    0 -0.10908209551E+02 -0.31595519875E+02 -0.29388435597E+02  0.44703673883E+02  0.41800000000E+01 0. -1.
         -5    1    3    3    0  502  0.20036697691E+02  0.99232941326E+02 -0.22794882193E+03  0.24945296895E+03  0.41800000000E+01 0. -1.
        -11    1    4    4    0    0  0.16865639304E+02 -0.63760301489E+01 -0.30183470622E+01  0.18281519865E+02  0.00000000000E+00 0. -1.
         11    1    4    4    0    0 -0.25994127444E+02 -0.61261391301E+02 -0.25670814974E+03  0.26519375345E+03  0.00000000000E+00 0.  1.
</event>
<event>
 8    1  0.7112384E-009  0.1332395E+03  0.7561462E-02  0.1222727E+00
          2   -1    0    0  501    0  0.00000000000E+00  0.00000000000E+00  0.19099391959E+03  0.19099391959E+03  0.00000000000E+00 0. -1.
         -2   -1    0    0    0  501 -0.00000000000E+00 -0.00000000000E+00 -0.14996757307E+03  0.14996757307E+03  0.00000000000E+00 0.  1.
         25    2    1    2    0    0 -0.79364715592E+02  0.88557091471E+02 -0.30055222316E+02  0.17518834329E+03  0.12508606119E+03 0.  0.
         23    2    1    2    0    0  0.79364715592E+02 -0.88557091471E+02  0.71081568837E+02  0.16577314936E+03  0.91033131832E+02 0.  0.
          5    1    3    3  502    0 -0.42230716177E+02  0.80378466797E+02 -0.73797015598E+02  0.11707947397E+03  0.41800000000E+01 0.  1.
         -5    1    3    3    0  502 -0.37133999415E+02  0.81786246741E+01  0.43741793282E+02  0.58108869320E+02  0.41800000000E+01 0.  1.
        -11    1    4    4    0    0  0.12441388431E+02 -0.65313107504E+02  0.15470543196E+01  0.66505515072E+02  0.00000000000E+00 0.  1.
         11    1    4    4    0    0  0.66923327161E+02 -0.23243983967E+02  0.69534514518E+02  0.99267634293E+02  0.00000000000E+00 0. -1.
</event>
<event>
 8    1  0.7112384E-009  0.1553642E+03  0.7561462E-02  0.1194032E+00
          1   -1    0    0  501    0  0.00000000000E+00  0.00000000000E+00  0.11513655325E+04  0.11513655325E+04  0.00000000000E+00 0. -1.
         -1   -1    0    0    0  501 -0.00000000000E+00 -0.00000000000E+00 -0.26246194062E+02  0.26246194062E+02  0.00000000000E+00 0.  1.
         25    2    1    2    0    0  0.69859225972E+02 -0.86390333398E+02  0.85723456393E+03  0.87340784363E+03  0.12508622052E+03 0.  0.
         23    2    1    2    0    0 -0.69859225972E+02  0.86390333398E+02  0.26788477454E+03  0.30420388296E+03  0.91837622030E+02 0.  0.
          5    1    3    3  502    0 -0.56511654234E+01 -0.90645973673E+02  0.50531036565E+03  0.51342445038E+03  0.41800000000E+01 0. -1.
         -5    1    3    3    0  502  0.75510391396E+02  0.42556402748E+01  0.35192419828E+03  0.35998339325E+03  0.41800000000E+01 0. -1.
        -11    1    4    4    0    0  0.69637365613E+01 -0.15187290634E+02  0.27929120313E+02  0.32545094640E+02  0.00000000000E+00 0.  1.
         11    1    4    4    0    0 -0.76822962533E+02  0.10157762403E+03  0.23995565422E+03  0.27165878832E+03  0.00000000000E+00 0. -1.
</event>
<event>
 8    1  0.7112384E-009  0.8774560E+02  0.7561462E-02  0.1308405E+00
         -2   -1    0    0    0  501 -0.00000000000E+00  0.00000000000E+00  0.21242137129E+02  0.21242137129E+02  0.00000000000E+00 0. -1.
          2   -1    0    0  501    0  0.00000000000E+00 -0.00000000000E+00 -0.85918105006E+03  0.85918105006E+03  0.00000000000E+00 0.  1.
         25    2    1    2    0    0 -0.24501767292E+02  0.17602553714E+02 -0.70264931685E+03  0.71433451245E+03  0.12509015431E+03 0.  0.
         23    2    1    2    0    0  0.24501767292E+02 -0.17602553714E+02 -0.13528959608E+03  0.16608867474E+03  0.91498560492E+02 0.  0.
          5    1    3    3  502    0 -0.61325828365E+02  0.44948403207E+02 -0.53808510760E+03  0.54344665939E+03  0.41800000000E+01 0. -1.
         -5    1    3    3    0  502  0.36824061072E+02 -0.27345849492E+02 -0.16456420925E+03  0.17088785306E+03  0.41800000000E+01 0. -1.
        -11    1    4    4    0    0  0.37111229428E+02 -0.16541097698E+02 -0.14471466583E+03  0.15031029828E+03  0.00000000000E+00 0.  1.
         11    1    4    4    0    0 -0.12609462136E+02 -0.10614560161E+01  0.94250697441E+01  0.15778376466E+02  0.00000000000E+00 0. -1.
</event>
<event>
 8    1  0.7112384E-009  0.1007930E+03  0.7561462E-02  0.1278637E+00
         -1   -1    0    0    0  501 -0.00000000000E+00  0.00000000000E+00  0.10518189926E+03  0.10518189926E+03  0.00000000000E+00 0.  1.
          1   -1    0    0  501    0  0.00000000000E+00 -0.00000000000E+00 -0.26095118127E+03  0.26095118127E+03  0.00000000000E+00 0. -1.
         25    2    1    2    0    0  0.56498441262E+02  0.65211270388E+02  0.15810457329E+02  0.15278299607E+03  0.12509232461E+03 0.  0.
         23    2    1    2    0    0 -0.56498441262E+02 -0.65211270388E+02 -0.17157973935E+03  0.21335008446E+03  0.92919685388E+02 0.  0.
          5    1    3    3  502    0  0.31156744106E+02  0.66068893963E+02 -0.45599567269E+02  0.86212727528E+02  0.41800000000E+01 0.  1.
         -5    1    3    3    0  502  0.25341697156E+02 -0.85762357485E+00  0.61410024598E+02  0.66570268544E+02  0.41800000000E+01 0.  1.
        -11    1    4    4    0    0 -0.58975768484E+01 -0.49337849908E+02 -0.21435771523E+02  0.54115590609E+02  0.00000000000E+00 0.  1.
         11    1    4    4    0    0 -0.50600864414E+02 -0.15873420481E+02 -0.15014396782E+03  0.15923449385E+03  0.00000000000E+00 0. -1.
</event>
<event>
 8    1  0.7112384E-009  0.1591190E+03  0.7561462E-02  0.1189695E+00
          2   -1    0    0  501    0  0.00000000000E+00  0.00000000000E+00  0.58599902055E+03  0.58599902055E+03  0.00000000000E+00 0. -1.
         -2   -1    0    0    0  501 -0.00000000000E+00 -0.00000000000E+00 -0.58468415577E+02  0.58468415577E+02  0.00000000000E+00 0.  1.
         25    2    1    2    0    0  0.31481517632E+01  0.13977687478E+03  0.18604579848E+03  0.26421856423E+03  0.12510365690E+03 0.  0.
         23    2    1    2    0    0 -0.31481517632E+01 -0.13977687478E+03  0.34148480649E+03  0.38024887190E+03  0.91814192437E+02 0.  0.
          5    1    3    3  502    0 -0.57468618466E+01 -0.16955498509E+02 -0.28129683135E+01  0.18598401585E+02  0.41800000000E+01 0. -1.
         -5    1    3    3    0  502  0.88950136098E+01  0.15673237328E+03  0.18885876679E+03  0.24562016264E+03  0.41800000000E+01 0. -1.
        -11    1    4    4    0    0 -0.14164903710E+02 -0.40076853699E+02  0.21324120594E+03  0.21743645189E+03  0.00000000000E+00 0. -1.
         11    1    4    4    0    0  0.11016751947E+02 -0.99700021077E+02  0.12824360055E+03  0.16281242001E+03  0.00000000000E+00 0.  1.
</event>
<event>
 8    1  0.7112384E-009  0.8523384E+02  0.7561462E-02  0.1314822E+00
          4   -1    0    0  501    0  0.00000000000E+00  0.00000000000E+00  0.56261403112E+02  0.56261403112E+02  0.00000000000E+00 0. -1.
         -4   -1    0    0    0  501 -0.00000000000E+00 -0.00000000000E+00 -0.32448673007E+03  0.32448673007E+03  0.00000000000E+00 0.  1.
         25    2    1    2    0    0 -0.39062104969E+02 -0.38547004181E+02 -0.23213332032E+03  0.26934239539E+03  0.12509087886E+03 0.  0.
         23    2    1    2    0    0  0.39062104969E+02  0.38547004181E+02 -0.36092006631E+02  0.11140573779E+03  0.89982697749E+02 0.  0.
          5    1    3    3  502    0 -0.37149431971E+01  0.23474362601E+02  0.23045435136E+01  0.24241077189E+02  0.41800000000E+01 0.  1.
         -5    1    3    3    0  502 -0.35347161772E+02 -0.62021366782E+02 -0.23443786384E+03  0.24510131820E+03  0.41800000000E+01 0.  1.
        -11    1    4    4    0    0  0.84004915932E+01  0.43027704319E+02 -0.58544188512E+02  0.73139412128E+02  0.00000000000E+00 0. -1.
         11    1    4    4    0    0  0.30661613376E+02 -0.44807001379E+01  0.22452181880E+02  0.38266325663E+02  0.00000000000E+00 0.  1.
</event>
<event>
 8    1  0.7112384E-009  0.1752073E+03  0.7561462E-02  0.1172524E+00
         -1   -1    0    0    0  501 -0.00000000000E+00  0.00000000000E+00  0.23353876194E+03  0.23353876194E+03  0.00000000000E+00 0.  1.
          1   -1    0    0  501    0  0.00000000000E+00 -0.00000000000E+00 -0.14623268446E+03  0.14623268446E+03  0.00000000000E+00 0. -1.
         25    2    1    2    0    0 -0.26818623224E+02  0.14240193541E+03  0.10058963032E+02  0.19169611953E+03  0.12509464315E+03 0.  0.
         23    2    1    2    0    0  0.26818623224E+02 -0.14240193541E+03  0.77247114445E+02  0.18807532687E+03  0.91693304694E+02 0.  0.
          5    1    3    3  502    0  0.18992275978E+02 -0.94213002712E+01  0.24181288431E+02  0.32429532155E+02  0.41800000000E+01 0. -1.
         -5    1    3    3    0  502 -0.45810899202E+02  0.15182323569E+03 -0.14122325399E+02  0.15926658738E+03  0.41800000000E+01 0. -1.
        -11    1    4    4    0    0 -0.32618410062E+02 -0.63442618496E+02  0.43942745112E+02  0.83784791965E+02  0.00000000000E+00 0.  1.
         11    1    4    4    0    0  0.59437033286E+02 -0.78959316918E+02  0.33304369333E+02  0.10429053490E+03  0.00000000000E+00 0. -1.
</event>
<event>
 8    1  0.7112384E-009  0.2100626E+03  0.7561462E-02  0.1141516E+00
         -2   -1    0    0    0  501 -0.00000000000E+00  0.00000000000E+00  0.45104814696E+02  0.45104814696E+02  0.00000000000E+00 0.  1.
          2   -1    0    0  501    0  0.00000000000E+00 -0.00000000000E+00 -0.11510509565E+04  0.11510509565E+04  0.00000000000E+00 0. -1.
         25    2    1    2    0    0  0.12722093456E+03  0.14524522320E+03 -0.69495899901E+03  0.73204959701E+03  0.12508901285E+03 0.  0.
         23    2    1    2    0    0 -0.12722093456E+03 -0.14524522320E+03 -0.41098714275E+03  0.46410617414E+03  0.95931060205E+02 0.  0.
          5    1    3    3  502    0  0.14392181795E+03  0.11962283631E+03 -0.65687299209E+03  0.68302467949E+03  0.41800000000E+01 0. -1.
         -5    1    3    3    0  502 -0.16700883390E+02  0.25622386884E+02 -0.38086006913E+02  0.49024917524E+02  0.41800000000E+01 0. -1.
        -11    1    4    4    0    0  0.44857688338E+01 -0.19361482842E+02 -0.11376823610E+03  0.11549112817E+03  0.00000000000E+00 0. -1.
         11    1    4    4    0    0 -0.13170670340E+03 -0.12588374035E+03 -0.29721890665E+03  0.34861504597E+03  0.00000000000E+00 0.  1.
</event>
<event>
 8    1  0.7112384E-009  0.1378934E+03  0.7561462E-02  0.1216192E+00
         -1   -1    0    0    0  501 -0.00000000000E+00  0.00000000000E+00  0.96819518725E+03  0.96819518725E+03  0.00000000000E+00 0.  1.
          1   -1    0    0  501    0  0.00000000000E+00 -0.00000000000E+00 -0.49896290203E+02  0.49896290203E+02  0.00000000000E+00 0. -1.
         25    2    1    2    0    0 -0.11479366511E+03 -0.37429139114E+02  0.81745483755E+03  0.83573996482E+03  0.12510136437E+03 0.  0.
         23    2    1    2    0    0  0.11479366511E+03  0.37429139114E+02  0.10084405950E+03  0.18235151264E+03  0.92217264215E+02 0.  0.
          5    1    3    3  502    0 -0.73614174540E+02  0.58564031304E+01  0.16839747124E+03  0.18392532417E+03  0.41800000000E+01 0.  1.
         -5    1    3    3    0  502 -0.41179490570E+02 -0.43285542244E+02  0.64905736630E+03  0.65181464065E+03  0.41800000000E+01 0.  1.
        -11    1    4    4    0    0  0.10912723990E+03  0.55899622673E+02  0.10630073620E+03  0.16227559527E+03  0.00000000000E+00 0.  1.
         11    1    4    4    0    0  0.56664252077E+01 -0.18470483560E+02 -0.54566766946E+01  0.20075917367E+02  0.00000000000E+00 0. -1.
</event>
<event>
 8    1  0.7112384E-009  0.9494520E+02  0.7561462E-02  0.1291300E+00
         -1   -1    0    0    0  501 -0.00000000000E+00  0.00000000000E+00  0.25864271901E+02  0.25864271901E+02  0.00000000000E+00 0.  1.
          1   -1    0    0  501    0  0.00000000000E+00 -0.00000000000E+00 -0.74767737580E+03  0.74767737580E+03  0.00000000000E+00 0. -1.
         25    2    1    2    0    0  0.50658069806E+02 -0.48762114054E+02 -0.24309143904E+03  0.28228145206E+03  0.12508151998E+03 0.  0.
         23    2    1    2    0    0 -0.50658069806E+02  0.48762114054E+02 -0.47872166486E+03  0.49126019564E+03  0.84959776427E+02 0.  0.
          5    1    3    3  502    0  0.84431838580E+01 -0.33607036038E+02 -0.23366661934E+03  0.23625892919E+03  0.41800000000E+01 0.  1.
         -5    1    3    3    0  502  0.42214885948E+02 -0.15155078016E+02 -0.94248196935E+01  0.46022522872E+02  0.41800000000E+01 0.  1.
        -11    1    4    4    0    0 -0.44942473515E+02 -0.13881011505E+02 -0.18591717904E+03  0.19177514403E+03  0.00000000000E+00 0.  1.
         11    1    4    4    0    0 -0.57155962906E+01  0.62643125559E+02 -0.29280448582E+03  0.29948505161E+03  0.00000000000E+00 0. -1.
</event>
<event>
 8    1  0.7112384E-009  0.9825975E+02  0.7561462E-02  0.1283999E+00
          2   -1    0    0  501    0  0.00000000000E+00  0.00000000000E+00  0.54861541616E+02  0.54861541616E+02  0.00000000000E+00 0. -1.
         -2   -1    0    0    0  501 -0.00000000000E+00 -0.00000000000E+00 -0.24869505439E+03  0.24869505439E+03  0.00000000000E+00 0.  1.
         25    2    1    2    0    0 -0.27699158200E+02  0.28807876697E+02 -0.99356147824E+02  0.16466963405E+03  0.12508919675E+03 0.  0.
         23    2    1    2    0    0  0.27699158200E+02 -0.28807876697E+02 -0.94477364952E+02  0.13888696196E+03  0.93629475000E+02 0.  0.
          5    1    3    3  502    0 -0.18098611092E+02  0.66981268214E+02 -0.14457698691E+02  0.70996813073E+02  0.41800000000E+01 0.  1.
         -5    1    3    3    0  502 -0.96005471073E+01 -0.38173391518E+02 -0.84898449133E+02  0.93672820978E+02  0.41800000000E+01 0.  1.
        -11    1    4    4    0    0 -0.83305151782E+01  0.22920547282E+02 -0.64748975831E+02  0.69189441695E+02  0.00000000000E+00 0.  1.
         11    1    4    4    0    0  0.36029673378E+02 -0.51728423979E+02 -0.29728389121E+02  0.69697520263E+02  0.00000000000E+00 0. -1.
</event>
<event>
 8    1  0.7112384E-009  0.7124533E+02  0.7561462E-02  0.1355909E+00
         -2   -1    0    0    0  501 -0.00000000000E+00  0.00000000000E+00  0.82323781881E+02  0.82323781881E+02  0.00000000000E+00 0.  1.
          2   -1    0    0  501    0  0.00000000000E+00 -0.00000000000E+00 -0.15327799366E+03  0.15327799366E+03  0.00000000000E+00 0. -1.
         25    2    1    2    0    0  0.13375258790E+02  0.33425063288E-02 -0.14591349440E+02  0.12664884876E+03  0.12509246922E+03 0.  0.
         23    2    1    2    0    0 -0.13375258790E+02 -0.33425063288E-02 -0.56362862334E+02  0.10895292677E+03  0.92277139332E+02 0.  0.
          5    1    3    3  502    0 -0.13561464488E+02  0.23690689796E+02 -0.61519750909E+02  0.67433776804E+02  0.41800000000E+01 0. -1.
         -5    1    3    3    0  502  0.26936723278E+02 -0.23687347289E+02  0.46928401469E+02  0.59215071958E+02  0.41800000000E+01 0. -1.
        -11    1    4    4    0    0 -0.42935628557E+02  0.15167280020E+02 -0.24221508593E+01  0.45600234621E+02  0.00000000000E+00 0.  1.
         11    1    4    4    0    0  0.29560369767E+02 -0.15170622526E+02 -0.53940711475E+02  0.63352692153E+02  0.00000000000E+00 0. -1.
</event>
<event>
 8    1  0.7112384E-009  0.8804657E+02  0.7561462E-02  0.1307652E+00
         -1   -1    0    0    0  501 -0.00000000000E+00  0.00000000000E+00  0.99188905484E+02  0.99188905484E+02  0.00000000000E+00 0.  1.
          1   -1    0    0  501    0  0.00000000000E+00 -0.00000000000E+00 -0.15702749441E+03  0.15702749441E+03  0.00000000000E+00 0. -1.
         25    2    1    2    0    0  0.46855135746E+02 -0.21668253713E+02 -0.66198229281E+02  0.15064144251E+03  0.12508285925E+03 0.  0.
         23    2    1    2    0    0 -0.46855135746E+02  0.21668253713E+02  0.83596403599E+01  0.10557495738E+03  0.91712982035E+02 0.  0.
          5    1    3    3  502    0 -0.18171988369E+02  0.30783153572E+02  0.10144206979E+02  0.37392526531E+02  0.41800000000E+01 0. -1.
         -5    1    3    3    0  502  0.65027124115E+02 -0.52451407285E+02 -0.76342436260E+02  0.11324891598E+03  0.41800000000E+01 0. -1.
        -11    1    4    4    0    0 -0.34510313145E+02  0.37760383630E+01 -0.39753925266E+02  0.52778733910E+02  0.00000000000E+00 0. -1.
         11    1    4    4    0    0 -0.12344822600E+02  0.17892215350E+02  0.48113565626E+02  0.52796223467E+02  0.00000000000E+00 0.  1.
</event>
<event>
 8    1  0.7112384E-009  0.1743822E+03  0.7561462E-02  0.1173353E+00
          3   -1    0    0  501    0  0.00000000000E+00  0.00000000000E+00  0.48183278649E+03  0.48183278649E+03  0.00000000000E+00 0. -1.
         -3   -1    0    0    0  501 -0.00000000000E+00 -0.00000000000E+00 -0.75608108750E+02  0.75608108750E+02  0.00000000000E+00 0.  1.
         25    2    1    2    0    0 -0.74129522108E+01  0.14264091439E+03  0.32041157731E+03  0.37244120767E+03  0.12508993555E+03 0.  0.
         23    2    1    2    0    0  0.74129522108E+01 -0.14264091439E+03  0.85813100426E+02  0.18499968757E+03  0.80371723134E+02 0.  0.
          5    1    3    3  502    0  0.36799381612E+02  0.13512563573E+03  0.20272977963E+03  0.24643451031E+03  0.41800000000E+01 0. -1.
         -5    1    3    3    0  502 -0.44212333822E+02  0.75152786526E+01  0.11768179768E+03  0.12600669736E+03  0.41800000000E+01 0. -1.
        -11    1    4    4    0    0 -0.28369218943E+02 -0.17214305931E+02  0.13148863672E+02  0.35693662295E+02  0.00000000000E+00 0. -1.
         11    1    4    4    0    0  0.35782171154E+02 -0.12542660845E+03  0.72664236754E+02  0.14930602528E+03  0.00000000000E+00 0.  1.
</event>
<event>
 8    1  0.7112384E-009  0.1409413E+03  0.7561462E-02  0.1212068E+00
         -2   -1    0    0    0  501 -0.00000000000E+00  0.00000000000E+00  0.23667171303E+02  0.23667171303E+02  0.00000000000E+00 0.  1.
          2   -1    0    0  501    0  0.00000000000E+00 -0.00000000000E+00 -0.10464685656E+04  0.10464685656E+04  0.00000000000E+00 0. -1.
         25    2    1    2    0    0 -0.19049328026E+02 -0.11199953161E+03 -0.58766485332E+03  0.61147652351E+03  0.12508711763E+03 0.  0.
         23    2    1    2    0    0  0.19049328026E+02  0.11199953161E+03 -0.43513654096E+03  0.45865921338E+03  0.90098239477E+02 0.  0.
          5    1    3    3  502    0 -0.64507711176E+02 -0.24378004550E+02 -0.20835377804E+03  0.21950922790E+03  0.41800000000E+01 0. -1.
         -5    1    3    3    0  502  0.45458383150E+02 -0.87621527058E+02 -0.37931107528E+03  0.39196729562E+03  0.41800000000E+01 0. -1.
        -11    1    4    4    0    0 -0.75533840029E+00  0.13698260448E+02 -0.17585390916E+01  0.13831317187E+02  0.00000000000E+00 0.  1.
         11    1    4    4    0    0  0.19804666427E+02  0.98301271161E+02 -0.43337800187E+03  0.44482789619E+03  0.00000000000E+00 0. -1.
</event>
<event>
 8    1  0.7112384E-009  0.1798114E+03  0.7561462E-02  0.1167986E+00
          1   -1    0    0  501    0  0.00000000000E+00  0.00000000000E+00  0.26535290896E+03  0.26535290896E+03  0.00000000000E+00 0. -1.
         -1   -1    0    0    0  501 -0.00000000000E+00 -0.00000000000E+00 -0.19193715627E+03  0.19193715627E+03  0.00000000000E+00 0.  1.
         25    2    1    2    0    0  0.87932108483E+01  0.16580279575E+03 -0.68319313969E+02  0.21881966831E+03  0.12508649384E+03 0.  0.
         23    2    1    2    0    0 -0.87932108483E+01 -0.16580279575E+03  0.14173506666E+03  0.23847039692E+03  0.95976108748E+02 0.  0.
          5    1    3    3  502    0  0.27389240140E+02  0.14279957217E+03 -0.13272107785E+01  0.14546862953E+03  0.41800000000E+01 0.  1.
         -5    1    3    3    0  502 -0.18596029292E+02  0.23003223578E+02 -0.66992103191E+02  0.73351038781E+02  0.41800000000E+01 0.  1.
        -11    1    4    4    0    0  0.34370449822E+02 -0.98573054386E+02  0.46834769904E+02  0.11441796425E+03  0.00000000000E+00 0.  1.
         11    1    4    4    0    0 -0.43163660670E+02 -0.67229741365E+02  0.94900296751E+02  0.12405243266E+03  0.00000000000E+00 0. -1.
</event>
<event>
 8    1  0.7112384E-009  0.7398769E+02  0.7561462E-02  0.1347035E+00
          2   -1    0    0  501    0  0.00000000000E+00  0.00000000000E+00  0.38626026997E+03  0.38626026997E+03  0.00000000000E+00 0. -1.
         -2   -1    0    0    0  501 -0.00000000000E+00 -0.00000000000E+00 -0.36427027873E+02  0.36427027873E+02  0.00000000000E+00 0.  1.
         25    2    1    2    0    0  0.15678159262E+02  0.41964012875E+02  0.19153986928E+03  0.23311379297E+03  0.12509091052E+03 0.  0.
         23    2    1    2    0    0 -0.15678159262E+02 -0.41964012875E+02  0.15829337282E+03  0.18957350487E+03  0.94204770669E+02 0.  0.
          5    1    3    3  502    0  0.38110093307E+02  0.30412856297E+02  0.10211488179E+02  0.49990678440E+02  0.41800000000E+01 0.  1.
         -5    1    3    3    0  502 -0.22431934045E+02  0.11551156578E+02  0.18132838110E+03  0.18312311453E+03  0.41800000000E+01 0.  1.
        -11    1    4    4    0    0 -0.36204580614E+02 -0.14095846638E+02  0.14174567314E+02  0.41356775847E+02  0.00000000000E+00 0.  1.
         11    1    4    4    0    0  0.20526421352E+02 -0.27868166237E+02  0.14411880550E+03  0.14821672902E+03  0.00000000000E+00 0. -1.
</event>
<event>
 8    1  0.7112384E-009  0.1047609E+03  0.7561462E-02  0.1270591E+00
          2   -1    0    0  501    0  0.00000000000E+00  0.00000000000E+00  0.18467814265E+03  0.18467814265E+03  0.00000000000E+00 0. -1.
         -2   -1    0    0    0  501 -0.00000000000E+00 -0.00000000000E+00 -0.10713277154E+03  0.10713277154E+03  0.00000000000E+00 0.  1.
         25    2    1    2    0    0  0.25067725234E+02  0.13320592060E+02 -0.40621257967E+02  0.13454804079E+03  0.12508900695E+03 0.  0.
         23    2    1    2    0    0 -0.25067725234E+02 -0.13320592060E+02  0.11816662907E+03  0.15726287340E+03  0.99811973749E+02 0.  0.
          5    1    3    3  502    0 -0.89620267735E+01  0.64718318584E+02 -0.12440686377E+02  0.66640991603E+02  0.41800000000E+01 0.  1.
         -5    1    3    3    0  502  0.34029752007E+02 -0.51397726525E+02 -0.28180571590E+02  0.67907049183E+02  0.41800000000E+01 0.  1.
        -11    1    4    4    0    0 -0.27492340549E+02  0.28952591136E+02  0.10590428804E+03  0.11318038499E+03  0.00000000000E+00 0. -1.
         11    1    4    4    0    0  0.24246153155E+01 -0.42273183195E+02  0.12262341034E+02  0.44082488411E+02  0.00000000000E+00 0.  1.
</event>
<event>
 8    1  0.7112384E-009  0.1196220E+03  0.7561462E-02  0.1243722E+00
         -2   -1    0    0    0  501 -0.00000000000E+00  0.00000000000E+00  0.16214792477E+02  0.16214792477E+02  0.00000000000E+00 0.  1.
          2   -1    0    0  501    0  0.00000000000E+00 -0.00000000000E+00 -0.14064408989E+04  0.14064408989E+04  0.00000000000E+00 0. -1.
         25    2    1    2    0    0  0.54227151377E+02  0.68403910687E+02 -0.10035676465E+04  0.10150938006E+04  0.12509086280E+03 0.  0.
         23    2    1    2    0    0 -0.54227151377E+02 -0.68403910687E+02 -0.38665845990E+03  0.40756189076E+03  0.94774739490E+02 0.  0.
          5    1    3    3  502    0  0.34179659322E+02 -0.52244975470E+01 -0.73606459467E+03  0.73688812205E+03  0.41800000000E+01 0. -1.
         -5    1    3    3    0  502  0.20047492055E+02  0.73628408234E+02 -0.26750305181E+03  0.27820567852E+03  0.41800000000E+01 0. -1.
        -11    1    4    4    0    0 -0.80153656545E+02 -0.40155829853E+02 -0.24828733175E+03  0.26397670056E+03  0.00000000000E+00 0. -1.
         11    1    4    4    0    0  0.25926505168E+02 -0.28248080834E+02 -0.13837112815E+03  0.14358519021E+03  0.00000000000E+00 0.  1.
</event>
<event>
 8    1  0.7112384E-009  0.1233772E+03  0.7561462E-02  0.1237627E+00
         -1   -1    0    0    0  501 -0.00000000000E+00  0.00000000000E+00  0.11616920954E+03  0.11616920954E+03  0.00000000000E+00 0.  1.
          1   -1    0    0  501    0  0.00000000000E+00 -0.00000000000E+00 -0.14173561740E+03  0.14173561740E+03  0.00000000000E+00 0. -1.
         25    2    1    2    0    0  0.23905380100E+02 -0.58480640671E+02 -0.43472050765E+02  0.14672978932E+03  0.12509340248E+03 0.  0.
         23    2    1    2    0    0 -0.23905380100E+02  0.58480640671E+02  0.17905642901E+02  0.11117503763E+03  0.89709667331E+02 0.  0.
          5    1    3    3  502    0  0.33412329005E+02  0.31880869101E+02 -0.10891021830E+01  0.46383532506E+02  0.41800000000E+01 0. -1.
         -5    1    3    3    0  502 -0.95069489050E+01 -0.90361509772E+02 -0.42382948582E+02  0.10034625681E+03  0.41800000000E+01 0. -1.
        -11    1    4    4    0    0 -0.42483377406E+02  0.73928488354E+02  0.17316053359E+02  0.87006347183E+02  0.00000000000E+00 0.  1.
         11    1    4    4    0    0  0.18577997306E+02 -0.15447847683E+02  0.58958954237E+00  0.24168690444E+02  0.00000000000E+00 0. -1.
</event>
<event>
 8    1  0.7112384E-009  0.1234959E+03  0.7561462E-02  0.1237439E+00
          1   -1    0    0  501    0  0.00000000000E+00  0.00000000000E+00  0.33340638371E+03  0.33340638371E+03  0.00000000000E+00 0. -1.
         -1   -1    0    0    0  501 -0.00000000000E+00 -0.00000000000E+00 -0.60587356802E+02  0.60587356802E+02  0.00000000000E+00 0.  1.
         25    2    1    2    0    0  0.77057337144E+01 -0.64323697358E+02  0.59447135914E+02  0.15291006041E+03  0.12510239100E+03 0.  0.
         23    2    1    2    0    0 -0.77057337144E+01  0.64323697358E+02  0.21337189099E+03  0.24108368010E+03  0.91634385304E+02 0.  0.
          5    1    3    3  502    0  0.61811326276E+02 -0.57281555766E+02  0.47756230638E+02  0.96953322025E+02  0.41800000000E+01 0.  1.
         -5    1    3    3    0  502 -0.54105592562E+02 -0.70421415920E+01  0.11690905276E+02  0.55956738386E+02  0.41800000000E+01 0.  1.
        -11    1    4    4    0    0  0.24287665733E+02  0.71149413822E+02  0.11481349481E+03  0.13723799906E+03  0.00000000000E+00 0. -1.
         11    1    4    4    0    0 -0.31993399447E+02 -0.68257164638E+01  0.98558396179E+02  0.10384568104E+03  0.00000000000E+00 0.  1.
</event>
<event>
 8    1  0.7112384E-009  0.1093856E+03  0.7561462E-02  0.1261712E+00
         -2   -1    0    0    0  501 -0.00000000000E+00  0.00000000000E+00  0.22565459656E+02  0.22565459656E+02  0.00000000000E+00 0.  1.
          2   -1    0    0  501    0  0.00000000000E+00 -0.00000000000E+00 -0.17402849525E+04  0.17402849525E+04  0.00000000000E+00 0. -1.
         25    2    1    2    0    0 -0.42700458094E+02 -0.58759101745E+02 -0.15571770437E+04  0.15638804945E+04  0.12508355031E+03 0.  0.
         23    2    1    2    0    0  0.42700458094E+02  0.58759101745E+02 -0.16054244920E+03  0.19896991769E+03  0.92407732315E+02 0.  0.
          5    1    3    3  502    0  0.35412204098E+02 -0.49384382601E+02 -0.88688391742E+03  0.88897322615E+03  0.41800000000E+01 0.  1.
         -5    1    3    3    0  502 -0.78112662192E+02 -0.93747191440E+01 -0.67029312628E+03  0.67490726837E+03  0.41800000000E+01 0.  1.
        -11    1    4    4    0    0  0.13101048178E+02  0.44176207184E+02 -0.13133580270E+02  0.47913105464E+02  0.00000000000E+00 0.  1.
         11    1    4    4    0    0  0.29599409916E+02  0.14582894561E+02 -0.14740886893E+03  0.15105681222E+03  0.00000000000E+00 0. -1.
</event>
<event>
 8    1  0.7112384E-009  0.1066788E+03  0.7561462E-02  0.1266847E+00
         -2   -1    0    0    0  501 -0.00000000000E+00  0.00000000000E+00  0.19806923151E+02  0.19806923151E+02  0.00000000000E+00 0.  1.
          2   -1    0    0  501    0  0.00000000000E+00 -0.00000000000E+00 -0.13881694682E+04  0.13881694682E+04  0.00000000000E+00 0. -1.
         25    2    1    2    0    0  0.47302484784E+01 -0.69036990174E+02 -0.11654767034E+04  0.11742106939E+04  0.12508527662E+03 0.  0.
         23    2    1    2    0    0 -0.47302484784E+01  0.69036990174E+02 -0.20288584165E+03  0.23376569737E+03  0.93248352601E+02 0.  0.
          5    1    3    3  502    0 -0.33688540313E+02 -0.56893556488E+02 -0.10451611414E+04  0.10472588403E+04  0.41800000000E+01 0.  1.
         -5    1    3    3    0  502  0.38418788791E+02 -0.12143433685E+02 -0.12031556192E+03  0.12695185369E+03  0.41800000000E+01 0.  1.
        -11    1    4    4    0    0  0.38244048055E+02  0.32032930240E+02 -0.49697100283E+02  0.70416742383E+02  0.00000000000E+00 0. -1.
         11    1    4    4    0    0 -0.42974296533E+02  0.37004059934E+02 -0.15318874137E+03  0.16334895499E+03  0.00000000000E+00 0.  1.
</event>
<event>
 8    1  0.7112384E-009  0.1373606E+03  0.7561462E-02  0.1216925E+00
          1   -1    0    0  501    0  0.00000000000E+00  0.00000000000E+00  0.10547459918E+04  0.10547459918E+04  0.00000000000E+00 0. -1.
         -1   -1    0    0    0  501 -0.00000000000E+00 -0.00000000000E+00 -0.32410975267E+02  0.32410975267E+02  0.00000000000E+00 0.  1.
         25    2    1    2    0    0  0.13901093057E+02 -0.94683168236E+02  0.87611357151E+03  0.89015827698E+03  0.12509446489E+03 0.  0.
         23    2    1    2    0    0 -0.13901093057E+02  0.94683168236E+02  0.14622144504E+03  0.19699869011E+03  0.90937507004E+02 0.  0.
          5    1    3    3  502    0 -0.40772663572E+02 -0.64101199112E+01  0.12069102155E+03  0.12762168630E+03  0.41800000000E+01 0.  1.
         -5    1    3    3    0  502  0.54673756629E+02 -0.88273048325E+02  0.75542254997E+03  0.76253659068E+03  0.41800000000E+01 0.  1.
        -11    1    4    4    0    0  0.10254161755E+02  0.10319866739E+03  0.99512035077E+02  0.14372806932E+03  0.00000000000E+00 0.  1.
         11    1    4    4    0    0 -0.24155254811E+02 -0.85154991517E+01  0.46709409963E+02  0.53270620795E+02  0.00000000000E+00 0. -1.
</event>
<event>
 8    1  0.7112384E-009  0.1481828E+03  0.7561462E-02  0.1202724E+00
          1   -1    0    0  501    0  0.00000000000E+00  0.00000000000E+00  0.92712606287E+02  0.92712606287E+02  0.00000000000E+00 0. -1.
         -1   -1    0    0    0  501 -0.00000000000E+00 -0.00000000000E+00 -0.33333162685E+03  0.33333162685E+03  0.00000000000E+00 0.  1.
         25    2    1    2    0    0  0.57757514091E+02  0.83022119971E+02 -0.13343650390E+02  0.16141623298E+03  0.12509414225E+03 0.  0.
         23    2    1    2    0    0 -0.57757514091E+02 -0.83022119971E+02 -0.22727537017E+03  0.26462800016E+03  0.90251214620E+02 0.  0.
          5    1    3    3  502    0 -0.39069443185E+02  0.13334766604E+02 -0.34321874720E+01  0.41635197874E+02  0.41800000000E+01 0.  1.
         -5    1    3    3    0  502  0.96826957276E+02  0.69687353367E+02 -0.99114629184E+01  0.11978103511E+03  0.41800000000E+01 0.  1.
        -11    1    4    4    0    0 -0.46597681192E+02  0.49179171893E+01 -0.75249826722E+02  0.88645734380E+02  0.00000000000E+00 0.  1.
         11    1    4    4    0    0 -0.11159832899E+02 -0.87940037160E+02 -0.15202554345E+03  0.17598226578E+03  0.00000000000E+00 0. -1.
</event>
<event>
 8    1  0.7112384E-009  0.1029907E+03  0.7561462E-02  0.1274130E+00
         -1   -1    0    0    0  501 -0.00000000000E+00  0.00000000000E+00  0.15057118836E+03  0.15057118836E+03  0.00000000000E+00 0.  1.
          1   -1    0    0  501    0  0.00000000000E+00 -0.00000000000E+00 -0.18802691638E+03  0.18802691638E+03  0.00000000000E+00 0. -1.
         25    2    1    2    0    0 -0.15819248081E+02  0.22237946540E+02  0.10621015495E+03  0.16634925405E+03  0.12508677960E+03 0.  0.
         23    2    1    2    0    0  0.15819248081E+02 -0.22237946540E+02 -0.14366588297E+03  0.17224885069E+03  0.91022006997E+02 0.  0.
          5    1    3    3  502    0 -0.58539553937E+02  0.41353618936E+02  0.32204851998E+02  0.78686886242E+02  0.41800000000E+01 0.  1.
         -5    1    3    3    0  502  0.42720305856E+02 -0.19115672396E+02  0.74005302956E+02  0.87662367805E+02  0.41800000000E+01 0.  1.
        -11    1    4    4    0    0 -0.49356776505E+01  0.30305218985E+02 -0.86887066043E+02  0.92152750676E+02  0.00000000000E+00 0. -1.
         11    1    4    4    0    0  0.20754925732E+02 -0.52543165526E+02 -0.56778816927E+02  0.80096100013E+02  0.00000000000E+00 0.  1.
</event>
<event>
 8    1  0.7112384E-009  0.8685035E+02  0.7561462E-02  0.1310663E+00
          1   -1    0    0  501    0  0.00000000000E+00  0.00000000000E+00  0.43417677357E+03  0.43417677357E+03  0.00000000000E+00 0. -1.
         -1   -1    0    0    0  501 -0.00000000000E+00 -0.00000000000E+00 -0.34968493892E+02  0.34968493892E+02  0.00000000000E+00 0.  1.
         25    2    1    2    0    0 -0.47736254979E+02 -0.32886538857E+02  0.24568524971E+03  0.28172481425E+03  0.12508938629E+03 0.  0.
         23    2    1    2    0    0  0.47736254979E+02  0.32886538857E+02  0.15352302996E+03  0.18742045321E+03  0.90536352221E+02 0.  0.
          5    1    3    3  502    0 -0.20684555664E+02 -0.67558148853E+02  0.66298133093E+02  0.96978704730E+02  0.41800000000E+01 0. -1.
         -5    1    3    3    0  502 -0.27051699315E+02  0.34671609996E+02  0.17938711662E+03  0.18474610952E+03  0.41800000000E+01 0. -1.
        -11    1    4    4    0    0  0.17671750049E+02  0.17909851793E+02  0.15171106197E+03  0.15378328864E+03  0.00000000000E+00 0. -1.
         11    1    4    4    0    0  0.30064504931E+02  0.14976687064E+02  0.18119679957E+01  0.33637164568E+02  0.00000000000E+00 0.  1.
</event>
<event>
 8    1  0.7112384E-009  0.1417024E+03  0.7561462E-02  0.1211056E+00
          1   -1    0    0  501    0  0.00000000000E+00  0.00000000000E+00  0.38187041254E+03  0.38187041254E+03  0.00000000000E+00 0. -1.
         -1   -1    0    0    0  501 -0.00000000000E+00 -0.00000000000E+00 -0.75035357355E+02  0.75035357355E+02  0.00000000000E+00 0.  1.
         25    2    1    2    0    0  0.87223294990E+02 -0.90763524297E+02  0.12335912610E+03  0.21612646570E+03  0.12508898693E+03 0.  0.
         23    2    1    2    0    0 -0.87223294990E+02  0.90763524297E+02  0.18347592908E+03  0.24077930420E+03  0.92007261923E+02 0.  0.
          5    1    3    3  502    0  0.27884479365E+02 -0.61761140890E+02  0.13292448724E+03  0.14925941988E+03  0.41800000000E+01 0.  1.
         -5    1    3    3    0  502  0.59338815625E+02 -0.29002383407E+02 -0.95653611377E+01  0.66867045820E+02  0.41800000000E+01 0.  1.
        -11    1    4    4    0    0 -0.33244777970E+02 -0.10260333604E+02  0.17045611828E+02  0.38743290909E+02  0.00000000000E+00 0.  1.
         11    1    4    4    0    0 -0.53978517020E+02  0.10102385790E+03  0.16643031725E+03  0.20203601329E+03  0.00000000000E+00 0. -1.
</event>
<event>
 8    1  0.7112384E-009  0.8371277E+02  0.7561462E-02  0.1318833E+00
          1   -1    0    0  501    0  0.00000000000E+00  0.00000000000E+00  0.44661086766E+02  0.44661086766E+02  0.00000000000E+00 0. -1.
         -1   -1    0    0    0  501 -0.00000000000E+00 -0.00000000000E+00 -0.35614435191E+03  0.35614435191E+03  0.00000000000E+00 0.  1.
         25    2    1    2    0    0  0.33051975712E+01  0.24600567969E+02 -0.26763740317E+03  0.29647019754E+03  0.12509470883E+03 0.  0.
         23    2    1    2    0    0 -0.33051975712E+01 -0.24600567969E+02 -0.43845861974E+02  0.10433524114E+03  0.91363398887E+02 0.  0.
          5    1    3    3  502    0  0.38350725924E+02 -0.30036374357E+02 -0.18473977446E+03  0.19110002258E+03  0.41800000000E+01 0. -1.
         -5    1    3    3    0  502 -0.35045528353E+02  0.54636942325E+02 -0.82897628714E+02  0.10537017496E+03  0.41800000000E+01 0. -1.
        -11    1    4    4    0    0  0.22041304479E+02 -0.13242128186E+02  0.21380768125E+02  0.33441146925E+02  0.00000000000E+00 0. -1.
         11    1    4    4    0    0 -0.25346502051E+02 -0.11358439783E+02 -0.65226630099E+02  0.70894094215E+02  0.00000000000E+00 0.  1.
</event>
<event>
 8    1  0.7112384E-009  0.1062885E+03  0.7561462E-02  0.1267602E+00
         -2   -1    0    0    0  501 -0.00000000000E+00  0.00000000000E+00  0.41641855341E+02  0.41641855341E+02  0.00000000000E+00 0.  1.
          2   -1    0    0  501    0  0.00000000000E+00 -0.00000000000E+00 -0.34347586102E+03  0.34347586102E+03  0.00000000000E+00 0. -1.
         25    2    1    2    0    0 -0.13580264742E+02  0.38066503898E+02 -0.13828123361E+03  0.19079489646E+03  0.12509001014E+03 0.  0.
         23    2    1    2    0    0  0.13580264742E+02 -0.38066503898E+02 -0.16355277206E+03  0.19432281990E+03  0.96841968043E+02 0.  0.
          5    1    3    3  502    0 -0.61775259287E+02  0.49603912216E+02 -0.10206524497E+03  0.12927303430E+03  0.41800000000E+01 0. -1.
         -5    1    3    3    0  502  0.48194994545E+02 -0.11537408318E+02 -0.36215988649E+02  0.61521862160E+02  0.41800000000E+01 0. -1.
        -11    1    4    4    0    0  0.11745236869E+02 -0.60181688761E+02 -0.51444991567E+02  0.80039823892E+02  0.00000000000E+00 0.  1.
         11    1    4    4    0    0  0.18350278730E+01  0.22115184863E+02 -0.11210778049E+03  0.11428299600E+03  0.00000000000E+00 0. -1.
</event>
<event>
 8    1  0.7112384E-009  0.9677035E+02  0.7561462E-02  0.1287238E+00
          1   -1    0    0  501    0  0.00000000000E+00  0.00000000000E+00  0.30537534921E+03  0.30537534921E+03  0.00000000000E+00 0. -1.
         -1   -1    0    0    0  501 -0.00000000000E+00 -0.00000000000E+00 -0.43564598703E+02  0.43564598703E+02  0.00000000000E+00 0.  1.
         25    2    1    2    0    0 -0.35891483281E+02 -0.66427640051E+01  0.12847713064E+03  0.18298982395E+03  0.12508628097E+03 0.  0.
         23    2    1    2    0    0  0.35891483281E+02  0.66427640051E+01  0.13333361987E+03  0.16595012396E+03  0.91811026404E+02 0.  0.
          5    1    3    3  502    0 -0.31068289458E+02 -0.61600709922E+02  0.43760481839E+02  0.81806712705E+02  0.41800000000E+01 0. -1.
         -5    1    3    3    0  502 -0.48231938229E+01  0.54957945917E+02  0.84716648800E+02  0.10118311125E+03  0.41800000000E+01 0. -1.
        -11    1    4    4    0    0  0.41855095936E+02  0.25707326751E+02  0.23748370013E+02  0.54559149396E+02  0.00000000000E+00 0.  1.
         11    1    4    4    0    0 -0.59636126551E+01 -0.19064562746E+02  0.10958524985E+03  0.11139097456E+03  0.00000000000E+00 0. -1.
</event>
<event>
 8    1  0.7112384E-009  0.1618069E+03  0.7561462E-02  0.1186672E+00
         -1   -1    0    0    0  501 -0.00000000000E+00  0.00000000000E+00  0.62092536092E+02  0.62092536092E+02  0.00000000000E+00 0.  1.
          1   -1    0    0  501    0  0.00000000000E+00 -0.00000000000E+00 -0.62814896031E+03  0.62814896031E+03  0.00000000000E+00 0. -1.
         25    2    1    2    0    0  0.34910235659E+02  0.15162223102E+03 -0.38307471204E+03  0.43197516275E+03  0.12509308829E+03 0.  0.
         23    2    1    2    0    0 -0.34910235659E+02 -0.15162223102E+03 -0.18298171218E+03  0.25826633365E+03  0.94927164773E+02 0.  0.
          5    1    3    3  502    0  0.50205987787E+02  0.82198944723E+02 -0.95452265417E+02  0.13566840125E+03  0.41800000000E+01 0. -1.
         -5    1    3    3    0  502 -0.15295752128E+02  0.69423286298E+02 -0.28762244662E+03  0.29630676150E+03  0.41800000000E+01 0. -1.
        -11    1    4    4    0    0 -0.17754672659E+02 -0.53131700066E+02 -0.77929751086E+01  0.56559140854E+02  0.00000000000E+00 0.  1.
         11    1    4    4    0    0 -0.17155563001E+02 -0.98490530955E+02 -0.17518873707E+03  0.20170719280E+03  0.00000000000E+00 0. -1.
</event>
<event>
 8    1  0.7112384E-009  0.1477305E+03  0.7561462E-02  0.1203290E+00
         -1   -1    0    0    0  501 -0.00000000000E+00  0.00000000000E+00  0.99739803181E+02  0.99739803181E+02  0.00000000000E+00 0.  1.
          1   -1    0    0  501    0  0.00000000000E+00 -0.00000000000E+00 -0.30051782887E+03  0.30051782887E+03  0.00000000000E+00 0. -1.
         25    2    1    2    0    0 -0.50469867988E+02 -0.10597954378E+03 -0.30617632519E+02  0.17425261152E+03  0.12509061486E+03 0.  0.
         23    2    1    2    0    0  0.50469867988E+02  0.10597954378E+03 -0.17016039317E+03  0.22600502053E+03  0.91350088266E+02 0.  0.
          5    1    3    3  502    0  0.15087513774E+02  0.22334254064E+02 -0.25496620279E+01  0.27393888971E+02  0.41800000000E+01 0. -1.
         -5    1    3    3    0  502 -0.65557381762E+02 -0.12831379785E+03 -0.28067970491E+02  0.14685872255E+03  0.41800000000E+01 0. -1.
        -11    1    4    4    0    0 -0.53398987472E+01  0.25780181475E+02 -0.10574966871E+03  0.10897763398E+03  0.00000000000E+00 0. -1.
         11    1    4    4    0    0  0.55809766735E+02  0.80199362308E+02 -0.64410724462E+02  0.11702738655E+03  0.00000000000E+00 0.  1.
</event>
<event>
 8    1  0.7112384E-009  0.1069060E+03  0.7561462E-02  0.1266409E+00
         -1   -1    0    0    0  501 -0.00000000000E+00  0.00000000000E+00  0.20884132320E+03  0.20884132320E+03  0.00000000000E+00 0.  1.
          1   -1    0    0  501    0  0.00000000000E+00 -0.00000000000E+00 -0.13835784580E+03  0.13835784580E+03  0.00000000000E+00 0. -1.
         25    2    1    2    0    0 -0.78908611688E+02  0.15174809229E+02 -0.67571614741E+02  0.16330717118E+03  0.12508583136E+03 0.  0.
         23    2    1    2    0    0  0.78908611688E+02 -0.15174809229E+02  0.13805509213E+03  0.18389199781E+03  0.91105513350E+02 0.  0.
          5    1    3    3  502    0 -0.81030152405E+02 -0.27447997765E+02 -0.28905645469E+01  0.85703593527E+02  0.41800000000E+01 0.  1.
         -5    1    3    3    0  502  0.21215407170E+01  0.42622806994E+02 -0.64681050194E+02  0.77603577657E+02  0.41800000000E+01 0.  1.
        -11    1    4    4    0    0  0.52260712455E+02  0.40516273824E+01  0.12200893639E+02  0.53818765838E+02  0.00000000000E+00 0. -1.
         11    1    4    4    0    0  0.26647899233E+02 -0.19226436611E+02  0.12585419849E+03  0.13007323198E+03  0.00000000000E+00 0.  1.
</event>
<event>
 8    1  0.7112384E-009  0.2260971E+03  0.7561462E-02  0.1129417E+00
         -2   -1    0    0    0  501 -0.00000000000E+00  0.00000000000E+00  0.24540699790E+03  0.24540699790E+03  0.00000000000E+00 0.  1.
          2   -1    0    0  501    0  0.00000000000E+00 -0.00000000000E+00 -0.25389245384E+03  0.25389245384E+03  0.00000000000E+00 0. -1.
         25    2    1    2    0    0 -0.20440063602E+03 -0.63815101520E+02  0.62652061017E+02  0.25578544167E+03  0.12509566033E+03 0.  0.
         23    2    1    2    0    0  0.20440063602E+03  0.63815101520E+02 -0.71137516954E+02  0.24351401007E+03  0.91578051923E+02 0.  0.
          5    1    3    3  502    0 -0.34240697731E+02 -0.56576844374E+02 -0.15959206257E+02  0.68158149658E+02  0.41800000000E+01 0. -1.
         -5    1    3    3    0  502 -0.17015993829E+03 -0.72382571455E+01  0.78611267274E+02  0.18762729201E+03  0.41800000000E+01 0. -1.
        -11    1    4    4    0    0  0.73198381534E+02  0.35456850895E+02  0.16788456435E+02  0.83048441310E+02  0.00000000000E+00 0.  1.
         11    1    4    4    0    0  0.13120225449E+03  0.28358250625E+02 -0.87925973389E+02  0.16046556876E+03  0.00000000000E+00 0. -1.
</event>
<event>
 8    1  0.7112384E-009  0.1288149E+03  0.7561462E-02  0.1229225E+00
         -1   -1    0    0    0  501 -0.00000000000E+00  0.00000000000E+00  0.89142755154E+02  0.89142755154E+02  0.00000000000E+00 0.  1.
          1   -1    0    0  501    0  0.00000000000E+00 -0.00000000000E+00 -0.28359391719E+03  0.28359391719E+03  0.00000000000E+00 0. -1.
         25    2    1    2    0    0  0.14042972663E+02  0.95372394547E+02 -0.28989049933E+02  0.16056346674E+03  0.12508862103E+03 0.  0.
         23    2    1    2    0    0 -0.14042972663E+02 -0.95372394547E+02 -0.16546211211E+03  0.21217320561E+03  0.91360056444E+02 0.  0.
          5    1    3    3  502    0 -0.47542155328E+02  0.54488968155E+01 -0.13930534859E+01  0.48055800980E+02  0.41800000000E+01 0.  1.
         -5    1    3    3    0  502  0.61585127991E+02  0.89923497732E+02 -0.27595996447E+02  0.11250766576E+03  0.41800000000E+01 0.  1.
        -11    1    4    4    0    0 -0.19839661881E+02 -0.38078072050E+02 -0.69125737295E+01  0.43489486433E+02  0.00000000000E+00 0. -1.
         11    1    4    4    0    0  0.57966892181E+01 -0.57294322497E+02 -0.15854953838E+03  0.16868371918E+03  0.00000000000E+00 0.  1.
</event>
<event>
 8    1  0.7112384E-009  0.1844345E+03  0.7561462E-02  0.1163579E+00
         -2   -1    0    0    0  501 -0.00000000000E+00  0.00000000000E+00  0.73035063642E+03  0.73035063642E+03  0.00000000000E+00 0.  1.
          2   -1    0    0  501    0  0.00000000000E+00 -0.00000000000E+00 -0.51904195397E+02  0.51904195397E+02  0.00000000000E+00 0. -1.
         25    2    1    2    0    0 -0.59518077494E+02 -0.14530210006E+03  0.28163439674E+03  0.34586189400E+03  0.12508962570E+03 0.  0.
         23    2    1    2    0    0  0.59518077494E+02  0.14530210006E+03  0.39681204428E+03  0.43639293782E+03  0.91235387117E+02 0.  0.
          5    1    3    3  502    0  0.24889527552E+02  0.28641046824E+01  0.67324946348E+02  0.71957018269E+02  0.41800000000E+01 0. -1.
         -5    1    3    3    0  502 -0.84407605045E+02 -0.14816620475E+03  0.21430945039E+03  0.27390487573E+03  0.41800000000E+01 0. -1.
        -11    1    4    4    0    0  0.24666307180E+02  0.12616359505E+01  0.11888525927E+03  0.12142373453E+03  0.00000000000E+00 0.  1.
         11    1    4    4    0    0  0.34851770314E+02  0.14404046411E+03  0.27792678500E+03  0.31496920329E+03  0.00000000000E+00 0. -1.
</event>
<event>
 8    1  0.7112384E-009  0.9648823E+02  0.7561462E-02  0.1287859E+00
          4   -1    0    0  501    0  0.00000000000E+00  0.00000000000E+00  0.57814832225E+02  0.57814832225E+02  0.00000000000E+00 0.  1.
         -4   -1    0    0    0  501 -0.00000000000E+00 -0.00000000000E+00 -0.30517510297E+03  0.30517510297E+03  0.00000000000E+00 0. -1.
         25    2    1    2    0    0 -0.20859208710E+02  0.67271545010E+02 -0.18125455422E+03  0.23121755643E+03  0.12509107731E+03 0.  0.
         23    2    1    2    0    0  0.20859208710E+02 -0.67271545010E+02 -0.66105716529E+02  0.13177237876E+03  0.89629385201E+02 0.  0.
          5    1    3    3  502    0 -0.53775317036E+02  0.81935067950E+01 -0.23262655882E+02  0.59308868094E+02  0.41800000000E+01 0. -1.
         -5    1    3    3    0  502  0.32916108326E+02  0.59078038215E+02 -0.15799189833E+03  0.17190868834E+03  0.41800000000E+01 0. -1.
        -11    1    4    4    0    0  0.22537142927E+01 -0.15205067430E+02  0.22548649930E+02  0.27289465318E+02  0.00000000000E+00 0.  1.
         11    1    4    4    0    0  0.18605494417E+02 -0.52066477580E+02 -0.88654366459E+02  0.10448291345E+03  0.00000000000E+00 0. -1.
</event>
<event>
 8    1  0.7112384E-009  0.1425218E+03  0.7561462E-02  0.1209975E+00
         -2   -1    0    0    0  501 -0.00000000000E+00  0.00000000000E+00  0.14938116821E+03  0.14938116821E+03  0.00000000000E+00 0.  1.
          2   -1    0    0  501    0  0.00000000000E+00 -0.00000000000E+00 -0.18141483508E+03  0.18141483508E+03  0.00000000000E+00 0. -1.
         25    2    1    2    0    0  0.79700465393E+02 -0.87898625153E+02  0.18843302107E+02  0.17343495151E+03  0.12508509057E+03 0.  0.
         23    2    1    2    0    0 -0.79700465393E+02  0.87898625153E+02 -0.50876968974E+02  0.15736105178E+03  0.89976119931E+02 0.  0.
          5    1    3    3  502    0  0.10158876402E+03 -0.33716537691E+02  0.34948012219E+02  0.11267616362E+03  0.41800000000E+01 0. -1.
         -5    1    3    3    0  502 -0.21888298629E+02 -0.54182087462E+02 -0.16104710112E+02  0.60758787894E+02  0.41800000000E+01 0. -1.
        -11    1    4    4    0    0 -0.33666094053E+02  0.46637980451E+02  0.22189715332E+02  0.61651363131E+02  0.00000000000E+00 0.  1.
         11    1    4    4    0    0 -0.46034371340E+02  0.41260644702E+02 -0.73066684307E+02  0.95709688650E+02  0.00000000000E+00 0. -1.
</event>
<event>
 8    1  0.7112384E-009  0.1033890E+03  0.7561462E-02  0.1273327E+00
          1   -1    0    0  501    0  0.00000000000E+00  0.00000000000E+00  0.19763331050E+02  0.19763331050E+02  0.00000000000E+00 0. -1.
         -1   -1    0    0    0  501 -0.00000000000E+00 -0.00000000000E+00 -0.10028297829E+04  0.10028297829E+04  0.00000000000E+00 0.  1.
         25    2    1    2    0    0  0.64473102654E+01 -0.83876053929E+02 -0.42254434991E+03  0.44862891042E+03  0.12508961345E+03 0.  0.
         23    2    1    2    0    0 -0.64473102654E+01  0.83876053929E+02 -0.56052210195E+03  0.57396420354E+03  0.90405309214E+02 0.  0.
          5    1    3    3  502    0  0.25238148269E+01 -0.16862714912E+02  0.29933300246E+01  0.17808796145E+02  0.41800000000E+01 0. -1.
         -5    1    3    3    0  502  0.39234954386E+01 -0.67013339017E+02 -0.42553767993E+03  0.43082011427E+03  0.41800000000E+01 0. -1.
        -11    1    4    4    0    0 -0.45382349900E+02  0.26278029275E+02 -0.19743003118E+03  0.20427606252E+03  0.00000000000E+00 0.  1.
         11    1    4    4    0    0  0.38935039635E+02  0.57598024655E+02 -0.36309207077E+03  0.36968814102E+03  0.00000000000E+00 0. -1.
</event>
<event>
 8    1  0.7112384E-009  0.1037331E+03  0.7561462E-02  0.1272636E+00
         -2   -1    0    0    0  501 -0.00000000000E+00  0.00000000000E+00  0.84104662511E+01  0.84104662511E+01  0.00000000000E+00 0.  1.
          2   -1    0    0  501    0  0.00000000000E+00 -0.00000000000E+00 -0.17843267372E+04  0.17843267372E+04  0.00000000000E+00 0. -1.
         25    2    1    2    0    0 -0.33017109866E+01  0.15829712640E+02 -0.14113992268E+04  0.14170233955E+04  0.12508415142E+03 0.  0.
         23    2    1    2    0    0  0.33017109866E+01 -0.15829712640E+02 -0.36451704421E+03  0.37571380800E+03  0.89591901978E+02 0.  0.
          5    1    3    3  502    0 -0.34315925321E+01 -0.50405880533E+02 -0.88598287638E+03  0.88743205839E+03  0.41800000000E+01 0. -1.
         -5    1    3    3    0  502  0.12988154549E+00  0.66235593173E+02 -0.52541635037E+03  0.52959133708E+03  0.41800000000E+01 0. -1.
        -11    1    4    4    0    0 -0.41575044833E+02 -0.18374817774E+02 -0.16109680856E+03  0.16738667811E+03  0.00000000000E+00 0. -1.
         11    1    4    4    0    0  0.44876755820E+02  0.25451051342E+01 -0.20342023566E+03  0.20832712989E+03  0.00000000000E+00 0.  1.
</event>
<event>
 8    1  0.7112384E-009  0.1083860E+03  0.7561462E-02  0.1263588E+00
          1   -1    0    0  501    0  0.00000000000E+00  0.00000000000E+00  0.18821825081E+03  0.18821825081E+03  0.00000000000E+00 0. -1.
         -1   -1    0    0    0  501 -0.00000000000E+00 -0.00000000000E+00 -0.80668386664E+02  0.80668386664E+02  0.00000000000E+00 0.  1.
         25    2    1    2    0    0  0.41484409692E+02  0.17297992638E+02  0.10151560037E+03  0.16725129190E+03  0.12508957081E+03 0.  0.
         23    2    1    2    0    0 -0.41484409692E+02 -0.17297992638E+02  0.60342637689E+01  0.10163534557E+03  0.90956881729E+02 0.  0.
          5    1    3    3  502    0 -0.36756344304E+02  0.34223348453E+01 -0.13810885470E+01  0.37176888358E+02  0.41800000000E+01 0.  1.
         -5    1    3    3    0  502  0.78240753996E+02  0.13875657793E+02  0.10289668892E+03  0.13007440354E+03  0.41800000000E+01 0.  1.
        -11    1    4    4    0    0  0.19486188584E+02 -0.31875895401E+02  0.10440317896E+02  0.38791551798E+02  0.00000000000E+00 0. -1.
         11    1    4    4    0    0 -0.60970598277E+02  0.14577902762E+02 -0.44060541272E+01  0.62843793776E+02  0.00000000000E+00 0.  1.
</event>
<event>
 8    1  0.7112384E-009  0.7024407E+02  0.7561462E-02  0.1359265E+00
          3   -1    0    0  501    0  0.00000000000E+00  0.00000000000E+00  0.59573934483E+02  0.59573934483E+02  0.00000000000E+00 0. -1.
         -3   -1    0    0    0  501 -0.00000000000E+00 -0.00000000000E+00 -0.26681129099E+03  0.26681129099E+03  0.00000000000E+00 0.  1.
         25    2    1    2    0    0 -0.27308703374E+02 -0.56741999120E+02 -0.15202384381E+03  0.20670077209E+03  0.12509412597E+03 0.  0.
         23    2    1    2    0    0  0.27308703374E+02  0.56741999120E+02 -0.55213512698E+02  0.11968445338E+03  0.85500974569E+02 0.  0.
          5    1    3    3  502    0  0.66645484226E+01 -0.29025348024E+02  0.15255170987E+02  0.33720612027E+02  0.41800000000E+01 0.  1.
         -5    1    3    3    0  502 -0.33973251797E+02 -0.27716651096E+02 -0.16727901479E+03  0.17298016006E+03  0.41800000000E+01 0.  1.
        -11    1    4    4    0    0  0.18918950911E+02  0.16008272459E+02 -0.70999475335E+02  0.75200511890E+02  0.00000000000E+00 0.  1.
         11    1    4    4    0    0  0.83897524626E+01  0.40733726661E+02  0.15785962637E+02  0.44483941489E+02  0.00000000000E+00 0. -1.
</event>
<event>
 8    1  0.7112384E-009  0.1690832E+03  0.7561462E-02  0.1178807E+00
          1   -1    0    0  501    0  0.00000000000E+00  0.00000000000E+00  0.55287329392E+03  0.55287329392E+03  0.00000000000E+00 0. -1.
         -1   -1    0    0    0  501 -0.00000000000E+00 -0.00000000000E+00 -0.77790925698E+02  0.77790925698E+02  0.00000000000E+00 0.  1.
         25    2    1    2    0    0 -0.81644101515E+02 -0.12042958555E+03  0.39889978691E+03  0.44264868416E+03  0.12509105965E+03 0.  0.
         23    2    1    2    0    0  0.81644101515E+02  0.12042958555E+03  0.76182581312E+02  0.18801553546E+03  0.91526015374E+02 0.  0.
          5    1    3    3  502    0 -0.33694966336E+02 -0.13138181159E+03  0.33822458506E+03  0.36443088990E+03  0.41800000000E+01 0. -1.
         -5    1    3    3    0  502 -0.47949135179E+02  0.10952226044E+02  0.60675201852E+02  0.78217794264E+02  0.41800000000E+01 0. -1.
        -11    1    4    4    0    0  0.37997573374E+02  0.18575516195E+02  0.63755507458E+02  0.76509019831E+02  0.00000000000E+00 0. -1.
         11    1    4    4    0    0  0.43646528141E+02  0.10185406935E+03  0.12427073854E+02  0.11150651563E+03  0.00000000000E+00 0.  1.
</event>
<event>
 8    1  0.7112384E-009  0.6915637E+02  0.7561462E-02  0.1362986E+00
          2   -1    0    0  501    0  0.00000000000E+00  0.00000000000E+00  0.19808362363E+03  0.19808362363E+03  0.00000000000E+00 0.  1.
         -2   -1    0    0    0  501 -0.00000000000E+00 -0.00000000000E+00 -0.71985103981E+02  0.71985103981E+02  0.00000000000E+00 0. -1.
         25    2    1    2    0    0  0.14124301295E+02 -0.29020948289E+02  0.27120526731E+02  0.13201105879E+03  0.12509870242E+03 0.  0.
         23    2    1    2    0    0 -0.14124301295E+02  0.29020948289E+02  0.98977992921E+02  0.13805766882E+03  0.90672848805E+02 0.  0.
          5    1    3    3  502    0  0.12087830575E+01  0.14828717584E+02  0.68493109177E+02  0.70214887499E+02  0.41800000000E+01 0.  1.
         -5    1    3    3    0  502  0.12915518237E+02 -0.43849665873E+02 -0.41372582446E+02  0.61796171296E+02  0.41800000000E+01 0.  1.
        -11    1    4    4    0    0  0.28315950452E+02  0.16194092034E+02  0.85819862975E+02  0.91810078683E+02  0.00000000000E+00 0.  1.
         11    1    4    4    0    0 -0.42440251747E+02  0.12826856255E+02  0.13158129947E+02  0.46247590136E+02  0.00000000000E+00 0. -1.
</event>
<event>
 8    1  0.7112384E-009  0.9692013E+02  0.7561462E-02  0.1286909E+00
         -1   -1    0    0    0  501 -0.00000000000E+00  0.00000000000E+00  0.19903498259E+03  0.19903498259E+03  0.00000000000E+00 0.  1.
          1   -1    0    0  501    0  0.00000000000E+00 -0.00000000000E+00 -0.66285193618E+02  0.66285193618E+02  0.00000000000E+00 0. -1.
         25    2    1    2    0    0 -0.21166885049E+02 -0.57165975272E+01  0.35441784556E+02  0.13184756543E+03  0.12508774483E+03 0.  0.
         23    2    1    2    0    0  0.21166885049E+02  0.57165975272E+01  0.97308004421E+02  0.13347261079E+03  0.88686941517E+02 0.  0.
          5    1    3    3  502    0 -0.69051403551E+02 -0.22478895022E+02  0.35506831700E+02  0.80941982624E+02  0.41800000000E+01 0. -1.
         -5    1    3    3    0  502  0.47884518501E+02  0.16762297494E+02 -0.65047144259E-01  0.50905582803E+02  0.41800000000E+01 0. -1.
        -11    1    4    4    0    0  0.31319134345E+02 -0.23571717694E+02  0.94708909016E+01  0.40326316787E+02  0.00000000000E+00 0. -1.
         11    1    4    4    0    0 -0.10152249296E+02  0.29288315221E+02  0.87837113520E+02  0.93146293999E+02  0.00000000000E+00 0.  1.
</event>
<event>
 8    1  0.7112384E-009  0.8468292E+02  0.7561462E-02  0.1316264E+00
         -1   -1    0    0    0  501 -0.00000000000E+00  0.00000000000E+00  0.47435659737E+02  0.47435659737E+02  0.00000000000E+00 0.  1.
          1   -1    0    0  501    0  0.00000000000E+00 -0.00000000000E+00 -0.28894172572E+03  0.28894172572E+03  0.00000000000E+00 0. -1.
         25    2    1    2    0    0  0.12801887271E+02 -0.11764222895E+02 -0.20044282684E+03  0.23691210037E+03  0.12509089180E+03 0.  0.
         23    2    1    2    0    0 -0.12801887271E+02  0.11764222895E+02 -0.41063239137E+02  0.99465285083E+02  0.88909324990E+02 0.  0.
          5    1    3    3  502    0 -0.15058960907E+02 -0.57107096521E+02 -0.50733851753E+02  0.77970436002E+02  0.41800000000E+01 0. -1.
         -5    1    3    3    0  502  0.27860848178E+02  0.45342873626E+02 -0.14970897509E+03  0.15894166437E+03  0.41800000000E+01 0. -1.
        -11    1    4    4    0    0  0.10357387978E+02 -0.16963925533E+02  0.19949998864E+02  0.28161191557E+02  0.00000000000E+00 0.  1.
         11    1    4    4    0    0 -0.23159275249E+02  0.28728148428E+02 -0.61013238001E+02  0.71304093526E+02  0.00000000000E+00 0. -1.
</event>
<event>
 8    1  0.7112384E-009  0.1152789E+03  0.7561462E-02  0.1251095E+00
         -2   -1    0    0    0  501 -0.00000000000E+00  0.00000000000E+00  0.11379311528E+02  0.11379311528E+02  0.00000000000E+00 0.  1.
          2   -1    0    0  501    0  0.00000000000E+00 -0.00000000000E+00 -0.15726113993E+04  0.15726113993E+04  0.00000000000E+00 0. -1.
         25    2    1    2    0    0  0.48833226360E+02 -0.12770427527E+02 -0.11937598462E+04  0.12013562201E+04  0.12508568750E+03 0.  0.
         23    2    1    2    0    0 -0.48833226360E+02  0.12770427527E+02 -0.36747224154E+03  0.38263449075E+03  0.93944331371E+02 0.  0.
          5    1    3    3  502    0  0.40704227547E+02 -0.67560001668E+02 -0.65750523668E+03  0.66223243399E+03  0.41800000000E+01 0. -1.
         -5    1    3    3    0  502  0.81289988137E+01  0.54789574141E+02 -0.53625460955E+03  0.53912378608E+03  0.41800000000E+01 0. -1.
        -11    1    4    4    0    0 -0.14661885919E+01  0.40906325894E+02 -0.79278195491E+02  0.89221687316E+02  0.00000000000E+00 0.  1.
         11    1    4    4    0    0 -0.47367037769E+02 -0.28135898367E+02 -0.28819404605E+03  0.29341280344E+03  0.00000000000E+00 0. -1.
</event>
<event>
 8    1  0.7112384E-009  0.1069234E+03  0.7561462E-02  0.1266376E+00
          1   -1    0    0  501    0  0.00000000000E+00  0.00000000000E+00  0.17848323625E+03  0.17848323625E+03  0.00000000000E+00 0. -1.
         -1   -1    0    0    0  501 -0.00000000000E+00 -0.00000000000E+00 -0.81562563134E+02  0.81562563134E+02  0.00000000000E+00 0.  1.
         25    2    1    2    0    0  0.52713619171E+02 -0.24015871820E+02  0.63243241043E+02  0.15166560045E+03  0.12508900462E+03 0.  0.
         23    2    1    2    0    0 -0.52713619171E+02  0.24015871820E+02  0.33677432076E+02  0.10838019894E+03  0.85185740273E+02 0.  0.
          5    1    3    3  502    0  0.84724432742E+02 -0.17733019620E+02  0.75537089275E+01  0.86989771852E+02  0.41800000000E+01 0.  1.
         -5    1    3    3    0  502 -0.32010813571E+02 -0.62828521999E+01  0.55689532116E+02  0.64675828595E+02  0.41800000000E+01 0.  1.
        -11    1    4    4    0    0 -0.46177830737E+01  0.42515996866E+02  0.37265351578E+02  0.56724248239E+02  0.00000000000E+00 0. -1.
         11    1    4    4    0    0 -0.48095836097E+02 -0.18500125046E+02 -0.35879195023E+01  0.51655950702E+02  0.00000000000E+00 0.  1.
</event>
<event>
 8    1  0.7112384E-009  0.1332414E+03  0.7561462E-02  0.1222724E+00
         -2   -1    0    0    0  501 -0.00000000000E+00  0.00000000000E+00  0.61447989547E+02  0.61447989547E+02  0.00000000000E+00 0.  1.
          2   -1    0    0  501    0  0.00000000000E+00 -0.00000000000E+00 -0.32990893667E+03  0.32990893667E+03  0.00000000000E+00 0. -1.
         25    2    1    2    0    0 -0.16662967443E+01  0.84823241478E+02 -0.18848921561E+03  0.24160459957E+03  0.12508732665E+03 0.  0.
         23    2    1    2    0    0  0.16662967443E+01 -0.84823241478E+02 -0.79971731507E+02  0.14975232665E+03  0.93981501677E+02 0.  0.
          5    1    3    3  502    0 -0.57483501314E+02  0.67851489562E+02 -0.87060683390E+02  0.12451992833E+03  0.41800000000E+01 0. -1.
         -5    1    3    3    0  502  0.55817204569E+02  0.16971751916E+02 -0.10142853222E+03  0.11708467124E+03  0.41800000000E+01 0. -1.
        -11    1    4    4    0    0  0.38434629033E+02 -0.68907130305E+02 -0.27122554609E+02  0.83432884909E+02  0.00000000000E+00 0.  1.
         11    1    4    4    0    0 -0.36768332288E+02 -0.15916111173E+02 -0.52849176898E+02  0.66319441742E+02  0.00000000000E+00 0. -1.
</event>
<event>
 8    1  0.7112384E-009  0.1543348E+03  0.7561462E-02  0.1195245E+00
          1   -1    0    0  501    0  0.00000000000E+00  0.00000000000E+00  0.10424604167E+03  0.10424604167E+03  0.00000000000E+00 0. -1.
         -1   -1    0    0    0  501 -0.00000000000E+00 -0.00000000000E+00 -0.31514844926E+03  0.31514844926E+03  0.00000000000E+00 0.  1.
         25    2    1    2    0    0 -0.14227148368E+03  0.19518625334E+02 -0.93825399367E+02  0.21230421218E+03  0.12509085154E+03 0.  0.
         23    2    1    2    0    0  0.14227148368E+03 -0.19518625334E+02 -0.11707700822E+03  0.20709027876E+03  0.92505166875E+02 0.  0.
          5    1    3    3  502    0 -0.25131815860E+02 -0.10007842381E+01  0.30804928507E+02  0.39987820118E+02  0.41800000000E+01 0.  1.
         -5    1    3    3    0  502 -0.11713966782E+03  0.20519409572E+02 -0.12463032787E+03  0.17231639206E+03  0.41800000000E+01 0.  1.
        -11    1    4    4    0    0  0.94624170830E+02 -0.50584082795E+02 -0.10246618497E+03  0.14836374962E+03  0.00000000000E+00 0. -1.
         11    1    4    4    0    0  0.47647312850E+02  0.31065457461E+02 -0.14610823251E+02  0.58726529143E+02  0.00000000000E+00 0.  1.
</event>
<event>
 8    1  0.7112384E-009  0.9347106E+02  0.7561462E-02  0.1294657E+00
          1   -1    0    0  501    0  0.00000000000E+00  0.00000000000E+00  0.17722031229E+03  0.17722031229E+03  0.00000000000E+00 0. -1.
         -1   -1    0    0    0  501 -0.00000000000E+00 -0.00000000000E+00 -0.78531699103E+02  0.78531699103E+02  0.00000000000E+00 0.  1.
         25    2    1    2    0    0 -0.36718785445E+02  0.96695599830E+01  0.85121376485E+02  0.15600324551E+03  0.12509833844E+03 0.  0.
         23    2    1    2    0    0  0.36718785445E+02 -0.96695599830E+01  0.13567236701E+02  0.99748765881E+02  0.91235830617E+02 0.  0.
          5    1    3    3  502    0 -0.36531887814E+02  0.53648501085E+02  0.59133641783E+01  0.65308351471E+02  0.41800000000E+01 0. -1.
         -5    1    3    3    0  502 -0.18689763081E+00 -0.43978941102E+02  0.79208012307E+02  0.90694894039E+02  0.41800000000E+01 0. -1.
        -11    1    4    4    0    0  0.45056707791E+02  0.18230540623E+02  0.38032134475E+02  0.61716308874E+02  0.00000000000E+00 0. -1.
         11    1    4    4    0    0 -0.83379223463E+01 -0.27900100606E+02 -0.24464897774E+02  0.38032457007E+02  0.00000000000E+00 0.  1.
</event>
<event>
 8    1  0.7112384E-009  0.7308059E+02  0.7561462E-02  0.1349920E+00
          1   -1    0    0  501    0  0.00000000000E+00  0.00000000000E+00  0.64228687132E+02  0.64228687132E+02  0.00000000000E+00 0. -1.
         -1   -1    0    0    0  501 -0.00000000000E+00 -0.00000000000E+00 -0.19998503475E+03  0.19998503475E+03  0.00000000000E+00 0.  1.
         25    2    1    2    0    0  0.27842194918E+02 -0.87421367633E+01 -0.57926431190E+02  0.14090904815E+03  0.12509306794E+03 0.  0.
         23    2    1    2    0    0 -0.27842194918E+02  0.87421367633E+01 -0.77829916429E+02  0.12330467374E+03  0.91076527718E+02 0.  0.
          5    1    3    3  502    0  0.33304741933E+02  0.31558866708E+02  0.22058902910E+02  0.51080676392E+02  0.41800000000E+01 0.  1.
         -5    1    3    3    0  502 -0.54625470155E+01 -0.40301003471E+02 -0.79985334100E+02  0.89828371753E+02  0.41800000000E+01 0.  1.
        -11    1    4    4    0    0  0.14778943259E+02  0.74833492844E+01 -0.78931128857E+02  0.80650733307E+02  0.00000000000E+00 0.  1.
         11    1    4    4    0    0 -0.42621138177E+02  0.12587874789E+01  0.11012124279E+01  0.42653940430E+02  0.00000000000E+00 0. -1.
</event>
<event>
 8    1  0.7112384E-009  0.2798826E+03  0.7561462E-02  0.1095753E+00
          2   -1    0    0  501    0  0.00000000000E+00  0.00000000000E+00  0.66051900632E+03  0.66051900632E+03  0.00000000000E+00 0. -1.
         -2   -1    0    0    0  501 -0.00000000000E+00 -0.00000000000E+00 -0.12520040065E+03  0.12520040065E+03  0.00000000000E+00 0.  1.
         25    2    1    2    0    0 -0.25917310248E+03 -0.53139839456E+02  0.31654995795E+03  0.43109766333E+03  0.12508708913E+03 0.  0.
         23    2    1    2    0    0  0.25917310248E+03  0.53139839456E+02  0.21876864772E+03  0.35462174363E+03  0.88894995608E+02 0.  0.
          5    1    3    3  502    0 -0.26427065579E+03 -0.27023244679E+02  0.28911238926E+03  0.39264829210E+03  0.41800000000E+01 0. -1.
         -5    1    3    3    0  502  0.50975533118E+01 -0.26116594777E+02  0.27437568686E+02  0.38449371229E+02  0.41800000000E+01 0. -1.
        -11    1    4    4    0    0  0.16763319859E+03  0.16122767916E+02  0.85810450476E+02  0.18900864088E+03  0.00000000000E+00 0.  1.
         11    1    4    4    0    0  0.91539903887E+02  0.37017071540E+02  0.13295819724E+03  0.16561310275E+03  0.00000000000E+00 0. -1.
</event>
<event>
 8    1  0.7112384E-009  0.1676854E+03  0.7561462E-02  0.1180283E+00
          1   -1    0    0  501    0  0.00000000000E+00  0.00000000000E+00  0.44129337152E+03  0.44129337152E+03  0.00000000000E+00 0. -1.
         -1   -1    0    0    0  501 -0.00000000000E+00 -0.00000000000E+00 -0.75949499250E+02  0.75949499250E+02  0.00000000000E+00 0.  1.
         25    2    1    2    0    0  0.13341784180E+03  0.21731265234E+02  0.27333978915E+03  0.32959881279E+03  0.12509264032E+03 0.  0.
         23    2    1    2    0    0 -0.13341784180E+03 -0.21731265234E+02  0.92004083124E+02  0.18764405798E+03  0.92048752213E+02 0.  0.
          5    1    3    3  502    0  0.50025573558E+01  0.42814577724E+02  0.27193052988E+02  0.51137541754E+02  0.41800000000E+01 0.  1.
         -5    1    3    3    0  502  0.12841528445E+03 -0.21083312490E+02  0.24614673616E+03  0.27846127104E+03  0.41800000000E+01 0.  1.
        -11    1    4    4    0    0 -0.11697553953E+03 -0.51533485875E+02  0.83099514395E+02  0.15246149123E+03  0.00000000000E+00 0. -1.
         11    1    4    4    0    0 -0.16442302276E+02  0.29802220640E+02  0.89045687288E+01  0.35182566755E+02  0.00000000000E+00 0.  1.
</event>
<event>
 8    1  0.7112384E-009  0.9914294E+02  0.7561462E-02  0.1282109E+00
         -2   -1    0    0    0  501 -0.00000000000E+00  0.00000000000E+00  0.29439139615E+02  0.29439139615E+02  0.00000000000E+00 0.  1.
          2   -1    0    0  501    0  0.00000000000E+00 -0.00000000000E+00 -0.47153795651E+03  0.47153795651E+03  0.00000000000E+00 0. -1.
         25    2    1    2    0    0 -0.33644839749E+02 -0.23495187847E+02 -0.20177026252E+03  0.24092005210E+03  0.12508890267E+03 0.  0.
         23    2    1    2    0    0  0.33644839749E+02  0.23495187847E+02 -0.24032855438E+03  0.26005704403E+03  0.90486755971E+02 0.  0.
          5    1    3    3  502    0  0.28698961038E+02  0.30823056113E+02 -0.10707114380E+03  0.11513206932E+03  0.41800000000E+01 0. -1.
         -5    1    3    3    0  502 -0.62343800787E+02 -0.54318243960E+02 -0.94699118724E+02  0.12578798277E+03  0.41800000000E+01 0. -1.
        -11    1    4    4    0    0 -0.17754254776E+02  0.81060570540E+01 -0.71504697431E+01  0.20785835108E+02  0.00000000000E+00 0.  1.
         11    1    4    4    0    0  0.51399094524E+02  0.15389130793E+02 -0.23317808464E+03  0.23927120892E+03  0.00000000000E+00 0. -1.
</event>
<event>
 8    1  0.7112384E-009  0.8871665E+02  0.7561462E-02  0.1305990E+00
          1   -1    0    0  501    0  0.00000000000E+00  0.00000000000E+00  0.76563800585E+03  0.76563800585E+03  0.00000000000E+00 0. -1.
         -1   -1    0    0    0  501 -0.00000000000E+00 -0.00000000000E+00 -0.20826243843E+02  0.20826243843E+02  0.00000000000E+00 0.  1.
         25    2    1    2    0    0  0.26572680574E+02  0.24318623129E+02  0.58625077913E+03  0.60052602770E+03  0.12507610138E+03 0.  0.
         23    2    1    2    0    0 -0.26572680574E+02 -0.24318623129E+02  0.15856098288E+03  0.18593822199E+03  0.90188326970E+02 0.  0.
          5    1    3    3  502    0 -0.45947830786E+02  0.54927830923E+01  0.12800767475E+03  0.13617933402E+03  0.41800000000E+01 0.  1.
         -5    1    3    3    0  502  0.72520511360E+02  0.18825840037E+02  0.45824310438E+03  0.46434669368E+03  0.41800000000E+01 0.  1.
        -11    1    4    4    0    0 -0.21936961322E+02  0.79471523142E+01 -0.73257447714E+00  0.23343610846E+02  0.00000000000E+00 0.  1.
         11    1    4    4    0    0 -0.46357192515E+01 -0.32265775444E+02  0.15929355736E+03  0.16259461115E+03  0.00000000000E+00 0. -1.
</event>
<event>
 8    1  0.7112384E-009  0.2099584E+03  0.7561462E-02  0.1141599E+00
         -2   -1    0    0    0  501 -0.00000000000E+00  0.00000000000E+00  0.13035062724E+03  0.13035062724E+03  0.00000000000E+00 0.  1.
          2   -1    0    0  501    0  0.00000000000E+00 -0.00000000000E+00 -0.42889893078E+03  0.42889893078E+03  0.00000000000E+00 0. -1.
         25    2    1    2    0    0  0.70232534785E+02  0.17200197301E+03 -0.26965787746E+03  0.35054401251E+03  0.12509374952E+03 0.  0.
         23    2    1    2    0    0 -0.70232534785E+02 -0.17200197301E+03 -0.28890426082E+02  0.20870554552E+03  0.90587307874E+02 0.  0.
          5    1    3    3  502    0  0.47991928813E+01 -0.20012990997E+02 -0.28024611126E+02  0.35020041258E+02  0.41800000000E+01 0. -1.
         -5    1    3    3    0  502  0.65433341904E+02  0.19201496401E+03 -0.24163326633E+03  0.31552397125E+03  0.41800000000E+01 0. -1.
        -11    1    4    4    0    0 -0.27343523681E+02 -0.13962613267E+03 -0.50232661225E+02  0.15088553763E+03  0.00000000000E+00 0. -1.
         11    1    4    4    0    0 -0.42889011104E+02 -0.32375840343E+02  0.21342235143E+02  0.57820007889E+02  0.00000000000E+00 0.  1.
</event>
<event>
 8    1  0.7112384E-009  0.1224184E+03  0.7561462E-02  0.1239160E+00
         -1   -1    0    0    0  501 -0.00000000000E+00  0.00000000000E+00  0.72774579664E+02  0.72774579664E+02  0.00000000000E+00 0.  1.
          1   -1    0    0  501    0  0.00000000000E+00 -0.00000000000E+00 -0.38836872442E+03  0.38836872442E+03  0.00000000000E+00 0. -1.
         25    2    1    2    0    0 -0.28925800014E+02 -0.48253968848E+02 -0.10684831408E+02  0.13756655346E+03  0.12508094816E+03 0.  0.
         23    2    1    2    0    0  0.28925800014E+02  0.48253968848E+02 -0.30490931335E+03  0.32357675062E+03  0.92558504525E+02 0.  0.
          5    1    3    3  502    0 -0.66381185986E+02 -0.67047407855E+02 -0.14549917205E+01  0.94453195573E+02  0.41800000000E+01 0. -1.
         -5    1    3    3    0  502  0.37455385972E+02  0.18793439007E+02 -0.92298396876E+01  0.43113357891E+02  0.41800000000E+01 0. -1.
        -11    1    4    4    0    0 -0.20187182874E+02 -0.17151058673E+02 -0.71139868130E+02  0.75911540648E+02  0.00000000000E+00 0. -1.
         11    1    4    4    0    0  0.49112982888E+02  0.65405027521E+02 -0.23376944522E+03  0.24766520998E+03  0.00000000000E+00 0.  1.
</event>
<event>
 8    1  0.7112384E-009  0.1410869E+03  0.7561462E-02  0.1211874E+00
          1   -1    0    0  501    0  0.00000000000E+00  0.00000000000E+00  0.61261981099E+03  0.61261981099E+03  0.00000000000E+00 0. -1.
         -1   -1    0    0    0  501 -0.00000000000E+00 -0.00000000000E+00 -0.33955689907E+02  0.33955689907E+02  0.00000000000E+00 0.  1.
         25    2    1    2    0    0  0.70868702438E+02 -0.60710735491E+02  0.35089815091E+03  0.38403591103E+03  0.12508358108E+03 0.  0.
         23    2    1    2    0    0 -0.70868702438E+02  0.60710735491E+02  0.22776597017E+03  0.26253958987E+03  0.91331991614E+02 0.  0.
          5    1    3    3  502    0  0.80696663052E+02  0.10903850479E+02  0.15412970143E+03  0.17436823864E+03  0.41800000000E+01 0.  1.
         -5    1    3    3    0  502 -0.98279606145E+01 -0.71614585970E+02  0.19676844948E+03  0.20966767238E+03  0.41800000000E+01 0.  1.
        -11    1    4    4    0    0 -0.56140812194E+02 -0.91079522252E+01  0.76869355103E+02  0.95622399790E+02  0.00000000000E+00 0. -1.
         11    1    4    4    0    0 -0.14727890244E+02  0.69818687717E+02  0.15089661507E+03  0.16691719008E+03  0.00000000000E+00 0.  1.
</event>
<event>
 8    1  0.7112384E-009  0.1237446E+03  0.7561462E-02  0.1237044E+00
         -2   -1    0    0    0  501 -0.00000000000E+00  0.00000000000E+00  0.20981859673E+02  0.20981859673E+02  0.00000000000E+00 0.  1.
          2   -1    0    0  501    0  0.00000000000E+00 -0.00000000000E+00 -0.14873405190E+04  0.14873405190E+04  0.00000000000E+00 0. -1.
         25    2    1    2    0    0  0.10277683668E+03 -0.31630592196E+02 -0.11550277319E+04  0.11667465408E+04  0.12507940026E+03 0.  0.
         23    2    1    2    0    0 -0.10277683668E+03  0.31630592196E+02 -0.31133092745E+03  0.34157583795E+03  0.90462888315E+02 0.  0.
          5    1    3    3  502    0  0.48219665391E+02 -0.44234112064E+02 -0.20877449404E+03  0.21882882479E+03  0.41800000000E+01 0. -1.
         -5    1    3    3    0  502  0.54557171289E+02  0.12603519868E+02 -0.94625323788E+03  0.94791771597E+03  0.41800000000E+01 0. -1.
        -11    1    4    4    0    0 -0.87298328284E+02 -0.35132396805E+01 -0.13280874317E+03  0.15897013316E+03  0.00000000000E+00 0. -1.
         11    1    4    4    0    0 -0.15478508396E+02  0.35143831877E+02 -0.17852218428E+03  0.18260570479E+03  0.00000000000E+00 0.  1.
</event>
<event>
 8    1  0.7112384E-009  0.1401980E+03  0.7561462E-02  0.1213063E+00
         -1   -1    0    0    0  501 -0.00000000000E+00  0.00000000000E+00  0.44433242014E+02  0.44433242014E+02  0.00000000000E+00 0.  1.
          1   -1    0    0  501    0  0.00000000000E+00 -0.00000000000E+00 -0.52828459842E+03  0.52828459842E+03  0.00000000000E+00 0. -1.
         25    2    1    2    0    0 -0.22275240871E+02 -0.10315541630E+03 -0.30132486283E+03  0.34290170143E+03  0.12509067757E+03 0.  0.
         23    2    1    2    0    0  0.22275240871E+02  0.10315541630E+03 -0.18252649357E+03  0.22981613900E+03  0.91445670333E+02 0.  0.
          5    1    3    3  502    0  0.12617618403E+02  0.22391970204E+02 -0.97744797084E+02  0.10115395386E+03  0.41800000000E+01 0.  1.
         -5    1    3    3    0  502 -0.34892859274E+02 -0.12554738650E+03 -0.20358006575E+03  0.24174774757E+03  0.41800000000E+01 0.  1.
        -11    1    4    4    0    0  0.42876722423E+02  0.44412910861E+02 -0.38094891665E+02  0.72540614471E+02  0.00000000000E+00 0.  1.
         11    1    4    4    0    0 -0.20601481552E+02  0.58742505438E+02 -0.14443160190E+03  0.15727552453E+03  0.00000000000E+00 0. -1.
</event>
<event>
 8    1  0.7112384E-009  0.2947355E+03  0.7561462E-02  0.1087902E+00
          1   -1    0    0  501    0  0.00000000000E+00  0.00000000000E+00  0.35633668736E+03  0.35633668736E+03  0.00000000000E+00 0. -1.
         -1   -1    0    0    0  501 -0.00000000000E+00 -0.00000000000E+00 -0.34282505132E+03  0.34282505132E+03  0.00000000000E+00 0.  1.
         25    2    1    2    0    0 -0.15382422028E+02  0.27626824065E+03 -0.17662754020E+03  0.35129020919E+03  0.12508702337E+03 0.  0.
         23    2    1    2    0    0  0.15382422028E+02 -0.27626824065E+03  0.19013917623E+03  0.34787152949E+03  0.91109467092E+02 0.  0.
          5    1    3    3  502    0  0.20296095222E+02  0.25732506761E+03 -0.12866763763E+03  0.28844575795E+03  0.41800000000E+01 0.  1.
         -5    1    3    3    0  502 -0.35678517251E+02  0.18943173039E+02 -0.47959902563E+02  0.62844451241E+02  0.41800000000E+01 0.  1.
        -11    1    4    4    0    0 -0.32990313281E+02 -0.54402322806E+02  0.51139523405E+02  0.81628575580E+02  0.00000000000E+00 0. -1.
         11    1    4    4    0    0  0.48372735309E+02 -0.22186591785E+03  0.13899965283E+03  0.26624295392E+03  0.00000000000E+00 0.  1.
</event>
<event>
 8    1  0.7112384E-009  0.1355242E+03  0.7561462E-02  0.1219482E+00
         -1   -1    0    0    0  501 -0.00000000000E+00  0.00000000000E+00  0.42536690051E+03  0.42536690051E+03  0.00000000000E+00 0.  1.
          1   -1    0    0  501    0  0.00000000000E+00 -0.00000000000E+00 -0.55793943904E+02  0.55793943904E+02  0.00000000000E+00 0. -1.
         25    2    1    2    0    0  0.12617316066E+02  0.10706123777E+03  0.17352883191E+03  0.23953889728E+03  0.12508126362E+03 0.  0.
         23    2    1    2    0    0 -0.12617316066E+02 -0.10706123777E+03  0.19604412470E+03  0.24162194714E+03  0.91249992940E+02 0.  0.
          5    1    3    3  502    0 -0.52614703334E+02  0.29097118952E+02  0.87801201351E+02  0.10649635063E+03  0.41800000000E+01 0.  1.
         -5    1    3    3    0  502  0.65232019400E+02  0.77964118819E+02  0.85727630555E+02  0.13304254665E+03  0.41800000000E+01 0.  1.
        -11    1    4    4    0    0  0.15149824257E+01 -0.57017797610E+02  0.17745856928E+03  0.18639975382E+03  0.00000000000E+00 0.  1.
         11    1    4    4    0    0 -0.14132298492E+02 -0.50043440161E+02  0.18585555420E+02  0.55222193311E+02  0.00000000000E+00 0. -1.
</event>
<event>
 8    1  0.7112384E-009  0.1224281E+03  0.7561462E-02  0.1239144E+00
          2   -1    0    0  501    0  0.00000000000E+00  0.00000000000E+00  0.46674395395E+03  0.46674395395E+03  0.00000000000E+00 0. -1.
         -2   -1    0    0    0  501 -0.00000000000E+00 -0.00000000000E+00 -0.36305428217E+02  0.36305428217E+02  0.00000000000E+00 0.  1.
         25    2    1    2    0    0 -0.69278571347E+02  0.40994055460E+01  0.19869811353E+03  0.24484223862E+03  0.12510178225E+03 0.  0.
         23    2    1    2    0    0  0.69278571347E+02 -0.40994055460E+01  0.23174041220E+03  0.25820714354E+03  0.90282804303E+02 0.  0.
          5    1    3    3  502    0  0.28008069284E+02  0.19884977026E+02  0.18081309643E+02  0.39041905880E+02  0.41800000000E+01 0.  1.
         -5    1    3    3    0  502 -0.97286640631E+02 -0.15785571480E+02  0.18061680388E+03  0.20580033274E+03  0.41800000000E+01 0.  1.
        -11    1    4    4    0    0  0.15016869297E+02  0.39333405385E+02  0.63659039681E+02  0.76322319644E+02  0.00000000000E+00 0.  1.
         11    1    4    4    0    0  0.54261702050E+02 -0.43432810931E+02  0.16808137252E+03  0.18188482389E+03  0.00000000000E+00 0. -1.
</event>
<event>
 8    1  0.7112384E-009  0.9900247E+02  0.7561462E-02  0.1282408E+00
          2   -1    0    0  501    0  0.00000000000E+00  0.00000000000E+00  0.47499554538E+02  0.47499554538E+02  0.00000000000E+00 0.  1.
         -2   -1    0    0    0  501 -0.00000000000E+00 -0.00000000000E+00 -0.29027357373E+03  0.29027357373E+03  0.00000000000E+00 0. -1.
         25    2    1    2    0    0  0.71581798173E+01  0.44311104372E+02 -0.12154066537E+03  0.18009516651E+03  0.12508965645E+03 0.  0.
         23    2    1    2    0    0 -0.71581798173E+01 -0.44311104372E+02 -0.12123335381E+03  0.15767796176E+03  0.90277904483E+02 0.  0.
          5    1    3    3  502    0  0.48205733755E+02  0.89174332409E-01 -0.48082985020E+01  0.48625022914E+02  0.41800000000E+01 0.  1.
         -5    1    3    3    0  502 -0.41047553938E+02  0.44221930039E+02 -0.11673236687E+03  0.13147014359E+03  0.41800000000E+01 0.  1.
        -11    1    4    4    0    0 -0.40608508907E+02 -0.36913690217E+02 -0.35517381394E+02  0.65369380464E+02  0.00000000000E+00 0. -1.
         11    1    4    4    0    0  0.33450329090E+02 -0.73974141544E+01 -0.85715972420E+02  0.92308581293E+02  0.00000000000E+00 0.  1.
</event>
<event>
 8    1  0.7112384E-009  0.9620230E+02  0.7561462E-02  0.1288491E+00
         -1   -1    0    0    0  501 -0.00000000000E+00  0.00000000000E+00  0.16229191102E+03  0.16229191102E+03  0.00000000000E+00 0.  1.
          1   -1    0    0  501    0  0.00000000000E+00 -0.00000000000E+00 -0.11965717919E+03  0.11965717919E+03  0.00000000000E+00 0. -1.
         25    2    1    2    0    0 -0.78527643970E+02  0.12163421802E+02 -0.13314655702E+02  0.14879667754E+03  0.12509449026E+03 0.  0.
         23    2    1    2    0    0  0.78527643970E+02 -0.12163421802E+02  0.55949387534E+02  0.13315241266E+03  0.91020279800E+02 0.  0.
          5    1    3    3  502    0 -0.75750769388E+02  0.91510799690E+01  0.46000614647E+02  0.89193330890E+02  0.41800000000E+01 0. -1.
         -5    1    3    3    0  502 -0.27768745820E+01  0.30123418325E+01 -0.59315270349E+02  0.59603346654E+02  0.41800000000E+01 0. -1.
        -11    1    4    4    0    0  0.26620111665E+02 -0.42399869333E+02  0.53149332470E+02  0.73015277897E+02  0.00000000000E+00 0.  1.
         11    1    4    4    0    0  0.51907532305E+02  0.30236447531E+02  0.28000550648E+01  0.60137134764E+02  0.00000000000E+00 0. -1.
</event>
<event>
 8    1  0.7112384E-009  0.1417377E+03  0.7561462E-02  0.1211010E+00
          2   -1    0    0  501    0  0.00000000000E+00  0.00000000000E+00  0.69456126381E+03  0.69456126381E+03  0.00000000000E+00 0. -1.
         -2   -1    0    0    0  501 -0.00000000000E+00 -0.00000000000E+00 -0.65994900386E+02  0.65994900386E+02  0.00000000000E+00 0.  1.
         25    2    1    2    0    0  0.21757186575E+02  0.11519141513E+03  0.57918970610E+03  0.60402890106E+03  0.12509100835E+03 0.  0.
         23    2    1    2    0    0 -0.21757186575E+02 -0.11519141513E+03  0.49376657315E+02  0.15652726313E+03  0.91215637529E+02 0.  0.
          5    1    3    3  502    0 -0.33883615321E+02  0.98782131584E-01  0.57350262290E+02  0.66743045554E+02  0.41800000000E+01 0. -1.
         -5    1    3    3    0  502  0.55640801896E+02  0.11509263299E+03  0.52183944381E+03  0.53728585550E+03  0.41800000000E+01 0. -1.
        -11    1    4    4    0    0 -0.26569215090E+02 -0.55364104773E+02 -0.20193553774E+02  0.64644310669E+02  0.00000000000E+00 0.  1.
         11    1    4    4    0    0  0.48120285152E+01 -0.59827310353E+02  0.69570211089E+02  0.91882952464E+02  0.00000000000E+00 0. -1.
</event>
<event>
 8    1  0.7112384E-009  0.9691673E+02  0.7561462E-02  0.1286917E+00
         -2   -1    0    0    0  501 -0.00000000000E+00  0.00000000000E+00  0.33557968111E+02  0.33557968111E+02  0.00000000000E+00 0.  1.
          2   -1    0    0  501    0  0.00000000000E+00 -0.00000000000E+00 -0.49609021210E+03  0.49609021210E+03  0.00000000000E+00 0. -1.
         25    2    1    2    0    0  0.31977681433E-01 -0.29132302909E+02 -0.37000908511E+03  0.39166736500E+03  0.12509160501E+03 0.  0.
         23    2    1    2    0    0 -0.31977681433E-01  0.29132302909E+02 -0.92523158877E+02  0.13798081521E+03  0.98129905444E+02 0.  0.
          5    1    3    3  502    0 -0.30025173130E+02  0.41538603014E+02 -0.15604999003E+03  0.16430471189E+03  0.41800000000E+01 0.  1.
         -5    1    3    3    0  502  0.30057150812E+02 -0.70670905923E+02 -0.21395909508E+03  0.22736265311E+03  0.41800000000E+01 0.  1.
        -11    1    4    4    0    0 -0.29167450223E+02  0.10950589092E+02  0.76527900070E+01  0.32081470491E+02  0.00000000000E+00 0.  1.
         11    1    4    4    0    0  0.29135472541E+02  0.18181713817E+02 -0.10017594888E+03  0.10589934472E+03  0.00000000000E+00 0. -1.
</event>
<event>
 8    1  0.7112384E-009  0.1077348E+03  0.7561462E-02  0.1264823E+00
          2   -1    0    0  501    0  0.00000000000E+00  0.00000000000E+00  0.89513986339E+03  0.89513986339E+03  0.00000000000E+00 0. -1.
         -2   -1    0    0    0  501 -0.00000000000E+00 -0.00000000000E+00 -0.23933502127E+02  0.23933502127E+02  0.00000000000E+00 0.  1.
         25    2    1    2    0    0  0.39275766575E+02  0.90323731044E+01  0.75253924268E+03  0.76392874921E+03  0.12509057712E+03 0.  0.
         23    2    1    2    0    0 -0.39275766575E+02 -0.90323731044E+01  0.11866711859E+03  0.15514461632E+03  0.91453798905E+02 0.  0.
          5    1    3    3  502    0  0.77668856840E+02 -0.88457934443E+00  0.31051507222E+03  0.32010985033E+03  0.41800000000E+01 0. -1.
         -5    1    3    3    0  502 -0.38393090265E+02  0.99169524488E+01  0.44202417046E+03  0.44381889887E+03  0.41800000000E+01 0. -1.
        -11    1    4    4    0    0  0.20404316874E+02  0.22448795994E+02  0.22967654143E+02  0.38049937260E+02  0.00000000000E+00 0. -1.
         11    1    4    4    0    0 -0.59680083449E+02 -0.31481169098E+02  0.95699464444E+02  0.11709467906E+03  0.00000000000E+00 0.  1.
</event>
<event>
 8    1  0.7112384E-009  0.1104662E+03  0.7561462E-02  0.1259709E+00
         -1   -1    0    0    0  501 -0.00000000000E+00  0.00000000000E+00  0.76885003457E+03  0.76885003457E+03  0.00000000000E+00 0.  1.
          1   -1    0    0  501    0  0.00000000000E+00 -0.00000000000E+00 -0.18038063556E+02  0.18038063556E+02  0.00000000000E+00 0. -1.
         25    2    1    2    0    0 -0.12812111124E+02 -0.45662665969E+02  0.39498945392E+03  0.41702930693E+03  0.12509014702E+03 0.  0.
         23    2    1    2    0    0  0.12812111124E+02  0.45662665969E+02  0.35582251709E+03  0.36985879119E+03  0.89087779711E+02 0.  0.
          5    1    3    3  502    0 -0.30820152978E+02  0.36733686529E+02  0.17120808868E+03  0.17784523493E+03  0.41800000000E+01 0.  1.
         -5    1    3    3    0  502  0.18008041855E+02 -0.82396352498E+02  0.22378136523E+03  0.23918407201E+03  0.41800000000E+01 0.  1.
        -11    1    4    4    0    0 -0.17205917626E+02 -0.13594724611E+02  0.29018893675E+02  0.36372466630E+02  0.00000000000E+00 0. -1.
         11    1    4    4    0    0  0.30018028749E+02  0.59257390580E+02  0.32680362342E+03  0.33348632456E+03  0.00000000000E+00 0.  1.
</event>
<event>
 8    1  0.7112384E-009  0.1133329E+03  0.7561462E-02  0.1254519E+00
          1   -1    0    0  501    0  0.00000000000E+00  0.00000000000E+00  0.99497088526E+03  0.99497088526E+03  0.00000000000E+00 0. -1.
         -1   -1    0    0    0  501 -0.00000000000E+00 -0.00000000000E+00 -0.15138270815E+02  0.15138270815E+02  0.00000000000E+00 0.  1.
         25    2    1    2    0    0 -0.40038125009E+02 -0.40887806173E+02  0.51128972332E+03  0.52947100945E+03  0.12508998572E+03 0.  0.
         23    2    1    2    0    0  0.40038125009E+02  0.40887806173E+02  0.46854289113E+03  0.48063814663E+03  0.90585445965E+02 0.  0.
          5    1    3    3  502    0 -0.25146175962E+02  0.37049867323E+02  0.30693749898E+03  0.31021464104E+03  0.41800000000E+01 0. -1.
         -5    1    3    3    0  502 -0.14891949047E+02 -0.77937673495E+02  0.20435222434E+03  0.21925636841E+03  0.41800000000E+01 0. -1.
        -11    1    4    4    0    0  0.43524422677E+02 -0.15153037897E+02  0.14167080127E+03  0.14897854161E+03  0.00000000000E+00 0.  1.
         11    1    4    4    0    0 -0.34862976677E+01  0.56040844069E+02  0.32687208986E+03  0.33165960502E+03  0.00000000000E+00 0. -1.
</event>
<event>
 8    1  0.7112384E-009  0.1104091E+03  0.7561462E-02  0.1259814E+00
          2   -1    0    0  501    0  0.00000000000E+00  0.00000000000E+00  0.11704222780E+03  0.11704222780E+03  0.00000000000E+00 0. -1.
         -2   -1    0    0    0  501 -0.00000000000E+00 -0.00000000000E+00 -0.13903476190E+03  0.13903476190E+03  0.00000000000E+00 0.  1.
         25    2    1    2    0    0  0.44026354692E+02 -0.16297373715E+01 -0.51191742515E+02  0.14215729071E+03  0.12508846809E+03 0.  0.
         23    2    1    2    0    0 -0.44026354692E+02  0.16297373715E+01  0.29199208416E+02  0.11391969899E+03  0.10091644115E+03 0.  0.
          5    1    3    3  502    0 -0.26538884548E+02 -0.36732349170E+02 -0.43337674318E+02  0.62842694754E+02  0.41800000000E+01 0.  1.
         -5    1    3    3    0  502  0.70565239240E+02  0.35102611799E+02 -0.78540681964E+01  0.79314595954E+02  0.41800000000E+01 0.  1.
        -11    1    4    4    0    0 -0.58963176775E+02 -0.26415376372E+02  0.44700232306E+02  0.78565508287E+02  0.00000000000E+00 0. -1.
         11    1    4    4    0    0  0.14936822083E+02  0.28045113743E+02 -0.15501023890E+02  0.35354190706E+02  0.00000000000E+00 0.  1.
</event>
<event>
 8    1  0.7112384E-009  0.8748348E+02  0.7561462E-02  0.1309063E+00
         -1   -1    0    0    0  501 -0.00000000000E+00  0.00000000000E+00  0.35950260036E+03  0.35950260036E+03  0.00000000000E+00 0.  1.
          1   -1    0    0  501    0  0.00000000000E+00 -0.00000000000E+00 -0.43575383312E+02  0.43575383312E+02  0.00000000000E+00 0. -1.
         25    2    1    2    0    0 -0.53986143086E+02  0.99820924225E+01  0.13658400214E+03  0.19317516634E+03  0.12508920591E+03 0.  0.
         23    2    1    2    0    0  0.53986143086E+02 -0.99820924225E+01  0.17934321491E+03  0.20990281734E+03  0.94239366390E+02 0.  0.
          5    1    3    3  502    0 -0.58617403574E+02  0.43194725486E+01  0.15881881063E+03  0.16939759400E+03  0.41800000000E+01 0. -1.
         -5    1    3    3    0  502  0.46312604880E+01  0.56626198739E+01 -0.22234808488E+02  0.23777572333E+02  0.41800000000E+01 0. -1.
        -11    1    4    4    0    0  0.49695448974E+02 -0.48157518577E+02  0.98293008542E+02  0.12020939968E+03  0.00000000000E+00 0. -1.
         11    1    4    4    0    0  0.42906941120E+01  0.38175426155E+02  0.81050206367E+02  0.89693417653E+02  0.00000000000E+00 0.  1.
</event>
<event>
 8    1  0.7112384E-009  0.1138434E+03  0.7561462E-02  0.1253614E+00
          2   -1    0    0  501    0  0.00000000000E+00  0.00000000000E+00  0.43365362140E+03  0.43365362140E+03  0.00000000000E+00 0. -1.
         -2   -1    0    0    0  501 -0.00000000000E+00 -0.00000000000E+00 -0.39165477999E+02  0.39165477999E+02  0.00000000000E+00 0.  1.
         25    2    1    2    0    0 -0.52141216622E+02  0.23467602238E+02  0.30205034293E+03  0.33189157061E+03  0.12509264628E+03 0.  0.
         23    2    1    2    0    0  0.52141216622E+02 -0.23467602238E+02  0.92437800473E+02  0.14092752879E+03  0.89701653209E+02 0.  0.
          5    1    3    3  502    0 -0.18551219387E+02  0.69251049060E+02  0.10828944086E+03  0.12993818122E+03  0.41800000000E+01 0.  1.
         -5    1    3    3    0  502 -0.33589997235E+02 -0.45783446821E+02  0.19376090207E+03  0.20195338939E+03  0.41800000000E+01 0.  1.
        -11    1    4    4    0    0  0.73278091583E+02 -0.10214434497E+02  0.43059389617E+02  0.85604464909E+02  0.00000000000E+00 0.  1.
         11    1    4    4    0    0 -0.21136874961E+02 -0.13253167741E+02  0.49378410856E+02  0.55323063879E+02  0.00000000000E+00 0. -1.
</event>
<event>
 8    1  0.7112384E-009  0.1406711E+03  0.7561462E-02  0.1212429E+00
          2   -1    0    0  501    0  0.00000000000E+00  0.00000000000E+00  0.15905549341E+04  0.15905549341E+04  0.00000000000E+00 0.  1.
         -2   -1    0    0    0  501 -0.00000000000E+00 -0.00000000000E+00 -0.15666028113E+02  0.15666028113E+02  0.00000000000E+00 0. -1.
         25    2    1    2    0    0  0.10350434377E+03  0.46984847718E+01  0.10926799922E+04  0.11046862567E+04  0.12508771137E+03 0.  0.
         23    2    1    2    0    0 -0.10350434377E+03 -0.46984847718E+01  0.48220891380E+03  0.50153470549E+03  0.90974718039E+02 0.  0.
          5    1    3    3  502    0  0.10313331479E+03  0.42548352635E+02  0.96532353013E+03  0.97175811453E+03  0.41800000000E+01 0.  1.
         -5    1    3    3    0  502  0.37102897603E+00 -0.37849867863E+02  0.12735646202E+03  0.13292814216E+03  0.41800000000E+01 0.  1.
        -11    1    4    4    0    0 -0.33613879452E+02 -0.40872667618E+02  0.12465811799E+03  0.13542567788E+03  0.00000000000E+00 0.  1.
         11    1    4    4    0    0 -0.69890464316E+02  0.36174182846E+02  0.35755079581E+03  0.36610902760E+03  0.00000000000E+00 0. -1.
</event>
<event>
 8    1  0.7112384E-009  0.1067936E+03  0.7561462E-02  0.1266626E+00
          1   -1    0    0  501    0  0.00000000000E+00  0.00000000000E+00  0.28252766868E+02  0.28252766868E+02  0.00000000000E+00 0. -1.
         -1   -1    0    0    0  501 -0.00000000000E+00 -0.00000000000E+00 -0.52652988569E+03  0.52652988569E+03  0.00000000000E+00 0.  1.
         25    2    1    2    0    0 -0.42118692292E+01  0.55689288377E+02 -0.32963738020E+03  0.35696814395E+03  0.12508563743E+03 0.  0.
         23    2    1    2    0    0  0.42118692292E+01 -0.55689288377E+02 -0.16863973862E+03  0.19781450860E+03  0.87018283646E+02 0.  0.
          5    1    3    3  502    0 -0.17483692570E+02 -0.29365326497E+02 -0.18833219237E+03  0.19145362099E+03  0.41800000000E+01 0. -1.
         -5    1    3    3    0  502  0.13271823341E+02  0.85054614874E+02 -0.14130518783E+03  0.16551452297E+03  0.41800000000E+01 0. -1.
        -11    1    4    4    0    0  0.39013557493E+02 -0.35439299689E+02 -0.13641353556E+03  0.14624176666E+03  0.00000000000E+00 0.  1.
         11    1    4    4    0    0 -0.34801688264E+02 -0.20249988688E+02 -0.32226203059E+02  0.51572741943E+02  0.00000000000E+00 0. -1.
</event>
<event>
 8    1  0.7112384E-009  0.9882732E+02  0.7561462E-02  0.1282781E+00
          2   -1    0    0  501    0  0.00000000000E+00  0.00000000000E+00  0.32022119346E+03  0.32022119346E+03  0.00000000000E+00 0. -1.
         -2   -1    0    0    0  501 -0.00000000000E+00 -0.00000000000E+00 -0.50177468382E+02  0.50177468382E+02  0.00000000000E+00 0.  1.
         25    2    1    2    0    0 -0.50007102062E+02  0.60018724388E+01  0.21239309534E+03  0.25158570032E+03  0.12509118645E+03 0.  0.
         23    2    1    2    0    0  0.50007102062E+02 -0.60018724388E+01  0.57650629741E+02  0.11881296153E+03  0.90863589999E+02 0.  0.
          5    1    3    3  502    0  0.37233667120E+02 -0.45386553413E+01  0.27083349745E+02  0.46453477727E+02  0.41800000000E+01 0. -1.
         -5    1    3    3    0  502 -0.87240769182E+02  0.10540527780E+02  0.18530974559E+03  0.20513222259E+03  0.41800000000E+01 0. -1.
        -11    1    4    4    0    0  0.19022958976E+02 -0.28063057107E+02 -0.14794173455E+02  0.36990211011E+02  0.00000000000E+00 0.  1.
         11    1    4    4    0    0  0.30984143086E+02  0.22061184669E+02  0.72444803196E+02  0.81822750515E+02  0.00000000000E+00 0. -1.
</event>
<event>
 8    1  0.7112384E-009  0.1552646E+03  0.7561462E-02  0.1194149E+00
          2   -1    0    0  501    0  0.00000000000E+00  0.00000000000E+00  0.22732029459E+04  0.22732029459E+04  0.00000000000E+00 0. -1.
         -2   -1    0    0    0  501 -0.00000000000E+00 -0.00000000000E+00 -0.19236300229E+02  0.19236300229E+02  0.00000000000E+00 0.  1.
         25    2    1    2    0    0 -0.14685954419E+02 -0.13035563335E+03  0.18360828630E+04  0.18450084016E+04  0.12508978301E+03 0.  0.
         23    2    1    2    0    0  0.14685954419E+02  0.13035563335E+03  0.41788378268E+03  0.44743084453E+03  0.91428859787E+02 0.  0.
          5    1    3    3  502    0 -0.26114601508E+00 -0.15147839226E+03  0.16764993570E+04  0.16833339947E+04  0.41800000000E+01 0.  1.
         -5    1    3    3    0  502 -0.14424808404E+02  0.21122758908E+02  0.15958350602E+03  0.16167440686E+03  0.41800000000E+01 0.  1.
        -11    1    4    4    0    0  0.16967350868E+02  0.52236800746E+02  0.30639240211E+03  0.31127620920E+03  0.00000000000E+00 0. -1.
         11    1    4    4    0    0 -0.22813964491E+01  0.78118832607E+02  0.11149138058E+03  0.13615463533E+03  0.00000000000E+00 0.  1.
</event>
<event>
 8    1  0.7112384E-009  0.1211274E+03  0.7561462E-02  0.1241249E+00
         -4   -1    0    0    0  501 -0.00000000000E+00  0.00000000000E+00  0.32747177729E+03  0.32747177729E+03  0.00000000000E+00 0.  1.
          4   -1    0    0  501    0  0.00000000000E+00 -0.00000000000E+00 -0.57559763894E+02  0.57559763894E+02  0.00000000000E+00 0. -1.
         25    2    1    2    0    0  0.80297700704E+02 -0.66790552154E+01  0.14644929653E+03  0.20877829213E+03  0.12509455740E+03 0.  0.
         23    2    1    2    0    0 -0.80297700704E+02  0.66790552154E+01  0.12346271686E+03  0.17625324906E+03  0.96591070146E+02 0.  0.
          5    1    3    3  502    0  0.10090481380E+03  0.81190084193E+01  0.58165246281E+02  0.11682623002E+03  0.41800000000E+01 0.  1.
         -5    1    3    3    0  502 -0.20607113091E+02 -0.14798063635E+02  0.88284050253E+02  0.91952062110E+02  0.41800000000E+01 0.  1.
        -11    1    4    4    0    0 -0.96850817948E+02 -0.12780776915E+01  0.69399178742E+02  0.11915519472E+03  0.00000000000E+00 0. -1.
         11    1    4    4    0    0  0.16553117244E+02  0.79571329069E+01  0.54063538123E+02  0.57098054336E+02  0.00000000000E+00 0.  1.
</event>
<event>
 8    1  0.7112384E-009  0.1397617E+03  0.7561462E-02  0.1213650E+00
          2   -1    0    0  501    0  0.00000000000E+00  0.00000000000E+00  0.31144831906E+03  0.31144831906E+03  0.00000000000E+00 0. -1.
         -2   -1    0    0    0  501 -0.00000000000E+00 -0.00000000000E+00 -0.75440454037E+02  0.75440454037E+02  0.00000000000E+00 0.  1.
         25    2    1    2    0    0  0.63614785608E+02  0.63676938463E+02  0.49653189162E+02  0.16190745686E+03  0.12508793689E+03 0.  0.
         23    2    1    2    0    0 -0.63614785608E+02 -0.63676938463E+02  0.18635467586E+03  0.22498131623E+03  0.88243605990E+02 0.  0.
          5    1    3    3  502    0  0.96591051241E+02  0.70356948143E+02  0.32496081350E+02  0.12390883356E+03  0.41800000000E+01 0.  1.
         -5    1    3    3    0  502 -0.32976265633E+02 -0.66800096798E+01  0.17157107812E+02  0.37998623302E+02  0.41800000000E+01 0.  1.
        -11    1    4    4    0    0 -0.75199577275E+02 -0.15869271244E+02  0.11434021732E+03  0.13776971906E+03  0.00000000000E+00 0. -1.
         11    1    4    4    0    0  0.11584791667E+02 -0.47807667218E+02  0.72014458540E+02  0.87211597174E+02  0.00000000000E+00 0.  1.
</event>
<event>
 8    1  0.7112384E-009  0.1538611E+03  0.7561462E-02  0.1195807E+00
          2   -1    0    0  501    0  0.00000000000E+00  0.00000000000E+00  0.17532026842E+03  0.17532026842E+03  0.00000000000E+00 0. -1.
         -2   -1    0    0    0  501 -0.00000000000E+00 -0.00000000000E+00 -0.22625726447E+03  0.22625726447E+03  0.00000000000E+00 0.  1.
         25    2    1    2    0    0 -0.14244331160E+03  0.25045179666E+02 -0.10961663267E+03  0.22040724476E+03  0.12508472865E+03 0.  0.
         23    2    1    2    0    0  0.14244331160E+03 -0.25045179666E+02  0.58679636620E+02  0.18117028812E+03  0.91989214048E+02 0.  0.
          5    1    3    3  502    0 -0.11144781486E+03  0.25285058175E+02 -0.13726682524E+03  0.17866058132E+03  0.41800000000E+01 0. -1.
         -5    1    3    3    0  502 -0.30995496737E+02 -0.23987850862E+00  0.27650192572E+02  0.41746663447E+02  0.41800000000E+01 0. -1.
        -11    1    4    4    0    0 -0.83405097342E+01 -0.56234871054E+01  0.22863986989E+02  0.24978983384E+02  0.00000000000E+00 0. -1.
         11    1    4    4    0    0  0.15078382133E+03 -0.19421692561E+02  0.35815649631E+02  0.15619130474E+03  0.00000000000E+00 0.  1.
</event>
<event>
 8    1  0.7112384E-009  0.1171753E+03  0.7561462E-02  0.1247831E+00
          2   -1    0    0  501    0  0.00000000000E+00  0.00000000000E+00  0.37589815546E+02  0.37589815546E+02  0.00000000000E+00 0. -1.
         -2   -1    0    0    0  501 -0.00000000000E+00 -0.00000000000E+00 -0.47320001060E+03  0.47320001060E+03  0.00000000000E+00 0.  1.
         25    2    1    2    0    0 -0.55631954955E+02 -0.39526043016E+02 -0.16673557973E+03  0.21933017724E+03  0.12509096935E+03 0.  0.
         23    2    1    2    0    0  0.55631954955E+02  0.39526043016E+02 -0.26887461533E+03  0.29145964891E+03  0.89431234391E+02 0.  0.
          5    1    3    3  502    0  0.37432955009E+02 -0.13259832163E+02 -0.79782453707E+02  0.89217495982E+02  0.41800000000E+01 0.  1.
         -5    1    3    3    0  502 -0.93064909965E+02 -0.26266210852E+02 -0.86953126019E+02  0.13011268126E+03  0.41800000000E+01 0.  1.
        -11    1    4    4    0    0  0.54177518893E+02 -0.37692775314E+01 -0.73776099737E+02  0.91609627763E+02  0.00000000000E+00 0.  1.
         11    1    4    4    0    0  0.14544360627E+01  0.43295320547E+02 -0.19509851559E+03  0.19985002115E+03  0.00000000000E+00 0. -1.
</event>
<event>
 8    1  0.7112384E-009  0.1182057E+03  0.7561462E-02  0.1246087E+00
         -3   -1    0    0    0  501 -0.00000000000E+00  0.00000000000E+00  0.10354174725E+03  0.10354174725E+03  0.00000000000E+00 0.  1.
          3   -1    0    0  501    0  0.00000000000E+00 -0.00000000000E+00 -0.16249026201E+03  0.16249026201E+03  0.00000000000E+00 0. -1.
         25    2    1    2    0    0 -0.12786855886E+02 -0.69761086434E+02 -0.93080303200E+00  0.14379989843E+03  0.12508969394E+03 0.  0.
         23    2    1    2    0    0  0.12786855886E+02  0.69761086434E+02 -0.58017711731E+02  0.12223211084E+03  0.80898214944E+02 0.  0.
          5    1    3    3  502    0  0.51188237927E+02 -0.36587061990E+02  0.23940139756E+02  0.67449621931E+02  0.41800000000E+01 0. -1.
         -5    1    3    3    0  502 -0.63975093814E+02 -0.33174024444E+02 -0.24870942788E+02  0.76350276499E+02  0.41800000000E+01 0. -1.
        -11    1    4    4    0    0  0.10692432093E+02 -0.13868388823E+02  0.41610823090E+01  0.17999303280E+02  0.00000000000E+00 0.  1.
         11    1    4    4    0    0  0.20944237935E+01  0.83629475256E+02 -0.62178794040E+02  0.10423280756E+03  0.00000000000E+00 0. -1.
</event>
<event>
 8    1  0.7112384E-009  0.1340321E+03  0.7561462E-02  0.1221592E+00
         -1   -1    0    0    0  501 -0.00000000000E+00  0.00000000000E+00  0.50587984244E+03  0.50587984244E+03  0.00000000000E+00 0.  1.
          1   -1    0    0  501    0  0.00000000000E+00 -0.00000000000E+00 -0.43367408569E+02  0.43367408569E+02  0.00000000000E+00 0. -1.
         25    2    1    2    0    0 -0.66684217205E+02 -0.70324188297E+02  0.30148699926E+03  0.34049188626E+03  0.12509211649E+03 0.  0.
         23    2    1    2    0    0  0.66684217205E+02  0.70324188297E+02  0.16102543462E+03  0.20875536475E+03  0.90869881882E+02 0.  0.
          5    1    3    3  502    0 -0.40299917437E+02  0.17293136314E+02  0.19552616208E+03  0.20042726453E+03  0.41800000000E+01 0. -1.
         -5    1    3    3    0  502 -0.26384299768E+02 -0.87617324611E+02  0.10596083717E+03  0.14006462173E+03  0.41800000000E+01 0. -1.
        -11    1    4    4    0    0  0.32013243868E+01 -0.20971749388E+02  0.19922336055E+02  0.29102615417E+02  0.00000000000E+00 0. -1.
         11    1    4    4    0    0  0.63482892818E+02  0.91295937685E+02  0.14110309856E+03  0.17965274933E+03  0.00000000000E+00 0.  1.
</event>
<event>
 8    1  0.7112384E-009  0.9697889E+02  0.7561462E-02  0.1286780E+00
         -4   -1    0    0    0  501 -0.00000000000E+00  0.00000000000E+00  0.84034352770E+03  0.84034352770E+03  0.00000000000E+00 0.  1.
          4   -1    0    0  501    0  0.00000000000E+00 -0.00000000000E+00 -0.23730459585E+02  0.23730459585E+02  0.00000000000E+00 0. -1.
         25    2    1    2    0    0 -0.77041998903E+02  0.20032076596E+02  0.31368922882E+03  0.34696591565E+03  0.12509060980E+03 0.  0.
         23    2    1    2    0    0  0.77041998903E+02 -0.20032076596E+02  0.50292383930E+03  0.51710807164E+03  0.90175472974E+02 0.  0.
          5    1    3    3  502    0 -0.39940640827E+02 -0.80181752633E+01  0.13430755754E+02  0.43097604625E+02  0.41800000000E+01 0.  1.
         -5    1    3    3    0  502 -0.37101358075E+02  0.28050251859E+02  0.30025847306E+03  0.30386831103E+03  0.41800000000E+01 0.  1.
        -11    1    4    4    0    0  0.91801316348E+01  0.23807838584E+02  0.41894969071E+02  0.49053811558E+02  0.00000000000E+00 0. -1.
         11    1    4    4    0    0  0.67861867268E+02 -0.43839915179E+02  0.46102887023E+03  0.46805426008E+03  0.00000000000E+00 0.  1.
</event>
<event>
 8    1  0.7112384E-009  0.2052114E+03  0.7561462E-02  0.1145415E+00
          4   -1    0    0  501    0  0.00000000000E+00  0.00000000000E+00  0.77926835385E+03  0.77926835385E+03  0.00000000000E+00 0. -1.
         -4   -1    0    0    0  501 -0.00000000000E+00 -0.00000000000E+00 -0.67642415720E+02  0.67642415720E+02  0.00000000000E+00 0.  1.
         25    2    1    2    0    0  0.91702912400E+02  0.16414255715E+03  0.23773703168E+03  0.32790080954E+03  0.12509133246E+03 0.  0.
         23    2    1    2    0    0 -0.91702912400E+02 -0.16414255715E+03  0.47388890645E+03  0.51900996003E+03  0.97203085013E+02 0.  0.
          5    1    3    3  502    0 -0.23093620350E+02  0.69664558266E+02  0.52462552536E+02  0.90312002513E+02  0.41800000000E+01 0.  1.
         -5    1    3    3    0  502  0.11479653275E+03  0.94477998888E+02  0.18527447914E+03  0.23758880703E+03  0.41800000000E+01 0.  1.
        -11    1    4    4    0    0 -0.51829084498E+02 -0.84943683108E+02  0.36637935186E+03  0.37965183098E+03  0.00000000000E+00 0. -1.
         11    1    4    4    0    0 -0.39873827902E+02 -0.79198874046E+02  0.10750955459E+03  0.13935812904E+03  0.00000000000E+00 0.  1.
</event>
<event>
 8    1  0.7112384E-009  0.7042851E+02  0.7561462E-02  0.1358642E+00
          3   -1    0    0  501    0  0.00000000000E+00  0.00000000000E+00  0.57180718698E+03  0.57180718698E+03  0.00000000000E+00 0. -1.
         -3   -1    0    0    0  501 -0.00000000000E+00 -0.00000000000E+00 -0.25537001328E+02  0.25537001328E+02  0.00000000000E+00 0.  1.
         25    2    1    2    0    0 -0.24750553083E+02  0.19530612695E+01  0.19894060639E+03  0.23630597895E+03  0.12508695571E+03 0.  0.
         23    2    1    2    0    0  0.24750553083E+02 -0.19530612695E+01  0.34732957926E+03  0.36103820936E+03  0.95364289243E+02 0.  0.
          5    1    3    3  502    0  0.83675514827E+01  0.49163983537E+01  0.20234559122E+03  0.20262131570E+03  0.41800000000E+01 0.  1.
         -5    1    3    3    0  502 -0.33118104566E+02 -0.29633370841E+01 -0.34049848221E+01  0.33684663251E+02  0.41800000000E+01 0.  1.
        -11    1    4    4    0    0 -0.27824809615E+02  0.25257267988E+02  0.10305884061E+03  0.10969628181E+03  0.00000000000E+00 0.  1.
         11    1    4    4    0    0  0.52575362698E+02 -0.27210329257E+02  0.24427073865E+03  0.25134192755E+03  0.00000000000E+00 0. -1.
</event>
<event>
 8    1  0.7112384E-009  0.1328838E+03  0.7561462E-02  0.1223238E+00
          2   -1    0    0  501    0  0.00000000000E+00  0.00000000000E+00  0.48578503144E+03  0.48578503144E+03  0.00000000000E+00 0. -1.
         -2   -1    0    0    0  501 -0.00000000000E+00 -0.00000000000E+00 -0.47011330050E+02  0.47011330050E+02  0.00000000000E+00 0.  1.
         25    2    1    2    0    0 -0.10341276063E+03  0.13177782812E+02  0.24167243962E+03  0.29141183405E+03  0.12508971155E+03 0.  0.
         23    2    1    2    0    0  0.10341276063E+03 -0.13177782812E+02  0.19710126177E+03  0.24138452744E+03  0.92464748265E+02 0.  0.
          5    1    3    3  502    0 -0.85485997167E+02 -0.31104816549E+02  0.22130671157E+03  0.23931046427E+03  0.41800000000E+01 0.  1.
         -5    1    3    3    0  502 -0.17926763465E+02  0.44282599361E+02  0.20365728052E+02  0.52101369786E+02  0.41800000000E+01 0.  1.
        -11    1    4    4    0    0  0.68956986312E+02 -0.42925429845E+02  0.73041146954E+02  0.10923675040E+03  0.00000000000E+00 0.  1.
         11    1    4    4    0    0  0.34455774320E+02  0.29747647032E+02  0.12406011482E+03  0.13214777704E+03  0.00000000000E+00 0. -1.
</event>
<event>
 8    1  0.7112384E-009  0.1759345E+03  0.7561462E-02  0.1171797E+00
          2   -1    0    0  501    0  0.00000000000E+00  0.00000000000E+00  0.66805114065E+03  0.66805114065E+03  0.00000000000E+00 0. -1.
         -2   -1    0    0    0  501 -0.00000000000E+00 -0.00000000000E+00 -0.62877827542E+02  0.62877827542E+02  0.00000000000E+00 0.  1.
         25    2    1    2    0    0  0.66705954842E+02 -0.12073914968E+03  0.12843687716E+03  0.22621064851E+03  0.12509036496E+03 0.  0.
         23    2    1    2    0    0 -0.66705954842E+02  0.12073914968E+03  0.47673643594E+03  0.50471831968E+03  0.91844031861E+02 0.  0.
          5    1    3    3  502    0 -0.37217511852E+02 -0.37484928377E+02  0.36460581045E+02  0.64320365469E+02  0.41800000000E+01 0.  1.
         -5    1    3    3    0  502  0.10392346669E+03 -0.83254221307E+02  0.91976296119E+02  0.16189028304E+03  0.41800000000E+01 0.  1.
        -11    1    4    4    0    0 -0.73802290606E+01 -0.15441394545E+02  0.53642080644E+02  0.56306103242E+02  0.00000000000E+00 0. -1.
         11    1    4    4    0    0 -0.59325725781E+02  0.13618054423E+03  0.42309435530E+03  0.44841221644E+03  0.00000000000E+00 0.  1.
</event>
<event>
 8    1  0.7112384E-009  0.9149713E+02  0.7561462E-02  0.1299266E+00
          2   -1    0    0  501    0  0.00000000000E+00  0.00000000000E+00  0.10989541967E+03  0.10989541967E+03  0.00000000000E+00 0.  1.
         -2   -1    0    0    0  501 -0.00000000000E+00 -0.00000000000E+00 -0.12435491255E+03  0.12435491255E+03  0.00000000000E+00 0. -1.
         25    2    1    2    0    0 -0.25140763121E+02  0.18133987092E+02  0.25061573578E+02  0.13128403283E+03  0.12508603178E+03 0.  0.
         23    2    1    2    0    0  0.25140763121E+02 -0.18133987092E+02 -0.39521066467E+02  0.10296629939E+03  0.89884618581E+02 0.  0.
          5    1    3    3  502    0 -0.64537347090E+02  0.45439010429E+02  0.51377042273E+01  0.79206320726E+02  0.41800000000E+01 0.  1.
         -5    1    3    3    0  502  0.39396583969E+02 -0.27305023338E+02  0.19923869350E+02  0.52077712102E+02  0.41800000000E+01 0.  1.
        -11    1    4    4    0    0  0.36311822310E+02 -0.21990150274E+01  0.19179022867E+02  0.41124433427E+02  0.00000000000E+00 0.  1.
         11    1    4    4    0    0 -0.11171059190E+02 -0.15934972065E+02 -0.58700089334E+02  0.61841865964E+02  0.00000000000E+00 0. -1.
</event>
<event>
 8    1  0.7112384E-009  0.8135122E+02  0.7561462E-02  0.1325260E+00
          1   -1    0    0  501    0  0.00000000000E+00  0.00000000000E+00  0.12694505346E+03  0.12694505346E+03  0.00000000000E+00 0. -1.
         -1   -1    0    0    0  501 -0.00000000000E+00 -0.00000000000E+00 -0.15924897727E+03  0.15924897727E+03  0.00000000000E+00 0.  1.
         25    2    1    2    0    0 -0.52487600445E+02  0.48552107079E+00  0.56766586406E+02  0.14706101842E+03  0.12509721769E+03 0.  0.
         23    2    1    2    0    0  0.52487600445E+02 -0.48552107079E+00 -0.89070510217E+02  0.13913301232E+03  0.93108836290E+02 0.  0.
          5    1    3    3  502    0 -0.27899272911E+02  0.99055184704E+01  0.95481974710E+02  0.10005382861E+03  0.41800000000E+01 0. -1.
         -5    1    3    3    0  502 -0.24588327534E+02 -0.94199973997E+01 -0.38715388304E+02  0.47007189806E+02  0.41800000000E+01 0. -1.
        -11    1    4    4    0    0  0.55158559117E+02 -0.38988644917E+02 -0.64394676909E+02  0.93323391979E+02  0.00000000000E+00 0. -1.
         11    1    4    4    0    0 -0.26709586720E+01  0.38503123846E+02 -0.24675833308E+02  0.45809620339E+02  0.00000000000E+00 0.  1.
</event>
<event>
 8    1  0.7112384E-009  0.1313681E+03  0.7561462E-02  0.1225440E+00
         -1   -1    0    0    0  501 -0.00000000000E+00  0.00000000000E+00  0.40937155804E+03  0.40937155804E+03  0.00000000000E+00 0.  1.
          1   -1    0    0  501    0  0.00000000000E+00 -0.00000000000E+00 -0.52614189071E+02  0.52614189071E+02  0.00000000000E+00 0. -1.
         25    2    1    2    0    0  0.47741821406E+02 -0.77433855023E+02  0.25392046023E+03  0.29731825611E+03  0.12508901581E+03 0.  0.
         23    2    1    2    0    0 -0.47741821406E+02  0.77433855023E+02  0.10283690874E+03  0.16466749101E+03  0.90910227043E+02 0.  0.
          5    1    3    3  502    0 -0.11720210245E+02 -0.84358028261E+02  0.19675770943E+03  0.21444045532E+03  0.41800000000E+01 0. -1.
         -5    1    3    3    0  502  0.59462031651E+02  0.69241732382E+01  0.57162750803E+02  0.82877800782E+02  0.41800000000E+01 0. -1.
        -11    1    4    4    0    0 -0.66763357018E+02  0.70792061505E+02  0.10642227989E+03  0.14420320201E+03  0.00000000000E+00 0.  1.
         11    1    4    4    0    0  0.19021535612E+02  0.66417935181E+01 -0.35853711454E+01  0.20464289004E+02  0.00000000000E+00 0. -1.
</event>
<event>
 8    1  0.7112384E-009  0.1031721E+03  0.7561462E-02  0.1273763E+00
         -2   -1    0    0    0  501 -0.00000000000E+00  0.00000000000E+00  0.19619469590E+02  0.19619469590E+02  0.00000000000E+00 0. -1.
          2   -1    0    0  501    0  0.00000000000E+00 -0.00000000000E+00 -0.96716941745E+03  0.96716941745E+03  0.00000000000E+00 0.  1.
         25    2    1    2    0    0 -0.51061347741E+02  0.17867967115E+02 -0.71377744689E+03  0.72667180499E+03  0.12508854060E+03 0.  0.
         23    2    1    2    0    0  0.51061347741E+02 -0.17867967115E+02 -0.23377250096E+03  0.26011708205E+03  0.10042304857E+03 0.  0.
          5    1    3    3  502    0 -0.44794798472E+02  0.52333103439E+02 -0.19787584038E+03  0.20956537952E+03  0.41800000000E+01 0. -1.
         -5    1    3    3    0  502 -0.62665492690E+01 -0.34465136324E+02 -0.51590160651E+03  0.51710642547E+03  0.41800000000E+01 0. -1.
        -11    1    4    4    0    0  0.75740625941E+02 -0.14941906002E+02 -0.11325732562E+03  0.13706613287E+03  0.00000000000E+00 0. -1.
         11    1    4    4    0    0 -0.24679278200E+02 -0.29260611131E+01 -0.12051517534E+03  0.12305094918E+03  0.00000000000E+00 0.  1.
</event>
<event>
 8    1  0.7112384E-009  0.1293682E+03  0.7561462E-02  0.1228396E+00
         -4   -1    0    0    0  501 -0.00000000000E+00  0.00000000000E+00  0.87658532563E+02  0.87658532563E+02  0.00000000000E+00 0. -1.
          4   -1    0    0  501    0  0.00000000000E+00 -0.00000000000E+00 -0.37800318046E+03  0.37800318046E+03  0.00000000000E+00 0.  1.
         25    2    1    2    0    0  0.95576749755E+02 -0.26030287530E+02 -0.15709207608E+02  0.16033544289E+03  0.12509270195E+03 0.  0.
         23    2    1    2    0    0 -0.95576749755E+02  0.26030287530E+02 -0.27463544029E+03  0.30532627013E+03  0.89370102415E+02 0.  0.
          5    1    3    3  502    0 -0.71688588781E+01 -0.21071252957E+02  0.37985579883E+02  0.44224053611E+02  0.41800000000E+01 0.  1.
         -5    1    3    3    0  502  0.10274560863E+03 -0.49590345726E+01 -0.53694787491E+02  0.11611138928E+03  0.41800000000E+01 0.  1.
        -11    1    4    4    0    0 -0.68745171612E+02  0.59027837116E+02 -0.19584233379E+03  0.21578786777E+03  0.00000000000E+00 0.  1.
         11    1    4    4    0    0 -0.26831578143E+02 -0.32997549587E+02 -0.78793106501E+02  0.89538402356E+02  0.00000000000E+00 0. -1.
</event>
<event>
 8    1  0.7112384E-009  0.8447338E+02  0.7561462E-02  0.1316815E+00
         -1   -1    0    0    0  501 -0.00000000000E+00  0.00000000000E+00  0.17992666814E+03  0.17992666814E+03  0.00000000000E+00 0.  1.
          1   -1    0    0  501    0  0.00000000000E+00 -0.00000000000E+00 -0.73359566215E+02  0.73359566215E+02  0.00000000000E+00 0. -1.
         25    2    1    2    0    0  0.13926966758E+02 -0.66275886783E+01  0.20441432470E+02  0.12768411025E+03  0.12508994569E+03 0.  0.
         23    2    1    2    0    0 -0.13926966758E+02  0.66275886783E+01  0.86125669453E+02  0.12560212411E+03  0.90113136149E+02 0.  0.
          5    1    3    3  502    0 -0.31909563788E+02  0.86467862388E+01  0.57630421930E+02  0.66571203273E+02  0.41800000000E+01 0. -1.
         -5    1    3    3    0  502  0.45836530546E+02 -0.15274374917E+02 -0.37188989460E+02  0.61112906973E+02  0.41800000000E+01 0. -1.
        -11    1    4    4    0    0 -0.20270671098E+02  0.44409697021E+02  0.28881599997E+02  0.56720967152E+02  0.00000000000E+00 0.  1.
         11    1    4    4    0    0  0.63437043396E+01 -0.37782108342E+02  0.57244069456E+02  0.68881156955E+02  0.00000000000E+00 0. -1.
</event>
<event>
 8    1  0.7112384E-009  0.1087297E+03  0.7561462E-02  0.1262941E+00
          1   -1    0    0  501    0  0.00000000000E+00  0.00000000000E+00  0.43376169545E+03  0.43376169545E+03  0.00000000000E+00 0. -1.
         -1   -1    0    0    0  501 -0.00000000000E+00 -0.00000000000E+00 -0.33823987731E+02  0.33823987731E+02  0.00000000000E+00 0.  1.
         25    2    1    2    0    0  0.36512669476E+02 -0.30965399241E+02  0.22445181186E+03  0.26137751010E+03  0.12509019129E+03 0.  0.
         23    2    1    2    0    0 -0.36512669476E+02  0.30965399241E+02  0.17548589586E+03  0.20620817308E+03  0.97131251497E+02 0.  0.
          5    1    3    3  502    0 -0.26087357585E+02 -0.56534642956E+02  0.77045941023E+02  0.99147695425E+02  0.41800000000E+01 0. -1.
         -5    1    3    3    0  502  0.62600027060E+02  0.25569243716E+02  0.14740587084E+03  0.16222981467E+03  0.41800000000E+01 0. -1.
        -11    1    4    4    0    0  0.11694371645E+02  0.36924611517E+02  0.14205741359E+03  0.14724297613E+03  0.00000000000E+00 0. -1.
         11    1    4    4    0    0 -0.48207041121E+02 -0.59592122760E+01  0.33428482269E+02  0.58965196950E+02  0.00000000000E+00 0.  1.
</event>
<event>
 8    1  0.7112384E-009  0.1193617E+03  0.7561462E-02  0.1244154E+00
          1   -1    0    0  501    0  0.00000000000E+00  0.00000000000E+00  0.65243789978E+03  0.65243789978E+03  0.00000000000E+00 0. -1.
         -1   -1    0    0    0  501 -0.00000000000E+00 -0.00000000000E+00 -0.23341157068E+02  0.23341157068E+02  0.00000000000E+00 0.  1.
         25    2    1    2    0    0 -0.46823659625E+02  0.31378529809E+02  0.29019542561E+03  0.32099502938E+03  0.12508939446E+03 0.  0.
         23    2    1    2    0    0  0.46823659625E+02 -0.31378529809E+02  0.33890131710E+03  0.35478402747E+03  0.88546802197E+02 0.  0.
          5    1    3    3  502    0 -0.15729189833E+01 -0.45060761954E+02  0.68337128089E+02  0.81977934943E+02  0.41800000000E+01 0. -1.
         -5    1    3    3    0  502 -0.45250740642E+02  0.76439291763E+02  0.22185829752E+03  0.23901709444E+03  0.41800000000E+01 0. -1.
        -11    1    4    4    0    0 -0.89191732356E+01  0.24204312372E+02  0.70205936220E+02  0.74794878629E+02  0.00000000000E+00 0.  1.
         11    1    4    4    0    0  0.55742832861E+02 -0.55582842181E+02  0.26869538088E+03  0.27998914884E+03  0.00000000000E+00 0. -1.
</event>
<event>
 8    1  0.7112384E-009  0.1440892E+03  0.7561462E-02  0.1207930E+00
         -1   -1    0    0    0  501 -0.00000000000E+00  0.00000000000E+00  0.95339558251E+02  0.95339558251E+02  0.00000000000E+00 0.  1.
          1   -1    0    0  501    0  0.00000000000E+00 -0.00000000000E+00 -0.26544808359E+03  0.26544808359E+03  0.00000000000E+00 0. -1.
         25    2    1    2    0    0 -0.86900427044E+01  0.11714797258E+03 -0.88501740840E+02  0.19308226484E+03  0.12509611722E+03 0.  0.
         23    2    1    2    0    0  0.86900427044E+01 -0.11714797258E+03 -0.81606784496E+02  0.16770537699E+03  0.87557192017E+02 0.  0.
          5    1    3    3  502    0  0.22305520877E+02 -0.15126934189E+02  0.54986815291E+01  0.27822082922E+02  0.41800000000E+01 0. -1.
         -5    1    3    3    0  502 -0.30995563581E+02  0.13227490677E+03 -0.94000422370E+02  0.16526018192E+03  0.41800000000E+01 0. -1.
        -11    1    4    4    0    0  0.22758188843E+02 -0.10115221383E+03 -0.24191356494E+02  0.10646561535E+03  0.00000000000E+00 0.  1.
         11    1    4    4    0    0 -0.14068146139E+02 -0.15995758754E+02 -0.57415428002E+02  0.61239761646E+02  0.00000000000E+00 0. -1.
</event>
<event>
 8    1  0.7112384E-009  0.1403794E+03  0.7561462E-02  0.1212819E+00
         -1   -1    0    0    0  501 -0.00000000000E+00  0.00000000000E+00  0.67145501191E+02  0.67145501191E+02  0.00000000000E+00 0.  1.
          1   -1    0    0  501    0  0.00000000000E+00 -0.00000000000E+00 -0.39214955315E+03  0.39214955315E+03  0.00000000000E+00 0. -1.
         25    2    1    2    0    0  0.10824000946E+03 -0.32112455256E+02 -0.24152867997E+03  0.29450032699E+03  0.12508888807E+03 0.  0.
         23    2    1    2    0    0 -0.10824000946E+03  0.32112455256E+02 -0.83475371992E+02  0.16479472735E+03  0.86267346102E+02 0.  0.
          5    1    3    3  502    0  0.37022523272E+02  0.41374371609E+02 -0.13828772257E+03  0.14907539190E+03  0.41800000000E+01 0. -1.
         -5    1    3    3    0  502  0.71217486190E+02 -0.73486826865E+02 -0.10324095740E+03  0.14542493509E+03  0.41800000000E+01 0. -1.
        -11    1    4    4    0    0 -0.56276786252E+02  0.41414193589E+02 -0.87356356785E+02  0.11186306438E+03  0.00000000000E+00 0. -1.
         11    1    4    4    0    0 -0.51963223210E+02 -0.93017383328E+01  0.38809847929E+01  0.52931662975E+02  0.00000000000E+00 0.  1.
</event>
<event>
 8    1  0.7112384E-009  0.1132409E+03  0.7561462E-02  0.1254683E+00
         -3   -1    0    0    0  501 -0.00000000000E+00  0.00000000000E+00  0.10405326459E+03  0.10405326459E+03  0.00000000000E+00 0.  1.
          3   -1    0    0  501    0  0.00000000000E+00 -0.00000000000E+00 -0.15745276441E+03  0.15745276441E+03  0.00000000000E+00 0. -1.
         25    2    1    2    0    0 -0.55694522945E+02 -0.20427279777E+02  0.34116037023E+01  0.13849472802E+03  0.12509994806E+03 0.  0.
         23    2    1    2    0    0  0.55694522945E+02  0.20427279777E+02 -0.56811103527E+02  0.12301130098E+03  0.91570328377E+02 0.  0.
          5    1    3    3  502    0 -0.30023179141E+02 -0.62009279673E+02 -0.33872927833E+02  0.76885562307E+02  0.41800000000E+01 0. -1.
         -5    1    3    3    0  502 -0.25671343803E+02  0.41581999896E+02  0.37284531535E+02  0.61609165712E+02  0.41800000000E+01 0. -1.
        -11    1    4    4    0    0  0.28845116948E+02  0.56504801698E+02 -0.26361297369E+02  0.68700446765E+02  0.00000000000E+00 0.  1.
         11    1    4    4    0    0  0.26849405996E+02 -0.36077521921E+02 -0.30449806158E+02  0.54310854213E+02  0.00000000000E+00 0. -1.
</event>
<event>
 8    1  0.7112384E-009  0.2307325E+03  0.7561462E-02  0.1126125E+00
          2   -1    0    0  501    0  0.00000000000E+00  0.00000000000E+00  0.21455371371E+03  0.21455371371E+03  0.00000000000E+00 0. -1.
         -2   -1    0    0    0  501 -0.00000000000E+00 -0.00000000000E+00 -0.30642963212E+03  0.30642963212E+03  0.00000000000E+00 0.  1.
         25    2    1    2    0    0 -0.14580518162E+03  0.17110741454E+03 -0.10500701170E+03  0.27786739743E+03  0.12508764827E+03 0.  0.
         23    2    1    2    0    0  0.14580518162E+03 -0.17110741454E+03  0.13131093287E+02  0.24311594840E+03  0.91629910254E+02 0.  0.
          5    1    3    3  502    0 -0.74557233837E+02  0.13726794045E+03 -0.13293634389E+02  0.15682940320E+03  0.41800000000E+01 0. -1.
         -5    1    3    3    0  502 -0.71247947785E+02  0.33839474100E+02 -0.91713377307E+02  0.12103799423E+03  0.41800000000E+01 0. -1.
        -11    1    4    4    0    0  0.20116309217E+02 -0.38909320603E+02 -0.33141345862E+02  0.54926768810E+02  0.00000000000E+00 0.  1.
         11    1    4    4    0    0  0.12568887241E+03 -0.13219809394E+03  0.46272439149E+02  0.18818917959E+03  0.00000000000E+00 0. -1.
</event>
<event>
 8    1  0.7112384E-009  0.9501992E+02  0.7561462E-02  0.1291131E+00
          1   -1    0    0  501    0  0.00000000000E+00  0.00000000000E+00  0.28205976100E+03  0.28205976100E+03  0.00000000000E+00 0. -1.
         -1   -1    0    0    0  501 -0.00000000000E+00 -0.00000000000E+00 -0.56511647074E+02  0.56511647074E+02  0.00000000000E+00 0.  1.
         25    2    1    2    0    0 -0.14821228839E+02 -0.62357971793E+02  0.10835483709E+03  0.17747214243E+03  0.12508958848E+03 0.  0.
         23    2    1    2    0    0  0.14821228839E+02  0.62357971793E+02  0.11719327683E+03  0.16109926564E+03  0.90058446496E+02 0.  0.
          5    1    3    3  502    0  0.12117886454E+02  0.16026479617E+02  0.90219169431E+02  0.92523846407E+02  0.41800000000E+01 0. -1.
         -5    1    3    3    0  502 -0.26939115293E+02 -0.78384451410E+02  0.18135667659E+02  0.84948296022E+02  0.41800000000E+01 0. -1.
        -11    1    4    4    0    0  0.47953269050E+01 -0.11255620925E+02 -0.86352322993E+01  0.14975025857E+02  0.00000000000E+00 0.  1.
         11    1    4    4    0    0  0.10025901934E+02  0.73613592719E+02  0.12582850913E+03  0.14612423979E+03  0.00000000000E+00 0. -1.
</event>
<event>
 8    1  0.7112384E-009  0.1805107E+03  0.7561462E-02  0.1167310E+00
         -2   -1    0    0    0  501 -0.00000000000E+00  0.00000000000E+00  0.70139877760E+02  0.70139877760E+02  0.00000000000E+00 0. -1.
          2   -1    0    0  501    0  0.00000000000E+00 -0.00000000000E+00 -0.73758392026E+03  0.73758392026E+03  0.00000000000E+00 0.  1.
         25    2    1    2    0    0 -0.60501759896E+01  0.14449026677E+03 -0.59099763195E+03  0.62115970889E+03  0.12508853327E+03 0.  0.
         23    2    1    2    0    0  0.60501759896E+01 -0.14449026677E+03 -0.76446410544E+02  0.18656408912E+03  0.89711001799E+02 0.  0.
          5    1    3    3  502    0 -0.60666958875E+02  0.39493667155E+02 -0.24076446721E+03  0.25144627799E+03  0.41800000000E+01 0. -1.
         -5    1    3    3    0  502  0.54616782885E+02  0.10499659962E+03 -0.35023316475E+03  0.36971343091E+03  0.41800000000E+01 0. -1.
        -11    1    4    4    0    0  0.47350021270E+02 -0.63929487142E+02 -0.38907461509E+02  0.88559552853E+02  0.00000000000E+00 0.  1.
         11    1    4    4    0    0 -0.41299845280E+02 -0.80560779630E+02 -0.37538949036E+02  0.98004536270E+02  0.00000000000E+00 0. -1.
</event>
<event>
 8    1  0.7112384E-009  0.1278945E+03  0.7561462E-02  0.1230614E+00
          4   -1    0    0  501    0  0.00000000000E+00  0.00000000000E+00  0.16962167425E+03  0.16962167425E+03  0.00000000000E+00 0. -1.
         -4   -1    0    0    0  501 -0.00000000000E+00 -0.00000000000E+00 -0.15956917911E+03  0.15956917911E+03  0.00000000000E+00 0.  1.
         25    2    1    2    0    0 -0.99258845057E+02 -0.48399192450E+02 -0.49124258208E+02  0.17394004195E+03  0.12508854982E+03 0.  0.
         23    2    1    2    0    0  0.99258845057E+02  0.48399192450E+02  0.59176753350E+02  0.15525081140E+03  0.91684928712E+02 0.  0.
          5    1    3    3  502    0  0.71283082388E+01  0.61178869989E+01  0.29203676464E+02  0.30960756429E+02  0.41800000000E+01 0.  1.
         -5    1    3    3    0  502 -0.10638715330E+03 -0.54517079449E+02 -0.78327934671E+02  0.14297928552E+03  0.41800000000E+01 0.  1.
        -11    1    4    4    0    0  0.72928745406E+02  0.62480196250E+02  0.84701357955E+01  0.96406016567E+02  0.00000000000E+00 0.  1.
         11    1    4    4    0    0  0.26330099651E+02 -0.14081003800E+02  0.50706617554E+02  0.58844794838E+02  0.00000000000E+00 0. -1.
</event>
<event>
 8    1  0.7112384E-009  0.2768457E+03  0.7561462E-02  0.1097424E+00
         -2   -1    0    0    0  501 -0.00000000000E+00  0.00000000000E+00  0.81101038551E+02  0.81101038551E+02  0.00000000000E+00 0. -1.
          2   -1    0    0  501    0  0.00000000000E+00 -0.00000000000E+00 -0.10707021811E+04  0.10707021811E+04  0.00000000000E+00 0.  1.
         25    2    1    2    0    0  0.13926117828E+03 -0.22679064921E+03 -0.63064707844E+03  0.69583843669E+03  0.12509083934E+03 0.  0.
         23    2    1    2    0    0 -0.13926117828E+03  0.22679064921E+03 -0.35895406414E+03  0.45596478299E+03  0.90709364565E+02 0.  0.
          5    1    3    3  502    0  0.83746039943E+02 -0.19365421067E+03 -0.35771820182E+03  0.41532533854E+03  0.41800000000E+01 0.  1.
         -5    1    3    3    0  502  0.55515138334E+02 -0.33136438542E+02 -0.27292887662E+03  0.28051309815E+03  0.41800000000E+01 0.  1.
        -11    1    4    4    0    0 -0.11762543060E+03  0.11675430356E+03 -0.24743540612E+03  0.29781133210E+03  0.00000000000E+00 0.  1.
         11    1    4    4    0    0 -0.21635747673E+02  0.11003634566E+03 -0.11151865801E+03  0.15815345089E+03  0.00000000000E+00 0. -1.
</event>
<event>
 8    1  0.7112384E-009  0.9242072E+02  0.7561462E-02  0.1297093E+00
         -2   -1    0    0    0  501 -0.00000000000E+00  0.00000000000E+00  0.22511392076E+02  0.22511392076E+02  0.00000000000E+00 0. -1.
          2   -1    0    0  501    0  0.00000000000E+00 -0.00000000000E+00 -0.52696407989E+03  0.52696407989E+03  0.00000000000E+00 0.  1.
         25    2    1    2    0    0 -0.95125648314E+01  0.10649122169E+02 -0.30020106503E+03  0.32553438825E+03  0.12509222914E+03 0.  0.
         23    2    1    2    0    0  0.95125648314E+01 -0.10649122169E+02 -0.20425162278E+03  0.22394108372E+03  0.90702761131E+02 0.  0.
          5    1    3    3  502    0 -0.88728459058E+01  0.62116821922E+02 -0.22963916445E+03  0.23809419399E+03  0.41800000000E+01 0.  1.
         -5    1    3    3    0  502 -0.63971892562E+00 -0.51467699753E+02 -0.70561900581E+02  0.87440194257E+02  0.41800000000E+01 0.  1.
        -11    1    4    4    0    0  0.27930111512E+02 -0.31762802976E+02 -0.18541964622E+03  0.19018257540E+03  0.00000000000E+00 0.  1.
         11    1    4    4    0    0 -0.18417546681E+02  0.21113680807E+02 -0.18831976568E+02  0.33758508326E+02  0.00000000000E+00 0. -1.
</event>
<event>
 8    1  0.7112384E-009  0.3226907E+03  0.7561462E-02  0.1074418E+00
         -2   -1    0    0    0  501 -0.00000000000E+00  0.00000000000E+00  0.12545182781E+03  0.12545182781E+03  0.00000000000E+00 0.  1.
          2   -1    0    0  501    0  0.00000000000E+00 -0.00000000000E+00 -0.92773561452E+03  0.92773561452E+03  0.00000000000E+00 0. -1.
         25    2    1    2    0    0 -0.25797095143E+02  0.31991647480E+03 -0.35053440724E+03  0.49145901719E+03  0.12508218879E+03 0.  0.
         23    2    1    2    0    0  0.25797095143E+02 -0.31991647480E+03 -0.45174937947E+03  0.56172842514E+03  0.91919969519E+02 0.  0.
          5    1    3    3  502    0 -0.65368455709E+01  0.15335358546E+03 -0.25710668614E+03  0.29946848412E+03  0.41800000000E+01 0. -1.
         -5    1    3    3    0  502 -0.19260249572E+02  0.16656288934E+03 -0.93427721097E+02  0.19199053307E+03  0.41800000000E+01 0. -1.
        -11    1    4    4    0    0  0.29007433548E+02 -0.98879873063E+02 -0.85328333041E+02  0.13378933036E+03  0.00000000000E+00 0.  1.
         11    1    4    4    0    0 -0.32103384049E+01 -0.22103660174E+03 -0.36642104643E+03  0.42793909478E+03  0.00000000000E+00 0. -1.
</event>
<event>
 8    1  0.7112384E-009  0.1453384E+03  0.7561462E-02  0.1206321E+00
          2   -1    0    0  501    0  0.00000000000E+00  0.00000000000E+00  0.30662437952E+03  0.30662437952E+03  0.00000000000E+00 0.  1.
         -2   -1    0    0    0  501 -0.00000000000E+00 -0.00000000000E+00 -0.10669438414E+03  0.10669438414E+03  0.00000000000E+00 0. -1.
         25    2    1    2    0    0 -0.13553664411E+03  0.23066063316E+02  0.15595814295E+03  0.24263693962E+03  0.12509003535E+03 0.  0.
         23    2    1    2    0    0  0.13553664411E+03 -0.23066063316E+02  0.43971852436E+02  0.17068182404E+03  0.91085323061E+02 0.  0.
          5    1    3    3  502    0 -0.67625065470E+02  0.39200923517E+02  0.15391918601E+03  0.17268019604E+03  0.41800000000E+01 0.  1.
         -5    1    3    3    0  502 -0.67911578637E+02 -0.16134860201E+02  0.20389569390E+01  0.69956743578E+02  0.41800000000E+01 0.  1.
        -11    1    4    4    0    0  0.70957025079E+02  0.68756234708E+01 -0.20986994850E+02  0.74314383258E+02  0.00000000000E+00 0. -1.
         11    1    4    4    0    0  0.64579619027E+02 -0.29941686787E+02  0.64958847286E+02  0.96367440777E+02  0.00000000000E+00 0.  1.
</event>
<event>
 8    1  0.7112384E-009  0.1104576E+03  0.7561462E-02  0.1259725E+00
          1   -1    0    0  501    0  0.00000000000E+00  0.00000000000E+00  0.40603971534E+03  0.40603971534E+03  0.00000000000E+00 0. -1.
         -1   -1    0    0    0  501 -0.00000000000E+00 -0.00000000000E+00 -0.54750949890E+02  0.54750949890E+02  0.00000000000E+00 0.  1.
         25    2    1    2    0    0 -0.42317700323E+02  0.92304764203E+02  0.16316121529E+03  0.22930789770E+03  0.12509825146E+03 0.  0.
         23    2    1    2    0    0  0.42317700323E+02 -0.92304764203E+02  0.18812755016E+03  0.23148276753E+03  0.88776907353E+02 0.  0.
          5    1    3    3  502    0 -0.43072992385E+02  0.99877519111E+02  0.18000550475E+03  0.21035744730E+03  0.41800000000E+01 0. -1.
         -5    1    3    3    0  502  0.75529206188E+00 -0.75727549079E+01 -0.16844289456E+02  0.18950450398E+02  0.41800000000E+01 0. -1.
        -11    1    4    4    0    0  0.14959675460E+02 -0.55760867253E+02  0.26485160680E+02  0.63517949769E+02  0.00000000000E+00 0.  1.
         11    1    4    4    0    0  0.27358024863E+02 -0.36543896951E+02  0.16164238948E+03  0.16796481776E+03  0.00000000000E+00 0. -1.
</event>
<event>
 8    1  0.7112384E-009  0.4502401E+03  0.7561462E-02  0.1027650E+00
          1   -1    0    0  501    0  0.00000000000E+00  0.00000000000E+00  0.12360198249E+04  0.12360198249E+04  0.00000000000E+00 0. -1.
         -1   -1    0    0    0  501 -0.00000000000E+00 -0.00000000000E+00 -0.18193338211E+03  0.18193338211E+03  0.00000000000E+00 0.  1.
         25    2    1    2    0    0  0.34679864537E+03  0.27243939752E+03  0.32928232352E+03  0.56442077797E+03  0.12510571635E+03 0.  0.
         23    2    1    2    0    0 -0.34679864537E+03 -0.27243939752E+03  0.72480411929E+03  0.85353242907E+03  0.93188359672E+02 0.  0.
          5    1    3    3  502    0  0.33016930790E+03  0.20628606421E+03  0.26831209948E+03  0.47283672372E+03  0.41800000000E+01 0. -1.
         -5    1    3    3    0  502  0.16629337466E+02  0.66153333308E+02  0.60970224048E+02  0.91584054250E+02  0.41800000000E+01 0. -1.
        -11    1    4    4    0    0 -0.25803464318E+03 -0.17977589590E+03  0.43677886121E+03  0.53821652095E+03  0.00000000000E+00 0.  1.
         11    1    4    4    0    0 -0.88764002189E+02 -0.92663501620E+02  0.28802525808E+03  0.31531590812E+03  0.00000000000E+00 0. -1.
</event>
<event>
 8    1  0.7112384E-009  0.1012626E+03  0.7561462E-02  0.1277663E+00
         -2   -1    0    0    0  501 -0.00000000000E+00  0.00000000000E+00  0.35312572264E+03  0.35312572264E+03  0.00000000000E+00 0.  1.
          2   -1    0    0  501    0  0.00000000000E+00 -0.00000000000E+00 -0.44820058156E+02  0.44820058156E+02  0.00000000000E+00 0. -1.
         25    2    1    2    0    0 -0.20690320953E+02  0.50131973184E+02  0.11787249690E+03  0.18022762017E+03  0.12508703143E+03 0.  0.
         23    2    1    2    0    0  0.20690320953E+02 -0.50131973184E+02  0.19043316758E+03  0.21771816062E+03  0.90526802836E+02 0.  0.
          5    1    3    3  502    0  0.22110204981E+02 -0.11373656884E+02 -0.13745619240E+02  0.28716470596E+02  0.41800000000E+01 0. -1.
         -5    1    3    3    0  502 -0.42800525934E+02  0.61505630068E+02  0.13161811614E+03  0.15151114958E+03  0.41800000000E+01 0. -1.
        -11    1    4    4    0    0 -0.26469264011E+02 -0.48289438846E+02  0.12889615311E+03  0.14016672261E+03  0.00000000000E+00 0.  1.
         11    1    4    4    0    0  0.47159584964E+02 -0.18425343377E+01  0.61537014473E+02  0.77551438007E+02  0.00000000000E+00 0. -1.
</event>
<event>
 8    1  0.7112384E-009  0.1078049E+03  0.7561462E-02  0.1264690E+00
          1   -1    0    0  501    0  0.00000000000E+00  0.00000000000E+00  0.27737591783E+03  0.27737591783E+03  0.00000000000E+00 0. -1.
         -1   -1    0    0    0  501 -0.00000000000E+00 -0.00000000000E+00 -0.54807542163E+02  0.54807542163E+02  0.00000000000E+00 0.  1.
         25    2    1    2    0    0  0.93241471273E+01 -0.58693968689E+02  0.10621068701E+03  0.17452872724E+03  0.12509054687E+03 0.  0.
         23    2    1    2    0    0 -0.93241471273E+01  0.58693968689E+02  0.11635768866E+03  0.15765473275E+03  0.88226874417E+02 0.  0.
          5    1    3    3  502    0  0.26791275035E+02  0.17024461568E+02  0.89337166957E+02  0.94901035345E+02  0.41800000000E+01 0.  1.
         -5    1    3    3    0  502 -0.17467127907E+02 -0.75718430257E+02  0.16873520054E+02  0.79627691897E+02  0.41800000000E+01 0.  1.
        -11    1    4    4    0    0  0.10703211950E+02  0.77538867371E+02  0.78428539644E+02  0.11080555279E+03  0.00000000000E+00 0.  1.
         11    1    4    4    0    0 -0.20027359077E+02 -0.18844898682E+02  0.37929149013E+02  0.46849179959E+02  0.00000000000E+00 0. -1.
</event>
<event>
 8    1  0.7112384E-009  0.2183467E+03  0.7561462E-02  0.1135122E+00
         -1   -1    0    0    0  501 -0.00000000000E+00  0.00000000000E+00  0.31037417978E+02  0.31037417978E+02  0.00000000000E+00 0.  1.
          1   -1    0    0  501    0  0.00000000000E+00 -0.00000000000E+00 -0.16094086569E+04  0.16094086569E+04  0.00000000000E+00 0. -1.
         25    2    1    2    0    0  0.23106587012E+01  0.19250753355E+03 -0.78453208153E+03  0.81743657203E+03  0.12508985858E+03 0.  0.
         23    2    1    2    0    0 -0.23106587012E+01 -0.19250753355E+03 -0.79383915736E+03  0.82300950282E+03  0.10049648928E+03 0.  0.
          5    1    3    3  502    0 -0.53184607609E+02  0.71151482596E+02 -0.41776976518E+03  0.42713017344E+03  0.41800000000E+01 0.  1.
         -5    1    3    3    0  502  0.55495266311E+02  0.12135605095E+03 -0.36676231635E+03  0.39030639859E+03  0.41800000000E+01 0.  1.
        -11    1    4    4    0    0 -0.47235573570E+02 -0.77197448372E+02 -0.27052566114E+03  0.28526264876E+03  0.00000000000E+00 0.  1.
         11    1    4    4    0    0  0.44924914869E+02 -0.11531008517E+03 -0.52331349623E+03  0.53774685406E+03  0.00000000000E+00 0. -1.
</event>
<event>
 8    1  0.7112384E-009  0.1154658E+03  0.7561462E-02  0.1250770E+00
          1   -1    0    0  501    0  0.00000000000E+00  0.00000000000E+00  0.35628178406E+03  0.35628178406E+03  0.00000000000E+00 0. -1.
         -1   -1    0    0    0  501 -0.00000000000E+00 -0.00000000000E+00 -0.59217594935E+02  0.59217594935E+02  0.00000000000E+00 0.  1.
         25    2    1    2    0    0 -0.74575501459E+02 -0.56308261495E+02  0.19121204029E+03  0.24686459606E+03  0.12509180111E+03 0.  0.
         23    2    1    2    0    0  0.74575501459E+02  0.56308261495E+02  0.10585214883E+03  0.16863478293E+03  0.92200254185E+02 0.  0.
          5    1    3    3  502    0 -0.94167486282E+02 -0.42596026510E+02  0.19646049190E+03  0.22202732766E+03  0.41800000000E+01 0.  1.
         -5    1    3    3    0  502  0.19591984823E+02 -0.13712234985E+02 -0.52484516091E+01  0.24837268406E+02  0.41800000000E+01 0.  1.
        -11    1    4    4    0    0  0.46014939455E+02  0.58666380047E+02  0.18667342359E+02  0.76860838348E+02  0.00000000000E+00 0.  1.
         11    1    4    4    0    0  0.28560562004E+02 -0.23581185518E+01  0.87184806467E+02  0.91773944580E+02  0.00000000000E+00 0. -1.
</event>
<event>
 8    1  0.7112384E-009  0.9444597E+02  0.7561462E-02  0.1292429E+00
         -2   -1    0    0    0  501 -0.00000000000E+00  0.00000000000E+00  0.11123207996E+03  0.11123207996E+03  0.00000000000E+00 0.  1.
          2   -1    0    0  501    0  0.00000000000E+00 -0.00000000000E+00 -0.11255372554E+03  0.11255372554E+03  0.00000000000E+00 0. -1.
         25    2    1    2    0    0  0.28722970609E+02  0.19763532205E+01 -0.20279407797E+01  0.12837678234E+03  0.12509025017E+03 0.  0.
         23    2    1    2    0    0 -0.28722970609E+02 -0.19763532205E+01  0.70629520621E+00  0.95409023160E+02  0.90958605062E+02 0.  0.
          5    1    3    3  502    0  0.44828526196E+02  0.38691315740E+02  0.38866440354E+02  0.70955530161E+02  0.41800000000E+01 0. -1.
         -5    1    3    3    0  502 -0.16105555587E+02 -0.36714962520E+02 -0.40894381134E+02  0.57421252180E+02  0.41800000000E+01 0. -1.
        -11    1    4    4    0    0 -0.53474614461E+02 -0.21559110187E+02 -0.15812529792E+02  0.59785999383E+02  0.00000000000E+00 0. -1.
         11    1    4    4    0    0  0.24751643851E+02  0.19582756966E+02  0.16518824998E+02  0.35623023778E+02  0.00000000000E+00 0.  1.
</event>
<event>
 8    1  0.7112384E-009  0.1111075E+03  0.7561462E-02  0.1258533E+00
          2   -1    0    0  501    0  0.00000000000E+00  0.00000000000E+00  0.92459635201E+03  0.92459635201E+03  0.00000000000E+00 0. -1.
         -2   -1    0    0    0  501 -0.00000000000E+00 -0.00000000000E+00 -0.33927668589E+02  0.33927668589E+02  0.00000000000E+00 0.  1.
         25    2    1    2    0    0 -0.64799888588E+02  0.56597012273E+02  0.77005969258E+03  0.78488327683E+03  0.12509029041E+03 0.  0.
         23    2    1    2    0    0  0.64799888588E+02 -0.56597012273E+02  0.12060899084E+03  0.17364074376E+03  0.90566726034E+02 0.  0.
          5    1    3    3  502    0 -0.56915214488E+02 -0.17804627774E+01  0.12853050348E+03  0.14064165248E+03  0.41800000000E+01 0. -1.
         -5    1    3    3    0  502 -0.78846741005E+01  0.58377475050E+02  0.64152918910E+03  0.64424162435E+03  0.41800000000E+01 0. -1.
        -11    1    4    4    0    0  0.74313018815E+00 -0.39845113414E+02  0.46661103713E+01  0.40124280573E+02  0.00000000000E+00 0.  1.
         11    1    4    4    0    0  0.64056758400E+02 -0.16751898859E+02  0.11594288047E+03  0.13351646319E+03  0.00000000000E+00 0. -1.
</event>
<event>
 8    1  0.7112384E-009  0.1171279E+03  0.7561462E-02  0.1247912E+00
          3   -1    0    0  501    0  0.00000000000E+00  0.00000000000E+00  0.42286679939E+02  0.42286679939E+02  0.00000000000E+00 0. -1.
         -3   -1    0    0    0  501 -0.00000000000E+00 -0.00000000000E+00 -0.41581126290E+03  0.41581126290E+03  0.00000000000E+00 0.  1.
         25    2    1    2    0    0 -0.63403016493E+02 -0.34049764284E+02 -0.24939952265E+03  0.28814493309E+03  0.12509217250E+03 0.  0.
         23    2    1    2    0    0  0.63403016493E+02  0.34049764284E+02 -0.12412506031E+03  0.16995300975E+03  0.91091525274E+02 0.  0.
          5    1    3    3  502    0  0.63863031083E+01  0.25725422559E+02 -0.53850151479E+01  0.27368833029E+02  0.41800000000E+01 0. -1.
         -5    1    3    3    0  502 -0.69789319602E+02 -0.59775186843E+02 -0.24401450750E+03  0.26077610006E+03  0.41800000000E+01 0. -1.
        -11    1    4    4    0    0 -0.23199039135E+02  0.11778252529E+02 -0.35895883229E+02  0.44333250301E+02  0.00000000000E+00 0.  1.
         11    1    4    4    0    0  0.86602055629E+02  0.22271511755E+02 -0.88229177085E+02  0.12561975945E+03  0.00000000000E+00 0. -1.
</event>
<event>
 8    1  0.7112384E-009  0.9854856E+02  0.7561462E-02  0.1283378E+00
         -3   -1    0    0    0  501 -0.00000000000E+00  0.00000000000E+00  0.89700171717E+03  0.89700171717E+03  0.00000000000E+00 0.  1.
          3   -1    0    0  501    0  0.00000000000E+00 -0.00000000000E+00 -0.13305311440E+02  0.13305311440E+02  0.00000000000E+00 0. -1.
         25    2    1    2    0    0  0.16664837571E+01 -0.10960720519E+02  0.49154127453E+03  0.50732947396E+03  0.12508979183E+03 0.  0.
         23    2    1    2    0    0 -0.16664837571E+01  0.10960720519E+02  0.39215513120E+03  0.40297755465E+03  0.92099663748E+02 0.  0.
          5    1    3    3  502    0 -0.16701548494E+02 -0.55671877503E+02  0.12893927303E+03  0.14149596530E+03  0.41800000000E+01 0. -1.
         -5    1    3    3    0  502  0.18368032251E+02  0.44711156983E+02  0.36260200149E+03  0.36583350866E+03  0.41800000000E+01 0. -1.
        -11    1    4    4    0    0 -0.45335600694E+01 -0.39502496552E+02  0.21965438570E+03  0.22322421365E+03  0.00000000000E+00 0.  1.
         11    1    4    4    0    0  0.28670763123E+01  0.50463217072E+02  0.17250074550E+03  0.17975334100E+03  0.00000000000E+00 0. -1.
</event>
<event>
 8    1  0.7112384E-009  0.9662327E+02  0.7561462E-02  0.1287561E+00
         -2   -1    0    0    0  501 -0.00000000000E+00  0.00000000000E+00  0.22402632076E+02  0.22402632076E+02  0.00000000000E+00 0.  1.
          2   -1    0    0  501    0  0.00000000000E+00 -0.00000000000E+00 -0.82439245323E+03  0.82439245323E+03  0.00000000000E+00 0. -1.
         25    2    1    2    0    0  0.15239278172E+02  0.88341878579E+01 -0.68966216844E+03  0.70113728721E+03  0.12509720405E+03 0.  0.
         23    2    1    2    0    0 -0.15239278172E+02 -0.88341878579E+01 -0.11232765272E+03  0.14565779810E+03  0.91040727746E+02 0.  0.
          5    1    3    3  502    0  0.67027089459E+02  0.16894705501E+02 -0.29675681971E+03  0.30472962481E+03  0.41800000000E+01 0.  1.
         -5    1    3    3    0  502 -0.51787811287E+02 -0.80605176429E+01 -0.39290534873E+03  0.39640766239E+03  0.41800000000E+01 0.  1.
        -11    1    4    4    0    0  0.10013904839E+02  0.26305082278E+02 -0.32786778273E+01  0.28336996526E+02  0.00000000000E+00 0.  1.
         11    1    4    4    0    0 -0.25253183011E+02 -0.35139270136E+02 -0.10904897489E+03  0.11732080158E+03  0.00000000000E+00 0. -1.
</event>
<event>
 8    1  0.7112384E-009  0.1278429E+03  0.7561462E-02  0.1230692E+00
         -2   -1    0    0    0  501 -0.00000000000E+00  0.00000000000E+00  0.79828366555E+02  0.79828366555E+02  0.00000000000E+00 0.  1.
          2   -1    0    0  501    0  0.00000000000E+00 -0.00000000000E+00 -0.33374530093E+03  0.33374530093E+03  0.00000000000E+00 0. -1.
         25    2    1    2    0    0  0.74914505142E+02 -0.91582999861E+02 -0.10006040942E+03  0.19914692448E+03  0.12509109902E+03 0.  0.
         23    2    1    2    0    0 -0.74914505142E+02  0.91582999861E+02 -0.15385652496E+03  0.21442674300E+03  0.91144768899E+02 0.  0.
          5    1    3    3  502    0  0.30811468607E+00 -0.53141973558E+02  0.16184656930E+02  0.55709781980E+02  0.41800000000E+01 0.  1.
         -5    1    3    3    0  502  0.74606390456E+02 -0.38441026303E+02 -0.11624506635E+03  0.14343714251E+03  0.41800000000E+01 0.  1.
        -11    1    4    4    0    0 -0.34550631240E+02  0.40243394764E+02 -0.67407238778E+01  0.53466945860E+02  0.00000000000E+00 0.  1.
         11    1    4    4    0    0 -0.40363873902E+02  0.51339605096E+02 -0.14711580108E+03  0.16095979714E+03  0.00000000000E+00 0. -1.
</event>
<event>
 8    1  0.7112384E-009  0.9048859E+02  0.7561462E-02  0.1301673E+00
          2   -1    0    0  501    0  0.00000000000E+00  0.00000000000E+00  0.19289174013E+03  0.19289174013E+03  0.00000000000E+00 0. -1.
         -2   -1    0    0    0  501 -0.00000000000E+00 -0.00000000000E+00 -0.92781132403E+02  0.92781132403E+02  0.00000000000E+00 0.  1.
         25    2    1    2    0    0 -0.16184219132E+02  0.35437735651E+02 -0.17055033842E+02  0.13213572699E+03  0.12510481250E+03 0.  0.
         23    2    1    2    0    0  0.16184219132E+02 -0.35437735651E+02  0.11716564157E+03  0.15353714555E+03  0.91258454083E+02 0.  0.
          5    1    3    3  502    0 -0.50825378347E+02 -0.19110382070E+02 -0.35252605734E+02  0.64874065682E+02  0.41800000000E+01 0. -1.
         -5    1    3    3    0  502  0.34641159215E+02  0.54548117720E+02  0.18197571893E+02  0.67261661304E+02  0.41800000000E+01 0. -1.
        -11    1    4    4    0    0  0.32887719264E+02 -0.29050280908E+02  0.12612129240E+03  0.13353689114E+03  0.00000000000E+00 0. -1.
         11    1    4    4    0    0 -0.16703500132E+02 -0.63874547430E+01 -0.89556508256E+01  0.20000254410E+02  0.00000000000E+00 0.  1.
</event>
<event>
 8    1  0.7112384E-009  0.1210280E+03  0.7561462E-02  0.1241411E+00
         -2   -1    0    0    0  501 -0.00000000000E+00  0.00000000000E+00  0.36883517641E+02  0.36883517641E+02  0.00000000000E+00 0.  1.
          2   -1    0    0  501    0  0.00000000000E+00 -0.00000000000E+00 -0.67948244320E+03  0.67948244320E+03  0.00000000000E+00 0. -1.
         25    2    1    2    0    0  0.36579548450E+02 -0.42344032090E+02 -0.11659577581E+03  0.17993377484E+03  0.12510199029E+03 0.  0.
         23    2    1    2    0    0 -0.36579548450E+02  0.42344032090E+02 -0.52600314975E+03  0.53643218600E+03  0.89157704134E+02 0.  0.
          5    1    3    3  502    0 -0.39743576905E+02 -0.45168277410E+02 -0.46065018789E+02  0.75889284787E+02  0.41800000000E+01 0.  1.
         -5    1    3    3    0  502  0.76323125356E+02  0.28242453207E+01 -0.70530757019E+02  0.10404449006E+03  0.41800000000E+01 0.  1.
        -11    1    4    4    0    0 -0.61850977798E+02  0.49244452896E+02 -0.39741643503E+03  0.40520412440E+03  0.00000000000E+00 0. -1.
         11    1    4    4    0    0  0.25271429348E+02 -0.69004208065E+01 -0.12858671472E+03  0.13122806160E+03  0.00000000000E+00 0.  1.
</event>
<event>
 8    1  0.7112384E-009  0.9109770E+02  0.7561462E-02  0.1300215E+00
          2   -1    0    0  501    0  0.00000000000E+00  0.00000000000E+00  0.57461714107E+03  0.57461714107E+03  0.00000000000E+00 0. -1.
         -2   -1    0    0    0  501 -0.00000000000E+00 -0.00000000000E+00 -0.28146660091E+02  0.28146660091E+02  0.00000000000E+00 0.  1.
         25    2    1    2    0    0 -0.29752021104E+02  0.38908667598E+02  0.40116123300E+03  0.42305712762E+03  0.12509169114E+03 0.  0.
         23    2    1    2    0    0  0.29752021104E+02 -0.38908667598E+02  0.14530924797E+03  0.17970667354E+03  0.93705089478E+02 0.  0.
          5    1    3    3  502    0 -0.37078242085E+01 -0.34218852907E+02  0.37064052647E+02  0.50753268399E+02  0.41800000000E+01 0.  1.
         -5    1    3    3    0  502 -0.26044196895E+02  0.73127520505E+02  0.36409718036E+03  0.37230385922E+03  0.41800000000E+01 0.  1.
        -11    1    4    4    0    0  0.26084459729E+02  0.42857202101E+01 -0.16514679726E+01  0.26485727922E+02  0.00000000000E+00 0.  1.
         11    1    4    4    0    0  0.36675613745E+01 -0.43194387809E+02  0.14696071595E+03  0.15322094562E+03  0.00000000000E+00 0. -1.
</event>
<event>
 8    1  0.7112384E-009  0.6812089E+02  0.7561462E-02  0.1366602E+00
          1   -1    0    0  501    0  0.00000000000E+00  0.00000000000E+00  0.48740469584E+02  0.48740469584E+02  0.00000000000E+00 0. -1.
         -1   -1    0    0    0  501 -0.00000000000E+00 -0.00000000000E+00 -0.32724605586E+03  0.32724605586E+03  0.00000000000E+00 0.  1.
         25    2    1    2    0    0 -0.35290178836E+02  0.19943238423E+01 -0.22712499784E+03  0.26170136257E+03  0.12510980968E+03 0.  0.
         23    2    1    2    0    0  0.35290178836E+02 -0.19943238423E+01 -0.51380588438E+02  0.11428516287E+03  0.95769303718E+02 0.  0.
          5    1    3    3  502    0  0.59714058579E+01 -0.13619365484E+02 -0.21527675054E+03  0.21583024933E+03  0.41800000000E+01 0. -1.
         -5    1    3    3    0  502 -0.41261584693E+02  0.15613689327E+02 -0.11848247300E+02  0.45871113240E+02  0.41800000000E+01 0. -1.
        -11    1    4    4    0    0 -0.19899068053E+02  0.58379449713E+01 -0.54644742480E+02  0.58447432720E+02  0.00000000000E+00 0.  1.
         11    1    4    4    0    0  0.55189246889E+02 -0.78322688136E+01  0.32641540423E+01  0.55837730152E+02  0.00000000000E+00 0. -1.
</event>
<event>
 8    1  0.7112384E-009  0.1455446E+03  0.7561462E-02  0.1206057E+00
          1   -1    0    0  501    0  0.00000000000E+00  0.00000000000E+00  0.22263787873E+03  0.22263787873E+03  0.00000000000E+00 0. -1.
         -1   -1    0    0    0  501 -0.00000000000E+00 -0.00000000000E+00 -0.11958187646E+03  0.11958187646E+03  0.00000000000E+00 0.  1.
         25    2    1    2    0    0  0.31110537634E+02  0.98345758026E+02  0.12265944396E+03  0.20330481699E+03  0.12509098987E+03 0.  0.
         23    2    1    2    0    0 -0.31110537634E+02 -0.98345758026E+02 -0.19603441686E+02  0.13891493820E+03  0.90957745437E+02 0.  0.
          5    1    3    3  502    0  0.72444256598E+02  0.88618217252E+02  0.65392984628E+02  0.13189038472E+03  0.41800000000E+01 0.  1.
         -5    1    3    3    0  502 -0.41333718964E+02  0.97275407744E+01  0.57266459328E+02  0.71414432273E+02  0.41800000000E+01 0.  1.
        -11    1    4    4    0    0 -0.38498532519E+02 -0.11195980157E+03 -0.27474870179E+02  0.12154012780E+03  0.00000000000E+00 0.  1.
         11    1    4    4    0    0  0.73879948848E+01  0.13614043542E+02  0.78714284932E+01  0.17374810402E+02  0.00000000000E+00 0. -1.
</event>
<event>
 8    1  0.7112384E-009  0.1019415E+03  0.7561462E-02  0.1276265E+00
          2   -1    0    0  501    0  0.00000000000E+00  0.00000000000E+00  0.55780933681E+03  0.55780933681E+03  0.00000000000E+00 0. -1.
         -2   -1    0    0    0  501 -0.00000000000E+00 -0.00000000000E+00 -0.32830537090E+02  0.32830537090E+02  0.00000000000E+00 0.  1.
         25    2    1    2    0    0 -0.99255529699E+01  0.62685722095E+02  0.19399084434E+03  0.23939031867E+03  0.12508901081E+03 0.  0.
         23    2    1    2    0    0  0.99255529699E+01 -0.62685722095E+02  0.33098795537E+03  0.35124955523E+03  0.98970738553E+02 0.  0.
          5    1    3    3  502    0 -0.24942793707E+02 -0.36930044148E+01  0.16212459163E+03  0.16412689253E+03  0.41800000000E+01 0.  1.
         -5    1    3    3    0  502  0.15017240737E+02  0.66378726510E+02  0.31866252713E+02  0.75263426140E+02  0.41800000000E+01 0.  1.
        -11    1    4    4    0    0 -0.54464095868E+01  0.22718940431E+02  0.13362277836E+03  0.13564977157E+03  0.00000000000E+00 0. -1.
         11    1    4    4    0    0  0.15371962557E+02 -0.85404662526E+02  0.19736517702E+03  0.21559978366E+03  0.00000000000E+00 0.  1.
</event>
<event>
 8    1  0.7112384E-009  0.1372591E+03  0.7561462E-02  0.1217065E+00
          2   -1    0    0  501    0  0.00000000000E+00  0.00000000000E+00  0.53595847323E+03  0.53595847323E+03  0.00000000000E+00 0. -1.
         -2   -1    0    0    0  501 -0.00000000000E+00 -0.00000000000E+00 -0.43494287660E+02  0.43494287660E+02  0.00000000000E+00 0.  1.
         25    2    1    2    0    0 -0.85306758486E+02  0.66136600173E+02  0.31987847139E+03  0.36003072027E+03  0.12509432504E+03 0.  0.
         23    2    1    2    0    0  0.85306758486E+02 -0.66136600173E+02  0.17258571418E+03  0.21942204062E+03  0.81907937605E+02 0.  0.
          5    1    3    3  502    0  0.29529154950E+02  0.29767221183E+02  0.57445680980E+02  0.71242803933E+02  0.41800000000E+01 0. -1.
         -5    1    3    3    0  502 -0.11483591344E+03  0.36369378990E+02  0.26243279041E+03  0.28878791634E+03  0.41800000000E+01 0. -1.
        -11    1    4    4    0    0  0.23470546668E+02 -0.36216108516E+02  0.13368356412E+03  0.14047693188E+03  0.00000000000E+00 0. -1.
         11    1    4    4    0    0  0.61836211818E+02 -0.29920491656E+02  0.38902150067E+02  0.78945108732E+02  0.00000000000E+00 0.  1.
</event>
<event>
 8    1  0.7112384E-009  0.3999373E+03  0.7561462E-02  0.1043801E+00
         -2   -1    0    0    0  501 -0.00000000000E+00  0.00000000000E+00  0.15368927722E+04  0.15368927722E+04  0.00000000000E+00 0.  1.
          2   -1    0    0  501    0  0.00000000000E+00 -0.00000000000E+00 -0.11622382520E+03  0.11622382520E+03  0.00000000000E+00 0. -1.
         25    2    1    2    0    0  0.37641050964E+03 -0.82157654942E+02  0.97557072375E+03  0.10563242072E+04  0.12509133306E+03 0.  0.
         23    2    1    2    0    0 -0.37641050964E+03  0.82157654942E+02  0.44509822321E+03  0.59679239018E+03  0.98050888042E+02 0.  0.
          5    1    3    3  502    0  0.19634067938E+03  0.17903414711E+02  0.42710218627E+03  0.47042953198E+03  0.41800000000E+01 0.  1.
         -5    1    3    3    0  502  0.18006983026E+03 -0.10006106965E+03  0.54846853748E+03  0.58589467520E+03  0.41800000000E+01 0.  1.
        -11    1    4    4    0    0 -0.31560353216E+03  0.30922149203E+02  0.37155047744E+03  0.48847878778E+03  0.00000000000E+00 0.  1.
         11    1    4    4    0    0 -0.60806977476E+02  0.51235505739E+02  0.73547745766E+02  0.10831360240E+03  0.00000000000E+00 0. -1.
</event>
<event>
 8    1  0.7112384E-009  0.1124132E+03  0.7561462E-02  0.1256165E+00
         -4   -1    0    0    0  501 -0.00000000000E+00  0.00000000000E+00  0.13243869987E+03  0.13243869987E+03  0.00000000000E+00 0.  1.
          4   -1    0    0  501    0  0.00000000000E+00 -0.00000000000E+00 -0.11454203963E+03  0.11454203963E+03  0.00000000000E+00 0. -1.
         25    2    1    2    0    0  0.15772684511E+02  0.36009942339E+02 -0.32395892350E+02  0.13507534923E+03  0.12510140928E+03 0.  0.
         23    2    1    2    0    0 -0.15772684511E+02 -0.36009942339E+02  0.50292552592E+02  0.11190539027E+03  0.91912904431E+02 0.  0.
          5    1    3    3  502    0 -0.23641346642E+02  0.71158941994E+02 -0.45751474499E+01  0.75239036882E+02  0.41800000000E+01 0.  1.
         -5    1    3    3    0  502  0.39414031154E+02 -0.35148999655E+02 -0.27820744900E+02  0.59836312347E+02  0.41800000000E+01 0.  1.
        -11    1    4    4    0    0 -0.22136034689E+02  0.26152986850E+02  0.31780672848E+02  0.46733220728E+02  0.00000000000E+00 0. -1.
         11    1    4    4    0    0  0.63633501779E+01 -0.62162929189E+02  0.18511879744E+02  0.65172169540E+02  0.00000000000E+00 0.  1.
</event>
<event>
 8    1  0.7112384E-009  0.1040463E+03  0.7561462E-02  0.1272010E+00
         -4   -1    0    0    0  501 -0.00000000000E+00  0.00000000000E+00  0.10140660776E+03  0.10140660776E+03  0.00000000000E+00 0.  1.
          4   -1    0    0  501    0  0.00000000000E+00 -0.00000000000E+00 -0.15464965511E+03  0.15464965511E+03  0.00000000000E+00 0. -1.
         25    2    1    2    0    0 -0.46151003563E+02 -0.38130938941E+02 -0.11020014830E+02  0.13911333369E+03  0.12508874949E+03 0.  0.
         23    2    1    2    0    0  0.46151003563E+02  0.38130938941E+02 -0.42223032520E+02  0.11694292919E+03  0.91153609794E+02 0.  0.
          5    1    3    3  502    0 -0.46889227205E+02  0.31572867983E+02  0.23321921212E+02  0.61292985158E+02  0.41800000000E+01 0.  1.
         -5    1    3    3    0  502  0.73822364226E+00 -0.69703806924E+02 -0.34341936042E+02  0.77820348527E+02  0.41800000000E+01 0.  1.
        -11    1    4    4    0    0  0.54004486116E+02  0.45643152938E+02  0.26636909430E+01  0.70759290416E+02  0.00000000000E+00 0.  1.
         11    1    4    4    0    0 -0.78534825532E+01 -0.75122139975E+01 -0.44886723463E+02  0.46183638776E+02  0.00000000000E+00 0. -1.
</event>
<event>
 8    1  0.7112384E-009  0.1149546E+03  0.7561462E-02  0.1251660E+00
          2   -1    0    0  501    0  0.00000000000E+00  0.00000000000E+00  0.72203965841E+02  0.72203965841E+02  0.00000000000E+00 0.  1.
         -2   -1    0    0    0  501 -0.00000000000E+00 -0.00000000000E+00 -0.26713366966E+03  0.26713366966E+03  0.00000000000E+00 0. -1.
         25    2    1    2    0    0 -0.43078113552E+02 -0.51153406511E+02 -0.41907836023E+02  0.14790317770E+03  0.12508672347E+03 0.  0.
         23    2    1    2    0    0  0.43078113552E+02  0.51153406511E+02 -0.15302186780E+03  0.19143445780E+03  0.93589875223E+02 0.  0.
          5    1    3    3  502    0 -0.23048764841E+02 -0.80069515995E+02  0.11087460137E+02  0.84159236716E+02  0.41800000000E+01 0.  1.
         -5    1    3    3    0  502 -0.20029348711E+02  0.28916109484E+02 -0.52995296160E+02  0.63743940987E+02  0.41800000000E+01 0.  1.
        -11    1    4    4    0    0 -0.12285229163E+02  0.54237412898E+02 -0.51692912117E+02  0.75926154760E+02  0.00000000000E+00 0. -1.
         11    1    4    4    0    0  0.55363342716E+02 -0.30840063870E+01 -0.10132895568E+03  0.11550830304E+03  0.00000000000E+00 0.  1.
</event>
<event>
 8    1  0.7112384E-009  0.8732768E+02  0.7561462E-02  0.1309455E+00
          2   -1    0    0  501    0  0.00000000000E+00  0.00000000000E+00  0.99740739935E+03  0.99740739935E+03  0.00000000000E+00 0. -1.
         -2   -1    0    0    0  501 -0.00000000000E+00 -0.00000000000E+00 -0.15108323465E+02  0.15108323465E+02  0.00000000000E+00 0.  1.
         25    2    1    2    0    0  0.85143326068E+01 -0.35367737607E+02  0.73123591354E+03  0.74274873410E+03  0.12508537096E+03 0.  0.
         23    2    1    2    0    0 -0.85143326068E+01  0.35367737607E+02  0.25106316235E+03  0.26976698872E+03  0.91750454996E+02 0.  0.
          5    1    3    3  502    0  0.14619032170E+02  0.22898140205E+02  0.57783372906E+03  0.57848710596E+03  0.41800000000E+01 0. -1.
         -5    1    3    3    0  502 -0.61046995633E+01 -0.58265877811E+02  0.15340218448E+03  0.16426162813E+03  0.41800000000E+01 0. -1.
        -11    1    4    4    0    0  0.12208412732E+02  0.57109263501E+02  0.10048790330E+03  0.11622535019E+03  0.00000000000E+00 0.  1.
         11    1    4    4    0    0 -0.20722745339E+02 -0.21741525894E+02  0.15057525906E+03  0.15354163853E+03  0.00000000000E+00 0. -1.
</event>
<event>
 8    1  0.7112384E-009  0.1125114E+03  0.7561462E-02  0.1255989E+00
         -3   -1    0    0    0  501 -0.00000000000E+00  0.00000000000E+00  0.21387833816E+03  0.21387833816E+03  0.00000000000E+00 0.  1.
          3   -1    0    0  501    0  0.00000000000E+00 -0.00000000000E+00 -0.73709106608E+02  0.73709106608E+02  0.00000000000E+00 0. -1.
         25    2    1    2    0    0 -0.28946559985E+02 -0.54411324395E+01  0.14103745022E+03  0.19080549263E+03  0.12509062473E+03 0.  0.
         23    2    1    2    0    0  0.28946559985E+02  0.54411324395E+01 -0.86821866639E+00  0.96781952140E+02  0.92187218199E+02 0.  0.
          5    1    3    3  502    0 -0.33661108748E+02 -0.62362640013E+02  0.83968176721E+02  0.10995588303E+03  0.41800000000E+01 0. -1.
         -5    1    3    3    0  502  0.47145487629E+01  0.56921507573E+02  0.57069273500E+02  0.80849609598E+02  0.41800000000E+01 0. -1.
        -11    1    4    4    0    0  0.62759952544E+02  0.48099275307E+01 -0.13710799426E+01  0.62958930314E+02  0.00000000000E+00 0.  1.
         11    1    4    4    0    0 -0.33813392559E+02  0.63120490889E+00  0.50286127621E+00  0.33823021826E+02  0.00000000000E+00 0. -1.
</event>
<event>
 8    1  0.7112384E-009  0.1506052E+03  0.7561462E-02  0.1199731E+00
         -2   -1    0    0    0  501 -0.00000000000E+00  0.00000000000E+00  0.75216258860E+02  0.75216258860E+02  0.00000000000E+00 0.  1.
          2   -1    0    0  501    0  0.00000000000E+00 -0.00000000000E+00 -0.48069841151E+03  0.48069841151E+03  0.00000000000E+00 0. -1.
         25    2    1    2    0    0 -0.72285212816E+02  0.10858052933E+03 -0.33231821025E+03  0.37828323602E+03  0.12509168817E+03 0.  0.
         23    2    1    2    0    0  0.72285212816E+02 -0.10858052933E+03 -0.73163942398E+02  0.17763143435E+03  0.95838826472E+02 0.  0.
          5    1    3    3  502    0 -0.14475472108E+02  0.81355213318E+02 -0.70356014893E+02  0.10860778636E+03  0.41800000000E+01 0.  1.
         -5    1    3    3    0  502 -0.57809740708E+02  0.27225316012E+02 -0.26196219535E+03  0.26967544966E+03  0.41800000000E+01 0.  1.
        -11    1    4    4    0    0  0.43001909363E+02 -0.10775592911E+01  0.22741394009E+01  0.43075480879E+02  0.00000000000E+00 0.  1.
         11    1    4    4    0    0  0.29283303453E+02 -0.10750297004E+03 -0.75438081799E+02  0.13455595347E+03  0.00000000000E+00 0. -1.
</event>
<event>
 8    1  0.7112384E-009  0.1093039E+03  0.7561462E-02  0.1261864E+00
         -1   -1    0    0    0  501 -0.00000000000E+00  0.00000000000E+00  0.37080197295E+02  0.37080197295E+02  0.00000000000E+00 0.  1.
          1   -1    0    0  501    0  0.00000000000E+00 -0.00000000000E+00 -0.74463083874E+03  0.74463083874E+03  0.00000000000E+00 0. -1.
         25    2    1    2    0    0 -0.78637218471E+02  0.25159151464E+02 -0.59664153271E+03  0.61517912030E+03  0.12508971366E+03 0.  0.
         23    2    1    2    0    0  0.78637218471E+02 -0.25159151464E+02 -0.11090910874E+03  0.16653191574E+03  0.92818390030E+02 0.  0.
          5    1    3    3  502    0 -0.10315561384E+03  0.23475226587E+02 -0.31254492367E+03  0.32999086145E+03  0.41800000000E+01 0. -1.
         -5    1    3    3    0  502  0.24518395370E+02  0.16839248765E+01 -0.28409660904E+03  0.28518825885E+03  0.41800000000E+01 0. -1.
        -11    1    4    4    0    0  0.50143315669E+01 -0.12010680102E+02  0.15140287993E+02  0.19965677501E+02  0.00000000000E+00 0.  1.
         11    1    4    4    0    0  0.73622886904E+02 -0.13148471362E+02 -0.12604939673E+03  0.14656623824E+03  0.00000000000E+00 0. -1.
</event>
<event>
 8    1  0.7112384E-009  0.2424304E+03  0.7561462E-02  0.1118184E+00
          3   -1    0    0  501    0  0.00000000000E+00  0.00000000000E+00  0.27708607712E+03  0.27708607712E+03  0.00000000000E+00 0. -1.
         -3   -1    0    0    0  501 -0.00000000000E+00 -0.00000000000E+00 -0.23840088341E+03  0.23840088341E+03  0.00000000000E+00 0.  1.
         25    2    1    2    0    0  0.68199317826E+02  0.22122319463E+03 -0.81302945301E+01  0.26326085730E+03  0.12509727616E+03 0.  0.
         23    2    1    2    0    0 -0.68199317826E+02 -0.22122319463E+03  0.46815488240E+02  0.25222610323E+03  0.88518181273E+02 0.  0.
          5    1    3    3  502    0  0.51378178244E+02  0.21257842882E+03  0.29713924104E+02  0.22074803574E+03  0.41800000000E+01 0. -1.
         -5    1    3    3    0  502  0.16821139582E+02  0.86447658103E+01 -0.37844218634E+02  0.42512821557E+02  0.41800000000E+01 0. -1.
        -11    1    4    4    0    0 -0.88189852090E+02 -0.16513330613E+03  0.25282261367E+02  0.18890646242E+03  0.00000000000E+00 0.  1.
         11    1    4    4    0    0  0.19990534264E+02 -0.56089888503E+02  0.21533226872E+02  0.63319640808E+02  0.00000000000E+00 0. -1.
</event>
<event>
 8    1  0.7112384E-009  0.1137290E+03  0.7561462E-02  0.1253816E+00
         -1   -1    0    0    0  501 -0.00000000000E+00  0.00000000000E+00  0.57499592130E+03  0.57499592130E+03  0.00000000000E+00 0.  1.
          1   -1    0    0  501    0  0.00000000000E+00 -0.00000000000E+00 -0.46635853735E+02  0.46635853735E+02  0.00000000000E+00 0. -1.
         25    2    1    2    0    0  0.49440608549E+01 -0.96017129321E+02  0.42733519785E+03  0.45552803521E+03  0.12508671665E+03 0.  0.
         23    2    1    2    0    0 -0.49440608549E+01  0.96017129321E+02  0.10102486972E+03  0.16610373983E+03  0.90225801308E+02 0.  0.
          5    1    3    3  502    0  0.64548942171E+01  0.67219595832E+01  0.25239495521E+03  0.25260153645E+03  0.41800000000E+01 0.  1.
         -5    1    3    3    0  502 -0.15108333622E+01 -0.10273908890E+03  0.17494024264E+03  0.20292649876E+03  0.41800000000E+01 0.  1.
        -11    1    4    4    0    0 -0.31854387720E+02  0.32898361619E+02  0.83583442000E+02  0.95305802503E+02  0.00000000000E+00 0. -1.
         11    1    4    4    0    0  0.26910326865E+02  0.63118767703E+02  0.17441427718E+02  0.70797937322E+02  0.00000000000E+00 0.  1.
</event>
<event>
 8    1  0.7112384E-009  0.5405804E+02  0.7561462E-02  0.1424607E+00
         -4   -1    0    0    0  501 -0.00000000000E+00  0.00000000000E+00  0.26400513292E+02  0.26400513292E+02  0.00000000000E+00 0.  1.
          4   -1    0    0  501    0  0.00000000000E+00 -0.00000000000E+00 -0.46779346151E+03  0.46779346151E+03  0.00000000000E+00 0. -1.
         25    2    1    2    0    0  0.37091741295E+01  0.10619940968E+01 -0.17235264330E+03  0.21300095355E+03  0.12509630992E+03 0.  0.
         23    2    1    2    0    0 -0.37091741295E+01 -0.10619940968E+01 -0.26904030492E+03  0.28119302125E+03  0.81681966970E+02 0.  0.
          5    1    3    3  502    0  0.14505209656E+02  0.32168460182E+01  0.17184563668E+02  0.23098286385E+02  0.41800000000E+01 0. -1.
         -5    1    3    3    0  502 -0.10796035526E+02 -0.21548519214E+01 -0.18953720697E+03  0.18990266716E+03  0.41800000000E+01 0. -1.
        -11    1    4    4    0    0 -0.41911825157E+02  0.50584964770E+01 -0.11985647297E+03  0.12707385091E+03  0.00000000000E+00 0. -1.
         11    1    4    4    0    0  0.38202651028E+02 -0.61204905738E+01 -0.14918383195E+03  0.15411917034E+03  0.00000000000E+00 0.  1.
</event>
<event>
 8    1  0.7112384E-009  0.9989345E+02  0.7561462E-02  0.1280520E+00
         -2   -1    0    0    0  501 -0.00000000000E+00  0.00000000000E+00  0.23893718073E+03  0.23893718073E+03  0.00000000000E+00 0.  1.
          2   -1    0    0  501    0  0.00000000000E+00 -0.00000000000E+00 -0.69917085945E+02  0.69917085945E+02  0.00000000000E+00 0. -1.
         25    2    1    2    0    0 -0.38607909175E+00 -0.45708821345E+02  0.28230171025E+02  0.13613841868E+03  0.12508909256E+03 0.  0.
         23    2    1    2    0    0  0.38607909175E+00  0.45708821345E+02  0.14078992376E+03  0.17271584800E+03  0.88991663161E+02 0.  0.
          5    1    3    3  502    0 -0.47383650882E+02 -0.56416820815E+02  0.43179548719E+02  0.85498619108E+02  0.41800000000E+01 0. -1.
         -5    1    3    3    0  502  0.46997571790E+02  0.10707999470E+02 -0.14949377694E+02  0.50639799568E+02  0.41800000000E+01 0. -1.
        -11    1    4    4    0    0  0.30072515858E+02  0.34774104715E+02  0.24288645011E+02  0.51995507934E+02  0.00000000000E+00 0. -1.
         11    1    4    4    0    0 -0.29686436766E+02  0.10934716629E+02  0.11650127875E+03  0.12072034007E+03  0.00000000000E+00 0.  1.
</event>
<event>
 8    1  0.7112384E-009  0.1939592E+03  0.7561462E-02  0.1154938E+00
         -1   -1    0    0    0  501 -0.00000000000E+00  0.00000000000E+00  0.10093066547E+03  0.10093066547E+03  0.00000000000E+00 0.  1.
          1   -1    0    0  501    0  0.00000000000E+00 -0.00000000000E+00 -0.49028006299E+03  0.49028006299E+03  0.00000000000E+00 0. -1.
         25    2    1    2    0    0 -0.95437427719E+02  0.16709019262E+03 -0.17170379755E+03  0.28662969343E+03  0.12508777711E+03 0.  0.
         23    2    1    2    0    0  0.95437427719E+02 -0.16709019262E+03 -0.21764559997E+03  0.30458103503E+03  0.91501719304E+02 0.  0.
          5    1    3    3  502    0 -0.11466838473E+02  0.85385662301E+01  0.19407290790E+02  0.24464481063E+02  0.41800000000E+01 0. -1.
         -5    1    3    3    0  502 -0.83970589246E+02  0.15855162639E+03 -0.19111108834E+03  0.26216521237E+03  0.41800000000E+01 0. -1.
        -11    1    4    4    0    0  0.65990852951E+02 -0.13329164498E+03 -0.10144790221E+03  0.18003647452E+03  0.00000000000E+00 0.  1.
         11    1    4    4    0    0  0.29446574769E+02 -0.33798547633E+02 -0.11619769776E+03  0.12454456051E+03  0.00000000000E+00 0. -1.
</event>
<event>
 8    1  0.7112384E-009  0.6781811E+02  0.7561462E-02  0.1367674E+00
          1   -1    0    0  501    0  0.00000000000E+00  0.00000000000E+00  0.54623550697E+03  0.54623550697E+03  0.00000000000E+00 0. -1.
         -1   -1    0    0    0  501 -0.00000000000E+00 -0.00000000000E+00 -0.25518990265E+02  0.25518990265E+02  0.00000000000E+00 0.  1.
         25    2    1    2    0    0  0.31118217653E+02 -0.15529909782E+02  0.37362554024E+03  0.39554087562E+03  0.12508804259E+03 0.  0.
         23    2    1    2    0    0 -0.31118217653E+02  0.15529909782E+02  0.14709097647E+03  0.17621362162E+03  0.90586773415E+02 0.  0.
          5    1    3    3  502    0  0.67402820654E+01 -0.24664584418E+02  0.36757757644E+03  0.36848951169E+03  0.41800000000E+01 0. -1.
         -5    1    3    3    0  502  0.24377935588E+02  0.91346746357E+01  0.60479638012E+01  0.27051363928E+02  0.41800000000E+01 0. -1.
        -11    1    4    4    0    0 -0.56148031982E+02  0.15804194141E+02  0.13758339715E+03  0.14943749603E+03  0.00000000000E+00 0. -1.
         11    1    4    4    0    0  0.25029814329E+02 -0.27428435898E+00  0.95075793227E+01  0.26776125594E+02  0.00000000000E+00 0.  1.
</event>
<event>
 8    1  0.7112384E-009  0.9258225E+02  0.7561462E-02  0.1296716E+00
         -2   -1    0    0    0  501 -0.00000000000E+00  0.00000000000E+00  0.34736439788E+02  0.34736439788E+02  0.00000000000E+00 0.  1.
          2   -1    0    0  501    0  0.00000000000E+00 -0.00000000000E+00 -0.66612292392E+03  0.66612292392E+03  0.00000000000E+00 0. -1.
         25    2    1    2    0    0 -0.73764418586E+02  0.19981873559E+02 -0.51842410657E+03  0.53875031052E+03  0.12509147890E+03 0.  0.
         23    2    1    2    0    0  0.73764418586E+02 -0.19981873559E+02 -0.11296237756E+03  0.16210905319E+03  0.87626375371E+02 0.  0.
          5    1    3    3  502    0  0.27841351732E+01  0.13141369241E+02 -0.38084913314E+03  0.38110888418E+03  0.41800000000E+01 0. -1.
         -5    1    3    3    0  502 -0.76548553760E+02  0.68405043174E+01 -0.13757497344E+03  0.15764142634E+03  0.41800000000E+01 0. -1.
        -11    1    4    4    0    0  0.70151971981E+02  0.36266399608E+01 -0.31079154221E+02  0.76813836757E+02  0.00000000000E+00 0.  1.
         11    1    4    4    0    0  0.36124466051E+01 -0.23608513519E+02 -0.81883223343E+02  0.85295216432E+02  0.00000000000E+00 0. -1.
</event>
<event>
 8    1  0.7112384E-009  0.1177731E+03  0.7561462E-02  0.1246817E+00
          2   -1    0    0  501    0  0.00000000000E+00  0.00000000000E+00  0.37431993637E+03  0.37431993637E+03  0.00000000000E+00 0. -1.
         -2   -1    0    0    0  501 -0.00000000000E+00 -0.00000000000E+00 -0.45813857420E+02  0.45813857420E+02  0.00000000000E+00 0.  1.
         25    2    1    2    0    0 -0.41462216065E+02 -0.47318625926E+02  0.11573480327E+03  0.18165725270E+03  0.12508655023E+03 0.  0.
         23    2    1    2    0    0  0.41462216065E+02  0.47318625926E+02  0.21277127568E+03  0.23847654109E+03  0.87414399134E+02 0.  0.
          5    1    3    3  502    0 -0.37755604258E+02 -0.89579629966E+02  0.77491272006E+02  0.12438796322E+03  0.41800000000E+01 0.  1.
         -5    1    3    3    0  502 -0.37066118064E+01  0.42261004040E+02  0.38243531264E+02  0.57269289476E+02  0.41800000000E+01 0.  1.
        -11    1    4    4    0    0 -0.15163294732E+02  0.34316907712E+02  0.14220236827E+03  0.14706831475E+03  0.00000000000E+00 0. -1.
         11    1    4    4    0    0  0.56625510797E+02  0.13001718214E+02  0.70568907406E+02  0.91408226337E+02  0.00000000000E+00 0.  1.
</event>
<event>
 8    1  0.7112384E-009  0.6981008E+02  0.7561462E-02  0.1360740E+00
         -1   -1    0    0    0  501 -0.00000000000E+00  0.00000000000E+00  0.10670653670E+03  0.10670653670E+03  0.00000000000E+00 0.  1.
          1   -1    0    0  501    0  0.00000000000E+00 -0.00000000000E+00 -0.11685390687E+03  0.11685390687E+03  0.00000000000E+00 0. -1.
         25    2    1    2    0    0  0.19688386113E+02 -0.11371198039E+02  0.10422964940E+02  0.12756847181E+03  0.12509252620E+03 0.  0.
         23    2    1    2    0    0 -0.19688386113E+02  0.11371198039E+02 -0.20570335113E+02  0.95991971758E+02  0.90963637035E+02 0.  0.
          5    1    3    3  502    0  0.22657713193E+02 -0.34165600389E+02  0.59984765665E+02  0.72775715241E+02  0.41800000000E+01 0.  1.
         -5    1    3    3    0  502 -0.29693270794E+01  0.22794402349E+02 -0.49561800724E+02  0.54792756572E+02  0.41800000000E+01 0.  1.
        -11    1    4    4    0    0 -0.11743683841E+02  0.41893554277E+02 -0.39872178556E+02  0.59015037261E+02  0.00000000000E+00 0. -1.
         11    1    4    4    0    0 -0.79447022717E+01 -0.30522356237E+02  0.19301843443E+02  0.36976934497E+02  0.00000000000E+00 0.  1.
</event>
<event>
 8    1  0.7112384E-009  0.1188615E+03  0.7561462E-02  0.1244987E+00
          2   -1    0    0  501    0  0.00000000000E+00  0.00000000000E+00  0.26496206516E+03  0.26496206516E+03  0.00000000000E+00 0. -1.
         -2   -1    0    0    0  501 -0.00000000000E+00 -0.00000000000E+00 -0.56092430281E+02  0.56092430281E+02  0.00000000000E+00 0.  1.
         25    2    1    2    0    0 -0.29481526602E+02  0.39164670045E+02  0.82648701722E+02  0.15773867692E+03  0.12509056922E+03 0.  0.
         23    2    1    2    0    0  0.29481526602E+02 -0.39164670045E+02  0.12622093315E+03  0.16331581852E+03  0.91308821164E+02 0.  0.
          5    1    3    3  502    0  0.47895283445E+02  0.28890132526E+02  0.37465932504E+02  0.67451956473E+02  0.41800000000E+01 0.  1.
         -5    1    3    3    0  502 -0.77376810047E+02  0.10274537519E+02  0.45182769218E+02  0.90286720444E+02  0.41800000000E+01 0.  1.
        -11    1    4    4    0    0  0.45849466707E+02 -0.60916609752E+02  0.88792423511E+02  0.11703461631E+03  0.00000000000E+00 0.  1.
         11    1    4    4    0    0 -0.16367940105E+02  0.21751939707E+02  0.37428509643E+02  0.46281202214E+02  0.00000000000E+00 0. -1.
</event>
<event>
 8    1  0.7112384E-009  0.8892701E+02  0.7561462E-02  0.1305471E+00
         -2   -1    0    0    0  501 -0.00000000000E+00  0.00000000000E+00  0.20795983273E+03  0.20795983273E+03  0.00000000000E+00 0.  1.
          2   -1    0    0  501    0  0.00000000000E+00 -0.00000000000E+00 -0.78057681566E+02  0.78057681566E+02  0.00000000000E+00 0. -1.
         25    2    1    2    0    0 -0.30216472468E+02  0.40109222063E+02  0.12196162789E+03  0.18178796957E+03  0.12510172780E+03 0.  0.
         23    2    1    2    0    0  0.30216472468E+02 -0.40109222063E+02  0.79405232726E+01  0.10422954473E+03  0.90988797007E+02 0.  0.
          5    1    3    3  502    0 -0.36485455880E+02  0.49674559468E+02  0.14395426909E+03  0.15664946326E+03  0.41800000000E+01 0. -1.
         -5    1    3    3    0  502  0.62689834124E+01 -0.95653374052E+01 -0.21992641200E+02  0.25138506313E+02  0.41800000000E+01 0. -1.
        -11    1    4    4    0    0  0.49942879309E+02  0.92090519946E+01  0.50181407846E+01  0.51032142511E+02  0.00000000000E+00 0.  1.
         11    1    4    4    0    0 -0.19726406841E+02 -0.49318274058E+02  0.29223824881E+01  0.53197402214E+02  0.00000000000E+00 0. -1.
</event>
<event>
 8    1  0.7112384E-009  0.1045935E+03  0.7561462E-02  0.1270923E+00
          2   -1    0    0  501    0  0.00000000000E+00  0.00000000000E+00  0.69949590527E+03  0.69949590527E+03  0.00000000000E+00 0.  1.
         -2   -1    0    0    0  501 -0.00000000000E+00 -0.00000000000E+00 -0.24095187986E+02  0.24095187986E+02  0.00000000000E+00 0. -1.
         25    2    1    2    0    0 -0.18101311066E+02 -0.13412307384E+00  0.55879558638E+03  0.57291155803E+03  0.12508984976E+03 0.  0.
         23    2    1    2    0    0  0.18101311066E+02  0.13412307384E+00  0.11660513090E+03  0.15067953523E+03  0.93701069001E+02 0.  0.
          5    1    3    3  502    0 -0.65800380137E+02 -0.22877728203E+01  0.43823018849E+03  0.44316824619E+03  0.41800000000E+01 0. -1.
         -5    1    3    3    0  502  0.47699069071E+02  0.21536497464E+01  0.12056539789E+03  0.12974331184E+03  0.41800000000E+01 0. -1.
        -11    1    4    4    0    0  0.47927245432E+02 -0.26959560812E+02  0.71431525105E+02  0.90146001313E+02  0.00000000000E+00 0.  1.
         11    1    4    4    0    0 -0.29825934366E+02  0.27093683886E+02  0.45173605797E+02  0.60533533913E+02  0.00000000000E+00 0. -1.
</event>
<event>
 8    1  0.7112384E-009  0.1054418E+03  0.7561462E-02  0.1269252E+00
         -1   -1    0    0    0  501 -0.00000000000E+00  0.00000000000E+00  0.24374195213E+02  0.24374195213E+02  0.00000000000E+00 0.  1.
          1   -1    0    0  501    0  0.00000000000E+00 -0.00000000000E+00 -0.61650722548E+03  0.61650722548E+03  0.00000000000E+00 0. -1.
         25    2    1    2    0    0  0.90016439495E+01  0.52756326508E+02 -0.39370033336E+03  0.41654872979E+03  0.12509449318E+03 0.  0.
         23    2    1    2    0    0 -0.90016439495E+01 -0.52756326508E+02 -0.19843269690E+03  0.22433269090E+03  0.89918637801E+02 0.  0.
          5    1    3    3  502    0  0.66136651874E+02  0.29317148351E+02 -0.17921718071E+03  0.19331275739E+03  0.41800000000E+01 0. -1.
         -5    1    3    3    0  502 -0.57135007925E+02  0.23439178157E+02 -0.21448315265E+03  0.22323597240E+03  0.41800000000E+01 0. -1.
        -11    1    4    4    0    0 -0.96658601520E+01  0.99153586078E+01  0.23054059913E+01  0.14037737908E+02  0.00000000000E+00 0.  1.
         11    1    4    4    0    0  0.66421620243E+00 -0.62671685116E+02 -0.20073810289E+03  0.21029495299E+03  0.00000000000E+00 0. -1.
</event>
<event>
 8    1  0.7112384E-009  0.9176966E+02  0.7561462E-02  0.1298622E+00
         -1   -1    0    0    0  501 -0.00000000000E+00  0.00000000000E+00  0.32568952317E+02  0.32568952317E+02  0.00000000000E+00 0.  1.
          1   -1    0    0  501    0  0.00000000000E+00 -0.00000000000E+00 -0.58655448567E+03  0.58655448567E+03  0.00000000000E+00 0. -1.
         25    2    1    2    0    0  0.20483750835E+02  0.15821226799E+02 -0.12214675942E+03  0.17674038226E+03  0.12508971429E+03 0.  0.
         23    2    1    2    0    0 -0.20483750835E+02 -0.15821226799E+02 -0.43183877393E+03  0.44238305572E+03  0.92456184506E+02 0.  0.
          5    1    3    3  502    0  0.55637315544E+02  0.58557336029E+01 -0.12776263305E+03  0.13953696034E+03  0.41800000000E+01 0.  1.
         -5    1    3    3    0  502 -0.35153564708E+02  0.99654931960E+01  0.56158736281E+01  0.37203421925E+02  0.41800000000E+01 0.  1.
        -11    1    4    4    0    0 -0.51312747659E+02 -0.26857806650E+02 -0.33962692817E+03  0.34452981030E+03  0.00000000000E+00 0. -1.
         11    1    4    4    0    0  0.30828996823E+02  0.11036579851E+02 -0.92211845762E+02  0.97853245417E+02  0.00000000000E+00 0.  1.
</event>
<event>
 8    1  0.7112384E-009  0.1243790E+03  0.7561462E-02  0.1236043E+00
         -1   -1    0    0    0  501 -0.00000000000E+00  0.00000000000E+00  0.79316406740E+02  0.79316406740E+02  0.00000000000E+00 0.  1.
          1   -1    0    0  501    0  0.00000000000E+00 -0.00000000000E+00 -0.27516279725E+03  0.27516279725E+03  0.00000000000E+00 0. -1.
         25    2    1    2    0    0 -0.63057769070E+02 -0.28240184855E+02 -0.19223024248E+03  0.23952677023E+03  0.12508723856E+03 0.  0.
         23    2    1    2    0    0  0.63057769070E+02  0.28240184855E+02 -0.36161480263E+01  0.11495243376E+03  0.91799756097E+02 0.  0.
          5    1    3    3  502    0 -0.50141367621E+02 -0.77004555378E+02 -0.11650191061E+03  0.14843862662E+03  0.41800000000E+01 0.  1.
         -5    1    3    3    0  502 -0.12916401449E+02  0.48764370523E+02 -0.75728331871E+02  0.91088143613E+02  0.41800000000E+01 0.  1.
        -11    1    4    4    0    0  0.44369180815E+02 -0.24159995721E+02  0.20234781076E+02  0.54422201027E+02  0.00000000000E+00 0.  1.
         11    1    4    4    0    0  0.18688588255E+02  0.52400180576E+02 -0.23850929102E+02  0.60530232730E+02  0.00000000000E+00 0. -1.
</event>
<event>
 8    1  0.7112384E-009  0.1930532E+03  0.7561462E-02  0.1155736E+00
          1   -1    0    0  501    0  0.00000000000E+00  0.00000000000E+00  0.38526614035E+03  0.38526614035E+03  0.00000000000E+00 0. -1.
         -1   -1    0    0    0  501 -0.00000000000E+00 -0.00000000000E+00 -0.11081496008E+03  0.11081496008E+03  0.00000000000E+00 0.  1.
         25    2    1    2    0    0 -0.16320265343E+03  0.58045302735E+02  0.17871235553E+03  0.27854972911E+03  0.12508989692E+03 0.  0.
         23    2    1    2    0    0  0.16320265343E+03 -0.58045302735E+02  0.95738824742E+02  0.21753137131E+03  0.90275199734E+02 0.  0.
          5    1    3    3  502    0 -0.15481287399E+03  0.88946847251E+02  0.16605646406E+03  0.24386633479E+03  0.41800000000E+01 0.  1.
         -5    1    3    3    0  502 -0.83897794367E+01 -0.30901544515E+02  0.12655891472E+02  0.34683394317E+02  0.41800000000E+01 0.  1.
        -11    1    4    4    0    0  0.70665107807E+02 -0.11358334697E+02  0.88233535019E+02  0.11361217334E+03  0.00000000000E+00 0. -1.
         11    1    4    4    0    0  0.92537545622E+02 -0.46686968038E+02  0.75052897229E+01  0.10391919798E+03  0.00000000000E+00 0.  1.
</event>
<event>
 8    1  0.7112384E-009  0.1063255E+03  0.7561462E-02  0.1267530E+00
         -1   -1    0    0    0  501 -0.00000000000E+00  0.00000000000E+00  0.32425474829E+03  0.32425474829E+03  0.00000000000E+00 0.  1.
          1   -1    0    0  501    0  0.00000000000E+00 -0.00000000000E+00 -0.59241375935E+02  0.59241375935E+02  0.00000000000E+00 0. -1.
         25    2    1    2    0    0  0.58310813809E+02 -0.25106298836E+02  0.64627081718E+02  0.15444064614E+03  0.12507907995E+03 0.  0.
         23    2    1    2    0    0 -0.58310813809E+02  0.25106298836E+02  0.20038629064E+03  0.22905547808E+03  0.91001479742E+02 0.  0.
          5    1    3    3  502    0  0.66914984692E+02  0.80612892076E+01  0.89337916361E+02  0.11198810321E+03  0.41800000000E+01 0.  1.
         -5    1    3    3    0  502 -0.86041708830E+01 -0.33167588044E+02 -0.24710834643E+02  0.42452542939E+02  0.41800000000E+01 0.  1.
        -11    1    4    4    0    0 -0.21823852371E+01  0.49396171876E+02  0.80544249597E+02  0.94509897601E+02  0.00000000000E+00 0. -1.
         11    1    4    4    0    0 -0.56128428572E+02 -0.24289873039E+02  0.11984204104E+03  0.13454558048E+03  0.00000000000E+00 0.  1.
</event>
<event>
 8    1  0.7112384E-009  0.1820596E+03  0.7561462E-02  0.1165825E+00
         -1   -1    0    0    0  501 -0.00000000000E+00  0.00000000000E+00  0.25642286827E+03  0.25642286827E+03  0.00000000000E+00 0.  1.
          1   -1    0    0  501    0  0.00000000000E+00 -0.00000000000E+00 -0.13982071121E+03  0.13982071121E+03  0.00000000000E+00 0. -1.
         25    2    1    2    0    0 -0.12463732966E+03  0.91889931192E+02  0.54155048937E+02  0.20629713248E+03  0.12509002416E+03 0.  0.
         23    2    1    2    0    0  0.12463732966E+03 -0.91889931192E+02  0.62447108132E+02  0.18994644700E+03  0.90563723507E+02 0.  0.
          5    1    3    3  502    0 -0.13259107395E+03  0.32525539184E+02  0.22513307611E+02  0.13842913353E+03  0.41800000000E+01 0.  1.
         -5    1    3    3    0  502  0.79537442922E+01  0.59364392007E+02  0.31641741326E+02  0.67867998945E+02  0.41800000000E+01 0.  1.
        -11    1    4    4    0    0  0.51391281848E+01  0.94842874392E+01  0.27291636318E+02  0.29346137048E+02  0.00000000000E+00 0.  1.
         11    1    4    4    0    0  0.11949820148E+03 -0.10137421863E+03  0.35155471814E+02  0.16060030995E+03  0.00000000000E+00 0. -1.
</event>
<event>
 8    1  0.7112384E-009  0.1083510E+03  0.7561462E-02  0.1263654E+00
         -1   -1    0    0    0  501 -0.00000000000E+00  0.00000000000E+00  0.15803025588E+03  0.15803025588E+03  0.00000000000E+00 0.  1.
          1   -1    0    0  501    0  0.00000000000E+00 -0.00000000000E+00 -0.11703186617E+03  0.11703186617E+03  0.00000000000E+00 0. -1.
         25    2    1    2    0    0  0.39970978343E+02 -0.68407597311E+02  0.18370758567E+01  0.14808168936E+03  0.12509010111E+03 0.  0.
         23    2    1    2    0    0 -0.39970978343E+02  0.68407597311E+02  0.39161313852E+02  0.12698043269E+03  0.91176440507E+02 0.  0.
          5    1    3    3  502    0  0.50778821780E+02 -0.22277376214E+02 -0.52077148518E+02  0.76185773148E+02  0.41800000000E+01 0. -1.
         -5    1    3    3    0  502 -0.10807843436E+02 -0.46130221097E+02  0.53914224375E+02  0.71895916213E+02  0.41800000000E+01 0. -1.
        -11    1    4    4    0    0 -0.16254355186E+02  0.83731219111E+02  0.47382463183E+02  0.97571609260E+02  0.00000000000E+00 0.  1.
         11    1    4    4    0    0 -0.23716623158E+02 -0.15323621800E+02 -0.82211493318E+01  0.29408823428E+02  0.00000000000E+00 0. -1.
</event>
<event>
 8    1  0.7112384E-009  0.2090674E+03  0.7561462E-02  0.1142307E+00
         -2   -1    0    0    0  501 -0.00000000000E+00  0.00000000000E+00  0.71698363043E+02  0.71698363043E+02  0.00000000000E+00 0.  1.
          2   -1    0    0  501    0  0.00000000000E+00 -0.00000000000E+00 -0.67722100949E+03  0.67722100949E+03  0.00000000000E+00 0. -1.
         25    2    1    2    0    0  0.13197683759E+03  0.13718821385E+03 -0.33992365216E+03  0.40918712801E+03  0.12509006655E+03 0.  0.
         23    2    1    2    0    0 -0.13197683759E+03 -0.13718821385E+03 -0.26559899429E+03  0.33973224452E+03  0.92933742652E+02 0.  0.
          5    1    3    3  502    0 -0.17031431105E+02  0.43845040675E+02 -0.41879734573E+02  0.63117682191E+02  0.41800000000E+01 0. -1.
         -5    1    3    3    0  502  0.14900826870E+03  0.93343173175E+02 -0.29804391759E+03  0.34606944582E+03  0.41800000000E+01 0. -1.
        -11    1    4    4    0    0 -0.11472285492E+02 -0.35657065846E+02 -0.11808849005E+03  0.12388676750E+03  0.00000000000E+00 0. -1.
         11    1    4    4    0    0 -0.12050455210E+03 -0.10153114800E+03 -0.14751050424E+03  0.21584547702E+03  0.00000000000E+00 0.  1.
</event>
<event>
 8    1  0.7112384E-009  0.2527779E+03  0.7561462E-02  0.1111562E+00
         -4   -1    0    0    0  501 -0.00000000000E+00  0.00000000000E+00  0.12614752356E+03  0.12614752356E+03  0.00000000000E+00 0.  1.
          4   -1    0    0  501    0  0.00000000000E+00 -0.00000000000E+00 -0.60696407963E+03  0.60696407963E+03  0.00000000000E+00 0. -1.
         25    2    1    2    0    0 -0.22498619357E+03  0.10445213323E+03 -0.17247739238E+03  0.32699722496E+03  0.12509875624E+03 0.  0.
         23    2    1    2    0    0  0.22498619357E+03 -0.10445213323E+03 -0.30833916368E+03  0.40611437824E+03  0.91251372119E+02 0.  0.
          5    1    3    3  502    0 -0.20488785559E+03  0.11306939270E+03 -0.10608842948E+03  0.25697460615E+03  0.41800000000E+01 0. -1.
         -5    1    3    3    0  502 -0.20098337978E+02 -0.86172594707E+01 -0.66388962895E+02  0.70022618807E+02  0.41800000000E+01 0. -1.
        -11    1    4    4    0    0  0.18465629782E+03 -0.75033580481E+02 -0.18060565101E+03  0.26897283822E+03  0.00000000000E+00 0.  1.
         11    1    4    4    0    0  0.40329895756E+02 -0.29418552748E+02 -0.12773351268E+03  0.13714154002E+03  0.00000000000E+00 0. -1.
</event>
<event>
 8    1  0.7112384E-009  0.1038813E+03  0.7561462E-02  0.1272339E+00
         -1   -1    0    0    0  501 -0.00000000000E+00  0.00000000000E+00  0.61281171879E+02  0.61281171879E+02  0.00000000000E+00 0.  1.
          1   -1    0    0  501    0  0.00000000000E+00 -0.00000000000E+00 -0.43879422056E+03  0.43879422056E+03  0.00000000000E+00 0. -1.
         25    2    1    2    0    0  0.27973567941E+02 -0.10747050789E+02 -0.20000846474E+02  0.13017470677E+03  0.12508957118E+03 0.  0.
         23    2    1    2    0    0 -0.27973567941E+02  0.10747050789E+02 -0.35751220221E+03  0.36990068567E+03  0.90075096059E+02 0.  0.
          5    1    3    3  502    0 -0.46238240949E+00  0.55872110812E+02 -0.70257576595E+01  0.56468931589E+02  0.41800000000E+01 0.  1.
         -5    1    3    3    0  502  0.28435950350E+02 -0.66619161601E+02 -0.12975088815E+02  0.73705775178E+02  0.41800000000E+01 0.  1.
        -11    1    4    4    0    0  0.24079925739E+02 -0.53987813602E+01 -0.35053874941E+02  0.42869147556E+02  0.00000000000E+00 0.  1.
         11    1    4    4    0    0 -0.52053493679E+02  0.16145832149E+02 -0.32245832727E+03  0.32703153812E+03  0.00000000000E+00 0. -1.
</event>
<event>
 8    1  0.7112384E-009  0.1127543E+03  0.7561462E-02  0.1255553E+00
          1   -1    0    0  501    0  0.00000000000E+00  0.00000000000E+00  0.49926636177E+03  0.49926636177E+03  0.00000000000E+00 0. -1.
         -1   -1    0    0    0  501 -0.00000000000E+00 -0.00000000000E+00 -0.40285063789E+02  0.40285063789E+02  0.00000000000E+00 0.  1.
         25    2    1    2    0    0 -0.83401573114E+01 -0.87269273377E+02  0.20490152403E+03  0.25557247217E+03  0.12508864728E+03 0.  0.
         23    2    1    2    0    0  0.83401573114E+01  0.87269273377E+02  0.25407977395E+03  0.28397895339E+03  0.91662588554E+02 0.  0.
          5    1    3    3  502    0 -0.37452760725E+02 -0.72835631243E+02  0.47443626906E+02  0.94742327385E+02  0.41800000000E+01 0. -1.
         -5    1    3    3    0  502  0.29112603414E+02 -0.14433642134E+02  0.15745789713E+03  0.16083014478E+03  0.41800000000E+01 0. -1.
        -11    1    4    4    0    0 -0.20318236325E+01 -0.11373061943E+02  0.35763263610E+00  0.11558665422E+02  0.00000000000E+00 0.  1.
         11    1    4    4    0    0  0.10371980944E+02  0.98642335319E+02  0.25372214131E+03  0.27242028797E+03  0.00000000000E+00 0. -1.
</event>
<event>
 8    1  0.7112384E-009  0.9707567E+02  0.7561462E-02  0.1286568E+00
          2   -1    0    0  501    0  0.00000000000E+00  0.00000000000E+00  0.11181213257E+04  0.11181213257E+04  0.00000000000E+00 0. -1.
         -2   -1    0    0    0  501 -0.00000000000E+00 -0.00000000000E+00 -0.30565077215E+02  0.30565077215E+02  0.00000000000E+00 0.  1.
         25    2    1    2    0    0  0.20943572273E+02  0.76808144768E+02  0.96470271296E+03  0.97603138562E+03  0.12509123472E+03 0.  0.
         23    2    1    2    0    0 -0.20943572273E+02 -0.76808144768E+02  0.12285353556E+03  0.17265501733E+03  0.91534908568E+02 0.  0.
          5    1    3    3  502    0  0.19568890859E+02  0.15727564929E+02  0.30072285287E+02  0.39396859398E+02  0.41800000000E+01 0. -1.
         -5    1    3    3    0  502  0.13746814137E+01  0.61080579839E+02  0.93463042767E+03  0.93663452622E+03  0.41800000000E+01 0. -1.
        -11    1    4    4    0    0 -0.30073167297E+02  0.39393344711E-01  0.77090533190E+02  0.82748699390E+02  0.00000000000E+00 0. -1.
         11    1    4    4    0    0  0.91295950236E+01 -0.76847538112E+02  0.45763002369E+02  0.89906317937E+02  0.00000000000E+00 0.  1.
</event>
<event>
 8    1  0.7112384E-009  0.2376997E+03  0.7561462E-02  0.1121335E+00
          2   -1    0    0  501    0  0.00000000000E+00  0.00000000000E+00  0.19421287090E+03  0.19421287090E+03  0.00000000000E+00 0. -1.
         -2   -1    0    0    0  501 -0.00000000000E+00 -0.00000000000E+00 -0.34574982931E+03  0.34574982931E+03  0.00000000000E+00 0.  1.
         25    2    1    2    0    0 -0.17202262486E+03 -0.16150131362E+03 -0.79520488741E+02  0.27864990522E+03  0.12509118189E+03 0.  0.
         23    2    1    2    0    0  0.17202262486E+03  0.16150131362E+03 -0.72016469668E+02  0.26131279499E+03  0.86160009042E+02 0.  0.
          5    1    3    3  502    0 -0.12408182644E+03 -0.13364478387E+03 -0.97651552962E+00  0.18241615579E+03  0.41800000000E+01 0. -1.
         -5    1    3    3    0  502 -0.47940798419E+02 -0.27856529746E+02 -0.78543973211E+02  0.96233749435E+02  0.41800000000E+01 0. -1.
        -11    1    4    4    0    0  0.42830148137E+02  0.56511538777E+02  0.16451818282E+02  0.72791743551E+02  0.00000000000E+00 0.  1.
         11    1    4    4    0    0  0.12919247672E+03  0.10498977484E+03 -0.88468287951E+02  0.18852105144E+03  0.00000000000E+00 0. -1.
</event>
<event>
 8    1  0.7112384E-009  0.1614779E+03  0.7561462E-02  0.1187038E+00
          1   -1    0    0  501    0  0.00000000000E+00  0.00000000000E+00  0.30840513912E+03  0.30840513912E+03  0.00000000000E+00 0.  1.
         -1   -1    0    0    0  501 -0.00000000000E+00 -0.00000000000E+00 -0.97742077396E+02  0.97742077396E+02  0.00000000000E+00 0. -1.
         25    2    1    2    0    0  0.78716795782E+02 -0.10094065181E+03  0.16133102617E+03  0.24095401547E+03  0.12508312613E+03 0.  0.
         23    2    1    2    0    0 -0.78716795782E+02  0.10094065181E+03  0.49332035556E+02  0.16519320104E+03  0.92031488158E+02 0.  0.
          5    1    3    3  502    0  0.45944604790E+02  0.19374073232E+02  0.24282685831E+02  0.55618186361E+02  0.41800000000E+01 0. -1.
         -5    1    3    3    0  502  0.32772190992E+02 -0.12031472504E+03  0.13704834033E+03  0.18533582911E+03  0.41800000000E+01 0. -1.
        -11    1    4    4    0    0 -0.38757325330E+02 -0.88203507901E+00 -0.10969807210E+02  0.40289513807E+02  0.00000000000E+00 0. -1.
         11    1    4    4    0    0 -0.39959470452E+02  0.10182268689E+03  0.60301842766E+02  0.12490368723E+03  0.00000000000E+00 0.  1.
</event>
<event>
 8    1  0.7112384E-009  0.1033407E+03  0.7561462E-02  0.1273424E+00
          3   -1    0    0  501    0  0.00000000000E+00  0.00000000000E+00  0.11623399425E+03  0.11623399425E+03  0.00000000000E+00 0. -1.
         -3   -1    0    0    0  501 -0.00000000000E+00 -0.00000000000E+00 -0.12341758280E+03  0.12341758280E+03  0.00000000000E+00 0.  1.
         25    2    1    2    0    0 -0.13222965749E+02 -0.48253594468E+02  0.82051957641E+01  0.13499191798E+03  0.12510889848E+03 0.  0.
         23    2    1    2    0    0  0.13222965749E+02  0.48253594468E+02 -0.15388784310E+02  0.10465965907E+03  0.90628766695E+02 0.  0.
          5    1    3    3  502    0 -0.20931834100E+01 -0.84631050033E+02 -0.20437880342E+02  0.87189307827E+02  0.41800000000E+01 0. -1.
         -5    1    3    3    0  502 -0.11129782339E+02  0.36377455565E+02  0.28643076106E+02  0.47802610150E+02  0.41800000000E+01 0. -1.
        -11    1    4    4    0    0 -0.26690204967E+02  0.10409776072E+02  0.23701412777E+02  0.37181816076E+02  0.00000000000E+00 0. -1.
         11    1    4    4    0    0  0.39913170716E+02  0.37843818396E+02 -0.39090197088E+02  0.67477842998E+02  0.00000000000E+00 0.  1.
</event>
<event>
 8    1  0.7112384E-009  0.1559173E+03  0.7561462E-02  0.1193385E+00
          2   -1    0    0  501    0  0.00000000000E+00  0.00000000000E+00  0.12208337806E+03  0.12208337806E+03  0.00000000000E+00 0. -1.
         -2   -1    0    0    0  501 -0.00000000000E+00 -0.00000000000E+00 -0.23875577306E+03  0.23875577306E+03  0.00000000000E+00 0.  1.
         25    2    1    2    0    0  0.44492510432E+02  0.11825222822E+03 -0.10203601757E+03  0.20499252781E+03  0.12508962631E+03 0.  0.
         23    2    1    2    0    0 -0.44492510432E+02 -0.11825222822E+03 -0.14636377428E+02  0.15584662332E+03  0.90059832843E+02 0.  0.
          5    1    3    3  502    0 -0.52564512863E+01 -0.23820387573E+02 -0.27399279493E+02  0.36921999688E+02  0.41800000000E+01 0. -1.
         -5    1    3    3    0  502  0.49748961718E+02  0.14207261580E+03 -0.74636738080E+02  0.16807052812E+03  0.41800000000E+01 0. -1.
        -11    1    4    4    0    0  0.72217809579E+01 -0.51758925793E+02  0.30264219729E+02  0.60390922458E+02  0.00000000000E+00 0.  1.
         11    1    4    4    0    0 -0.51714291390E+02 -0.66493302429E+02 -0.44900597157E+02  0.95455700862E+02  0.00000000000E+00 0. -1.
</event>
<event>
 8    1  0.7112384E-009  0.9023066E+02  0.7561462E-02  0.1302294E+00
         -2   -1    0    0    0  501 -0.00000000000E+00  0.00000000000E+00  0.77024339493E+02  0.77024339493E+02  0.00000000000E+00 0.  1.
          2   -1    0    0  501    0  0.00000000000E+00 -0.00000000000E+00 -0.16675614404E+03  0.16675614404E+03  0.00000000000E+00 0. -1.
         25    2    1    2    0    0 -0.18694863844E+02  0.22576774946E+02 -0.66146157036E+02  0.14451284936E+03  0.12509772516E+03 0.  0.
         23    2    1    2    0    0  0.18694863844E+02 -0.22576774946E+02 -0.23585647512E+02  0.99267634170E+02  0.91861698896E+02 0.  0.
          5    1    3    3  502    0  0.32961926198E+02  0.54492041608E+02 -0.51247665745E+02  0.81851492482E+02  0.41800000000E+01 0.  1.
         -5    1    3    3    0  502 -0.51656790042E+02 -0.31915266662E+02 -0.14898491291E+02  0.62661356882E+02  0.41800000000E+01 0.  1.
        -11    1    4    4    0    0  0.88590627675E+01 -0.37150310752E+02 -0.52803385054E+02  0.65167676461E+02  0.00000000000E+00 0. -1.
         11    1    4    4    0    0  0.98358010769E+01  0.14573535807E+02  0.29217737542E+02  0.34099957710E+02  0.00000000000E+00 0.  1.
</event>
<event>
 8    1  0.7112384E-009  0.1494445E+03  0.7561462E-02  0.1201157E+00
         -2   -1    0    0    0  501 -0.00000000000E+00  0.00000000000E+00  0.28393034926E+02  0.28393034926E+02  0.00000000000E+00 0.  1.
          2   -1    0    0  501    0  0.00000000000E+00 -0.00000000000E+00 -0.87156570652E+03  0.87156570652E+03  0.00000000000E+00 0. -1.
         25    2    1    2    0    0 -0.41422577676E+02  0.99754393735E+02 -0.35573800456E+03  0.39225534491E+03  0.12509180114E+03 0.  0.
         23    2    1    2    0    0  0.41422577676E+02 -0.99754393735E+02 -0.48743466703E+03  0.50770339653E+03  0.92213964312E+02 0.  0.
          5    1    3    3  502    0 -0.74554461965E+02  0.98303352431E+02 -0.32159296762E+03  0.34447267834E+03  0.41800000000E+01 0.  1.
         -5    1    3    3    0  502  0.33131884289E+02  0.14510413036E+01 -0.34145036939E+02  0.47782666575E+02  0.41800000000E+01 0.  1.
        -11    1    4    4    0    0  0.65424964608E+02 -0.37767733118E+02 -0.25681980342E+03  0.26769990491E+03  0.00000000000E+00 0.  1.
         11    1    4    4    0    0 -0.24002386932E+02 -0.61986660616E+02 -0.23061486361E+03  0.24000349162E+03  0.00000000000E+00 0. -1.
</event>
<event>
 8    1  0.7112384E-009  0.8384919E+02  0.7561462E-02  0.1318470E+00
         -3   -1    0    0    0  501 -0.00000000000E+00  0.00000000000E+00  0.24550241652E+02  0.24550241652E+02  0.00000000000E+00 0.  1.
          3   -1    0    0  501    0  0.00000000000E+00 -0.00000000000E+00 -0.52891281819E+03  0.52891281819E+03  0.00000000000E+00 0. -1.
         25    2    1    2    0    0 -0.81712615010E+01  0.24548652122E+01 -0.21937965604E+03  0.25268132528E+03  0.12509045841E+03 0.  0.
         23    2    1    2    0    0  0.81712615010E+01 -0.24548652122E+01 -0.28498292051E+03  0.30078173457E+03  0.95820618827E+02 0.  0.
          5    1    3    3  502    0  0.34620018830E+02  0.18531267592E+02 -0.19825825011E+03  0.20215281279E+03  0.41800000000E+01 0. -1.
         -5    1    3    3    0  502 -0.42791280331E+02 -0.16076402380E+02 -0.21121405924E+02  0.50528512486E+02  0.41800000000E+01 0. -1.
        -11    1    4    4    0    0  0.45220344920E+02 -0.14948633219E+01 -0.75291641985E+02  0.87840455166E+02  0.00000000000E+00 0.  1.
         11    1    4    4    0    0 -0.37049083419E+02 -0.96000189023E+00 -0.20969127852E+03  0.21294127940E+03  0.00000000000E+00 0. -1.
</event>
<event>
 8    1  0.7112384E-009  0.9118361E+02  0.7561462E-02  0.1300010E+00
          1   -1    0    0  501    0  0.00000000000E+00  0.00000000000E+00  0.32114588706E+03  0.32114588706E+03  0.00000000000E+00 0. -1.
         -1   -1    0    0    0  501 -0.00000000000E+00 -0.00000000000E+00 -0.49311623363E+02  0.49311623363E+02  0.00000000000E+00 0.  1.
         25    2    1    2    0    0  0.42373475147E+02  0.12477289108E+02  0.21932169726E+03  0.25632519668E+03  0.12509758360E+03 0.  0.
         23    2    1    2    0    0 -0.42373475147E+02 -0.12477289108E+02  0.52512566441E+02  0.11413231375E+03  0.91199897300E+02 0.  0.
          5    1    3    3  502    0  0.46908043346E+02  0.55296892895E+02  0.19169745641E+03  0.20499633676E+03  0.41800000000E+01 0. -1.
         -5    1    3    3    0  502 -0.45345681998E+01 -0.42819603787E+02  0.27624240851E+02  0.51328859912E+02  0.41800000000E+01 0. -1.
        -11    1    4    4    0    0 -0.52229235123E+02 -0.22624283963E+01 -0.71857189671E+01  0.52769746455E+02  0.00000000000E+00 0.  1.
         11    1    4    4    0    0  0.98557599765E+01 -0.10214860712E+02  0.59698285408E+02  0.61362567292E+02  0.00000000000E+00 0. -1.
</event>
<event>
 8    1  0.7112384E-009  0.1095480E+03  0.7561462E-02  0.1261409E+00
          2   -1    0    0  501    0  0.00000000000E+00  0.00000000000E+00  0.15741762563E+03  0.15741762563E+03  0.00000000000E+00 0. -1.
         -2   -1    0    0    0  501 -0.00000000000E+00 -0.00000000000E+00 -0.10835363455E+03  0.10835363455E+03  0.00000000000E+00 0.  1.
         25    2    1    2    0    0 -0.69634801221E+02 -0.36688729028E+01  0.37243902552E+02  0.14797564085E+03  0.12508883178E+03 0.  0.
         23    2    1    2    0    0  0.69634801221E+02  0.36688729028E+01  0.11820088532E+02  0.11779561933E+03  0.94199932440E+02 0.  0.
          5    1    3    3  502    0 -0.62658161532E+02 -0.34553278044E+02  0.71430648739E+02  0.10119181889E+03  0.41800000000E+01 0. -1.
         -5    1    3    3    0  502 -0.69766396887E+01  0.30884405141E+02 -0.34186746187E+02  0.46783821959E+02  0.41800000000E+01 0. -1.
        -11    1    4    4    0    0  0.71352042807E+02 -0.33112658021E+02  0.17375639838E+02  0.80557277720E+02  0.00000000000E+00 0.  1.
         11    1    4    4    0    0 -0.17172415860E+01  0.36781530924E+02 -0.55555513056E+01  0.37238341613E+02  0.00000000000E+00 0. -1.
</event>
<event>
 8    1  0.7112384E-009  0.1753695E+03  0.7561462E-02  0.1172361E+00
          1   -1    0    0  501    0  0.00000000000E+00  0.00000000000E+00  0.82216531709E+02  0.82216531709E+02  0.00000000000E+00 0. -1.
         -1   -1    0    0    0  501 -0.00000000000E+00 -0.00000000000E+00 -0.53262699387E+03  0.53262699387E+03  0.00000000000E+00 0.  1.
         25    2    1    2    0    0 -0.58634284448E+02 -0.16197540477E+03 -0.16391313405E+03  0.26867971653E+03  0.12508902228E+03 0.  0.
         23    2    1    2    0    0  0.58634284448E+02  0.16197540477E+03 -0.28649732811E+03  0.34616380905E+03  0.89859070858E+02 0.  0.
          5    1    3    3  502    0 -0.40302519467E+02 -0.81767916391E+02 -0.70857785578E+01  0.91531229010E+02  0.41800000000E+01 0.  1.
         -5    1    3    3    0  502 -0.18331764981E+02 -0.80207488383E+02 -0.15682735549E+03  0.17714848752E+03  0.41800000000E+01 0.  1.
        -11    1    4    4    0    0  0.40054285149E+02  0.52369566874E+02 -0.18206777769E+03  0.19363778807E+03  0.00000000000E+00 0.  1.
         11    1    4    4    0    0  0.18579999299E+02  0.10960583790E+03 -0.10442955042E+03  0.15252602098E+03  0.00000000000E+00 0. -1.
</event>
<event>
 8    1  0.7112384E-009  0.1233589E+03  0.7561462E-02  0.1237657E+00
          1   -1    0    0  501    0  0.00000000000E+00  0.00000000000E+00  0.18365728321E+03  0.18365728321E+03  0.00000000000E+00 0. -1.
         -1   -1    0    0    0  501 -0.00000000000E+00 -0.00000000000E+00 -0.88310252760E+02  0.88310252760E+02  0.00000000000E+00 0.  1.
         25    2    1    2    0    0 -0.66968365003E+01  0.64482416270E+02  0.34821068682E+02  0.14512877820E+03  0.12508807221E+03 0.  0.
         23    2    1    2    0    0  0.66968365003E+01 -0.64482416270E+02  0.60525961768E+02  0.12683875777E+03  0.90674410936E+02 0.  0.
          5    1    3    3  502    0 -0.60040383375E+02  0.63018808347E+01  0.52794199133E+01  0.60744596570E+02  0.41800000000E+01 0.  1.
         -5    1    3    3    0  502  0.53343546875E+02  0.58180535435E+02  0.29541648769E+02  0.84384181626E+02  0.41800000000E+01 0.  1.
        -11    1    4    4    0    0 -0.23794557366E+02  0.10654314120E+02  0.31087367327E+02  0.40572401666E+02  0.00000000000E+00 0. -1.
         11    1    4    4    0    0  0.30491393866E+02 -0.75136730389E+02  0.29438594441E+02  0.86266356108E+02  0.00000000000E+00 0.  1.
</event>
<event>
 8    1  0.7112384E-009  0.8917380E+02  0.7561462E-02  0.1304865E+00
         -1   -1    0    0    0  501 -0.00000000000E+00  0.00000000000E+00  0.22106835631E+03  0.22106835631E+03  0.00000000000E+00 0.  1.
          1   -1    0    0  501    0  0.00000000000E+00 -0.00000000000E+00 -0.61644899478E+02  0.61644899478E+02  0.00000000000E+00 0. -1.
         25    2    1    2    0    0 -0.31525745950E+02  0.30568100662E+02  0.94915376361E+02  0.16304658145E+03  0.12508787958E+03 0.  0.
         23    2    1    2    0    0  0.31525745950E+02 -0.30568100662E+02  0.64508080467E+02  0.11966667433E+03  0.90722318445E+02 0.  0.
          5    1    3    3  502    0  0.21538358121E+02  0.10386466053E+02  0.10275495567E+03  0.10558329822E+03  0.41800000000E+01 0.  1.
         -5    1    3    3    0  502 -0.53064104071E+02  0.20181634609E+02 -0.78395793118E+01  0.57463283235E+02  0.41800000000E+01 0.  1.
        -11    1    4    4    0    0  0.58236554089E+02 -0.23384620986E+01  0.53888123983E+02  0.79378174227E+02  0.00000000000E+00 0.  1.
         11    1    4    4    0    0 -0.26710808139E+02 -0.28229638563E+02  0.10619956484E+02  0.40288500103E+02  0.00000000000E+00 0. -1.
</event>
<event>
 8    1  0.7112384E-009  0.1053750E+03  0.7561462E-02  0.1269382E+00
          2   -1    0    0  501    0  0.00000000000E+00  0.00000000000E+00  0.19293831799E+03  0.19293831799E+03  0.00000000000E+00 0. -1.
         -2   -1    0    0    0  501 -0.00000000000E+00 -0.00000000000E+00 -0.71358071977E+02  0.71358071977E+02  0.00000000000E+00 0.  1.
         25    2    1    2    0    0  0.18993436349E+02  0.37002018564E+02  0.88899810706E+02  0.15899745936E+03  0.12508843166E+03 0.  0.
         23    2    1    2    0    0 -0.18993436349E+02 -0.37002018564E+02  0.32680435309E+02  0.10529893061E+03  0.91049184147E+02 0.  0.
          5    1    3    3  502    0  0.64153091633E+02  0.12017569362E+02  0.84750632558E+02  0.10705224546E+03  0.41800000000E+01 0.  1.
         -5    1    3    3    0  502 -0.45159655284E+02  0.24984449203E+02  0.41491781481E+01  0.51945213895E+02  0.41800000000E+01 0.  1.
        -11    1    4    4    0    0  0.25515816443E+02 -0.41621140159E+02  0.35652158870E+02  0.60452068856E+02  0.00000000000E+00 0. -1.
         11    1    4    4    0    0 -0.44509252792E+02  0.46191215947E+01 -0.29717235605E+01  0.44846861756E+02  0.00000000000E+00 0.  1.
</event>
<event>
 8    1  0.7112384E-009  0.9915745E+02  0.7561462E-02  0.1282078E+00
         -2   -1    0    0    0  501 -0.00000000000E+00  0.00000000000E+00  0.48841131391E+03  0.48841131391E+03  0.00000000000E+00 0.  1.
          2   -1    0    0  501    0  0.00000000000E+00 -0.00000000000E+00 -0.41091039743E+02  0.41091039743E+02  0.00000000000E+00 0. -1.
         25    2    1    2    0    0 -0.59443201895E+02  0.33489409864E+02  0.35680046651E+03  0.38419983503E+03  0.12509158847E+03 0.  0.
         23    2    1    2    0    0  0.59443201895E+02 -0.33489409864E+02  0.90519807653E+02  0.14530251862E+03  0.90906278753E+02 0.  0.
          5    1    3    3  502    0 -0.45566199081E+02  0.56321333917E+02  0.88081882826E+02  0.11412388722E+03  0.41800000000E+01 0. -1.
         -5    1    3    3    0  502 -0.13877002814E+02 -0.22831924052E+02  0.26871858369E+03  0.27007594780E+03  0.41800000000E+01 0. -1.
        -11    1    4    4    0    0  0.73298826799E+02 -0.13732230306E+02  0.94984544265E+02  0.12076156594E+03  0.00000000000E+00 0.  1.
         11    1    4    4    0    0 -0.13855624905E+02 -0.19757179559E+02 -0.44647366117E+01  0.24540952684E+02  0.00000000000E+00 0. -1.
</event>
<event>
 8    1  0.7112384E-009  0.3893477E+03  0.7561462E-02  0.1047532E+00
          2   -1    0    0  501    0  0.00000000000E+00  0.00000000000E+00  0.12383453067E+04  0.12383453067E+04  0.00000000000E+00 0. -1.
         -2   -1    0    0    0  501 -0.00000000000E+00 -0.00000000000E+00 -0.13055673666E+03  0.13055673666E+03  0.00000000000E+00 0.  1.
         25    2    1    2    0    0 -0.33894339994E+03 -0.17714147383E+03  0.66050134955E+03  0.77341526837E+03  0.12508962577E+03 0.  0.
         23    2    1    2    0    0  0.33894339994E+03  0.17714147383E+03  0.44728722053E+03  0.59548677504E+03  0.90977532794E+02 0.  0.
          5    1    3    3  502    0 -0.35145837701E+02  0.10672913130E+02  0.11989414670E+03  0.12546401793E+03  0.41800000000E+01 0. -1.
         -5    1    3    3    0  502 -0.30379756224E+03 -0.18781438696E+03  0.54060720285E+03  0.64795125044E+03  0.41800000000E+01 0. -1.
        -11    1    4    4    0    0  0.19963046412E+03  0.81884438442E+02  0.31121186088E+03  0.37869539979E+03  0.00000000000E+00 0. -1.
         11    1    4    4    0    0  0.13931293582E+03  0.95257035392E+02  0.13607535965E+03  0.21679137525E+03  0.00000000000E+00 0.  1.
</event>
<event>
 8    1  0.7112384E-009  0.1140849E+03  0.7561462E-02  0.1253187E+00
         -1   -1    0    0    0  501 -0.00000000000E+00  0.00000000000E+00  0.90071006880E+02  0.90071006880E+02  0.00000000000E+00 0.  1.
          1   -1    0    0  501    0  0.00000000000E+00 -0.00000000000E+00 -0.17820745533E+03  0.17820745533E+03  0.00000000000E+00 0. -1.
         25    2    1    2    0    0 -0.50176623826E+02 -0.35194030032E+02 -0.29950174671E+02  0.14248688305E+03  0.12509670480E+03 0.  0.
         23    2    1    2    0    0  0.50176623826E+02  0.35194030032E+02 -0.58186273778E+02  0.12579157916E+03  0.93174919382E+02 0.  0.
          5    1    3    3  502    0 -0.57936230810E+00  0.36022057222E+02  0.20855781828E+02  0.41837307547E+02  0.41800000000E+01 0.  1.
         -5    1    3    3    0  502 -0.49597261518E+02 -0.71216087253E+02 -0.50805956499E+02  0.10064957551E+03  0.41800000000E+01 0.  1.
        -11    1    4    4    0    0  0.42484518069E+02 -0.21629790623E+02 -0.47811877856E+02  0.67518573608E+02  0.00000000000E+00 0.  1.
         11    1    4    4    0    0  0.76921057566E+01  0.56823820655E+02 -0.10374395923E+02  0.58273005548E+02  0.00000000000E+00 0. -1.
</event>
<event>
 8    1  0.7112384E-009  0.9102206E+02  0.7561462E-02  0.1300395E+00
          2   -1    0    0  501    0  0.00000000000E+00  0.00000000000E+00  0.23487121999E+03  0.23487121999E+03  0.00000000000E+00 0. -1.
         -2   -1    0    0    0  501 -0.00000000000E+00 -0.00000000000E+00 -0.97406149372E+02  0.97406149372E+02  0.00000000000E+00 0.  1.
         25    2    1    2    0    0 -0.23017120448E+02 -0.28635968224E+01  0.18727099620E+03  0.22639735247E+03  0.12508935673E+03 0.  0.
         23    2    1    2    0    0  0.23017120448E+02  0.28635968224E+01 -0.49805925577E+02  0.10588001690E+03  0.90509445557E+02 0.  0.
          5    1    3    3  502    0 -0.46380898004E+02  0.44196213616E+02  0.14587360710E+03  0.15937714593E+03  0.41800000000E+01 0.  1.
         -5    1    3    3    0  502  0.23363777555E+02 -0.47059810438E+02  0.41397389103E+02  0.67020206540E+02  0.41800000000E+01 0.  1.
        -11    1    4    4    0    0 -0.20105066313E+02 -0.62625823221E+01  0.16159580679E+02  0.26543656050E+02  0.00000000000E+00 0. -1.
         11    1    4    4    0    0  0.43122186761E+02  0.91261791445E+01 -0.65965506256E+02  0.79336360847E+02  0.00000000000E+00 0.  1.
</event>
<event>
 8    1  0.7112384E-009  0.1793414E+03  0.7561462E-02  0.1168442E+00
          2   -1    0    0  501    0  0.00000000000E+00  0.00000000000E+00  0.32504463309E+03  0.32504463309E+03  0.00000000000E+00 0. -1.
         -2   -1    0    0    0  501 -0.00000000000E+00 -0.00000000000E+00 -0.12852066502E+03  0.12852066502E+03  0.00000000000E+00 0.  1.
         25    2    1    2    0    0 -0.95781324859E+01  0.17089237285E+03  0.78004516835E+02  0.22589573527E+03  0.12509290486E+03 0.  0.
         23    2    1    2    0    0  0.95781324859E+01 -0.17089237285E+03  0.11851945124E+03  0.22766956285E+03  0.92144591838E+02 0.  0.
          5    1    3    3  502    0  0.79574465992E+01  0.16910896012E+03  0.10056956910E+03  0.19695906168E+03  0.41800000000E+01 0.  1.
         -5    1    3    3    0  502 -0.17535579085E+02  0.17834127347E+01 -0.22565052265E+02  0.28936673592E+02  0.41800000000E+01 0.  1.
        -11    1    4    4    0    0  0.99520974935E+01 -0.15268362740E+03  0.56622079190E+02  0.16314838084E+03  0.00000000000E+00 0.  1.
         11    1    4    4    0    0 -0.37396500761E+00 -0.18208745452E+02  0.61897372046E+02  0.64521182002E+02  0.00000000000E+00 0. -1.
</event>
<event>
 8    1  0.7112384E-009  0.1301231E+03  0.7561462E-02  0.1227273E+00
          2   -1    0    0  501    0  0.00000000000E+00  0.00000000000E+00  0.23807267816E+03  0.23807267816E+03  0.00000000000E+00 0. -1.
         -2   -1    0    0    0  501 -0.00000000000E+00 -0.00000000000E+00 -0.97358743342E+02  0.97358743342E+02  0.00000000000E+00 0.  1.
         25    2    1    2    0    0  0.62345190174E+02 -0.81808283932E+02  0.10770983636E+03  0.19449620370E+03  0.12509135201E+03 0.  0.
         23    2    1    2    0    0 -0.62345190174E+02  0.81808283932E+02  0.33004098448E+02  0.14093521779E+03  0.90520423343E+02 0.  0.
          5    1    3    3  502    0  0.33318229664E+02  0.26255385701E+02  0.58017301544E+02  0.71992564788E+02  0.41800000000E+01 0.  1.
         -5    1    3    3    0  502  0.29026960509E+02 -0.10806366963E+03  0.49692534821E+02  0.12250363892E+03  0.41800000000E+01 0.  1.
        -11    1    4    4    0    0 -0.35666912478E+00  0.13119492434E+02 -0.27440098410E+02  0.30417220375E+02  0.00000000000E+00 0.  1.
         11    1    4    4    0    0 -0.61988521049E+02  0.68688791498E+02  0.60444196859E+02  0.11051799742E+03  0.00000000000E+00 0. -1.
</event>
<event>
 8    1  0.7112384E-009  0.9619974E+02  0.7561462E-02  0.1288497E+00
          2   -1    0    0  501    0  0.00000000000E+00  0.00000000000E+00  0.44667745704E+03  0.44667745704E+03  0.00000000000E+00 0. -1.
         -2   -1    0    0    0  501 -0.00000000000E+00 -0.00000000000E+00 -0.34892802849E+02  0.34892802849E+02  0.00000000000E+00 0.  1.
         25    2    1    2    0    0  0.37648329015E+02 -0.23553048597E+02  0.27779635097E+03  0.30788152699E+03  0.12509228304E+03 0.  0.
         23    2    1    2    0    0 -0.37648329015E+02  0.23553048597E+02  0.13398830322E+03  0.17368873290E+03  0.10120655986E+03 0.  0.
          5    1    3    3  502    0  0.48891245027E+01  0.24238451552E+02  0.10452614697E+01  0.25099223964E+02  0.41800000000E+01 0. -1.
         -5    1    3    3    0  502  0.32759204512E+02 -0.47791500149E+02  0.27675108950E+03  0.28278230303E+03  0.41800000000E+01 0. -1.
        -11    1    4    4    0    0 -0.61965432065E+02 -0.14901578470E+02  0.64864528173E+02  0.90935025303E+02  0.00000000000E+00 0. -1.
         11    1    4    4    0    0  0.24317103050E+02  0.38454627067E+02  0.69123775051E+02  0.82753707596E+02  0.00000000000E+00 0.  1.
</event>
<event>
 8    1  0.7112384E-009  0.8218826E+02  0.7561462E-02  0.1322954E+00
         -2   -1    0    0    0  501 -0.00000000000E+00  0.00000000000E+00  0.50854309554E+02  0.50854309554E+02  0.00000000000E+00 0.  1.
          2   -1    0    0  501    0  0.00000000000E+00 -0.00000000000E+00 -0.49374002185E+03  0.49374002185E+03  0.00000000000E+00 0. -1.
         25    2    1    2    0    0 -0.42862656259E+02 -0.19934114789E+02 -0.41809842456E+03  0.43896247437E+03  0.12508870873E+03 0.  0.
         23    2    1    2    0    0  0.42862656259E+02  0.19934114789E+02 -0.24787287732E+02  0.10563185703E+03  0.91154283238E+02 0.  0.
          5    1    3    3  502    0  0.14244288888E+02 -0.35294624847E+02 -0.33331993357E+03  0.33551193842E+03  0.41800000000E+01 0. -1.
         -5    1    3    3    0  502 -0.57106945147E+02  0.15360510059E+02 -0.84778490995E+02  0.10345053595E+03  0.41800000000E+01 0. -1.
        -11    1    4    4    0    0  0.18893463424E+02  0.34082828100E+02  0.26605917006E+02  0.47185558715E+02  0.00000000000E+00 0.  1.
         11    1    4    4    0    0  0.23969192834E+02 -0.14148713312E+02 -0.51393204738E+02  0.58446298315E+02  0.00000000000E+00 0. -1.
</event>
<event>
 8    1  0.7112384E-009  0.1033726E+03  0.7561462E-02  0.1273360E+00
         -2   -1    0    0    0  501 -0.00000000000E+00  0.00000000000E+00  0.21115868437E+03  0.21115868437E+03  0.00000000000E+00 0.  1.
          2   -1    0    0  501    0  0.00000000000E+00 -0.00000000000E+00 -0.91791341245E+02  0.91791341245E+02  0.00000000000E+00 0. -1.
         25    2    1    2    0    0 -0.62646272064E+02  0.61663406286E+02  0.56337383108E+02  0.16293781825E+03  0.12509156967E+03 0.  0.
         23    2    1    2    0    0  0.62646272064E+02 -0.61663406286E+02  0.63029960014E+02  0.14001220736E+03  0.88902819264E+02 0.  0.
          5    1    3    3  502    0  0.18338168850E+02  0.17830141108E+02 -0.27889289526E+02  0.38072132052E+02  0.41800000000E+01 0.  1.
         -5    1    3    3    0  502 -0.80984440914E+02  0.43833265178E+02  0.84226672634E+02  0.12486568620E+03  0.41800000000E+01 0.  1.
        -11    1    4    4    0    0  0.54040116927E+02 -0.46875540806E+02  0.85684786383E+02  0.11162227905E+03  0.00000000000E+00 0.  1.
         11    1    4    4    0    0  0.86061551370E+01 -0.14787865480E+02 -0.22654826369E+02  0.28389928311E+02  0.00000000000E+00 0. -1.
</event>
<event>
 8    1  0.7112384E-009  0.2096298E+03  0.7561462E-02  0.1141860E+00
          1   -1    0    0  501    0  0.00000000000E+00  0.00000000000E+00  0.86410592674E+03  0.86410592674E+03  0.00000000000E+00 0. -1.
         -1   -1    0    0    0  501 -0.00000000000E+00 -0.00000000000E+00 -0.55563352315E+02  0.55563352315E+02  0.00000000000E+00 0.  1.
         25    2    1    2    0    0  0.18725661682E+03 -0.45996252205E+01  0.35099790698E+03  0.41705239774E+03  0.12508786775E+03 0.  0.
         23    2    1    2    0    0 -0.18725661682E+03  0.45996252205E+01  0.45754466744E+03  0.50261688132E+03  0.90500881678E+02 0.  0.
          5    1    3    3  502    0  0.30353286767E+02 -0.39996430013E+02  0.31759862135E+02  0.59558355201E+02  0.41800000000E+01 0. -1.
         -5    1    3    3    0  502  0.15690333005E+03  0.35396804793E+02  0.31923804485E+03  0.35749404253E+03  0.41800000000E+01 0. -1.
        -11    1    4    4    0    0 -0.12805782016E+03  0.45633264490E+02  0.30454989331E+03  0.33351437398E+03  0.00000000000E+00 0. -1.
         11    1    4    4    0    0 -0.59198796656E+02 -0.41033639270E+02  0.15299477413E+03  0.16910250734E+03  0.00000000000E+00 0.  1.
</event>
<event>
 8    1  0.7112384E-009  0.9918863E+02  0.7561462E-02  0.1282011E+00
         -2   -1    0    0    0  501 -0.00000000000E+00  0.00000000000E+00  0.23303852634E+03  0.23303852634E+03  0.00000000000E+00 0.  1.
          2   -1    0    0  501    0  0.00000000000E+00 -0.00000000000E+00 -0.73746142419E+02  0.73746142419E+02  0.00000000000E+00 0. -1.
         25    2    1    2    0    0  0.34098706540E+02 -0.70400998003E+02  0.89729428700E+02  0.17268009410E+03  0.12509205497E+03 0.  0.
         23    2    1    2    0    0 -0.34098706540E+02  0.70400998003E+02  0.69562955216E+02  0.13410457465E+03  0.83821297396E+02 0.  0.
          5    1    3    3  502    0  0.52279776473E+00  0.77762087372E+01 -0.26864393671E+02  0.28282694128E+02  0.41800000000E+01 0. -1.
         -5    1    3    3    0  502  0.33575908775E+02 -0.78177206741E+02  0.11659382237E+03  0.14439739997E+03  0.41800000000E+01 0. -1.
        -11    1    4    4    0    0 -0.30602338597E+02 -0.31047607936E+01 -0.28136380623E+01  0.30887849170E+02  0.00000000000E+00 0. -1.
         11    1    4    4    0    0 -0.34963679432E+01  0.73505758797E+02  0.72376593278E+02  0.10321672548E+03  0.00000000000E+00 0.  1.
</event>
<event>
 8    1  0.7112384E-009  0.1560824E+03  0.7561462E-02  0.1193192E+00
         -1   -1    0    0    0  501 -0.00000000000E+00  0.00000000000E+00  0.19173850181E+03  0.19173850181E+03  0.00000000000E+00 0.  1.
          1   -1    0    0  501    0  0.00000000000E+00 -0.00000000000E+00 -0.15350127428E+03  0.15350127428E+03  0.00000000000E+00 0. -1.
         25    2    1    2    0    0  0.11961249393E+03 -0.51629704380E+02  0.45931272780E+02  0.18636124442E+03  0.12509219210E+03 0.  0.
         23    2    1    2    0    0 -0.11961249393E+03  0.51629704380E+02 -0.76940452496E+01  0.15887853166E+03  0.90611337096E+02 0.  0.
          5    1    3    3  502    0 -0.25235111472E+02 -0.58474441326E+01 -0.36898865368E+01  0.26497002029E+02  0.41800000000E+01 0. -1.
         -5    1    3    3    0  502  0.14484760540E+03 -0.45782260248E+02  0.49621159317E+02  0.15986424239E+03  0.41800000000E+01 0. -1.
        -11    1    4    4    0    0 -0.55482279801E+02  0.72156698828E+01  0.38780564751E+02  0.68075557039E+02  0.00000000000E+00 0.  1.
         11    1    4    4    0    0 -0.64130214131E+02  0.44414034498E+02 -0.46474610001E+02  0.90802974618E+02  0.00000000000E+00 0. -1.
</event>
<event>
 8    1  0.7112384E-009  0.1018033E+03  0.7561462E-02  0.1276549E+00
         -2   -1    0    0    0  501 -0.00000000000E+00  0.00000000000E+00  0.18121020205E+03  0.18121020205E+03  0.00000000000E+00 0.  1.
          2   -1    0    0  501    0  0.00000000000E+00 -0.00000000000E+00 -0.79993467353E+02  0.79993467353E+02  0.00000000000E+00 0. -1.
         25    2    1    2    0    0  0.49510303063E+02  0.19569040611E+01  0.78383400946E+02  0.15571486028E+03  0.12509220833E+03 0.  0.
         23    2    1    2    0    0 -0.49510303063E+02 -0.19569040611E+01  0.22833333756E+02  0.10548880913E+03  0.90285259808E+02 0.  0.
          5    1    3    3  502    0  0.74231237284E+02  0.25039490422E+02  0.97103495674E+01  0.79050717631E+02  0.41800000000E+01 0. -1.
         -5    1    3    3    0  502 -0.24720934221E+02 -0.23082586361E+02  0.68673051379E+02  0.76664142645E+02  0.41800000000E+01 0. -1.
        -11    1    4    4    0    0  0.16281971962E+02 -0.17048249094E+02 -0.15161910338E+02  0.28029073000E+02  0.00000000000E+00 0. -1.
         11    1    4    4    0    0 -0.65792275024E+02  0.15091345033E+02  0.37995244094E+02  0.77459736131E+02  0.00000000000E+00 0.  1.
</event>
<event>
 8    1  0.7112384E-009  0.1082119E+03  0.7561462E-02  0.1263917E+00
         -1   -1    0    0    0  501 -0.00000000000E+00  0.00000000000E+00  0.64912042016E+02  0.64912042016E+02  0.00000000000E+00 0.  1.
          1   -1    0    0  501    0  0.00000000000E+00 -0.00000000000E+00 -0.37926807097E+03  0.37926807097E+03  0.00000000000E+00 0. -1.
         25    2    1    2    0    0  0.86889633247E+02 -0.48534258191E+01 -0.69833318869E+02  0.16762069937E+03  0.12508653935E+03 0.  0.
         23    2    1    2    0    0 -0.86889633247E+02  0.48534258191E+01 -0.24452271008E+03  0.27655941361E+03  0.95500729855E+02 0.  0.
          5    1    3    3  502    0  0.44659202832E+00  0.71201786750E+01 -0.79309978773E+02  0.79739836480E+02  0.41800000000E+01 0.  1.
         -5    1    3    3    0  502  0.86443041219E+02 -0.11973604494E+02  0.94766599040E+01  0.87880862892E+02  0.41800000000E+01 0.  1.
        -11    1    4    4    0    0 -0.35259387177E+02 -0.39337771316E+02 -0.15763140627E+03  0.16624784172E+03  0.00000000000E+00 0.  1.
         11    1    4    4    0    0 -0.51630246070E+02  0.44191197135E+02 -0.86891303818E+02  0.11031157189E+03  0.00000000000E+00 0. -1.
</event>
<event>
 8    1  0.7112384E-009  0.1276069E+03  0.7561462E-02  0.1231050E+00
          2   -1    0    0  501    0  0.00000000000E+00  0.00000000000E+00  0.23795294878E+03  0.23795294878E+03  0.00000000000E+00 0. -1.
         -2   -1    0    0    0  501 -0.00000000000E+00 -0.00000000000E+00 -0.12473991439E+03  0.12473991439E+03  0.00000000000E+00 0.  1.
         25    2    1    2    0    0 -0.46650825043E+02  0.68751068286E+02 -0.48969434132E+02  0.15794978753E+03  0.12508845283E+03 0.  0.
         23    2    1    2    0    0  0.46650825043E+02 -0.68751068286E+02  0.16218246852E+03  0.20474307565E+03  0.93346478570E+02 0.  0.
          5    1    3    3  502    0 -0.69141975271E+02  0.85587410203E+02 -0.62369667815E+02  0.12654353161E+03  0.41800000000E+01 0.  1.
         -5    1    3    3    0  502  0.22491150228E+02 -0.16836341916E+02  0.13400233684E+02  0.31406255913E+02  0.41800000000E+01 0.  1.
        -11    1    4    4    0    0  0.12245822979E+02  0.18912435901E+02  0.76831214310E+01  0.23804847554E+02  0.00000000000E+00 0.  1.
         11    1    4    4    0    0  0.34405002064E+02 -0.87663504187E+02  0.15449934709E+03  0.18093822809E+03  0.00000000000E+00 0. -1.
</event>
<event>
 8    1  0.7112384E-009  0.1041979E+03  0.7561462E-02  0.1271708E+00
         -2   -1    0    0    0  501 -0.00000000000E+00  0.00000000000E+00  0.52377489523E+02  0.52377489523E+02  0.00000000000E+00 0. -1.
          2   -1    0    0  501    0  0.00000000000E+00 -0.00000000000E+00 -0.26097942734E+03  0.26097942734E+03  0.00000000000E+00 0.  1.
         25    2    1    2    0    0 -0.57257865676E+01 -0.42438264580E+02 -0.10510540906E+03  0.16890250944E+03  0.12508844770E+03 0.  0.
         23    2    1    2    0    0  0.57257865676E+01  0.42438264580E+02 -0.10349652875E+03  0.14445440742E+03  0.91223645108E+02 0.  0.
          5    1    3    3  502    0 -0.26557448687E+02 -0.69237925137E+02 -0.11163369045E+03  0.13408482987E+03  0.41800000000E+01 0.  1.
         -5    1    3    3    0  502  0.20831662120E+02  0.26799660557E+02  0.65282813887E+01  0.34817679569E+02  0.41800000000E+01 0.  1.
        -11    1    4    4    0    0 -0.28651269961E+02 -0.15482714156E+02 -0.42838576488E+02  0.53812204411E+02  0.00000000000E+00 0.  1.
         11    1    4    4    0    0  0.34377056529E+02  0.57920978736E+02 -0.60657952264E+02  0.90642203008E+02  0.00000000000E+00 0. -1.
</event>
<event>
 8    1  0.7112384E-009  0.1029667E+03  0.7561462E-02  0.1274178E+00
          1   -1    0    0  501    0  0.00000000000E+00  0.00000000000E+00  0.83098021965E+02  0.83098021965E+02  0.00000000000E+00 0. -1.
         -1   -1    0    0    0  501 -0.00000000000E+00 -0.00000000000E+00 -0.16669136477E+03  0.16669136477E+03  0.00000000000E+00 0.  1.
         25    2    1    2    0    0  0.40556583483E+02 -0.13840368357E+02 -0.45980865425E+02  0.13999170194E+03  0.12508814638E+03 0.  0.
         23    2    1    2    0    0 -0.40556583483E+02  0.13840368357E+02 -0.37612477384E+02  0.10979768480E+03  0.93831982145E+02 0.  0.
          5    1    3    3  502    0  0.71387465716E+02 -0.27869831443E+02  0.68947598872E+01  0.77057821666E+02  0.41800000000E+01 0.  1.
         -5    1    3    3    0  502 -0.30830882233E+02  0.14029463085E+02 -0.52875625312E+02  0.62933880270E+02  0.41800000000E+01 0.  1.
        -11    1    4    4    0    0 -0.51287902457E+02 -0.23345774727E+02 -0.42780449263E+02  0.70750554593E+02  0.00000000000E+00 0.  1.
         11    1    4    4    0    0  0.10731318974E+02  0.37186143084E+02  0.51679718790E+01  0.39047130211E+02  0.00000000000E+00 0. -1.
</event>
<event>
 8    1  0.7112384E-009  0.1221987E+03  0.7561462E-02  0.1239513E+00
          1   -1    0    0  501    0  0.00000000000E+00  0.00000000000E+00  0.90655408926E+02  0.90655408926E+02  0.00000000000E+00 0. -1.
         -1   -1    0    0    0  501 -0.00000000000E+00 -0.00000000000E+00 -0.24714528133E+03  0.24714528133E+03  0.00000000000E+00 0.  1.
         25    2    1    2    0    0 -0.80921895783E+02  0.54512799386E+02 -0.50053657344E+02  0.16634781346E+03  0.12508488284E+03 0.  0.
         23    2    1    2    0    0  0.80921895783E+02 -0.54512799386E+02 -0.10643621506E+03  0.17145287680E+03  0.92452271860E+02 0.  0.
          5    1    3    3  502    0  0.25253376303E+01  0.60165538061E+02 -0.56073063385E+02  0.82388895719E+02  0.41800000000E+01 0. -1.
         -5    1    3    3    0  502 -0.83447233413E+02 -0.56527386746E+01  0.60194060418E+01  0.83958917739E+02  0.41800000000E+01 0. -1.
        -11    1    4    4    0    0  0.35254017044E+02 -0.10300883236E+02  0.10636914614E+02  0.38237388322E+02  0.00000000000E+00 0. -1.
         11    1    4    4    0    0  0.45667878739E+02 -0.44211916150E+02 -0.11707312967E+03  0.13321548848E+03  0.00000000000E+00 0.  1.
</event>
<event>
 8    1  0.7112384E-009  0.1010713E+03  0.7561462E-02  0.1278059E+00
          2   -1    0    0  501    0  0.00000000000E+00  0.00000000000E+00  0.32008906254E+03  0.32008906254E+03  0.00000000000E+00 0. -1.
         -2   -1    0    0    0  501 -0.00000000000E+00 -0.00000000000E+00 -0.56368922928E+02  0.56368922928E+02  0.00000000000E+00 0.  1.
         25    2    1    2    0    0 -0.49264059641E+02  0.43547452870E+02  0.84542275628E+02  0.16467995338E+03  0.12509501370E+03 0.  0.
         23    2    1    2    0    0  0.49264059641E+02 -0.43547452870E+02  0.17917786398E+03  0.21177803209E+03  0.91770908851E+02 0.  0.
          5    1    3    3  502    0 -0.18743848217E+01  0.42439020231E+02 -0.21979607695E+02  0.48012074638E+02  0.41800000000E+01 0.  1.
         -5    1    3    3    0  502 -0.47389674819E+02  0.11084326391E+01  0.10652188332E+03  0.11666787874E+03  0.41800000000E+01 0.  1.
        -11    1    4    4    0    0 -0.26872783123E+02 -0.12687012357E+02  0.60957938071E+02  0.67815757529E+02  0.00000000000E+00 0.  1.
         11    1    4    4    0    0  0.76136842764E+02 -0.30860440513E+02  0.11821992591E+03  0.14396227456E+03  0.00000000000E+00 0. -1.
</event>
<event>
 8    1  0.7112384E-009  0.8688247E+02  0.7561462E-02  0.1310582E+00
          2   -1    0    0  501    0  0.00000000000E+00  0.00000000000E+00  0.20476686959E+03  0.20476686959E+03  0.00000000000E+00 0. -1.
         -2   -1    0    0    0  501 -0.00000000000E+00 -0.00000000000E+00 -0.83570772311E+02  0.83570772311E+02  0.00000000000E+00 0.  1.
         25    2    1    2    0    0  0.44654698943E+02 -0.51512855266E+02  0.52254429393E+02  0.15174363951E+03  0.12509192758E+03 0.  0.
         23    2    1    2    0    0 -0.44654698943E+02  0.51512855266E+02  0.68941667883E+02  0.13659400239E+03  0.96215131464E+02 0.  0.
          5    1    3    3  502    0  0.35714615507E+02 -0.36044067694E+02 -0.35515129462E+02  0.62076609100E+02  0.41800000000E+01 0.  1.
         -5    1    3    3    0  502  0.89400834362E+01 -0.15468787573E+02  0.87769558854E+02  0.89667030409E+02  0.41800000000E+01 0.  1.
        -11    1    4    4    0    0 -0.33444593125E+02 -0.15284098544E+02 -0.40791949808E+01  0.36997085146E+02  0.00000000000E+00 0.  1.
         11    1    4    4    0    0 -0.11210105818E+02  0.66796953811E+02  0.73020862864E+02  0.99596917242E+02  0.00000000000E+00 0. -1.
</event>
<event>
 8    1  0.7112384E-009  0.1042663E+03  0.7561462E-02  0.1271572E+00
          1   -1    0    0  501    0  0.00000000000E+00  0.00000000000E+00  0.45972259015E+02  0.45972259015E+02  0.00000000000E+00 0. -1.
         -1   -1    0    0    0  501 -0.00000000000E+00 -0.00000000000E+00 -0.27234063749E+03  0.27234063749E+03  0.00000000000E+00 0.  1.
         25    2    1    2    0    0  0.17562890608E+02 -0.22909050334E+02 -0.13788997842E+03  0.18840386062E+03  0.12509631823E+03 0.  0.
         23    2    1    2    0    0 -0.17562890608E+02  0.22909050334E+02 -0.88478400055E+02  0.12990903589E+03  0.90634709768E+02 0.  0.
          5    1    3    3  502    0 -0.27939119587E+02  0.31568358576E+02 -0.12350183139E+02  0.44126580312E+02  0.41800000000E+01 0. -1.
         -5    1    3    3    0  502  0.45502010195E+02 -0.54477408911E+02 -0.12553979528E+03  0.14427728030E+03  0.41800000000E+01 0. -1.
        -11    1    4    4    0    0 -0.14137723309E+02 -0.34640688675E+02 -0.36979439732E+02  0.52605432183E+02  0.00000000000E+00 0. -1.
         11    1    4    4    0    0 -0.34251672995E+01  0.57549739009E+02 -0.51498960324E+02  0.77303603703E+02  0.00000000000E+00 0.  1.
</event>
<event>
 8    1  0.7112384E-009  0.9213036E+02  0.7561462E-02  0.1297773E+00
          2   -1    0    0  501    0  0.00000000000E+00  0.00000000000E+00  0.97477783730E+03  0.97477783730E+03  0.00000000000E+00 0. -1.
         -2   -1    0    0    0  501 -0.00000000000E+00 -0.00000000000E+00 -0.12642655875E+02  0.12642655875E+02  0.00000000000E+00 0.  1.
         25    2    1    2    0    0  0.13160742175E+02 -0.16807486145E+02  0.58836819788E+03  0.60189773586E+03  0.12509217172E+03 0.  0.
         23    2    1    2    0    0 -0.13160742175E+02  0.16807486145E+02  0.37376698355E+03  0.38552275732E+03  0.92034459291E+02 0.  0.
          5    1    3    3  502    0  0.16759409605E+02 -0.54970585166E+02  0.13357731963E+03  0.14547513795E+03  0.41800000000E+01 0.  1.
         -5    1    3    3    0  502 -0.35986674304E+01  0.38163099020E+02  0.45479087825E+03  0.45642259790E+03  0.41800000000E+01 0.  1.
        -11    1    4    4    0    0 -0.13088325700E+02  0.51627426285E+02  0.28927336861E+03  0.29413564422E+03  0.00000000000E+00 0. -1.
         11    1    4    4    0    0 -0.72416475036E-01 -0.34819940140E+02  0.84493614936E+02  0.91387113099E+02  0.00000000000E+00 0.  1.
</event>
<event>
 8    1  0.7112384E-009  0.1124029E+03  0.7561462E-02  0.1256184E+00
         -2   -1    0    0    0  501 -0.00000000000E+00  0.00000000000E+00  0.61862705001E+02  0.61862705001E+02  0.00000000000E+00 0. -1.
          2   -1    0    0  501    0  0.00000000000E+00 -0.00000000000E+00 -0.31010237673E+03  0.31010237673E+03  0.00000000000E+00 0.  1.
         25    2    1    2    0    0 -0.42345746619E+02  0.53787721449E+02 -0.20141939503E+03  0.24678695193E+03  0.12509094976E+03 0.  0.
         23    2    1    2    0    0  0.42345746619E+02 -0.53787721449E+02 -0.46820276696E+02  0.12517812980E+03  0.93761104061E+02 0.  0.
          5    1    3    3  502    0 -0.54054686741E+01  0.78678806148E+02 -0.62117929029E+02  0.10047727671E+03  0.41800000000E+01 0.  1.
         -5    1    3    3    0  502 -0.36940277945E+02 -0.24891084699E+02 -0.13930146600E+03  0.14630967522E+03  0.41800000000E+01 0.  1.
        -11    1    4    4    0    0  0.36470973757E+02  0.93744880387E+01 -0.48888258707E+02  0.61709600486E+02  0.00000000000E+00 0.  1.
         11    1    4    4    0    0  0.58747728626E+01 -0.63162209488E+02  0.20679820112E+01  0.63468529313E+02  0.00000000000E+00 0. -1.
</event>
<event>
 8    1  0.7112384E-009  0.2850327E+03  0.7561462E-02  0.1092972E+00
          2   -1    0    0  501    0  0.00000000000E+00  0.00000000000E+00  0.70011544952E+03  0.70011544952E+03  0.00000000000E+00 0. -1.
         -2   -1    0    0    0  501 -0.00000000000E+00 -0.00000000000E+00 -0.19918720192E+03  0.19918720192E+03  0.00000000000E+00 0.  1.
         25    2    1    2    0    0 -0.14329605272E+03 -0.23557185652E+03  0.52717321381E+03  0.60793652341E+03  0.12508941134E+03 0.  0.
         23    2    1    2    0    0  0.14329605272E+03  0.23557185652E+03 -0.26244966209E+02  0.29136612803E+03  0.90429884458E+02 0.  0.
          5    1    3    3  502    0 -0.14606805191E+03 -0.24281965837E+03  0.52782934104E+03  0.59909811212E+03  0.41800000000E+01 0.  1.
         -5    1    3    3    0  502  0.27719991894E+01  0.72478018563E+01 -0.65612722781E+00  0.88384112935E+01  0.41800000000E+01 0.  1.
        -11    1    4    4    0    0  0.72532037258E+02  0.86850369549E+02 -0.52235906779E+02  0.12462934276E+03  0.00000000000E+00 0.  1.
         11    1    4    4    0    0  0.70764015462E+02  0.14872148697E+03  0.25990940570E+02  0.16673678527E+03  0.00000000000E+00 0. -1.
</event>
<event>
 8    1  0.7112384E-009  0.1498023E+03  0.7561462E-02  0.1200716E+00
          2   -1    0    0  501    0  0.00000000000E+00  0.00000000000E+00  0.38538060957E+03  0.38538060957E+03  0.00000000000E+00 0. -1.
         -2   -1    0    0    0  501 -0.00000000000E+00 -0.00000000000E+00 -0.85274568596E+02  0.85274568596E+02  0.00000000000E+00 0.  1.
         25    2    1    2    0    0  0.11722655528E+03 -0.75002258904E+02  0.10647321333E+03  0.21529468571E+03  0.12509137634E+03 0.  0.
         23    2    1    2    0    0 -0.11722655528E+03  0.75002258904E+02  0.19363282765E+03  0.25536049246E+03  0.91366870697E+02 0.  0.
          5    1    3    3  502    0 -0.74041784025E+01 -0.11950908189E+02  0.69112590777E+02  0.70651742146E+02  0.41800000000E+01 0. -1.
         -5    1    3    3    0  502  0.12463073368E+03 -0.63051350715E+02  0.37360622549E+02  0.14464294356E+03  0.41800000000E+01 0. -1.
        -11    1    4    4    0    0 -0.14236672875E+02  0.29203944151E+02  0.11084898669E+03  0.11551212516E+03  0.00000000000E+00 0. -1.
         11    1    4    4    0    0 -0.10298988241E+03  0.45798314753E+02  0.82783840959E+02  0.13984836730E+03  0.00000000000E+00 0.  1.
</event>
<event>
 8    1  0.7112384E-009  0.5486662E+02  0.7561462E-02  0.1420731E+00
         -2   -1    0    0    0  501 -0.00000000000E+00  0.00000000000E+00  0.16282796130E+03  0.16282796130E+03  0.00000000000E+00 0.  1.
          2   -1    0    0  501    0  0.00000000000E+00 -0.00000000000E+00 -0.75429286813E+02  0.75429286813E+02  0.00000000000E+00 0. -1.
         25    2    1    2    0    0  0.15183175210E+02 -0.17336493037E+02  0.38587054195E+02  0.13292046064E+03  0.12509118796E+03 0.  0.
         23    2    1    2    0    0 -0.15183175210E+02  0.17336493037E+02  0.48811620289E+02  0.10533678747E+03  0.90455412873E+02 0.  0.
          5    1    3    3  502    0 -0.51839801342E+01  0.76417477475E+01 -0.43483564449E+02  0.44649330744E+02  0.41800000000E+01 0. -1.
         -5    1    3    3    0  502  0.20367155344E+02 -0.24978240784E+02  0.82070618644E+02  0.88271129901E+02  0.41800000000E+01 0. -1.
        -11    1    4    4    0    0  0.18268124482E+02  0.26708431836E+02  0.60561533113E+02  0.68664139084E+02  0.00000000000E+00 0.  1.
         11    1    4    4    0    0 -0.33451299692E+02 -0.93719387987E+01 -0.11749912823E+02  0.36672648381E+02  0.00000000000E+00 0. -1.
</event>
<event>
 8    1  0.7112384E-009  0.1147607E+03  0.7561462E-02  0.1251999E+00
          2   -1    0    0  501    0  0.00000000000E+00  0.00000000000E+00  0.48244989631E+02  0.48244989631E+02  0.00000000000E+00 0.  1.
         -2   -1    0    0    0  501 -0.00000000000E+00 -0.00000000000E+00 -0.31132947005E+03  0.31132947005E+03  0.00000000000E+00 0. -1.
         25    2    1    2    0    0 -0.47225920290E+02  0.28424912390E+02 -0.12059197300E+03  0.18227610782E+03  0.12507554652E+03 0.  0.
         23    2    1    2    0    0  0.47225920290E+02 -0.28424912390E+02 -0.14249250742E+03  0.17729835187E+03  0.89957366086E+02 0.  0.
          5    1    3    3  502    0 -0.75749072687E+02  0.47530652489E+02 -0.47339293519E+02  0.10126976869E+03  0.41800000000E+01 0.  1.
         -5    1    3    3    0  502  0.28523152398E+02 -0.19105740099E+02 -0.73252679484E+02  0.81006339129E+02  0.41800000000E+01 0.  1.
        -11    1    4    4    0    0  0.64743201566E+02  0.77642893510E+01 -0.84586288299E+02  0.10680265215E+03  0.00000000000E+00 0. -1.
         11    1    4    4    0    0 -0.17517281277E+02 -0.36189201741E+02 -0.57906219118E+02  0.70495699717E+02  0.00000000000E+00 0.  1.
</event>
<event>
 8    1  0.7112384E-009  0.1117536E+03  0.7561462E-02  0.1257357E+00
         -2   -1    0    0    0  501 -0.00000000000E+00  0.00000000000E+00  0.44974863647E+02  0.44974863647E+02  0.00000000000E+00 0.  1.
          2   -1    0    0  501    0  0.00000000000E+00 -0.00000000000E+00 -0.41702678538E+03  0.41702678538E+03  0.00000000000E+00 0. -1.
         25    2    1    2    0    0  0.45913183826E+02 -0.30133207153E+02 -0.97111155694E+02  0.16761312210E+03  0.12509017354E+03 0.  0.
         23    2    1    2    0    0 -0.45913183826E+02  0.30133207153E+02 -0.27494076604E+03  0.29438852693E+03  0.89756054594E+02 0.  0.
          5    1    3    3  502    0  0.78996343890E+02 -0.30947961268E+01 -0.96314032775E+02  0.12467503928E+03  0.41800000000E+01 0. -1.
         -5    1    3    3    0  502 -0.33083160064E+02 -0.27038411026E+02 -0.79712291954E+00  0.42938082812E+02  0.41800000000E+01 0. -1.
        -11    1    4    4    0    0  0.25359696114E+02  0.50969762326E+01 -0.10954980570E+03  0.11256221960E+03  0.00000000000E+00 0. -1.
         11    1    4    4    0    0 -0.71272879940E+02  0.25036230920E+02 -0.16539096034E+03  0.18182630733E+03  0.00000000000E+00 0.  1.
</event>
<event>
 8    1  0.7112384E-009  0.1527561E+03  0.7561462E-02  0.1197127E+00
         -1   -1    0    0    0  501 -0.00000000000E+00  0.00000000000E+00  0.25858350545E+02  0.25858350545E+02  0.00000000000E+00 0.  1.
          1   -1    0    0  501    0  0.00000000000E+00 -0.00000000000E+00 -0.10313981927E+04  0.10313981927E+04  0.00000000000E+00 0. -1.
         25    2    1    2    0    0 -0.11942079160E+03 -0.21168325296E+02 -0.56750129838E+03  0.59364615896E+03  0.12509442401E+03 0.  0.
         23    2    1    2    0    0  0.11942079160E+03  0.21168325296E+02 -0.43803854382E+03  0.46361038434E+03  0.91364101961E+02 0.  0.
          5    1    3    3  502    0 -0.20931178594E+02  0.48419326560E+02 -0.19752236894E+03  0.20448741783E+03  0.41800000000E+01 0. -1.
         -5    1    3    3    0  502 -0.98489613006E+02 -0.69587651856E+02 -0.36997892944E+03  0.38915874112E+03  0.41800000000E+01 0. -1.
        -11    1    4    4    0    0  0.49508576391E+02  0.35043346301E+02 -0.32018653236E+03  0.32588119117E+03  0.00000000000E+00 0. -1.
         11    1    4    4    0    0  0.69912215209E+02 -0.13875021005E+02 -0.11785201147E+03  0.13772919317E+03  0.00000000000E+00 0.  1.
</event>
<event>
 8    1  0.7112384E-009  0.9200917E+02  0.7561462E-02  0.1298058E+00
         -1   -1    0    0    0  501 -0.00000000000E+00  0.00000000000E+00  0.41329629385E+03  0.41329629385E+03  0.00000000000E+00 0.  1.
          1   -1    0    0  501    0  0.00000000000E+00 -0.00000000000E+00 -0.39726857616E+02  0.39726857616E+02  0.00000000000E+00 0. -1.
         25    2    1    2    0    0  0.39541388478E+02  0.42847545435E+02  0.14984209686E+03  0.20371409012E+03  0.12508933996E+03 0.  0.
         23    2    1    2    0    0 -0.39541388478E+02 -0.42847545435E+02  0.22372733938E+03  0.24930906134E+03  0.93282646454E+02 0.  0.
          5    1    3    3  502    0  0.77157411595E+01  0.47766700986E+02 -0.18339636400E+01  0.48600681141E+02  0.41800000000E+01 0.  1.
         -5    1    3    3    0  502  0.31825647318E+02 -0.49191555508E+01  0.15167606050E+03  0.15511340898E+03  0.41800000000E+01 0.  1.
        -11    1    4    4    0    0  0.24465155486E+02  0.24165156352E+01  0.22405613258E+02  0.33262514731E+02  0.00000000000E+00 0. -1.
         11    1    4    4    0    0 -0.64006543963E+02 -0.45264061071E+02  0.20132172612E+03  0.21604654661E+03  0.00000000000E+00 0.  1.
</event>
<event>
 8    1  0.7112384E-009  0.1111503E+03  0.7561462E-02  0.1258454E+00
         -2   -1    0    0    0  501 -0.00000000000E+00  0.00000000000E+00  0.50558424540E+03  0.50558424540E+03  0.00000000000E+00 0.  1.
          2   -1    0    0  501    0  0.00000000000E+00 -0.00000000000E+00 -0.34311417632E+02  0.34311417632E+02  0.00000000000E+00 0. -1.
         25    2    1    2    0    0 -0.57940365420E+02 -0.37480540689E+02  0.31618029097E+03  0.34695866401E+03  0.12509380983E+03 0.  0.
         23    2    1    2    0    0  0.57940365420E+02  0.37480540689E+02  0.15509253680E+03  0.19293699903E+03  0.91701219987E+02 0.  0.
          5    1    3    3  502    0 -0.92038548606E+02 -0.51687192675E+02  0.22987558831E+03  0.25298798156E+03  0.41800000000E+01 0. -1.
         -5    1    3    3    0  502  0.34098183186E+02  0.14206651986E+02  0.86304702667E+02  0.93970682447E+02  0.41800000000E+01 0. -1.
        -11    1    4    4    0    0  0.47738728665E+02  0.81492599338E+01  0.15446161835E+03  0.16187584191E+03  0.00000000000E+00 0.  1.
         11    1    4    4    0    0  0.10201636755E+02  0.29331280755E+02  0.63091845161E+00  0.31061157115E+02  0.00000000000E+00 0. -1.
</event>
<event>
 8    1  0.7112384E-009  0.1006070E+03  0.7561462E-02  0.1279025E+00
         -2   -1    0    0    0  501 -0.00000000000E+00  0.00000000000E+00  0.34532425691E+02  0.34532425691E+02  0.00000000000E+00 0.  1.
          2   -1    0    0  501    0  0.00000000000E+00 -0.00000000000E+00 -0.49869296815E+03  0.49869296815E+03  0.00000000000E+00 0. -1.
         25    2    1    2    0    0 -0.34433625612E+02  0.61469176334E+02 -0.22352568797E+03  0.26566018912E+03  0.12508984246E+03 0.  0.
         23    2    1    2    0    0  0.34433625612E+02 -0.61469176334E+02 -0.24063485449E+03  0.26756520472E+03  0.93390959799E+02 0.  0.
          5    1    3    3  502    0 -0.69247424385E+02  0.38149581689E+02 -0.20480724648E+03  0.21957704110E+03  0.41800000000E+01 0.  1.
         -5    1    3    3    0  502  0.34813798773E+02  0.23319594645E+02 -0.18718441491E+02  0.46083148018E+02  0.41800000000E+01 0.  1.
        -11    1    4    4    0    0  0.20465997827E+02 -0.40808665386E+01 -0.11457000535E+01  0.20900315007E+02  0.00000000000E+00 0.  1.
         11    1    4    4    0    0  0.13967627785E+02 -0.57388309796E+02 -0.23948915443E+03  0.24666488972E+03  0.00000000000E+00 0. -1.
</event>
<event>
 8    1  0.7112384E-009  0.1098932E+03  0.7561462E-02  0.1260768E+00
          2   -1    0    0  501    0  0.00000000000E+00  0.00000000000E+00  0.51097559278E+02  0.51097559278E+02  0.00000000000E+00 0. -1.
         -2   -1    0    0    0  501 -0.00000000000E+00 -0.00000000000E+00 -0.33436323402E+03  0.33436323402E+03  0.00000000000E+00 0.  1.
         25    2    1    2    0    0  0.11318085063E+02 -0.70465489156E+02 -0.17372024676E+03  0.22565388406E+03  0.12508983590E+03 0.  0.
         23    2    1    2    0    0 -0.11318085063E+02  0.70465489156E+02 -0.10954542798E+03  0.15980690924E+03  0.91894304701E+02 0.  0.
          5    1    3    3  502    0  0.26392986257E+02  0.31243436952E+02 -0.49547815900E+02  0.64383231797E+02  0.41800000000E+01 0.  1.
         -5    1    3    3    0  502 -0.15074901194E+02 -0.10170892611E+03 -0.12417243086E+03  0.16127065226E+03  0.41800000000E+01 0.  1.
        -11    1    4    4    0    0  0.82652026979E+01  0.20613991768E+02 -0.10355858524E+03  0.10591331743E+03  0.00000000000E+00 0.  1.
         11    1    4    4    0    0 -0.19583287761E+02  0.49851497388E+02 -0.59868427372E+01  0.53893591802E+02  0.00000000000E+00 0. -1.
</event>
<event>
 8    1  0.7112384E-009  0.1041498E+03  0.7561462E-02  0.1271804E+00
         -1   -1    0    0    0  501 -0.00000000000E+00  0.00000000000E+00  0.15938448269E+03  0.15938448269E+03  0.00000000000E+00 0.  1.
          1   -1    0    0  501    0  0.00000000000E+00 -0.00000000000E+00 -0.91542842454E+02  0.91542842454E+02  0.00000000000E+00 0. -1.
         25    2    1    2    0    0  0.33741803609E+02 -0.26159353380E+02  0.45410471100E+02  0.13975929245E+03  0.12509087840E+03 0.  0.
         23    2    1    2    0    0 -0.33741803609E+02  0.26159353380E+02  0.22431169132E+02  0.11116803269E+03  0.10016163469E+03 0.  0.
          5    1    3    3  502    0  0.63168841445E+01  0.36428465256E+02  0.59202058399E+02  0.69923474062E+02  0.41800000000E+01 0. -1.
         -5    1    3    3    0  502  0.27424919465E+02 -0.62587818637E+02 -0.13791587299E+02  0.69835818385E+02  0.41800000000E+01 0. -1.
        -11    1    4    4    0    0 -0.25911435825E+02  0.61340936415E+02  0.31997040788E+02  0.73877761241E+02  0.00000000000E+00 0.  1.
         11    1    4    4    0    0 -0.78303677837E+01 -0.35181583034E+02 -0.95658716555E+01  0.37290271452E+02  0.00000000000E+00 0. -1.
</event>
<event>
 8    1  0.7112384E-009  0.2154537E+03  0.7561462E-02  0.1137319E+00
         -2   -1    0    0    0  501 -0.00000000000E+00  0.00000000000E+00  0.16060109180E+03  0.16060109180E+03  0.00000000000E+00 0.  1.
          2   -1    0    0  501    0  0.00000000000E+00 -0.00000000000E+00 -0.29936909378E+03  0.29936909378E+03  0.00000000000E+00 0. -1.
         25    2    1    2    0    0  0.31915644472E+01 -0.18848015518E+03 -0.83227841617E+02  0.24105702408E+03  0.12508661103E+03 0.  0.
         23    2    1    2    0    0 -0.31915644472E+01  0.18848015518E+03 -0.55540160360E+02  0.21891316150E+03  0.96453656670E+02 0.  0.
          5    1    3    3  502    0  0.63319275780E+02 -0.95255146933E+02 -0.52144920707E+02  0.12577535076E+03  0.41800000000E+01 0.  1.
         -5    1    3    3    0  502 -0.60127711333E+02 -0.93225008245E+02 -0.31082920910E+02  0.11528167333E+03  0.41800000000E+01 0.  1.
        -11    1    4    4    0    0  0.39263716986E+02  0.88722114640E+02  0.16730630223E+00  0.97022064960E+02  0.00000000000E+00 0.  1.
         11    1    4    4    0    0 -0.42455281433E+02  0.99758040537E+02 -0.55707466662E+02  0.12189109654E+03  0.00000000000E+00 0. -1.
</event>
<event>
 8    1  0.7112384E-009  0.1864844E+03  0.7561462E-02  0.1161671E+00
          2   -1    0    0  501    0  0.00000000000E+00  0.00000000000E+00  0.52809496578E+03  0.52809496578E+03  0.00000000000E+00 0. -1.
         -2   -1    0    0    0  501 -0.00000000000E+00 -0.00000000000E+00 -0.82808395192E+02  0.82808395192E+02  0.00000000000E+00 0.  1.
         25    2    1    2    0    0  0.23797604106E+02  0.15848319592E+03  0.34688969854E+03  0.40207001906E+03  0.12507832716E+03 0.  0.
         23    2    1    2    0    0 -0.23797604106E+02 -0.15848319592E+03  0.98396872045E+02  0.20883334191E+03  0.90808429749E+02 0.  0.
          5    1    3    3  502    0  0.38673485087E+02 -0.48508320975E+01  0.69616662275E+02  0.79894437148E+02  0.41800000000E+01 0.  1.
         -5    1    3    3    0  502 -0.14875880981E+02  0.16333402802E+03  0.27727303626E+03  0.32217558191E+03  0.41800000000E+01 0.  1.
        -11    1    4    4    0    0 -0.42025402562E+02 -0.10076418013E+03  0.22011896295E+02  0.11137359668E+03  0.00000000000E+00 0.  1.
         11    1    4    4    0    0  0.18227798456E+02 -0.57719015787E+02  0.76384975750E+02  0.97459745230E+02  0.00000000000E+00 0. -1.
</event>
<event>
 8    1  0.7112384E-009  0.2486810E+03  0.7561462E-02  0.1114141E+00
          2   -1    0    0  501    0  0.00000000000E+00  0.00000000000E+00  0.45725054912E+03  0.45725054912E+03  0.00000000000E+00 0. -1.
         -2   -1    0    0    0  501 -0.00000000000E+00 -0.00000000000E+00 -0.15709275922E+03  0.15709275922E+03  0.00000000000E+00 0.  1.
         25    2    1    2    0    0 -0.14101190510E+03 -0.19918855798E+03  0.17541052598E+03  0.32554097475E+03  0.12509050567E+03 0.  0.
         23    2    1    2    0    0  0.14101190510E+03  0.19918855798E+03  0.12474726393E+03  0.28880233358E+03  0.91019058530E+02 0.  0.
          5    1    3    3  502    0 -0.11398932641E+03 -0.14834643230E+03  0.60027704729E+02  0.19652233524E+03  0.41800000000E+01 0.  1.
         -5    1    3    3    0  502 -0.27022578689E+02 -0.50842125676E+02  0.11538282125E+03  0.12901863951E+03  0.41800000000E+01 0.  1.
        -11    1    4    4    0    0  0.12874707272E+03  0.13269771292E+03  0.12124491501E+03  0.22109912068E+03  0.00000000000E+00 0. -1.
         11    1    4    4    0    0  0.12264832378E+02  0.66490845058E+02  0.35023489202E+01  0.67703212906E+02  0.00000000000E+00 0.  1.
</event>
<event>
 8    1  0.7112384E-009  0.1307843E+03  0.7561462E-02  0.1226297E+00
         -2   -1    0    0    0  501 -0.00000000000E+00  0.00000000000E+00  0.47531269614E+02  0.47531269614E+02  0.00000000000E+00 0.  1.
          2   -1    0    0  501    0  0.00000000000E+00 -0.00000000000E+00 -0.55402081179E+03  0.55402081179E+03  0.00000000000E+00 0. -1.
         25    2    1    2    0    0 -0.30392706118E+02 -0.10093548001E+03 -0.38259770387E+03  0.41610110794E+03  0.12508973306E+03 0.  0.
         23    2    1    2    0    0  0.30392706118E+02  0.10093548001E+03 -0.12389183831E+03  0.18545097346E+03  0.89057218961E+02 0.  0.
          5    1    3    3  502    0 -0.57477955036E+02 -0.10724161540E+03 -0.22322513956E+03  0.25426642468E+03  0.41800000000E+01 0.  1.
         -5    1    3    3    0  502  0.27085248918E+02  0.63061353897E+01 -0.15937256431E+03  0.16183468326E+03  0.41800000000E+01 0.  1.
        -11    1    4    4    0    0  0.34882049578E+02  0.52339230119E+02 -0.12905086470E+02  0.64208205465E+02  0.00000000000E+00 0.  1.
         11    1    4    4    0    0 -0.44893434599E+01  0.48596249889E+02 -0.11098675184E+03  0.12124276800E+03  0.00000000000E+00 0. -1.
</event>
<event>
 8    1  0.7112384E-009  0.1465442E+03  0.7561462E-02  0.1204785E+00
          2   -1    0    0  501    0  0.00000000000E+00  0.00000000000E+00  0.13646274641E+04  0.13646274641E+04  0.00000000000E+00 0. -1.
         -2   -1    0    0    0  501 -0.00000000000E+00 -0.00000000000E+00 -0.21403886279E+02  0.21403886279E+02  0.00000000000E+00 0.  1.
         25    2    1    2    0    0 -0.60125426118E+02 -0.10069399154E+03  0.95721722555E+03  0.97245536056E+03  0.12510101754E+03 0.  0.
         23    2    1    2    0    0  0.60125426118E+02  0.10069399154E+03  0.38600635224E+03  0.41357598979E+03  0.91048605490E+02 0.  0.
          5    1    3    3  502    0 -0.92824461417E+02 -0.52669014277E+02  0.73546528889E+03  0.74318037465E+03  0.41800000000E+01 0.  1.
         -5    1    3    3    0  502  0.32699035298E+02 -0.48024977267E+02  0.22175193667E+03  0.22927498591E+03  0.41800000000E+01 0.  1.
        -11    1    4    4    0    0  0.18516248381E+02  0.78930380637E+02  0.33315517969E+03  0.34287786484E+03  0.00000000000E+00 0. -1.
         11    1    4    4    0    0  0.41609177738E+02  0.21763610906E+02  0.52851172550E+02  0.70698124951E+02  0.00000000000E+00 0.  1.
</event>
<event>
 8    1  0.7112384E-009  0.1051727E+03  0.7561462E-02  0.1269780E+00
          1   -1    0    0  501    0  0.00000000000E+00  0.00000000000E+00  0.94204712231E+02  0.94204712231E+02  0.00000000000E+00 0. -1.
         -1   -1    0    0    0  501 -0.00000000000E+00 -0.00000000000E+00 -0.14537028741E+03  0.14537028741E+03  0.00000000000E+00 0.  1.
         25    2    1    2    0    0 -0.24649118282E+02 -0.60765870890E+01  0.15266216819E+01  0.12764912420E+03  0.12508982529E+03 0.  0.
         23    2    1    2    0    0  0.24649118282E+02  0.60765870890E+01 -0.52692196861E+02  0.11192587544E+03  0.95427616764E+02 0.  0.
          5    1    3    3  502    0  0.50043584532E+02  0.93646590578E+01  0.38388238670E+01  0.51227591792E+02  0.41800000000E+01 0.  1.
         -5    1    3    3    0  502 -0.74692702814E+02 -0.15441246147E+02 -0.23122021850E+01  0.76421532406E+02  0.41800000000E+01 0.  1.
        -11    1    4    4    0    0  0.19875002231E+02 -0.35682485034E+02  0.43452240406E+01  0.41074766266E+02  0.00000000000E+00 0. -1.
         11    1    4    4    0    0  0.47741160511E+01  0.41759072123E+02 -0.57037420901E+02  0.70851109178E+02  0.00000000000E+00 0.  1.
</event>
<event>
 8    1  0.7112384E-009  0.3150634E+03  0.7561462E-02  0.1077944E+00
         -3   -1    0    0    0  501 -0.00000000000E+00  0.00000000000E+00  0.36379526692E+03  0.36379526692E+03  0.00000000000E+00 0.  1.
          3   -1    0    0  501    0  0.00000000000E+00 -0.00000000000E+00 -0.27705546373E+03  0.27705546373E+03  0.00000000000E+00 0. -1.
         25    2    1    2    0    0 -0.21898275223E+03 -0.20165578884E+03  0.55477168493E+02  0.32763443446E+03  0.12509237976E+03 0.  0.
         23    2    1    2    0    0  0.21898275223E+03  0.20165578884E+03  0.31262634699E+02  0.31321629618E+03  0.92242034453E+02 0.  0.
          5    1    3    3  502    0 -0.20768922503E+03 -0.21775080513E+03  0.43066673896E+02  0.30401058884E+03  0.41800000000E+01 0. -1.
         -5    1    3    3    0  502 -0.11293527194E+02  0.16095016284E+02  0.12410494597E+02  0.23623845619E+02  0.41800000000E+01 0. -1.
        -11    1    4    4    0    0  0.11833282062E+03  0.53247097458E+02  0.32987454154E+02  0.13388831897E+03  0.00000000000E+00 0.  1.
         11    1    4    4    0    0  0.10064993160E+03  0.14840869139E+03 -0.17248194549E+01  0.17932797722E+03  0.00000000000E+00 0. -1.
</event>
<event>
 8    1  0.7112384E-009  0.8251466E+02  0.7561462E-02  0.1322063E+00
         -1   -1    0    0    0  501 -0.00000000000E+00  0.00000000000E+00  0.11301278132E+03  0.11301278132E+03  0.00000000000E+00 0.  1.
          1   -1    0    0  501    0  0.00000000000E+00 -0.00000000000E+00 -0.13517620116E+03  0.13517620116E+03  0.00000000000E+00 0. -1.
         25    2    1    2    0    0 -0.29946671025E+02  0.34467328414E+00  0.38178070259E+02  0.13417095505E+03  0.12508940093E+03 0.  0.
         23    2    1    2    0    0  0.29946671025E+02 -0.34467328414E+00 -0.60341490102E+02  0.11401802743E+03  0.91989636618E+02 0.  0.
          5    1    3    3  502    0  0.88872848361E+01  0.25590001283E+02  0.71753643833E+02  0.76810740139E+02  0.41800000000E+01 0.  1.
         -5    1    3    3    0  502 -0.38833955861E+02 -0.25245327999E+02 -0.33575573574E+02  0.57360214909E+02  0.41800000000E+01 0.  1.
        -11    1    4    4    0    0  0.57686660737E+02  0.14735098301E+02 -0.56729741160E+02  0.82238296925E+02  0.00000000000E+00 0. -1.
         11    1    4    4    0    0 -0.27739989712E+02 -0.15079771585E+02 -0.36117489417E+01  0.31779730501E+02  0.00000000000E+00 0.  1.
</event>
<event>
 8    1  0.7112384E-009  0.1582700E+03  0.7561462E-02  0.1190664E+00
         -2   -1    0    0    0  501 -0.00000000000E+00  0.00000000000E+00  0.87108619336E+02  0.87108619336E+02  0.00000000000E+00 0.  1.
          2   -1    0    0  501    0  0.00000000000E+00 -0.00000000000E+00 -0.45876453896E+03  0.45876453896E+03  0.00000000000E+00 0. -1.
         25    2    1    2    0    0 -0.13681481375E+03 -0.73751229881E+02 -0.10948435976E+03  0.22757758222E+03  0.12508874340E+03 0.  0.
         23    2    1    2    0    0  0.13681481375E+03  0.73751229881E+02 -0.26217155986E+03  0.31829557608E+03  0.91763880586E+02 0.  0.
          5    1    3    3  502    0 -0.27942211810E+02 -0.36083352353E+02 -0.10227337343E+03  0.11207181105E+03  0.41800000000E+01 0. -1.
         -5    1    3    3    0  502 -0.10887260194E+03 -0.37667877528E+02 -0.72109863288E+01  0.11550577117E+03  0.41800000000E+01 0. -1.
        -11    1    4    4    0    0  0.90982839634E+02  0.48443434462E+02 -0.85162084583E+02  0.13370573698E+03  0.00000000000E+00 0.  1.
         11    1    4    4    0    0  0.45831974114E+02  0.25307795419E+02 -0.17700947528E+03  0.18458983910E+03  0.00000000000E+00 0. -1.
</event>
<event>
 8    1  0.7112384E-009  0.1091103E+03  0.7561462E-02  0.1262226E+00
          2   -1    0    0  501    0  0.00000000000E+00  0.00000000000E+00  0.48415195015E+03  0.48415195015E+03  0.00000000000E+00 0. -1.
         -2   -1    0    0    0  501 -0.00000000000E+00 -0.00000000000E+00 -0.25693456771E+02  0.25693456771E+02  0.00000000000E+00 0.  1.
         25    2    1    2    0    0  0.74583783721E+01 -0.29069311998E+02  0.25810965105E+03  0.28838860846E+03  0.12508695063E+03 0.  0.
         23    2    1    2    0    0 -0.74583783721E+01  0.29069311998E+02  0.20034884233E+03  0.22145679846E+03  0.89458385032E+02 0.  0.
          5    1    3    3  502    0 -0.55253240052E+02  0.84405587356E+00  0.81492715107E+02  0.98550332227E+02  0.41800000000E+01 0.  1.
         -5    1    3    3    0  502  0.62711618424E+02 -0.29913367872E+02  0.17661693594E+03  0.18983827624E+03  0.41800000000E+01 0.  1.
        -11    1    4    4    0    0  0.38560882719E+02  0.27107779736E+02  0.11861949401E+03  0.12764152051E+03  0.00000000000E+00 0.  1.
         11    1    4    4    0    0 -0.46019261091E+02  0.19615322623E+01  0.81729348319E+02  0.93815277950E+02  0.00000000000E+00 0. -1.
</event>
<event>
 8    1  0.7112384E-009  0.1266487E+03  0.7561462E-02  0.1232515E+00
         -2   -1    0    0    0  501 -0.00000000000E+00  0.00000000000E+00  0.37710433606E+02  0.37710433606E+02  0.00000000000E+00 0.  1.
          2   -1    0    0  501    0  0.00000000000E+00 -0.00000000000E+00 -0.66057950466E+03  0.66057950466E+03  0.00000000000E+00 0. -1.
         25    2    1    2    0    0 -0.74361594855E+02 -0.59830199194E+02 -0.47973305671E+03  0.50487712683E+03  0.12509119860E+03 0.  0.
         23    2    1    2    0    0  0.74361594855E+02  0.59830199194E+02 -0.14313601434E+03  0.19341281143E+03  0.88381545025E+02 0.  0.
          5    1    3    3  502    0 -0.16909820566E+02  0.23127931961E+02 -0.22626365606E+02  0.36745994189E+02  0.41800000000E+01 0. -1.
         -5    1    3    3    0  502 -0.57451774290E+02 -0.82958131155E+02 -0.45710669111E+03  0.46813113264E+03  0.41800000000E+01 0. -1.
        -11    1    4    4    0    0  0.17239835914E+02  0.63799810227E+02 -0.45538014462E+02  0.80257949690E+02  0.00000000000E+00 0.  1.
         11    1    4    4    0    0  0.57121758942E+02 -0.39696110330E+01 -0.97597999876E+02  0.11315486174E+03  0.00000000000E+00 0. -1.
</event>
<event>
 8    1  0.7112384E-009  0.1159722E+03  0.7561462E-02  0.1249893E+00
          1   -1    0    0  501    0  0.00000000000E+00  0.00000000000E+00  0.45917988266E+02  0.45917988266E+02  0.00000000000E+00 0. -1.
         -1   -1    0    0    0  501 -0.00000000000E+00 -0.00000000000E+00 -0.36637529947E+03  0.36637529947E+03  0.00000000000E+00 0.  1.
         25    2    1    2    0    0 -0.37084165426E+02  0.29870801951E+02 -0.95944551368E+02  0.16468495554E+03  0.12509307539E+03 0.  0.
         23    2    1    2    0    0  0.37084165426E+02 -0.29870801951E+02 -0.22451275984E+03  0.24760833220E+03  0.92932269470E+02 0.  0.
          5    1    3    3  502    0 -0.17815944463E+02 -0.48479022018E+02 -0.26769260376E+02  0.58324001526E+02  0.41800000000E+01 0.  1.
         -5    1    3    3    0  502 -0.19268220962E+02  0.78349823969E+02 -0.69175290992E+02  0.10636095401E+03  0.41800000000E+01 0.  1.
        -11    1    4    4    0    0  0.40100712035E+02 -0.58291955455E+02 -0.12046217547E+03  0.13970381132E+03  0.00000000000E+00 0. -1.
         11    1    4    4    0    0 -0.30165466091E+01  0.28421153504E+02 -0.10405058437E+03  0.10790452088E+03  0.00000000000E+00 0.  1.
</event>
<event>
 8    1  0.7112384E-009  0.1156814E+03  0.7561462E-02  0.1250396E+00
          2   -1    0    0  501    0  0.00000000000E+00  0.00000000000E+00  0.25911730643E+03  0.25911730643E+03  0.00000000000E+00 0. -1.
         -2   -1    0    0    0  501 -0.00000000000E+00 -0.00000000000E+00 -0.14717315051E+03  0.14717315051E+03  0.00000000000E+00 0.  1.
         25    2    1    2    0    0  0.19163094657E+02 -0.10705555254E+03  0.18495234838E+03  0.24835856443E+03  0.12508592977E+03 0.  0.
         23    2    1    2    0    0 -0.19163094657E+02  0.10705555254E+03 -0.73008192467E+02  0.15793189251E+03  0.88227948965E+02 0.  0.
          5    1    3    3  502    0 -0.12040337558E+02 -0.73507369447E+02  0.18798943278E+03  0.20225182899E+03  0.41800000000E+01 0.  1.
         -5    1    3    3    0  502  0.31203432215E+02 -0.33548183095E+02 -0.30370844024E+01  0.46106735437E+02  0.41800000000E+01 0.  1.
        -11    1    4    4    0    0 -0.82565334634E+01  0.94909921419E+01 -0.57111940787E+02  0.58480963203E+02  0.00000000000E+00 0.  1.
         11    1    4    4    0    0 -0.10906561194E+02  0.97564560400E+02 -0.15896251680E+02  0.99450929310E+02  0.00000000000E+00 0. -1.
</event>
<event>
 8    1  0.7112384E-009  0.1097528E+03  0.7561462E-02  0.1261028E+00
         -1   -1    0    0    0  501 -0.00000000000E+00  0.00000000000E+00  0.25172696129E+02  0.25172696129E+02  0.00000000000E+00 0.  1.
          1   -1    0    0  501    0  0.00000000000E+00 -0.00000000000E+00 -0.59809695593E+03  0.59809695593E+03  0.00000000000E+00 0. -1.
         25    2    1    2    0    0 -0.18604631045E+02 -0.47780703536E+02 -0.40987034582E+03  0.43159034748E+03  0.12508956683E+03 0.  0.
         23    2    1    2    0    0  0.18604631045E+02  0.47780703536E+02 -0.16305391398E+03  0.19167930457E+03  0.86748193137E+02 0.  0.
          5    1    3    3  502    0 -0.25109681947E+02 -0.83499112182E+02 -0.19517544013E+03  0.21380720917E+03  0.41800000000E+01 0.  1.
         -5    1    3    3    0  502  0.65050509027E+01  0.35718408646E+02 -0.21469490569E+03  0.21778313832E+03  0.41800000000E+01 0.  1.
        -11    1    4    4    0    0 -0.10193167777E+02  0.62499688697E+02 -0.76674381959E+02  0.99443816325E+02  0.00000000000E+00 0.  1.
         11    1    4    4    0    0  0.28797798821E+02 -0.14718985161E+02 -0.86379532017E+02  0.92235488249E+02  0.00000000000E+00 0. -1.
</event>
<event>
 8    1  0.7112384E-009  0.1066251E+03  0.7561462E-02  0.1266950E+00
          1   -1    0    0  501    0  0.00000000000E+00  0.00000000000E+00  0.54771372634E+03  0.54771372634E+03  0.00000000000E+00 0. -1.
         -1   -1    0    0    0  501 -0.00000000000E+00 -0.00000000000E+00 -0.31991627130E+02  0.31991627130E+02  0.00000000000E+00 0.  1.
         25    2    1    2    0    0 -0.48987706673E+02  0.13451715741E+02  0.16143972829E+03  0.21045326419E+03  0.12508815482E+03 0.  0.
         23    2    1    2    0    0  0.48987706673E+02 -0.13451715741E+02  0.35428237092E+03  0.36925208928E+03  0.90831509043E+02 0.  0.
          5    1    3    3  502    0 -0.65526558462E+02  0.41415205947E+02  0.15979748752E+03  0.17765601190E+03  0.41800000000E+01 0. -1.
         -5    1    3    3    0  502  0.16538851789E+02 -0.27963490206E+02  0.16422407763E+01  0.32797252289E+02  0.41800000000E+01 0. -1.
        -11    1    4    4    0    0  0.22864734489E+01  0.35287842833E+02  0.14975395147E+03  0.15387236852E+03  0.00000000000E+00 0. -1.
         11    1    4    4    0    0  0.46701233224E+02 -0.48739558574E+02  0.20452841945E+03  0.21537972077E+03  0.00000000000E+00 0.  1.
</event>
<event>
 8    1  0.7112384E-009  0.9726066E+02  0.7561462E-02  0.1286164E+00
          2   -1    0    0  501    0  0.00000000000E+00  0.00000000000E+00  0.11514008909E+04  0.11514008909E+04  0.00000000000E+00 0. -1.
         -2   -1    0    0    0  501 -0.00000000000E+00 -0.00000000000E+00 -0.19323976004E+02  0.19323976004E+02  0.00000000000E+00 0.  1.
         25    2    1    2    0    0  0.33341254447E+02  0.80231284593E+02  0.81637395692E+03  0.83045923577E+03  0.12508959376E+03 0.  0.
         23    2    1    2    0    0 -0.33341254447E+02 -0.80231284593E+02  0.31570295794E+03  0.34026563110E+03  0.92539957735E+02 0.  0.
          5    1    3    3  502    0 -0.16991086485E+02  0.37702013958E+02  0.71796097309E+02  0.82959573680E+02  0.41800000000E+01 0.  1.
         -5    1    3    3    0  502  0.50332340931E+02  0.42529270635E+02  0.74457785961E+03  0.74749966209E+03  0.41800000000E+01 0.  1.
        -11    1    4    4    0    0 -0.14151769715E+02 -0.30443396747E+02  0.18541625755E+02  0.38351856242E+02  0.00000000000E+00 0.  1.
         11    1    4    4    0    0 -0.19189484731E+02 -0.49787887845E+02  0.29716133219E+03  0.30191377486E+03  0.00000000000E+00 0. -1.
</event>
<event>
 8    1  0.7112384E-009  0.1594186E+03  0.7561462E-02  0.1189355E+00
          2   -1    0    0  501    0  0.00000000000E+00  0.00000000000E+00  0.80903119689E+03  0.80903119689E+03  0.00000000000E+00 0. -1.
         -2   -1    0    0    0  501 -0.00000000000E+00 -0.00000000000E+00 -0.45575986998E+02  0.45575986998E+02  0.00000000000E+00 0.  1.
         25    2    1    2    0    0  0.93327798192E+02  0.10882005406E+03  0.54767145348E+03  0.57977791152E+03  0.12508606494E+03 0.  0.
         23    2    1    2    0    0 -0.93327798192E+02 -0.10882005406E+03  0.21578375641E+03  0.27482927237E+03  0.91742124140E+02 0.  0.
          5    1    3    3  502    0  0.11286147601E+03  0.10663549054E+03  0.53223879318E+03  0.55444066046E+03  0.41800000000E+01 0.  1.
         -5    1    3    3    0  502 -0.19533677818E+02  0.21845635205E+01  0.15432660300E+02  0.25337251051E+02  0.41800000000E+01 0.  1.
        -11    1    4    4    0    0 -0.33241691979E+02 -0.35829289646E+02  0.15478433601E+03  0.16231740127E+03  0.00000000000E+00 0. -1.
         11    1    4    4    0    0 -0.60086106213E+02 -0.72990764413E+02  0.60999420405E+02  0.11251187110E+03  0.00000000000E+00 0.  1.
</event>
<event>
 8    1  0.7112384E-009  0.1806415E+03  0.7561462E-02  0.1167184E+00
          4   -1    0    0  501    0  0.00000000000E+00  0.00000000000E+00  0.23599100157E+03  0.23599100157E+03  0.00000000000E+00 0. -1.
         -4   -1    0    0    0  501 -0.00000000000E+00 -0.00000000000E+00 -0.17010846350E+03  0.17010846350E+03  0.00000000000E+00 0.  1.
         25    2    1    2    0    0 -0.94863343356E+02  0.13897616122E+03  0.37948386618E+02  0.21307597088E+03  0.12509141466E+03 0.  0.
         23    2    1    2    0    0  0.94863343356E+02 -0.13897616122E+03  0.27934151457E+02  0.19302349419E+03  0.90356655506E+02 0.  0.
          5    1    3    3  502    0 -0.98058521652E+02  0.73020091194E+02 -0.21405534255E+02  0.12418968026E+03  0.41800000000E+01 0.  1.
         -5    1    3    3    0  502  0.31951782963E+01  0.65956070021E+02  0.59353920872E+02  0.88886290619E+02  0.41800000000E+01 0.  1.
        -11    1    4    4    0    0  0.51266942185E+02 -0.10723293635E+03  0.56936116310E+02  0.13179121116E+03  0.00000000000E+00 0.  1.
         11    1    4    4    0    0  0.43596401171E+02 -0.31743224866E+02 -0.29001964853E+02  0.61232283032E+02  0.00000000000E+00 0. -1.
</event>
<event>
 8    1  0.7112384E-009  0.1547782E+03  0.7561462E-02  0.1194722E+00
          2   -1    0    0  501    0  0.00000000000E+00  0.00000000000E+00  0.10142932175E+04  0.10142932175E+04  0.00000000000E+00 0. -1.
         -2   -1    0    0    0  501 -0.00000000000E+00 -0.00000000000E+00 -0.28935612582E+02  0.28935612582E+02  0.00000000000E+00 0.  1.
         25    2    1    2    0    0 -0.10347853207E+03 -0.72189638884E+02  0.64877408064E+03  0.67265945422E+03  0.12507510971E+03 0.  0.
         23    2    1    2    0    0  0.10347853207E+03  0.72189638884E+02  0.33658352426E+03  0.37056937585E+03  0.90077982625E+02 0.  0.
          5    1    3    3  502    0  0.19394637746E+02  0.16291916306E+02  0.11340224613E+03  0.11627175210E+03  0.41800000000E+01 0.  1.
         -5    1    3    3    0  502 -0.12287316982E+03 -0.88481555190E+02  0.53537183452E+03  0.55638770212E+03  0.41800000000E+01 0.  1.
        -11    1    4    4    0    0  0.95255936102E+02  0.47608322243E+02  0.32532331181E+03  0.34230907513E+03  0.00000000000E+00 0. -1.
         11    1    4    4    0    0  0.82225959710E+01  0.24581316642E+02  0.11260212446E+02  0.28260300718E+02  0.00000000000E+00 0.  1.
</event>
<event>
 8    1  0.7112384E-009  0.1214245E+03  0.7561462E-02  0.1240765E+00
         -2   -1    0    0    0  501 -0.00000000000E+00  0.00000000000E+00  0.19016255908E+03  0.19016255908E+03  0.00000000000E+00 0.  1.
          2   -1    0    0  501    0  0.00000000000E+00 -0.00000000000E+00 -0.97969033270E+02  0.97969033270E+02  0.00000000000E+00 0. -1.
         25    2    1    2    0    0 -0.71982077824E+02  0.87041642390E+01  0.83455606268E+01  0.14482495245E+03  0.12508971367E+03 0.  0.
         23    2    1    2    0    0  0.71982077824E+02 -0.87041642390E+01  0.83847965181E+02  0.14330663990E+03  0.90824720046E+02 0.  0.
          5    1    3    3  502    0 -0.54959201618E+01 -0.51011089191E+02  0.18691542247E+02  0.54764792618E+02  0.41800000000E+01 0.  1.
         -5    1    3    3    0  502 -0.66486157662E+02  0.59715253430E+02 -0.10345981620E+02  0.90060159830E+02  0.41800000000E+01 0.  1.
        -11    1    4    4    0    0  0.34474402181E+02  0.31661225667E+02  0.73655902966E+02  0.87270325187E+02  0.00000000000E+00 0.  1.
         11    1    4    4    0    0  0.37507675643E+02 -0.40365389906E+02  0.10192062215E+02  0.56036314712E+02  0.00000000000E+00 0. -1.
</event>
<event>
 8    1  0.7112384E-009  0.1112505E+03  0.7561462E-02  0.1258272E+00
         -1   -1    0    0    0  501 -0.00000000000E+00  0.00000000000E+00  0.47627737596E+03  0.47627737596E+03  0.00000000000E+00 0.  1.
          1   -1    0    0  501    0  0.00000000000E+00 -0.00000000000E+00 -0.34150419060E+02  0.34150419060E+02  0.00000000000E+00 0. -1.
         25    2    1    2    0    0 -0.50014935949E+02 -0.27322040835E+02  0.30306182995E+03  0.33277771887E+03  0.12508616897E+03 0.  0.
         23    2    1    2    0    0  0.50014935949E+02  0.27322040835E+02  0.13906512695E+03  0.17765007615E+03  0.94723029353E+02 0.  0.
          5    1    3    3  502    0 -0.59478199305E+02  0.32290753758E+02  0.21864249575E+03  0.22891562270E+03  0.41800000000E+01 0.  1.
         -5    1    3    3    0  502  0.94632633557E+01 -0.59612794593E+02  0.84419334204E+02  0.10386209617E+03  0.41800000000E+01 0.  1.
        -11    1    4    4    0    0  0.40171058638E+02  0.53107575640E+02  0.46917981060E+02  0.81458121076E+02  0.00000000000E+00 0. -1.
         11    1    4    4    0    0  0.98438773105E+01 -0.25785534805E+02  0.92147145887E+02  0.96191955074E+02  0.00000000000E+00 0.  1.
</event>
<event>
 8    1  0.7112384E-009  0.9947514E+02  0.7561462E-02  0.1281404E+00
          4   -1    0    0  501    0  0.00000000000E+00  0.00000000000E+00  0.76353600744E+02  0.76353600744E+02  0.00000000000E+00 0.  1.
         -4   -1    0    0    0  501 -0.00000000000E+00 -0.00000000000E+00 -0.19562511205E+03  0.19562511205E+03  0.00000000000E+00 0. -1.
         25    2    1    2    0    0  0.42396227907E+02 -0.38171788382E+02 -0.66350141122E+02  0.15265830653E+03  0.12509073410E+03 0.  0.
         23    2    1    2    0    0 -0.42396227907E+02  0.38171788382E+02 -0.52921370187E+02  0.11932040627E+03  0.90455305871E+02 0.  0.
          5    1    3    3  502    0  0.61937054630E+02 -0.12405129220E+02 -0.91649328447E+02  0.11138742197E+03  0.41800000000E+01 0. -1.
         -5    1    3    3    0  502 -0.19540826724E+02 -0.25766659162E+02  0.25299187325E+02  0.41270884564E+02  0.41800000000E+01 0. -1.
        -11    1    4    4    0    0 -0.16576691791E+02 -0.27702917214E+02 -0.23846758567E+01  0.32371669896E+02  0.00000000000E+00 0.  1.
         11    1    4    4    0    0 -0.25819536116E+02  0.65874705596E+02 -0.50536694330E+02  0.86948736371E+02  0.00000000000E+00 0. -1.
</event>
<event>
 8    1  0.7112384E-009  0.1112386E+03  0.7561462E-02  0.1258293E+00
         -1   -1    0    0    0  501 -0.00000000000E+00  0.00000000000E+00  0.10293390565E+03  0.10293390565E+03  0.00000000000E+00 0.  1.
          1   -1    0    0  501    0  0.00000000000E+00 -0.00000000000E+00 -0.29231764939E+03  0.29231764939E+03  0.00000000000E+00 0. -1.
         25    2    1    2    0    0 -0.48891249355E+02 -0.21868332460E+02  0.41269684341E+02  0.14218966855E+03  0.12508451850E+03 0.  0.
         23    2    1    2    0    0  0.48891249355E+02  0.21868332460E+02 -0.23065342808E+03  0.25306188649E+03  0.89278980072E+02 0.  0.
          5    1    3    3  502    0  0.15938230461E+02  0.30922626437E+02  0.46608983855E+02  0.58310426100E+02  0.41800000000E+01 0. -1.
         -5    1    3    3    0  502 -0.64829479816E+02 -0.52790958897E+02 -0.53392995140E+01  0.83879242449E+02  0.41800000000E+01 0. -1.
        -11    1    4    4    0    0  0.47102323124E+02  0.53938177289E+02 -0.16893729295E+03  0.18348777824E+03  0.00000000000E+00 0. -1.
         11    1    4    4    0    0  0.17889262315E+01 -0.32069844829E+02 -0.61716135127E+02  0.69574108254E+02  0.00000000000E+00 0.  1.
</event>
<event>
 8    1  0.7112384E-009  0.1116129E+03  0.7561462E-02  0.1257612E+00
         -1   -1    0    0    0  501 -0.00000000000E+00  0.00000000000E+00  0.21027404058E+03  0.21027404058E+03  0.00000000000E+00 0.  1.
          1   -1    0    0  501    0  0.00000000000E+00 -0.00000000000E+00 -0.90244688930E+02  0.90244688930E+02  0.00000000000E+00 0. -1.
         25    2    1    2    0    0  0.74665042612E+01 -0.80397846229E+02  0.35490387580E+02  0.15305789993E+03  0.12509033039E+03 0.  0.
         23    2    1    2    0    0 -0.74665042612E+01  0.80397846229E+02  0.84538964067E+02  0.14746082957E+03  0.89879349399E+02 0.  0.
          5    1    3    3  502    0  0.42568239439E+02 -0.78967614591E+02  0.61758809865E+02  0.10899340420E+03  0.41800000000E+01 0.  1.
         -5    1    3    3    0  502 -0.35101735178E+02 -0.14302316385E+01 -0.26268422285E+02  0.44064495735E+02  0.41800000000E+01 0.  1.
        -11    1    4    4    0    0  0.23398777324E+02  0.22676962258E+02 -0.85272046828E+01  0.33681754961E+02  0.00000000000E+00 0. -1.
         11    1    4    4    0    0 -0.30865281585E+02  0.57720883971E+02  0.93066168750E+02  0.11377907461E+03  0.00000000000E+00 0.  1.
</event>
<event>
 8    1  0.7112384E-009  0.1024696E+03  0.7561462E-02  0.1275187E+00
         -4   -1    0    0    0  501 -0.00000000000E+00  0.00000000000E+00  0.47144030875E+02  0.47144030875E+02  0.00000000000E+00 0.  1.
          4   -1    0    0  501    0  0.00000000000E+00 -0.00000000000E+00 -0.43830907240E+03  0.43830907240E+03  0.00000000000E+00 0. -1.
         25    2    1    2    0    0 -0.45556078223E+02  0.71623120253E+02 -0.14985507565E+03  0.21286019465E+03  0.12509073167E+03 0.  0.
         23    2    1    2    0    0  0.45556078223E+02 -0.71623120253E+02 -0.24130996587E+03  0.27259290862E+03  0.94186870546E+02 0.  0.
          5    1    3    3  502    0 -0.16369038848E+02  0.84301455885E+02 -0.33689638630E+02  0.92342541920E+02  0.41800000000E+01 0. -1.
         -5    1    3    3    0  502 -0.29187039375E+02 -0.12678335633E+02 -0.11616543702E+03  0.12051765273E+03  0.41800000000E+01 0. -1.
        -11    1    4    4    0    0  0.35535289840E+02 -0.66979226438E+02 -0.24823523961E+03  0.25955675252E+03  0.00000000000E+00 0. -1.
         11    1    4    4    0    0  0.10020788383E+02 -0.46438938144E+01  0.69252737318E+01  0.13036156099E+02  0.00000000000E+00 0.  1.
</event>
<event>
 8    1  0.7112384E-009  0.1176248E+03  0.7561462E-02  0.1247068E+00
          2   -1    0    0  501    0  0.00000000000E+00  0.00000000000E+00  0.35473557743E+03  0.35473557743E+03  0.00000000000E+00 0. -1.
         -2   -1    0    0    0  501 -0.00000000000E+00 -0.00000000000E+00 -0.96374622788E+02  0.96374622788E+02  0.00000000000E+00 0.  1.
         25    2    1    2    0    0 -0.27298094596E+02  0.61240692285E+02  0.29836687425E+03  0.33039955242E+03  0.12508183014E+03 0.  0.
         23    2    1    2    0    0  0.27298094596E+02 -0.61240692285E+02 -0.40005919610E+02  0.12071064780E+03  0.92059646574E+02 0.  0.
          5    1    3    3  502    0  0.25336981301E+02  0.71515788904E+02  0.10448434647E+03  0.12919335022E+03  0.41800000000E+01 0. -1.
         -5    1    3    3    0  502 -0.52635075897E+02 -0.10275096620E+02  0.19388252778E+03  0.20120620220E+03  0.41800000000E+01 0. -1.
        -11    1    4    4    0    0  0.19990897781E+02 -0.81510013527E+02 -0.49200965301E+02  0.97284393845E+02  0.00000000000E+00 0.  1.
         11    1    4    4    0    0  0.73071968150E+01  0.20269321242E+02  0.91950456904E+01  0.23426253951E+02  0.00000000000E+00 0. -1.
</event>
<event>
 8    1  0.7112384E-009  0.2168570E+03  0.7561462E-02  0.1136248E+00
          1   -1    0    0  501    0  0.00000000000E+00  0.00000000000E+00  0.59427354028E+03  0.59427354028E+03  0.00000000000E+00 0. -1.
         -1   -1    0    0    0  501 -0.00000000000E+00 -0.00000000000E+00 -0.93846270250E+02  0.93846270250E+02  0.00000000000E+00 0.  1.
         25    2    1    2    0    0  0.16456242202E+03 -0.90294420251E+02  0.39320229060E+03  0.45331007469E+03  0.12509240348E+03 0.  0.
         23    2    1    2    0    0 -0.16456242202E+03  0.90294420251E+02  0.10722497943E+03  0.23480973585E+03  0.91676293367E+02 0.  0.
          5    1    3    3  502    0  0.17385758045E+03 -0.45773962035E+02  0.31794373351E+03  0.36527716047E+03  0.41800000000E+01 0. -1.
         -5    1    3    3    0  502 -0.92951584351E+01 -0.44520458217E+02  0.75258557092E+02  0.88032914218E+02  0.41800000000E+01 0. -1.
        -11    1    4    4    0    0 -0.64408214888E+01  0.42555040871E+02  0.30091496554E+02  0.52515843798E+02  0.00000000000E+00 0.  1.
         11    1    4    4    0    0 -0.15812160053E+03  0.47739379380E+02  0.77133482879E+02  0.18229389205E+03  0.00000000000E+00 0. -1.
</event>
<event>
 8    1  0.7112384E-009  0.1307660E+03  0.7561462E-02  0.1226324E+00
          2   -1    0    0  501    0  0.00000000000E+00  0.00000000000E+00  0.11595490315E+03  0.11595490315E+03  0.00000000000E+00 0. -1.
         -2   -1    0    0    0  501 -0.00000000000E+00 -0.00000000000E+00 -0.18132268213E+03  0.18132268213E+03  0.00000000000E+00 0.  1.
         25    2    1    2    0    0 -0.85762548274E+02  0.85715797600E+01 -0.78475589968E+02  0.17098057198E+03  0.12508897277E+03 0.  0.
         23    2    1    2    0    0  0.85762548274E+02 -0.85715797600E+01  0.13107810981E+02  0.12629701330E+03  0.91380710185E+02 0.  0.
          5    1    3    3  502    0 -0.26768895118E+02 -0.47380252435E+02 -0.70526083788E+02  0.89178825745E+02  0.41800000000E+01 0.  1.
         -5    1    3    3    0  502 -0.58993653155E+02  0.55951832195E+02 -0.79495061800E+01  0.81801746235E+02  0.41800000000E+01 0.  1.
        -11    1    4    4    0    0  0.99760061530E+02  0.12186157602E+02  0.87202546765E+01  0.10087921072E+03  0.00000000000E+00 0.  1.
         11    1    4    4    0    0 -0.13997513256E+02 -0.20757737362E+02  0.43875563046E+01  0.25417802582E+02  0.00000000000E+00 0. -1.
</event>
<event>
 8    1  0.7112384E-009  0.1072457E+03  0.7561462E-02  0.1265757E+00
         -2   -1    0    0    0  501 -0.00000000000E+00  0.00000000000E+00  0.49115453885E+02  0.49115453885E+02  0.00000000000E+00 0. -1.
          2   -1    0    0  501    0  0.00000000000E+00 -0.00000000000E+00 -0.32527822993E+03  0.32527822993E+03  0.00000000000E+00 0.  1.
         25    2    1    2    0    0 -0.76674141926E+01  0.20490573626E+02 -0.63280012000E+02  0.14188074212E+03  0.12508849754E+03 0.  0.
         23    2    1    2    0    0  0.76674141926E+01 -0.20490573626E+02 -0.21288276404E+03  0.23251294169E+03  0.90909537353E+02 0.  0.
          5    1    3    3  502    0 -0.58535530697E+02 -0.14409791452E+02 -0.12126320910E+02  0.61632544183E+02  0.41800000000E+01 0.  1.
         -5    1    3    3    0  502  0.50868116505E+02  0.34900365078E+02 -0.51153691089E+02  0.80248197932E+02  0.41800000000E+01 0.  1.
        -11    1    4    4    0    0  0.16354084920E+02  0.33642523269E+02 -0.10566270701E+03  0.11208872878E+03  0.00000000000E+00 0.  1.
         11    1    4    4    0    0 -0.86866707277E+01 -0.54133096895E+02 -0.10722005703E+03  0.12042421292E+03  0.00000000000E+00 0. -1.
</event>
<event>
 8    1  0.7112384E-009  0.7923408E+02  0.7561462E-02  0.1331239E+00
         -1   -1    0    0    0  501 -0.00000000000E+00  0.00000000000E+00  0.36594908287E+02  0.36594908287E+02  0.00000000000E+00 0.  1.
          1   -1    0    0  501    0  0.00000000000E+00 -0.00000000000E+00 -0.31586999167E+03  0.31586999167E+03  0.00000000000E+00 0. -1.
         25    2    1    2    0    0  0.24428375743E+00 -0.56985977437E+01 -0.17669978879E+03  0.21657103646E+03  0.12509062628E+03 0.  0.
         23    2    1    2    0    0 -0.24428375743E+00  0.56985977437E+01 -0.10257529459E+03  0.13589386350E+03  0.88954580461E+02 0.  0.
          5    1    3    3  502    0  0.53461574315E+02 -0.52599512060E+01 -0.14452275189E+03  0.15424041374E+03  0.41800000000E+01 0.  1.
         -5    1    3    3    0  502 -0.53217290558E+02 -0.43864653765E+00 -0.32177036895E+02  0.62330622718E+02  0.41800000000E+01 0.  1.
        -11    1    4    4    0    0  0.25314586750E+02  0.33802302283E+01 -0.10686467098E+03  0.10987407412E+03  0.00000000000E+00 0. -1.
         11    1    4    4    0    0 -0.25558870508E+02  0.23183675154E+01  0.42893763918E+01  0.26019789380E+02  0.00000000000E+00 0.  1.
</event>
<event>
 8    1  0.7112384E-009  0.1175084E+03  0.7561462E-02  0.1247265E+00
          1   -1    0    0  501    0  0.00000000000E+00  0.00000000000E+00  0.29817764946E+03  0.29817764946E+03  0.00000000000E+00 0. -1.
         -1   -1    0    0    0  501 -0.00000000000E+00 -0.00000000000E+00 -0.57529009026E+02  0.57529009026E+02  0.00000000000E+00 0.  1.
         25    2    1    2    0    0  0.66993153857E+02  0.13690056477E+02  0.14463578555E+03  0.20308268023E+03  0.12509022439E+03 0.  0.
         23    2    1    2    0    0 -0.66993153857E+02 -0.13690056477E+02  0.96012854885E+02  0.15262397826E+03  0.96954165074E+02 0.  0.
          5    1    3    3  502    0 -0.82234111692E+01  0.44180783671E+02  0.10148382712E+03  0.11106757269E+03  0.41800000000E+01 0. -1.
         -5    1    3    3    0  502  0.75216565026E+02 -0.30490727195E+02  0.43151958431E+02  0.92015107540E+02  0.41800000000E+01 0. -1.
        -11    1    4    4    0    0 -0.76623042110E+02 -0.35743432702E+02  0.43998914216E+02  0.95313105163E+02  0.00000000000E+00 0.  1.
         11    1    4    4    0    0  0.96298882535E+01  0.22053376225E+02  0.52013940669E+02  0.57310873093E+02  0.00000000000E+00 0. -1.
</event>
<event>
 8    1  0.7112384E-009  0.6806544E+02  0.7561462E-02  0.1366798E+00
         -2   -1    0    0    0  501 -0.00000000000E+00  0.00000000000E+00  0.93735120596E+03  0.93735120596E+03  0.00000000000E+00 0.  1.
          2   -1    0    0  501    0  0.00000000000E+00 -0.00000000000E+00 -0.22753511604E+02  0.22753511604E+02  0.00000000000E+00 0. -1.
         25    2    1    2    0    0 -0.10668057161E+02 -0.32855096213E+02  0.77761915511E+03  0.78837327437E+03  0.12509038559E+03 0.  0.
         23    2    1    2    0    0  0.10668057161E+02  0.32855096213E+02  0.13697853925E+03  0.17173144319E+03  0.97648879021E+02 0.  0.
          5    1    3    3  502    0 -0.39185409103E+02 -0.25487433918E+02  0.10401644170E+03  0.11411396987E+03  0.41800000000E+01 0. -1.
         -5    1    3    3    0  502  0.28517351942E+02 -0.73676622954E+01  0.67360271340E+03  0.67425930451E+03  0.41800000000E+01 0. -1.
        -11    1    4    4    0    0  0.19828383251E+02 -0.50440846882E+01 -0.77229059306E+01  0.21868947133E+02  0.00000000000E+00 0. -1.
         11    1    4    4    0    0 -0.91603260895E+01  0.37899180901E+02  0.14470144518E+03  0.14986249605E+03  0.00000000000E+00 0.  1.
</event>
<event>
 8    1  0.7112384E-009  0.1081945E+03  0.7561462E-02  0.1263950E+00
         -2   -1    0    0    0  501 -0.00000000000E+00  0.00000000000E+00  0.22980845133E+02  0.22980845133E+02  0.00000000000E+00 0.  1.
          2   -1    0    0  501    0  0.00000000000E+00 -0.00000000000E+00 -0.74758637232E+03  0.74758637232E+03  0.00000000000E+00 0. -1.
         25    2    1    2    0    0  0.46435737777E+02 -0.25486421935E+02 -0.55575427888E+03  0.57211512537E+03  0.12508821984E+03 0.  0.
         23    2    1    2    0    0 -0.46435737777E+02  0.25486421935E+02 -0.16885124831E+03  0.19845209208E+03  0.89814549768E+02 0.  0.
          5    1    3    3  502    0  0.76821949278E+02  0.13133411921E+02 -0.23577461781E+03  0.24835708406E+03  0.41800000000E+01 0.  1.
         -5    1    3    3    0  502 -0.30386211501E+02 -0.38619833856E+02 -0.31997966107E+03  0.32375804131E+03  0.41800000000E+01 0.  1.
        -11    1    4    4    0    0 -0.64484773525E+02  0.10031237584E+02 -0.65715663738E+02  0.92614578791E+02  0.00000000000E+00 0.  1.
         11    1    4    4    0    0  0.18049035748E+02  0.15455184352E+02 -0.10313558457E+03  0.10583751329E+03  0.00000000000E+00 0. -1.
</event>
<event>
 8    1  0.7112384E-009  0.1071583E+03  0.7561462E-02  0.1265925E+00
         -1   -1    0    0    0  501 -0.00000000000E+00  0.00000000000E+00  0.70105984019E+02  0.70105984019E+02  0.00000000000E+00 0.  1.
          1   -1    0    0  501    0  0.00000000000E+00 -0.00000000000E+00 -0.22096790717E+03  0.22096790717E+03  0.00000000000E+00 0. -1.
         25    2    1    2    0    0 -0.53006035771E+02 -0.31162232557E+02 -0.72712403999E+02  0.15721059856E+03  0.12508938420E+03 0.  0.
         23    2    1    2    0    0  0.53006035771E+02  0.31162232557E+02 -0.78149519156E+02  0.13386329263E+03  0.89617571955E+02 0.  0.
          5    1    3    3  502    0 -0.40353556075E+02  0.38272751752E+02 -0.65670786565E+02  0.86158793066E+02  0.41800000000E+01 0. -1.
         -5    1    3    3    0  502 -0.12652479696E+02 -0.69434984308E+02 -0.70416174339E+01  0.71051805497E+02  0.41800000000E+01 0. -1.
        -11    1    4    4    0    0  0.50860391360E+02 -0.54631476333E+01 -0.82341064867E+02  0.96936455241E+02  0.00000000000E+00 0. -1.
         11    1    4    4    0    0  0.21456444107E+01  0.36625380190E+02  0.41915457105E+01  0.36926837388E+02  0.00000000000E+00 0.  1.
</event>
<event>
 8    1  0.7112384E-009  0.9745883E+02  0.7561462E-02  0.1285732E+00
          2   -1    0    0  501    0  0.00000000000E+00  0.00000000000E+00  0.22296709159E+03  0.22296709159E+03  0.00000000000E+00 0. -1.
         -2   -1    0    0    0  501 -0.00000000000E+00 -0.00000000000E+00 -0.91709534854E+02  0.91709534854E+02  0.00000000000E+00 0.  1.
         25    2    1    2    0    0  0.47420681584E+02 -0.12672337715E+01 -0.89963719006E+01  0.13408440826E+03  0.12508943563E+03 0.  0.
         23    2    1    2    0    0 -0.47420681584E+02  0.12672337715E+01  0.14025392863E+03  0.18059221818E+03  0.10340240736E+03 0.  0.
          5    1    3    3  502    0  0.70632185213E+02 -0.28046779365E+02 -0.40735416291E+02  0.86327133400E+02  0.41800000000E+01 0.  1.
         -5    1    3    3    0  502 -0.23211503629E+02  0.26779545593E+02  0.31739044390E+02  0.47757274857E+02  0.41800000000E+01 0.  1.
        -11    1    4    4    0    0 -0.53936603561E+02 -0.22526358796E+02  0.26472076128E+02  0.64166695869E+02  0.00000000000E+00 0.  1.
         11    1    4    4    0    0  0.65159219767E+01  0.23793592568E+02  0.11378185250E+03  0.11642552231E+03  0.00000000000E+00 0. -1.
</event>
<event>
 8    1  0.7112384E-009  0.1119888E+03  0.7561462E-02  0.1256931E+00
         -1   -1    0    0    0  501 -0.00000000000E+00  0.00000000000E+00  0.61042082381E+02  0.61042082381E+02  0.00000000000E+00 0.  1.
          1   -1    0    0  501    0  0.00000000000E+00 -0.00000000000E+00 -0.38009020364E+03  0.38009020364E+03  0.00000000000E+00 0. -1.
         25    2    1    2    0    0  0.90941594557E+02  0.31254197281E+02 -0.10345673883E+03  0.18867461703E+03  0.12509043063E+03 0.  0.
         23    2    1    2    0    0 -0.90941594557E+02 -0.31254197281E+02 -0.21559138243E+03  0.25245766899E+03  0.89487608003E+02 0.  0.
          5    1    3    3  502    0  0.15605529109E+02 -0.62712452335E+01  0.27762230164E+02  0.32727280352E+02  0.41800000000E+01 0.  1.
         -5    1    3    3    0  502  0.75336065448E+02  0.37525442515E+02 -0.13121896899E+03  0.15594733668E+03  0.41800000000E+01 0.  1.
        -11    1    4    4    0    0 -0.73712206476E+02 -0.55757336853E+02 -0.19590655939E+03  0.21661428856E+03  0.00000000000E+00 0. -1.
         11    1    4    4    0    0 -0.17229388082E+02  0.24503139572E+02 -0.19684823037E+02  0.35843380429E+02  0.00000000000E+00 0.  1.
</event>
<event>
 8    1  0.7112384E-009  0.2236955E+03  0.7561462E-02  0.1131158E+00
         -1   -1    0    0    0  501 -0.00000000000E+00  0.00000000000E+00  0.10716414352E+03  0.10716414352E+03  0.00000000000E+00 0.  1.
          1   -1    0    0  501    0  0.00000000000E+00 -0.00000000000E+00 -0.55201737985E+03  0.55201737985E+03  0.00000000000E+00 0. -1.
         25    2    1    2    0    0 -0.11386414180E+03 -0.17181017031E+03 -0.13601712165E+03  0.27682488990E+03  0.12509030690E+03 0.  0.
         23    2    1    2    0    0  0.11386414180E+03  0.17181017031E+03 -0.30883611468E+03  0.38235663347E+03  0.91285661652E+02 0.  0.
          5    1    3    3  502    0 -0.91920927471E+02 -0.17766931175E+03 -0.14978599173E+03  0.24993830632E+03  0.41800000000E+01 0. -1.
         -5    1    3    3    0  502 -0.21943214324E+02  0.58591414453E+01  0.13768870085E+02  0.26886583583E+02  0.41800000000E+01 0. -1.
        -11    1    4    4    0    0  0.58460026413E+02  0.15600666455E+03 -0.24600119712E+03  0.29710645072E+03  0.00000000000E+00 0. -1.
         11    1    4    4    0    0  0.55404115382E+02  0.15803505757E+02 -0.62834917553E+02  0.85250182753E+02  0.00000000000E+00 0.  1.
</event>
<event>
 8    1  0.7112384E-009  0.1900922E+03  0.7561462E-02  0.1158378E+00
         -1   -1    0    0    0  501 -0.00000000000E+00  0.00000000000E+00  0.39201090428E+02  0.39201090428E+02  0.00000000000E+00 0.  1.
          1   -1    0    0  501    0  0.00000000000E+00 -0.00000000000E+00 -0.10542564327E+04  0.10542564327E+04  0.00000000000E+00 0. -1.
         25    2    1    2    0    0  0.16119968170E+03  0.31713357845E+02 -0.40032359159E+03  0.45044201055E+03  0.12509177603E+03 0.  0.
         23    2    1    2    0    0 -0.16119968170E+03 -0.31713357845E+02 -0.61473175064E+03  0.64301551254E+03  0.92643130780E+02 0.  0.
          5    1    3    3  502    0 -0.16649162766E+02 -0.14563186724E+02 -0.38343757541E+02  0.44463436336E+02  0.41800000000E+01 0.  1.
         -5    1    3    3    0  502  0.17784884447E+03  0.46276544569E+02 -0.36197983405E+03  0.40597857421E+03  0.41800000000E+01 0.  1.
        -11    1    4    4    0    0 -0.69897621131E+02 -0.42677737429E+02 -0.41673736509E+03  0.42470825066E+03  0.00000000000E+00 0.  1.
         11    1    4    4    0    0 -0.91302060572E+02  0.10964379584E+02 -0.19799438554E+03  0.21830726188E+03  0.00000000000E+00 0. -1.
</event>
<event>
 8    1  0.7112384E-009  0.9524806E+02  0.7561462E-02  0.1290618E+00
          1   -1    0    0  501    0  0.00000000000E+00  0.00000000000E+00  0.17601267767E+03  0.17601267767E+03  0.00000000000E+00 0. -1.
         -1   -1    0    0    0  501 -0.00000000000E+00 -0.00000000000E+00 -0.71471807178E+02  0.71471807178E+02  0.00000000000E+00 0.  1.
         25    2    1    2    0    0 -0.17078547517E+02 -0.15669089197E+01  0.33085894780E+02  0.13052134024E+03  0.12508801636E+03 0.  0.
         23    2    1    2    0    0  0.17078547517E+02  0.15669089197E+01  0.71454975711E+02  0.11696314461E+03  0.90996877163E+02 0.  0.
          5    1    3    3  502    0 -0.69621600768E+02  0.72355798758E+01  0.53806520746E+01  0.70327410918E+02  0.41800000000E+01 0. -1.
         -5    1    3    3    0  502  0.52543053251E+02 -0.88024887955E+01  0.27705242706E+02  0.60193929323E+02  0.41800000000E+01 0. -1.
        -11    1    4    4    0    0  0.12294999635E+02  0.32960957402E+02 -0.37008215933E+01  0.35373546746E+02  0.00000000000E+00 0.  1.
         11    1    4    4    0    0  0.47835478821E+01 -0.31394048483E+02  0.75155797305E+02  0.81589597860E+02  0.00000000000E+00 0. -1.
</event>
<event>
 8    1  0.7112384E-009  0.4408823E+02  0.7561462E-02  0.1480115E+00
          2   -1    0    0  501    0  0.00000000000E+00  0.00000000000E+00  0.18696447443E+03  0.18696447443E+03  0.00000000000E+00 0. -1.
         -2   -1    0    0    0  501 -0.00000000000E+00 -0.00000000000E+00 -0.10964215551E+03  0.10964215551E+03  0.00000000000E+00 0.  1.
         25    2    1    2    0    0 -0.11324704859E+02 -0.28187283187E+02  0.13380827786E+03  0.18568349104E+03  0.12510368398E+03 0.  0.
         23    2    1    2    0    0  0.11324704859E+02  0.28187283187E+02 -0.56485958940E+02  0.11092313889E+03  0.90501421598E+02 0.  0.
          5    1    3    3  502    0  0.72036592169E+00 -0.12599016755E+02  0.15551018191E+03  0.15607736296E+03  0.41800000000E+01 0. -1.
         -5    1    3    3    0  502 -0.12045070781E+02 -0.15588266432E+02 -0.21701904050E+02  0.29606128079E+02  0.41800000000E+01 0. -1.
        -11    1    4    4    0    0 -0.20352914121E+01  0.38071238756E+02 -0.76159774550E+02  0.85169671192E+02  0.00000000000E+00 0.  1.
         11    1    4    4    0    0  0.13359996271E+02 -0.98839555690E+01  0.19673815609E+02  0.25753467702E+02  0.00000000000E+00 0. -1.
</event>
<event>
 8    1  0.7112384E-009  0.9266945E+02  0.7561462E-02  0.1296513E+00
         -1   -1    0    0    0  501 -0.00000000000E+00  0.00000000000E+00  0.32169247294E+02  0.32169247294E+02  0.00000000000E+00 0.  1.
          1   -1    0    0  501    0  0.00000000000E+00 -0.00000000000E+00 -0.39649918879E+03  0.39649918879E+03  0.00000000000E+00 0. -1.
         25    2    1    2    0    0  0.31210653940E+02  0.18674636822E+01 -0.20304016181E+03  0.24052252082E+03  0.12509269913E+03 0.  0.
         23    2    1    2    0    0 -0.31210653940E+02 -0.18674636822E+01 -0.16128977969E+03  0.18814591526E+03  0.91689149079E+02 0.  0.
          5    1    3    3  502    0  0.55648889974E+02  0.20558183409E+02 -0.33693886440E+02  0.68353406966E+02  0.41800000000E+01 0. -1.
         -5    1    3    3    0  502 -0.24438236034E+02 -0.18690719727E+02 -0.16934627537E+03  0.17216911385E+03  0.41800000000E+01 0. -1.
        -11    1    4    4    0    0 -0.56745040263E+02  0.21034039914E+02 -0.12056514561E+03  0.13490138904E+03  0.00000000000E+00 0. -1.
         11    1    4    4    0    0  0.25534386323E+02 -0.22901503596E+02 -0.40724634080E+02  0.53244526224E+02  0.00000000000E+00 0.  1.
</event>
<event>
 8    1  0.7112384E-009  0.1394034E+03  0.7561462E-02  0.1214134E+00
          1   -1    0    0  501    0  0.00000000000E+00  0.00000000000E+00  0.30421902268E+02  0.30421902268E+02  0.00000000000E+00 0. -1.
         -1   -1    0    0    0  501 -0.00000000000E+00 -0.00000000000E+00 -0.95167076739E+03  0.95167076739E+03  0.00000000000E+00 0.  1.
         25    2    1    2    0    0 -0.33862588481E+02  0.12625617194E+03 -0.49277286573E+03  0.52493840415E+03  0.12509170676E+03 0.  0.
         23    2    1    2    0    0  0.33862588481E+02 -0.12625617194E+03 -0.42847599939E+03  0.45715426551E+03  0.91164930551E+02 0.  0.
          5    1    3    3  502    0  0.11877479735E+02  0.72442537070E+02 -0.40776154288E+03  0.41433795862E+03  0.41800000000E+01 0. -1.
         -5    1    3    3    0  502 -0.45740068216E+02  0.53813634875E+02 -0.85011322849E+02  0.11060044553E+03  0.41800000000E+01 0. -1.
        -11    1    4    4    0    0  0.35953503049E+02 -0.74417752100E+02 -0.12890917059E+03  0.15312815049E+03  0.00000000000E+00 0. -1.
         11    1    4    4    0    0 -0.20909145681E+01 -0.51838419844E+02 -0.29956682880E+03  0.30402611502E+03  0.00000000000E+00 0.  1.
</event>
<event>
 8    1  0.7112384E-009  0.1348292E+03  0.7561462E-02  0.1220461E+00
         -1   -1    0    0    0  501 -0.00000000000E+00  0.00000000000E+00  0.41194445333E+02  0.41194445333E+02  0.00000000000E+00 0.  1.
          1   -1    0    0  501    0  0.00000000000E+00 -0.00000000000E+00 -0.49961880292E+03  0.49961880292E+03  0.00000000000E+00 0. -1.
         25    2    1    2    0    0 -0.63090441086E+01 -0.93210824428E+02 -0.27050030559E+03  0.31232532092E+03  0.12509448003E+03 0.  0.
         23    2    1    2    0    0  0.63090441086E+01  0.93210824428E+02 -0.18792405199E+03  0.22848792733E+03  0.90350549471E+02 0.  0.
          5    1    3    3  502    0  0.49406030478E+02 -0.35662556354E+02 -0.54290741133E+02  0.81717383378E+02  0.41800000000E+01 0. -1.
         -5    1    3    3    0  502 -0.55715074586E+02 -0.57548268074E+02 -0.21620956446E+03  0.23060793755E+03  0.41800000000E+01 0. -1.
        -11    1    4    4    0    0 -0.37790704096E+02  0.19617912796E+02 -0.46286116311E+02  0.62892005706E+02  0.00000000000E+00 0.  1.
         11    1    4    4    0    0  0.44099748205E+02  0.73592911632E+02 -0.14163793568E+03  0.16559592162E+03  0.00000000000E+00 0. -1.
</event>
<event>
 8    1  0.7112384E-009  0.1331987E+03  0.7561462E-02  0.1222785E+00
         -2   -1    0    0    0  501 -0.00000000000E+00  0.00000000000E+00  0.19452515788E+02  0.19452515788E+02  0.00000000000E+00 0. -1.
          2   -1    0    0  501    0  0.00000000000E+00 -0.00000000000E+00 -0.10274922282E+04  0.10274922282E+04  0.00000000000E+00 0.  1.
         25    2    1    2    0    0 -0.59749181880E+02 -0.67869653713E+02 -0.57096279672E+03  0.59145525852E+03  0.12507818741E+03 0.  0.
         23    2    1    2    0    0  0.59749181880E+02  0.67869653713E+02 -0.43707691570E+03  0.45548948547E+03  0.90874564697E+02 0.  0.
          5    1    3    3  502    0  0.35253177542E+02 -0.12266855719E+02 -0.23258938221E+03  0.23560253689E+03  0.41800000000E+01 0. -1.
         -5    1    3    3    0  502 -0.95002359423E+02 -0.55602797994E+02 -0.33837341451E+03  0.35585272163E+03  0.41800000000E+01 0. -1.
        -11    1    4    4    0    0 -0.11619051302E+02  0.40682725801E+02 -0.81769974598E+02  0.92067449609E+02  0.00000000000E+00 0. -1.
         11    1    4    4    0    0  0.71368233183E+02  0.27186927912E+02 -0.35530694110E+03  0.36342203587E+03  0.00000000000E+00 0.  1.
</event>
<event>
 8    1  0.7112384E-009  0.1650320E+03  0.7561462E-02  0.1183130E+00
          2   -1    0    0  501    0  0.00000000000E+00  0.00000000000E+00  0.11197786500E+04  0.11197786500E+04  0.00000000000E+00 0. -1.
         -2   -1    0    0    0  501 -0.00000000000E+00 -0.00000000000E+00 -0.32564582608E+02  0.32564582608E+02  0.00000000000E+00 0.  1.
         25    2    1    2    0    0 -0.19216623026E+01  0.15060106392E+03  0.43249548420E+03  0.47474508680E+03  0.12508469267E+03 0.  0.
         23    2    1    2    0    0  0.19216623026E+01 -0.15060106392E+03  0.65471858322E+03  0.67759814584E+03  0.88308837600E+02 0.  0.
          5    1    3    3  502    0 -0.14211588081E+02  0.13643251880E+03  0.43427879646E+03  0.45544631613E+03  0.41800000000E+01 0. -1.
         -5    1    3    3    0  502  0.12289925778E+02  0.14168545121E+02 -0.17833122585E+01  0.19298770662E+02  0.41800000000E+01 0. -1.
        -11    1    4    4    0    0  0.35217859237E+02 -0.23780542060E+02  0.13124073138E+03  0.13794905350E+03  0.00000000000E+00 0.  1.
         11    1    4    4    0    0 -0.33296196934E+02 -0.12682052186E+03  0.52347785184E+03  0.53964909234E+03  0.00000000000E+00 0. -1.
</event>
<event>
 8    1  0.7112384E-009  0.1729748E+03  0.7561462E-02  0.1174781E+00
         -2   -1    0    0    0  501 -0.00000000000E+00  0.00000000000E+00  0.42972306651E+03  0.42972306651E+03  0.00000000000E+00 0.  1.
          2   -1    0    0  501    0  0.00000000000E+00 -0.00000000000E+00 -0.11169495540E+03  0.11169495540E+03  0.00000000000E+00 0. -1.
         25    2    1    2    0    0 -0.49895275055E+02  0.14450647378E+03  0.30546470034E+03  0.36377076231E+03  0.12509526338E+03 0.  0.
         23    2    1    2    0    0  0.49895275055E+02 -0.14450647378E+03  0.12563410760E+02  0.17764725960E+03  0.89604967020E+02 0.  0.
          5    1    3    3  502    0  0.42312947067E+01  0.10334979277E+03  0.26507591544E+03  0.28457300798E+03  0.41800000000E+01 0. -1.
         -5    1    3    3    0  502 -0.54126569761E+02  0.41156681013E+02  0.40388784898E+02  0.79197754335E+02  0.41800000000E+01 0. -1.
        -11    1    4    4    0    0 -0.14624302702E+02 -0.85912810002E+02  0.22282127504E+02  0.89952067002E+02  0.00000000000E+00 0.  1.
         11    1    4    4    0    0  0.64519577757E+02 -0.58593663783E+02 -0.97187167439E+01  0.87695192597E+02  0.00000000000E+00 0. -1.
</event>
<event>
 8    1  0.7112384E-009  0.9865362E+02  0.7561462E-02  0.1283153E+00
         -1   -1    0    0    0  501 -0.00000000000E+00  0.00000000000E+00  0.30602947200E+03  0.30602947200E+03  0.00000000000E+00 0.  1.
          1   -1    0    0  501    0  0.00000000000E+00 -0.00000000000E+00 -0.53628861301E+02  0.53628861301E+02  0.00000000000E+00 0. -1.
         25    2    1    2    0    0 -0.58342112080E+01  0.65078287662E+02  0.11770138867E+03  0.18376856196E+03  0.12509214974E+03 0.  0.
         23    2    1    2    0    0  0.58342112080E+01 -0.65078287662E+02  0.13469922203E+03  0.17588977133E+03  0.92326105193E+02 0.  0.
          5    1    3    3  502    0  0.23821665144E+02  0.34060818955E+02  0.13191366677E+03  0.13837015212E+03  0.41800000000E+01 0. -1.
         -5    1    3    3    0  502 -0.29655876352E+02  0.31017468707E+02 -0.14212278100E+02  0.45398409839E+02  0.41800000000E+01 0. -1.
        -11    1    4    4    0    0  0.19369099985E+02 -0.85638328835E+02  0.11279434401E+03  0.14293932083E+03  0.00000000000E+00 0.  1.
         11    1    4    4    0    0 -0.13534888777E+02  0.20560041173E+02  0.21904878016E+02  0.32950450500E+02  0.00000000000E+00 0. -1.
</event>
<event>
 8    1  0.7112384E-009  0.1428985E+03  0.7561462E-02  0.1209481E+00
         -2   -1    0    0    0  501 -0.00000000000E+00  0.00000000000E+00  0.39112774251E+02  0.39112774251E+02  0.00000000000E+00 0. -1.
          2   -1    0    0  501    0  0.00000000000E+00 -0.00000000000E+00 -0.80702062180E+03  0.80702062180E+03  0.00000000000E+00 0.  1.
         25    2    1    2    0    0 -0.82268431252E+02 -0.70638680561E+02 -0.61706396864E+03  0.63888763716E+03  0.12510616911E+03 0.  0.
         23    2    1    2    0    0  0.82268431252E+02  0.70638680561E+02 -0.15084387891E+03  0.20724575890E+03  0.91864088753E+02 0.  0.
          5    1    3    3  502    0  0.22533292086E+02 -0.98585125578E+01 -0.27215176532E+03  0.27329287456E+03  0.41800000000E+01 0. -1.
         -5    1    3    3    0  502 -0.10480172334E+03 -0.60780168004E+02 -0.34491220332E+03  0.36559476260E+03  0.41800000000E+01 0. -1.
        -11    1    4    4    0    0  0.76608429434E+02  0.83296305152E+01 -0.63766207410E+02  0.10002181468E+03  0.00000000000E+00 0.  1.
         11    1    4    4    0    0  0.56600018180E+01  0.62309050046E+02 -0.87077671503E+02  0.10722394421E+03  0.00000000000E+00 0. -1.
</event>
<event>
 8    1  0.7112384E-009  0.2110176E+03  0.7561462E-02  0.1140763E+00
          2   -1    0    0  501    0  0.00000000000E+00  0.00000000000E+00  0.25702789026E+03  0.25702789026E+03  0.00000000000E+00 0. -1.
         -2   -1    0    0    0  501 -0.00000000000E+00 -0.00000000000E+00 -0.20690517320E+03  0.20690517320E+03  0.00000000000E+00 0.  1.
         25    2    1    2    0    0  0.93871745034E+01  0.19144681580E+03  0.95992365705E+02  0.24819804721E+03  0.12509090310E+03 0.  0.
         23    2    1    2    0    0 -0.93871745034E+01 -0.19144681580E+03 -0.45869648643E+02  0.21573501625E+03  0.87735797948E+02 0.  0.
          5    1    3    3  502    0  0.23992359634E+02  0.20563814588E+03  0.93683920127E+02  0.22728138870E+03  0.41800000000E+01 0. -1.
         -5    1    3    3    0  502 -0.14605185131E+02 -0.14191330074E+02  0.23084455781E+01  0.20916658504E+02  0.41800000000E+01 0. -1.
        -11    1    4    4    0    0  0.11047708085E+02 -0.46704467085E+02  0.24065704966E+02  0.53689079478E+02  0.00000000000E+00 0. -1.
         11    1    4    4    0    0 -0.20434882589E+02 -0.14474234872E+03 -0.69935353608E+02  0.16204593677E+03  0.00000000000E+00 0.  1.
</event>
<event>
 8    1  0.7112384E-009  0.9866562E+02  0.7561462E-02  0.1283127E+00
          2   -1    0    0  501    0  0.00000000000E+00  0.00000000000E+00  0.31937313522E+03  0.31937313522E+03  0.00000000000E+00 0. -1.
         -2   -1    0    0    0  501 -0.00000000000E+00 -0.00000000000E+00 -0.44635957468E+02  0.44635957468E+02  0.00000000000E+00 0.  1.
         25    2    1    2    0    0  0.40401463033E+02  0.33517977400E+02  0.15597466908E+03  0.20672121741E+03  0.12509928580E+03 0.  0.
         23    2    1    2    0    0 -0.40401463033E+02 -0.33517977400E+02  0.11876250868E+03  0.15728787528E+03  0.88764909842E+02 0.  0.
          5    1    3    3  502    0  0.22540035562E+02 -0.27430480630E+02 -0.26065501289E+01  0.35843423027E+02  0.41800000000E+01 0. -1.
         -5    1    3    3    0  502  0.17861427471E+02  0.60948458030E+02  0.15858121921E+03  0.17087779438E+03  0.41800000000E+01 0. -1.
        -11    1    4    4    0    0  0.25800983828E+02 -0.10215464593E+02  0.13720016989E+02  0.30956184350E+02  0.00000000000E+00 0.  1.
         11    1    4    4    0    0 -0.66202446862E+02 -0.23302512807E+02  0.10504249169E+03  0.12633169093E+03  0.00000000000E+00 0. -1.
</event>
<event>
 8    1  0.7112384E-009  0.1363989E+03  0.7561462E-02  0.1218258E+00
          2   -1    0    0  501    0  0.00000000000E+00  0.00000000000E+00  0.25107641794E+04  0.25107641794E+04  0.00000000000E+00 0. -1.
         -2   -1    0    0    0  501 -0.00000000000E+00 -0.00000000000E+00 -0.10052985954E+02  0.10052985954E+02  0.00000000000E+00 0.  1.
         25    2    1    2    0    0  0.86402380015E+02 -0.11509587693E+02  0.19047515235E+04  0.19108438009E+04  0.12509125923E+03 0.  0.
         23    2    1    2    0    0 -0.86402380015E+02  0.11509587693E+02  0.59595966991E+03  0.60997336446E+03  0.96445504327E+02 0.  0.
          5    1    3    3  502    0  0.31817732069E+02 -0.61094242360E+02  0.59058344300E+03  0.59460167345E+03  0.41800000000E+01 0. -1.
         -5    1    3    3    0  502  0.54584647947E+02  0.49584654667E+02  0.13141680805E+04  0.13162421274E+04  0.41800000000E+01 0. -1.
        -11    1    4    4    0    0  0.55979251221E+01  0.34618219656E+02  0.15197283836E+03  0.15596634732E+03  0.00000000000E+00 0. -1.
         11    1    4    4    0    0 -0.92000305138E+02 -0.23108631963E+02  0.44398683155E+03  0.45400701713E+03  0.00000000000E+00 0.  1.
</event>
<event>
 8    1  0.7112384E-009  0.4040125E+03  0.7561462E-02  0.1042399E+00
          1   -1    0    0  501    0  0.00000000000E+00  0.00000000000E+00  0.57071599649E+03  0.57071599649E+03  0.00000000000E+00 0. -1.
         -1   -1    0    0    0  501 -0.00000000000E+00 -0.00000000000E+00 -0.29863475805E+03  0.29863475805E+03  0.00000000000E+00 0.  1.
         25    2    1    2    0    0 -0.39162948873E+03 -0.71054630656E+02  0.14862034353E+03  0.44289798913E+03  0.12509278670E+03 0.  0.
         23    2    1    2    0    0  0.39162948873E+03  0.71054630656E+02  0.12346089491E+03  0.42645276540E+03  0.90537017640E+02 0.  0.
          5    1    3    3  502    0  0.79950664442E+00 -0.10327290176E+02 -0.10265799022E+02  0.15170733760E+02  0.41800000000E+01 0.  1.
         -5    1    3    3    0  502 -0.39242899538E+03 -0.60727340480E+02  0.15888614255E+03  0.42772725537E+03  0.41800000000E+01 0.  1.
        -11    1    4    4    0    0  0.31701865921E+03  0.72104218049E+02  0.13292037149E+03  0.35123734668E+03  0.00000000000E+00 0. -1.
         11    1    4    4    0    0  0.74610829527E+02 -0.10495873929E+01 -0.94594765781E+01  0.75215418722E+02  0.00000000000E+00 0.  1.
</event>
<event>
 8    1  0.7112384E-009  0.1046058E+03  0.7561462E-02  0.1270898E+00
         -2   -1    0    0    0  501 -0.00000000000E+00  0.00000000000E+00  0.12633236856E+02  0.12633236856E+02  0.00000000000E+00 0.  1.
          2   -1    0    0  501    0  0.00000000000E+00 -0.00000000000E+00 -0.93803838971E+03  0.93803838971E+03  0.00000000000E+00 0. -1.
         25    2    1    2    0    0 -0.13933578432E+02 -0.55960639986E+01 -0.61740932271E+03  0.63013387031E+03  0.12509581208E+03 0.  0.
         23    2    1    2    0    0  0.13933578432E+02  0.55960639986E+01 -0.30799583014E+03  0.32053775626E+03  0.87507492593E+02 0.  0.
          5    1    3    3  502    0  0.46702447467E+02 -0.34562745144E+02 -0.26110331994E+03  0.26752218232E+03  0.41800000000E+01 0. -1.
         -5    1    3    3    0  502 -0.60636025899E+02  0.28966681146E+02 -0.35630600277E+03  0.36261168799E+03  0.41800000000E+01 0. -1.
        -11    1    4    4    0    0  0.44865145518E+02 -0.14019065470E+02 -0.11750464107E+03  0.12655732358E+03  0.00000000000E+00 0.  1.
         11    1    4    4    0    0 -0.30931567085E+02  0.19615129468E+02 -0.19049118907E+03  0.19398043267E+03  0.00000000000E+00 0. -1.
</event>
<event>
 8    1  0.7112384E-009  0.1126157E+03  0.7561462E-02  0.1255801E+00
          2   -1    0    0  501    0  0.00000000000E+00  0.00000000000E+00  0.12607931138E+03  0.12607931138E+03  0.00000000000E+00 0. -1.
         -2   -1    0    0    0  501 -0.00000000000E+00 -0.00000000000E+00 -0.10307554290E+03  0.10307554290E+03  0.00000000000E+00 0.  1.
         25    2    1    2    0    0 -0.27339357238E+02 -0.15145132663E+02  0.44321344597E+01  0.12901116654E+03  0.12508965497E+03 0.  0.
         23    2    1    2    0    0  0.27339357238E+02  0.15145132663E+02  0.18571634028E+02  0.10014368774E+03  0.93311505749E+02 0.  0.
          5    1    3    3  502    0 -0.25343979021E+01  0.54584001324E+02  0.13281498137E+01  0.54818543899E+02  0.41800000000E+01 0.  1.
         -5    1    3    3    0  502 -0.24804959336E+02 -0.69729133988E+02  0.31039846460E+01  0.74192622645E+02  0.41800000000E+01 0.  1.
        -11    1    4    4    0    0  0.53859351736E+02 -0.15236621829E+02  0.20901483983E+02  0.59748275681E+02  0.00000000000E+00 0. -1.
         11    1    4    4    0    0 -0.26519994498E+02  0.30381754492E+02 -0.23298499551E+01  0.40395412054E+02  0.00000000000E+00 0.  1.
</event>
<event>
 8    1  0.7112384E-009  0.1720911E+03  0.7561462E-02  0.1175685E+00
         -2   -1    0    0    0  501 -0.00000000000E+00  0.00000000000E+00  0.40923288571E+02  0.40923288571E+02  0.00000000000E+00 0.  1.
          2   -1    0    0  501    0  0.00000000000E+00 -0.00000000000E+00 -0.10239126422E+04  0.10239126422E+04  0.00000000000E+00 0. -1.
         25    2    1    2    0    0  0.15419345252E+03 -0.30712847752E+02 -0.32499421376E+03  0.38208503890E+03  0.12509531628E+03 0.  0.
         23    2    1    2    0    0 -0.15419345252E+03  0.30712847752E+02 -0.65799513991E+03  0.68275089191E+03  0.92044969696E+02 0.  0.
          5    1    3    3  502    0  0.11220220501E+03 -0.42809021595E+02 -0.31489025999E+03  0.33703901165E+03  0.41800000000E+01 0. -1.
         -5    1    3    3    0  502  0.41991247510E+02  0.12096173843E+02 -0.10103953773E+02  0.45046027249E+02  0.41800000000E+01 0. -1.
        -11    1    4    4    0    0 -0.48316559854E+02  0.53215959761E+02 -0.21385607894E+03  0.22561216906E+03  0.00000000000E+00 0.  1.
         11    1    4    4    0    0 -0.10587689267E+03 -0.22503112009E+02 -0.44413906097E+03  0.45713872285E+03  0.00000000000E+00 0. -1.
</event>
<event>
 8    1  0.7112384E-009  0.1045179E+03  0.7561462E-02  0.1271072E+00
         -1   -1    0    0    0  501 -0.00000000000E+00  0.00000000000E+00  0.33040538349E+02  0.33040538349E+02  0.00000000000E+00 0. -1.
          1   -1    0    0  501    0  0.00000000000E+00 -0.00000000000E+00 -0.53906402265E+03  0.53906402265E+03  0.00000000000E+00 0.  1.
         25    2    1    2    0    0 -0.38630024486E+02  0.68964795260E+02 -0.27573760620E+03  0.31293225204E+03  0.12508774967E+03 0.  0.
         23    2    1    2    0    0  0.38630024486E+02 -0.68964795260E+02 -0.23028587811E+03  0.25917230896E+03  0.88827238509E+02 0.  0.
          5    1    3    3  502    0  0.24144225969E+02 -0.23492701996E+01 -0.38779748222E+01  0.24919346035E+02  0.41800000000E+01 0. -1.
         -5    1    3    3    0  502 -0.62774250455E+02  0.71314065460E+02 -0.27185963137E+03  0.28801290600E+03  0.41800000000E+01 0. -1.
        -11    1    4    4    0    0  0.33843612071E+02 -0.18383633090E+02 -0.21121460567E+02  0.43925666074E+02  0.00000000000E+00 0. -1.
         11    1    4    4    0    0  0.47864124154E+01 -0.50581162171E+02 -0.20916441754E+03  0.21524664289E+03  0.00000000000E+00 0.  1.
</event>
<event>
 8    1  0.7112384E-009  0.1113861E+03  0.7561462E-02  0.1258024E+00
         -1   -1    0    0    0  501 -0.00000000000E+00  0.00000000000E+00  0.85966095910E+02  0.85966095910E+02  0.00000000000E+00 0.  1.
          1   -1    0    0  501    0  0.00000000000E+00 -0.00000000000E+00 -0.21571658437E+03  0.21571658437E+03  0.00000000000E+00 0. -1.
         25    2    1    2    0    0 -0.20201452015E+02 -0.75122513042E+02 -0.96286308234E+02  0.17598168907E+03  0.12508801343E+03 0.  0.
         23    2    1    2    0    0  0.20201452015E+02  0.75122513042E+02 -0.33464180229E+02  0.12570099121E+03  0.92894548842E+02 0.  0.
          5    1    3    3  502    0 -0.44377506773E+02 -0.93371669665E+02 -0.10152729033E+03  0.14495825221E+03  0.41800000000E+01 0. -1.
         -5    1    3    3    0  502  0.24176054758E+02  0.18249156622E+02  0.52409820913E+01  0.31023436856E+02  0.41800000000E+01 0. -1.
        -11    1    4    4    0    0  0.29186079608E+02  0.26948947440E+02  0.26880496053E+02  0.47964925509E+02  0.00000000000E+00 0.  1.
         11    1    4    4    0    0 -0.89846275931E+01  0.48173565603E+02 -0.60344676282E+02  0.77736065706E+02  0.00000000000E+00 0. -1.
</event>
<event>
 8    1  0.7112384E-009  0.1357740E+03  0.7561462E-02  0.1219131E+00
          4   -1    0    0  501    0  0.00000000000E+00  0.00000000000E+00  0.26550787858E+03  0.26550787858E+03  0.00000000000E+00 0. -1.
         -4   -1    0    0    0  501 -0.00000000000E+00 -0.00000000000E+00 -0.96869897185E+02  0.96869897185E+02  0.00000000000E+00 0.  1.
         25    2    1    2    0    0  0.10682593713E+03 -0.43589808533E+02  0.67430318455E+02  0.18303626846E+03  0.12507427983E+03 0.  0.
         23    2    1    2    0    0 -0.10682593713E+03  0.43589808533E+02  0.10120766294E+03  0.17934150730E+03  0.92782180137E+02 0.  0.
          5    1    3    3  502    0  0.65894625950E+02  0.10458537254E+01  0.95538406493E+02  0.11613894719E+03  0.41800000000E+01 0.  1.
         -5    1    3    3    0  502  0.40931311185E+02 -0.44635662258E+02 -0.28108088038E+02  0.66897321274E+02  0.41800000000E+01 0.  1.
        -11    1    4    4    0    0 -0.11361057197E+03  0.14024209644E+02  0.63359719823E+02  0.13083766513E+03  0.00000000000E+00 0. -1.
         11    1    4    4    0    0  0.67846348365E+01  0.29565598889E+02  0.37847943121E+02  0.48503842178E+02  0.00000000000E+00 0.  1.
</event>
<event>
 8    1  0.7112384E-009  0.9744816E+02  0.7561462E-02  0.1285755E+00
          1   -1    0    0  501    0  0.00000000000E+00  0.00000000000E+00  0.12019686515E+03  0.12019686515E+03  0.00000000000E+00 0. -1.
         -1   -1    0    0    0  501 -0.00000000000E+00 -0.00000000000E+00 -0.20334974837E+03  0.20334974837E+03  0.00000000000E+00 0.  1.
         25    2    1    2    0    0  0.16343096775E+02 -0.70304395397E+02  0.44061731704E+02  0.15100674113E+03  0.12510713345E+03 0.  0.
         23    2    1    2    0    0 -0.16343096775E+02  0.70304395397E+02 -0.12721461492E+03  0.17253987239E+03  0.91524010464E+02 0.  0.
          5    1    3    3  502    0  0.43263087770E+02 -0.67717640447E+02 -0.18636865002E+02  0.82596481331E+02  0.41800000000E+01 0. -1.
         -5    1    3    3    0  502 -0.26919990994E+02 -0.25867549499E+01  0.62698596706E+02  0.68410259795E+02  0.41800000000E+01 0. -1.
        -11    1    4    4    0    0  0.12479483958E+02  0.50684304499E+02 -0.13949803628E+02  0.54029929333E+02  0.00000000000E+00 0. -1.
         11    1    4    4    0    0 -0.28822580733E+02  0.19620090898E+02 -0.11326481129E+03  0.11850994306E+03  0.00000000000E+00 0.  1.
</event>
<event>
 8    1  0.7112384E-009  0.1613375E+03  0.7561462E-02  0.1187195E+00
         -3   -1    0    0    0  501 -0.00000000000E+00  0.00000000000E+00  0.60064319938E+03  0.60064319938E+03  0.00000000000E+00 0.  1.
          3   -1    0    0  501    0  0.00000000000E+00 -0.00000000000E+00 -0.81146847814E+02  0.81146847814E+02  0.00000000000E+00 0. -1.
         25    2    1    2    0    0  0.10824616607E+03  0.90643448204E+02  0.46934562913E+03  0.50582796303E+03  0.12507254468E+03 0.  0.
         23    2    1    2    0    0 -0.10824616607E+03 -0.90643448204E+02  0.50150722442E+02  0.17596208417E+03  0.92271842568E+02 0.  0.
          5    1    3    3  502    0  0.11255846769E+03  0.70188739940E+02  0.23006667045E+03  0.26560122950E+03  0.41800000000E+01 0.  1.
         -5    1    3    3    0  502 -0.43123016158E+01  0.20454708264E+02  0.23927895868E+03  0.24022673353E+03  0.41800000000E+01 0.  1.
        -11    1    4    4    0    0 -0.43332491300E+02  0.13966477033E+02  0.12265169571E+02  0.47150839521E+02  0.00000000000E+00 0.  1.
         11    1    4    4    0    0 -0.64913674772E+02 -0.10460992524E+03  0.37885552871E+02  0.12881124464E+03  0.00000000000E+00 0. -1.
</event>
<event>
 8    1  0.7112384E-009  0.1060961E+03  0.7561462E-02  0.1267975E+00
          2   -1    0    0  501    0  0.00000000000E+00  0.00000000000E+00  0.34479249598E+03  0.34479249598E+03  0.00000000000E+00 0. -1.
         -2   -1    0    0    0  501 -0.00000000000E+00 -0.00000000000E+00 -0.35030477723E+02  0.35030477723E+02  0.00000000000E+00 0.  1.
         25    2    1    2    0    0 -0.11388096833E+01 -0.38338694002E+02  0.17772427018E+03  0.22068954662E+03  0.12508719932E+03 0.  0.
         23    2    1    2    0    0  0.11388096833E+01  0.38338694002E+02  0.13203774808E+03  0.15913342708E+03  0.80114470288E+02 0.  0.
          5    1    3    3  502    0 -0.55135308015E+02 -0.50761308686E+02  0.10827019935E+03  0.13174415022E+03  0.41800000000E+01 0. -1.
         -5    1    3    3    0  502  0.53996498332E+02  0.12422614685E+02  0.69454070822E+02  0.88945396404E+02  0.41800000000E+01 0. -1.
        -11    1    4    4    0    0 -0.12616635402E+02 -0.18885939489E+02  0.12578660618E+02  0.25963068043E+02  0.00000000000E+00 0.  1.
         11    1    4    4    0    0  0.13755445086E+02  0.57224633491E+02  0.11945908746E+03  0.13317035903E+03  0.00000000000E+00 0. -1.
</event>
<event>
 8    1  0.7112384E-009  0.2435545E+03  0.7561462E-02  0.1117447E+00
          2   -1    0    0  501    0  0.00000000000E+00  0.00000000000E+00  0.10718236591E+03  0.10718236591E+03  0.00000000000E+00 0. -1.
         -2   -1    0    0    0  501 -0.00000000000E+00 -0.00000000000E+00 -0.60345454347E+03  0.60345454347E+03  0.00000000000E+00 0.  1.
         25    2    1    2    0    0  0.13525973879E+03 -0.18671668318E+03 -0.26726498311E+03  0.37448175920E+03  0.12509076730E+03 0.  0.
         23    2    1    2    0    0 -0.13525973879E+03  0.18671668318E+03 -0.22900719445E+03  0.33615515018E+03  0.86009727170E+02 0.  0.
          5    1    3    3  502    0  0.43261373951E+01 -0.72342460488E+02 -0.14419069289E+03  0.16143288194E+03  0.41800000000E+01 0. -1.
         -5    1    3    3    0  502  0.13093360139E+03 -0.11437422269E+03 -0.12307429021E+03  0.21304887726E+03  0.41800000000E+01 0. -1.
        -11    1    4    4    0    0 -0.99401109274E+02  0.17774149468E+03 -0.21626073536E+03  0.29705441440E+03  0.00000000000E+00 0.  1.
         11    1    4    4    0    0 -0.35858629516E+02  0.89751885029E+01 -0.12746459091E+02  0.39100735783E+02  0.00000000000E+00 0. -1.
</event>
<event>
 8    1  0.7112384E-009  0.8317050E+02  0.7561462E-02  0.1320287E+00
          1   -1    0    0  501    0  0.00000000000E+00  0.00000000000E+00  0.26333397525E+03  0.26333397525E+03  0.00000000000E+00 0. -1.
         -1   -1    0    0    0  501 -0.00000000000E+00 -0.00000000000E+00 -0.70594333295E+02  0.70594333295E+02  0.00000000000E+00 0.  1.
         25    2    1    2    0    0 -0.79232504775E+01  0.26260069394E+02  0.20087168740E+03  0.23822176952E+03  0.12509119687E+03 0.  0.
         23    2    1    2    0    0  0.79232504775E+01 -0.26260069394E+02 -0.81320454398E+01  0.95706539022E+02  0.91330401870E+02 0.  0.
          5    1    3    3  502    0 -0.33195899000E+02  0.62069904954E+02  0.66894955493E+02  0.97195927291E+02  0.41800000000E+01 0. -1.
         -5    1    3    3    0  502  0.25272648522E+02 -0.35809835560E+02  0.13397673190E+03  0.14102584223E+03  0.41800000000E+01 0. -1.
        -11    1    4    4    0    0 -0.17537626537E+02 -0.40195355733E+01 -0.43321378373E+02  0.46909133811E+02  0.00000000000E+00 0.  1.
         11    1    4    4    0    0  0.25460877015E+02 -0.22240533821E+02  0.35189332933E+02  0.48797405211E+02  0.00000000000E+00 0. -1.
</event>
<event>
 8    1  0.7112384E-009  0.1238936E+03  0.7561462E-02  0.1236809E+00
         -2   -1    0    0    0  501 -0.00000000000E+00  0.00000000000E+00  0.42337398168E+02  0.42337398168E+02  0.00000000000E+00 0.  1.
          2   -1    0    0  501    0  0.00000000000E+00 -0.00000000000E+00 -0.69564473558E+03  0.69564473558E+03  0.00000000000E+00 0. -1.
         25    2    1    2    0    0 -0.86912915568E+02  0.59224869619E+02 -0.17502306941E+03  0.23946457789E+03  0.12509504051E+03 0.  0.
         23    2    1    2    0    0  0.86912915568E+02 -0.59224869619E+02 -0.47828426800E+03  0.49851755587E+03  0.93287043118E+02 0.  0.
          5    1    3    3  502    0 -0.40973133506E+02  0.39525364292E+02 -0.18021233090E+03  0.18903705642E+03  0.41800000000E+01 0. -1.
         -5    1    3    3    0  502 -0.45939782062E+02  0.19699505327E+02  0.51892614902E+01  0.50427521462E+02  0.41800000000E+01 0. -1.
        -11    1    4    4    0    0  0.43861124617E+02 -0.81139326778E+02 -0.30817497183E+03  0.32168183329E+03  0.00000000000E+00 0. -1.
         11    1    4    4    0    0  0.43051790951E+02  0.21914457159E+02 -0.17010929617E+03  0.17683572258E+03  0.00000000000E+00 0.  1.
</event>
<event>
 8    1  0.7112384E-009  0.7389731E+02  0.7561462E-02  0.1347320E+00
          2   -1    0    0  501    0  0.00000000000E+00  0.00000000000E+00  0.33445789188E+03  0.33445789188E+03  0.00000000000E+00 0. -1.
         -2   -1    0    0    0  501 -0.00000000000E+00 -0.00000000000E+00 -0.38271667858E+02  0.38271667858E+02  0.00000000000E+00 0.  1.
         25    2    1    2    0    0  0.24690187919E+02 -0.26267470410E+02  0.16812695088E+03  0.21263411292E+03  0.12508800495E+03 0.  0.
         23    2    1    2    0    0 -0.24690187919E+02  0.26267470410E+02  0.12805927314E+03  0.16009544682E+03  0.89060593273E+02 0.  0.
          5    1    3    3  502    0  0.34978542321E+02 -0.10016177500E+02 -0.62471000176E+01  0.37152670068E+02  0.41800000000E+01 0. -1.
         -5    1    3    3    0  502 -0.10288354402E+02 -0.16251292910E+02  0.17437405090E+03  0.17548144285E+03  0.41800000000E+01 0. -1.
        -11    1    4    4    0    0  0.29156557408E+01  0.52987980210E+02  0.97490928771E+02  0.11099868597E+03  0.00000000000E+00 0. -1.
         11    1    4    4    0    0 -0.27605843660E+02 -0.26720509800E+02  0.30568344369E+02  0.49096760847E+02  0.00000000000E+00 0.  1.
</event>
<event>
 8    1  0.7112384E-009  0.8873043E+02  0.7561462E-02  0.1305956E+00
         -1   -1    0    0    0  501 -0.00000000000E+00  0.00000000000E+00  0.44989315412E+02  0.44989315412E+02  0.00000000000E+00 0.  1.
          1   -1    0    0  501    0  0.00000000000E+00 -0.00000000000E+00 -0.27770954952E+03  0.27770954952E+03  0.00000000000E+00 0. -1.
         25    2    1    2    0    0 -0.61972234647E+01 -0.28142467115E+02 -0.15029074367E+03  0.19764952079E+03  0.12509045289E+03 0.  0.
         23    2    1    2    0    0  0.61972234647E+01  0.28142467115E+02 -0.82429490440E+02  0.12504934414E+03  0.89511527423E+02 0.  0.
          5    1    3    3  502    0  0.21846508172E+02 -0.63465382164E+02 -0.39584253787E+02  0.78035313804E+02  0.41800000000E+01 0. -1.
         -5    1    3    3    0  502 -0.28043731637E+02  0.35322915049E+02 -0.11070648988E+03  0.11961420699E+03  0.41800000000E+01 0. -1.
        -11    1    4    4    0    0 -0.24849289571E+02  0.31272769115E+01 -0.81399800193E+02  0.85165688658E+02  0.00000000000E+00 0. -1.
         11    1    4    4    0    0  0.31046513036E+02  0.25015190203E+02 -0.10296902464E+01  0.39883655482E+02  0.00000000000E+00 0.  1.
</event>
<event>
 8    1  0.7112384E-009  0.1024991E+03  0.7561462E-02  0.1275127E+00
         -2   -1    0    0    0  501 -0.00000000000E+00  0.00000000000E+00  0.24564985040E+02  0.24564985040E+02  0.00000000000E+00 0.  1.
          2   -1    0    0  501    0  0.00000000000E+00 -0.00000000000E+00 -0.59712995223E+03  0.59712995223E+03  0.00000000000E+00 0. -1.
         25    2    1    2    0    0 -0.40379307458E+02  0.29870519615E+02 -0.39478844467E+03  0.41716702490E+03  0.12509066395E+03 0.  0.
         23    2    1    2    0    0  0.40379307458E+02 -0.29870519615E+02 -0.17777652252E+03  0.20452791237E+03  0.87774931308E+02 0.  0.
          5    1    3    3  502    0  0.34145832687E+02  0.13487617974E+02 -0.25667983291E+03  0.25932578497E+03  0.41800000000E+01 0. -1.
         -5    1    3    3    0  502 -0.74525140145E+02  0.16382901641E+02 -0.13810861176E+03  0.15784123993E+03  0.41800000000E+01 0. -1.
        -11    1    4    4    0    0  0.60248569498E+02 -0.59636838060E+01 -0.70949663340E+02  0.93270093702E+02  0.00000000000E+00 0.  1.
         11    1    4    4    0    0 -0.19869262040E+02 -0.23906835809E+02 -0.10682685918E+03  0.11125781867E+03  0.00000000000E+00 0. -1.
</event>
<event>
 8    1  0.7112384E-009  0.9108168E+02  0.7561462E-02  0.1300253E+00
         -2   -1    0    0    0  501 -0.00000000000E+00  0.00000000000E+00  0.18008493047E+02  0.18008493047E+02  0.00000000000E+00 0.  1.
          2   -1    0    0  501    0  0.00000000000E+00 -0.00000000000E+00 -0.89729003537E+03  0.89729003537E+03  0.00000000000E+00 0. -1.
         25    2    1    2    0    0 -0.51540581893E+02  0.27677394989E+02 -0.41518372378E+03  0.43755096076E+03  0.12510335324E+03 0.  0.
         23    2    1    2    0    0  0.51540581893E+02 -0.27677394989E+02 -0.46409781855E+03  0.47774756766E+03  0.97126121370E+02 0.  0.
          5    1    3    3  502    0 -0.14373815417E+02  0.33229286412E+02 -0.22036252713E+02  0.42589445626E+02  0.41800000000E+01 0.  1.
         -5    1    3    3    0  502 -0.37166766476E+02 -0.55518914232E+01 -0.39314747106E+03  0.39496151513E+03  0.41800000000E+01 0.  1.
        -11    1    4    4    0    0 -0.18479795871E+02 -0.32855016509E+02 -0.98452892464E+02  0.10542261143E+03  0.00000000000E+00 0.  1.
         11    1    4    4    0    0  0.70020377764E+02  0.51776215199E+01 -0.36564492608E+03  0.37232495624E+03  0.00000000000E+00 0. -1.
</event>
<event>
 8    1  0.7112384E-009  0.9431684E+02  0.7561462E-02  0.1292722E+00
         -2   -1    0    0    0  501 -0.00000000000E+00  0.00000000000E+00  0.24128621342E+02  0.24128621342E+02  0.00000000000E+00 0.  1.
          2   -1    0    0  501    0  0.00000000000E+00 -0.00000000000E+00 -0.70137405270E+03  0.70137405270E+03  0.00000000000E+00 0. -1.
         25    2    1    2    0    0 -0.30353720361E+02  0.65169612903E+02 -0.36824919904E+03  0.39550501234E+03  0.12509322687E+03 0.  0.
         23    2    1    2    0    0  0.30353720361E+02 -0.65169612903E+02 -0.30899623232E+03  0.32999766170E+03  0.90836987818E+02 0.  0.
          5    1    3    3  502    0 -0.10380175131E+02  0.13231037947E+02  0.50566447871E+01  0.18051328411E+02  0.41800000000E+01 0. -1.
         -5    1    3    3    0  502 -0.19973545230E+02  0.51938574955E+02 -0.37330584383E+03  0.37745368393E+03  0.41800000000E+01 0. -1.
        -11    1    4    4    0    0  0.53853797339E+02 -0.89822187326E+01 -0.13345779820E+03  0.14419395147E+03  0.00000000000E+00 0.  1.
         11    1    4    4    0    0 -0.23500076978E+02 -0.56187394170E+02 -0.17553843412E+03  0.18580371023E+03  0.00000000000E+00 0. -1.
</event>
<event>
 8    1  0.7112384E-009  0.9234383E+02  0.7561462E-02  0.1297273E+00
         -1   -1    0    0    0  501 -0.00000000000E+00  0.00000000000E+00  0.76779897654E+02  0.76779897654E+02  0.00000000000E+00 0.  1.
          1   -1    0    0  501    0  0.00000000000E+00 -0.00000000000E+00 -0.17037237041E+03  0.17037237041E+03  0.00000000000E+00 0. -1.
         25    2    1    2    0    0  0.31146644975E+02  0.13533105495E+02 -0.40382393791E+02  0.13576177378E+03  0.12508902051E+03 0.  0.
         23    2    1    2    0    0 -0.31146644975E+02 -0.13533105495E+02 -0.53210078969E+02  0.11139049429E+03  0.91778381318E+02 0.  0.
          5    1    3    3  502    0  0.10292581761E+02  0.46403343806E+02  0.29186233065E+02  0.55933140054E+02  0.41800000000E+01 0. -1.
         -5    1    3    3    0  502  0.20854063214E+02 -0.32870238311E+02 -0.69568626856E+02  0.79828633721E+02  0.41800000000E+01 0. -1.
        -11    1    4    4    0    0 -0.63069999561E+02 -0.17998132206E+02 -0.34212977683E+02  0.73974897428E+02  0.00000000000E+00 0.  1.
         11    1    4    4    0    0  0.31923354585E+02  0.44650267114E+01 -0.18997101286E+02  0.37415596865E+02  0.00000000000E+00 0. -1.
</event>
<event>
 8    1  0.7112384E-009  0.9005804E+02  0.7561462E-02  0.1302711E+00
         -2   -1    0    0    0  501 -0.00000000000E+00  0.00000000000E+00  0.17800902143E+02  0.17800902143E+02  0.00000000000E+00 0. -1.
          2   -1    0    0  501    0  0.00000000000E+00 -0.00000000000E+00 -0.14553552015E+04  0.14553552015E+04  0.00000000000E+00 0.  1.
         25    2    1    2    0    0  0.30001391230E+02  0.45536977770E+02 -0.12556874791E+04  0.12630803102E+04  0.12508846910E+03 0.  0.
         23    2    1    2    0    0 -0.30001391230E+02 -0.45536977770E+02 -0.18186682026E+03  0.21007579342E+03  0.89903274953E+02 0.  0.
          5    1    3    3  502    0 -0.15253278591E+02  0.20739114472E+02 -0.10697965418E+04  0.10701144269E+04  0.41800000000E+01 0.  1.
         -5    1    3    3    0  502  0.45254669821E+02  0.24797863298E+02 -0.18589093724E+03  0.19296588329E+03  0.41800000000E+01 0.  1.
        -11    1    4    4    0    0 -0.58490792501E+02 -0.44948129060E+02 -0.15107159531E+03  0.16811940407E+03  0.00000000000E+00 0.  1.
         11    1    4    4    0    0  0.28489401271E+02 -0.58884870962E+00 -0.30795224948E+02  0.41956389349E+02  0.00000000000E+00 0. -1.
</event>
<event>
 8    1  0.7112384E-009  0.9781628E+02  0.7561462E-02  0.1284956E+00
         -2   -1    0    0    0  501 -0.00000000000E+00  0.00000000000E+00  0.24895067234E+02  0.24895067234E+02  0.00000000000E+00 0.  1.
          2   -1    0    0  501    0  0.00000000000E+00 -0.00000000000E+00 -0.62502723652E+03  0.62502723652E+03  0.00000000000E+00 0. -1.
         25    2    1    2    0    0 -0.41620479297E+02 -0.25721632794E+02 -0.23573676562E+03  0.27131847332E+03  0.12509206453E+03 0.  0.
         23    2    1    2    0    0  0.41620479297E+02  0.25721632794E+02 -0.36439540367E+03  0.37860383044E+03  0.90349230868E+02 0.  0.
          5    1    3    3  502    0 -0.42906787579E+02  0.22552598618E+02 -0.21169108085E+03  0.21721003254E+03  0.41800000000E+01 0. -1.
         -5    1    3    3    0  502  0.12863082826E+01 -0.48274231412E+02 -0.24045684773E+02  0.54108440780E+02  0.41800000000E+01 0. -1.
        -11    1    4    4    0    0  0.41994990118E+02 -0.24277435235E+02 -0.23346486359E+03  0.23845086619E+03  0.00000000000E+00 0.  1.
         11    1    4    4    0    0 -0.37451082136E+00  0.49999068029E+02 -0.13093054008E+03  0.14015296425E+03  0.00000000000E+00 0. -1.
</event>
<event>
 8    1  0.7112384E-009  0.1147792E+03  0.7561462E-02  0.1251967E+00
          2   -1    0    0  501    0  0.00000000000E+00  0.00000000000E+00  0.10574583679E+03  0.10574583679E+03  0.00000000000E+00 0. -1.
         -2   -1    0    0    0  501 -0.00000000000E+00 -0.00000000000E+00 -0.15673456437E+03  0.15673456437E+03  0.00000000000E+00 0.  1.
         25    2    1    2    0    0 -0.28363328339E+02 -0.54621898259E+02  0.85066590601E+01  0.13967077068E+03  0.12509009062E+03 0.  0.
         23    2    1    2    0    0  0.28363328339E+02  0.54621898259E+02 -0.59495386638E+02  0.12280963048E+03  0.88059492070E+02 0.  0.
          5    1    3    3  502    0  0.13881805755E+02 -0.79514631321E+02 -0.19367310178E+02  0.83113453957E+02  0.41800000000E+01 0. -1.
         -5    1    3    3    0  502 -0.42245134094E+02  0.24892733061E+02  0.27873969238E+02  0.56557316724E+02  0.41800000000E+01 0. -1.
        -11    1    4    4    0    0  0.54527863280E+01  0.71094727181E+02 -0.19608549857E+02  0.73950580384E+02  0.00000000000E+00 0. -1.
         11    1    4    4    0    0  0.22910542011E+02 -0.16472828921E+02 -0.39886836781E+02  0.48859050097E+02  0.00000000000E+00 0.  1.
</event>
<event>
 8    1  0.7112384E-009  0.1159625E+03  0.7561462E-02  0.1249910E+00
          1   -1    0    0  501    0  0.00000000000E+00  0.00000000000E+00  0.17187192231E+02  0.17187192231E+02  0.00000000000E+00 0. -1.
         -1   -1    0    0    0  501 -0.00000000000E+00 -0.00000000000E+00 -0.86964153111E+03  0.86964153111E+03  0.00000000000E+00 0.  1.
         25    2    1    2    0    0  0.42889641819E+02  0.24929915267E+02 -0.57736233781E+03  0.59283667682E+03  0.12508810578E+03 0.  0.
         23    2    1    2    0    0 -0.42889641819E+02 -0.24929915267E+02 -0.27509200107E+03  0.29399204652E+03  0.91075201434E+02 0.  0.
          5    1    3    3  502    0 -0.24130988081E+02 -0.32154118814E+02 -0.27280902900E+03  0.27578692979E+03  0.41800000000E+01 0. -1.
         -5    1    3    3    0  502  0.67020629899E+02  0.57084034081E+02 -0.30455330881E+03  0.31704974702E+03  0.41800000000E+01 0. -1.
        -11    1    4    4    0    0  0.27574970601E+02  0.26483990187E+01 -0.63611998582E+02  0.69382125830E+02  0.00000000000E+00 0.  1.
         11    1    4    4    0    0 -0.70464612420E+02 -0.27578314286E+02 -0.21148000249E+03  0.22460992069E+03  0.00000000000E+00 0. -1.
</event>
<event>
 8    1  0.7112384E-009  0.1378215E+03  0.7561462E-02  0.1216291E+00
         -1   -1    0    0    0  501 -0.00000000000E+00  0.00000000000E+00  0.23737648561E+03  0.23737648561E+03  0.00000000000E+00 0.  1.
          1   -1    0    0  501    0  0.00000000000E+00 -0.00000000000E+00 -0.85119435769E+02  0.85119435769E+02  0.00000000000E+00 0. -1.
         25    2    1    2    0    0 -0.64540777245E+02 -0.63518300290E+02  0.10373126811E+03  0.18603097198E+03  0.12508900892E+03 0.  0.
         23    2    1    2    0    0  0.64540777245E+02  0.63518300290E+02  0.48525781731E+02  0.13646494940E+03  0.89821180813E+02 0.  0.
          5    1    3    3  502    0 -0.10001517653E+03 -0.49353810497E+02  0.56349466331E+02  0.12502627285E+03  0.41800000000E+01 0.  1.
         -5    1    3    3    0  502  0.35474399288E+02 -0.14164489793E+02  0.47381801782E+02  0.61004699131E+02  0.41800000000E+01 0.  1.
        -11    1    4    4    0    0  0.75448655192E+02  0.16354701884E+02  0.18118194141E+02  0.79298453976E+02  0.00000000000E+00 0. -1.
         11    1    4    4    0    0 -0.10907877947E+02  0.47163598406E+02  0.30407587591E+02  0.57166495424E+02  0.00000000000E+00 0.  1.
</event>
<event>
 8    1  0.7112384E-009  0.9827661E+02  0.7561462E-02  0.1283962E+00
          2   -1    0    0  501    0  0.00000000000E+00  0.00000000000E+00  0.94452028309E+02  0.94452028309E+02  0.00000000000E+00 0. -1.
         -2   -1    0    0    0  501 -0.00000000000E+00 -0.00000000000E+00 -0.14135909418E+03  0.14135909418E+03  0.00000000000E+00 0.  1.
         25    2    1    2    0    0 -0.16157112890E+01  0.30945222146E+02 -0.49307193044E+02  0.13798111393E+03  0.12508945287E+03 0.  0.
         23    2    1    2    0    0  0.16157112890E+01 -0.30945222146E+02  0.24001271717E+01  0.97830008558E+02  0.92761698277E+02 0.  0.
          5    1    3    3  502    0  0.15670983902E+02 -0.44991827523E+02 -0.33531833635E+02  0.58409764143E+02  0.41800000000E+01 0. -1.
         -5    1    3    3    0  502 -0.17286695191E+02  0.75937049669E+02 -0.15775359410E+02  0.79571349791E+02  0.41800000000E+01 0. -1.
        -11    1    4    4    0    0 -0.39092333537E+01  0.19550923701E+02 -0.31127565381E+02  0.36965471045E+02  0.00000000000E+00 0.  1.
         11    1    4    4    0    0  0.55249446427E+01 -0.50496145847E+02  0.33527692553E+02  0.60864537513E+02  0.00000000000E+00 0. -1.
</event>
<event>
 8    1  0.7112384E-009  0.1092687E+03  0.7561462E-02  0.1261930E+00
          1   -1    0    0  501    0  0.00000000000E+00  0.00000000000E+00  0.58684367129E+03  0.58684367129E+03  0.00000000000E+00 0.  1.
         -1   -1    0    0    0  501 -0.00000000000E+00 -0.00000000000E+00 -0.28103874302E+02  0.28103874302E+02  0.00000000000E+00 0. -1.
         25    2    1    2    0    0 -0.48595279616E+02  0.46189543733E+02  0.27680707417E+03  0.31106913470E+03  0.12508746979E+03 0.  0.
         23    2    1    2    0    0  0.48595279616E+02 -0.46189543733E+02  0.28193272281E+03  0.30387841089E+03  0.91438795164E+02 0.  0.
          5    1    3    3  502    0  0.22800758413E+01 -0.25516832320E+02  0.64530755737E+01  0.26747374859E+02  0.41800000000E+01 0.  1.
         -5    1    3    3    0  502 -0.50875355457E+02  0.71706376054E+02  0.27035399860E+03  0.28432175984E+03  0.41800000000E+01 0.  1.
        -11    1    4    4    0    0  0.21546546095E+02 -0.67033632849E+02  0.23822291650E+03  0.24841078787E+03  0.00000000000E+00 0.  1.
         11    1    4    4    0    0  0.27048733520E+02  0.20844089115E+02  0.43709806306E+02  0.55467623019E+02  0.00000000000E+00 0. -1.
</event>
<event>
 8    1  0.7112384E-009  0.1318640E+03  0.7561462E-02  0.1224716E+00
          1   -1    0    0  501    0  0.00000000000E+00  0.00000000000E+00  0.58693642785E+02  0.58693642785E+02  0.00000000000E+00 0.  1.
         -1   -1    0    0    0  501 -0.00000000000E+00 -0.00000000000E+00 -0.36879291691E+03  0.36879291691E+03  0.00000000000E+00 0. -1.
         25    2    1    2    0    0  0.31574442281E+02 -0.93368552016E+02 -0.16418232272E+03  0.22873586290E+03  0.12509847311E+03 0.  0.
         23    2    1    2    0    0 -0.31574442281E+02  0.93368552016E+02 -0.14591695140E+03  0.19875069679E+03  0.92170770079E+02 0.  0.
          5    1    3    3  502    0  0.36461644815E+02 -0.12328726133E+03 -0.13423171926E+03  0.18591618328E+03  0.41800000000E+01 0. -1.
         -5    1    3    3    0  502 -0.48872025344E+01  0.29918709314E+02 -0.29950603457E+02  0.42819679623E+02  0.41800000000E+01 0. -1.
        -11    1    4    4    0    0  0.75829277844E+01  0.18699001158E+02 -0.10143480030E+03  0.10342230007E+03  0.00000000000E+00 0. -1.
         11    1    4    4    0    0 -0.39157370065E+02  0.74669550858E+02 -0.44482151100E+02  0.95328396726E+02  0.00000000000E+00 0.  1.
</event>
<event>
 8    1  0.7112384E-009  0.1099823E+03  0.7561462E-02  0.1260603E+00
          1   -1    0    0  501    0  0.00000000000E+00  0.00000000000E+00  0.13593810446E+03  0.13593810446E+03  0.00000000000E+00 0. -1.
         -1   -1    0    0    0  501 -0.00000000000E+00 -0.00000000000E+00 -0.12359301016E+03  0.12359301016E+03  0.00000000000E+00 0.  1.
         25    2    1    2    0    0 -0.42484212202E+01  0.14646629213E+02 -0.55800965309E+02  0.13781957220E+03  0.12509162211E+03 0.  0.
         23    2    1    2    0    0  0.42484212202E+01 -0.14646629213E+02  0.68146059610E+02  0.12171154242E+03  0.99685712551E+02 0.  0.
          5    1    3    3  502    0  0.56217577390E+02 -0.10427378342E+02 -0.41265955653E+02  0.70636376765E+02  0.41800000000E+01 0.  1.
         -5    1    3    3    0  502 -0.60465998610E+02  0.25074007555E+02 -0.14535009656E+02  0.67183195432E+02  0.41800000000E+01 0.  1.
        -11    1    4    4    0    0 -0.30087100202E+02  0.28812102598E+02  0.46007680818E+02  0.62065107339E+02  0.00000000000E+00 0. -1.
         11    1    4    4    0    0  0.34335521422E+02 -0.43458731811E+02  0.22138378792E+02  0.59646435078E+02  0.00000000000E+00 0.  1.
</event>
<event>
 8    1  0.7112384E-009  0.8592654E+02  0.7561462E-02  0.1313027E+00
         -3   -1    0    0    0  501 -0.00000000000E+00  0.00000000000E+00  0.20617939553E+03  0.20617939553E+03  0.00000000000E+00 0.  1.
          3   -1    0    0  501    0  0.00000000000E+00 -0.00000000000E+00 -0.97946693701E+02  0.97946693701E+02  0.00000000000E+00 0. -1.
         25    2    1    2    0    0  0.71757034193E+02 -0.25204442895E+02  0.46110315844E+01  0.14646842442E+03  0.12508957527E+03 0.  0.
         23    2    1    2    0    0 -0.71757034193E+02  0.25204442895E+02  0.10362167024E+03  0.15765766481E+03  0.91291581388E+02 0.  0.
          5    1    3    3  502    0  0.34446395133E+02  0.15903147210E+02  0.57934971805E+02  0.69378653683E+02  0.41800000000E+01 0.  1.
         -5    1    3    3    0  502  0.37310639059E+02 -0.41107590105E+02 -0.53323940220E+02  0.77089770735E+02  0.41800000000E+01 0.  1.
        -11    1    4    4    0    0 -0.28878537318E+02  0.19285250227E+02  0.10866585697E+03  0.11407961809E+03  0.00000000000E+00 0.  1.
         11    1    4    4    0    0 -0.42878496874E+02  0.59191926680E+01 -0.50441867247E+01  0.43578046718E+02  0.00000000000E+00 0. -1.
</event>
<event>
 8    1  0.7112384E-009  0.1459542E+03  0.7561462E-02  0.1205534E+00
         -2   -1    0    0    0  501 -0.00000000000E+00  0.00000000000E+00  0.36331364692E+03  0.36331364692E+03  0.00000000000E+00 0.  1.
          2   -1    0    0  501    0  0.00000000000E+00 -0.00000000000E+00 -0.61761955015E+02  0.61761955015E+02  0.00000000000E+00 0. -1.
         25    2    1    2    0    0  0.10075418786E+03  0.13006498041E+02  0.19008368392E+03  0.24919585832E+03  0.12508474547E+03 0.  0.
         23    2    1    2    0    0 -0.10075418786E+03 -0.13006498041E+02  0.11146800798E+03  0.17587974361E+03  0.90487524255E+02 0.  0.
          5    1    3    3  502    0  0.69017253524E+02 -0.50375360694E+02  0.73978178087E+02  0.11309863608E+03  0.41800000000E+01 0.  1.
         -5    1    3    3    0  502  0.31736934340E+02  0.63381858735E+02  0.11610550584E+03  0.13609722225E+03  0.41800000000E+01 0.  1.
        -11    1    4    4    0    0 -0.50266731496E+02 -0.51424293493E+02  0.50338501333E+02  0.87779080498E+02  0.00000000000E+00 0.  1.
         11    1    4    4    0    0 -0.50487456368E+02  0.38417795452E+02  0.61129506646E+02  0.88100663112E+02  0.00000000000E+00 0. -1.
</event>
<event>
 8    1  0.7112384E-009  0.9813083E+02  0.7561462E-02  0.1284276E+00
          4   -1    0    0  501    0  0.00000000000E+00  0.00000000000E+00  0.46101015827E+02  0.46101015827E+02  0.00000000000E+00 0. -1.
         -4   -1    0    0    0  501 -0.00000000000E+00 -0.00000000000E+00 -0.35712511098E+03  0.35712511098E+03  0.00000000000E+00 0.  1.
         25    2    1    2    0    0 -0.10053488852E+02 -0.65138140392E+02 -0.20423203491E+03  0.24839833583E+03  0.12508780591E+03 0.  0.
         23    2    1    2    0    0  0.10053488852E+02  0.65138140392E+02 -0.10679206024E+03  0.15482779097E+03  0.90681038566E+02 0.  0.
          5    1    3    3  502    0  0.23435256259E+02 -0.69546009428E+02 -0.20122467548E+03  0.21423048589E+03  0.41800000000E+01 0.  1.
         -5    1    3    3    0  502 -0.33488745111E+02  0.44078690364E+01 -0.30073594270E+01  0.34167849937E+02  0.41800000000E+01 0.  1.
        -11    1    4    4    0    0 -0.16344687010E+02 -0.21051657385E+01 -0.73430366846E+02  0.75256888664E+02  0.00000000000E+00 0.  1.
         11    1    4    4    0    0  0.26398175863E+02  0.67243306131E+02 -0.33361693396E+02  0.79570902310E+02  0.00000000000E+00 0. -1.
</event>
<event>
 8    1  0.7112384E-009  0.1021336E+03  0.7561462E-02  0.1275872E+00
          2   -1    0    0  501    0  0.00000000000E+00  0.00000000000E+00  0.31750474662E+03  0.31750474662E+03  0.00000000000E+00 0. -1.
         -2   -1    0    0    0  501 -0.00000000000E+00 -0.00000000000E+00 -0.47145942182E+02  0.47145942182E+02  0.00000000000E+00 0.  1.
         25    2    1    2    0    0 -0.32093340196E+02 -0.48647746738E+02  0.14379437408E+03  0.19930194565E+03  0.12509139769E+03 0.  0.
         23    2    1    2    0    0  0.32093340196E+02  0.48647746738E+02  0.12656443035E+03  0.16534874314E+03  0.89022840226E+02 0.  0.
          5    1    3    3  502    0  0.16651437315E+02  0.14938053797E+02  0.10985875639E+03  0.11219106279E+03  0.41800000000E+01 0. -1.
         -5    1    3    3    0  502 -0.48744777511E+02 -0.63585800535E+02  0.33935617696E+02  0.87110882860E+02  0.41800000000E+01 0. -1.
        -11    1    4    4    0    0 -0.25297925163E+02  0.33399467772E+02  0.28387049591E+02  0.50609624080E+02  0.00000000000E+00 0.  1.
         11    1    4    4    0    0  0.57391265360E+02  0.15248278966E+02  0.98177380760E+02  0.11473911906E+03  0.00000000000E+00 0. -1.
</event>
<event>
 8    1  0.7112384E-009  0.1307483E+03  0.7561462E-02  0.1226350E+00
         -2   -1    0    0    0  501 -0.00000000000E+00  0.00000000000E+00  0.10902924598E+03  0.10902924598E+03  0.00000000000E+00 0.  1.
          2   -1    0    0  501    0  0.00000000000E+00 -0.00000000000E+00 -0.25351423836E+03  0.25351423836E+03  0.00000000000E+00 0. -1.
         25    2    1    2    0    0  0.75707903561E+02  0.58301188938E+02 -0.16577389764E+03  0.22860441832E+03  0.12509308391E+03 0.  0.
         23    2    1    2    0    0 -0.75707903561E+02 -0.58301188938E+02  0.21288905259E+02  0.13393906602E+03  0.91409740319E+02 0.  0.
          5    1    3    3  502    0  0.63739199004E+02  0.89319887980E+02 -0.16081548722E+03  0.19473012404E+03  0.41800000000E+01 0. -1.
         -5    1    3    3    0  502  0.11968704557E+02 -0.31018699043E+02 -0.49584104245E+01  0.33874294281E+02  0.41800000000E+01 0. -1.
        -11    1    4    4    0    0 -0.81001744271E+02 -0.25455041965E+02 -0.13304445142E+02  0.85943295241E+02  0.00000000000E+00 0. -1.
         11    1    4    4    0    0  0.52938407097E+01 -0.32846146972E+02  0.34593350401E+02  0.47995770776E+02  0.00000000000E+00 0.  1.
</event>
<event>
 8    1  0.7112384E-009  0.1457413E+03  0.7561462E-02  0.1205806E+00
          1   -1    0    0  501    0  0.00000000000E+00  0.00000000000E+00  0.43896589995E+02  0.43896589995E+02  0.00000000000E+00 0. -1.
         -1   -1    0    0    0  501 -0.00000000000E+00 -0.00000000000E+00 -0.56192022239E+03  0.56192022239E+03  0.00000000000E+00 0.  1.
         25    2    1    2    0    0 -0.10421920575E+03  0.35032229540E+02 -0.22220278231E+03  0.27769118400E+03  0.12509763087E+03 0.  0.
         23    2    1    2    0    0  0.10421920575E+03 -0.35032229540E+02 -0.29582085008E+03  0.32812562838E+03  0.89819556369E+02 0.  0.
          5    1    3    3  502    0  0.24411379944E+02  0.27757372309E+02 -0.58548529642E+02  0.69367066476E+02  0.41800000000E+01 0. -1.
         -5    1    3    3    0  502 -0.12863058570E+03  0.72748572311E+01 -0.16365425267E+03  0.20832411752E+03  0.41800000000E+01 0. -1.
        -11    1    4    4    0    0  0.23496207916E+02 -0.37913721331E+02 -0.40200101844E+02  0.60046400724E+02  0.00000000000E+00 0. -1.
         11    1    4    4    0    0  0.80722997836E+02  0.28814917905E+01 -0.25562074823E+03  0.26807922766E+03  0.00000000000E+00 0.  1.
</event>
<event>
 8    1  0.7112384E-009  0.9508199E+02  0.7561462E-02  0.1290992E+00
         -1   -1    0    0    0  501 -0.00000000000E+00  0.00000000000E+00  0.45403470945E+03  0.45403470945E+03  0.00000000000E+00 0.  1.
          1   -1    0    0  501    0  0.00000000000E+00 -0.00000000000E+00 -0.43299110819E+02  0.43299110819E+02  0.00000000000E+00 0. -1.
         25    2    1    2    0    0  0.26052904721E+02  0.55023710378E+02  0.34038379426E+03  0.36771617698E+03  0.12509075454E+03 0.  0.
         23    2    1    2    0    0 -0.26052904721E+02 -0.55023710378E+02  0.70351804367E+02  0.12961764328E+03  0.90249623404E+02 0.  0.
          5    1    3    3  502    0  0.36082555971E+02  0.74681945064E+02  0.11852828424E+03  0.14472653637E+03  0.41800000000E+01 0.  1.
         -5    1    3    3    0  502 -0.10029651250E+02 -0.19658234686E+02  0.22185551002E+03  0.22298964062E+03  0.41800000000E+01 0.  1.
        -11    1    4    4    0    0 -0.41585911786E+02 -0.55212147844E+02  0.84109095624E+02  0.10886739317E+03  0.00000000000E+00 0.  1.
         11    1    4    4    0    0  0.15533007065E+02  0.18843746543E+00 -0.13757291256E+02  0.20750250116E+02  0.00000000000E+00 0. -1.
</event>
<event>
 8    1  0.7112384E-009  0.1201376E+03  0.7561462E-02  0.1242870E+00
          2   -1    0    0  501    0  0.00000000000E+00  0.00000000000E+00  0.54688430292E+03  0.54688430292E+03  0.00000000000E+00 0. -1.
         -2   -1    0    0    0  501 -0.00000000000E+00 -0.00000000000E+00 -0.44860150867E+02  0.44860150867E+02  0.00000000000E+00 0.  1.
         25    2    1    2    0    0 -0.62143247671E+02 -0.81544464048E+02  0.18203286707E+03  0.24351015123E+03  0.12509974505E+03 0.  0.
         23    2    1    2    0    0  0.62143247671E+02  0.81544464048E+02  0.31999128498E+03  0.34823430256E+03  0.91440823290E+02 0.  0.
          5    1    3    3  502    0 -0.38977014419E+02 -0.79925436180E+02  0.36724978517E+02  0.96298906788E+02  0.41800000000E+01 0.  1.
         -5    1    3    3    0  502 -0.23166233252E+02 -0.16190278675E+01  0.14530788855E+03  0.14721124444E+03  0.41800000000E+01 0.  1.
        -11    1    4    4    0    0  0.17911353061E+02  0.81480853893E+02  0.26406823079E+03  0.27693316275E+03  0.00000000000E+00 0. -1.
         11    1    4    4    0    0  0.44231894610E+02  0.63610154674E-01  0.55923054192E+02  0.71301139803E+02  0.00000000000E+00 0.  1.
</event>
<event>
 8    1  0.7112384E-009  0.1935436E+03  0.7561462E-02  0.1155303E+00
         -1   -1    0    0    0  501 -0.00000000000E+00  0.00000000000E+00  0.48996401629E+02  0.48996401629E+02  0.00000000000E+00 0.  1.
          1   -1    0    0  501    0  0.00000000000E+00 -0.00000000000E+00 -0.84868572178E+03  0.84868572178E+03  0.00000000000E+00 0. -1.
         25    2    1    2    0    0  0.10644779768E+03  0.12739122630E+03 -0.51605403000E+03  0.55634509375E+03  0.12509373802E+03 0.  0.
         23    2    1    2    0    0 -0.10644779768E+03 -0.12739122630E+03 -0.28363529015E+03  0.34133702966E+03  0.92208089806E+02 0.  0.
          5    1    3    3  502    0  0.12171445783E+03  0.14105068553E+03 -0.44995034658E+03  0.48701385188E+03  0.41800000000E+01 0. -1.
         -5    1    3    3    0  502 -0.15266660143E+02 -0.13659459224E+02 -0.66103683415E+02  0.69331241870E+02  0.41800000000E+01 0. -1.
        -11    1    4    4    0    0 -0.25988805134E+02 -0.84999884396E+02 -0.19520341383E+03  0.21448722832E+03  0.00000000000E+00 0.  1.
         11    1    4    4    0    0 -0.80458992550E+02 -0.42391341909E+02 -0.88431876322E+02  0.12684980134E+03  0.00000000000E+00 0. -1.
</event>
<event>
 8    1  0.7112384E-009  0.6894507E+02  0.7561462E-02  0.1363718E+00
          1   -1    0    0  501    0  0.00000000000E+00  0.00000000000E+00  0.26260009191E+03  0.26260009191E+03  0.00000000000E+00 0. -1.
         -1   -1    0    0    0  501 -0.00000000000E+00 -0.00000000000E+00 -0.61946504700E+02  0.61946504700E+02  0.00000000000E+00 0.  1.
         25    2    1    2    0    0  0.22851934815E+02  0.20477592036E+02  0.34238689905E+02  0.13327425254E+03  0.12509274881E+03 0.  0.
         23    2    1    2    0    0 -0.22851934815E+02 -0.20477592036E+02  0.16641489731E+03  0.19127234407E+03  0.89160803383E+02 0.  0.
          5    1    3    3  502    0  0.30811138791E+02  0.12111073109E+02 -0.43357912958E+02  0.54711839501E+02  0.41800000000E+01 0. -1.
         -5    1    3    3    0  502 -0.79592039760E+01  0.83665189266E+01  0.77596602863E+02  0.78562413040E+02  0.41800000000E+01 0. -1.
        -11    1    4    4    0    0 -0.45402442523E+02  0.17017209310E+02  0.67471941249E+02  0.83086882573E+02  0.00000000000E+00 0.  1.
         11    1    4    4    0    0  0.22550507708E+02 -0.37494801345E+02  0.98942956057E+02  0.10818546150E+03  0.00000000000E+00 0. -1.
</event>
<event>
 8    1  0.7112384E-009  0.2820186E+03  0.7561462E-02  0.1094592E+00
          1   -1    0    0  501    0  0.00000000000E+00  0.00000000000E+00  0.32605220341E+03  0.32605220341E+03  0.00000000000E+00 0. -1.
         -1   -1    0    0    0  501 -0.00000000000E+00 -0.00000000000E+00 -0.25900587265E+03  0.25900587265E+03  0.00000000000E+00 0.  1.
         25    2    1    2    0    0  0.14513130390E+03 -0.22705437326E+03  0.29272533037E+02  0.29853025964E+03  0.12508657379E+03 0.  0.
         23    2    1    2    0    0 -0.14513130390E+03  0.22705437326E+03  0.37773797723E+02  0.28652781641E+03  0.89747122484E+02 0.  0.
          5    1    3    3  502    0  0.11683393879E+03 -0.23150027745E+03  0.48414780996E+02  0.26382572113E+03  0.41800000000E+01 0.  1.
         -5    1    3    3    0  502  0.28297365111E+02  0.44459041860E+01 -0.19142247959E+02  0.34704538510E+02  0.41800000000E+01 0.  1.
        -11    1    4    4    0    0 -0.85141744885E+02  0.18130143677E+03 -0.39027072817E+01  0.20033611462E+03  0.00000000000E+00 0.  1.
         11    1    4    4    0    0 -0.59989559016E+02  0.45752936493E+02  0.41676505005E+02  0.86191701794E+02  0.00000000000E+00 0. -1.
</event>
<event>
 8    1  0.7112384E-009  0.1014659E+03  0.7561462E-02  0.1277243E+00
          1   -1    0    0  501    0  0.00000000000E+00  0.00000000000E+00  0.15306287231E+03  0.15306287231E+03  0.00000000000E+00 0. -1.
         -1   -1    0    0    0  501 -0.00000000000E+00 -0.00000000000E+00 -0.10749194489E+03  0.10749194489E+03  0.00000000000E+00 0.  1.
         25    2    1    2    0    0  0.40128495774E+02 -0.35740837712E+02  0.74414482145E+02  0.15515467856E+03  0.12509098878E+03 0.  0.
         23    2    1    2    0    0 -0.40128495774E+02  0.35740837712E+02 -0.28843554730E+02  0.10540013864E+03  0.85962404122E+02 0.  0.
          5    1    3    3  502    0  0.18236924203E+02  0.40813775220E+02 -0.16920629113E+01  0.44929779980E+02  0.41800000000E+01 0. -1.
         -5    1    3    3    0  502  0.21891571570E+02 -0.76554612933E+02  0.76106545057E+02  0.11022489858E+03  0.41800000000E+01 0. -1.
        -11    1    4    4    0    0 -0.99823533420E+01 -0.15742695453E+02 -0.40525335925E+02  0.44606980286E+02  0.00000000000E+00 0.  1.
         11    1    4    4    0    0 -0.30146142432E+02  0.51483533166E+02  0.11681781196E+02  0.60793158354E+02  0.00000000000E+00 0. -1.
</event>
<event>
 8    1  0.7112384E-009  0.1808578E+03  0.7561462E-02  0.1166975E+00
          1   -1    0    0  501    0  0.00000000000E+00  0.00000000000E+00  0.14089715959E+04  0.14089715959E+04  0.00000000000E+00 0. -1.
         -1   -1    0    0    0  501 -0.00000000000E+00 -0.00000000000E+00 -0.27759877816E+02  0.27759877816E+02  0.00000000000E+00 0.  1.
         25    2    1    2    0    0 -0.13748369868E+03 -0.84563502670E+02  0.60416660203E+03  0.63774414392E+03  0.12509019426E+03 0.  0.
         23    2    1    2    0    0  0.13748369868E+03  0.84563502670E+02  0.77704511604E+03  0.79898732979E+03  0.92351975697E+02 0.  0.
          5    1    3    3  502    0 -0.55431633315E+02 -0.84245627357E+02  0.46759419635E+03  0.47836366559E+03  0.41800000000E+01 0. -1.
         -5    1    3    3    0  502 -0.82052065369E+02 -0.31787531244E+00  0.13657240568E+03  0.15938047832E+03  0.41800000000E+01 0. -1.
        -11    1    4    4    0    0  0.92962687641E+02  0.12336745934E+02  0.29546113688E+03  0.30998635454E+03  0.00000000000E+00 0. -1.
         11    1    4    4    0    0  0.44521011043E+02  0.72226756735E+02  0.48158397917E+03  0.48900097526E+03  0.00000000000E+00 0.  1.
</event>
<event>
 8    1  0.7112384E-009  0.1178553E+03  0.7561462E-02  0.1246678E+00
          2   -1    0    0  501    0  0.00000000000E+00  0.00000000000E+00  0.18950113730E+03  0.18950113730E+03  0.00000000000E+00 0. -1.
         -2   -1    0    0    0  501 -0.00000000000E+00 -0.00000000000E+00 -0.13510435091E+03  0.13510435091E+03  0.00000000000E+00 0.  1.
         25    2    1    2    0    0  0.49806321537E+02  0.26473402231E+02 -0.75003778908E+02  0.15637834502E+03  0.12508840574E+03 0.  0.
         23    2    1    2    0    0 -0.49806321537E+02 -0.26473402231E+02  0.12940056529E+03  0.16822714318E+03  0.91511500451E+02 0.  0.
          5    1    3    3  502    0  0.56129372717E+02 -0.37410231046E+02 -0.59875781158E+02  0.90291823759E+02  0.41800000000E+01 0. -1.
         -5    1    3    3    0  502 -0.63230511803E+01  0.63883633277E+02 -0.15127997750E+02  0.66086521264E+02  0.41800000000E+01 0. -1.
        -11    1    4    4    0    0  0.12072155044E+02  0.22064803217E+02  0.52597200641E+02  0.58301440666E+02  0.00000000000E+00 0. -1.
         11    1    4    4    0    0 -0.61878476581E+02 -0.48538205448E+02  0.76803364651E+02  0.10992570252E+03  0.00000000000E+00 0.  1.
</event>
<event>
 8    1  0.7112384E-009  0.2510827E+03  0.7561462E-02  0.1112622E+00
         -1   -1    0    0    0  501 -0.00000000000E+00  0.00000000000E+00  0.21933334440E+02  0.21933334440E+02  0.00000000000E+00 0.  1.
          1   -1    0    0  501    0  0.00000000000E+00 -0.00000000000E+00 -0.31463642497E+04  0.31463642497E+04  0.00000000000E+00 0. -1.
         25    2    1    2    0    0  0.48995559450E+02  0.22386288773E+03 -0.20072795832E+04  0.20241872950E+04  0.12509085904E+03 0.  0.
         23    2    1    2    0    0 -0.48995559450E+02 -0.22386288773E+03 -0.11171513321E+04  0.11441102891E+04  0.91902652320E+02 0.  0.
          5    1    3    3  502    0  0.80302439201E+02  0.98724280844E+02 -0.11880429406E+04  0.11948466288E+04  0.41800000000E+01 0. -1.
         -5    1    3    3    0  502 -0.31306879751E+02  0.12513860688E+03 -0.81923664260E+03  0.82934066621E+03  0.41800000000E+01 0. -1.
        -11    1    4    4    0    0  0.22774351520E+02 -0.10054541257E+03 -0.52335779321E+03  0.53341487680E+03  0.00000000000E+00 0. -1.
         11    1    4    4    0    0 -0.71769910969E+02 -0.12331747516E+03 -0.59379353889E+03  0.61069541232E+03  0.00000000000E+00 0.  1.
</event>
<event>
 8    1  0.7112384E-009  0.1374322E+03  0.7561462E-02  0.1216827E+00
         -1   -1    0    0    0  501 -0.00000000000E+00  0.00000000000E+00  0.17832658827E+03  0.17832658827E+03  0.00000000000E+00 0.  1.
          1   -1    0    0  501    0  0.00000000000E+00 -0.00000000000E+00 -0.14509075059E+03  0.14509075059E+03  0.00000000000E+00 0. -1.
         25    2    1    2    0    0 -0.10241710067E+03  0.59892041529E+02  0.43731126907E+02  0.17786598063E+03  0.12509027324E+03 0.  0.
         23    2    1    2    0    0  0.10241710067E+03 -0.59892041529E+02 -0.10495289224E+02  0.14555135823E+03  0.83658398506E+02 0.  0.
          5    1    3    3  502    0 -0.53377296469E+02 -0.24191730436E+02  0.54125590050E+02  0.79883837527E+02  0.41800000000E+01 0.  1.
         -5    1    3    3    0  502 -0.49039804197E+02  0.84083771965E+02 -0.10394463143E+02  0.97982143105E+02  0.41800000000E+01 0.  1.
        -11    1    4    4    0    0  0.75546534176E+02 -0.45715922870E+02  0.31471026259E+02  0.93742465957E+02  0.00000000000E+00 0.  1.
         11    1    4    4    0    0  0.26870566489E+02 -0.14176118659E+02 -0.41966315483E+02  0.51808892276E+02  0.00000000000E+00 0. -1.
</event>
<event>
 8    1  0.7112384E-009  0.1089426E+03  0.7561462E-02  0.1262541E+00
          2   -1    0    0  501    0  0.00000000000E+00  0.00000000000E+00  0.10730596575E+04  0.10730596575E+04  0.00000000000E+00 0. -1.
         -2   -1    0    0    0  501 -0.00000000000E+00 -0.00000000000E+00 -0.17522054207E+02  0.17522054207E+02  0.00000000000E+00 0.  1.
         25    2    1    2    0    0 -0.46243160329E+02  0.61533086527E+02  0.43469920324E+03  0.45884190302E+03  0.12509094313E+03 0.  0.
         23    2    1    2    0    0  0.46243160329E+02 -0.61533086527E+02  0.62083840005E+03  0.63173980869E+03  0.87921079881E+02 0.  0.
          5    1    3    3  502    0 -0.27458951940E+02  0.73361155890E+02  0.42821637243E+03  0.43534191993E+03  0.41800000000E+01 0.  1.
         -5    1    3    3    0  502 -0.18784208390E+02 -0.11828069363E+02  0.64828308114E+01  0.23499983085E+02  0.41800000000E+01 0.  1.
        -11    1    4    4    0    0 -0.14742749315E+02  0.13618701265E+02  0.10634428942E+03  0.10822165021E+03  0.00000000000E+00 0.  1.
         11    1    4    4    0    0  0.60985909645E+02 -0.75151787792E+02  0.51449411063E+03  0.52351815848E+03  0.00000000000E+00 0. -1.
</event>
<event>
 8    1  0.7112384E-009  0.1060712E+03  0.7561462E-02  0.1268023E+00
          1   -1    0    0  501    0  0.00000000000E+00  0.00000000000E+00  0.12362439083E+04  0.12362439083E+04  0.00000000000E+00 0. -1.
         -1   -1    0    0    0  501 -0.00000000000E+00 -0.00000000000E+00 -0.14114151336E+02  0.14114151336E+02  0.00000000000E+00 0.  1.
         25    2    1    2    0    0  0.67372713221E+02  0.64866521420E+01  0.83789644813E+03  0.84988234264E+03  0.12509348270E+03 0.  0.
         23    2    1    2    0    0 -0.67372713221E+02 -0.64866521420E+01  0.38423330886E+03  0.40047571701E+03  0.90357097881E+02 0.  0.
          5    1    3    3  502    0 -0.12302606179E+02  0.28889301807E+02  0.53251940618E+03  0.53346071667E+03  0.41800000000E+01 0. -1.
         -5    1    3    3    0  502  0.79675319400E+02 -0.22402649665E+02  0.30537704195E+03  0.31642162597E+03  0.41800000000E+01 0. -1.
        -11    1    4    4    0    0 -0.24643832103E+02  0.31793956029E+02  0.67409268738E+02  0.78499577148E+02  0.00000000000E+00 0.  1.
         11    1    4    4    0    0 -0.42728881118E+02 -0.38280608171E+02  0.31682404012E+03  0.32197613986E+03  0.00000000000E+00 0. -1.
</event>
<event>
 8    1  0.7112384E-009  0.9261639E+02  0.7561462E-02  0.1296637E+00
         -2   -1    0    0    0  501 -0.00000000000E+00  0.00000000000E+00  0.39081170491E+02  0.39081170491E+02  0.00000000000E+00 0.  1.
          2   -1    0    0  501    0  0.00000000000E+00 -0.00000000000E+00 -0.31916009326E+03  0.31916009326E+03  0.00000000000E+00 0. -1.
         25    2    1    2    0    0 -0.31195146477E+02  0.13453737484E+02 -0.13144745438E+03  0.18460874115E+03  0.12509122203E+03 0.  0.
         23    2    1    2    0    0  0.31195146477E+02 -0.13453737484E+02 -0.14863146839E+03  0.17363252260E+03  0.83083086692E+02 0.  0.
          5    1    3    3  502    0 -0.69790209442E+02 -0.99406408695E+01 -0.11767358824E+03  0.13723715038E+03  0.41800000000E+01 0.  1.
         -5    1    3    3    0  502  0.38595062965E+02  0.23394378353E+02 -0.13773866147E+02  0.47371590774E+02  0.41800000000E+01 0.  1.
        -11    1    4    4    0    0  0.84777959969E+01 -0.36177585509E+02 -0.13263025422E+03  0.13773697780E+03  0.00000000000E+00 0.  1.
         11    1    4    4    0    0  0.22717350480E+02  0.22723848025E+02 -0.16001214164E+02  0.35895544802E+02  0.00000000000E+00 0. -1.
</event>
<event>
 8    1  0.7112384E-009  0.2784351E+03  0.7561462E-02  0.1096547E+00
          1   -1    0    0  501    0  0.00000000000E+00  0.00000000000E+00  0.11900451754E+04  0.11900451754E+04  0.00000000000E+00 0. -1.
         -1   -1    0    0    0  501 -0.00000000000E+00 -0.00000000000E+00 -0.93101569259E+02  0.93101569259E+02  0.00000000000E+00 0.  1.
         25    2    1    2    0    0 -0.15589473756E+03 -0.20929876323E+03  0.21963880611E+03  0.36330882461E+03  0.12507180099E+03 0.  0.
         23    2    1    2    0    0  0.15589473756E+03  0.20929876323E+03  0.87730479999E+03  0.91983792001E+03  0.91263056685E+02 0.  0.
          5    1    3    3  502    0 -0.95704735413E+02 -0.20583296967E+03  0.18975132276E+03  0.29588789207E+03  0.41800000000E+01 0.  1.
         -5    1    3    3    0  502 -0.60190002148E+02 -0.34657935533E+01  0.29887483354E+02  0.67420932542E+02  0.41800000000E+01 0.  1.
        -11    1    4    4    0    0  0.69019686168E+02  0.14731558466E+03  0.42395403368E+03  0.45409538781E+03  0.00000000000E+00 0.  1.
         11    1    4    4    0    0  0.86875051393E+02  0.61983178564E+02  0.45335076632E+03  0.46574253220E+03  0.00000000000E+00 0. -1.
</event>
<event>
 8    1  0.7112384E-009  0.9771975E+02  0.7561462E-02  0.1285165E+00
         -1   -1    0    0    0  501 -0.00000000000E+00  0.00000000000E+00  0.26789107864E+03  0.26789107864E+03  0.00000000000E+00 0.  1.
          1   -1    0    0  501    0  0.00000000000E+00 -0.00000000000E+00 -0.50375810382E+02  0.50375810382E+02  0.00000000000E+00 0. -1.
         25    2    1    2    0    0  0.81344243880E+01 -0.30321674669E+02  0.16118313005E+03  0.20643991999E+03  0.12510741920E+03 0.  0.
         23    2    1    2    0    0 -0.81344243880E+01  0.30321674669E+02  0.56332138208E+02  0.11182696903E+03  0.91358570436E+02 0.  0.
          5    1    3    3  502    0 -0.29760911287E+02  0.26279421634E+02  0.12061113192E+03  0.12704659533E+03  0.41800000000E+01 0.  1.
         -5    1    3    3    0  502  0.37895335675E+02 -0.56601096303E+02  0.40571998126E+02  0.79393324660E+02  0.41800000000E+01 0.  1.
        -11    1    4    4    0    0  0.23262866641E+02  0.46469451084E+02  0.89420088938E+01  0.52730734601E+02  0.00000000000E+00 0. -1.
         11    1    4    4    0    0 -0.31397291029E+02 -0.16147776416E+02  0.47390129315E+02  0.59096234428E+02  0.00000000000E+00 0.  1.
</event>
<event>
 8    1  0.7112384E-009  0.8818068E+02  0.7561462E-02  0.1307318E+00
         -2   -1    0    0    0  501 -0.00000000000E+00  0.00000000000E+00  0.18983076208E+02  0.18983076208E+02  0.00000000000E+00 0.  1.
          2   -1    0    0  501    0  0.00000000000E+00 -0.00000000000E+00 -0.96636840384E+03  0.96636840384E+03  0.00000000000E+00 0. -1.
         25    2    1    2    0    0 -0.60128072616E+01 -0.43448592831E+02 -0.77436125174E+03  0.78562495393E+03  0.12508911210E+03 0.  0.
         23    2    1    2    0    0  0.60128072616E+01  0.43448592831E+02 -0.17302407590E+03  0.19972652613E+03  0.89607032807E+02 0.  0.
          5    1    3    3  502    0  0.15477977429E+02  0.16632508694E+02 -0.59067089949E+03  0.59112248480E+03  0.41800000000E+01 0. -1.
         -5    1    3    3    0  502 -0.21490784691E+02 -0.60081101525E+02 -0.18369035225E+03  0.19450246913E+03  0.41800000000E+01 0. -1.
        -11    1    4    4    0    0  0.41821802626E+02  0.18872405913E+02 -0.43929250880E+02  0.63521728272E+02  0.00000000000E+00 0.  1.
         11    1    4    4    0    0 -0.35808995364E+02  0.24576186918E+02 -0.12909482502E+03  0.13620479785E+03  0.00000000000E+00 0. -1.
</event>
<event>
 8    1  0.7112384E-009  0.1240297E+03  0.7561462E-02  0.1236594E+00
         -2   -1    0    0    0  501 -0.00000000000E+00  0.00000000000E+00  0.69488361528E+03  0.69488361528E+03  0.00000000000E+00 0. -1.
          2   -1    0    0  501    0  0.00000000000E+00 -0.00000000000E+00 -0.43948454939E+02  0.43948454939E+02  0.00000000000E+00 0.  1.
         25    2    1    2    0    0 -0.10995819337E+03 -0.12049646531E+02  0.51002563908E+03  0.53666538302E+03  0.12509029757E+03 0.  0.
         23    2    1    2    0    0  0.10995819337E+03  0.12049646531E+02  0.14090952126E+03  0.20216668720E+03  0.93701002982E+02 0.  0.
          5    1    3    3  502    0  0.65091456707E+01  0.19124551981E+00 -0.45086144701E+01  0.89557555042E+01  0.41800000000E+01 0.  1.
         -5    1    3    3    0  502 -0.11646733904E+03 -0.12240892050E+02  0.51453425355E+03  0.52770962752E+03  0.41800000000E+01 0.  1.
        -11    1    4    4    0    0  0.18834251781E+02 -0.19112262857E+02 -0.50447533006E+01  0.27303061505E+02  0.00000000000E+00 0.  1.
         11    1    4    4    0    0  0.91123941586E+02  0.31161909388E+02  0.14595427457E+03  0.17486362569E+03  0.00000000000E+00 0. -1.
</event>
<event>
 8    1  0.7112384E-009  0.1602055E+03  0.7561462E-02  0.1188465E+00
         -2   -1    0    0    0  501 -0.00000000000E+00  0.00000000000E+00  0.59399560933E+02  0.59399560933E+02  0.00000000000E+00 0.  1.
          2   -1    0    0  501    0  0.00000000000E+00 -0.00000000000E+00 -0.55908380953E+03  0.55908380953E+03  0.00000000000E+00 0. -1.
         25    2    1    2    0    0  0.13115672964E+03  0.15883783656E+02 -0.36728357141E+03  0.40987660374E+03  0.12508887302E+03 0.  0.
         23    2    1    2    0    0 -0.13115672964E+03 -0.15883783656E+02 -0.13240067718E+03  0.20860676672E+03  0.92371323961E+02 0.  0.
          5    1    3    3  502    0 -0.17893720620E+02 -0.19261948778E+02 -0.34952817359E+02  0.43936087100E+02  0.41800000000E+01 0. -1.
         -5    1    3    3    0  502  0.14905045026E+03  0.35145732434E+02 -0.33233075405E+03  0.36594051664E+03  0.41800000000E+01 0. -1.
        -11    1    4    4    0    0 -0.97299306143E+02 -0.32887984131E+02 -0.42694288927E+02  0.11122759003E+03  0.00000000000E+00 0.  1.
         11    1    4    4    0    0 -0.33857423494E+02  0.17004200475E+02 -0.89706388256E+02  0.97379176693E+02  0.00000000000E+00 0. -1.
</event>
<event>
 8    1  0.7112384E-009  0.8847354E+02  0.7561462E-02  0.1306591E+00
         -3   -1    0    0    0  501 -0.00000000000E+00  0.00000000000E+00  0.35953596010E+03  0.35953596010E+03  0.00000000000E+00 0.  1.
          3   -1    0    0  501    0  0.00000000000E+00 -0.00000000000E+00 -0.40745180431E+02  0.40745180431E+02  0.00000000000E+00 0. -1.
         25    2    1    2    0    0  0.25371095046E+02  0.25845767697E+02  0.10761941414E+03  0.16893632064E+03  0.12508335605E+03 0.  0.
         23    2    1    2    0    0 -0.25371095046E+02 -0.25845767697E+02  0.21117136553E+03  0.23134481989E+03  0.87266166975E+02 0.  0.
          5    1    3    3  502    0  0.51504856395E+02  0.40046657672E+02  0.11983839229E+03  0.13651079697E+03  0.41800000000E+01 0. -1.
         -5    1    3    3    0  502 -0.26133761350E+02 -0.14200889975E+02 -0.12218978150E+02  0.32425523672E+02  0.41800000000E+01 0. -1.
        -11    1    4    4    0    0 -0.36512066888E+01 -0.49377921948E+02  0.17988541780E+03  0.18657511630E+03  0.00000000000E+00 0.  1.
         11    1    4    4    0    0 -0.21719888357E+02  0.23532154251E+02  0.31285947729E+02  0.44769703587E+02  0.00000000000E+00 0. -1.
</event>
<event>
 8    1  0.7112384E-009  0.1378260E+03  0.7561462E-02  0.1216285E+00
          1   -1    0    0  501    0  0.00000000000E+00  0.00000000000E+00  0.50165262164E+02  0.50165262164E+02  0.00000000000E+00 0. -1.
         -1   -1    0    0    0  501 -0.00000000000E+00 -0.00000000000E+00 -0.41696627016E+03  0.41696627016E+03  0.00000000000E+00 0.  1.
         25    2    1    2    0    0 -0.87893994575E+02  0.35434139726E+02 -0.22907531225E+03  0.27767436760E+03  0.12508646289E+03 0.  0.
         23    2    1    2    0    0  0.87893994575E+02 -0.35434139726E+02 -0.13772569574E+03  0.18945716472E+03  0.89133144545E+02 0.  0.
          5    1    3    3  502    0 -0.88029119960E+02 -0.27721020813E+02 -0.11839607200E+03  0.15017550806E+03  0.41800000000E+01 0.  1.
         -5    1    3    3    0  502  0.13512538557E+00  0.63155160538E+02 -0.11067924025E+03  0.12749885954E+03  0.41800000000E+01 0.  1.
        -11    1    4    4    0    0  0.53200261784E+02 -0.57908387281E+02 -0.51967961845E+02  0.94256661461E+02  0.00000000000E+00 0. -1.
         11    1    4    4    0    0  0.34693732791E+02  0.22474247555E+02 -0.85757733895E+02  0.95200503260E+02  0.00000000000E+00 0.  1.
</event>
<event>
 8    1  0.7112384E-009  0.1253782E+03  0.7561462E-02  0.1234479E+00
         -1   -1    0    0    0  501 -0.00000000000E+00  0.00000000000E+00  0.53902470016E+03  0.53902470016E+03  0.00000000000E+00 0.  1.
          1   -1    0    0  501    0  0.00000000000E+00 -0.00000000000E+00 -0.37822559445E+02  0.37822559445E+02  0.00000000000E+00 0. -1.
         25    2    1    2    0    0  0.58134527610E+02  0.40978637735E+02  0.38789710315E+03  0.41372788937E+03  0.12509089398E+03 0.  0.
         23    2    1    2    0    0 -0.58134527610E+02 -0.40978637735E+02  0.11330503757E+03  0.16311937024E+03  0.93332873942E+02 0.  0.
          5    1    3    3  502    0 -0.37459885307E+02  0.48137668471E+01  0.15064339343E+03  0.15536189926E+03  0.41800000000E+01 0.  1.
         -5    1    3    3    0  502  0.95594412917E+02  0.36164870888E+02  0.23725370972E+03  0.25836599011E+03  0.41800000000E+01 0.  1.
        -11    1    4    4    0    0 -0.76478232274E+01 -0.56990143668E+02  0.86208659928E+02  0.10362576283E+03  0.00000000000E+00 0.  1.
         11    1    4    4    0    0 -0.50486704383E+02  0.16011505933E+02  0.27096377644E+02  0.59493607414E+02  0.00000000000E+00 0. -1.
</event>
<event>
 8    1  0.7112384E-009  0.1038224E+03  0.7561462E-02  0.1272457E+00
         -1   -1    0    0    0  501 -0.00000000000E+00  0.00000000000E+00  0.12857518451E+02  0.12857518451E+02  0.00000000000E+00 0.  1.
          1   -1    0    0  501    0  0.00000000000E+00 -0.00000000000E+00 -0.22624882947E+04  0.22624882947E+04  0.00000000000E+00 0. -1.
         25    2    1    2    0    0  0.35483002796E+02 -0.90611840037E+01 -0.20513845864E+04  0.20555211798E+04  0.12508976960E+03 0.  0.
         23    2    1    2    0    0 -0.35483002796E+02  0.90611840037E+01 -0.19824618982E+03  0.21982463339E+03  0.87636574126E+02 0.  0.
          5    1    3    3  502    0  0.81953174842E+02  0.30469539318E+01 -0.13102440147E+04  0.13128147079E+04  0.41800000000E+01 0. -1.
         -5    1    3    3    0  502 -0.46470172046E+02 -0.12108137935E+02 -0.74114057168E+03  0.74270647182E+03  0.41800000000E+01 0. -1.
        -11    1    4    4    0    0  0.12477526852E+02  0.24035603193E+02 -0.17544282951E+02  0.32267642639E+02  0.00000000000E+00 0. -1.
         11    1    4    4    0    0 -0.47960529648E+02 -0.14974419190E+02 -0.18070190687E+03  0.18755699075E+03  0.00000000000E+00 0.  1.
</event>
<event>
 8    1  0.7112384E-009  0.8509555E+02  0.7561462E-02  0.1315183E+00
          2   -1    0    0  501    0  0.00000000000E+00  0.00000000000E+00  0.96348832385E+03  0.96348832385E+03  0.00000000000E+00 0. -1.
         -2   -1    0    0    0  501 -0.00000000000E+00 -0.00000000000E+00 -0.15656653248E+02  0.15656653248E+02  0.00000000000E+00 0.  1.
         25    2    1    2    0    0  0.34241575421E+02 -0.28386080704E+02  0.67337092006E+03  0.68633463288E+03  0.12509427341E+03 0.  0.
         23    2    1    2    0    0 -0.34241575421E+02  0.28386080704E+02  0.27446075054E+03  0.29281034422E+03  0.91820145011E+02 0.  0.
          5    1    3    3  502    0  0.29162245179E+02  0.17593350712E+02  0.46732869045E+02  0.57977547226E+02  0.41800000000E+01 0. -1.
         -5    1    3    3    0  502  0.50793302426E+01 -0.45979431416E+02  0.62663805102E+03  0.62835708565E+03  0.41800000000E+01 0. -1.
        -11    1    4    4    0    0 -0.40826492660E+02 -0.16520901293E+02  0.65182870628E+02  0.78667333155E+02  0.00000000000E+00 0.  1.
         11    1    4    4    0    0  0.65849172383E+01  0.44906981997E+02  0.20927787992E+03  0.21414301107E+03  0.00000000000E+00 0. -1.
</event>
<event>
 8    1  0.7112384E-009  0.1492756E+03  0.7561462E-02  0.1201366E+00
          3   -1    0    0  501    0  0.00000000000E+00  0.00000000000E+00  0.16576434156E+02  0.16576434156E+02  0.00000000000E+00 0. -1.
         -3   -1    0    0    0  501 -0.00000000000E+00 -0.00000000000E+00 -0.16400686571E+04  0.16400686571E+04  0.00000000000E+00 0.  1.
         25    2    1    2    0    0  0.68410588481E+02  0.85561398819E+02 -0.11749235513E+04  0.11866313783E+04  0.12509162706E+03 0.  0.
         23    2    1    2    0    0 -0.68410588481E+02 -0.85561398819E+02 -0.44856867165E+03  0.47001371289E+03  0.87739817255E+02 0.  0.
          5    1    3    3  502    0 -0.22973899563E+02 -0.14181815333E+02 -0.12055381858E+03  0.12361075811E+03  0.41800000000E+01 0.  1.
         -5    1    3    3    0  502  0.91384488044E+02  0.99743214153E+02 -0.10543697327E+04  0.10630206202E+04  0.41800000000E+01 0.  1.
        -11    1    4    4    0    0 -0.84821114611E+02 -0.54679723275E+02 -0.37821865029E+03  0.39145094335E+03  0.00000000000E+00 0.  1.
         11    1    4    4    0    0  0.16410526129E+02 -0.30881675545E+02 -0.70350021363E+02  0.78562769541E+02  0.00000000000E+00 0. -1.
</event>
<event>
 8    1  0.7112384E-009  0.2107670E+03  0.7561462E-02  0.1140960E+00
         -2   -1    0    0    0  501 -0.00000000000E+00  0.00000000000E+00  0.41598051840E+02  0.41598051840E+02  0.00000000000E+00 0.  1.
          2   -1    0    0  501    0  0.00000000000E+00 -0.00000000000E+00 -0.11446143173E+04  0.11446143173E+04  0.00000000000E+00 0. -1.
         25    2    1    2    0    0  0.14628595914E+03  0.11955234224E+03 -0.59767620100E+03  0.63918608109E+03  0.12509860369E+03 0.  0.
         23    2    1    2    0    0 -0.14628595914E+03 -0.11955234224E+03 -0.50534006443E+03  0.54702628802E+03  0.90425851884E+02 0.  0.
          5    1    3    3  502    0  0.52979233050E+02  0.12208592432E+03 -0.34994045126E+03  0.37441629756E+03  0.41800000000E+01 0.  1.
         -5    1    3    3    0  502  0.93306726088E+02 -0.25335820821E+01 -0.24773574974E+03  0.26476978353E+03  0.41800000000E+01 0.  1.
        -11    1    4    4    0    0 -0.62142682833E+02 -0.81790019099E+02 -0.16457269452E+03  0.19399869081E+03  0.00000000000E+00 0.  1.
         11    1    4    4    0    0 -0.84143276305E+02 -0.37762323141E+02 -0.34076736991E+03  0.35302759721E+03  0.00000000000E+00 0. -1.
</event>
<event>
 8    1  0.7112384E-009  0.1233728E+03  0.7561462E-02  0.1237635E+00
          3   -1    0    0  501    0  0.00000000000E+00  0.00000000000E+00  0.24348048830E+03  0.24348048830E+03  0.00000000000E+00 0. -1.
         -3   -1    0    0    0  501 -0.00000000000E+00 -0.00000000000E+00 -0.91667550806E+02  0.91667550806E+02  0.00000000000E+00 0.  1.
         25    2    1    2    0    0 -0.79436200804E+02 -0.53710608784E+02  0.41820221288E+02  0.16306546429E+03  0.12508587147E+03 0.  0.
         23    2    1    2    0    0  0.79436200804E+02  0.53710608784E+02  0.10999271621E+03  0.17208257482E+03  0.91208965810E+02 0.  0.
          5    1    3    3  502    0 -0.76700289552E+02 -0.15849228943E+02 -0.28167221381E+02  0.83336650015E+02  0.41800000000E+01 0.  1.
         -5    1    3    3    0  502 -0.27359112520E+01 -0.37861379841E+02  0.69987442669E+02  0.79728814272E+02  0.41800000000E+01 0.  1.
        -11    1    4    4    0    0  0.48121915204E+02  0.77205963540E+02  0.61743405085E+02  0.10994874988E+03  0.00000000000E+00 0.  1.
         11    1    4    4    0    0  0.31314285600E+02 -0.23495354756E+02  0.48249311123E+02  0.62133824939E+02  0.00000000000E+00 0. -1.
</event>
<event>
 8    1  0.7112384E-009  0.1080794E+03  0.7561462E-02  0.1264168E+00
          1   -1    0    0  501    0  0.00000000000E+00  0.00000000000E+00  0.54242257982E+03  0.54242257982E+03  0.00000000000E+00 0. -1.
         -1   -1    0    0    0  501 -0.00000000000E+00 -0.00000000000E+00 -0.24472499972E+02  0.24472499972E+02  0.00000000000E+00 0.  1.
         25    2    1    2    0    0 -0.21121263871E+02 -0.30915164648E+02  0.30401999523E+03  0.33086900857E+03  0.12507712877E+03 0.  0.
         23    2    1    2    0    0  0.21121263871E+02  0.30915164648E+02  0.21393008462E+03  0.23602607122E+03  0.92414122285E+02 0.  0.
          5    1    3    3  502    0  0.38635577190E+02 -0.44483085613E+02  0.21319243865E+03  0.22122373523E+03  0.41800000000E+01 0.  1.
         -5    1    3    3    0  502 -0.59756841060E+02  0.13567920965E+02  0.90827556576E+02  0.10964527334E+03  0.41800000000E+01 0.  1.
        -11    1    4    4    0    0 -0.21889568648E+02  0.45306161234E+02  0.14528061192E+03  0.15374738261E+03  0.00000000000E+00 0. -1.
         11    1    4    4    0    0  0.43010832518E+02 -0.14390996586E+02  0.68649472705E+02  0.82278688610E+02  0.00000000000E+00 0.  1.
</event>
<event>
 8    1  0.7112384E-009  0.9388647E+02  0.7561462E-02  0.1293704E+00
          1   -1    0    0  501    0  0.00000000000E+00  0.00000000000E+00  0.24050524010E+03  0.24050524010E+03  0.00000000000E+00 0. -1.
         -1   -1    0    0    0  501 -0.00000000000E+00 -0.00000000000E+00 -0.96599775437E+02  0.96599775437E+02  0.00000000000E+00 0.  1.
         25    2    1    2    0    0 -0.18048765914E+01 -0.90880071427E+01  0.19570773288E+03  0.23245219009E+03  0.12508658807E+03 0.  0.
         23    2    1    2    0    0  0.18048765914E+01  0.90880071427E+01 -0.51802268218E+02  0.10465282545E+03  0.90459324718E+02 0.  0.
          5    1    3    3  502    0  0.39056917377E+02  0.37550903081E+02  0.13520764245E+03  0.14571922348E+03  0.41800000000E+01 0. -1.
         -5    1    3    3    0  502 -0.40861793968E+02 -0.46638910224E+02  0.60500090437E+02  0.86732966605E+02  0.41800000000E+01 0. -1.
        -11    1    4    4    0    0 -0.13512028756E+02  0.37030442537E+02 -0.59963034723E+02  0.71759279043E+02  0.00000000000E+00 0.  1.
         11    1    4    4    0    0  0.15316905347E+02 -0.27942435394E+02  0.81607665044E+01  0.32893546406E+02  0.00000000000E+00 0. -1.
</event>
<event>
 8    1  0.7112384E-009  0.1060387E+03  0.7561462E-02  0.1268087E+00
         -3   -1    0    0    0  501 -0.00000000000E+00  0.00000000000E+00  0.13091475240E+03  0.13091475240E+03  0.00000000000E+00 0.  1.
          3   -1    0    0  501    0  0.00000000000E+00 -0.00000000000E+00 -0.13678113897E+03  0.13678113897E+03  0.00000000000E+00 0. -1.
         25    2    1    2    0    0 -0.61624568418E+02  0.21533630080E+02 -0.36194605550E+02  0.14566664078E+03  0.12508971224E+03 0.  0.
         23    2    1    2    0    0  0.61624568418E+02 -0.21533630080E+02  0.30328218978E+02  0.12202925059E+03  0.98539598521E+02 0.  0.
          5    1    3    3  502    0  0.37660523043E+02  0.14516234344E+01  0.28698089094E+00  0.37920666720E+02  0.41800000000E+01 0. -1.
         -5    1    3    3    0  502 -0.99285091460E+02  0.20082006646E+02 -0.36481586441E+02  0.10774597406E+03  0.41800000000E+01 0. -1.
        -11    1    4    4    0    0  0.54310476418E+02 -0.29628149999E+02 -0.24192023329E+02  0.66428225281E+02  0.00000000000E+00 0. -1.
         11    1    4    4    0    0  0.73140919994E+01  0.80945199188E+01  0.54520242307E+02  0.55601025312E+02  0.00000000000E+00 0.  1.
</event>
<event>
 8    1  0.7112384E-009  0.1278589E+03  0.7561462E-02  0.1230668E+00
          1   -1    0    0  501    0  0.00000000000E+00  0.00000000000E+00  0.11944519765E+03  0.11944519765E+03  0.00000000000E+00 0. -1.
         -1   -1    0    0    0  501 -0.00000000000E+00 -0.00000000000E+00 -0.16766788923E+03  0.16766788923E+03  0.00000000000E+00 0.  1.
         25    2    1    2    0    0  0.13039619311E+02  0.89259661482E+02 -0.40542528544E+02  0.15946591807E+03  0.12509341936E+03 0.  0.
         23    2    1    2    0    0 -0.13039619311E+02 -0.89259661482E+02 -0.76801630377E+01  0.12764716881E+03  0.89986087592E+02 0.  0.
          5    1    3    3  502    0 -0.13517624823E+02  0.10372181863E+03  0.48139095717E+01  0.10479307213E+03  0.41800000000E+01 0.  1.
         -5    1    3    3    0  502  0.26557244135E+02 -0.14462157146E+02 -0.45356438116E+02  0.54672845947E+02  0.41800000000E+01 0.  1.
        -11    1    4    4    0    0  0.32531240679E+02 -0.53362727635E+02  0.16748702455E+02  0.64702251543E+02  0.00000000000E+00 0.  1.
         11    1    4    4    0    0 -0.45570859991E+02 -0.35896933846E+02 -0.24428865493E+02  0.62944917262E+02  0.00000000000E+00 0. -1.
</event>
<event>
 8    1  0.7112384E-009  0.1218051E+03  0.7561462E-02  0.1240149E+00
          1   -1    0    0  501    0  0.00000000000E+00  0.00000000000E+00  0.24060899903E+03  0.24060899903E+03  0.00000000000E+00 0. -1.
         -1   -1    0    0    0  501 -0.00000000000E+00 -0.00000000000E+00 -0.10110739935E+03  0.10110739935E+03  0.00000000000E+00 0.  1.
         25    2    1    2    0    0  0.53134882809E+02  0.46139626617E+02  0.16904038388E+03  0.22175327879E+03  0.12509070452E+03 0.  0.
         23    2    1    2    0    0 -0.53134882809E+02 -0.46139626617E+02 -0.29538784200E+02  0.11996311959E+03  0.92555007289E+02 0.  0.
          5    1    3    3  502    0 -0.24221322988E+02  0.46877352273E+02  0.11702536825E+03  0.12843896550E+03  0.41800000000E+01 0.  1.
         -5    1    3    3    0  502  0.77356205797E+02 -0.73772565553E+00  0.52015015626E+02  0.93314313292E+02  0.41800000000E+01 0.  1.
        -11    1    4    4    0    0 -0.66242988128E+02 -0.10504036547E+01 -0.36699454135E+01  0.66352884815E+02  0.00000000000E+00 0.  1.
         11    1    4    4    0    0  0.13108105319E+02 -0.45089222962E+02 -0.25868838786E+02  0.53610234774E+02  0.00000000000E+00 0. -1.
</event>
<event>
 8    1  0.7112384E-009  0.1142107E+03  0.7561462E-02  0.1252965E+00
          1   -1    0    0  501    0  0.00000000000E+00  0.00000000000E+00  0.53596136231E+02  0.53596136231E+02  0.00000000000E+00 0. -1.
         -1   -1    0    0    0  501 -0.00000000000E+00 -0.00000000000E+00 -0.49670994316E+03  0.49670994316E+03  0.00000000000E+00 0.  1.
         25    2    1    2    0    0 -0.28712726074E+02  0.72452807233E+02 -0.81524338434E+02  0.16842581635E+03  0.12508880022E+03 0.  0.
         23    2    1    2    0    0  0.28712726074E+02 -0.72452807233E+02 -0.36158946850E+03  0.38188026304E+03  0.94930298960E+02 0.  0.
          5    1    3    3  502    0 -0.30012950146E+02 -0.95061864020E+01 -0.80287585086E+02  0.86340682620E+02  0.41800000000E+01 0. -1.
         -5    1    3    3    0  502  0.13002240715E+01  0.81958993635E+02 -0.12367533485E+01  0.82085133728E+02  0.41800000000E+01 0. -1.
        -11    1    4    4    0    0 -0.25270645947E+02 -0.13415246477E+01 -0.15162362721E+03  0.15372094706E+03  0.00000000000E+00 0.  1.
         11    1    4    4    0    0  0.53983372021E+02 -0.71111282586E+02 -0.20996584128E+03  0.22815931599E+03  0.00000000000E+00 0. -1.
</event>
<event>
 8    1  0.7112384E-009  0.1477184E+03  0.7561462E-02  0.1203305E+00
         -2   -1    0    0    0  501 -0.00000000000E+00  0.00000000000E+00  0.37692517223E+02  0.37692517223E+02  0.00000000000E+00 0. -1.
          2   -1    0    0  501    0  0.00000000000E+00 -0.00000000000E+00 -0.96824181918E+03  0.96824181918E+03  0.00000000000E+00 0.  1.
         25    2    1    2    0    0 -0.99324044863E+02  0.35999010261E+02 -0.79237974549E+03  0.80911961322E+03  0.12509073833E+03 0.  0.
         23    2    1    2    0    0  0.99324044863E+02 -0.35999010261E+02 -0.13816955647E+03  0.19681472318E+03  0.92108709133E+02 0.  0.
          5    1    3    3  502    0  0.15235621247E+02  0.42950844774E+02 -0.30352002656E+03  0.30695077479E+03  0.41800000000E+01 0.  1.
         -5    1    3    3    0  502 -0.11455966611E+03 -0.69518345124E+01 -0.48885971892E+03  0.50216883843E+03  0.41800000000E+01 0.  1.
        -11    1    4    4    0    0  0.59258161677E+02 -0.63016403351E+02 -0.61310285193E+02  0.10602616605E+03  0.00000000000E+00 0. -1.
         11    1    4    4    0    0  0.40065883186E+02  0.27017393090E+02 -0.76859271281E+02  0.90788557135E+02  0.00000000000E+00 0.  1.
</event>
<event>
 8    1  0.7112384E-009  0.1150908E+03  0.7561462E-02  0.1251423E+00
          2   -1    0    0  501    0  0.00000000000E+00  0.00000000000E+00  0.32323074255E+02  0.32323074255E+02  0.00000000000E+00 0. -1.
         -2   -1    0    0    0  501 -0.00000000000E+00 -0.00000000000E+00 -0.48524371720E+03  0.48524371720E+03  0.00000000000E+00 0.  1.
         25    2    1    2    0    0 -0.48371750208E+02  0.99018881726E+01 -0.29565190721E+03  0.32480007563E+03  0.12508862971E+03 0.  0.
         23    2    1    2    0    0  0.48371750208E+02 -0.99018881726E+01 -0.15726873573E+03  0.19276671582E+03  0.99938370426E+02 0.  0.
          5    1    3    3  502    0 -0.90279433466E+02  0.20851165600E+01 -0.17900097914E+03  0.20053315624E+03  0.41800000000E+01 0. -1.
         -5    1    3    3    0  502  0.41907683258E+02  0.78167716127E+01 -0.11665092807E+03  0.12426691939E+03  0.41800000000E+01 0. -1.
        -11    1    4    4    0    0  0.69016320289E+02  0.81844980064E+01 -0.60378826058E+02  0.92064331367E+02  0.00000000000E+00 0. -1.
         11    1    4    4    0    0 -0.20644570081E+02 -0.18086386179E+02 -0.96889909671E+02  0.10070238445E+03  0.00000000000E+00 0.  1.
</event>
<event>
 8    1  0.7112384E-009  0.9260976E+02  0.7561462E-02  0.1296652E+00
          1   -1    0    0  501    0  0.00000000000E+00  0.00000000000E+00  0.49372549705E+03  0.49372549705E+03  0.00000000000E+00 0. -1.
         -1   -1    0    0    0  501 -0.00000000000E+00 -0.00000000000E+00 -0.53871713960E+02  0.53871713960E+02  0.00000000000E+00 0.  1.
         25    2    1    2    0    0  0.11302353031E+02  0.25488741004E+02  0.43501569624E+03  0.45349847405E+03  0.12507913849E+03 0.  0.
         23    2    1    2    0    0 -0.11302353031E+02 -0.25488741004E+02  0.48380868478E+01  0.94098736962E+02  0.89742666059E+02 0.  0.
          5    1    3    3  502    0 -0.17432359864E+02  0.57549884759E+02  0.37328900125E+03  0.37812435423E+03  0.41800000000E+01 0. -1.
         -5    1    3    3    0  502  0.28734712895E+02 -0.32061143756E+02  0.61726694994E+02  0.75374119822E+02  0.41800000000E+01 0. -1.
        -11    1    4    4    0    0  0.32380389691E+02 -0.18947342155E+02  0.25472421782E+02  0.45346837627E+02  0.00000000000E+00 0. -1.
         11    1    4    4    0    0 -0.43682742722E+02 -0.65413988487E+01 -0.20634334934E+02  0.48751899335E+02  0.00000000000E+00 0.  1.
</event>
<event>
 8    1  0.7112384E-009  0.8650927E+02  0.7561462E-02  0.1311532E+00
         -2   -1    0    0    0  501 -0.00000000000E+00  0.00000000000E+00  0.11254824473E+03  0.11254824473E+03  0.00000000000E+00 0.  1.
          2   -1    0    0  501    0  0.00000000000E+00 -0.00000000000E+00 -0.10952116471E+03  0.10952116471E+03  0.00000000000E+00 0. -1.
         25    2    1    2    0    0 -0.27638746800E+02 -0.59823910593E+01  0.49047405745E+01  0.12834018204E+03  0.12508979383E+03 0.  0.
         23    2    1    2    0    0  0.27638746800E+02  0.59823910593E+01 -0.18776605580E+01  0.93729227396E+02  0.89341777078E+02 0.  0.
          5    1    3    3  502    0 -0.54940066529E+02  0.20663405537E+02 -0.38562267206E+02  0.70355583223E+02  0.41800000000E+01 0.  1.
         -5    1    3    3    0  502  0.27301319729E+02 -0.26645796596E+02  0.43467007780E+02  0.57984598822E+02  0.41800000000E+01 0.  1.
        -11    1    4    4    0    0  0.23026905236E+02 -0.30949618150E+02 -0.28505895443E+02  0.47965647117E+02  0.00000000000E+00 0. -1.
         11    1    4    4    0    0  0.46118415647E+01  0.36932009209E+02  0.26628234885E+02  0.45763580279E+02  0.00000000000E+00 0.  1.
</event>
<event>
 8    1  0.7112384E-009  0.1126654E+03  0.7561462E-02  0.1255712E+00
         -2   -1    0    0    0  501 -0.00000000000E+00  0.00000000000E+00  0.19416465501E+02  0.19416465501E+02  0.00000000000E+00 0.  1.
          2   -1    0    0  501    0  0.00000000000E+00 -0.00000000000E+00 -0.79360623714E+03  0.79360623714E+03  0.00000000000E+00 0. -1.
         25    2    1    2    0    0  0.15686492345E+02 -0.54811235486E+02 -0.51544870123E+03  0.53346423020E+03  0.12508550565E+03 0.  0.
         23    2    1    2    0    0 -0.15686492345E+02  0.54811235486E+02 -0.25874107040E+03  0.27955847244E+03  0.89194508918E+02 0.  0.
          5    1    3    3  502    0  0.60910116332E+02 -0.57857166267E+02 -0.24076994292E+03  0.25503947101E+03  0.41800000000E+01 0. -1.
         -5    1    3    3    0  502 -0.45223623987E+02  0.30459307808E+01 -0.27467875832E+03  0.27842475919E+03  0.41800000000E+01 0. -1.
        -11    1    4    4    0    0 -0.46660690050E+02  0.39562730171E+02 -0.21664111528E+03  0.22511286601E+03  0.00000000000E+00 0. -1.
         11    1    4    4    0    0  0.30974197705E+02  0.15248505315E+02 -0.42099955126E+02  0.54445606428E+02  0.00000000000E+00 0.  1.
</event>
<event>
 8    1  0.7112384E-009  0.1113770E+03  0.7561462E-02  0.1258041E+00
         -3   -1    0    0    0  501 -0.00000000000E+00  0.00000000000E+00  0.41537186851E+03  0.41537186851E+03  0.00000000000E+00 0.  1.
          3   -1    0    0  501    0  0.00000000000E+00 -0.00000000000E+00 -0.50848150670E+02  0.50848150670E+02  0.00000000000E+00 0. -1.
         25    2    1    2    0    0  0.68703005528E+02  0.16244828131E+02  0.30277877566E+03  0.33512106607E+03  0.12508854674E+03 0.  0.
         23    2    1    2    0    0 -0.68703005528E+02 -0.16244828131E+02  0.61744942179E+02  0.13109895311E+03  0.91599673645E+02 0.  0.
          5    1    3    3  502    0 -0.22037123818E+02  0.15289208334E+02  0.18189380846E+03  0.18390819632E+03  0.41800000000E+01 0. -1.
         -5    1    3    3    0  502  0.90740129346E+02  0.95561979718E+00  0.12088496719E+03  0.15121286974E+03  0.41800000000E+01 0. -1.
        -11    1    4    4    0    0 -0.43381648782E+01 -0.36911737636E+02 -0.32671984594E+01  0.37309122686E+02  0.00000000000E+00 0. -1.
         11    1    4    4    0    0 -0.64364840650E+02  0.20666909504E+02  0.65012140638E+02  0.93789830422E+02  0.00000000000E+00 0.  1.
</event>
<event>
 8    1  0.7112384E-009  0.1002416E+03  0.7561462E-02  0.1279789E+00
         -2   -1    0    0    0  501 -0.00000000000E+00  0.00000000000E+00  0.84874301060E+01  0.84874301060E+01  0.00000000000E+00 0. -1.
          2   -1    0    0  501    0  0.00000000000E+00 -0.00000000000E+00 -0.20305544117E+04  0.20305544117E+04  0.00000000000E+00 0.  1.
         25    2    1    2    0    0  0.59464022622E+02  0.20319602253E+02 -0.14165041346E+04  0.14234039075E+04  0.12508342928E+03 0.  0.
         23    2    1    2    0    0 -0.59464022622E+02 -0.20319602253E+02 -0.60556284699E+03  0.61563793432E+03  0.91404859247E+02 0.  0.
          5    1    3    3  502    0 -0.50771624040E+00  0.28641410757E+02 -0.73013791000E+02  0.78543454610E+02  0.41800000000E+01 0. -1.
         -5    1    3    3    0  502  0.59971738862E+02 -0.83218085033E+01 -0.13434903436E+04  0.13448604528E+04  0.41800000000E+01 0. -1.
        -11    1    4    4    0    0 -0.71773201885E+02 -0.43977496824E+02 -0.46955228757E+03  0.47703748647E+03  0.00000000000E+00 0.  1.
         11    1    4    4    0    0  0.12309179263E+02  0.23657894571E+02 -0.13601055941E+03  0.13860044784E+03  0.00000000000E+00 0. -1.
</event>
<event>
 8    1  0.7112384E-009  0.2169482E+03  0.7561462E-02  0.1136179E+00
         -2   -1    0    0    0  501 -0.00000000000E+00  0.00000000000E+00  0.42644465752E+02  0.42644465752E+02  0.00000000000E+00 0.  1.
          2   -1    0    0  501    0  0.00000000000E+00 -0.00000000000E+00 -0.14464375862E+04  0.14464375862E+04  0.00000000000E+00 0. -1.
         25    2    1    2    0    0 -0.18998887406E+03  0.73087869926E+02 -0.99791238953E+03  0.10261154035E+04  0.12508427223E+03 0.  0.
         23    2    1    2    0    0  0.18998887406E+03 -0.73087869926E+02 -0.40588073096E+03  0.46296664847E+03  0.90340139706E+02 0.  0.
          5    1    3    3  502    0 -0.51672244709E+02 -0.13810072945E+02 -0.10025427773E+03  0.11370633928E+03  0.41800000000E+01 0.  1.
         -5    1    3    3    0  502 -0.13831662935E+03  0.86897942871E+02 -0.89765811180E+03  0.91240906424E+03  0.41800000000E+01 0.  1.
        -11    1    4    4    0    0  0.11106071361E+03 -0.27047273826E+01 -0.15493067129E+03  0.19064446114E+03  0.00000000000E+00 0. -1.
         11    1    4    4    0    0  0.78928160441E+02 -0.70383142544E+02 -0.25095005967E+03  0.27232218733E+03  0.00000000000E+00 0.  1.
</event>
<event>
 8    1  0.7112384E-009  0.1263369E+03  0.7561462E-02  0.1232995E+00
         -1   -1    0    0    0  501 -0.00000000000E+00  0.00000000000E+00  0.20142898995E+03  0.20142898995E+03  0.00000000000E+00 0.  1.
          1   -1    0    0  501    0  0.00000000000E+00 -0.00000000000E+00 -0.10348094573E+03  0.10348094573E+03  0.00000000000E+00 0. -1.
         25    2    1    2    0    0  0.90657992082E+02  0.29879613785E+02  0.58207462412E+02  0.16776837916E+03  0.12508580062E+03 0.  0.
         23    2    1    2    0    0 -0.90657992082E+02 -0.29879613785E+02  0.39740581811E+02  0.13714155652E+03  0.90093450557E+02 0.  0.
          5    1    3    3  502    0  0.98840615291E+02  0.66621790874E+02  0.40492935090E+02  0.12595666097E+03  0.41800000000E+01 0.  1.
         -5    1    3    3    0  502 -0.81826232086E+01 -0.36742177088E+02  0.17714527322E+02  0.41811718190E+02  0.41800000000E+01 0.  1.
        -11    1    4    4    0    0 -0.31816177096E+02 -0.85952631845E+01  0.62419287576E+02  0.70585516473E+02  0.00000000000E+00 0.  1.
         11    1    4    4    0    0 -0.58841814986E+02 -0.21284350601E+02 -0.22678705765E+02  0.66556040045E+02  0.00000000000E+00 0. -1.
</event>
<event>
 8    1  0.7112384E-009  0.1546747E+03  0.7561462E-02  0.1194844E+00
          2   -1    0    0  501    0  0.00000000000E+00  0.00000000000E+00  0.83795551242E+02  0.83795551242E+02  0.00000000000E+00 0. -1.
         -2   -1    0    0    0  501 -0.00000000000E+00 -0.00000000000E+00 -0.34813690239E+03  0.34813690239E+03  0.00000000000E+00 0.  1.
         25    2    1    2    0    0  0.77851765046E+02 -0.10287151790E+03 -0.10082118274E+03  0.20604787525E+03  0.12508944596E+03 0.  0.
         23    2    1    2    0    0 -0.77851765046E+02  0.10287151790E+03 -0.16352016841E+03  0.22588457838E+03  0.87415963979E+02 0.  0.
          5    1    3    3  502    0  0.11127184638E+03 -0.69247802131E+02 -0.83224338640E+02  0.15530758140E+03  0.41800000000E+01 0.  1.
         -5    1    3    3    0  502 -0.33420081335E+02 -0.33623715766E+02 -0.17596844099E+02  0.50740293856E+02  0.41800000000E+01 0.  1.
        -11    1    4    4    0    0 -0.49700375711E+02  0.48705647929E+02 -0.24025817494E+02  0.73617982805E+02  0.00000000000E+00 0. -1.
         11    1    4    4    0    0 -0.28151389334E+02  0.54165869968E+02 -0.13949435091E+03  0.15226659557E+03  0.00000000000E+00 0.  1.
</event>
<event>
 8    1  0.7112384E-009  0.8475282E+02  0.7561462E-02  0.1316080E+00
          2   -1    0    0  501    0  0.00000000000E+00  0.00000000000E+00  0.16701404679E+03  0.16701404679E+03  0.00000000000E+00 0. -1.
         -2   -1    0    0    0  501 -0.00000000000E+00 -0.00000000000E+00 -0.80515217389E+02  0.80515217389E+02  0.00000000000E+00 0.  1.
         25    2    1    2    0    0 -0.32252701431E+01 -0.26793477153E+02  0.15062392116E+02  0.12884528122E+03  0.12508372417E+03 0.  0.
         23    2    1    2    0    0  0.32252701431E+01  0.26793477153E+02  0.71436437290E+02  0.11868398296E+03  0.90853896193E+02 0.  0.
          5    1    3    3  502    0  0.48879811996E+02 -0.21366168026E+02  0.43618364891E+02  0.69034652984E+02  0.41800000000E+01 0. -1.
         -5    1    3    3    0  502 -0.52105082139E+02 -0.54273091278E+01 -0.28555972775E+02  0.59810628238E+02  0.41800000000E+01 0. -1.
        -11    1    4    4    0    0 -0.25178842506E+02  0.24196426412E+02 -0.66529571478E+01  0.35548600533E+02  0.00000000000E+00 0.  1.
         11    1    4    4    0    0  0.28404112649E+02  0.25970507416E+01  0.78089394438E+02  0.83135382429E+02  0.00000000000E+00 0. -1.
</event>
<event>
 8    1  0.7112384E-009  0.1059523E+03  0.7561462E-02  0.1268255E+00
         -2   -1    0    0    0  501 -0.00000000000E+00  0.00000000000E+00  0.38571618237E+02  0.38571618237E+02  0.00000000000E+00 0.  1.
          2   -1    0    0  501    0  0.00000000000E+00 -0.00000000000E+00 -0.37819096058E+03  0.37819096058E+03  0.00000000000E+00 0. -1.
         25    2    1    2    0    0  0.43038506364E+02  0.13472672925E+02 -0.14214867559E+03  0.19464953997E+03  0.12509345104E+03 0.  0.
         23    2    1    2    0    0 -0.43038506364E+02 -0.13472672925E+02 -0.19747066675E+03  0.22211303885E+03  0.91135678267E+02 0.  0.
          5    1    3    3  502    0  0.68216596484E+02  0.35043052623E+02 -0.38832781201E+02  0.86063795343E+02  0.41800000000E+01 0.  1.
         -5    1    3    3    0  502 -0.25178090120E+02 -0.21570379698E+02 -0.10331589439E+03  0.10858574463E+03  0.41800000000E+01 0.  1.
        -11    1    4    4    0    0 -0.66623419587E+02  0.11191553703E+02 -0.13077635370E+03  0.14719505969E+03  0.00000000000E+00 0. -1.
         11    1    4    4    0    0  0.23584913222E+02 -0.24664226629E+02 -0.66694313057E+02  0.74917979157E+02  0.00000000000E+00 0.  1.
</event>
<event>
 8    1  0.7112384E-009  0.1067506E+03  0.7561462E-02  0.1266708E+00
          1   -1    0    0  501    0  0.00000000000E+00  0.00000000000E+00  0.11668838829E+03  0.11668838829E+03  0.00000000000E+00 0. -1.
         -1   -1    0    0    0  501 -0.00000000000E+00 -0.00000000000E+00 -0.20746741860E+03  0.20746741860E+03  0.00000000000E+00 0.  1.
         25    2    1    2    0    0  0.40452586330E+02  0.62859458478E+02  0.37186820892E+02  0.15039092814E+03  0.12508736290E+03 0.  0.
         23    2    1    2    0    0 -0.40452586330E+02 -0.62859458478E+02 -0.12796585120E+03  0.17376487876E+03  0.90726240716E+02 0.  0.
          5    1    3    3  502    0  0.78781733161E+01 -0.22449671693E+02  0.52419928915E+02  0.57718062349E+02  0.41800000000E+01 0. -1.
         -5    1    3    3    0  502  0.32574413014E+02  0.85309130171E+02 -0.15233108022E+02  0.92672865790E+02  0.41800000000E+01 0. -1.
        -11    1    4    4    0    0 -0.46514489741E+02 -0.72740099051E+02 -0.13496817556E+03  0.16022212138E+03  0.00000000000E+00 0.  1.
         11    1    4    4    0    0  0.60619034109E+01  0.98806405733E+01  0.70023243530E+01  0.13542757380E+02  0.00000000000E+00 0. -1.
</event>
<event>
 8    1  0.7112384E-009  0.1265277E+03  0.7561462E-02  0.1232701E+00
          4   -1    0    0  501    0  0.00000000000E+00  0.00000000000E+00  0.95449358342E+02  0.95449358342E+02  0.00000000000E+00 0. -1.
         -4   -1    0    0    0  501 -0.00000000000E+00 -0.00000000000E+00 -0.19171497978E+03  0.19171497978E+03  0.00000000000E+00 0.  1.
         25    2    1    2    0    0 -0.16677259333E+02  0.72684778953E+02 -0.21384072898E+02  0.14719343562E+03  0.12508965123E+03 0.  0.
         23    2    1    2    0    0  0.16677259333E+02 -0.72684778953E+02 -0.74881548543E+02  0.13997090250E+03  0.91779078037E+02 0.  0.
          5    1    3    3  502    0 -0.15870971930E+02  0.10589225189E+03  0.56976636694E+00  0.10715807853E+03  0.41800000000E+01 0.  1.
         -5    1    3    3    0  502 -0.80628740295E+00 -0.33207472942E+02 -0.21953839265E+02  0.40035357087E+02  0.41800000000E+01 0.  1.
        -11    1    4    4    0    0 -0.33841567645E+02 -0.39317861657E+02 -0.56489463644E+02  0.76695537346E+02  0.00000000000E+00 0.  1.
         11    1    4    4    0    0  0.50518826977E+02 -0.33366917296E+02 -0.18392084899E+02  0.63275365158E+02  0.00000000000E+00 0. -1.
</event>
<event>
 8    1  0.7112384E-009  0.1159574E+03  0.7561462E-02  0.1249919E+00
          1   -1    0    0  501    0  0.00000000000E+00  0.00000000000E+00  0.45592601628E+03  0.45592601628E+03  0.00000000000E+00 0. -1.
         -1   -1    0    0    0  501 -0.00000000000E+00 -0.00000000000E+00 -0.31668486539E+02  0.31668486539E+02  0.00000000000E+00 0.  1.
         25    2    1    2    0    0 -0.46664281331E+02  0.47323330753E+01  0.19246112757E+03  0.23428628053E+03  0.12509526566E+03 0.  0.
         23    2    1    2    0    0  0.46664281331E+02 -0.47323330753E+01  0.23179640217E+03  0.25330822229E+03  0.90749839075E+02 0.  0.
          5    1    3    3  502    0  0.23716151646E+02 -0.39733691055E+02  0.97008957820E+02  0.10756129579E+03  0.41800000000E+01 0. -1.
         -5    1    3    3    0  502 -0.70380432977E+02  0.44466024131E+02  0.95452169754E+02  0.12672498475E+03  0.41800000000E+01 0. -1.
        -11    1    4    4    0    0  0.57133918284E+02  0.30903196722E+02  0.15148849052E+03  0.16482734890E+03  0.00000000000E+00 0. -1.
         11    1    4    4    0    0 -0.10469636953E+02 -0.35635529797E+02  0.80307911650E+02  0.88480873387E+02  0.00000000000E+00 0.  1.
</event>
<event>
 8    1  0.7112384E-009  0.9679336E+02  0.7561462E-02  0.1287187E+00
          1   -1    0    0  501    0  0.00000000000E+00  0.00000000000E+00  0.10475741251E+03  0.10475741251E+03  0.00000000000E+00 0. -1.
         -1   -1    0    0    0  501 -0.00000000000E+00 -0.00000000000E+00 -0.11371844019E+03  0.11371844019E+03  0.00000000000E+00 0.  1.
         25    2    1    2    0    0  0.11981545361E+02  0.10308501848E+02  0.14271663793E+02  0.12688824656E+03  0.12508846505E+03 0.  0.
         23    2    1    2    0    0 -0.11981545361E+02 -0.10308501848E+02 -0.23232691469E+02  0.91587606146E+02  0.87170574204E+02 0.  0.
          5    1    3    3  502    0 -0.11035098715E+02 -0.45459629475E+02 -0.26524505506E+02  0.53938604987E+02  0.41800000000E+01 0. -1.
         -5    1    3    3    0  502  0.23016644077E+02  0.55768131323E+02  0.40796169299E+02  0.72949641571E+02  0.41800000000E+01 0. -1.
        -11    1    4    4    0    0 -0.48659591172E+02 -0.30480411864E+01 -0.24646193856E+01  0.48817217422E+02  0.00000000000E+00 0.  1.
         11    1    4    4    0    0  0.36678045811E+02 -0.72604606619E+01 -0.20768072083E+02  0.42770388724E+02  0.00000000000E+00 0. -1.
</event>
<event>
 8    1  0.7112384E-009  0.1066969E+03  0.7561462E-02  0.1266812E+00
         -2   -1    0    0    0  501 -0.00000000000E+00  0.00000000000E+00  0.89736058148E+02  0.89736058148E+02  0.00000000000E+00 0. -1.
          2   -1    0    0  501    0  0.00000000000E+00 -0.00000000000E+00 -0.15767132827E+03  0.15767132827E+03  0.00000000000E+00 0.  1.
         25    2    1    2    0    0 -0.16706934081E+02 -0.36143300117E+02 -0.27417768152E+02  0.13410670910E+03  0.12508963037E+03 0.  0.
         23    2    1    2    0    0  0.16706934081E+02  0.36143300117E+02 -0.40517501972E+02  0.11330067732E+03  0.98030177622E+02 0.  0.
          5    1    3    3  502    0 -0.51392224884E+02 -0.57674677155E+02  0.10697053351E+02  0.78098838108E+02  0.41800000000E+01 0. -1.
         -5    1    3    3    0  502  0.34685290803E+02  0.21531377038E+02 -0.38114821503E+02  0.56007870996E+02  0.41800000000E+01 0. -1.
        -11    1    4    4    0    0 -0.28016597046E+02 -0.10919056019E+02  0.92910564049E+01  0.31471879885E+02  0.00000000000E+00 0. -1.
         11    1    4    4    0    0  0.44723531127E+02  0.47062356135E+02 -0.49808558377E+02  0.81828797432E+02  0.00000000000E+00 0.  1.
</event>
<event>
 8    1  0.7112384E-009  0.2153192E+03  0.7561462E-02  0.1137422E+00
          1   -1    0    0  501    0  0.00000000000E+00  0.00000000000E+00  0.12401148961E+03  0.12401148961E+03  0.00000000000E+00 0. -1.
         -1   -1    0    0    0  501 -0.00000000000E+00 -0.00000000000E+00 -0.45541234665E+03  0.45541234665E+03  0.00000000000E+00 0.  1.
         25    2    1    2    0    0  0.96950109138E+02 -0.17163306668E+03 -0.26339821915E+03  0.35197053335E+03  0.12508957292E+03 0.  0.
         23    2    1    2    0    0 -0.96950109138E+02  0.17163306668E+03 -0.68002637883E+02  0.22745330290E+03  0.90848296637E+02 0.  0.
          5    1    3    3  502    0  0.46594125338E+02 -0.16419412594E+03 -0.24298621808E+03  0.29696885036E+03  0.41800000000E+01 0.  1.
         -5    1    3    3    0  502  0.50355983800E+02 -0.74389407419E+01 -0.20412001078E+02  0.55001682991E+02  0.41800000000E+01 0.  1.
        -11    1    4    4    0    0 -0.10326648593E+03  0.12666132842E+03 -0.25778968198E+02  0.16544368962E+03  0.00000000000E+00 0. -1.
         11    1    4    4    0    0  0.63163767901E+01  0.44971738263E+02 -0.42223669685E+02  0.62009613285E+02  0.00000000000E+00 0.  1.
</event>
<event>
 8    1  0.7112384E-009  0.2131447E+03  0.7561462E-02  0.1139100E+00
          2   -1    0    0  501    0  0.00000000000E+00  0.00000000000E+00  0.11560437005E+03  0.11560437005E+03  0.00000000000E+00 0. -1.
         -2   -1    0    0    0  501 -0.00000000000E+00 -0.00000000000E+00 -0.45621269069E+03  0.45621269069E+03  0.00000000000E+00 0.  1.
         25    2    1    2    0    0  0.15424158289E+02 -0.19563074091E+03 -0.11735355227E+03  0.26063033420E+03  0.12508806269E+03 0.  0.
         23    2    1    2    0    0 -0.15424158289E+02  0.19563074091E+03 -0.22325476837E+03  0.31118672655E+03  0.92115122169E+02 0.  0.
          5    1    3    3  502    0  0.60598116994E+02 -0.16349524902E+03 -0.10532358918E+03  0.20374827380E+03  0.41800000000E+01 0. -1.
         -5    1    3    3    0  502 -0.45173958705E+02 -0.32135491884E+02 -0.12029963083E+02  0.56882060401E+02  0.41800000000E+01 0. -1.
        -11    1    4    4    0    0 -0.11292789372E+02  0.11799055608E+03 -0.19551152991E+03  0.22863520452E+03  0.00000000000E+00 0.  1.
         11    1    4    4    0    0 -0.41313689170E+01  0.77640184828E+02 -0.27743238456E+02  0.82551522029E+02  0.00000000000E+00 0. -1.
</event>
<event>
 8    1  0.7112384E-009  0.2558147E+03  0.7561462E-02  0.1109684E+00
         -2   -1    0    0    0  501 -0.00000000000E+00  0.00000000000E+00  0.64552817018E+02  0.64552817018E+02  0.00000000000E+00 0.  1.
          2   -1    0    0  501    0  0.00000000000E+00 -0.00000000000E+00 -0.11822222598E+04  0.11822222598E+04  0.00000000000E+00 0. -1.
         25    2    1    2    0    0 -0.13021267398E+03 -0.19263278629E+03 -0.34334321599E+03  0.43312073058E+03  0.12508506096E+03 0.  0.
         23    2    1    2    0    0  0.13021267398E+03  0.19263278629E+03 -0.77432622675E+03  0.81365434619E+03  0.91594534894E+02 0.  0.
          5    1    3    3  502    0 -0.74935827118E+02 -0.13722497283E+02 -0.11077550823E+03  0.13450788357E+03  0.41800000000E+01 0.  1.
         -5    1    3    3    0  502 -0.55276846860E+02 -0.17891028901E+03 -0.23256770775E+03  0.29861284701E+03  0.41800000000E+01 0.  1.
        -11    1    4    4    0    0  0.12073496707E+01  0.70092343682E+02 -0.17651291412E+03  0.18992420379E+03  0.00000000000E+00 0.  1.
         11    1    4    4    0    0  0.12900532431E+03  0.12254044261E+03 -0.59781331263E+03  0.62373014240E+03  0.00000000000E+00 0. -1.
</event>
<event>
 8    1  0.7112384E-009  0.1058299E+03  0.7561462E-02  0.1268493E+00
         -1   -1    0    0    0  501 -0.00000000000E+00  0.00000000000E+00  0.14637778048E+02  0.14637778048E+02  0.00000000000E+00 0.  1.
          1   -1    0    0  501    0  0.00000000000E+00 -0.00000000000E+00 -0.80908720561E+03  0.80908720561E+03  0.00000000000E+00 0. -1.
         25    2    1    2    0    0 -0.79268105654E+01  0.20031052177E+02 -0.49774598614E+03  0.51367644286E+03  0.12509334060E+03 0.  0.
         23    2    1    2    0    0  0.79268105654E+01 -0.20031052177E+02 -0.29670344143E+03  0.31004854080E+03  0.87367546139E+02 0.  0.
          5    1    3    3  502    0 -0.65989987144E+02  0.90321585382E+01 -0.29484517825E+03  0.30230350614E+03  0.41800000000E+01 0.  1.
         -5    1    3    3    0  502  0.58063176578E+02  0.10998893639E+02 -0.20290080789E+03  0.21137293672E+03  0.41800000000E+01 0.  1.
        -11    1    4    4    0    0 -0.27871390491E+02 -0.36788293706E+02 -0.20599871427E+03  0.21110581054E+03  0.00000000000E+00 0. -1.
         11    1    4    4    0    0  0.35798201056E+02  0.16757241529E+02 -0.90704727158E+02  0.98942730260E+02  0.00000000000E+00 0.  1.
</event>
<event>
 8    1  0.7112384E-009  0.2088483E+03  0.7561462E-02  0.1142481E+00
          2   -1    0    0  501    0  0.00000000000E+00  0.00000000000E+00  0.51874768373E+03  0.51874768373E+03  0.00000000000E+00 0. -1.
         -2   -1    0    0    0  501 -0.00000000000E+00 -0.00000000000E+00 -0.10517482092E+03  0.10517482092E+03  0.00000000000E+00 0.  1.
         25    2    1    2    0    0  0.66426342182E+02 -0.19179097502E+03  0.15987217962E+03  0.28705955578E+03  0.12509131749E+03 0.  0.
         23    2    1    2    0    0 -0.66426342182E+02  0.19179097502E+03  0.25370068318E+03  0.33686294887E+03  0.88973999780E+02 0.  0.
          5    1    3    3  502    0 -0.68887505037E+01 -0.60533758622E+02  0.11482747378E+03  0.13005618767E+03  0.41800000000E+01 0.  1.
         -5    1    3    3    0  502  0.73315092686E+02 -0.13125721640E+03  0.45044705837E+02  0.15700336811E+03  0.41800000000E+01 0.  1.
        -11    1    4    4    0    0 -0.52151218928E+02  0.94868708998E+02  0.19393200986E+03  0.22210233234E+03  0.00000000000E+00 0. -1.
         11    1    4    4    0    0 -0.14275123254E+02  0.96922266027E+02  0.59768673326E+02  0.11476061653E+03  0.00000000000E+00 0.  1.
</event>
<event>
 8    1  0.7112384E-009  0.9457022E+02  0.7561462E-02  0.1292147E+00
          3   -1    0    0  501    0  0.00000000000E+00  0.00000000000E+00  0.55036475189E+02  0.55036475189E+02  0.00000000000E+00 0. -1.
         -3   -1    0    0    0  501 -0.00000000000E+00 -0.00000000000E+00 -0.21906019451E+03  0.21906019451E+03  0.00000000000E+00 0.  1.
         25    2    1    2    0    0 -0.20043441232E+02 -0.17673760690E+01 -0.56346461644E+02  0.13866383257E+03  0.12509145281E+03 0.  0.
         23    2    1    2    0    0  0.20043441232E+02  0.17673760690E+01 -0.10767725767E+03  0.13543283713E+03  0.79641687566E+02 0.  0.
          5    1    3    3  502    0  0.20864444779E+01  0.60383998884E+02 -0.25459988982E+02  0.65698280120E+02  0.41800000000E+01 0. -1.
         -5    1    3    3    0  502 -0.22129885710E+02 -0.62151374953E+02 -0.30886472662E+02  0.72965552445E+02  0.41800000000E+01 0. -1.
        -11    1    4    4    0    0  0.34462475965E+02 -0.17302809848E+02 -0.10440905029E+03  0.11130273698E+03  0.00000000000E+00 0.  1.
         11    1    4    4    0    0 -0.14419034734E+02  0.19070185917E+02 -0.32682073868E+01  0.24130100146E+02  0.00000000000E+00 0. -1.
</event>
<event>
 8    1  0.7112384E-009  0.8218347E+02  0.7561462E-02  0.1322967E+00
         -1   -1    0    0    0  501 -0.00000000000E+00  0.00000000000E+00  0.30453511680E+02  0.30453511680E+02  0.00000000000E+00 0.  1.
          1   -1    0    0  501    0  0.00000000000E+00 -0.00000000000E+00 -0.44351316940E+03  0.44351316940E+03  0.00000000000E+00 0. -1.
         25    2    1    2    0    0  0.37928186854E+02 -0.42717966821E+01 -0.20353466824E+03  0.24193034213E+03  0.12508850332E+03 0.  0.
         23    2    1    2    0    0 -0.37928186854E+02  0.42717966821E+01 -0.20952498949E+03  0.23203633895E+03  0.92105080049E+02 0.  0.
          5    1    3    3  502    0 -0.10870960598E+02 -0.23344150222E+02  0.52672323271E+01  0.26614719054E+02  0.41800000000E+01 0.  1.
         -5    1    3    3    0  502  0.48799147452E+02  0.19072353540E+02 -0.20880190056E+03  0.21531562307E+03  0.41800000000E+01 0.  1.
        -11    1    4    4    0    0 -0.45035124200E+02 -0.27762738847E+02 -0.64878834419E+02  0.83714964227E+02  0.00000000000E+00 0.  1.
         11    1    4    4    0    0  0.71069373453E+01  0.32034535530E+02 -0.14464615507E+03  0.14832137473E+03  0.00000000000E+00 0. -1.
</event>
<event>
 8    1  0.7112384E-009  0.4059101E+03  0.7561462E-02  0.1041752E+00
         -2   -1    0    0    0  501 -0.00000000000E+00  0.00000000000E+00  0.30214290649E+03  0.30214290649E+03  0.00000000000E+00 0.  1.
          2   -1    0    0  501    0  0.00000000000E+00 -0.00000000000E+00 -0.55723906907E+03  0.55723906907E+03  0.00000000000E+00 0. -1.
         25    2    1    2    0    0 -0.29620926837E+03  0.25772027578E+03 -0.17902695679E+03  0.44928592418E+03  0.12509004433E+03 0.  0.
         23    2    1    2    0    0  0.29620926837E+03 -0.25772027578E+03 -0.76069205782E+02  0.41009605139E+03  0.90733544405E+02 0.  0.
          5    1    3    3  502    0 -0.27315407718E+03  0.27111294052E+03 -0.16368077398E+03  0.41823945841E+03  0.41800000000E+01 0. -1.
         -5    1    3    3    0  502 -0.23055191184E+02 -0.13392664747E+02 -0.15346182807E+02  0.31046465762E+02  0.41800000000E+01 0. -1.
        -11    1    4    4    0    0  0.15422842989E+03 -0.18361985225E+03 -0.70088363780E+02  0.24983001714E+03  0.00000000000E+00 0. -1.
         11    1    4    4    0    0  0.14198083848E+03 -0.74100423527E+02 -0.59808420023E+01  0.16026603425E+03  0.00000000000E+00 0.  1.
</event>
<event>
 8    1  0.7112384E-009  0.1215681E+03  0.7561462E-02  0.1240532E+00
         -2   -1    0    0    0  501 -0.00000000000E+00  0.00000000000E+00  0.40936312151E+02  0.40936312151E+02  0.00000000000E+00 0.  1.
          2   -1    0    0  501    0  0.00000000000E+00 -0.00000000000E+00 -0.39362327682E+03  0.39362327682E+03  0.00000000000E+00 0. -1.
         25    2    1    2    0    0 -0.29362623370E+02  0.53381104775E+02 -0.15705222289E+03  0.20981764957E+03  0.12508532830E+03 0.  0.
         23    2    1    2    0    0  0.29362623370E+02 -0.53381104775E+02 -0.19563474178E+03  0.22474193940E+03  0.92327033629E+02 0.  0.
          5    1    3    3  502    0 -0.19831152946E+02  0.94321126316E+02 -0.10156810911E+03  0.14008319915E+03  0.41800000000E+01 0. -1.
         -5    1    3    3    0  502 -0.95314704239E+01 -0.40940021541E+02 -0.55484113786E+02  0.69734450416E+02  0.41800000000E+01 0. -1.
        -11    1    4    4    0    0  0.27462597380E+02 -0.76470682750E+02 -0.17786205644E+03  0.19554250356E+03  0.00000000000E+00 0. -1.
         11    1    4    4    0    0  0.19000259902E+01  0.23089577974E+02 -0.17772685333E+02  0.29199435846E+02  0.00000000000E+00 0.  1.
</event>
<event>
 8    1  0.7112384E-009  0.1815632E+03  0.7561462E-02  0.1166299E+00
          4   -1    0    0  501    0  0.00000000000E+00  0.00000000000E+00  0.30178196421E+03  0.30178196421E+03  0.00000000000E+00 0.  1.
         -4   -1    0    0    0  501 -0.00000000000E+00 -0.00000000000E+00 -0.11305574356E+03  0.11305574356E+03  0.00000000000E+00 0. -1.
         25    2    1    2    0    0 -0.99913516837E+02 -0.10898753504E+03  0.12590265756E+03  0.23100040781E+03  0.12509482638E+03 0.  0.
         23    2    1    2    0    0  0.99913516837E+02  0.10898753504E+03  0.62823563088E+02  0.18383729997E+03  0.89377621021E+02 0.  0.
          5    1    3    3  502    0 -0.92096375985E+02 -0.11335731961E+02  0.41958700357E+02  0.10192274635E+03  0.41800000000E+01 0. -1.
         -5    1    3    3    0  502 -0.78171408524E+01 -0.97651803078E+02  0.83943957205E+02  0.12907766146E+03  0.41800000000E+01 0. -1.
        -11    1    4    4    0    0 -0.15770930893E+02  0.47549538081E+01  0.17182276284E+01  0.16561526292E+02  0.00000000000E+00 0.  1.
         11    1    4    4    0    0  0.11568444773E+03  0.10423258123E+03  0.61105335459E+02  0.16727577367E+03  0.00000000000E+00 0. -1.
</event>
<event>
 8    1  0.7112384E-009  0.1258673E+03  0.7561462E-02  0.1233720E+00
         -1   -1    0    0    0  501 -0.00000000000E+00  0.00000000000E+00  0.24606641030E+02  0.24606641030E+02  0.00000000000E+00 0.  1.
          1   -1    0    0  501    0  0.00000000000E+00 -0.00000000000E+00 -0.10272995577E+04  0.10272995577E+04  0.00000000000E+00 0. -1.
         25    2    1    2    0    0  0.11563434165E+03  0.43519443169E+01 -0.51270557208E+03  0.54028022311E+03  0.12508187499E+03 0.  0.
         23    2    1    2    0    0 -0.11563434165E+03 -0.43519443169E+01 -0.48998734462E+03  0.51162597565E+03  0.91012640265E+02 0.  0.
          5    1    3    3  502    0  0.58240882160E+02  0.25735669930E+02 -0.44225568958E+03  0.44683541984E+03  0.41800000000E+01 0. -1.
         -5    1    3    3    0  502  0.57393459486E+02 -0.21383725613E+02 -0.70449882508E+02  0.93444803271E+02  0.41800000000E+01 0. -1.
        -11    1    4    4    0    0 -0.98331749826E+02 -0.23113547475E+02 -0.46522739580E+03  0.47606711596E+03  0.00000000000E+00 0. -1.
         11    1    4    4    0    0 -0.17302591820E+02  0.18761603158E+02 -0.24759948821E+02  0.35558859689E+02  0.00000000000E+00 0.  1.
</event>
<event>
 8    1  0.7112384E-009  0.8218057E+02  0.7561462E-02  0.1322975E+00
          1   -1    0    0  501    0  0.00000000000E+00  0.00000000000E+00  0.37833803895E+03  0.37833803895E+03  0.00000000000E+00 0. -1.
         -1   -1    0    0    0  501 -0.00000000000E+00 -0.00000000000E+00 -0.32603097554E+02  0.32603097554E+02  0.00000000000E+00 0.  1.
         25    2    1    2    0    0  0.29083205305E+02  0.12730572443E+02  0.21656570651E+03  0.25210301735E+03  0.12508927139E+03 0.  0.
         23    2    1    2    0    0 -0.29083205305E+02 -0.12730572443E+02  0.12916923489E+03  0.15883811915E+03  0.86815646911E+02 0.  0.
          5    1    3    3  502    0  0.99739984104E+01  0.67144555013E+02  0.14452017162E+03  0.15972296115E+03  0.41800000000E+01 0. -1.
         -5    1    3    3    0  502  0.19109206894E+02 -0.54413982569E+02  0.72045534889E+02  0.92380056206E+02  0.41800000000E+01 0. -1.
        -11    1    4    4    0    0 -0.17935294790E+02 -0.18676412268E+02  0.13989114802E+03  0.14226741183E+03  0.00000000000E+00 0. -1.
         11    1    4    4    0    0 -0.11147910515E+02  0.59458398243E+01 -0.10721913130E+02  0.16570707324E+02  0.00000000000E+00 0.  1.
</event>
<event>
 8    1  0.7112384E-009  0.8682778E+02  0.7561462E-02  0.1310721E+00
         -1   -1    0    0    0  501 -0.00000000000E+00  0.00000000000E+00  0.75587607507E+02  0.75587607507E+02  0.00000000000E+00 0.  1.
          1   -1    0    0  501    0  0.00000000000E+00 -0.00000000000E+00 -0.23993347240E+03  0.23993347240E+03  0.00000000000E+00 0. -1.
         25    2    1    2    0    0 -0.73822985514E+01  0.63370542668E+02 -0.14502929240E+03  0.20186952952E+03  0.12508991679E+03 0.  0.
         23    2    1    2    0    0  0.73822985514E+01 -0.63370542668E+02 -0.19316572485E+02  0.11365155039E+03  0.92050100069E+02 0.  0.
          5    1    3    3  502    0 -0.30848885912E+01  0.82142118816E+02 -0.15808739535E+03  0.17823002326E+03  0.41800000000E+01 0. -1.
         -5    1    3    3    0  502 -0.42974099603E+01 -0.18771576147E+02  0.13058102950E+02  0.23639506257E+02  0.41800000000E+01 0. -1.
        -11    1    4    4    0    0 -0.46852855827E+01 -0.58407899019E+02 -0.52074077528E+02  0.78390969628E+02  0.00000000000E+00 0. -1.
         11    1    4    4    0    0  0.12067584134E+02 -0.49626436497E+01  0.32757505043E+02  0.35260580759E+02  0.00000000000E+00 0.  1.
</event>
<event>
 8    1  0.7112384E-009  0.1038188E+03  0.7561462E-02  0.1272464E+00
          2   -1    0    0  501    0  0.00000000000E+00  0.00000000000E+00  0.44952248736E+03  0.44952248736E+03  0.00000000000E+00 0. -1.
         -2   -1    0    0    0  501 -0.00000000000E+00 -0.00000000000E+00 -0.34056025102E+02  0.34056025102E+02  0.00000000000E+00 0.  1.
         25    2    1    2    0    0  0.22696934390E+02 -0.39109453325E+02  0.15683525690E+03  0.20564623499E+03  0.12509346900E+03 0.  0.
         23    2    1    2    0    0 -0.22696934390E+02  0.39109453325E+02  0.25863120535E+03  0.27793227747E+03  0.91167704301E+02 0.  0.
          5    1    3    3  502    0 -0.24889043272E+02 -0.71115985971E+02  0.91887692399E+02  0.11890234796E+03  0.41800000000E+01 0.  1.
         -5    1    3    3    0  502  0.47585977663E+02  0.32006532646E+02  0.64947564501E+02  0.86743887028E+02  0.41800000000E+01 0.  1.
        -11    1    4    4    0    0  0.14008058733E+02  0.35051681657E+02  0.22448445425E+03  0.22763592927E+03  0.00000000000E+00 0.  1.
         11    1    4    4    0    0 -0.36704993124E+02  0.40577716689E+01  0.34146751106E+02  0.50296348199E+02  0.00000000000E+00 0. -1.
</event>
<event>
 8    1  0.7112384E-009  0.1062068E+03  0.7561462E-02  0.1267760E+00
          2   -1    0    0  501    0  0.00000000000E+00  0.00000000000E+00  0.21010592953E+03  0.21010592953E+03  0.00000000000E+00 0. -1.
         -2   -1    0    0    0  501 -0.00000000000E+00 -0.00000000000E+00 -0.90535990110E+02  0.90535990110E+02  0.00000000000E+00 0.  1.
         25    2    1    2    0    0 -0.87940617654E+01  0.66824312018E+02  0.87290209502E+01  0.14236066598E+03  0.12509012437E+03 0.  0.
         23    2    1    2    0    0  0.87940617654E+01 -0.66824312018E+02  0.11084091847E+03  0.15828125365E+03  0.90688598249E+02 0.  0.
          5    1    3    3  502    0  0.73629895510E+01  0.86930299463E+02  0.44529996535E+02  0.98038174051E+02  0.41800000000E+01 0.  1.
         -5    1    3    3    0  502 -0.16157051316E+02 -0.20105987445E+02 -0.35800975584E+02  0.44322491933E+02  0.41800000000E+01 0.  1.
        -11    1    4    4    0    0  0.21527156644E+02  0.80571785293E+01 -0.10901372031E+01  0.23011410173E+02  0.00000000000E+00 0.  1.
         11    1    4    4    0    0 -0.12733094878E+02 -0.74881490548E+02  0.11193105567E+03  0.13526984348E+03  0.00000000000E+00 0. -1.
</event>
<event>
 8    1  0.7112384E-009  0.1063147E+03  0.7561462E-02  0.1267551E+00
          3   -1    0    0  501    0  0.00000000000E+00  0.00000000000E+00  0.58199938498E+03  0.58199938498E+03  0.00000000000E+00 0. -1.
         -3   -1    0    0    0  501 -0.00000000000E+00 -0.00000000000E+00 -0.29449525289E+02  0.29449525289E+02  0.00000000000E+00 0.  1.
         25    2    1    2    0    0 -0.34700613621E+02 -0.26358345431E+02  0.44302529588E+03  0.46240331482E+03  0.12508604161E+03 0.  0.
         23    2    1    2    0    0  0.34700613621E+02  0.26358345431E+02  0.10952456381E+03  0.14904559546E+03  0.91214387498E+02 0.  0.
          5    1    3    3  502    0  0.39911038516E+02 -0.38760127369E+02  0.21520908726E+03  0.22232332786E+03  0.41800000000E+01 0. -1.
         -5    1    3    3    0  502 -0.74611652137E+02  0.12401781937E+02  0.22781620862E+03  0.24007998696E+03  0.41800000000E+01 0. -1.
        -11    1    4    4    0    0 -0.13483062296E+02  0.29873484934E+02  0.40391656314E+01  0.33023218044E+02  0.00000000000E+00 0.  1.
         11    1    4    4    0    0  0.48183675917E+02 -0.35151395027E+01  0.10548539818E+03  0.11602237741E+03  0.00000000000E+00 0. -1.
</event>
<event>
 8    1  0.7112384E-009  0.1237903E+03  0.7561462E-02  0.1236972E+00
         -1   -1    0    0    0  501 -0.00000000000E+00  0.00000000000E+00  0.86471460089E+02  0.86471460089E+02  0.00000000000E+00 0.  1.
          1   -1    0    0  501    0  0.00000000000E+00 -0.00000000000E+00 -0.23516691070E+03  0.23516691070E+03  0.00000000000E+00 0. -1.
         25    2    1    2    0    0 -0.42564926008E+02  0.58229646646E+02 -0.16057106411E+02  0.14528077472E+03  0.12508480388E+03 0.  0.
         23    2    1    2    0    0  0.42564926008E+02 -0.58229646646E+02 -0.13263834420E+03  0.17635759607E+03  0.91140587359E+02 0.  0.
          5    1    3    3  502    0  0.38399498839E+02  0.46508470609E+02  0.51175793491E+01  0.60673069544E+02  0.41800000000E+01 0.  1.
         -5    1    3    3    0  502 -0.80964424847E+02  0.11721176037E+02 -0.21174685760E+02  0.84607705178E+02  0.41800000000E+01 0.  1.
        -11    1    4    4    0    0  0.40959937905E+02  0.56155865712E+01 -0.17919633297E+02  0.45059567055E+02  0.00000000000E+00 0.  1.
         11    1    4    4    0    0  0.16049881028E+01 -0.63845233217E+02 -0.11471871090E+03  0.13129802901E+03  0.00000000000E+00 0. -1.
</event>
<event>
 8    1  0.7112384E-009  0.8725212E+02  0.7561462E-02  0.1309646E+00
         -2   -1    0    0    0  501 -0.00000000000E+00  0.00000000000E+00  0.42174605179E+02  0.42174605179E+02  0.00000000000E+00 0.  1.
          2   -1    0    0  501    0  0.00000000000E+00 -0.00000000000E+00 -0.39268386316E+03  0.39268386316E+03  0.00000000000E+00 0. -1.
         25    2    1    2    0    0  0.35780404631E+02  0.48174568179E+02 -0.13547177067E+03  0.19390990660E+03  0.12508966726E+03 0.  0.
         23    2    1    2    0    0 -0.35780404631E+02 -0.48174568179E+02 -0.21503748732E+03  0.24094856174E+03  0.90631462954E+02 0.  0.
          5    1    3    3  502    0  0.37952967149E+02  0.26782235630E+02 -0.15664744136E+03  0.16344298439E+03  0.41800000000E+01 0.  1.
         -5    1    3    3    0  502 -0.21725625175E+01  0.21392332548E+02  0.21175670696E+02  0.30466922214E+02  0.41800000000E+01 0.  1.
        -11    1    4    4    0    0 -0.59447671299E+01  0.25652613509E+02 -0.32715086762E+02  0.41996115748E+02  0.00000000000E+00 0. -1.
         11    1    4    4    0    0 -0.29835637501E+02 -0.73827181688E+02 -0.18232240055E+03  0.19895244599E+03  0.00000000000E+00 0.  1.
</event>
<event>
 8    1  0.7112384E-009  0.1762092E+03  0.7561462E-02  0.1171523E+00
         -2   -1    0    0    0  501 -0.00000000000E+00  0.00000000000E+00  0.23099405149E+02  0.23099405149E+02  0.00000000000E+00 0.  1.
          2   -1    0    0  501    0  0.00000000000E+00 -0.00000000000E+00 -0.14743139723E+04  0.14743139723E+04  0.00000000000E+00 0. -1.
         25    2    1    2    0    0  0.14175994247E+03  0.45973638555E+02 -0.76198349951E+03  0.78643251554E+03  0.12509113175E+03 0.  0.
         23    2    1    2    0    0 -0.14175994247E+03 -0.45973638555E+02 -0.68923106761E+03  0.71098086187E+03  0.90801237129E+02 0.  0.
          5    1    3    3  502    0  0.49289047107E+02 -0.40878403196E+02 -0.33023587247E+03  0.33641292763E+03  0.41800000000E+01 0. -1.
         -5    1    3    3    0  502  0.92470895368E+02  0.86852041752E+02 -0.43174762704E+03  0.45001958790E+03  0.41800000000E+01 0. -1.
        -11    1    4    4    0    0 -0.12937794702E+03 -0.59993534287E+02 -0.66628836599E+03  0.68137953006E+03  0.00000000000E+00 0.  1.
         11    1    4    4    0    0 -0.12381995451E+02  0.14019895732E+02 -0.22942701621E+02  0.29601331818E+02  0.00000000000E+00 0. -1.
</event>
<event>
 8    1  0.7112384E-009  0.1424001E+03  0.7561462E-02  0.1210136E+00
         -2   -1    0    0    0  501 -0.00000000000E+00  0.00000000000E+00  0.31340057824E+02  0.31340057824E+02  0.00000000000E+00 0. -1.
          2   -1    0    0  501    0  0.00000000000E+00 -0.00000000000E+00 -0.13695067062E+04  0.13695067062E+04  0.00000000000E+00 0.  1.
         25    2    1    2    0    0  0.10194978061E+03 -0.20882739557E+02 -0.11708408634E+04  0.11820934119E+04  0.12508661183E+03 0.  0.
         23    2    1    2    0    0 -0.10194978061E+03  0.20882739557E+02 -0.16732578504E+03  0.21875335219E+03  0.95001390408E+02 0.  0.
          5    1    3    3  502    0 -0.21053381945E+02 -0.21261118366E+02 -0.43349845135E+03  0.43454995083E+03  0.41800000000E+01 0.  1.
         -5    1    3    3    0  502  0.12300316255E+03  0.37837880850E+00 -0.73734241203E+03  0.74754346105E+03  0.41800000000E+01 0.  1.
        -11    1    4    4    0    0 -0.92378214844E+02  0.47036245482E+02 -0.92574794560E+02  0.13898286065E+03  0.00000000000E+00 0.  1.
         11    1    4    4    0    0 -0.95715657627E+01 -0.26153505925E+02 -0.74750990476E+02  0.79770491540E+02  0.00000000000E+00 0. -1.
</event>
<event>
 8    1  0.7112384E-009  0.9480840E+02  0.7561462E-02  0.1291608E+00
          1   -1    0    0  501    0  0.00000000000E+00  0.00000000000E+00  0.34693295392E+02  0.34693295392E+02  0.00000000000E+00 0. -1.
         -1   -1    0    0    0  501 -0.00000000000E+00 -0.00000000000E+00 -0.45280721417E+03  0.45280721417E+03  0.00000000000E+00 0.  1.
         25    2    1    2    0    0 -0.35191617716E+02  0.45595945944E+02 -0.29522696374E+03  0.32576795607E+03  0.12509340846E+03 0.  0.
         23    2    1    2    0    0  0.35191617716E+02 -0.45595945944E+02 -0.12288695504E+03  0.16173255349E+03  0.87970306897E+02 0.  0.
          5    1    3    3  502    0  0.20317234284E+02 -0.61689770365E+01 -0.76672223254E+00  0.21654250151E+02  0.41800000000E+01 0. -1.
         -5    1    3    3    0  502 -0.55508852000E+02  0.51764922980E+02 -0.29446024150E+03  0.30411370592E+03  0.41800000000E+01 0. -1.
        -11    1    4    4    0    0 -0.21853412198E+02 -0.19262912355E+02 -0.81363759494E+02  0.86421599013E+02  0.00000000000E+00 0.  1.
         11    1    4    4    0    0  0.57045029914E+02 -0.26333033589E+02 -0.41523195547E+02  0.75310954478E+02  0.00000000000E+00 0. -1.
</event>
<event>
 8    1  0.7112384E-009  0.1139231E+03  0.7561462E-02  0.1253473E+00
          2   -1    0    0  501    0  0.00000000000E+00  0.00000000000E+00  0.12462586741E+04  0.12462586741E+04  0.00000000000E+00 0.  1.
         -2   -1    0    0    0  501 -0.00000000000E+00 -0.00000000000E+00 -0.19995933735E+02  0.19995933735E+02  0.00000000000E+00 0. -1.
         25    2    1    2    0    0 -0.15154250681E+02  0.61643056107E+02  0.10391862716E+04  0.10486109205E+04  0.12508891986E+03 0.  0.
         23    2    1    2    0    0  0.15154250681E+02 -0.61643056107E+02  0.18707646873E+03  0.21764368728E+03  0.91332643567E+02 0.  0.
          5    1    3    3  502    0 -0.56685639378E+02  0.51702697283E+02  0.89184743916E+03  0.89515124854E+03  0.41800000000E+01 0.  1.
         -5    1    3    3    0  502  0.41531388697E+02  0.99403588240E+01  0.14733883242E+03  0.15345967196E+03  0.41800000000E+01 0.  1.
        -11    1    4    4    0    0  0.19093970189E+02  0.19249018217E+02  0.71912305315E+02  0.76853653496E+02  0.00000000000E+00 0. -1.
         11    1    4    4    0    0 -0.39397195076E+01 -0.80892074324E+02  0.11516416342E+03  0.14079003379E+03  0.00000000000E+00 0.  1.
</event>
<event>
 8    1  0.7112384E-009  0.1271446E+03  0.7561462E-02  0.1231755E+00
          2   -1    0    0  501    0  0.00000000000E+00  0.00000000000E+00  0.99447753180E+03  0.99447753180E+03  0.00000000000E+00 0.  1.
         -2   -1    0    0    0  501 -0.00000000000E+00 -0.00000000000E+00 -0.46655287163E+02  0.46655287163E+02  0.00000000000E+00 0. -1.
         25    2    1    2    0    0 -0.83168168984E+02  0.60160799966E+02  0.86757807292E+03  0.88254093833E+03  0.12510207445E+03 0.  0.
         23    2    1    2    0    0  0.83168168984E+02 -0.60160799966E+02  0.80244171711E+02  0.15859188063E+03  0.90421188459E+02 0.  0.
          5    1    3    3  502    0 -0.29821257606E+02 -0.17724189829E+02  0.55234875853E+03  0.55345286860E+03  0.41800000000E+01 0. -1.
         -5    1    3    3    0  502 -0.53346911378E+02  0.77884989795E+02  0.31522931439E+03  0.32908806973E+03  0.41800000000E+01 0. -1.
        -11    1    4    4    0    0  0.43906686529E+02 -0.71571380854E+02  0.82407258028E+02  0.11764869678E+03  0.00000000000E+00 0. -1.
         11    1    4    4    0    0  0.39261482455E+02  0.11410580888E+02 -0.21630863164E+01  0.40943183843E+02  0.00000000000E+00 0.  1.
</event>
<event>
 8    1  0.7112384E-009  0.1208516E+03  0.7561462E-02  0.1241699E+00
         -2   -1    0    0    0  501 -0.00000000000E+00  0.00000000000E+00  0.29613265104E+02  0.29613265104E+02  0.00000000000E+00 0.  1.
          2   -1    0    0  501    0  0.00000000000E+00 -0.00000000000E+00 -0.78885495836E+03  0.78885495836E+03  0.00000000000E+00 0. -1.
         25    2    1    2    0    0 -0.93636839499E+02 -0.52760713734E+02 -0.42720736831E+03  0.45793592743E+03  0.12509047715E+03 0.  0.
         23    2    1    2    0    0  0.93636839499E+02  0.52760713734E+02 -0.33203432495E+03  0.36053229604E+03  0.90472055979E+02 0.  0.
          5    1    3    3  502    0 -0.90949538343E+02 -0.14086271042E+02 -0.13684708743E+03  0.16496920711E+03  0.41800000000E+01 0. -1.
         -5    1    3    3    0  502 -0.26873011556E+01 -0.38674442692E+02 -0.29036028088E+03  0.29296672032E+03  0.41800000000E+01 0. -1.
        -11    1    4    4    0    0  0.45617041138E+02  0.10955152845E+02 -0.26082551006E+03  0.26501108753E+03  0.00000000000E+00 0.  1.
         11    1    4    4    0    0  0.48019798361E+02  0.41805560889E+02 -0.71208814893E+02  0.95521208505E+02  0.00000000000E+00 0. -1.
</event>
<event>
 8    1  0.7112384E-009  0.8214524E+02  0.7561462E-02  0.1323071E+00
          2   -1    0    0  501    0  0.00000000000E+00  0.00000000000E+00  0.93142373970E+03  0.93142373970E+03  0.00000000000E+00 0.  1.
         -2   -1    0    0    0  501 -0.00000000000E+00 -0.00000000000E+00 -0.15911639651E+02  0.15911639651E+02  0.00000000000E+00 0. -1.
         25    2    1    2    0    0 -0.33633695312E+02 -0.22812096671E+02  0.66155237808E+03  0.67450034407E+03  0.12509015944E+03 0.  0.
         23    2    1    2    0    0  0.33633695312E+02  0.22812096671E+02  0.25395972196E+03  0.27283503528E+03  0.91059315180E+02 0.  0.
          5    1    3    3  502    0  0.12002917282E+02  0.91232844819E+01  0.62914296350E+01  0.16862942504E+02  0.41800000000E+01 0.  1.
         -5    1    3    3    0  502 -0.45636612594E+02 -0.31935381153E+02  0.65526094845E+03  0.65763740156E+03  0.41800000000E+01 0.  1.
        -11    1    4    4    0    0 -0.25921750839E+02  0.20737720480E+02  0.47521981598E+02  0.57968344398E+02  0.00000000000E+00 0. -1.
         11    1    4    4    0    0  0.59555446151E+02  0.20743761909E+01  0.20643774037E+03  0.21486669088E+03  0.00000000000E+00 0.  1.
</event>
<event>
 8    1  0.7112384E-009  0.1744029E+03  0.7561462E-02  0.1173333E+00
         -1   -1    0    0    0  501 -0.00000000000E+00  0.00000000000E+00  0.46637792502E+02  0.46637792502E+02  0.00000000000E+00 0.  1.
          1   -1    0    0  501    0  0.00000000000E+00 -0.00000000000E+00 -0.92066260939E+03  0.92066260939E+03  0.00000000000E+00 0. -1.
         25    2    1    2    0    0  0.13630760639E+03 -0.97812251706E+02 -0.33200414266E+03  0.39245487132E+03  0.12508826939E+03 0.  0.
         23    2    1    2    0    0 -0.13630760639E+03  0.97812251706E+02 -0.54202067423E+03  0.57484553057E+03  0.92271190415E+02 0.  0.
          5    1    3    3  502    0  0.12377989911E+03 -0.53709097273E+02 -0.31614720882E+03  0.34376250610E+03  0.41800000000E+01 0. -1.
         -5    1    3    3    0  502  0.12527707275E+02 -0.44103154433E+02 -0.15856933839E+02  0.48692365226E+02  0.41800000000E+01 0. -1.
        -11    1    4    4    0    0 -0.74474467592E+02  0.52901556510E+02 -0.15144267894E+03  0.17686126204E+03  0.00000000000E+00 0.  1.
         11    1    4    4    0    0 -0.61833138793E+02  0.44910695196E+02 -0.39057799529E+03  0.39798426853E+03  0.00000000000E+00 0. -1.
</event>
<event>
 8    1  0.7112384E-009  0.1102187E+03  0.7561462E-02  0.1260165E+00
          2   -1    0    0  501    0  0.00000000000E+00  0.00000000000E+00  0.83539850992E+02  0.83539850992E+02  0.00000000000E+00 0. -1.
         -2   -1    0    0    0  501 -0.00000000000E+00 -0.00000000000E+00 -0.15097661860E+03  0.15097661860E+03  0.00000000000E+00 0.  1.
         25    2    1    2    0    0 -0.28464480602E+02  0.72550870441E+00 -0.29836432158E+02  0.13171057763E+03  0.12508681208E+03 0.  0.
         23    2    1    2    0    0  0.28464480602E+02 -0.72550870441E+00 -0.37600335448E+02  0.10280589196E+03  0.91348306922E+02 0.  0.
          5    1    3    3  502    0 -0.72399924975E+02  0.26206106813E+02 -0.14221679928E+02  0.78410699210E+02  0.41800000000E+01 0. -1.
         -5    1    3    3    0  502  0.43935444372E+02 -0.25480598108E+02 -0.15614752230E+02  0.53299878418E+02  0.41800000000E+01 0. -1.
        -11    1    4    4    0    0 -0.25793806890E+02 -0.22181173716E+02 -0.27162767307E+02  0.43533215699E+02  0.00000000000E+00 0.  1.
         11    1    4    4    0    0  0.54258287493E+02  0.21455665012E+02 -0.10437568141E+02  0.59272676263E+02  0.00000000000E+00 0. -1.
</event>
<event>
 8    1  0.7112384E-009  0.6849676E+02  0.7561462E-02  0.1365281E+00
          1   -1    0    0  501    0  0.00000000000E+00  0.00000000000E+00  0.42021835038E+03  0.42021835038E+03  0.00000000000E+00 0. -1.
         -1   -1    0    0    0  501 -0.00000000000E+00 -0.00000000000E+00 -0.29786172895E+02  0.29786172895E+02  0.00000000000E+00 0.  1.
         25    2    1    2    0    0 -0.62276766005E+01 -0.28884848354E+02  0.24110636422E+03  0.27322655855E+03  0.12508938808E+03 0.  0.
         23    2    1    2    0    0  0.62276766005E+01  0.28884848354E+02  0.14932581326E+03  0.17677796472E+03  0.89883991254E+02 0.  0.
          5    1    3    3  502    0  0.17701960279E+02 -0.83213992525E+01 -0.84031072044E+01  0.21695384161E+02  0.41800000000E+01 0. -1.
         -5    1    3    3    0  502 -0.23929636879E+02 -0.20563449102E+02  0.24950947143E+03  0.25153117439E+03  0.41800000000E+01 0. -1.
        -11    1    4    4    0    0  0.13568659752E+02 -0.26246674951E+02  0.19126771819E+02  0.35197015124E+02  0.00000000000E+00 0.  1.
         11    1    4    4    0    0 -0.73409831517E+01  0.55131523305E+02  0.13019904145E+03  0.14158094960E+03  0.00000000000E+00 0. -1.
</event>
<event>
 8    1  0.7112384E-009  0.1546645E+03  0.7561462E-02  0.1194856E+00
          2   -1    0    0  501    0  0.00000000000E+00  0.00000000000E+00  0.58956226894E+03  0.58956226894E+03  0.00000000000E+00 0.  1.
         -2   -1    0    0    0  501 -0.00000000000E+00 -0.00000000000E+00 -0.49464376101E+02  0.49464376101E+02  0.00000000000E+00 0. -1.
         25    2    1    2    0    0  0.12429968329E+02  0.13086209835E+03  0.26928030177E+03  0.32471342001E+03  0.12509009280E+03 0.  0.
         23    2    1    2    0    0 -0.12429968329E+02 -0.13086209835E+03  0.27081759107E+03  0.31431322503E+03  0.90394927400E+02 0.  0.
          5    1    3    3  502    0 -0.32294714498E+00  0.15235115203E+03  0.25032515946E+03  0.29307189506E+03  0.41800000000E+01 0.  1.
         -5    1    3    3    0  502  0.12752915474E+02 -0.21489053677E+02  0.18955142314E+02  0.31641524950E+02  0.41800000000E+01 0.  1.
        -11    1    4    4    0    0 -0.57994562347E+01 -0.90126060940E+02  0.85186685813E+02  0.12414955494E+03  0.00000000000E+00 0. -1.
         11    1    4    4    0    0 -0.66305120941E+01 -0.40736037409E+02  0.18563090525E+03  0.19016367008E+03  0.00000000000E+00 0.  1.
</event>
<event>
 8    1  0.7112384E-009  0.1122852E+03  0.7561462E-02  0.1256396E+00
          1   -1    0    0  501    0  0.00000000000E+00  0.00000000000E+00  0.14536510749E+04  0.14536510749E+04  0.00000000000E+00 0. -1.
         -1   -1    0    0    0  501 -0.00000000000E+00 -0.00000000000E+00 -0.13872621450E+02  0.13872621450E+02  0.00000000000E+00 0.  1.
         25    2    1    2    0    0  0.31475701493E+02  0.47033787256E+02  0.11538952357E+04  0.11620345523E+04  0.12508872444E+03 0.  0.
         23    2    1    2    0    0 -0.31475701493E+02 -0.47033787256E+02  0.28588321781E+03  0.30548914405E+03  0.91605163491E+02 0.  0.
          5    1    3    3  502    0 -0.25243179399E+02 -0.28756010571E+02  0.21972971027E+03  0.22307564687E+03  0.41800000000E+01 0.  1.
         -5    1    3    3    0  502  0.56718880892E+02  0.75789797827E+02  0.93416552540E+03  0.93895890546E+03  0.41800000000E+01 0.  1.
        -11    1    4    4    0    0  0.23181489380E+02 -0.18548321208E+02  0.29693403101E+02  0.41989520802E+02  0.00000000000E+00 0.  1.
         11    1    4    4    0    0 -0.54657190874E+02 -0.28485466049E+02  0.25618981471E+03  0.26349962325E+03  0.00000000000E+00 0. -1.
</event>
<event>
 8    1  0.7112384E-009  0.1244483E+03  0.7561462E-02  0.1235934E+00
         -3   -1    0    0    0  501 -0.00000000000E+00  0.00000000000E+00  0.49738540661E+02  0.49738540661E+02  0.00000000000E+00 0.  1.
          3   -1    0    0  501    0  0.00000000000E+00 -0.00000000000E+00 -0.39723102683E+03  0.39723102683E+03  0.00000000000E+00 0. -1.
         25    2    1    2    0    0 -0.23841417150E+02  0.74712509142E+02 -0.12268557769E+03  0.19195690153E+03  0.12508128908E+03 0.  0.
         23    2    1    2    0    0  0.23841417150E+02 -0.74712509142E+02 -0.22480690848E+03  0.25501266596E+03  0.91339703885E+02 0.  0.
          5    1    3    3  502    0 -0.71870558041E+02  0.36014249436E+02 -0.43507260036E+02  0.91502772370E+02  0.41800000000E+01 0. -1.
         -5    1    3    3    0  502  0.48029140891E+02  0.38698259706E+02 -0.79178317656E+02  0.10045412916E+03  0.41800000000E+01 0. -1.
        -11    1    4    4    0    0  0.74289249325E+01 -0.86215991064E+02 -0.21679596127E+03  0.23342852196E+03  0.00000000000E+00 0. -1.
         11    1    4    4    0    0  0.16412492218E+02  0.11503481922E+02 -0.80109472112E+01  0.21584144003E+02  0.00000000000E+00 0.  1.
</event>
<event>
 8    1  0.7112384E-009  0.9974985E+02  0.7561462E-02  0.1280823E+00
          2   -1    0    0  501    0  0.00000000000E+00  0.00000000000E+00  0.15006678432E+03  0.15006678432E+03  0.00000000000E+00 0. -1.
         -2   -1    0    0    0  501 -0.00000000000E+00 -0.00000000000E+00 -0.90822431913E+02  0.90822431913E+02  0.00000000000E+00 0.  1.
         25    2    1    2    0    0  0.19022973838E+02 -0.31564778288E+02  0.11538214143E+02  0.13091824408E+03  0.12509295538E+03 0.  0.
         23    2    1    2    0    0 -0.19022973838E+02  0.31564778288E+02  0.47706138263E+02  0.10997097215E+03  0.91975705084E+02 0.  0.
          5    1    3    3  502    0 -0.37432958460E+02 -0.38741080515E+02 -0.28616024806E+02  0.61142840744E+02  0.41800000000E+01 0.  1.
         -5    1    3    3    0  502  0.56455932298E+02  0.71763022262E+01  0.40154238949E+02  0.69775403337E+02  0.41800000000E+01 0.  1.
        -11    1    4    4    0    0 -0.49473565358E+02  0.84886744680E+01  0.51079553042E+02  0.71615724547E+02  0.00000000000E+00 0. -1.
         11    1    4    4    0    0  0.30450591520E+02  0.23076103821E+02 -0.33734147789E+01  0.38355247603E+02  0.00000000000E+00 0.  1.
</event>
<event>
 8    1  0.7112384E-009  0.1261016E+03  0.7561462E-02  0.1233358E+00
         -2   -1    0    0    0  501 -0.00000000000E+00  0.00000000000E+00  0.25597094566E+03  0.25597094566E+03  0.00000000000E+00 0. -1.
          2   -1    0    0  501    0  0.00000000000E+00 -0.00000000000E+00 -0.78151810728E+02  0.78151810728E+02  0.00000000000E+00 0.  1.
         25    2    1    2    0    0  0.87685068192E+02  0.18468880545E+02  0.92776754864E+02  0.17968120191E+03  0.12509211544E+03 0.  0.
         23    2    1    2    0    0 -0.87685068192E+02 -0.18468880545E+02  0.85042380064E+02  0.15444155447E+03  0.92683421433E+02 0.  0.
          5    1    3    3  502    0  0.61563589858E+02  0.54775859720E+02  0.10460329521E+03  0.13322834598E+03  0.41800000000E+01 0.  1.
         -5    1    3    3    0  502  0.26121478335E+02 -0.36306979175E+02 -0.11826540349E+02  0.46452855927E+02  0.41800000000E+01 0.  1.
        -11    1    4    4    0    0 -0.12246541458E+01 -0.36441589804E+02  0.81813370585E+01  0.37368750598E+02  0.00000000000E+00 0. -1.
         11    1    4    4    0    0 -0.86460414046E+02  0.17972709259E+02  0.76861043005E+02  0.11707280387E+03  0.00000000000E+00 0.  1.
</event>
<event>
 8    1  0.7112384E-009  0.9863809E+02  0.7561462E-02  0.1283186E+00
          2   -1    0    0  501    0  0.00000000000E+00  0.00000000000E+00  0.51165964516E+03  0.51165964516E+03  0.00000000000E+00 0. -1.
         -2   -1    0    0    0  501 -0.00000000000E+00 -0.00000000000E+00 -0.26843107004E+02  0.26843107004E+02  0.00000000000E+00 0.  1.
         25    2    1    2    0    0  0.24929996996E+02 -0.28366551765E+02  0.23990809884E+03  0.27318399487E+03  0.12508970043E+03 0.  0.
         23    2    1    2    0    0 -0.24929996996E+02  0.28366551765E+02  0.24490843932E+03  0.26531875730E+03  0.94803656665E+02 0.  0.
          5    1    3    3  502    0 -0.29491400508E+02  0.33002356920E+02  0.54021262339E+02  0.69961899995E+02  0.41800000000E+01 0. -1.
         -5    1    3    3    0  502  0.54421397504E+02 -0.61368908685E+02  0.18588683651E+03  0.20322209487E+03  0.41800000000E+01 0. -1.
        -11    1    4    4    0    0 -0.32825606397E+02 -0.77437003568E+01  0.24135763130E+02  0.41473128558E+02  0.00000000000E+00 0.  1.
         11    1    4    4    0    0  0.78956094004E+01  0.36110252122E+02  0.22077267618E+03  0.22384562874E+03  0.00000000000E+00 0. -1.
</event>
<event>
 8    1  0.7112384E-009  0.8798010E+02  0.7561462E-02  0.1307818E+00
          2   -1    0    0  501    0  0.00000000000E+00  0.00000000000E+00  0.33176614463E+03  0.33176614463E+03  0.00000000000E+00 0.  1.
         -2   -1    0    0    0  501 -0.00000000000E+00 -0.00000000000E+00 -0.46976897903E+02  0.46976897903E+02  0.00000000000E+00 0. -1.
         25    2    1    2    0    0  0.13071434275E+02  0.18223481511E+02  0.24766523557E+03  0.27836851652E+03  0.12509198379E+03 0.  0.
         23    2    1    2    0    0 -0.13071434275E+02 -0.18223481511E+02  0.37124011162E+02  0.10037452602E+03  0.90520139172E+02 0.  0.
          5    1    3    3  502    0  0.28479886645E+02  0.55448058867E+02  0.22151533130E+03  0.23015669788E+03  0.41800000000E+01 0.  1.
         -5    1    3    3    0  502 -0.15408452371E+02 -0.37224577356E+02  0.26149904264E+02  0.48211818643E+02  0.41800000000E+01 0.  1.
        -11    1    4    4    0    0  0.23231391849E+02 -0.27014497438E+02  0.49531911665E+02  0.61015497312E+02  0.00000000000E+00 0.  1.
         11    1    4    4    0    0 -0.36302826124E+02  0.87910159264E+01 -0.12407900502E+02  0.39359028704E+02  0.00000000000E+00 0. -1.
</event>
<event>
 8    1  0.7112384E-009  0.8301917E+02  0.7561462E-02  0.1320695E+00
          2   -1    0    0  501    0  0.00000000000E+00  0.00000000000E+00  0.12870003991E+04  0.12870003991E+04  0.00000000000E+00 0. -1.
         -2   -1    0    0    0  501 -0.00000000000E+00 -0.00000000000E+00 -0.12240408537E+02  0.12240408537E+02  0.00000000000E+00 0.  1.
         25    2    1    2    0    0  0.54067755324E+02  0.36069586241E+02  0.85374505441E+03  0.86530511277E+03  0.12509189834E+03 0.  0.
         23    2    1    2    0    0 -0.54067755324E+02 -0.36069586241E+02  0.42101493616E+03  0.43393569488E+03  0.82597055664E+02 0.  0.
          5    1    3    3  502    0  0.48355117953E+02  0.30676372725E+02  0.85445110400E+03  0.85637808169E+03  0.41800000000E+01 0. -1.
         -5    1    3    3    0  502  0.57126373705E+01  0.53932135159E+01 -0.70604958924E+00  0.89270310729E+01  0.41800000000E+01 0. -1.
        -11    1    4    4    0    0  0.88017430676E+01  0.15886800470E+02  0.35369698801E+02  0.39760240234E+02  0.00000000000E+00 0.  1.
         11    1    4    4    0    0 -0.62869498391E+02 -0.51956386711E+02  0.38564523736E+03  0.39417545465E+03  0.00000000000E+00 0. -1.
</event>
<event>
 8    1  0.7112384E-009  0.1038637E+03  0.7561462E-02  0.1272375E+00
          2   -1    0    0  501    0  0.00000000000E+00  0.00000000000E+00  0.23401216199E+03  0.23401216199E+03  0.00000000000E+00 0. -1.
         -2   -1    0    0    0  501 -0.00000000000E+00 -0.00000000000E+00 -0.64447759010E+02  0.64447759010E+02  0.00000000000E+00 0.  1.
         25    2    1    2    0    0  0.52786052368E+02 -0.20023665194E+02  0.85298948513E+02  0.16158815650E+03  0.12508999644E+03 0.  0.
         23    2    1    2    0    0 -0.52786052368E+02  0.20023665194E+02  0.84265454469E+02  0.13687176451E+03  0.91901570226E+02 0.  0.
          5    1    3    3  502    0 -0.48735278857E+01 -0.38685319027E+02 -0.16897119096E+02  0.42700002530E+02  0.41800000000E+01 0.  1.
         -5    1    3    3    0  502  0.57659580253E+02  0.18661653833E+02  0.10219606761E+03  0.11888815397E+03  0.41800000000E+01 0.  1.
        -11    1    4    4    0    0  0.82196175677E+01  0.42094333069E+02  0.30774051866E+02  0.52787661984E+02  0.00000000000E+00 0. -1.
         11    1    4    4    0    0 -0.61005669935E+02 -0.22070667875E+02  0.53491402603E+02  0.84084102523E+02  0.00000000000E+00 0.  1.
</event>
<event>
 8    1  0.7112384E-009  0.2041745E+03  0.7561462E-02  0.1146264E+00
          1   -1    0    0  501    0  0.00000000000E+00  0.00000000000E+00  0.75754707838E+03  0.75754707838E+03  0.00000000000E+00 0. -1.
         -1   -1    0    0    0  501 -0.00000000000E+00 -0.00000000000E+00 -0.68947381366E+02  0.68947381366E+02  0.00000000000E+00 0.  1.
         25    2    1    2    0    0 -0.10899211468E+03 -0.15418335939E+03  0.48073716710E+03  0.53142024998E+03  0.12508984324E+03 0.  0.
         23    2    1    2    0    0  0.10899211468E+03  0.15418335939E+03  0.20786252992E+03  0.29507420977E+03  0.90609980431E+02 0.  0.
          5    1    3    3  502    0 -0.47622822609E+02 -0.12182233186E+03  0.41722620837E+03  0.43726856178E+03  0.41800000000E+01 0. -1.
         -5    1    3    3    0  502 -0.61369292067E+02 -0.32361027527E+02  0.63510958731E+02  0.94151688196E+02  0.41800000000E+01 0. -1.
        -11    1    4    4    0    0  0.80624676427E+02  0.39392519417E+02  0.72682559262E+02  0.11547667927E+03  0.00000000000E+00 0. -1.
         11    1    4    4    0    0  0.28367438249E+02  0.11479083997E+03  0.13517997066E+03  0.17959753050E+03  0.00000000000E+00 0.  1.
</event>
<event>
 8    1  0.7112384E-009  0.9168805E+02  0.7561462E-02  0.1298815E+00
          1   -1    0    0  501    0  0.00000000000E+00  0.00000000000E+00  0.76522916889E+02  0.76522916889E+02  0.00000000000E+00 0. -1.
         -1   -1    0    0    0  501 -0.00000000000E+00 -0.00000000000E+00 -0.21907941774E+03  0.21907941774E+03  0.00000000000E+00 0.  1.
         25    2    1    2    0    0 -0.78033068020E+01 -0.67543128033E+02 -0.57470499156E+02  0.15353275215E+03  0.12508589835E+03 0.  0.
         23    2    1    2    0    0  0.78033068020E+01  0.67543128033E+02 -0.85086001693E+02  0.14206958248E+03  0.91220462839E+02 0.  0.
          5    1    3    3  502    0  0.65487429769E+01 -0.35800112027E+02  0.37417926582E+02  0.52365138073E+02  0.41800000000E+01 0.  1.
         -5    1    3    3    0  502 -0.14352049779E+02 -0.31743016006E+02 -0.94888425738E+02  0.10116761407E+03  0.41800000000E+01 0.  1.
        -11    1    4    4    0    0 -0.39279902099E+02  0.17676777363E+02 -0.19892256808E+02  0.47445558778E+02  0.00000000000E+00 0. -1.
         11    1    4    4    0    0  0.47083208901E+02  0.49866350670E+02 -0.65193744885E+02  0.94624023702E+02  0.00000000000E+00 0.  1.
</event>
<event>
 8    1  0.7112384E-009  0.1755020E+03  0.7561462E-02  0.1172229E+00
         -2   -1    0    0    0  501 -0.00000000000E+00  0.00000000000E+00  0.10964830744E+03  0.10964830744E+03  0.00000000000E+00 0.  1.
          2   -1    0    0  501    0  0.00000000000E+00 -0.00000000000E+00 -0.33324954325E+03  0.33324954325E+03  0.00000000000E+00 0. -1.
         25    2    1    2    0    0 -0.11382869411E+03  0.10287105869E+03 -0.78921139980E+02  0.21311011023E+03  0.12509175203E+03 0.  0.
         23    2    1    2    0    0  0.11382869411E+03 -0.10287105869E+03 -0.14468009582E+03  0.22978774047E+03  0.91272390257E+02 0.  0.
          5    1    3    3  502    0 -0.12006559559E+03  0.12549589854E+03 -0.73642219262E+02  0.18869450615E+03  0.41800000000E+01 0. -1.
         -5    1    3    3    0  502  0.62369014854E+01 -0.22624839847E+02 -0.52789207186E+01  0.24415604072E+02  0.41800000000E+01 0. -1.
        -11    1    4    4    0    0  0.88224523197E+02 -0.80681056681E+02 -0.50650681367E+02  0.12984025155E+03  0.00000000000E+00 0.  1.
         11    1    4    4    0    0  0.25604170910E+02 -0.22190002010E+02 -0.94029414456E+02  0.99947488914E+02  0.00000000000E+00 0. -1.
</event>
<event>
 8    1  0.7112384E-009  0.8070428E+02  0.7561462E-02  0.1327065E+00
         -2   -1    0    0    0  501 -0.00000000000E+00  0.00000000000E+00  0.14127747194E+03  0.14127747194E+03  0.00000000000E+00 0.  1.
          2   -1    0    0  501    0  0.00000000000E+00 -0.00000000000E+00 -0.97496388185E+02  0.97496388185E+02  0.00000000000E+00 0. -1.
         25    2    1    2    0    0  0.22194797416E+01  0.39532251584E+01  0.68727045532E+02  0.14279864111E+03  0.12508993179E+03 0.  0.
         23    2    1    2    0    0 -0.22194797416E+01 -0.39532251584E+01 -0.24945961782E+02  0.95975219012E+02  0.92565585267E+02 0.  0.
          5    1    3    3  502    0  0.11934847638E+02  0.34684587231E+02  0.94412460183E+02  0.10137379453E+03  0.41800000000E+01 0.  1.
         -5    1    3    3    0  502 -0.97153678963E+01 -0.30731362073E+02 -0.25685414651E+02  0.41424846578E+02  0.41800000000E+01 0.  1.
        -11    1    4    4    0    0  0.69091608569E+01 -0.47244452880E+02 -0.18766255161E+02  0.51302506415E+02  0.00000000000E+00 0. -1.
         11    1    4    4    0    0 -0.91286405985E+01  0.43291227722E+02 -0.61797066214E+01  0.44672712597E+02  0.00000000000E+00 0.  1.
</event>
<event>
 8    1  0.7112384E-009  0.1872770E+03  0.7561462E-02  0.1160940E+00
         -1   -1    0    0    0  501 -0.00000000000E+00  0.00000000000E+00  0.35182190017E+03  0.35182190017E+03  0.00000000000E+00 0.  1.
          1   -1    0    0  501    0  0.00000000000E+00 -0.00000000000E+00 -0.10725148151E+03  0.10725148151E+03  0.00000000000E+00 0. -1.
         25    2    1    2    0    0 -0.14043371612E+03  0.65315545807E+02  0.17856772089E+03  0.26743517780E+03  0.12508954487E+03 0.  0.
         23    2    1    2    0    0  0.14043371612E+03 -0.65315545807E+02  0.66002697772E+02  0.19163820389E+03  0.91548325648E+02 0.  0.
          5    1    3    3  502    0 -0.23021725302E+02 -0.34473714231E+02  0.19737576205E+02  0.46102940505E+02  0.41800000000E+01 0. -1.
         -5    1    3    3    0  502 -0.11741199082E+03  0.99789260038E+02  0.15883014468E+03  0.22133223729E+03  0.41800000000E+01 0. -1.
        -11    1    4    4    0    0  0.92389569947E+02  0.61903043785E+01  0.23275683496E+02  0.95477274497E+02  0.00000000000E+00 0. -1.
         11    1    4    4    0    0  0.48044146171E+02 -0.71505850185E+02  0.42727014276E+02  0.96160929389E+02  0.00000000000E+00 0.  1.
</event>
<event>
 8    1  0.7112384E-009  0.8701206E+02  0.7561462E-02  0.1310253E+00
         -2   -1    0    0    0  501 -0.00000000000E+00  0.00000000000E+00  0.37423477345E+03  0.37423477345E+03  0.00000000000E+00 0.  1.
          2   -1    0    0  501    0  0.00000000000E+00 -0.00000000000E+00 -0.36192127650E+02  0.36192127650E+02  0.00000000000E+00 0. -1.
         25    2    1    2    0    0 -0.19792075013E+02 -0.39076314451E+02  0.17922934005E+03  0.22290933703E+03  0.12508689626E+03 0.  0.
         23    2    1    2    0    0  0.19792075013E+02  0.39076314451E+02  0.15881330575E+03  0.18751756407E+03  0.89568332392E+02 0.  0.
          5    1    3    3  502    0 -0.31161459524E+02  0.11393514204E+02  0.16601605886E+03  0.16935068032E+03  0.41800000000E+01 0.  1.
         -5    1    3    3    0  502  0.11369384511E+02 -0.50469828655E+02  0.13213281191E+02  0.53558656709E+02  0.41800000000E+01 0.  1.
        -11    1    4    4    0    0 -0.26477879692E+02  0.32538081678E+02  0.33213415938E+02  0.53506409621E+02  0.00000000000E+00 0. -1.
         11    1    4    4    0    0  0.46269954705E+02  0.65382327733E+01  0.12559988981E+03  0.13401115445E+03  0.00000000000E+00 0.  1.
</event>
<event>
 8    1  0.7112384E-009  0.1575459E+03  0.7561462E-02  0.1191496E+00
         -1   -1    0    0    0  501 -0.00000000000E+00  0.00000000000E+00  0.90140153256E+02  0.90140153256E+02  0.00000000000E+00 0.  1.
          1   -1    0    0  501    0  0.00000000000E+00 -0.00000000000E+00 -0.35805962594E+03  0.35805962594E+03  0.00000000000E+00 0. -1.
         25    2    1    2    0    0  0.14070559710E+03 -0.15466817432E+02 -0.11441396056E+03  0.22084936589E+03  0.12508637235E+03 0.  0.
         23    2    1    2    0    0 -0.14070559710E+03  0.15466817432E+02 -0.15350551212E+03  0.22735041330E+03  0.89927641370E+02 0.  0.
          5    1    3    3  502    0  0.15342156305E+01  0.21107191489E+02  0.15798599091E+02  0.26738277494E+02  0.41800000000E+01 0.  1.
         -5    1    3    3    0  502  0.13917138147E+03 -0.36574008921E+02 -0.13021255966E+03  0.19411108840E+03  0.41800000000E+01 0.  1.
        -11    1    4    4    0    0 -0.39142303332E+02 -0.17369322447E+02 -0.31223561597E+01  0.42936725311E+02  0.00000000000E+00 0.  1.
         11    1    4    4    0    0 -0.10156329376E+03  0.32836139879E+02 -0.15038315596E+03  0.18441368799E+03  0.00000000000E+00 0. -1.
</event>
<event>
 8    1  0.7112384E-009  0.1636266E+03  0.7561462E-02  0.1184662E+00
         -2   -1    0    0    0  501 -0.00000000000E+00  0.00000000000E+00  0.53289509875E+02  0.53289509875E+02  0.00000000000E+00 0.  1.
          2   -1    0    0  501    0  0.00000000000E+00 -0.00000000000E+00 -0.63859836556E+03  0.63859836556E+03  0.00000000000E+00 0. -1.
         25    2    1    2    0    0 -0.81491493172E+02 -0.93769665202E+02 -0.15435130261E+03  0.23431774075E+03  0.12508743119E+03 0.  0.
         23    2    1    2    0    0  0.81491493172E+02  0.93769665202E+02 -0.43095755308E+03  0.45757013469E+03  0.90622304265E+02 0.  0.
          5    1    3    3  502    0  0.32123500430E+02 -0.20251597185E+02 -0.52330434064E+02  0.64791922319E+02  0.41800000000E+01 0. -1.
         -5    1    3    3    0  502 -0.11361499360E+03 -0.73518068017E+02 -0.10202086854E+03  0.16952581843E+03  0.41800000000E+01 0. -1.
        -11    1    4    4    0    0  0.99578000649E+01  0.80241230944E+02 -0.21795555559E+03  0.23247029302E+03  0.00000000000E+00 0. -1.
         11    1    4    4    0    0  0.71533693107E+02  0.13528434258E+02 -0.21300199749E+03  0.22509984167E+03  0.00000000000E+00 0.  1.
</event>
<event>
 8    1  0.7112384E-009  0.2407238E+03  0.7561462E-02  0.1119312E+00
         -1   -1    0    0    0  501 -0.00000000000E+00  0.00000000000E+00  0.31999356506E+03  0.31999356506E+03  0.00000000000E+00 0.  1.
          1   -1    0    0  501    0  0.00000000000E+00 -0.00000000000E+00 -0.22057084359E+03  0.22057084359E+03  0.00000000000E+00 0. -1.
         25    2    1    2    0    0  0.21361280380E+03  0.62119255253E+02 -0.46050176195E+02  0.25934405023E+03  0.12509790502E+03 0.  0.
         23    2    1    2    0    0 -0.21361280380E+03 -0.62119255253E+02  0.14547289766E+03  0.28122035842E+03  0.91832969132E+02 0.  0.
          5    1    3    3  502    0  0.17524349619E+03  0.82559466358E+01  0.52136815565E+01  0.17556508334E+03  0.41800000000E+01 0.  1.
         -5    1    3    3    0  502  0.38369307607E+02  0.53863308617E+02 -0.51263857751E+02  0.83778966889E+02  0.41800000000E+01 0.  1.
        -11    1    4    4    0    0 -0.10474545992E+03 -0.76743614723E+02  0.66157126508E+02  0.14573249179E+03  0.00000000000E+00 0.  1.
         11    1    4    4    0    0 -0.10886734388E+03  0.14624359470E+02  0.79315771148E+02  0.13548786664E+03  0.00000000000E+00 0. -1.
</event>
<event>
 8    1  0.7112384E-009  0.8577366E+02  0.7561462E-02  0.1313422E+00
         -1   -1    0    0    0  501 -0.00000000000E+00  0.00000000000E+00  0.22747371886E+03  0.22747371886E+03  0.00000000000E+00 0.  1.
          1   -1    0    0  501    0  0.00000000000E+00 -0.00000000000E+00 -0.69426866534E+02  0.69426866534E+02  0.00000000000E+00 0. -1.
         25    2    1    2    0    0  0.62580906012E+02  0.11712291703E+01  0.10716076617E+03  0.17620782115E+03  0.12509206551E+03 0.  0.
         23    2    1    2    0    0 -0.62580906012E+02 -0.11712291703E+01  0.50886086153E+02  0.12069276424E+03  0.89775319552E+02 0.  0.
          5    1    3    3  502    0  0.44677088139E+02  0.16729616675E+01 -0.18967923436E+02  0.48745210276E+02  0.41800000000E+01 0. -1.
         -5    1    3    3    0  502  0.17903817873E+02 -0.50173249712E+00  0.12612868961E+03  0.12746261088E+03  0.41800000000E+01 0. -1.
        -11    1    4    4    0    0 -0.80719190061E+02 -0.18884868045E+02  0.31129331767E+02  0.88550895994E+02  0.00000000000E+00 0. -1.
         11    1    4    4    0    0  0.18138284049E+02  0.17713638874E+02  0.19756754386E+02  0.32141868245E+02  0.00000000000E+00 0.  1.
</event>
<event>
 8    1  0.7112384E-009  0.1536959E+03  0.7561462E-02  0.1196004E+00
         -4   -1    0    0    0  501 -0.00000000000E+00  0.00000000000E+00  0.65059635107E+03  0.65059635107E+03  0.00000000000E+00 0.  1.
          4   -1    0    0  501    0  0.00000000000E+00 -0.00000000000E+00 -0.61467909389E+02  0.61467909389E+02  0.00000000000E+00 0. -1.
         25    2    1    2    0    0 -0.63693600442E+02 -0.92634248612E+02  0.87865768338E+02  0.18974711497E+03  0.12508235543E+03 0.  0.
         23    2    1    2    0    0  0.63693600442E+02  0.92634248612E+02  0.50126267335E+03  0.52231714549E+03  0.94408442578E+02 0.  0.
          5    1    3    3  502    0 -0.63550230869E+02  0.10254687298E+02  0.25535371395E+02  0.69378080453E+02  0.41800000000E+01 0.  1.
         -5    1    3    3    0  502 -0.14336957323E+00 -0.10288893591E+03  0.62330396942E+02  0.12036903452E+03  0.41800000000E+01 0.  1.
        -11    1    4    4    0    0  0.38077501840E+01  0.78221656843E+02  0.19926688919E+03  0.21410375916E+03  0.00000000000E+00 0. -1.
         11    1    4    4    0    0  0.59885850258E+02  0.14412591769E+02  0.30199578416E+03  0.30821338633E+03  0.00000000000E+00 0.  1.
</event>
<event>
 8    1  0.7112384E-009  0.1038206E+03  0.7561462E-02  0.1272461E+00
          1   -1    0    0  501    0  0.00000000000E+00  0.00000000000E+00  0.79833471509E+03  0.79833471509E+03  0.00000000000E+00 0. -1.
         -1   -1    0    0    0  501 -0.00000000000E+00 -0.00000000000E+00 -0.16418695579E+02  0.16418695579E+02  0.00000000000E+00 0.  1.
         25    2    1    2    0    0  0.92733662782E+01 -0.64401772310E+01  0.54983866285E+03  0.56400160248E+03  0.12509109175E+03 0.  0.
         23    2    1    2    0    0 -0.92733662782E+01  0.64401772310E+01  0.23207735667E+03  0.25075180819E+03  0.94282016464E+02 0.  0.
          5    1    3    3  502    0  0.10011891629E+02 -0.64959355599E+02  0.25388694698E+03  0.26228993519E+03  0.41800000000E+01 0.  1.
         -5    1    3    3    0  502 -0.73852535066E+00  0.58519178368E+02  0.29595171587E+03  0.30171166730E+03  0.41800000000E+01 0.  1.
        -11    1    4    4    0    0  0.64840263179E+01  0.42901400086E+02  0.18055935248E+03  0.18569936052E+03  0.00000000000E+00 0. -1.
         11    1    4    4    0    0 -0.15757392596E+02 -0.36461222855E+02  0.51518004183E+02  0.65052447674E+02  0.00000000000E+00 0.  1.
</event>
<event>
 8    1  0.7112384E-009  0.1108794E+03  0.7561462E-02  0.1258950E+00
          1   -1    0    0  501    0  0.00000000000E+00  0.00000000000E+00  0.10195462920E+04  0.10195462920E+04  0.00000000000E+00 0. -1.
         -1   -1    0    0    0  501 -0.00000000000E+00 -0.00000000000E+00 -0.16762460397E+02  0.16762460397E+02  0.00000000000E+00 0.  1.
         25    2    1    2    0    0  0.33365312652E+02  0.50682360085E+02  0.70328916378E+03  0.71689924559E+03  0.12508770809E+03 0.  0.
         23    2    1    2    0    0 -0.33365312652E+02 -0.50682360085E+02  0.29949466781E+03  0.31940950681E+03  0.92970055804E+02 0.  0.
          5    1    3    3  502    0  0.43117442606E+02  0.75256402717E+02  0.66214612041E+03  0.66781554129E+03  0.41800000000E+01 0.  1.
         -5    1    3    3    0  502 -0.97521299542E+01 -0.24574042632E+02  0.41143043372E+02  0.49083704300E+02  0.41800000000E+01 0.  1.
        -11    1    4    4    0    0 -0.32070085444E+02 -0.76165707231E+02  0.19392441894E+03  0.21079939659E+03  0.00000000000E+00 0.  1.
         11    1    4    4    0    0 -0.12952272085E+01  0.25483347146E+02  0.10557024887E+03  0.10861011022E+03  0.00000000000E+00 0. -1.
</event>
<event>
 8    1  0.7112384E-009  0.2054363E+03  0.7561462E-02  0.1145232E+00
         -1   -1    0    0    0  501 -0.00000000000E+00  0.00000000000E+00  0.21822003138E+02  0.21822003138E+02  0.00000000000E+00 0.  1.
          1   -1    0    0  501    0  0.00000000000E+00 -0.00000000000E+00 -0.24808230972E+04  0.24808230972E+04  0.00000000000E+00 0. -1.
         25    2    1    2    0    0  0.18309856312E+03 -0.74703854082E+01 -0.17734553169E+04  0.17872808365E+04  0.12509251396E+03 0.  0.
         23    2    1    2    0    0 -0.18309856312E+03  0.74703854082E+01 -0.68554577720E+03  0.71536426387E+03  0.90510369011E+02 0.  0.
          5    1    3    3  502    0  0.64329808947E+02 -0.63477587906E+02 -0.70992045987E+03  0.71566211317E+03  0.41800000000E+01 0.  1.
         -5    1    3    3    0  502  0.11876875418E+03  0.56007202498E+02 -0.10635348570E+04  0.10716187233E+04  0.41800000000E+01 0.  1.
        -11    1    4    4    0    0 -0.80008444672E+02 -0.19727271840E+02 -0.44031010645E+03  0.44795480388E+03  0.00000000000E+00 0.  1.
         11    1    4    4    0    0 -0.10309011845E+03  0.27197657248E+02 -0.24523567075E+03  0.26740945999E+03  0.00000000000E+00 0. -1.
</event>
<event>
 8    1  0.7112384E-009  0.1883528E+03  0.7561462E-02  0.1159955E+00
          2   -1    0    0  501    0  0.00000000000E+00  0.00000000000E+00  0.78727307304E+03  0.78727307304E+03  0.00000000000E+00 0. -1.
         -2   -1    0    0    0  501 -0.00000000000E+00 -0.00000000000E+00 -0.55688504499E+02  0.55688504499E+02  0.00000000000E+00 0.  1.
         25    2    1    2    0    0  0.16015871466E+03  0.64119904922E+02  0.28860028587E+03  0.35874789764E+03  0.12509097876E+03 0.  0.
         23    2    1    2    0    0 -0.16015871466E+03 -0.64119904922E+02  0.44298428267E+03  0.48421367989E+03  0.92008896409E+02 0.  0.
          5    1    3    3  502    0  0.84556272455E+02  0.66163413752E+02  0.72141241331E+02  0.12941866802E+03  0.41800000000E+01 0. -1.
         -5    1    3    3    0  502  0.75602442208E+02 -0.20435088302E+01  0.21645904454E+03  0.22932922963E+03  0.41800000000E+01 0. -1.
        -11    1    4    4    0    0 -0.87378758105E+02 -0.80616895893E+02  0.23742355050E+03  0.26552603188E+03  0.00000000000E+00 0.  1.
         11    1    4    4    0    0 -0.72779956559E+02  0.16496990971E+02  0.20556073216E+03  0.21868764802E+03  0.00000000000E+00 0. -1.
</event>
<event>
 8    1  0.7112384E-009  0.1208796E+03  0.7561462E-02  0.1241653E+00
         -2   -1    0    0    0  501 -0.00000000000E+00  0.00000000000E+00  0.13525850306E+03  0.13525850306E+03  0.00000000000E+00 0.  1.
          2   -1    0    0  501    0  0.00000000000E+00 -0.00000000000E+00 -0.24331312586E+03  0.24331312586E+03  0.00000000000E+00 0. -1.
         25    2    1    2    0    0 -0.98332312399E+02  0.68733699812E+02 -0.14198865533E+03  0.22406132078E+03  0.12509649106E+03 0.  0.
         23    2    1    2    0    0  0.98332312399E+02 -0.68733699812E+02  0.33934032533E+02  0.15451030815E+03  0.91259802805E+02 0.  0.
          5    1    3    3  502    0 -0.34686737250E+02  0.14483133713E+02  0.19204519372E+02  0.42417176563E+02  0.41800000000E+01 0.  1.
         -5    1    3    3    0  502 -0.63645575148E+02  0.54250566099E+02 -0.16119317470E+03  0.18164414422E+03  0.41800000000E+01 0.  1.
        -11    1    4    4    0    0  0.45305137703E+02 -0.36213780972E+02 -0.30007739252E+02  0.65302816552E+02  0.00000000000E+00 0. -1.
         11    1    4    4    0    0  0.53027174695E+02 -0.32519918840E+02  0.63941771785E+02  0.89207491594E+02  0.00000000000E+00 0.  1.
</event>
<event>
 8    1  0.7112384E-009  0.1129138E+03  0.7561462E-02  0.1255267E+00
          2   -1    0    0  501    0  0.00000000000E+00  0.00000000000E+00  0.13358746529E+04  0.13358746529E+04  0.00000000000E+00 0. -1.
         -2   -1    0    0    0  501 -0.00000000000E+00 -0.00000000000E+00 -0.10027252967E+02  0.10027252967E+02  0.00000000000E+00 0.  1.
         25    2    1    2    0    0 -0.25018180658E+02  0.31381804652E+02  0.79506351844E+03  0.80584360746E+03  0.12508874575E+03 0.  0.
         23    2    1    2    0    0  0.25018180658E+02 -0.31381804652E+02  0.53078388145E+03  0.54005829836E+03  0.91217924730E+02 0.  0.
          5    1    3    3  502    0 -0.17849865376E+01 -0.45551463014E+02  0.18921266217E+03  0.19467158469E+03  0.41800000000E+01 0. -1.
         -5    1    3    3    0  502 -0.23233194120E+02  0.76933267666E+02  0.60585085627E+03  0.61117202278E+03  0.41800000000E+01 0. -1.
        -11    1    4    4    0    0 -0.27460481539E+02  0.13429733897E+02  0.17310074082E+03  0.17577912923E+03  0.00000000000E+00 0.  1.
         11    1    4    4    0    0  0.52478662197E+02 -0.44811538549E+02  0.35768314063E+03  0.36427916913E+03  0.00000000000E+00 0. -1.
</event>
<event>
 8    1  0.7112384E-009  0.7555050E+02  0.7561462E-02  0.1342175E+00
         -2   -1    0    0    0  501 -0.00000000000E+00  0.00000000000E+00  0.48306321345E+03  0.48306321345E+03  0.00000000000E+00 0. -1.
          2   -1    0    0  501    0  0.00000000000E+00 -0.00000000000E+00 -0.26170041362E+02  0.26170041362E+02  0.00000000000E+00 0.  1.
         25    2    1    2    0    0  0.24874686329E+02  0.27392769203E+02  0.26663778306E+03  0.29683780278E+03  0.12509140651E+03 0.  0.
         23    2    1    2    0    0 -0.24874686329E+02 -0.27392769203E+02  0.19025538903E+03  0.21239545203E+03  0.86865419837E+02 0.  0.
          5    1    3    3  502    0 -0.32967508032E+01  0.33124008910E+02  0.26566056218E+03  0.26777056453E+03  0.41800000000E+01 0. -1.
         -5    1    3    3    0  502  0.28171437132E+02 -0.57312397070E+01  0.97722087486E+00  0.29067238247E+02  0.41800000000E+01 0. -1.
        -11    1    4    4    0    0 -0.45973394918E+02  0.86089287679E+01  0.62941591140E+02  0.78417540066E+02  0.00000000000E+00 0.  1.
         11    1    4    4    0    0  0.21098708589E+02 -0.36001697971E+02  0.12731379789E+03  0.13397791197E+03  0.00000000000E+00 0. -1.
</event>
<event>
 8    1  0.7112384E-009  0.1032998E+03  0.7561462E-02  0.1273506E+00
         -3   -1    0    0    0  501 -0.00000000000E+00  0.00000000000E+00  0.64144019017E+02  0.64144019017E+02  0.00000000000E+00 0.  1.
          3   -1    0    0  501    0  0.00000000000E+00 -0.00000000000E+00 -0.28047413050E+03  0.28047413050E+03  0.00000000000E+00 0. -1.
         25    2    1    2    0    0  0.38229616612E+02  0.56954996929E+02 -0.70753618842E+02  0.15924586186E+03  0.12509114549E+03 0.  0.
         23    2    1    2    0    0 -0.38229616612E+02 -0.56954996929E+02 -0.14557649264E+03  0.18537228765E+03  0.92005405055E+02 0.  0.
          5    1    3    3  502    0  0.21356117151E+02 -0.32022938969E+02  0.75557642379E+01  0.39447615051E+02  0.41800000000E+01 0. -1.
         -5    1    3    3    0  502  0.16873499461E+02  0.88977935898E+02 -0.78309383080E+02  0.11979824681E+03  0.41800000000E+01 0. -1.
        -11    1    4    4    0    0  0.48804437700E+01 -0.19539611468E+02  0.78925930455E+01  0.21631185189E+02  0.00000000000E+00 0.  1.
         11    1    4    4    0    0 -0.43110060382E+02 -0.37415385461E+02 -0.15346908568E+03  0.16374110246E+03  0.00000000000E+00 0. -1.
</event>
<event>
 8    1  0.7112384E-009  0.9511396E+02  0.7561462E-02  0.1290920E+00
         -4   -1    0    0    0  501 -0.00000000000E+00  0.00000000000E+00  0.16749814759E+03  0.16749814759E+03  0.00000000000E+00 0.  1.
          4   -1    0    0  501    0  0.00000000000E+00 -0.00000000000E+00 -0.79486115973E+02  0.79486115973E+02  0.00000000000E+00 0. -1.
         25    2    1    2    0    0  0.39160285049E+02  0.16810696671E+02  0.44626933685E+02  0.13948383713E+03  0.12509216667E+03 0.  0.
         23    2    1    2    0    0 -0.39160285049E+02 -0.16810696671E+02  0.43385097932E+02  0.10750042643E+03  0.88645064800E+02 0.  0.
          5    1    3    3  502    0  0.66317962845E+02  0.13387104345E+02  0.73151953447E+02  0.99729471330E+02  0.41800000000E+01 0. -1.
         -5    1    3    3    0  502 -0.27157677797E+02  0.34235923267E+01 -0.28525019761E+02  0.39754365799E+02  0.41800000000E+01 0. -1.
        -11    1    4    4    0    0 -0.64435779572E+02 -0.68528944430E-01  0.42462494730E+02  0.77168891685E+02  0.00000000000E+00 0.  1.
         11    1    4    4    0    0  0.25275494523E+02 -0.16742167727E+02  0.92260320255E+00  0.30331534749E+02  0.00000000000E+00 0. -1.
</event>
<event>
 8    1  0.7112384E-009  0.1493356E+03  0.7561462E-02  0.1201292E+00
          2   -1    0    0  501    0  0.00000000000E+00  0.00000000000E+00  0.85203704840E+03  0.85203704840E+03  0.00000000000E+00 0. -1.
         -2   -1    0    0    0  501 -0.00000000000E+00 -0.00000000000E+00 -0.33934987207E+02  0.33934987207E+02  0.00000000000E+00 0.  1.
         25    2    1    2    0    0 -0.10823549160E+03  0.17299772425E+02  0.61878023031E+03  0.64074228784E+03  0.12508997660E+03 0.  0.
         23    2    1    2    0    0  0.10823549160E+03 -0.17299772425E+02  0.19932183089E+03  0.24522974776E+03  0.91620047760E+02 0.  0.
          5    1    3    3  502    0 -0.26931036856E+02 -0.52207818324E+02  0.19937231424E+03  0.20788874218E+03  0.41800000000E+01 0. -1.
         -5    1    3    3    0  502 -0.81304454745E+02  0.69507590750E+02  0.41940791606E+03  0.43285354566E+03  0.41800000000E+01 0. -1.
        -11    1    4    4    0    0  0.13521121514E+02  0.25447219856E+02  0.12411422921E+02  0.31375550104E+02  0.00000000000E+00 0.  1.
         11    1    4    4    0    0  0.94714370087E+02 -0.42746992282E+02  0.18691040797E+03  0.21385419766E+03  0.00000000000E+00 0. -1.
</event>
<event>
 8    1  0.7112384E-009  0.1490055E+03  0.7561462E-02  0.1201700E+00
         -4   -1    0    0    0  501 -0.00000000000E+00  0.00000000000E+00  0.38890755380E+02  0.38890755380E+02  0.00000000000E+00 0.  1.
          4   -1    0    0  501    0  0.00000000000E+00 -0.00000000000E+00 -0.62331075014E+03  0.62331075014E+03  0.00000000000E+00 0. -1.
         25    2    1    2    0    0  0.85290754068E+02  0.63040084726E+02 -0.38954631660E+03  0.42266012596E+03  0.12508670706E+03 0.  0.
         23    2    1    2    0    0 -0.85290754068E+02 -0.63040084726E+02 -0.19487367816E+03  0.23954137957E+03  0.90309230277E+02 0.  0.
          5    1    3    3  502    0  0.94107495424E+02  0.90065277595E+02 -0.27140396758E+03  0.30107401240E+03  0.41800000000E+01 0. -1.
         -5    1    3    3    0  502 -0.88167413563E+01 -0.27025192868E+02 -0.11814234902E+03  0.12158611356E+03  0.41800000000E+01 0. -1.
        -11    1    4    4    0    0 -0.68076479885E+02  0.54837631115E+01 -0.87316583603E+02  0.11085424910E+03  0.00000000000E+00 0. -1.
         11    1    4    4    0    0 -0.17214274182E+02 -0.68523847838E+02 -0.10755709456E+03  0.12868713047E+03  0.00000000000E+00 0.  1.
</event>
<event>
 8    1  0.7112384E-009  0.1139586E+03  0.7561462E-02  0.1253410E+00
         -1   -1    0    0    0  501 -0.00000000000E+00  0.00000000000E+00  0.77993730418E+02  0.77993730418E+02  0.00000000000E+00 0.  1.
          1   -1    0    0  501    0  0.00000000000E+00 -0.00000000000E+00 -0.28912876928E+03  0.28912876928E+03  0.00000000000E+00 0. -1.
         25    2    1    2    0    0 -0.41675011756E+02  0.63241314657E+02 -0.29085807029E+02  0.14909850210E+03  0.12509240055E+03 0.  0.
         23    2    1    2    0    0  0.41675011756E+02 -0.63241314657E+02 -0.18204923183E+03  0.21802399759E+03  0.93039079054E+02 0.  0.
          5    1    3    3  502    0 -0.69172227858E+02  0.64519190959E+02 -0.56306189599E+02  0.11016071213E+03  0.41800000000E+01 0. -1.
         -5    1    3    3    0  502  0.27497216102E+02 -0.12778763020E+01  0.27220382570E+02  0.38937789979E+02  0.41800000000E+01 0. -1.
        -11    1    4    4    0    0 -0.42409515838E+01 -0.59140582173E+02 -0.15158503593E+03  0.16276860032E+03  0.00000000000E+00 0. -1.
         11    1    4    4    0    0  0.45915963340E+02 -0.41007324841E+01 -0.30464195897E+02  0.55255397275E+02  0.00000000000E+00 0.  1.
</event>
<event>
 8    1  0.7112384E-009  0.9688786E+02  0.7561462E-02  0.1286980E+00
          2   -1    0    0  501    0  0.00000000000E+00  0.00000000000E+00  0.42958593880E+02  0.42958593880E+02  0.00000000000E+00 0. -1.
         -2   -1    0    0    0  501 -0.00000000000E+00 -0.00000000000E+00 -0.38434113400E+03  0.38434113400E+03  0.00000000000E+00 0.  1.
         25    2    1    2    0    0 -0.12981232762E+02 -0.11924764112E+02 -0.30235071936E+03  0.32768007572E+03  0.12509021593E+03 0.  0.
         23    2    1    2    0    0  0.12981232762E+02  0.11924764112E+02 -0.39031820756E+02  0.99619652158E+02  0.89943758324E+02 0.  0.
          5    1    3    3  502    0 -0.60755641657E+02  0.18872583443E+02 -0.11084291160E+03  0.12787120806E+03  0.41800000000E+01 0. -1.
         -5    1    3    3    0  502  0.47774408894E+02 -0.30797347555E+02 -0.19150780776E+03  0.19980886765E+03  0.41800000000E+01 0. -1.
        -11    1    4    4    0    0 -0.26568133157E+02 -0.92892394585E+01 -0.46272185430E+02  0.54159678855E+02  0.00000000000E+00 0.  1.
         11    1    4    4    0    0  0.39549365920E+02  0.21214003570E+02  0.72403646742E+01  0.45459973303E+02  0.00000000000E+00 0. -1.
</event>
<event>
 8    1  0.7112384E-009  0.1001293E+03  0.7561462E-02  0.1280024E+00
          2   -1    0    0  501    0  0.00000000000E+00  0.00000000000E+00  0.32488325894E+03  0.32488325894E+03  0.00000000000E+00 0. -1.
         -2   -1    0    0    0  501 -0.00000000000E+00 -0.00000000000E+00 -0.48682287417E+02  0.48682287417E+02  0.00000000000E+00 0.  1.
         25    2    1    2    0    0  0.22706416282E+02  0.42157228875E+02  0.83827655399E+02  0.15801113000E+03  0.12509047968E+03 0.  0.
         23    2    1    2    0    0 -0.22706416282E+02 -0.42157228875E+02  0.19237331612E+03  0.21555441636E+03  0.84636873576E+02 0.  0.
          5    1    3    3  502    0  0.16714667684E+02  0.72313386963E+02  0.98732227533E+02  0.12358855612E+03  0.41800000000E+01 0. -1.
         -5    1    3    3    0  502  0.59917485971E+01 -0.30156158088E+02 -0.14904572135E+02  0.34422573878E+02  0.41800000000E+01 0. -1.
        -11    1    4    4    0    0 -0.53135819743E+02 -0.35017215283E+02  0.10523190480E+03  0.12297712996E+03  0.00000000000E+00 0.  1.
         11    1    4    4    0    0  0.30429403462E+02 -0.71400135916E+01  0.87141411322E+02  0.92577286395E+02  0.00000000000E+00 0. -1.
</event>
<event>
 8    1  0.7112384E-009  0.9305875E+02  0.7561462E-02  0.1295609E+00
         -2   -1    0    0    0  501 -0.00000000000E+00  0.00000000000E+00  0.20684798084E+02  0.20684798084E+02  0.00000000000E+00 0.  1.
          2   -1    0    0  501    0  0.00000000000E+00 -0.00000000000E+00 -0.67530438290E+03  0.67530438290E+03  0.00000000000E+00 0. -1.
         25    2    1    2    0    0 -0.26788634667E+01  0.21559757573E+02 -0.49679932134E+03  0.51276569499E+03  0.12508834003E+03 0.  0.
         23    2    1    2    0    0  0.26788634667E+01 -0.21559757573E+02 -0.15782026347E+03  0.18322348600E+03  0.90507517933E+02 0.  0.
          5    1    3    3  502    0  0.55701384816E+02  0.16176307468E+02 -0.34715744730E+03  0.35199443577E+03  0.41800000000E+01 0.  1.
         -5    1    3    3    0  502 -0.58380248283E+02  0.53834501050E+01 -0.14964187404E+03  0.16077125922E+03  0.41800000000E+01 0.  1.
        -11    1    4    4    0    0 -0.28749990575E+02  0.35385843682E+01 -0.13265065540E+03  0.13577658088E+03  0.00000000000E+00 0. -1.
         11    1    4    4    0    0  0.31428854042E+02 -0.25098341942E+02 -0.25169608070E+02  0.47446905115E+02  0.00000000000E+00 0.  1.
</event>
<event>
 8    1  0.7112384E-009  0.1037426E+03  0.7561462E-02  0.1272617E+00
          1   -1    0    0  501    0  0.00000000000E+00  0.00000000000E+00  0.11361654062E+03  0.11361654062E+03  0.00000000000E+00 0. -1.
         -1   -1    0    0    0  501 -0.00000000000E+00 -0.00000000000E+00 -0.12806178336E+03  0.12806178336E+03  0.00000000000E+00 0.  1.
         25    2    1    2    0    0 -0.23546449621E+01 -0.28814483323E+02 -0.51614795636E+02  0.13837532236E+03  0.12509126231E+03 0.  0.
         23    2    1    2    0    0  0.23546449621E+01  0.28814483323E+02  0.37169552899E+02  0.10330300162E+03  0.91946265174E+02 0.  0.
          5    1    3    3  502    0 -0.19259059708E+02 -0.74512402153E+02 -0.18344076511E+02  0.79227438420E+02  0.41800000000E+01 0.  1.
         -5    1    3    3    0  502  0.16904414746E+02  0.45697918831E+02 -0.33270719125E+02  0.59147883939E+02  0.41800000000E+01 0.  1.
        -11    1    4    4    0    0  0.39068911563E+02  0.10376562593E+02 -0.90906285709E+01  0.41432987218E+02  0.00000000000E+00 0.  1.
         11    1    4    4    0    0 -0.36714266601E+02  0.18437920730E+02  0.46260181470E+02  0.61870014405E+02  0.00000000000E+00 0. -1.
</event>
<event>
 8    1  0.7112384E-009  0.1153760E+03  0.7561462E-02  0.1250926E+00
          1   -1    0    0  501    0  0.00000000000E+00  0.00000000000E+00  0.28804163526E+02  0.28804163526E+02  0.00000000000E+00 0. -1.
         -1   -1    0    0    0  501 -0.00000000000E+00 -0.00000000000E+00 -0.63253160766E+03  0.63253160766E+03  0.00000000000E+00 0.  1.
         25    2    1    2    0    0 -0.60271135215E+02 -0.30068325243E+02 -0.42187393204E+03  0.44515362364E+03  0.12508964858E+03 0.  0.
         23    2    1    2    0    0  0.60271135215E+02  0.30068325243E+02 -0.18185351210E+03  0.21618214755E+03  0.95536941200E+02 0.  0.
          5    1    3    3  502    0 -0.64762376241E+02  0.19723971252E+02 -0.10971246902E+03  0.12898642826E+03  0.41800000000E+01 0. -1.
         -5    1    3    3    0  502  0.44912410267E+01 -0.49792296496E+02 -0.31216146302E+03  0.31616719537E+03  0.41800000000E+01 0. -1.
        -11    1    4    4    0    0  0.15035649715E+02 -0.32347151099E+02 -0.33195800885E+02  0.48727509099E+02  0.00000000000E+00 0.  1.
         11    1    4    4    0    0  0.45235485500E+02  0.62415476343E+02 -0.14865771122E+03  0.16745463845E+03  0.00000000000E+00 0. -1.
</event>
<event>
 8    1  0.7112384E-009  0.8773137E+02  0.7561462E-02  0.1308440E+00
          2   -1    0    0  501    0  0.00000000000E+00  0.00000000000E+00  0.67638158612E+02  0.67638158612E+02  0.00000000000E+00 0. -1.
         -2   -1    0    0    0  501 -0.00000000000E+00 -0.00000000000E+00 -0.21565665445E+03  0.21565665445E+03  0.00000000000E+00 0.  1.
         25    2    1    2    0    0 -0.18974380422E+02  0.47857863443E+02 -0.70998820788E+02  0.15277007081E+03  0.12508980685E+03 0.  0.
         23    2    1    2    0    0  0.18974380422E+02 -0.47857863443E+02 -0.77019675050E+02  0.13052474225E+03  0.91947135839E+02 0.  0.
          5    1    3    3  502    0 -0.56722851493E+02  0.35059818846E+02  0.48436492392E+01  0.66989597080E+02  0.41800000000E+01 0.  1.
         -5    1    3    3    0  502  0.37748471071E+02  0.12798044598E+02 -0.75842470027E+02  0.85780473731E+02  0.41800000000E+01 0.  1.
        -11    1    4    4    0    0  0.80795805404E+01 -0.54969744080E+02 -0.93964166091E+02  0.10916142586E+03  0.00000000000E+00 0.  1.
         11    1    4    4    0    0  0.10894799881E+02  0.71118806367E+01  0.16944491042E+02  0.21363316393E+02  0.00000000000E+00 0. -1.
</event>
<event>
 8    1  0.7112384E-009  0.1476933E+03  0.7561462E-02  0.1203336E+00
         -1   -1    0    0    0  501 -0.00000000000E+00  0.00000000000E+00  0.19762843288E+03  0.19762843288E+03  0.00000000000E+00 0.  1.
          1   -1    0    0  501    0  0.00000000000E+00 -0.00000000000E+00 -0.36118526747E+03  0.36118526747E+03  0.00000000000E+00 0. -1.
         25    2    1    2    0    0  0.80044398359E+02 -0.88983968013E+02  0.13837807344E+03  0.22163439450E+03  0.12509221137E+03 0.  0.
         23    2    1    2    0    0 -0.80044398359E+02  0.88983968013E+02 -0.30193490803E+03  0.33717930585E+03  0.90553538520E+02 0.  0.
          5    1    3    3  502    0  0.11167634986E+03 -0.77743150269E+02  0.12633792466E+03  0.18572654129E+03  0.41800000000E+01 0.  1.
         -5    1    3    3    0  502 -0.31631951504E+02 -0.11240817745E+02  0.12040148779E+02  0.35907853210E+02  0.41800000000E+01 0.  1.
        -11    1    4    4    0    0 -0.40491051548E+02  0.71514622009E+02 -0.94279832762E+02  0.12507019342E+03  0.00000000000E+00 0.  1.
         11    1    4    4    0    0 -0.39553346811E+02  0.17469346004E+02 -0.20765507526E+03  0.21210911243E+03  0.00000000000E+00 0. -1.
</event>
<event>
 8    1  0.7112384E-009  0.9032817E+02  0.7561462E-02  0.1302059E+00
         -2   -1    0    0    0  501 -0.00000000000E+00  0.00000000000E+00  0.10534836349E+03  0.10534836349E+03  0.00000000000E+00 0.  1.
          2   -1    0    0  501    0  0.00000000000E+00 -0.00000000000E+00 -0.24674275237E+03  0.24674275237E+03  0.00000000000E+00 0. -1.
         25    2    1    2    0    0 -0.25587372715E+02  0.46437732373E+02 -0.19195340054E+03  0.23516833011E+03  0.12508740496E+03 0.  0.
         23    2    1    2    0    0  0.25587372715E+02 -0.46437732373E+02  0.50559011656E+02  0.11692278575E+03  0.91123803347E+02 0.  0.
          5    1    3    3  502    0  0.16382665750E+02  0.90253710348E+01  0.12633662999E+02  0.22954975499E+02  0.41800000000E+01 0.  1.
         -5    1    3    3    0  502 -0.41970038465E+02  0.37412361338E+02 -0.20458706353E+03  0.21221335461E+03  0.41800000000E+01 0.  1.
        -11    1    4    4    0    0 -0.32590099972E+02 -0.30863851657E+02  0.17143359171E+02  0.48047754567E+02  0.00000000000E+00 0. -1.
         11    1    4    4    0    0  0.58177472687E+02 -0.15573880716E+02  0.33415652485E+02  0.68875031178E+02  0.00000000000E+00 0.  1.
</event>
<event>
 8    1  0.7112384E-009  0.1153873E+03  0.7561462E-02  0.1250907E+00
          3   -1    0    0  501    0  0.00000000000E+00  0.00000000000E+00  0.83342632529E+02  0.83342632529E+02  0.00000000000E+00 0. -1.
         -3   -1    0    0    0  501 -0.00000000000E+00 -0.00000000000E+00 -0.17861115216E+03  0.17861115216E+03  0.00000000000E+00 0.  1.
         25    2    1    2    0    0  0.48886461987E+02  0.14906173963E+02 -0.80691646796E+02  0.15738897072E+03  0.12509223019E+03 0.  0.
         23    2    1    2    0    0 -0.48886461987E+02 -0.14906173963E+02 -0.14576872838E+02  0.10456481397E+03  0.90051290446E+02 0.  0.
          5    1    3    3  502    0  0.63224781285E+01  0.67164588333E+02 -0.39376126212E+02  0.78224084342E+02  0.41800000000E+01 0.  1.
         -5    1    3    3    0  502  0.42563983858E+02 -0.52258414370E+02 -0.41315520584E+02  0.79164886379E+02  0.41800000000E+01 0.  1.
        -11    1    4    4    0    0 -0.61471970955E+02 -0.35893151504E+02  0.75373838164E+01  0.71581657516E+02  0.00000000000E+00 0. -1.
         11    1    4    4    0    0  0.12585508969E+02  0.20986977540E+02 -0.22114256654E+02  0.32983156453E+02  0.00000000000E+00 0.  1.
</event>
<event>
 8    1  0.7112384E-009  0.8581690E+02  0.7561462E-02  0.1313310E+00
         -1   -1    0    0    0  501 -0.00000000000E+00  0.00000000000E+00  0.15338832185E+02  0.15338832185E+02  0.00000000000E+00 0.  1.
          1   -1    0    0  501    0  0.00000000000E+00 -0.00000000000E+00 -0.92399556403E+03  0.92399556403E+03  0.00000000000E+00 0. -1.
         25    2    1    2    0    0 -0.12173876763E+02  0.11682839111E+02 -0.69725487397E+03  0.70858871680E+03  0.12509563658E+03 0.  0.
         23    2    1    2    0    0  0.12173876763E+02 -0.11682839111E+02 -0.21140185788E+03  0.23074567942E+03  0.90929264000E+02 0.  0.
          5    1    3    3  502    0 -0.31982465737E+02 -0.23312892046E+02 -0.62104467970E+03  0.62231851622E+03  0.41800000000E+01 0.  1.
         -5    1    3    3    0  502  0.19808588974E+02  0.34995731158E+02 -0.76210194266E+02  0.86270200571E+02  0.41800000000E+01 0.  1.
        -11    1    4    4    0    0  0.36745302038E+02 -0.39730849360E+02 -0.10746680525E+03  0.12032402854E+03  0.00000000000E+00 0.  1.
         11    1    4    4    0    0 -0.24571425276E+02  0.28048010248E+02 -0.10393505263E+03  0.11042165088E+03  0.00000000000E+00 0. -1.
</event>
<event>
 8    1  0.7112384E-009  0.1187476E+03  0.7561462E-02  0.1245178E+00
          2   -1    0    0  501    0  0.00000000000E+00  0.00000000000E+00  0.11817342364E+03  0.11817342364E+03  0.00000000000E+00 0. -1.
         -2   -1    0    0    0  501 -0.00000000000E+00 -0.00000000000E+00 -0.12990800329E+03  0.12990800329E+03  0.00000000000E+00 0.  1.
         25    2    1    2    0    0  0.48988020197E+02  0.25681882108E+02  0.16214206218E+02  0.13773019196E+03  0.12508924855E+03 0.  0.
         23    2    1    2    0    0 -0.48988020197E+02 -0.25681882108E+02 -0.27948785870E+02  0.11035123497E+03  0.91306490659E+02 0.  0.
          5    1    3    3  502    0 -0.16455430758E+02 -0.36574381843E+02 -0.13544598294E+02  0.42536985690E+02  0.41800000000E+01 0. -1.
         -5    1    3    3    0  502  0.65443450955E+02  0.62256263951E+02  0.29758804511E+02  0.95193206270E+02  0.41800000000E+01 0. -1.
        -11    1    4    4    0    0 -0.30608666928E+01 -0.53148392083E+02 -0.14361514307E+02  0.55139582689E+02  0.00000000000E+00 0.  1.
         11    1    4    4    0    0 -0.45927153504E+02  0.27466509975E+02 -0.13587271563E+02  0.55211652282E+02  0.00000000000E+00 0. -1.
</event>
<event>
 8    1  0.7112384E-009  0.8584565E+02  0.7561462E-02  0.1313236E+00
          1   -1    0    0  501    0  0.00000000000E+00  0.00000000000E+00  0.31930219654E+03  0.31930219654E+03  0.00000000000E+00 0. -1.
         -1   -1    0    0    0  501 -0.00000000000E+00 -0.00000000000E+00 -0.43817697153E+02  0.43817697153E+02  0.00000000000E+00 0.  1.
         25    2    1    2    0    0  0.67935474028E+01  0.11146739192E+02  0.21789019404E+03  0.25158428892E+03  0.12509242858E+03 0.  0.
         23    2    1    2    0    0 -0.67935474028E+01 -0.11146739192E+02  0.57594305347E+02  0.11153560478E+03  0.94618629478E+02 0.  0.
          5    1    3    3  502    0  0.57689467922E+02 -0.24968273072E+02  0.11685254783E+03  0.13275345458E+03  0.41800000000E+01 0. -1.
         -5    1    3    3    0  502 -0.50895920519E+02  0.36115012264E+02  0.10103764622E+03  0.11883083434E+03  0.41800000000E+01 0. -1.
        -11    1    4    4    0    0 -0.24652518750E+02 -0.13539363955E+02  0.78823168836E+02  0.83690817909E+02  0.00000000000E+00 0. -1.
         11    1    4    4    0    0  0.17858971347E+02  0.23926247630E+01 -0.21228863489E+02  0.27844786870E+02  0.00000000000E+00 0.  1.
</event>
<event>
 8    1  0.7112384E-009  0.1102147E+03  0.7561462E-02  0.1260173E+00
          1   -1    0    0  501    0  0.00000000000E+00  0.00000000000E+00  0.77698007251E+02  0.77698007251E+02  0.00000000000E+00 0. -1.
         -1   -1    0    0    0  501 -0.00000000000E+00 -0.00000000000E+00 -0.23760990513E+03  0.23760990513E+03  0.00000000000E+00 0.  1.
         25    2    1    2    0    0  0.70474977987E+02 -0.37609450056E+02 -0.65007678787E+02  0.16203400282E+03  0.12509127273E+03 0.  0.
         23    2    1    2    0    0 -0.70474977987E+02  0.37609450056E+02 -0.94904219089E+02  0.15327390956E+03  0.90027147548E+02 0.  0.
          5    1    3    3  502    0  0.28890670699E+02 -0.57498123262E+02  0.18039515784E+02  0.66959701029E+02  0.41800000000E+01 0.  1.
         -5    1    3    3    0  502  0.41584307288E+02  0.19888673206E+02 -0.83047194572E+02  0.95074301790E+02  0.41800000000E+01 0.  1.
        -11    1    4    4    0    0 -0.28748087355E+02  0.56854632488E+02 -0.85070763006E+02  0.10628234322E+03  0.00000000000E+00 0. -1.
         11    1    4    4    0    0 -0.41726890632E+02 -0.19245182432E+02 -0.98334560831E+01  0.46991566341E+02  0.00000000000E+00 0.  1.
</event>
<event>
 8    1  0.7112384E-009  0.1035907E+03  0.7561462E-02  0.1272921E+00
         -1   -1    0    0    0  501 -0.00000000000E+00  0.00000000000E+00  0.25170830978E+02  0.25170830978E+02  0.00000000000E+00 0.  1.
          1   -1    0    0  501    0  0.00000000000E+00 -0.00000000000E+00 -0.64884951351E+03  0.64884951351E+03  0.00000000000E+00 0. -1.
         25    2    1    2    0    0 -0.64078506523E+02  0.11416068064E+02 -0.38347246216E+03  0.40857849533E+03  0.12509546756E+03 0.  0.
         23    2    1    2    0    0  0.64078506523E+02 -0.11416068064E+02 -0.24020622038E+03  0.26544184916E+03  0.92325323554E+02 0.  0.
          5    1    3    3  502    0 -0.37567615799E+02 -0.36191481176E+02 -0.32241593241E+03  0.32663535470E+03  0.41800000000E+01 0.  1.
         -5    1    3    3    0  502 -0.26510890724E+02  0.47607549241E+02 -0.61056529744E+02  0.81943140628E+02  0.41800000000E+01 0.  1.
        -11    1    4    4    0    0  0.35598869878E+02 -0.44211990333E+02 -0.71815571124E+02  0.91539367933E+02  0.00000000000E+00 0. -1.
         11    1    4    4    0    0  0.28479636645E+02  0.32795922269E+02 -0.16839064925E+03  0.17390248123E+03  0.00000000000E+00 0.  1.
</event>
<event>
 8    1  0.7112384E-009  0.1251518E+03  0.7561462E-02  0.1234832E+00
         -2   -1    0    0    0  501 -0.00000000000E+00  0.00000000000E+00  0.40150222943E+02  0.40150222943E+02  0.00000000000E+00 0.  1.
          2   -1    0    0  501    0  0.00000000000E+00 -0.00000000000E+00 -0.47042220492E+03  0.47042220492E+03  0.00000000000E+00 0. -1.
         25    2    1    2    0    0  0.56819281186E+02 -0.47860835817E+02 -0.31352664622E+03  0.34563742364E+03  0.12508869019E+03 0.  0.
         23    2    1    2    0    0 -0.56819281186E+02  0.47860835817E+02 -0.11674533576E+03  0.16493500422E+03  0.89749606549E+02 0.  0.
          5    1    3    3  502    0  0.93636008068E+02 -0.17023205166E+02 -0.23389831217E+03  0.25255372568E+03  0.41800000000E+01 0. -1.
         -5    1    3    3    0  502 -0.36816726883E+02 -0.30837630651E+02 -0.79628334048E+02  0.93083697960E+02  0.41800000000E+01 0. -1.
        -11    1    4    4    0    0 -0.37813057355E+02  0.68830245339E+02 -0.11113623980E+03  0.13608340742E+03  0.00000000000E+00 0. -1.
         11    1    4    4    0    0 -0.19006223830E+02 -0.20969409522E+02 -0.56090959583E+01  0.28851596792E+02  0.00000000000E+00 0.  1.
</event>
<event>
 8    1  0.7112384E-009  0.1159785E+03  0.7561462E-02  0.1249883E+00
         -1   -1    0    0    0  501 -0.00000000000E+00  0.00000000000E+00  0.19385117004E+02  0.19385117004E+02  0.00000000000E+00 0.  1.
          1   -1    0    0  501    0  0.00000000000E+00 -0.00000000000E+00 -0.73578480512E+03  0.73578480512E+03  0.00000000000E+00 0. -1.
         25    2    1    2    0    0 -0.46644760991E+02 -0.82461047053E+01 -0.41867904917E+03  0.43952357159E+03  0.12508034141E+03 0.  0.
         23    2    1    2    0    0  0.46644760991E+02  0.82461047053E+01 -0.29772063895E+03  0.31564635053E+03  0.93548424761E+02 0.  0.
          5    1    3    3  502    0  0.12329162766E+02  0.49446824277E+02 -0.16275745168E+03  0.17060028477E+03  0.41800000000E+01 0.  1.
         -5    1    3    3    0  502 -0.58973923757E+02 -0.57692928983E+02 -0.25592159748E+03  0.26892328682E+03  0.41800000000E+01 0.  1.
        -11    1    4    4    0    0  0.20445285964E+02  0.47105930004E+02 -0.21003823451E+03  0.21622450906E+03  0.00000000000E+00 0.  1.
         11    1    4    4    0    0  0.26199475027E+02 -0.38859825298E+02 -0.87682404434E+02  0.99421841470E+02  0.00000000000E+00 0. -1.
</event>
<event>
 8    1  0.7112384E-009  0.1004595E+03  0.7561462E-02  0.1279333E+00
          1   -1    0    0  501    0  0.00000000000E+00  0.00000000000E+00  0.11487002435E+03  0.11487002435E+03  0.00000000000E+00 0. -1.
         -1   -1    0    0    0  501 -0.00000000000E+00 -0.00000000000E+00 -0.12574752203E+03  0.12574752203E+03  0.00000000000E+00 0.  1.
         25    2    1    2    0    0  0.19939663879E+02  0.49277532960E+01  0.42549488279E+02  0.13371207536E+03  0.12508631898E+03 0.  0.
         23    2    1    2    0    0 -0.19939663879E+02 -0.49277532960E+01 -0.53426985952E+02  0.10690547102E+03  0.90290995995E+02 0.  0.
          5    1    3    3  502    0  0.70661108405E+02  0.37333088922E+01  0.61885638095E+01  0.71152656720E+02  0.41800000000E+01 0. -1.
         -5    1    3    3    0  502 -0.50721444526E+02  0.11944444038E+01  0.36360924470E+02  0.62559418639E+02  0.41800000000E+01 0. -1.
        -11    1    4    4    0    0  0.20348203254E+02 -0.26513911204E+02 -0.51202244709E+02  0.61144964848E+02  0.00000000000E+00 0.  1.
         11    1    4    4    0    0 -0.40287867134E+02  0.21586157908E+02 -0.22247412423E+01  0.45760506171E+02  0.00000000000E+00 0. -1.
</event>
<event>
 8    1  0.7112384E-009  0.7480101E+02  0.7561462E-02  0.1344488E+00
         -3   -1    0    0    0  501 -0.00000000000E+00  0.00000000000E+00  0.42152802730E+03  0.42152802730E+03  0.00000000000E+00 0.  1.
          3   -1    0    0  501    0  0.00000000000E+00 -0.00000000000E+00 -0.31348694732E+02  0.31348694732E+02  0.00000000000E+00 0. -1.
         25    2    1    2    0    0 -0.23944670136E+02 -0.67201186706E+01  0.28055291759E+03  0.30818144357E+03  0.12508938950E+03 0.  0.
         23    2    1    2    0    0  0.23944670136E+02  0.67201186706E+01  0.10962641498E+03  0.14469527847E+03  0.91105793048E+02 0.  0.
          5    1    3    3  502    0 -0.38959247493E+02  0.19103797094E+02  0.23805647832E+02  0.49668494011E+02  0.41800000000E+01 0.  1.
         -5    1    3    3    0  502  0.15014577356E+02 -0.25823915765E+02  0.25674726976E+03  0.25851294955E+03  0.41800000000E+01 0.  1.
        -11    1    4    4    0    0  0.49605814475E+02  0.13146673036E+01  0.23960072066E+02  0.55104902080E+02  0.00000000000E+00 0. -1.
         11    1    4    4    0    0 -0.25661144339E+02  0.54054513670E+01  0.85666342914E+02  0.89590376389E+02  0.00000000000E+00 0.  1.
</event>
<event>
 8    1  0.7112384E-009  0.1187270E+03  0.7561462E-02  0.1245212E+00
         -1   -1    0    0    0  501 -0.00000000000E+00  0.00000000000E+00  0.24628888707E+03  0.24628888707E+03  0.00000000000E+00 0.  1.
          1   -1    0    0  501    0  0.00000000000E+00 -0.00000000000E+00 -0.64341960029E+02  0.64341960029E+02  0.00000000000E+00 0. -1.
         25    2    1    2    0    0 -0.63594133520E+02 -0.21359684096E+02  0.10254095337E+03  0.17511089194E+03  0.12509487373E+03 0.  0.
         23    2    1    2    0    0  0.63594133520E+02  0.21359684096E+02  0.79405973672E+02  0.13551995516E+03  0.86947683518E+02 0.  0.
          5    1    3    3  502    0 -0.79264755413E+02 -0.59801662757E+02  0.80681167106E+02  0.12800806008E+03  0.41800000000E+01 0. -1.
         -5    1    3    3    0  502  0.15670621893E+02  0.38441978661E+02  0.21859786264E+02  0.47102831861E+02  0.41800000000E+01 0. -1.
        -11    1    4    4    0    0  0.57411840891E+02 -0.15104167820E+02  0.78634916594E+02  0.98527688838E+02  0.00000000000E+00 0.  1.
         11    1    4    4    0    0  0.61822926294E+01  0.36463851916E+02  0.77105707858E+00  0.36992266323E+02  0.00000000000E+00 0. -1.
</event>
<event>
 8    1  0.7112384E-009  0.1236059E+03  0.7561462E-02  0.1237264E+00
         -1   -1    0    0    0  501 -0.00000000000E+00  0.00000000000E+00  0.19654840535E+02  0.19654840535E+02  0.00000000000E+00 0.  1.
          1   -1    0    0  501    0  0.00000000000E+00 -0.00000000000E+00 -0.92540275918E+03  0.92540275918E+03  0.00000000000E+00 0. -1.
         25    2    1    2    0    0 -0.64098810083E+02 -0.41555728936E+02 -0.58837206178E+03  0.60635500616E+03  0.12509666005E+03 0.  0.
         23    2    1    2    0    0  0.64098810083E+02  0.41555728936E+02 -0.31737585686E+03  0.33870259355E+03  0.90313212184E+02 0.  0.
          5    1    3    3  502    0 -0.95806305454E+02 -0.38637235484E+02 -0.32541440556E+03  0.34144354127E+03  0.41800000000E+01 0.  1.
         -5    1    3    3    0  502  0.31707495371E+02 -0.29184934514E+01 -0.26295765622E+03  0.26491146489E+03  0.41800000000E+01 0.  1.
        -11    1    4    4    0    0  0.17252574398E+02 -0.24965974515E+02 -0.14430287532E+03  0.14745938774E+03  0.00000000000E+00 0. -1.
         11    1    4    4    0    0  0.46846235685E+02  0.66521703451E+02 -0.17307298155E+03  0.19124320581E+03  0.00000000000E+00 0.  1.
</event>
<event>
 8    1  0.7112384E-009  0.6227518E+02  0.7561462E-02  0.1388525E+00
          2   -1    0    0  501    0  0.00000000000E+00  0.00000000000E+00  0.10723205326E+03  0.10723205326E+03  0.00000000000E+00 0. -1.
         -2   -1    0    0    0  501 -0.00000000000E+00 -0.00000000000E+00 -0.11295004022E+03  0.11295004022E+03  0.00000000000E+00 0.  1.
         25    2    1    2    0    0  0.33434766460E+01  0.23509633470E+02 -0.36913531150E+01  0.12737630745E+03  0.12508883207E+03 0.  0.
         23    2    1    2    0    0 -0.33434766460E+01 -0.23509633470E+02 -0.20266338451E+01  0.92805786035E+02  0.89693505756E+02 0.  0.
          5    1    3    3  502    0 -0.25342077120E+01 -0.55674163482E+01 -0.61670911247E+02  0.62114346391E+02  0.41800000000E+01 0.  1.
         -5    1    3    3    0  502  0.58776843580E+01  0.29077049818E+02  0.57979558132E+02  0.65261961055E+02  0.41800000000E+01 0.  1.
        -11    1    4    4    0    0  0.39874446881E+02 -0.50680786450E+01 -0.16778316627E+02  0.43556501743E+02  0.00000000000E+00 0.  1.
         11    1    4    4    0    0 -0.43217923527E+02 -0.18441554825E+02  0.14751682782E+02  0.49249284292E+02  0.00000000000E+00 0. -1.
</event>
<event>
 8    1  0.7112384E-009  0.1610721E+03  0.7561462E-02  0.1187492E+00
          2   -1    0    0  501    0  0.00000000000E+00  0.00000000000E+00  0.78605755854E+03  0.78605755854E+03  0.00000000000E+00 0. -1.
         -2   -1    0    0    0  501 -0.00000000000E+00 -0.00000000000E+00 -0.36861303004E+02  0.36861303004E+02  0.00000000000E+00 0.  1.
         25    2    1    2    0    0 -0.81084013190E+02  0.86696030587E+02  0.52633556818E+03  0.55386891233E+03  0.12510324857E+03 0.  0.
         23    2    1    2    0    0  0.81084013190E+02 -0.86696030587E+02  0.22286068735E+03  0.26904994921E+03  0.92898709825E+02 0.  0.
          5    1    3    3  502    0 -0.11142498527E+03  0.87108233164E+02  0.44518180695E+03  0.46712705474E+03  0.41800000000E+01 0.  1.
         -5    1    3    3    0  502  0.30340972077E+02 -0.41220257758E+00  0.81153761226E+02  0.86741857593E+02  0.41800000000E+01 0.  1.
        -11    1    4    4    0    0  0.25693331179E+02 -0.90907267636E+02  0.15271504544E+03  0.17957216844E+03  0.00000000000E+00 0. -1.
         11    1    4    4    0    0  0.55390682011E+02  0.42112370486E+01  0.70145641912E+02  0.89477780764E+02  0.00000000000E+00 0.  1.
</event>
<event>
 8    1  0.7112384E-009  0.6939534E+02  0.7561462E-02  0.1362161E+00
         -4   -1    0    0    0  501 -0.00000000000E+00  0.00000000000E+00  0.47762733143E+02  0.47762733143E+02  0.00000000000E+00 0. -1.
          4   -1    0    0  501    0  0.00000000000E+00 -0.00000000000E+00 -0.25259518696E+03  0.25259518696E+03  0.00000000000E+00 0.  1.
         25    2    1    2    0    0 -0.23331700103E+02 -0.24888471596E+02 -0.10732772845E+03  0.16831329165E+03  0.12508524535E+03 0.  0.
         23    2    1    2    0    0  0.23331700103E+02  0.24888471596E+02 -0.97504725362E+02  0.13204462845E+03  0.82248454004E+02 0.  0.
          5    1    3    3  502    0  0.20482271778E+02  0.82252296629E+01 -0.11086800267E+03  0.11312101606E+03  0.41800000000E+01 0.  1.
         -5    1    3    3    0  502 -0.43813971881E+02 -0.33113701259E+02  0.35402742143E+01  0.55192275587E+02  0.41800000000E+01 0.  1.
        -11    1    4    4    0    0  0.28469213988E+02 -0.66976352110E+01 -0.95614752651E+02  0.99987676176E+02  0.00000000000E+00 0.  1.
         11    1    4    4    0    0 -0.51375138855E+01  0.31586106807E+02 -0.18899727108E+01  0.32056952272E+02  0.00000000000E+00 0. -1.
</event>
<event>
 8    1  0.7112384E-009  0.6010152E+02  0.7561462E-02  0.1397406E+00
          1   -1    0    0  501    0  0.00000000000E+00  0.00000000000E+00  0.17580855030E+03  0.17580855030E+03  0.00000000000E+00 0. -1.
         -1   -1    0    0    0  501 -0.00000000000E+00 -0.00000000000E+00 -0.83358282409E+02  0.83358282409E+02  0.00000000000E+00 0.  1.
         25    2    1    2    0    0  0.40102307224E+02 -0.37245139275E+01  0.89733639286E+02  0.15914118402E+03  0.12510684786E+03 0.  0.
         23    2    1    2    0    0 -0.40102307224E+02  0.37245139275E+01  0.27166286070E+01  0.10002564869E+03  0.91518759151E+02 0.  0.
          5    1    3    3  502    0  0.22343774930E+02 -0.23969684470E+02 -0.24865111772E+02  0.41346538369E+02  0.41800000000E+01 0. -1.
         -5    1    3    3    0  502  0.17758532294E+02  0.20245170542E+02  0.11459875106E+03  0.11779464565E+03  0.41800000000E+01 0. -1.
        -11    1    4    4    0    0  0.96702590807E+01  0.30471658801E+01 -0.35722953616E+02  0.37133927151E+02  0.00000000000E+00 0.  1.
         11    1    4    4    0    0 -0.49772566305E+02  0.67734804739E+00  0.38439582223E+02  0.62891721541E+02  0.00000000000E+00 0. -1.
</event>
<event>
 8    1  0.7112384E-009  0.1021493E+03  0.7561462E-02  0.1275840E+00
          3   -1    0    0  501    0  0.00000000000E+00  0.00000000000E+00  0.18698372744E+02  0.18698372744E+02  0.00000000000E+00 0. -1.
         -3   -1    0    0    0  501 -0.00000000000E+00 -0.00000000000E+00 -0.71780543380E+03  0.71780543380E+03  0.00000000000E+00 0.  1.
         25    2    1    2    0    0 -0.33577312488E+02  0.36836923084E+00 -0.47981220706E+03  0.49698560674E+03  0.12508943861E+03 0.  0.
         23    2    1    2    0    0  0.33577312488E+02 -0.36836923084E+00 -0.21929485400E+03  0.23951819981E+03  0.90283793889E+02 0.  0.
          5    1    3    3  502    0  0.32483082598E+02 -0.38196418502E+02 -0.14371040649E+03  0.15226381833E+03  0.41800000000E+01 0. -1.
         -5    1    3    3    0  502 -0.66060395086E+02  0.38564787733E+02 -0.33610180057E+03  0.34472178840E+03  0.41800000000E+01 0. -1.
        -11    1    4    4    0    0 -0.20724342834E+02  0.84174070028E+01 -0.12693287216E+02  0.25719072046E+02  0.00000000000E+00 0. -1.
         11    1    4    4    0    0  0.54301655322E+02 -0.87857762337E+01 -0.20660156679E+03  0.21379912776E+03  0.00000000000E+00 0.  1.
</event>
<event>
 8    1  0.7112384E-009  0.1074147E+03  0.7561462E-02  0.1265434E+00
         -3   -1    0    0    0  501 -0.00000000000E+00  0.00000000000E+00  0.85637532902E+02  0.85637532902E+02  0.00000000000E+00 0.  1.
          3   -1    0    0  501    0  0.00000000000E+00 -0.00000000000E+00 -0.20609576688E+03  0.20609576688E+03  0.00000000000E+00 0. -1.
         25    2    1    2    0    0  0.63722469209E+02  0.40321898707E+02 -0.50919460674E+02  0.15468009866E+03  0.12508690118E+03 0.  0.
         23    2    1    2    0    0 -0.63722469209E+02 -0.40321898707E+02 -0.69538773300E+02  0.13705320112E+03  0.90892960935E+02 0.  0.
          5    1    3    3  502    0  0.34608977965E+02  0.75067038919E+02 -0.66911291195E+02  0.10643042318E+03  0.41800000000E+01 0.  1.
         -5    1    3    3    0  502  0.29113491244E+02 -0.34745140212E+02  0.15991830521E+02  0.48249675483E+02  0.41800000000E+01 0.  1.
        -11    1    4    4    0    0 -0.10119911869E+01 -0.20852469452E+02 -0.68256036863E+02  0.71377420636E+02  0.00000000000E+00 0. -1.
         11    1    4    4    0    0 -0.62710478022E+02 -0.19469429255E+02 -0.12827364370E+01  0.65675780483E+02  0.00000000000E+00 0.  1.
</event>
<event>
 8    1  0.7112384E-009  0.1994001E+03  0.7561462E-02  0.1150246E+00
          2   -1    0    0  501    0  0.00000000000E+00  0.00000000000E+00  0.26726502582E+03  0.26726502582E+03  0.00000000000E+00 0. -1.
         -2   -1    0    0    0  501 -0.00000000000E+00 -0.00000000000E+00 -0.22029952761E+03  0.22029952761E+03  0.00000000000E+00 0.  1.
         25    2    1    2    0    0 -0.18323049332E+03 -0.31199705032E+02  0.13649619024E+03  0.26234656694E+03  0.12509067096E+03 0.  0.
         23    2    1    2    0    0  0.18323049332E+03  0.31199705032E+02 -0.89530692027E+02  0.22521798649E+03  0.90335825383E+02 0.  0.
          5    1    3    3  502    0 -0.18348963491E+03 -0.11167660353E+02  0.15044471605E+03  0.23757998178E+03  0.41800000000E+01 0.  1.
         -5    1    3    3    0  502  0.25914158382E+00 -0.20032044679E+02 -0.13948525812E+02  0.24766585165E+02  0.41800000000E+01 0.  1.
        -11    1    4    4    0    0  0.75009700066E+01  0.16488181532E+02  0.12005197439E+02  0.21731301085E+02  0.00000000000E+00 0.  1.
         11    1    4    4    0    0  0.17572952331E+03  0.14711523500E+02 -0.10153588947E+03  0.20348668541E+03  0.00000000000E+00 0. -1.
</event>
<event>
 8    1  0.7112384E-009  0.9748966E+02  0.7561462E-02  0.1285665E+00
         -1   -1    0    0    0  501 -0.00000000000E+00  0.00000000000E+00  0.21288646643E+02  0.21288646643E+02  0.00000000000E+00 0.  1.
          1   -1    0    0  501    0  0.00000000000E+00 -0.00000000000E+00 -0.60391254507E+03  0.60391254507E+03  0.00000000000E+00 0. -1.
         25    2    1    2    0    0  0.61150822486E+01 -0.13573928881E+02 -0.24416405562E+03  0.27474621738E+03  0.12509097542E+03 0.  0.
         23    2    1    2    0    0 -0.61150822486E+01  0.13573928881E+02 -0.33845984281E+03  0.35045497434E+03  0.89677076586E+02 0.  0.
          5    1    3    3  502    0  0.50228742398E+02 -0.33361890219E+02 -0.63458657473E+02  0.87637982006E+02  0.41800000000E+01 0.  1.
         -5    1    3    3    0  502 -0.44113660149E+02  0.19787961338E+02 -0.18070539814E+03  0.18710823537E+03  0.41800000000E+01 0.  1.
        -11    1    4    4    0    0  0.14441981372E+02  0.45666068093E+02 -0.24287170752E+03  0.24754924140E+03  0.00000000000E+00 0. -1.
         11    1    4    4    0    0 -0.20557063621E+02 -0.32092139212E+02 -0.95588135292E+02  0.10290573294E+03  0.00000000000E+00 0.  1.
</event>
<event>
 8    1  0.7112384E-009  0.1173886E+03  0.7561462E-02  0.1247468E+00
         -2   -1    0    0    0  501 -0.00000000000E+00  0.00000000000E+00  0.25074534100E+02  0.25074534100E+02  0.00000000000E+00 0.  1.
          2   -1    0    0  501    0  0.00000000000E+00 -0.00000000000E+00 -0.76296740163E+03  0.76296740163E+03  0.00000000000E+00 0. -1.
         25    2    1    2    0    0 -0.83106753284E+02 -0.13664220520E+02 -0.31675044036E+03  0.35081714234E+03  0.12509349515E+03 0.  0.
         23    2    1    2    0    0  0.83106753284E+02  0.13664220520E+02 -0.42114242717E+03  0.43722479338E+03  0.81921502832E+02 0.  0.
          5    1    3    3  502    0 -0.70356488089E+02 -0.45835212332E+02 -0.30108288395E+03  0.31260082776E+03  0.41800000000E+01 0.  1.
         -5    1    3    3    0  502 -0.12750265195E+02  0.32170991813E+02 -0.15667556412E+02  0.38216314588E+02  0.41800000000E+01 0.  1.
        -11    1    4    4    0    0  0.97926326714E+02  0.19624345751E+02 -0.38436052873E+03  0.39712428339E+03  0.00000000000E+00 0.  1.
         11    1    4    4    0    0 -0.14819573430E+02 -0.59601252314E+01 -0.36781898435E+02  0.40100509995E+02  0.00000000000E+00 0. -1.
</event>
<event>
 8    1  0.7112384E-009  0.1149221E+03  0.7561462E-02  0.1251717E+00
          2   -1    0    0  501    0  0.00000000000E+00  0.00000000000E+00  0.12618576148E+04  0.12618576148E+04  0.00000000000E+00 0. -1.
         -2   -1    0    0    0  501 -0.00000000000E+00 -0.00000000000E+00 -0.14506965886E+02  0.14506965886E+02  0.00000000000E+00 0.  1.
         25    2    1    2    0    0 -0.36924205428E+02  0.65555538876E+02  0.82497049365E+03  0.83778605455E+03  0.12509289418E+03 0.  0.
         23    2    1    2    0    0  0.36924205428E+02 -0.65555538876E+02  0.42238015527E+03  0.43857852614E+03  0.91023087213E+02 0.  0.
          5    1    3    3  502    0 -0.40170329314E+02 -0.52702088404E+01  0.83316424065E+02  0.92739039123E+02  0.41800000000E+01 0.  1.
         -5    1    3    3    0  502  0.32461238862E+01  0.70825747717E+02  0.74165406959E+03  0.74504701543E+03  0.41800000000E+01 0.  1.
        -11    1    4    4    0    0 -0.11410989320E+02 -0.68712043759E+02  0.24773494909E+03  0.25734055381E+03  0.00000000000E+00 0.  1.
         11    1    4    4    0    0  0.48335194748E+02  0.31565048825E+01  0.17464520618E+03  0.18123797233E+03  0.00000000000E+00 0. -1.
</event>
<event>
 8    1  0.7112384E-009  0.1100729E+03  0.7561462E-02  0.1260435E+00
          2   -1    0    0  501    0  0.00000000000E+00  0.00000000000E+00  0.18812860135E+04  0.18812860135E+04  0.00000000000E+00 0.  1.
         -2   -1    0    0    0  501 -0.00000000000E+00 -0.00000000000E+00 -0.13565359428E+02  0.13565359428E+02  0.00000000000E+00 0. -1.
         25    2    1    2    0    0  0.21495535465E+02  0.11596200817E+02  0.16788321285E+04  0.16836627582E+04  0.12508572128E+03 0.  0.
         23    2    1    2    0    0 -0.21495535465E+02 -0.11596200817E+02  0.18888852553E+03  0.21118861471E+03  0.91242676354E+02 0.  0.
          5    1    3    3  502    0 -0.32751139142E+02 -0.39260654333E+02  0.55503309059E+03  0.55739863665E+03  0.41800000000E+01 0.  1.
         -5    1    3    3    0  502  0.54246674607E+02  0.50856855150E+02  0.11237990380E+04  0.11262641216E+04  0.41800000000E+01 0.  1.
        -11    1    4    4    0    0 -0.13920389016E+02 -0.51709130612E+02  0.10277350791E+03  0.11588789992E+03  0.00000000000E+00 0. -1.
         11    1    4    4    0    0 -0.75751464495E+01  0.40112929795E+02  0.86115017625E+02  0.95300714799E+02  0.00000000000E+00 0.  1.
</event>
<event>
 8    1  0.7112384E-009  0.1053330E+03  0.7561462E-02  0.1269465E+00
          1   -1    0    0  501    0  0.00000000000E+00  0.00000000000E+00  0.10087613920E+03  0.10087613920E+03  0.00000000000E+00 0. -1.
         -1   -1    0    0    0  501 -0.00000000000E+00 -0.00000000000E+00 -0.17669854931E+03  0.17669854931E+03  0.00000000000E+00 0.  1.
         25    2    1    2    0    0 -0.55730999939E+02 -0.47807953648E+02 -0.20430226295E+02  0.14647862853E+03  0.12508816764E+03 0.  0.
         23    2    1    2    0    0  0.55730999939E+02  0.47807953648E+02 -0.55392183807E+02  0.13109605998E+03  0.93414871034E+02 0.  0.
          5    1    3    3  502    0 -0.66587718131E+02 -0.28541946165E+02 -0.64439255226E+02  0.97048734720E+02  0.41800000000E+01 0. -1.
         -5    1    3    3    0  502  0.10856718191E+02 -0.19266007483E+02  0.44009028931E+02  0.49429893806E+02  0.41800000000E+01 0. -1.
        -11    1    4    4    0    0  0.71796624981E+02  0.74835682647E+01 -0.19503015840E+02  0.74773837533E+02  0.00000000000E+00 0. -1.
         11    1    4    4    0    0 -0.16065625041E+02  0.40324385383E+02 -0.35889167967E+02  0.56322222451E+02  0.00000000000E+00 0.  1.
</event>
<event>
 8    1  0.7112384E-009  0.1399222E+03  0.7561462E-02  0.1213434E+00
         -1   -1    0    0    0  501 -0.00000000000E+00  0.00000000000E+00  0.79596033508E+02  0.79596033508E+02  0.00000000000E+00 0.  1.
          1   -1    0    0  501    0  0.00000000000E+00 -0.00000000000E+00 -0.32018829869E+03  0.32018829869E+03  0.00000000000E+00 0. -1.
         25    2    1    2    0    0  0.34193857138E+02  0.11194709019E+03 -0.13518585902E+03  0.21822936140E+03  0.12508983504E+03 0.  0.
         23    2    1    2    0    0 -0.34193857138E+02 -0.11194709019E+03 -0.10540640616E+03  0.18155497079E+03  0.90279156471E+02 0.  0.
          5    1    3    3  502    0  0.21302190927E+02  0.13040939524E+03 -0.70963676957E+02  0.15004569155E+03  0.41800000000E+01 0. -1.
         -5    1    3    3    0  502  0.12891666211E+02 -0.18462305048E+02 -0.64222182066E+02  0.68183669853E+02  0.41800000000E+01 0. -1.
        -11    1    4    4    0    0 -0.44528997233E+02 -0.86959863393E+02 -0.31173687515E+02  0.10255071052E+03  0.00000000000E+00 0.  1.
         11    1    4    4    0    0  0.10335140095E+02 -0.24987226798E+02 -0.74232718641E+02  0.79004260269E+02  0.00000000000E+00 0. -1.
</event>
<event>
 8    1  0.7112384E-009  0.1607999E+03  0.7561462E-02  0.1187797E+00
          1   -1    0    0  501    0  0.00000000000E+00  0.00000000000E+00  0.14860925003E+03  0.14860925003E+03  0.00000000000E+00 0. -1.
         -1   -1    0    0    0  501 -0.00000000000E+00 -0.00000000000E+00 -0.27909508605E+03  0.27909508605E+03  0.00000000000E+00 0.  1.
         25    2    1    2    0    0  0.15521096028E+03  0.16048503035E+01 -0.14898551185E+03  0.24886969498E+03  0.12508566904E+03 0.  0.
         23    2    1    2    0    0 -0.15521096028E+03 -0.16048503035E+01  0.18499675835E+02  0.17883464110E+03  0.86871014258E+02 0.  0.
          5    1    3    3  502    0  0.17652462015E+02 -0.10926028753E+02 -0.10005497552E+03  0.10227149185E+03  0.41800000000E+01 0. -1.
         -5    1    3    3    0  502  0.13755849826E+03  0.12530879057E+02 -0.48930536340E+02  0.14659820313E+03  0.41800000000E+01 0. -1.
        -11    1    4    4    0    0 -0.82514569605E+02  0.22699859341E+02 -0.26947950523E+02  0.89722515840E+02  0.00000000000E+00 0.  1.
         11    1    4    4    0    0 -0.72696390670E+02 -0.24304709644E+02  0.45447626358E+02  0.89112125263E+02  0.00000000000E+00 0. -1.
</event>
<event>
 8    1  0.7112384E-009  0.1811068E+03  0.7561462E-02  0.1166736E+00
         -1   -1    0    0    0  501 -0.00000000000E+00  0.00000000000E+00  0.25043038638E+03  0.25043038638E+03  0.00000000000E+00 0.  1.
          1   -1    0    0  501    0  0.00000000000E+00 -0.00000000000E+00 -0.17622853925E+03  0.17622853925E+03  0.00000000000E+00 0. -1.
         25    2    1    2    0    0  0.11029904333E+03  0.11709273656E+03 -0.40771632524E+02  0.20781347094E+03  0.12509006664E+03 0.  0.
         23    2    1    2    0    0 -0.11029904333E+03 -0.11709273656E+03  0.11497347965E+03  0.21884545468E+03  0.93796823490E+02 0.  0.
          5    1    3    3  502    0 -0.15332141293E+01 -0.97392875092E+01  0.24321725940E+02  0.26574860667E+02  0.41800000000E+01 0.  1.
         -5    1    3    3    0  502  0.11183225746E+03  0.12683202407E+03 -0.65093358464E+02  0.18123861028E+03  0.41800000000E+01 0.  1.
        -11    1    4    4    0    0 -0.42719178748E+02  0.47980214318E+01  0.94033009696E+01  0.44004219249E+02  0.00000000000E+00 0.  1.
         11    1    4    4    0    0 -0.67579864586E+02 -0.12189075799E+03  0.10557017868E+03  0.17484123543E+03  0.00000000000E+00 0. -1.
</event>
<event>
 8    1  0.7112384E-009  0.1210578E+03  0.7561462E-02  0.1241362E+00
         -1   -1    0    0    0  501 -0.00000000000E+00  0.00000000000E+00  0.26194643366E+02  0.26194643366E+02  0.00000000000E+00 0.  1.
          1   -1    0    0  501    0  0.00000000000E+00 -0.00000000000E+00 -0.77793013326E+03  0.77793013326E+03  0.00000000000E+00 0. -1.
         25    2    1    2    0    0 -0.90542524362E+02  0.10696020020E+02 -0.47674559872E+03  0.50124552860E+03  0.12509340700E+03 0.  0.
         23    2    1    2    0    0  0.90542524362E+02 -0.10696020020E+02 -0.27498989117E+03  0.30287924803E+03  0.88340506441E+02 0.  0.
          5    1    3    3  502    0 -0.41167587167E+01 -0.27444457757E+02 -0.19134868491E+02  0.33967065756E+02  0.41800000000E+01 0.  1.
         -5    1    3    3    0  502 -0.86425765645E+02  0.38140477777E+02 -0.45761073023E+03  0.46727846284E+03  0.41800000000E+01 0.  1.
        -11    1    4    4    0    0  0.11398745058E+02 -0.34911846222E+02 -0.42896988046E+02  0.56470523098E+02  0.00000000000E+00 0.  1.
         11    1    4    4    0    0  0.79143779304E+02  0.24215826202E+02 -0.23209290312E+03  0.24640872493E+03  0.00000000000E+00 0. -1.
</event>
<event>
 8    1  0.7112384E-009  0.1213763E+03  0.7561462E-02  0.1240844E+00
         -2   -1    0    0    0  501 -0.00000000000E+00  0.00000000000E+00  0.47808475673E+02  0.47808475673E+02  0.00000000000E+00 0.  1.
          2   -1    0    0  501    0  0.00000000000E+00 -0.00000000000E+00 -0.37547269819E+03  0.37547269819E+03  0.00000000000E+00 0. -1.
         25    2    1    2    0    0  0.62353184202E+02 -0.38802751522E+02 -0.22672168325E+03  0.26915368924E+03  0.12508962255E+03 0.  0.
         23    2    1    2    0    0 -0.62353184202E+02  0.38802751522E+02 -0.10094253927E+03  0.15412748463E+03  0.90400841686E+02 0.  0.
          5    1    3    3  502    0  0.69464099963E+02 -0.70729985762E+02 -0.11127192946E+03  0.14908691008E+03  0.41800000000E+01 0.  1.
         -5    1    3    3    0  502 -0.71109157608E+01  0.31927234240E+02 -0.11544975378E+03  0.12006677916E+03  0.41800000000E+01 0.  1.
        -11    1    4    4    0    0 -0.25542720752E+02  0.61991227622E+02 -0.83909867848E+02  0.10740674470E+03  0.00000000000E+00 0. -1.
         11    1    4    4    0    0 -0.36810463450E+02 -0.23188476101E+02 -0.17032671422E+02  0.46720739924E+02  0.00000000000E+00 0.  1.
</event>
<event>
 8    1  0.7112384E-009  0.1545811E+03  0.7561462E-02  0.1194954E+00
          2   -1    0    0  501    0  0.00000000000E+00  0.00000000000E+00  0.69245517279E+02  0.69245517279E+02  0.00000000000E+00 0. -1.
         -2   -1    0    0    0  501 -0.00000000000E+00 -0.00000000000E+00 -0.35194999199E+03  0.35194999199E+03  0.00000000000E+00 0.  1.
         25    2    1    2    0    0  0.11334454308E+02 -0.11095455033E+03 -0.16812031467E+03  0.23738695740E+03  0.12509494491E+03 0.  0.
         23    2    1    2    0    0 -0.11334454308E+02  0.11095455033E+03 -0.11458416004E+03  0.18380855187E+03  0.90645859899E+02 0.  0.
          5    1    3    3  502    0  0.67723043375E+02 -0.59707945206E+02 -0.78824682767E+02  0.11992602861E+03  0.41800000000E+01 0. -1.
         -5    1    3    3    0  502 -0.56388589067E+02 -0.51246605125E+02 -0.89295631907E+02  0.11746092879E+03  0.41800000000E+01 0. -1.
        -11    1    4    4    0    0 -0.43731646797E+02  0.24462251387E+02 -0.52169935284E+02  0.72336441868E+02  0.00000000000E+00 0.  1.
         11    1    4    4    0    0  0.32397192489E+02  0.86492298944E+02 -0.62414224755E+02  0.11147211001E+03  0.00000000000E+00 0. -1.
</event>
<event>
 8    1  0.7112384E-009  0.1326740E+03  0.7561462E-02  0.1223541E+00
         -2   -1    0    0    0  501 -0.00000000000E+00  0.00000000000E+00  0.16137425402E+02  0.16137425402E+02  0.00000000000E+00 0. -1.
          2   -1    0    0  501    0  0.00000000000E+00 -0.00000000000E+00 -0.11911459813E+04  0.11911459813E+04  0.00000000000E+00 0.  1.
         25    2    1    2    0    0 -0.57658109623E+02 -0.60805795117E+02 -0.54794038383E+03  0.56825033615E+03  0.12509187817E+03 0.  0.
         23    2    1    2    0    0  0.57658109623E+02  0.60805795117E+02 -0.62706817210E+03  0.63903307058E+03  0.90149711635E+02 0.  0.
          5    1    3    3  502    0 -0.41543476538E+02  0.29127500322E+02 -0.11515801321E+03  0.12590914234E+03  0.41800000000E+01 0. -1.
         -5    1    3    3    0  502 -0.16114633085E+02 -0.89933295439E+02 -0.43278237062E+03  0.44234119381E+03  0.41800000000E+01 0. -1.
        -11    1    4    4    0    0  0.81883378445E+02  0.52943414626E+02 -0.48631122551E+03  0.49599042418E+03  0.00000000000E+00 0.  1.
         11    1    4    4    0    0 -0.24225268822E+02  0.78623804917E+01 -0.14075694659E+03  0.14304264640E+03  0.00000000000E+00 0. -1.
</event>
<event>
 8    1  0.7112384E-009  0.2009401E+03  0.7561462E-02  0.1148948E+00
          2   -1    0    0  501    0  0.00000000000E+00  0.00000000000E+00  0.17298343798E+04  0.17298343798E+04  0.00000000000E+00 0. -1.
         -2   -1    0    0    0  501 -0.00000000000E+00 -0.00000000000E+00 -0.33328820356E+02  0.33328820356E+02  0.00000000000E+00 0.  1.
         25    2    1    2    0    0 -0.16661342897E+03 -0.71063666877E+02  0.12925594865E+04  0.13111713122E+04  0.12510037790E+03 0.  0.
         23    2    1    2    0    0  0.16661342897E+03  0.71063666877E+02  0.40394607295E+03  0.45199188788E+03  0.91182001470E+02 0.  0.
          5    1    3    3  502    0 -0.92924725378E+02 -0.82622386670E+02  0.50595718256E+03  0.52102937187E+03  0.41800000000E+01 0.  1.
         -5    1    3    3    0  502 -0.73688703592E+02  0.11558719792E+02  0.78660230390E+03  0.79014194038E+03  0.41800000000E+01 0.  1.
        -11    1    4    4    0    0  0.74227080188E+02  0.80968331003E+02  0.21481997966E+03  0.24127402206E+03  0.00000000000E+00 0. -1.
         11    1    4    4    0    0  0.92386348781E+02 -0.99046641251E+01  0.18912609329E+03  0.21071786582E+03  0.00000000000E+00 0.  1.
</event>
<event>
 8    1  0.7112384E-009  0.1314691E+03  0.7561462E-02  0.1225292E+00
          1   -1    0    0  501    0  0.00000000000E+00  0.00000000000E+00  0.16072693701E+02  0.16072693701E+02  0.00000000000E+00 0. -1.
         -1   -1    0    0    0  501 -0.00000000000E+00 -0.00000000000E+00 -0.13421334538E+04  0.13421334538E+04  0.00000000000E+00 0.  1.
         25    2    1    2    0    0  0.54143521057E+02  0.76727272589E+02 -0.84302674010E+03  0.85741553248E+03  0.12509482638E+03 0.  0.
         23    2    1    2    0    0 -0.54143521057E+02 -0.76727272589E+02 -0.48303402003E+03  0.50079061505E+03  0.93009571463E+02 0.  0.
          5    1    3    3  502    0  0.73602654717E+02 -0.27723502844E+01 -0.35929102733E+03  0.36678679287E+03  0.41800000000E+01 0. -1.
         -5    1    3    3    0  502 -0.19459133659E+02  0.79499622873E+02 -0.48373571277E+03  0.49062873960E+03  0.41800000000E+01 0. -1.
        -11    1    4    4    0    0  0.79111938337E+01 -0.25641421239E+02 -0.28268799657E+02  0.38976845756E+02  0.00000000000E+00 0. -1.
         11    1    4    4    0    0 -0.62054714891E+02 -0.51085851350E+02 -0.45476522037E+03  0.46181376929E+03  0.00000000000E+00 0.  1.
</event>
<event>
 8    1  0.7112384E-009  0.8930075E+02  0.7561462E-02  0.1304554E+00
         -1   -1    0    0    0  501 -0.00000000000E+00  0.00000000000E+00  0.15758656804E+03  0.15758656804E+03  0.00000000000E+00 0. -1.
          1   -1    0    0  501    0  0.00000000000E+00 -0.00000000000E+00 -0.12831851062E+03  0.12831851062E+03  0.00000000000E+00 0.  1.
         25    2    1    2    0    0  0.65704952500E+02 -0.37898845507E+02 -0.37724950125E+02  0.15107601429E+03  0.12508927595E+03 0.  0.
         23    2    1    2    0    0 -0.65704952500E+02  0.37898845507E+02  0.66993007550E+02  0.13482906437E+03  0.89091808071E+02 0.  0.
          5    1    3    3  502    0  0.92401844428E+01 -0.72014149993E+00  0.43868482293E+02  0.45031275254E+02  0.41800000000E+01 0. -1.
         -5    1    3    3    0  502  0.56464768057E+02 -0.37178704007E+02 -0.81593432418E+02  0.10604473904E+03  0.41800000000E+01 0. -1.
        -11    1    4    4    0    0 -0.55229175520E+02 -0.60128802516E+01  0.18674489737E+01  0.55586904242E+02  0.00000000000E+00 0.  1.
         11    1    4    4    0    0 -0.10475776980E+02  0.43911725758E+02  0.65125558577E+02  0.79242160131E+02  0.00000000000E+00 0. -1.
</event>
<event>
 8    1  0.7112384E-009  0.2593433E+03  0.7561462E-02  0.1107538E+00
          2   -1    0    0  501    0  0.00000000000E+00  0.00000000000E+00  0.31466503410E+03  0.31466503410E+03  0.00000000000E+00 0. -1.
         -2   -1    0    0    0  501 -0.00000000000E+00 -0.00000000000E+00 -0.24523305089E+03  0.24523305089E+03  0.00000000000E+00 0.  1.
         25    2    1    2    0    0 -0.22898296248E+03 -0.55234475680E+02 -0.64324899855E+02  0.27435137075E+03  0.12508771914E+03 0.  0.
         23    2    1    2    0    0  0.22898296248E+03  0.55234475680E+02  0.13375688307E+03  0.28554671424E+03  0.90343665175E+02 0.  0.
          5    1    3    3  502    0  0.10385440888E+02 -0.22420478066E+02 -0.58765482712E+01  0.25739880317E+02  0.41800000000E+01 0.  1.
         -5    1    3    3    0  502 -0.23936840337E+03 -0.32813997614E+02 -0.58448351584E+02  0.24861149043E+03  0.41800000000E+01 0.  1.
        -11    1    4    4    0    0  0.13638512833E+03 -0.12937362731E+02  0.65791497568E+02  0.15197631308E+03  0.00000000000E+00 0.  1.
         11    1    4    4    0    0  0.92597834146E+02  0.68171838411E+02  0.67965385498E+02  0.13357040116E+03  0.00000000000E+00 0. -1.
</event>
<event>
 8    1  0.7112384E-009  0.6508394E+02  0.7561462E-02  0.1377656E+00
          1   -1    0    0  501    0  0.00000000000E+00  0.00000000000E+00  0.49888860237E+02  0.49888860237E+02  0.00000000000E+00 0.  1.
         -1   -1    0    0    0  501 -0.00000000000E+00 -0.00000000000E+00 -0.31845375624E+03  0.31845375624E+03  0.00000000000E+00 0. -1.
         25    2    1    2    0    0  0.11285376106E+02  0.41901254353E+02 -0.81528170380E+02  0.15549099654E+03  0.12509009796E+03 0.  0.
         23    2    1    2    0    0 -0.11285376106E+02 -0.41901254353E+02 -0.18703672563E+03  0.21285161994E+03  0.91869475608E+02 0.  0.
          5    1    3    3  502    0 -0.76762259436E+01  0.40051648942E+01 -0.10596235115E+03  0.10639764120E+03  0.41800000000E+01 0.  1.
         -5    1    3    3    0  502  0.18961602050E+02  0.37896089458E+02  0.24434180773E+02  0.49093355340E+02  0.41800000000E+01 0.  1.
        -11    1    4    4    0    0 -0.37331756958E+02 -0.34653758813E+02 -0.17671967172E+03  0.18391407083E+03  0.00000000000E+00 0. -1.
         11    1    4    4    0    0  0.26046380852E+02 -0.72474955401E+01 -0.10317053905E+02  0.28937549108E+02  0.00000000000E+00 0.  1.
</event>
<event>
 8    1  0.7112384E-009  0.1124869E+03  0.7561462E-02  0.1256033E+00
         -2   -1    0    0    0  501 -0.00000000000E+00  0.00000000000E+00  0.14193906756E+03  0.14193906756E+03  0.00000000000E+00 0.  1.
          2   -1    0    0  501    0  0.00000000000E+00 -0.00000000000E+00 -0.10286859509E+03  0.10286859509E+03  0.00000000000E+00 0. -1.
         25    2    1    2    0    0  0.25774631383E+02  0.36819563129E+02 -0.13778479619E+02  0.13363817922E+03  0.12509718060E+03 0.  0.
         23    2    1    2    0    0 -0.25774631383E+02 -0.36819563129E+02  0.52848952089E+02  0.11116948343E+03  0.86865588451E+02 0.  0.
          5    1    3    3  502    0  0.65270503169E+02 -0.14107115655E+02  0.27817698770E+01  0.66966110382E+02  0.41800000000E+01 0. -1.
         -5    1    3    3    0  502 -0.39495871786E+02  0.50926678784E+02 -0.16560249496E+02  0.66672068840E+02  0.41800000000E+01 0. -1.
        -11    1    4    4    0    0 -0.30531854727E+02  0.19977422809E+02  0.51515347290E+01  0.36848743333E+02  0.00000000000E+00 0. -1.
         11    1    4    4    0    0  0.47572233437E+01 -0.56796985938E+02  0.47697417360E+02  0.74320740096E+02  0.00000000000E+00 0.  1.
</event>
<event>
 8    1  0.7112384E-009  0.9443555E+02  0.7561462E-02  0.1292452E+00
          1   -1    0    0  501    0  0.00000000000E+00  0.00000000000E+00  0.63337886838E+03  0.63337886838E+03  0.00000000000E+00 0. -1.
         -1   -1    0    0    0  501 -0.00000000000E+00 -0.00000000000E+00 -0.20033693325E+02  0.20033693325E+02  0.00000000000E+00 0.  1.
         25    2    1    2    0    0  0.34271546220E+02 -0.10717240487E+02  0.35450667982E+03  0.37764001749E+03  0.12509036194E+03 0.  0.
         23    2    1    2    0    0 -0.34271546220E+02  0.10717240487E+02  0.25883849523E+03  0.27577254421E+03  0.88112038920E+02 0.  0.
          5    1    3    3  502    0  0.51829762167E+02 -0.41411756736E+02  0.96449010782E+02  0.11713727811E+03  0.41800000000E+01 0.  1.
         -5    1    3    3    0  502 -0.17558215947E+02  0.30694516250E+02  0.25805766904E+03  0.26050273938E+03  0.41800000000E+01 0.  1.
        -11    1    4    4    0    0 -0.13227882298E+02 -0.34481844872E+02  0.16937014193E+03  0.17334999127E+03  0.00000000000E+00 0. -1.
         11    1    4    4    0    0 -0.21043663921E+02  0.45199085358E+02  0.89468353304E+02  0.10242255294E+03  0.00000000000E+00 0.  1.
</event>
<event>
 8    1  0.7112384E-009  0.7188700E+02  0.7561462E-02  0.1353791E+00
          1   -1    0    0  501    0  0.00000000000E+00  0.00000000000E+00  0.14970416409E+03  0.14970416409E+03  0.00000000000E+00 0. -1.
         -1   -1    0    0    0  501 -0.00000000000E+00 -0.00000000000E+00 -0.93716468338E+02  0.93716468338E+02  0.00000000000E+00 0.  1.
         25    2    1    2    0    0 -0.84041517074E+01  0.11067111799E+02  0.90334489102E+02  0.15492197644E+03  0.12508952048E+03 0.  0.
         23    2    1    2    0    0  0.84041517074E+01 -0.11067111799E+02 -0.34346793353E+02  0.88498655981E+02  0.80369143129E+02 0.  0.
          5    1    3    3  502    0 -0.29937644286E+02  0.23010349812E+02 -0.19207150505E+02  0.42569070631E+02  0.41800000000E+01 0. -1.
         -5    1    3    3    0  502  0.21533492579E+02 -0.11943238013E+02  0.10954163961E+03  0.11235290581E+03  0.41800000000E+01 0. -1.
        -11    1    4    4    0    0  0.14803758876E+02  0.33058122370E+02 -0.21397034131E+02  0.42069273836E+02  0.00000000000E+00 0.  1.
         11    1    4    4    0    0 -0.63996071682E+01 -0.44125234170E+02 -0.12949759222E+02  0.46429382145E+02  0.00000000000E+00 0. -1.
</event>
<event>
 8    1  0.7112384E-009  0.1502160E+03  0.7561462E-02  0.1200208E+00
          2   -1    0    0  501    0  0.00000000000E+00  0.00000000000E+00  0.30066703486E+03  0.30066703486E+03  0.00000000000E+00 0. -1.
         -2   -1    0    0    0  501 -0.00000000000E+00 -0.00000000000E+00 -0.10187825546E+03  0.10187825546E+03  0.00000000000E+00 0.  1.
         25    2    1    2    0    0  0.10298285129E+02 -0.13484790067E+03  0.11195172760E+03  0.21557011872E+03  0.12508907139E+03 0.  0.
         23    2    1    2    0    0 -0.10298285129E+02  0.13484790067E+03  0.86837051802E+02  0.18697517159E+03  0.95545958748E+02 0.  0.
          5    1    3    3  502    0  0.23687269929E+02 -0.73406962750E+02 -0.10397216826E+02  0.77943848087E+02  0.41800000000E+01 0. -1.
         -5    1    3    3    0  502 -0.13388984800E+02 -0.61440937925E+02  0.12234894442E+03  0.13762627063E+03  0.41800000000E+01 0. -1.
        -11    1    4    4    0    0 -0.31851628682E+02  0.98779064969E+01  0.12405401682E+00  0.33348383407E+02  0.00000000000E+00 0.  1.
         11    1    4    4    0    0  0.21553343553E+02  0.12496999418E+03  0.86712997786E+02  0.15362678818E+03  0.00000000000E+00 0. -1.
</event>
<event>
 8    1  0.7112384E-009  0.1532687E+03  0.7561462E-02  0.1196513E+00
          2   -1    0    0  501    0  0.00000000000E+00  0.00000000000E+00  0.54619866566E+03  0.54619866566E+03  0.00000000000E+00 0. -1.
         -2   -1    0    0    0  501 -0.00000000000E+00 -0.00000000000E+00 -0.46547148793E+02  0.46547148793E+02  0.00000000000E+00 0.  1.
         25    2    1    2    0    0  0.75819674586E+02  0.84174784044E+02  0.22270876212E+03  0.27942617015E+03  0.12508307047E+03 0.  0.
         23    2    1    2    0    0 -0.75819674586E+02 -0.84174784044E+02  0.27694275475E+03  0.31331964430E+03  0.92940264540E+02 0.  0.
          5    1    3    3  502    0 -0.22793908024E+02 -0.14852198989E+02  0.24387530090E+02  0.36774639111E+02  0.41800000000E+01 0. -1.
         -5    1    3    3    0  502  0.98613582611E+02  0.99026983033E+02  0.19832123203E+03  0.24265153104E+03  0.41800000000E+01 0. -1.
        -11    1    4    4    0    0 -0.70214282006E+02 -0.17600302466E+02  0.94564181846E+02  0.11908904455E+03  0.00000000000E+00 0.  1.
         11    1    4    4    0    0 -0.56053925797E+01 -0.66574481578E+02  0.18237857290E+03  0.19423059975E+03  0.00000000000E+00 0. -1.
</event>
<event>
 8    1  0.7112384E-009  0.1079307E+03  0.7561462E-02  0.1264451E+00
         -4   -1    0    0    0  501 -0.00000000000E+00  0.00000000000E+00  0.40595902318E+03  0.40595902318E+03  0.00000000000E+00 0.  1.
          4   -1    0    0  501    0  0.00000000000E+00 -0.00000000000E+00 -0.38756191383E+02  0.38756191383E+02  0.00000000000E+00 0. -1.
         25    2    1    2    0    0 -0.44429768029E+02 -0.29110431304E+02  0.27848699442E+03  0.30987756070E+03  0.12509066737E+03 0.  0.
         23    2    1    2    0    0  0.44429768029E+02  0.29110431304E+02  0.88715837370E+02  0.13483765386E+03  0.86540577769E+02 0.  0.
          5    1    3    3  502    0  0.34149457296E+02 -0.44434109037E+00  0.16661428596E+03  0.17012987850E+03  0.41800000000E+01 0. -1.
         -5    1    3    3    0  502 -0.78579225325E+02 -0.28666090214E+02  0.11187270846E+03  0.13974768220E+03  0.41800000000E+01 0. -1.
        -11    1    4    4    0    0  0.19831477037E+02 -0.28696432672E+02  0.14965128090E+02  0.37956920163E+02  0.00000000000E+00 0.  1.
         11    1    4    4    0    0  0.24598290992E+02  0.57806863976E+02  0.73750709280E+02  0.96880733698E+02  0.00000000000E+00 0. -1.
</event>
<event>
 8    1  0.7112384E-009  0.9973075E+02  0.7561462E-02  0.1280863E+00
          1   -1    0    0  501    0  0.00000000000E+00  0.00000000000E+00  0.55440109772E+03  0.55440109772E+03  0.00000000000E+00 0. -1.
         -1   -1    0    0    0  501 -0.00000000000E+00 -0.00000000000E+00 -0.29440211785E+02  0.29440211785E+02  0.00000000000E+00 0.  1.
         25    2    1    2    0    0 -0.10168655112E+02  0.64253191930E+02  0.24477060722E+03  0.28247518091E+03  0.12509078085E+03 0.  0.
         23    2    1    2    0    0  0.10168655112E+02 -0.64253191930E+02  0.28019027872E+03  0.30136612859E+03  0.89905933926E+02 0.  0.
          5    1    3    3  502    0 -0.39354933165E+02  0.86570328889E+01  0.13356483241E+02  0.42657039600E+02  0.41800000000E+01 0.  1.
         -5    1    3    3    0  502  0.29186278053E+02  0.55596159041E+02  0.23141412398E+03  0.23981814131E+03  0.41800000000E+01 0.  1.
        -11    1    4    4    0    0  0.24780691478E+02  0.49667775076E+01  0.21514709369E+02  0.33190876279E+02  0.00000000000E+00 0.  1.
         11    1    4    4    0    0 -0.14612036366E+02 -0.69219969437E+02  0.25867556935E+03  0.26817525231E+03  0.00000000000E+00 0. -1.
</event>
<event>
 8    1  0.7112384E-009  0.1164075E+03  0.7561462E-02  0.1249144E+00
          1   -1    0    0  501    0  0.00000000000E+00  0.00000000000E+00  0.79817048628E+02  0.79817048628E+02  0.00000000000E+00 0. -1.
         -1   -1    0    0    0  501 -0.00000000000E+00 -0.00000000000E+00 -0.29804700878E+03  0.29804700878E+03  0.00000000000E+00 0.  1.
         25    2    1    2    0    0  0.44100141928E+02 -0.14608285070E+02 -0.23874008134E+03  0.27349999313E+03  0.12508874967E+03 0.  0.
         23    2    1    2    0    0 -0.44100141928E+02  0.14608285070E+02  0.20510121188E+02  0.10436406428E+03  0.91175480972E+02 0.  0.
          5    1    3    3  502    0 -0.39457816338E+02 -0.24331651749E+02 -0.60240480854E+02  0.76127107396E+02  0.41800000000E+01 0. -1.
         -5    1    3    3    0  502  0.83557958267E+02  0.97233666793E+01 -0.17849960048E+03  0.19737288573E+03  0.41800000000E+01 0. -1.
        -11    1    4    4    0    0  0.87020762047E+01  0.41769372361E+02  0.12418986694E+02  0.44436897149E+02  0.00000000000E+00 0.  1.
         11    1    4    4    0    0 -0.52802218133E+02 -0.27161087291E+02  0.80911344940E+01  0.59927167128E+02  0.00000000000E+00 0. -1.
</event>
<event>
 8    1  0.7112384E-009  0.1583221E+03  0.7561462E-02  0.1190604E+00
         -2   -1    0    0    0  501 -0.00000000000E+00  0.00000000000E+00  0.68049318649E+02  0.68049318649E+02  0.00000000000E+00 0.  1.
          2   -1    0    0  501    0  0.00000000000E+00 -0.00000000000E+00 -0.49222758381E+03  0.49222758381E+03  0.00000000000E+00 0. -1.
         25    2    1    2    0    0 -0.14310090429E+03 -0.40507438736E+02 -0.23357523054E+03  0.30384878038E+03  0.12509185270E+03 0.  0.
         23    2    1    2    0    0  0.14310090429E+03  0.40507438736E+02 -0.19060303462E+03  0.25642812208E+03  0.85481831906E+02 0.  0.
          5    1    3    3  502    0 -0.20066207437E+02 -0.17523574993E+02 -0.15203850183E+03  0.15441148533E+03  0.41800000000E+01 0. -1.
         -5    1    3    3    0  502 -0.12303469686E+03 -0.22983863743E+02 -0.81536728712E+02  0.14943729505E+03  0.41800000000E+01 0. -1.
        -11    1    4    4    0    0  0.12350242159E+03  0.59557817303E+02 -0.18181055184E+03  0.22771705799E+03  0.00000000000E+00 0.  1.
         11    1    4    4    0    0  0.19598482700E+02 -0.19050378566E+02 -0.87924827804E+01  0.28711064089E+02  0.00000000000E+00 0. -1.
</event>
<event>
 8    1  0.7112384E-009  0.1259789E+03  0.7561462E-02  0.1233547E+00
         -2   -1    0    0    0  501 -0.00000000000E+00  0.00000000000E+00  0.72942052363E+02  0.72942052363E+02  0.00000000000E+00 0.  1.
          2   -1    0    0  501    0  0.00000000000E+00 -0.00000000000E+00 -0.30234232677E+03  0.30234232677E+03  0.00000000000E+00 0. -1.
         25    2    1    2    0    0  0.47092540563E+02  0.81663374138E+02 -0.17184734821E+03  0.23252067482E+03  0.12509092324E+03 0.  0.
         23    2    1    2    0    0 -0.47092540563E+02 -0.81663374138E+02 -0.57552926194E+02  0.14276370431E+03  0.90457293258E+02 0.  0.
          5    1    3    3  502    0 -0.26336649055E+02  0.78298289025E+02 -0.83783033661E+02  0.11773406592E+03  0.41800000000E+01 0. -1.
         -5    1    3    3    0  502  0.73429189618E+02  0.33650851131E+01 -0.88064314549E+02  0.11478660890E+03  0.41800000000E+01 0. -1.
        -11    1    4    4    0    0 -0.11216316923E+02 -0.35025688058E+02 -0.73164142163E+02  0.81887705351E+02  0.00000000000E+00 0.  1.
         11    1    4    4    0    0 -0.35876223641E+02 -0.46637686080E+02  0.15611215969E+02  0.60875998962E+02  0.00000000000E+00 0. -1.
</event>
<event>
 8    1  0.7112384E-009  0.9694066E+02  0.7561462E-02  0.1286864E+00
         -3   -1    0    0    0  501 -0.00000000000E+00  0.00000000000E+00  0.54485508921E+03  0.54485508921E+03  0.00000000000E+00 0.  1.
          3   -1    0    0  501    0  0.00000000000E+00 -0.00000000000E+00 -0.26703396118E+02  0.26703396118E+02  0.00000000000E+00 0. -1.
         25    2    1    2    0    0 -0.28260004686E+02  0.11690304446E+02  0.38742656808E+03  0.40826723812E+03  0.12508997157E+03 0.  0.
         23    2    1    2    0    0  0.28260004686E+02 -0.11690304446E+02  0.13072512501E+03  0.16329124720E+03  0.92949889839E+02 0.  0.
          5    1    3    3  502    0 -0.61533055680E+01 -0.48221160614E+02  0.75861212143E+02  0.90197225058E+02  0.41800000000E+01 0.  1.
         -5    1    3    3    0  502 -0.22106699118E+02  0.59911465059E+02  0.31156535593E+03  0.31807001306E+03  0.41800000000E+01 0.  1.
        -11    1    4    4    0    0 -0.12733255236E+02 -0.32655247706E+02  0.10468001972E+03  0.11039206276E+03  0.00000000000E+00 0.  1.
         11    1    4    4    0    0  0.40993259922E+02  0.20964943260E+02  0.26045105286E+02  0.52899184439E+02  0.00000000000E+00 0. -1.
</event>
<event>
 8    1  0.7112384E-009  0.1401498E+03  0.7561462E-02  0.1213128E+00
         -2   -1    0    0    0  501 -0.00000000000E+00  0.00000000000E+00  0.27121118357E+02  0.27121118357E+02  0.00000000000E+00 0.  1.
          2   -1    0    0  501    0  0.00000000000E+00 -0.00000000000E+00 -0.94474966971E+03  0.94474966971E+03  0.00000000000E+00 0. -1.
         25    2    1    2    0    0 -0.37439368939E+02 -0.10968335556E+03 -0.53793618780E+03  0.56431819427E+03  0.12509011714E+03 0.  0.
         23    2    1    2    0    0  0.37439368939E+02  0.10968335556E+03 -0.37969236355E+03  0.40755259380E+03  0.92199137393E+02 0.  0.
          5    1    3    3  502    0  0.19570362872E+02 -0.10464845355E+03 -0.26907441713E+03  0.28940078142E+03  0.41800000000E+01 0.  1.
         -5    1    3    3    0  502 -0.57009731810E+02 -0.50349020105E+01 -0.26886177067E+03  0.27491741285E+03  0.41800000000E+01 0.  1.
        -11    1    4    4    0    0  0.36063199498E+01  0.23661151696E+02 -0.90999370115E+01  0.25605946512E+02  0.00000000000E+00 0.  1.
         11    1    4    4    0    0  0.33833048989E+02  0.86022203865E+02 -0.37059242654E+03  0.38194664728E+03  0.00000000000E+00 0. -1.
</event>
<event>
 8    1  0.7112384E-009  0.8023025E+02  0.7561462E-02  0.1328399E+00
          2   -1    0    0  501    0  0.00000000000E+00  0.00000000000E+00  0.45225340018E+03  0.45225340018E+03  0.00000000000E+00 0. -1.
         -2   -1    0    0    0  501 -0.00000000000E+00 -0.00000000000E+00 -0.33632197996E+02  0.33632197996E+02  0.00000000000E+00 0.  1.
         25    2    1    2    0    0  0.57924714736E+02 -0.15684025490E+02  0.24078049619E+03  0.27789114278E+03  0.12508788372E+03 0.  0.
         23    2    1    2    0    0 -0.57924714736E+02  0.15684025490E+02  0.17784070599E+03  0.20799445540E+03  0.89627649396E+02 0.  0.
          5    1    3    3  502    0  0.22440904405E+02 -0.27249405746E+01 -0.94026864516E+01  0.24837520089E+02  0.41800000000E+01 0. -1.
         -5    1    3    3    0  502  0.35483810330E+02 -0.12959084916E+02  0.25018318265E+03  0.25305362269E+03  0.41800000000E+01 0. -1.
        -11    1    4    4    0    0 -0.72951040767E+01 -0.30241560096E+02  0.98361986534E+02  0.10316419386E+03  0.00000000000E+00 0. -1.
         11    1    4    4    0    0 -0.50629610659E+02  0.45925585587E+02  0.79478719457E+02  0.10483026153E+03  0.00000000000E+00 0.  1.
</event>
<event>
 8    1  0.7112384E-009  0.8221285E+02  0.7561462E-02  0.1322886E+00
         -2   -1    0    0    0  501 -0.00000000000E+00  0.00000000000E+00  0.27510253015E+03  0.27510253015E+03  0.00000000000E+00 0. -1.
          2   -1    0    0  501    0  0.00000000000E+00 -0.00000000000E+00 -0.52554812704E+02  0.52554812704E+02  0.00000000000E+00 0.  1.
         25    2    1    2    0    0  0.37047272358E+02 -0.54384449580E+01  0.94941310155E+02  0.16144218505E+03  0.12509056586E+03 0.  0.
         23    2    1    2    0    0 -0.37047272358E+02  0.54384449580E+01  0.12760640729E+03  0.16621515781E+03  0.99709610519E+02 0.  0.
          5    1    3    3  502    0  0.56751532596E+02  0.44455238598E+02  0.33000060241E+02  0.79394464963E+02  0.41800000000E+01 0. -1.
         -5    1    3    3    0  502 -0.19704260238E+02 -0.49893683556E+02  0.61941249914E+02  0.82047720086E+02  0.41800000000E+01 0. -1.
        -11    1    4    4    0    0 -0.99011966535E+01 -0.23314405014E+01 -0.16491832233E+02  0.19376528079E+02  0.00000000000E+00 0.  1.
         11    1    4    4    0    0 -0.27146075704E+02  0.77698854594E+01  0.14409823952E+03  0.14683862973E+03  0.00000000000E+00 0. -1.
</event>
<event>
 8    1  0.7112384E-009  0.1279417E+03  0.7561462E-02  0.1230542E+00
          2   -1    0    0  501    0  0.00000000000E+00  0.00000000000E+00  0.59919335705E+03  0.59919335705E+03  0.00000000000E+00 0. -1.
         -2   -1    0    0    0  501 -0.00000000000E+00 -0.00000000000E+00 -0.33587404478E+02  0.33587404478E+02  0.00000000000E+00 0.  1.
         25    2    1    2    0    0 -0.42982358195E+02  0.67883752657E+02  0.40598536577E+03  0.43234991600E+03  0.12508655266E+03 0.  0.
         23    2    1    2    0    0  0.42982358195E+02 -0.67883752657E+02  0.15962058680E+03  0.20043084552E+03  0.90764007824E+02 0.  0.
          5    1    3    3  502    0 -0.72212122312E+02  0.82118259364E+02  0.24911534522E+03  0.27209176165E+03  0.41800000000E+01 0.  1.
         -5    1    3    3    0  502  0.29229764118E+02 -0.14234506707E+02  0.15687002054E+03  0.16025815435E+03  0.41800000000E+01 0.  1.
        -11    1    4    4    0    0 -0.77461077013E+01 -0.62138012801E+02  0.52303524687E+02  0.81589175226E+02  0.00000000000E+00 0.  1.
         11    1    4    4    0    0  0.50728465896E+02 -0.57457398561E+01  0.10731706211E+03  0.11884167030E+03  0.00000000000E+00 0. -1.
</event>
<event>
 8    1  0.7112384E-009  0.1056046E+03  0.7561462E-02  0.1268933E+00
          2   -1    0    0  501    0  0.00000000000E+00  0.00000000000E+00  0.91066393081E+03  0.91066393081E+03  0.00000000000E+00 0. -1.
         -2   -1    0    0    0  501 -0.00000000000E+00 -0.00000000000E+00 -0.12723969184E+02  0.12723969184E+02  0.00000000000E+00 0.  1.
         25    2    1    2    0    0 -0.10989702704E+02  0.21036604005E+02  0.51933067035E+03  0.53470934951E+03  0.12508569468E+03 0.  0.
         23    2    1    2    0    0  0.10989702704E+02 -0.21036604005E+02  0.37860929128E+03  0.38867855049E+03  0.84632782608E+02 0.  0.
          5    1    3    3  502    0 -0.56155444904E+02 -0.24474072082E+02  0.29698614656E+03  0.30326664480E+03  0.41800000000E+01 0. -1.
         -5    1    3    3    0  502  0.45165742200E+02  0.45510676087E+02  0.22234452378E+03  0.23144270471E+03  0.41800000000E+01 0. -1.
        -11    1    4    4    0    0  0.45035079218E+02  0.91902192804E+00  0.15430169504E+03  0.16074207929E+03  0.00000000000E+00 0.  1.
         11    1    4    4    0    0 -0.34045376515E+02 -0.21955625933E+02  0.22430759624E+03  0.22793647120E+03  0.00000000000E+00 0. -1.
</event>
<event>
 8    1  0.7112384E-009  0.1437153E+03  0.7561462E-02  0.1208415E+00
          1   -1    0    0  501    0  0.00000000000E+00  0.00000000000E+00  0.49370922332E+03  0.49370922332E+03  0.00000000000E+00 0. -1.
         -1   -1    0    0    0  501 -0.00000000000E+00 -0.00000000000E+00 -0.48804721742E+02  0.48804721742E+02  0.00000000000E+00 0.  1.
         25    2    1    2    0    0  0.33136188513E+02 -0.99864971985E+02  0.19012972627E+03  0.25073661181E+03  0.12509402892E+03 0.  0.
         23    2    1    2    0    0 -0.33136188513E+02  0.99864971985E+02  0.25477477531E+03  0.29177733326E+03  0.95670300763E+02 0.  0.
          5    1    3    3  502    0  0.26115053151E+02 -0.12074204391E+03  0.19188392722E+03  0.22824887972E+03  0.41800000000E+01 0. -1.
         -5    1    3    3    0  502  0.70211353618E+01  0.20877071920E+02 -0.17542009475E+01  0.22487732093E+02  0.41800000000E+01 0. -1.
        -11    1    4    4    0    0  0.29231071190E+02  0.78845226914E+01  0.42627028063E+02  0.52284651118E+02  0.00000000000E+00 0.  1.
         11    1    4    4    0    0 -0.62367259703E+02  0.91980449294E+02  0.21214774725E+03  0.23949268214E+03  0.00000000000E+00 0. -1.
</event>
<event>
 8    1  0.7112384E-009  0.1252618E+03  0.7561462E-02  0.1234661E+00
          2   -1    0    0  501    0  0.00000000000E+00  0.00000000000E+00  0.69833224491E+03  0.69833224491E+03  0.00000000000E+00 0. -1.
         -2   -1    0    0    0  501 -0.00000000000E+00 -0.00000000000E+00 -0.25736379516E+02  0.25736379516E+02  0.00000000000E+00 0.  1.
         25    2    1    2    0    0  0.56587728307E+02 -0.41951747373E+02  0.45980455196E+03  0.48169400809E+03  0.12508705498E+03 0.  0.
         23    2    1    2    0    0 -0.56587728307E+02  0.41951747373E+02  0.21279131343E+03  0.24237461633E+03  0.92212751116E+02 0.  0.
          5    1    3    3  502    0  0.62765734405E+02  0.28502702250E+02  0.17316078944E+03  0.18642444274E+03  0.41800000000E+01 0. -1.
         -5    1    3    3    0  502 -0.61780060987E+01 -0.70454449623E+02  0.28664376252E+03  0.29526956535E+03  0.41800000000E+01 0. -1.
        -11    1    4    4    0    0 -0.47509639924E+02 -0.17382526796E+02  0.61647128240E+02  0.79747642873E+02  0.00000000000E+00 0.  1.
         11    1    4    4    0    0 -0.90780883825E+01  0.59334274168E+02  0.15114418519E+03  0.16262697346E+03  0.00000000000E+00 0. -1.
</event>
<event>
 8    1  0.7112384E-009  0.1379094E+03  0.7561462E-02  0.1216170E+00
         -2   -1    0    0    0  501 -0.00000000000E+00  0.00000000000E+00  0.17609436304E+02  0.17609436304E+02  0.00000000000E+00 0.  1.
          2   -1    0    0  501    0  0.00000000000E+00 -0.00000000000E+00 -0.15041108315E+04  0.15041108315E+04  0.00000000000E+00 0. -1.
         25    2    1    2    0    0  0.11975212061E+03 -0.96200858424E+01 -0.73220649083E+03  0.75246737814E+03  0.12509074112E+03 0.  0.
         23    2    1    2    0    0 -0.11975212061E+03  0.96200858424E+01 -0.75429490439E+03  0.76925288968E+03  0.91411646175E+02 0.  0.
          5    1    3    3  502    0  0.77341441942E+02 -0.23291269385E+02 -0.67502678659E+03  0.67985499696E+03  0.41800000000E+01 0. -1.
         -5    1    3    3    0  502  0.42410678671E+02  0.13671183542E+02 -0.57179704237E+02  0.72612381185E+02  0.41800000000E+01 0. -1.
        -11    1    4    4    0    0 -0.71140258525E+02 -0.39252520778E+02 -0.36889746289E+03  0.37773937430E+03  0.00000000000E+00 0. -1.
         11    1    4    4    0    0 -0.48611862087E+02  0.48872606620E+02 -0.38539744149E+03  0.39151351538E+03  0.00000000000E+00 0.  1.
</event>
<event>
 8    1  0.7112384E-009  0.1493673E+03  0.7561462E-02  0.1201253E+00
         -1   -1    0    0    0  501 -0.00000000000E+00  0.00000000000E+00  0.36527792871E+03  0.36527792871E+03  0.00000000000E+00 0.  1.
          1   -1    0    0  501    0  0.00000000000E+00 -0.00000000000E+00 -0.10618050407E+03  0.10618050407E+03  0.00000000000E+00 0. -1.
         25    2    1    2    0    0  0.98206551608E+02 -0.78559390259E+02  0.79891189926E+01  0.17755746162E+03  0.12508685614E+03 0.  0.
         23    2    1    2    0    0 -0.98206551608E+02  0.78559390259E+02  0.25110830565E+03  0.29390097116E+03  0.86638877544E+02 0.  0.
          5    1    3    3  502    0 -0.23886419951E+02 -0.31075703699E+02 -0.18971235214E+02  0.43745177837E+02  0.41800000000E+01 0. -1.
         -5    1    3    3    0  502  0.12209297156E+03 -0.47483686560E+02  0.26960354207E+02  0.13381228379E+03  0.41800000000E+01 0. -1.
        -11    1    4    4    0    0 -0.39354003750E+02  0.47561930872E+02  0.42507455959E+02  0.74951709063E+02  0.00000000000E+00 0. -1.
         11    1    4    4    0    0 -0.58852547858E+02  0.30997459387E+02  0.20860084969E+03  0.21894926209E+03  0.00000000000E+00 0.  1.
</event>
<event>
 8    1  0.7112384E-009  0.1284709E+03  0.7561462E-02  0.1229743E+00
         -2   -1    0    0    0  501 -0.00000000000E+00  0.00000000000E+00  0.74341510133E+02  0.74341510133E+02  0.00000000000E+00 0.  1.
          2   -1    0    0  501    0  0.00000000000E+00 -0.00000000000E+00 -0.38281869024E+03  0.38281869024E+03  0.00000000000E+00 0. -1.
         25    2    1    2    0    0  0.11994783941E+03 -0.36714696796E+02 -0.12405743857E+03  0.21626928688E+03  0.12508678285E+03 0.  0.
         23    2    1    2    0    0 -0.11994783941E+03  0.36714696796E+02 -0.18441974154E+03  0.24089091350E+03  0.91007351331E+02 0.  0.
          5    1    3    3  502    0  0.50844567263E+02 -0.15397564833E+02  0.18462875460E+02  0.56396854462E+02  0.41800000000E+01 0. -1.
         -5    1    3    3    0  502  0.69103272143E+02 -0.21317131963E+02 -0.14252031403E+03  0.15987243241E+03  0.41800000000E+01 0. -1.
        -11    1    4    4    0    0 -0.10099959804E+03  0.14528890777E+02 -0.72351283279E+02  0.12508683249E+03  0.00000000000E+00 0.  1.
         11    1    4    4    0    0 -0.18948241367E+02  0.22185806019E+02 -0.11206845826E+03  0.11580408100E+03  0.00000000000E+00 0. -1.
</event>
<event>
 8    1  0.7112384E-009  0.1704061E+03  0.7561462E-02  0.1177425E+00
         -1   -1    0    0    0  501 -0.00000000000E+00  0.00000000000E+00  0.15865110767E+03  0.15865110767E+03  0.00000000000E+00 0.  1.
          1   -1    0    0  501    0  0.00000000000E+00 -0.00000000000E+00 -0.22432266682E+03  0.22432266682E+03  0.00000000000E+00 0. -1.
         25    2    1    2    0    0  0.79182539347E+01  0.13389995442E+03 -0.11013885909E+03  0.21393974043E+03  0.12509095778E+03 0.  0.
         23    2    1    2    0    0 -0.79182539347E+01 -0.13389995442E+03  0.44467299930E+02  0.16903403405E+03  0.92753799746E+02 0.  0.
          5    1    3    3  502    0 -0.67708094264E+01  0.15379490539E+03 -0.10929852676E+03  0.18884479642E+03  0.41800000000E+01 0.  1.
         -5    1    3    3    0  502  0.14689063361E+02 -0.19894950971E+02 -0.84033232482E+00  0.25094944012E+02  0.41800000000E+01 0.  1.
        -11    1    4    4    0    0  0.40415346956E+02 -0.44587744096E+02  0.61438421287E+01  0.60491437322E+02  0.00000000000E+00 0.  1.
         11    1    4    4    0    0 -0.48333600891E+02 -0.89312210321E+02  0.38323457801E+02  0.10854259673E+03  0.00000000000E+00 0. -1.
</event>
<event>
 8    1  0.7112384E-009  0.1310389E+03  0.7561462E-02  0.1225922E+00
          2   -1    0    0  501    0  0.00000000000E+00  0.00000000000E+00  0.60303256203E+03  0.60303256203E+03  0.00000000000E+00 0. -1.
         -2   -1    0    0    0  501 -0.00000000000E+00 -0.00000000000E+00 -0.38345121196E+02  0.38345121196E+02  0.00000000000E+00 0.  1.
         25    2    1    2    0    0  0.58949685282E+02 -0.56330415251E+02  0.44621063967E+03  0.47053106049E+03  0.12508941941E+03 0.  0.
         23    2    1    2    0    0 -0.58949685282E+02  0.56330415251E+02  0.11847680116E+03  0.17084662274E+03  0.92215156080E+02 0.  0.
          5    1    3    3  502    0  0.92291905081E+02 -0.66539894915E+02  0.35401187510E+03  0.37186991472E+03  0.41800000000E+01 0. -1.
         -5    1    3    3    0  502 -0.33342219799E+02  0.10209479664E+02  0.92198764568E+02  0.98661145766E+02  0.41800000000E+01 0. -1.
        -11    1    4    4    0    0 -0.49239920723E+02 -0.63747822865E+01  0.19638702366E+02  0.53393691318E+02  0.00000000000E+00 0.  1.
         11    1    4    4    0    0 -0.97097645590E+01  0.62705197537E+02  0.98838098795E+02  0.11745293142E+03  0.00000000000E+00 0. -1.
</event>
<event>
 8    1  0.7112384E-009  0.1075129E+03  0.7561462E-02  0.1265246E+00
          1   -1    0    0  501    0  0.00000000000E+00  0.00000000000E+00  0.91459200946E+02  0.91459200946E+02  0.00000000000E+00 0. -1.
         -1   -1    0    0    0  501 -0.00000000000E+00 -0.00000000000E+00 -0.23381052361E+03  0.23381052361E+03  0.00000000000E+00 0.  1.
         25    2    1    2    0    0 -0.39830365959E+01 -0.22385576804E+02  0.29317633524E+02  0.13047879152E+03  0.12509281663E+03 0.  0.
         23    2    1    2    0    0  0.39830365959E+01  0.22385576804E+02 -0.17166895619E+03  0.19479093304E+03  0.89198085426E+02 0.  0.
          5    1    3    3  502    0  0.56743415168E+02  0.97036601961E+01  0.19761105196E+02  0.61007785279E+02  0.41800000000E+01 0.  1.
         -5    1    3    3    0  502 -0.60726451764E+02 -0.32089237000E+02  0.95565283282E+01  0.69471006245E+02  0.41800000000E+01 0.  1.
        -11    1    4    4    0    0 -0.19924649875E+02  0.48895026907E+02 -0.12749995392E+03  0.13799983181E+03  0.00000000000E+00 0.  1.
         11    1    4    4    0    0  0.23907686471E+02 -0.26509450103E+02 -0.44169002268E+02  0.56791101227E+02  0.00000000000E+00 0. -1.
</event>
<event>
 8    1  0.7112384E-009  0.1563718E+03  0.7561462E-02  0.1192855E+00
         -1   -1    0    0    0  501 -0.00000000000E+00  0.00000000000E+00  0.17814510244E+02  0.17814510244E+02  0.00000000000E+00 0. -1.
          1   -1    0    0  501    0  0.00000000000E+00 -0.00000000000E+00 -0.15489910363E+04  0.15489910363E+04  0.00000000000E+00 0.  1.
         25    2    1    2    0    0 -0.11407222316E+03  0.24221110336E+02 -0.10519200316E+04  0.10657310881E+04  0.12509142623E+03 0.  0.
         23    2    1    2    0    0  0.11407222316E+03 -0.24221110336E+02 -0.47925649441E+03  0.50107445843E+03  0.88259227128E+02 0.  0.
          5    1    3    3  502    0  0.38966143878E+01 -0.37361516574E+02 -0.24643602946E+03  0.24931757968E+03  0.41800000000E+01 0.  1.
         -5    1    3    3    0  502 -0.11796883755E+03  0.61582626910E+02 -0.80548400218E+03  0.81641350843E+03  0.41800000000E+01 0.  1.
        -11    1    4    4    0    0  0.34354934128E+02  0.29825366174E+02 -0.21636031555E+03  0.22109183637E+03  0.00000000000E+00 0.  1.
         11    1    4    4    0    0  0.79717289030E+02 -0.54046476510E+02 -0.26289617886E+03  0.27998262206E+03  0.00000000000E+00 0. -1.
</event>
<event>
 8    1  0.7112384E-009  0.1064616E+03  0.7561462E-02  0.1267266E+00
          1   -1    0    0  501    0  0.00000000000E+00  0.00000000000E+00  0.67549943554E+03  0.67549943554E+03  0.00000000000E+00 0. -1.
         -1   -1    0    0    0  501 -0.00000000000E+00 -0.00000000000E+00 -0.18894635343E+02  0.18894635343E+02  0.00000000000E+00 0.  1.
         25    2    1    2    0    0  0.21292743498E+02 -0.12047306024E+02  0.40804356433E+03  0.42748705366E+03  0.12508841731E+03 0.  0.
         23    2    1    2    0    0 -0.21292743498E+02  0.12047306024E+02  0.24856123587E+03  0.26690701723E+03  0.94117742004E+02 0.  0.
          5    1    3    3  502    0 -0.40904400951E+02  0.28313785141E+02  0.11882420340E+03  0.12888562434E+03  0.41800000000E+01 0. -1.
         -5    1    3    3    0  502  0.62197144450E+02 -0.40361091165E+02  0.28921936093E+03  0.29860142932E+03  0.41800000000E+01 0. -1.
        -11    1    4    4    0    0 -0.27172761651E+02 -0.33317328737E+02  0.17564090469E+03  0.18082624470E+03  0.00000000000E+00 0. -1.
         11    1    4    4    0    0  0.58800181521E+01  0.45364634761E+02  0.72920331176E+02  0.86080772529E+02  0.00000000000E+00 0.  1.
</event>
<event>
 8    1  0.7112384E-009  0.1683153E+03  0.7561462E-02  0.1179616E+00
         -2   -1    0    0    0  501 -0.00000000000E+00  0.00000000000E+00  0.51777486475E+02  0.51777486475E+02  0.00000000000E+00 0. -1.
          2   -1    0    0  501    0  0.00000000000E+00 -0.00000000000E+00 -0.68410183154E+03  0.68410183154E+03  0.00000000000E+00 0.  1.
         25    2    1    2    0    0 -0.53043043797E+02  0.13655068086E+03 -0.24663305882E+03  0.31294614215E+03  0.12509104383E+03 0.  0.
         23    2    1    2    0    0  0.53043043797E+02 -0.13655068086E+03 -0.38569128625E+03  0.42293317586E+03  0.93032521300E+02 0.  0.
          5    1    3    3  502    0 -0.10937101110E+02  0.13086271104E+03 -0.11514728056E+03  0.17470271304E+03  0.41800000000E+01 0. -1.
         -5    1    3    3    0  502 -0.42105942687E+02  0.56879698196E+01 -0.13148577825E+03  0.13824342911E+03  0.41800000000E+01 0. -1.
        -11    1    4    4    0    0  0.13698060811E+02  0.57912841404E+01 -0.69447845559E+01  0.16413588106E+02  0.00000000000E+00 0. -1.
         11    1    4    4    0    0  0.39344982986E+02 -0.14234196500E+03 -0.37874650169E+03  0.40651958775E+03  0.00000000000E+00 0.  1.
</event>
<event>
 8    1  0.7112384E-009  0.1113535E+03  0.7561462E-02  0.1258084E+00
         -4   -1    0    0    0  501 -0.00000000000E+00  0.00000000000E+00  0.19267824017E+02  0.19267824017E+02  0.00000000000E+00 0. -1.
          4   -1    0    0  501    0  0.00000000000E+00 -0.00000000000E+00 -0.73996335469E+03  0.73996335469E+03  0.00000000000E+00 0.  1.
         25    2    1    2    0    0 -0.10059022751E+02  0.48706192990E+02 -0.45426942159E+03  0.47379507034E+03  0.12509030385E+03 0.  0.
         23    2    1    2    0    0  0.10059022751E+02 -0.48706192990E+02 -0.26642610909E+03  0.28543610837E+03  0.89540064676E+02 0.  0.
          5    1    3    3  502    0 -0.18039884021E+02 -0.34468670965E+02 -0.66970153032E+02  0.77562880882E+02  0.41800000000E+01 0.  1.
         -5    1    3    3    0  502  0.79808612702E+01  0.83174863954E+02 -0.38729926856E+03  0.39623218946E+03  0.41800000000E+01 0.  1.
        -11    1    4    4    0    0 -0.13884398341E+01  0.25145565412E+02 -0.97815833621E+02  0.10100576485E+03  0.00000000000E+00 0.  1.
         11    1    4    4    0    0  0.11447462585E+02 -0.73851758402E+02 -0.16861027546E+03  0.18443034352E+03  0.00000000000E+00 0. -1.
</event>
<event>
 8    1  0.7112384E-009  0.2257096E+03  0.7561462E-02  0.1129697E+00
         -1   -1    0    0    0  501 -0.00000000000E+00  0.00000000000E+00  0.12651936053E+03  0.12651936053E+03  0.00000000000E+00 0.  1.
          1   -1    0    0  501    0  0.00000000000E+00 -0.00000000000E+00 -0.49447166410E+03  0.49447166410E+03  0.00000000000E+00 0. -1.
         25    2    1    2    0    0 -0.13960888950E+03 -0.14504521057E+03 -0.31756361364E+03  0.39626173162E+03  0.12509179070E+03 0.  0.
         23    2    1    2    0    0  0.13960888950E+03  0.14504521057E+03 -0.50388689926E+02  0.22472929301E+03  0.86229228958E+02 0.  0.
          5    1    3    3  502    0 -0.27832720867E+02 -0.11323431923E+03 -0.19549477366E+03  0.22766719204E+03  0.41800000000E+01 0.  1.
         -5    1    3    3    0  502 -0.11177616863E+03 -0.31810891343E+02 -0.12206883998E+03  0.16859453958E+03  0.41800000000E+01 0.  1.
        -11    1    4    4    0    0  0.10188289628E+02  0.66037521333E+02 -0.22851272697E+02  0.70618242212E+02  0.00000000000E+00 0.  1.
         11    1    4    4    0    0  0.12942059987E+03  0.79007689240E+02 -0.27537417229E+02  0.15411105080E+03  0.00000000000E+00 0. -1.
</event>
<event>
 8    1  0.7112384E-009  0.1051048E+03  0.7561462E-02  0.1269913E+00
          1   -1    0    0  501    0  0.00000000000E+00  0.00000000000E+00  0.95693661807E+02  0.95693661807E+02  0.00000000000E+00 0. -1.
         -1   -1    0    0    0  501 -0.00000000000E+00 -0.00000000000E+00 -0.16569897997E+03  0.16569897997E+03  0.00000000000E+00 0.  1.
         25    2    1    2    0    0  0.22689104482E+02 -0.54085318415E+02 -0.44830653618E+01  0.13823137751E+03  0.12509116165E+03 0.  0.
         23    2    1    2    0    0 -0.22689104482E+02  0.54085318415E+02 -0.65522252797E+02  0.12316126426E+03  0.86229428109E+02 0.  0.
          5    1    3    3  502    0 -0.44850353606E+02 -0.16070108541E+02 -0.30086162823E+02  0.56501789356E+02  0.41800000000E+01 0.  1.
         -5    1    3    3    0  502  0.67539458088E+02 -0.38015209875E+02  0.25603097461E+02  0.81729588157E+02  0.41800000000E+01 0.  1.
        -11    1    4    4    0    0  0.13411458936E+02 -0.59839462395E+01 -0.49005472252E+02  0.51158686008E+02  0.00000000000E+00 0.  1.
         11    1    4    4    0    0 -0.36100563419E+02  0.60069264655E+02 -0.16516780546E+02  0.72002578252E+02  0.00000000000E+00 0. -1.
</event>
<event>
 8    1  0.7112384E-009  0.1047433E+03  0.7561462E-02  0.1270626E+00
          2   -1    0    0  501    0  0.00000000000E+00  0.00000000000E+00  0.50053071700E+02  0.50053071700E+02  0.00000000000E+00 0. -1.
         -2   -1    0    0    0  501 -0.00000000000E+00 -0.00000000000E+00 -0.25436500591E+03  0.25436500591E+03  0.00000000000E+00 0.  1.
         25    2    1    2    0    0  0.39320653688E+01  0.29306539016E+02 -0.13931061342E+03  0.18953854419E+03  0.12507229252E+03 0.  0.
         23    2    1    2    0    0 -0.39320653688E+01 -0.29306539016E+02 -0.65001320796E+02  0.11487953342E+03  0.89987783212E+02 0.  0.
          5    1    3    3  502    0 -0.18621460669E+02 -0.45545790259E+02 -0.43493623069E+02  0.65805360385E+02  0.41800000000E+01 0. -1.
         -5    1    3    3    0  502  0.22553526038E+02  0.74852329275E+02 -0.95816990348E+02  0.12373318380E+03  0.41800000000E+01 0. -1.
        -11    1    4    4    0    0 -0.37587298620E+02 -0.30095838281E+02 -0.81900303834E+01  0.48843025061E+02  0.00000000000E+00 0. -1.
         11    1    4    4    0    0  0.33655233251E+02  0.78929926480E+00 -0.56811290413E+02  0.66036508364E+02  0.00000000000E+00 0.  1.
</event>
<event>
 8    1  0.7112384E-009  0.1815574E+03  0.7561462E-02  0.1166304E+00
          1   -1    0    0  501    0  0.00000000000E+00  0.00000000000E+00  0.13464471166E+04  0.13464471166E+04  0.00000000000E+00 0. -1.
         -1   -1    0    0    0  501 -0.00000000000E+00 -0.00000000000E+00 -0.26364363838E+02  0.26364363838E+02  0.00000000000E+00 0.  1.
         25    2    1    2    0    0 -0.71681965634E+02 -0.13371077444E+03  0.78841258363E+03  0.81256276311E+03  0.12508783541E+03 0.  0.
         23    2    1    2    0    0  0.71681965634E+02  0.13371077444E+03  0.53167016914E+03  0.56024871734E+03  0.90490779226E+02 0.  0.
          5    1    3    3  502    0  0.28275239754E+02  0.88067785144E+00  0.99079551430E+02  0.10312368636E+03  0.41800000000E+01 0. -1.
         -5    1    3    3    0  502 -0.99957205388E+02 -0.13459145229E+03  0.68933303220E+03  0.70943907675E+03  0.41800000000E+01 0. -1.
        -11    1    4    4    0    0  0.41448881560E+02  0.14624636009E+02  0.23614745920E+03  0.24020306461E+03  0.00000000000E+00 0. -1.
         11    1    4    4    0    0  0.30233084075E+02  0.11908613843E+03  0.29552270994E+03  0.32004565273E+03  0.00000000000E+00 0.  1.
</event>
<event>
 8    1  0.7112384E-009  0.1162620E+03  0.7561462E-02  0.1249394E+00
          2   -1    0    0  501    0  0.00000000000E+00  0.00000000000E+00  0.67759787863E+03  0.67759787863E+03  0.00000000000E+00 0. -1.
         -2   -1    0    0    0  501 -0.00000000000E+00 -0.00000000000E+00 -0.21553008190E+02  0.21553008190E+02  0.00000000000E+00 0.  1.
         25    2    1    2    0    0 -0.53636175480E+02 -0.17089115163E+02  0.33696089387E+03  0.36381216393E+03  0.12509104464E+03 0.  0.
         23    2    1    2    0    0  0.53636175480E+02  0.17089115163E+02  0.31908397657E+03  0.33533872289E+03  0.86421049460E+02 0.  0.
          5    1    3    3  502    0 -0.78741024829E+02  0.23419893065E+02  0.26439896340E+03  0.27689876242E+03  0.41800000000E+01 0. -1.
         -5    1    3    3    0  502  0.25104849350E+02 -0.40509008228E+02  0.72561930471E+02  0.86913401511E+02  0.41800000000E+01 0. -1.
        -11    1    4    4    0    0 -0.60668841096E+01 -0.27341080070E+02  0.70688221501E+02  0.76033981884E+02  0.00000000000E+00 0. -1.
         11    1    4    4    0    0  0.59703059590E+02  0.44430195232E+02  0.24839575507E+03  0.25930474101E+03  0.00000000000E+00 0.  1.
</event>
<event>
 8    1  0.7112384E-009  0.7177881E+02  0.7561462E-02  0.1354146E+00
          2   -1    0    0  501    0  0.00000000000E+00  0.00000000000E+00  0.65167823882E+03  0.65167823882E+03  0.00000000000E+00 0. -1.
         -2   -1    0    0    0  501 -0.00000000000E+00 -0.00000000000E+00 -0.21715400320E+02  0.21715400320E+02  0.00000000000E+00 0.  1.
         25    2    1    2    0    0 -0.38356785602E+02 -0.30279638919E+02  0.38392264634E+03  0.40673386032E+03  0.12509090784E+03 0.  0.
         23    2    1    2    0    0  0.38356785602E+02  0.30279638919E+02  0.24604019215E+03  0.26665977881E+03  0.90463041887E+02 0.  0.
          5    1    3    3  502    0 -0.37230746870E+02 -0.80950292560E+01  0.38214349767E+03  0.38406091082E+03  0.41800000000E+01 0.  1.
         -5    1    3    3    0  502 -0.11260387326E+01 -0.22184609663E+02  0.17791486759E+01  0.22672949503E+02  0.41800000000E+01 0.  1.
        -11    1    4    4    0    0 -0.65320800651E+00  0.41912674073E+02  0.44835834153E+02  0.61378750011E+02  0.00000000000E+00 0.  1.
         11    1    4    4    0    0  0.39009993609E+02 -0.11633035154E+02  0.20120435800E+03  0.20528102880E+03  0.00000000000E+00 0. -1.
</event>
<event>
 8    1  0.7112384E-009  0.1219669E+03  0.7561462E-02  0.1239887E+00
         -3   -1    0    0    0  501 -0.00000000000E+00  0.00000000000E+00  0.56161572404E+03  0.56161572404E+03  0.00000000000E+00 0.  1.
          3   -1    0    0  501    0  0.00000000000E+00 -0.00000000000E+00 -0.38126670362E+02  0.38126670362E+02  0.00000000000E+00 0. -1.
         25    2    1    2    0    0  0.36576002366E+02 -0.71700117144E+02  0.18148323457E+03  0.23465283720E+03  0.12508828414E+03 0.  0.
         23    2    1    2    0    0 -0.36576002366E+02  0.71700117144E+02  0.34200581911E+03  0.36508955720E+03  0.99215390560E+02 0.  0.
          5    1    3    3  502    0  0.26119022707E+02  0.14753278064E+02 -0.31694054373E+01  0.30452915979E+02  0.41800000000E+01 0. -1.
         -5    1    3    3    0  502  0.10456979659E+02 -0.86453395208E+02  0.18465264001E+03  0.20419992123E+03  0.41800000000E+01 0. -1.
        -11    1    4    4    0    0 -0.68083610661E+02  0.30519795647E+02  0.22668473395E+03  0.23864786731E+03  0.00000000000E+00 0.  1.
         11    1    4    4    0    0  0.31507608295E+02  0.41180321497E+02  0.11532108516E+03  0.12644168989E+03  0.00000000000E+00 0. -1.
</event>
<event>
 8    1  0.7112384E-009  0.1669724E+03  0.7561462E-02  0.1181042E+00
         -1   -1    0    0    0  501 -0.00000000000E+00  0.00000000000E+00  0.60369029160E+02  0.60369029160E+02  0.00000000000E+00 0.  1.
          1   -1    0    0  501    0  0.00000000000E+00 -0.00000000000E+00 -0.53343102971E+03  0.53343102971E+03  0.00000000000E+00 0. -1.
         25    2    1    2    0    0  0.31176252676E+02  0.12970999298E+03 -0.33019609627E+03  0.37745650363E+03  0.12508920468E+03 0.  0.
         23    2    1    2    0    0 -0.31176252676E+02 -0.12970999298E+03 -0.14286590428E+03  0.21634355525E+03  0.92721228867E+02 0.  0.
          5    1    3    3  502    0 -0.15149544199E+02  0.12363989399E+03 -0.29012464819E+03  0.31576275265E+03  0.41800000000E+01 0. -1.
         -5    1    3    3    0  502  0.46325796876E+02  0.60700989854E+01 -0.40071448088E+02  0.61693750978E+02  0.41800000000E+01 0. -1.
        -11    1    4    4    0    0  0.33265369984E+02 -0.45529322971E+02 -0.46817803206E+02  0.73289909179E+02  0.00000000000E+00 0. -1.
         11    1    4    4    0    0 -0.64441622661E+02 -0.84180670005E+02 -0.96048101073E+02  0.14305364607E+03  0.00000000000E+00 0.  1.
</event>
<event>
 8    1  0.7112384E-009  0.9415914E+02  0.7561462E-02  0.1293081E+00
         -2   -1    0    0    0  501 -0.00000000000E+00  0.00000000000E+00  0.39523275404E+02  0.39523275404E+02  0.00000000000E+00 0.  1.
          2   -1    0    0  501    0  0.00000000000E+00 -0.00000000000E+00 -0.36696664463E+03  0.36696664463E+03  0.00000000000E+00 0. -1.
         25    2    1    2    0    0 -0.24193614210E+02 -0.30246527727E+02 -0.17919577836E+03  0.22193978171E+03  0.12508379717E+03 0.  0.
         23    2    1    2    0    0  0.24193614210E+02  0.30246527727E+02 -0.14824759086E+03  0.18455013832E+03  0.10286506672E+03 0.  0.
          5    1    3    3  502    0 -0.53654773457E+02  0.17907255116E+02 -0.34068259277E+02  0.66163609263E+02  0.41800000000E+01 0. -1.
         -5    1    3    3    0  502  0.29461159247E+02 -0.48153782843E+02 -0.14512751909E+03  0.15577617245E+03  0.41800000000E+01 0. -1.
        -11    1    4    4    0    0 -0.12575068547E+02  0.35675359526E+02 -0.14188673465E+03  0.14684246353E+03  0.00000000000E+00 0. -1.
         11    1    4    4    0    0  0.36768682757E+02 -0.54288317997E+01 -0.63608562096E+01  0.37707674790E+02  0.00000000000E+00 0.  1.
</event>
<event>
 8    1  0.7112384E-009  0.8305491E+02  0.7561462E-02  0.1320599E+00
         -2   -1    0    0    0  501 -0.00000000000E+00  0.00000000000E+00  0.14730096288E+03  0.14730096288E+03  0.00000000000E+00 0.  1.
          2   -1    0    0  501    0  0.00000000000E+00 -0.00000000000E+00 -0.96665694877E+02  0.96665694877E+02  0.00000000000E+00 0. -1.
         25    2    1    2    0    0 -0.25876891619E+02  0.10458192312E+02 -0.26939092330E+01  0.12819318348E+03  0.12508895970E+03 0.  0.
         23    2    1    2    0    0  0.25876891619E+02 -0.10458192312E+02  0.53329177233E+02  0.11577347427E+03  0.98896455417E+02 0.  0.
          5    1    3    3  502    0 -0.40283139171E+02 -0.10164815809E+02  0.52684721430E+02  0.67225047818E+02  0.41800000000E+01 0. -1.
         -5    1    3    3    0  502  0.14406247551E+02  0.20623008120E+02 -0.55378630664E+02  0.60968135666E+02  0.41800000000E+01 0. -1.
        -11    1    4    4    0    0  0.42372762114E+02 -0.44239976750E+02  0.47956100135E+02  0.77797262498E+02  0.00000000000E+00 0.  1.
         11    1    4    4    0    0 -0.16495870494E+02  0.33781784438E+02  0.53730770980E+01  0.37976211773E+02  0.00000000000E+00 0. -1.
</event>
<event>
 8    1  0.7112384E-009  0.9001103E+02  0.7561462E-02  0.1302825E+00
         -1   -1    0    0    0  501 -0.00000000000E+00  0.00000000000E+00  0.40336417817E+02  0.40336417817E+02  0.00000000000E+00 0.  1.
          1   -1    0    0  501    0  0.00000000000E+00 -0.00000000000E+00 -0.57396788239E+03  0.57396788239E+03  0.00000000000E+00 0. -1.
         25    2    1    2    0    0  0.37814872490E+02  0.14709210116E+02 -0.47960452429E+03  0.49730895328E+03  0.12509744142E+03 0.  0.
         23    2    1    2    0    0 -0.37814872490E+02 -0.14709210116E+02 -0.54026940284E+02  0.11699534693E+03  0.95512698018E+02 0.  0.
          5    1    3    3  502    0  0.39864101961E+02 -0.20952779443E+02 -0.55108980793E+02  0.71292620625E+02  0.41800000000E+01 0. -1.
         -5    1    3    3    0  502 -0.20492294705E+01  0.35661989559E+02 -0.42449554350E+03  0.42601633266E+03  0.41800000000E+01 0. -1.
        -11    1    4    4    0    0  0.29012357615E+02 -0.13477974580E+02 -0.35180778293E+02  0.47550603093E+02  0.00000000000E+00 0. -1.
         11    1    4    4    0    0 -0.66827230106E+02 -0.12312355357E+01 -0.18846161992E+02  0.69444743835E+02  0.00000000000E+00 0.  1.
</event>
<event>
 8    1  0.7112384E-009  0.8868225E+02  0.7561462E-02  0.1306075E+00
          2   -1    0    0  501    0  0.00000000000E+00  0.00000000000E+00  0.14895395717E+03  0.14895395717E+03  0.00000000000E+00 0. -1.
         -2   -1    0    0    0  501 -0.00000000000E+00 -0.00000000000E+00 -0.79149350147E+02  0.79149350147E+02  0.00000000000E+00 0.  1.
         25    2    1    2    0    0 -0.10008377923E+01 -0.65196806074E+00  0.43488140474E+02  0.13243941673E+03  0.12509018349E+03 0.  0.
         23    2    1    2    0    0  0.10008377923E+01  0.65196806074E+00  0.26316466545E+02  0.95663890579E+02  0.91965193474E+02 0.  0.
          5    1    3    3  502    0 -0.46489795827E+02 -0.42157715537E+02  0.27731324471E+02  0.68739165344E+02  0.41800000000E+01 0.  1.
         -5    1    3    3    0  502  0.45488958034E+02  0.41505747476E+02  0.15756816003E+02  0.63700251390E+02  0.41800000000E+01 0.  1.
        -11    1    4    4    0    0  0.26726441677E+02 -0.24321619378E+01  0.52416426872E+02  0.58887179441E+02  0.00000000000E+00 0. -1.
         11    1    4    4    0    0 -0.25725603885E+02  0.30841299986E+01 -0.26099960327E+02  0.36776711139E+02  0.00000000000E+00 0.  1.
</event>
<event>
 8    1  0.7112384E-009  0.1371041E+03  0.7561462E-02  0.1217280E+00
         -2   -1    0    0    0  501 -0.00000000000E+00  0.00000000000E+00  0.16700458478E+03  0.16700458478E+03  0.00000000000E+00 0. -1.
          2   -1    0    0  501    0  0.00000000000E+00 -0.00000000000E+00 -0.17920550105E+03  0.17920550105E+03  0.00000000000E+00 0.  1.
         25    2    1    2    0    0  0.67865056997E+02  0.10896448057E+03  0.30048485124E+02  0.18174140519E+03  0.12509237753E+03 0.  0.
         23    2    1    2    0    0 -0.67865056997E+02 -0.10896448057E+03 -0.42249401391E+02  0.16446868064E+03  0.93733723964E+02 0.  0.
          5    1    3    3  502    0  0.11814064783E+02  0.80252868657E+02 -0.37352826096E+02  0.89402466810E+02  0.41800000000E+01 0.  1.
         -5    1    3    3    0  502  0.56050992213E+02  0.28711611908E+02  0.67401311220E+02  0.92338938377E+02  0.41800000000E+01 0.  1.
        -11    1    4    4    0    0 -0.29203650030E+02 -0.65385011779E+02  0.24672943818E+02  0.75741713059E+02  0.00000000000E+00 0. -1.
         11    1    4    4    0    0 -0.38661406967E+02 -0.43579468787E+02 -0.66922345209E+02  0.88726967584E+02  0.00000000000E+00 0.  1.
</event>
<event>
 8    1  0.7112384E-009  0.1075336E+03  0.7561462E-02  0.1265207E+00
          1   -1    0    0  501    0  0.00000000000E+00  0.00000000000E+00  0.91298215766E+03  0.91298215766E+03  0.00000000000E+00 0. -1.
         -1   -1    0    0    0  501 -0.00000000000E+00 -0.00000000000E+00 -0.23827831834E+02  0.23827831834E+02  0.00000000000E+00 0.  1.
         25    2    1    2    0    0 -0.85654317051E+02  0.30501757976E+02  0.35072029548E+03  0.38329941822E+03  0.12508676619E+03 0.  0.
         23    2    1    2    0    0  0.85654317051E+02 -0.30501757976E+02  0.53843403035E+03  0.55351057128E+03  0.90530261288E+02 0.  0.
          5    1    3    3  502    0 -0.11911380297E+02  0.99879177809E+01 -0.69306445836E+01  0.17525573215E+02  0.41800000000E+01 0. -1.
         -5    1    3    3    0  502 -0.73742936754E+02  0.20513840195E+02  0.35765094006E+03  0.36577384500E+03  0.41800000000E+01 0. -1.
        -11    1    4    4    0    0  0.76589838151E+02 -0.56242969868E+02  0.47569879867E+03  0.48509650795E+03  0.00000000000E+00 0.  1.
         11    1    4    4    0    0  0.90644788999E+01  0.25741211892E+02  0.62735231679E+02  0.68414063329E+02  0.00000000000E+00 0. -1.
</event>
<event>
 8    1  0.7112384E-009  0.8748050E+02  0.7561462E-02  0.1309070E+00
         -2   -1    0    0    0  501 -0.00000000000E+00  0.00000000000E+00  0.14766613916E+03  0.14766613916E+03  0.00000000000E+00 0.  1.
          2   -1    0    0  501    0  0.00000000000E+00 -0.00000000000E+00 -0.13284926205E+03  0.13284926205E+03  0.00000000000E+00 0. -1.
         25    2    1    2    0    0 -0.73947471991E+01  0.65752237586E+02  0.66482520137E+02  0.15635085683E+03  0.12509047091E+03 0.  0.
         23    2    1    2    0    0  0.73947471991E+01 -0.65752237586E+02 -0.51665643031E+02  0.12416454438E+03  0.91484733026E+02 0.  0.
          5    1    3    3  502    0 -0.19835867002E+02  0.59014375097E+02  0.10105193430E+03  0.11876499448E+03  0.41800000000E+01 0.  1.
         -5    1    3    3    0  502  0.12441119803E+02  0.67378624886E+01 -0.34569414164E+02  0.37585862349E+02  0.41800000000E+01 0.  1.
        -11    1    4    4    0    0 -0.20179085525E+02 -0.67232462546E+02 -0.55511071783E+01  0.70414588712E+02  0.00000000000E+00 0.  1.
         11    1    4    4    0    0  0.27573832724E+02  0.14802249602E+01 -0.46114535853E+02  0.53749955665E+02  0.00000000000E+00 0. -1.
</event>
<event>
 8    1  0.7112384E-009  0.7521517E+02  0.7561462E-02  0.1343206E+00
         -1   -1    0    0    0  501 -0.00000000000E+00  0.00000000000E+00  0.25690772702E+02  0.25690772702E+02  0.00000000000E+00 0. -1.
          1   -1    0    0  501    0  0.00000000000E+00 -0.00000000000E+00 -0.51927239733E+03  0.51927239733E+03  0.00000000000E+00 0.  1.
         25    2    1    2    0    0 -0.28527281703E+02  0.20630258622E+02 -0.33395054020E+03  0.35834345684E+03  0.12509059271E+03 0.  0.
         23    2    1    2    0    0  0.28527281703E+02 -0.20630258622E+02 -0.15963108442E+03  0.18661971319E+03  0.90030110880E+02 0.  0.
          5    1    3    3  502    0  0.68334333278E+01 -0.38635550442E+02 -0.39300300173E+02  0.55690102915E+02  0.41800000000E+01 0.  1.
         -5    1    3    3    0  502 -0.35360715031E+02  0.59265809064E+02 -0.29465024003E+03  0.30265335393E+03  0.41800000000E+01 0.  1.
        -11    1    4    4    0    0  0.17868013477E+02 -0.24647071594E+02 -0.16909302003E+03  0.17181150563E+03  0.00000000000E+00 0.  1.
         11    1    4    4    0    0  0.10659268227E+02  0.40168129727E+01  0.94619356102E+01  0.14808207558E+02  0.00000000000E+00 0. -1.
</event>
<event>
 8    1  0.7112384E-009  0.4524966E+03  0.7561462E-02  0.1026980E+00
         -1   -1    0    0    0  501 -0.00000000000E+00  0.00000000000E+00  0.19544045930E+03  0.19544045930E+03  0.00000000000E+00 0.  1.
          1   -1    0    0  501    0  0.00000000000E+00 -0.00000000000E+00 -0.11099558625E+04  0.11099558625E+04  0.00000000000E+00 0. -1.
         25    2    1    2    0    0 -0.32221497602E+03 -0.31671764048E+03 -0.42679784067E+03  0.63398443666E+03  0.12508922642E+03 0.  0.
         23    2    1    2    0    0  0.32221497602E+03  0.31671764048E+03 -0.48771756251E+03  0.67141188512E+03  0.93770699809E+02 0.  0.
          5    1    3    3  502    0 -0.31267446136E+03 -0.31205566389E+03 -0.37058099969E+03  0.57662102449E+03  0.41800000000E+01 0. -1.
         -5    1    3    3    0  502 -0.95405146543E+01 -0.46619765892E+01 -0.56216840986E+02  0.57363412172E+02  0.41800000000E+01 0. -1.
        -11    1    4    4    0    0  0.24058091170E+03  0.23670734848E+03 -0.41906082112E+03  0.53807203579E+03  0.00000000000E+00 0.  1.
         11    1    4    4    0    0  0.81634064312E+02  0.80010291994E+02 -0.68656741389E+02  0.13333984933E+03  0.00000000000E+00 0. -1.
</event>
<event>
 8    1  0.7112384E-009  0.7586973E+02  0.7561462E-02  0.1341199E+00
          1   -1    0    0  501    0  0.00000000000E+00  0.00000000000E+00  0.55889032688E+03  0.55889032688E+03  0.00000000000E+00 0. -1.
         -1   -1    0    0    0  501 -0.00000000000E+00 -0.00000000000E+00 -0.22747894303E+02  0.22747894303E+02  0.00000000000E+00 0.  1.
         25    2    1    2    0    0  0.25836671851E+02 -0.54585465859E+01  0.37266565406E+03  0.39398405961E+03  0.12508565135E+03 0.  0.
         23    2    1    2    0    0 -0.25836671851E+02  0.54585465859E+01  0.16347677852E+03  0.18765416157E+03  0.88272860471E+02 0.  0.
          5    1    3    3  502    0 -0.80465504422E+01  0.23342677211E+02  0.33391127695E+03  0.33484898212E+03  0.41800000000E+01 0. -1.
         -5    1    3    3    0  502  0.33883222294E+02 -0.28801223797E+02  0.38754377110E+02  0.59135077495E+02  0.41800000000E+01 0. -1.
        -11    1    4    4    0    0 -0.77263882129E+01  0.41224191064E+02  0.40485545420E+02  0.58294171163E+02  0.00000000000E+00 0.  1.
         11    1    4    4    0    0 -0.18110283638E+02 -0.35765644478E+02  0.12299123310E+03  0.12935999040E+03  0.00000000000E+00 0. -1.
</event>
<event>
 8    1  0.7112384E-009  0.9224967E+02  0.7561462E-02  0.1297493E+00
         -2   -1    0    0    0  501 -0.00000000000E+00  0.00000000000E+00  0.36112558214E+02  0.36112558214E+02  0.00000000000E+00 0.  1.
          2   -1    0    0  501    0  0.00000000000E+00 -0.00000000000E+00 -0.36014028919E+03  0.36014028919E+03  0.00000000000E+00 0. -1.
         25    2    1    2    0    0  0.34857082205E+02 -0.19499635025E+01 -0.16209276617E+03  0.20770880517E+03  0.12510021727E+03 0.  0.
         23    2    1    2    0    0 -0.34857082205E+02  0.19499635025E+01 -0.16193496480E+03  0.18854404223E+03  0.90039460785E+02 0.  0.
          5    1    3    3  502    0 -0.31299973716E+02  0.16201027552E+02 -0.44929924689E+01  0.35774586366E+02  0.41800000000E+01 0.  1.
         -5    1    3    3    0  502  0.66157055921E+02 -0.18150991055E+02 -0.15759977370E+03  0.17193421880E+03  0.41800000000E+01 0.  1.
        -11    1    4    4    0    0  0.78164179901E+01  0.28812883992E+02 -0.15433672181E+02  0.33607691250E+02  0.00000000000E+00 0.  1.
         11    1    4    4    0    0 -0.42673500196E+02 -0.26862920490E+02 -0.14650129262E+03  0.15493635099E+03  0.00000000000E+00 0. -1.
</event>
<event>
 8    1  0.7112384E-009  0.8405755E+02  0.7561462E-02  0.1317916E+00
          2   -1    0    0  501    0  0.00000000000E+00  0.00000000000E+00  0.92653542557E+02  0.92653542557E+02  0.00000000000E+00 0. -1.
         -2   -1    0    0    0  501 -0.00000000000E+00 -0.00000000000E+00 -0.13639508682E+03  0.13639508682E+03  0.00000000000E+00 0.  1.
         25    2    1    2    0    0 -0.11082231666E+02 -0.18595202427E+02 -0.34606541810E+00  0.12695459348E+03  0.12509497045E+03 0.  0.
         23    2    1    2    0    0  0.11082231666E+02  0.18595202427E+02 -0.43395478842E+02  0.10209403590E+03  0.89841121820E+02 0.  0.
          5    1    3    3  502    0  0.35542119291E+01 -0.58163521253E+02 -0.38460702504E+02  0.69945161835E+02  0.41800000000E+01 0. -1.
         -5    1    3    3    0  502 -0.14636443595E+02  0.39568318826E+02  0.38114637086E+02  0.57009431641E+02  0.41800000000E+01 0. -1.
        -11    1    4    4    0    0 -0.21959020300E+02  0.25386780011E+02  0.13314282957E+02  0.36110348967E+02  0.00000000000E+00 0. -1.
         11    1    4    4    0    0  0.33041251966E+02 -0.67915775836E+01 -0.56709761800E+02  0.65983686931E+02  0.00000000000E+00 0.  1.
</event>
<event>
 8    1  0.7112384E-009  0.7672547E+02  0.7561462E-02  0.1338610E+00
         -1   -1    0    0    0  501 -0.00000000000E+00  0.00000000000E+00  0.12407261951E+03  0.12407261951E+03  0.00000000000E+00 0.  1.
          1   -1    0    0  501    0  0.00000000000E+00 -0.00000000000E+00 -0.11192719488E+03  0.11192719488E+03  0.00000000000E+00 0. -1.
         25    2    1    2    0    0 -0.16307758287E+02 -0.36414370834E+02 -0.20389277773E+02  0.13286996440E+03  0.12508699137E+03 0.  0.
         23    2    1    2    0    0  0.16307758287E+02  0.36414370834E+02  0.32534702406E+02  0.10312984999E+03  0.89360560174E+02 0.  0.
          5    1    3    3  502    0 -0.57512588844E+02 -0.11439233720E+02 -0.49126752431E+02  0.76612428157E+02  0.41800000000E+01 0.  1.
         -5    1    3    3    0  502  0.41204830557E+02 -0.24975137114E+02  0.28737474658E+02  0.56257536248E+02  0.41800000000E+01 0.  1.
        -11    1    4    4    0    0  0.17499218588E+02  0.10604372800E+02 -0.29516015959E+02  0.35914768157E+02  0.00000000000E+00 0. -1.
         11    1    4    4    0    0 -0.11914603002E+01  0.25809998034E+02  0.62050718365E+02  0.67215081833E+02  0.00000000000E+00 0.  1.
</event>
<event>
 8    1  0.7112384E-009  0.9995525E+02  0.7561462E-02  0.1280390E+00
          2   -1    0    0  501    0  0.00000000000E+00  0.00000000000E+00  0.52706234003E+03  0.52706234003E+03  0.00000000000E+00 0. -1.
         -2   -1    0    0    0  501 -0.00000000000E+00 -0.00000000000E+00 -0.22897118679E+02  0.22897118679E+02  0.00000000000E+00 0.  1.
         25    2    1    2    0    0  0.40694240459E+01 -0.17737830726E+02  0.28780009236E+03  0.31433648442E+03  0.12508933379E+03 0.  0.
         23    2    1    2    0    0 -0.40694240459E+01  0.17737830726E+02  0.21636512900E+03  0.23562297429E+03  0.91504787394E+02 0.  0.
          5    1    3    3  502    0  0.62735897438E+02 -0.22812776461E+02  0.13905004826E+03  0.15430036914E+03  0.41800000000E+01 0.  1.
         -5    1    3    3    0  502 -0.58666473392E+02  0.50749457354E+01  0.14875004410E+03  0.16003611528E+03  0.41800000000E+01 0.  1.
        -11    1    4    4    0    0  0.90090302770E+00 -0.27984723109E+02  0.16205154020E+03  0.16445260118E+03  0.00000000000E+00 0. -1.
         11    1    4    4    0    0 -0.49703270736E+01  0.45722553835E+02  0.54313588795E+02  0.71170373107E+02  0.00000000000E+00 0.  1.
</event>
<event>
 8    1  0.7112384E-009  0.1119958E+03  0.7561462E-02  0.1256918E+00
         -2   -1    0    0    0  501 -0.00000000000E+00  0.00000000000E+00  0.87841558032E+02  0.87841558032E+02  0.00000000000E+00 0.  1.
          2   -1    0    0  501    0  0.00000000000E+00 -0.00000000000E+00 -0.15996077524E+03  0.15996077524E+03  0.00000000000E+00 0. -1.
         25    2    1    2    0    0 -0.17963320428E+02  0.40111772624E+02 -0.23749030261E+02  0.13468927372E+03  0.12508216832E+03 0.  0.
         23    2    1    2    0    0  0.17963320428E+02 -0.40111772624E+02 -0.48370186949E+02  0.11311305956E+03  0.92321471352E+02 0.  0.
          5    1    3    3  502    0 -0.61408830177E+02 -0.17511143589E+01  0.14331597561E+02  0.63221657001E+02  0.41800000000E+01 0.  1.
         -5    1    3    3    0  502  0.43445509749E+02  0.41862886983E+02 -0.38080627822E+02  0.71467616717E+02  0.41800000000E+01 0.  1.
        -11    1    4    4    0    0 -0.15990130646E+02 -0.60335589206E+02 -0.25292124980E+02  0.67348045175E+02  0.00000000000E+00 0.  1.
         11    1    4    4    0    0  0.33953451075E+02  0.20223816581E+02 -0.23078061969E+02  0.45765014380E+02  0.00000000000E+00 0. -1.
</event>
<event>
 8    1  0.7112384E-009  0.1029272E+03  0.7561462E-02  0.1274258E+00
         -2   -1    0    0    0  501 -0.00000000000E+00  0.00000000000E+00  0.28748064318E+02  0.28748064318E+02  0.00000000000E+00 0.  1.
          2   -1    0    0  501    0  0.00000000000E+00 -0.00000000000E+00 -0.52011081176E+03  0.52011081176E+03  0.00000000000E+00 0. -1.
         25    2    1    2    0    0  0.38920123301E+02  0.40002720361E+02 -0.27923271406E+03  0.31102063353E+03  0.12509169537E+03 0.  0.
         23    2    1    2    0    0 -0.38920123301E+02 -0.40002720361E+02 -0.21213003338E+03  0.23783824255E+03  0.91939572106E+02 0.  0.
          5    1    3    3  502    0  0.79773728199E+02  0.20011720892E+02 -0.22783426221E+03  0.24226068629E+03  0.41800000000E+01 0.  1.
         -5    1    3    3    0  502 -0.40853604899E+02  0.19990999468E+02 -0.51398451851E+02  0.68759947248E+02  0.41800000000E+01 0.  1.
        -11    1    4    4    0    0 -0.32034863417E+02 -0.53682196039E+02 -0.21349856240E+03  0.22246268629E+03  0.00000000000E+00 0. -1.
         11    1    4    4    0    0 -0.68852598836E+01  0.13679475678E+02  0.13685290124E+01  0.15375556255E+02  0.00000000000E+00 0.  1.
</event>
<event>
 8    1  0.7112384E-009  0.1292146E+03  0.7561462E-02  0.1228626E+00
          1   -1    0    0  501    0  0.00000000000E+00  0.00000000000E+00  0.76296882261E+03  0.76296882261E+03  0.00000000000E+00 0. -1.
         -1   -1    0    0    0  501 -0.00000000000E+00 -0.00000000000E+00 -0.34861243759E+02  0.34861243759E+02  0.00000000000E+00 0.  1.
         25    2    1    2    0    0 -0.10882379923E+03 -0.50845009394E+02  0.42824104756E+03  0.46202360267E+03  0.12509028877E+03 0.  0.
         23    2    1    2    0    0  0.10882379923E+03  0.50845009394E+02  0.29986653129E+03  0.33580646371E+03  0.91750805012E+02 0.  0.
          5    1    3    3  502    0 -0.93318435115E+02 -0.53682699174E+02  0.43204695557E+03  0.44527767375E+03  0.41800000000E+01 0. -1.
         -5    1    3    3    0  502 -0.15505364112E+02  0.28376897801E+01 -0.38059080064E+01  0.16745928916E+02  0.41800000000E+01 0. -1.
        -11    1    4    4    0    0  0.22627705030E+02  0.42034014054E+02  0.41349877026E+02  0.63156026653E+02  0.00000000000E+00 0.  1.
         11    1    4    4    0    0  0.86196094197E+02  0.88109953395E+01  0.25851665426E+03  0.27265043705E+03  0.00000000000E+00 0. -1.
</event>
<event>
 8    1  0.7112384E-009  0.1791951E+03  0.7561462E-02  0.1168584E+00
         -2   -1    0    0    0  501 -0.00000000000E+00  0.00000000000E+00  0.41514667698E+02  0.41514667698E+02  0.00000000000E+00 0.  1.
          2   -1    0    0  501    0  0.00000000000E+00 -0.00000000000E+00 -0.10347134012E+04  0.10347134012E+04  0.00000000000E+00 0. -1.
         25    2    1    2    0    0  0.95144903358E+02 -0.11821814323E+03 -0.75110022671E+03  0.77641939605E+03  0.12508975167E+03 0.  0.
         23    2    1    2    0    0 -0.95144903358E+02  0.11821814323E+03 -0.24209850680E+03  0.29980867285E+03  0.90804577540E+02 0.  0.
          5    1    3    3  502    0 -0.17764688934E+02 -0.53481333994E+02 -0.35483835746E+03  0.35930985178E+03  0.41800000000E+01 0. -1.
         -5    1    3    3    0  502  0.11290959229E+03 -0.64736809232E+02 -0.39626186925E+03  0.41710954427E+03  0.41800000000E+01 0. -1.
        -11    1    4    4    0    0 -0.10661428732E+03  0.11947077745E+03 -0.23930900414E+03  0.28793866081E+03  0.00000000000E+00 0. -1.
         11    1    4    4    0    0  0.11469383962E+02 -0.12526342220E+01 -0.27895026597E+01  0.11870012049E+02  0.00000000000E+00 0.  1.
</event>
<event>
 8    1  0.7112384E-009  0.1538406E+03  0.7561462E-02  0.1195832E+00
          4   -1    0    0  501    0  0.00000000000E+00  0.00000000000E+00  0.57139806083E+03  0.57139806083E+03  0.00000000000E+00 0. -1.
         -4   -1    0    0    0  501 -0.00000000000E+00 -0.00000000000E+00 -0.55671016774E+02  0.55671016774E+02  0.00000000000E+00 0.  1.
         25    2    1    2    0    0 -0.11857649133E+03 -0.75553605810E+02  0.25523541427E+03  0.31711596308E+03  0.12509470692E+03 0.  0.
         23    2    1    2    0    0  0.11857649133E+03  0.75553605810E+02  0.26049162979E+03  0.30995311452E+03  0.91903821275E+02 0.  0.
          5    1    3    3  502    0 -0.91298928681E+02 -0.34289807897E+02  0.24854389801E+03  0.26702589189E+03  0.41800000000E+01 0. -1.
         -5    1    3    3    0  502 -0.27277562650E+02 -0.41263797912E+02  0.66915162635E+01  0.50090071193E+02  0.41800000000E+01 0. -1.
        -11    1    4    4    0    0  0.13460846832E+02  0.50638005462E+02  0.13239191329E+03  0.14238335822E+03  0.00000000000E+00 0. -1.
         11    1    4    4    0    0  0.10511564450E+03  0.24915600347E+02  0.12809971650E+03  0.16756975630E+03  0.00000000000E+00 0.  1.
</event>
<event>
 8    1  0.7112384E-009  0.1129989E+03  0.7561462E-02  0.1255115E+00
          1   -1    0    0  501    0  0.00000000000E+00  0.00000000000E+00  0.70348429249E+03  0.70348429249E+03  0.00000000000E+00 0.  1.
         -1   -1    0    0    0  501 -0.00000000000E+00 -0.00000000000E+00 -0.26565711336E+02  0.26565711336E+02  0.00000000000E+00 0. -1.
         25    2    1    2    0    0 -0.39732178814E+02 -0.35404203075E+01  0.56348630839E+03  0.57858029531E+03  0.12508859967E+03 0.  0.
         23    2    1    2    0    0  0.39732178814E+02  0.35404203075E+01  0.11343227276E+03  0.15146970851E+03  0.92114122068E+02 0.  0.
          5    1    3    3  502    0  0.13986272335E+02  0.48572302466E+02  0.31422435266E+03  0.31829121977E+03  0.41800000000E+01 0.  1.
         -5    1    3    3    0  502 -0.53718451149E+02 -0.52112722773E+02  0.24926195573E+03  0.26028907553E+03  0.41800000000E+01 0.  1.
        -11    1    4    4    0    0  0.44274738379E+02 -0.38113098163E+02  0.63460351512E+02  0.86255880519E+02  0.00000000000E+00 0. -1.
         11    1    4    4    0    0 -0.45425595653E+01  0.41653518470E+02  0.49971921250E+02  0.65213827995E+02  0.00000000000E+00 0.  1.
</event>
<event>
 8    1  0.7112384E-009  0.1119771E+03  0.7561462E-02  0.1256952E+00
          2   -1    0    0  501    0  0.00000000000E+00  0.00000000000E+00  0.38712699119E+03  0.38712699119E+03  0.00000000000E+00 0. -1.
         -2   -1    0    0    0  501 -0.00000000000E+00 -0.00000000000E+00 -0.37672744642E+02  0.37672744642E+02  0.00000000000E+00 0.  1.
         25    2    1    2    0    0 -0.15933494587E+02  0.25090676209E+02  0.27199248186E+03  0.30084755756E+03  0.12508366967E+03 0.  0.
         23    2    1    2    0    0  0.15933494587E+02 -0.25090676209E+02  0.77461764686E+02  0.12395217827E+03  0.92089083106E+02 0.  0.
          5    1    3    3  502    0  0.69841944630E+01 -0.49344544374E+02  0.92839686532E+02  0.10545303612E+03  0.41800000000E+01 0. -1.
         -5    1    3    3    0  502 -0.22917689050E+02  0.74435220583E+02  0.17915279533E+03  0.19539452144E+03  0.41800000000E+01 0. -1.
        -11    1    4    4    0    0  0.50235067937E+01 -0.59570915011E+02  0.40298914174E+02  0.72096685218E+02  0.00000000000E+00 0. -1.
         11    1    4    4    0    0  0.10909987793E+02  0.34480238802E+02  0.37162850512E+02  0.51855493053E+02  0.00000000000E+00 0.  1.
</event>
<event>
 8    1  0.7112384E-009  0.1693618E+03  0.7561462E-02  0.1178515E+00
         -2   -1    0    0    0  501 -0.00000000000E+00  0.00000000000E+00  0.35836177313E+03  0.35836177313E+03  0.00000000000E+00 0.  1.
          2   -1    0    0  501    0  0.00000000000E+00 -0.00000000000E+00 -0.14369537675E+03  0.14369537675E+03  0.00000000000E+00 0. -1.
         25    2    1    2    0    0  0.12481550460E+03 -0.73323639607E+02  0.26213327996E+03  0.32452710017E+03  0.12509482791E+03 0.  0.
         23    2    1    2    0    0 -0.12481550460E+03  0.73323639607E+02 -0.47466883573E+02  0.17753004972E+03  0.91151232599E+02 0.  0.
          5    1    3    3  502    0 -0.17270130230E+02 -0.36342680407E+02  0.87070519053E+02  0.96009351135E+02  0.41800000000E+01 0. -1.
         -5    1    3    3    0  502  0.14208563483E+03 -0.36980959200E+02  0.17506276090E+03  0.22851774903E+03  0.41800000000E+01 0. -1.
        -11    1    4    4    0    0 -0.94868122111E+01  0.24279668738E+02  0.22115955729E+02  0.34185046698E+02  0.00000000000E+00 0.  1.
         11    1    4    4    0    0 -0.11532869239E+03  0.49043970868E+02 -0.69582839301E+02  0.14334500302E+03  0.00000000000E+00 0. -1.
</event>
<event>
 8    1  0.7112384E-009  0.1123582E+03  0.7561462E-02  0.1256264E+00
         -2   -1    0    0    0  501 -0.00000000000E+00  0.00000000000E+00  0.32951240764E+03  0.32951240764E+03  0.00000000000E+00 0. -1.
          2   -1    0    0  501    0  0.00000000000E+00 -0.00000000000E+00 -0.43356029375E+02  0.43356029375E+02  0.00000000000E+00 0.  1.
         25    2    1    2    0    0  0.55097051434E+02 -0.33825170828E+01  0.16806131212E+03  0.21665390957E+03  0.12508871013E+03 0.  0.
         23    2    1    2    0    0 -0.55097051434E+02  0.33825170828E+01  0.11809506615E+03  0.15621452745E+03  0.86077914931E+02 0.  0.
          5    1    3    3  502    0  0.66494292755E+02 -0.53320447928E+02  0.10481944759E+03  0.13516342009E+03  0.41800000000E+01 0.  1.
         -5    1    3    3    0  502 -0.11397241322E+02  0.49937930846E+02  0.63241864527E+02  0.81490489480E+02  0.41800000000E+01 0.  1.
        -11    1    4    4    0    0 -0.44090259026E+02 -0.29675625214E+02  0.10729546862E+03  0.11973684169E+03  0.00000000000E+00 0. -1.
         11    1    4    4    0    0 -0.11006792408E+02  0.33058142297E+02  0.10799597530E+02  0.36477685755E+02  0.00000000000E+00 0.  1.
</event>
<event>
 8    1  0.7112384E-009  0.1459618E+03  0.7561462E-02  0.1205525E+00
         -1   -1    0    0    0  501 -0.00000000000E+00  0.00000000000E+00  0.62436983114E+02  0.62436983114E+02  0.00000000000E+00 0.  1.
          1   -1    0    0  501    0  0.00000000000E+00 -0.00000000000E+00 -0.46301170056E+03  0.46301170056E+03  0.00000000000E+00 0. -1.
         25    2    1    2    0    0 -0.96191150079E+02 -0.75631346992E+02 -0.27810892338E+03  0.32857823792E+03  0.12508495979E+03 0.  0.
         23    2    1    2    0    0  0.96191150079E+02  0.75631346992E+02 -0.12246579407E+03  0.19687044576E+03  0.93740405889E+02 0.  0.
          5    1    3    3  502    0 -0.58832612095E+02 -0.68241998106E+01 -0.22782085006E+03  0.23543079253E+03  0.41800000000E+01 0.  1.
         -5    1    3    3    0  502 -0.37358537985E+02 -0.68807147181E+02 -0.50288073321E+02  0.93147445386E+02  0.41800000000E+01 0.  1.
        -11    1    4    4    0    0 -0.10565349829E+02  0.40345632081E+02 -0.32976140240E+02  0.53167870657E+02  0.00000000000E+00 0. -1.
         11    1    4    4    0    0  0.10675649991E+03  0.35285714911E+02 -0.89489653826E+02  0.14370257510E+03  0.00000000000E+00 0.  1.
</event>
<event>
 8    1  0.7112384E-009  0.7997168E+02  0.7561462E-02  0.1329132E+00
          2   -1    0    0  501    0  0.00000000000E+00  0.00000000000E+00  0.28266189251E+03  0.28266189251E+03  0.00000000000E+00 0. -1.
         -2   -1    0    0    0  501 -0.00000000000E+00 -0.00000000000E+00 -0.46627624529E+02  0.46627624529E+02  0.00000000000E+00 0.  1.
         25    2    1    2    0    0  0.32417149158E+02  0.13564064608E+02  0.11776776232E+03  0.17536491273E+03  0.12509496939E+03 0.  0.
         23    2    1    2    0    0 -0.32417149158E+02 -0.13564064608E+02  0.11826650566E+03  0.15392460431E+03  0.92037829410E+02 0.  0.
          5    1    3    3  502    0 -0.31366611353E+02  0.27713895407E+01 -0.89727893324E+01  0.33008002911E+02  0.41800000000E+01 0. -1.
         -5    1    3    3    0  502  0.63783760511E+02  0.10792675067E+02  0.12674055165E+03  0.14235690982E+03  0.41800000000E+01 0. -1.
        -11    1    4    4    0    0 -0.10191444015E+01 -0.28545684507E+02  0.11555161152E+03  0.11902970085E+03  0.00000000000E+00 0. -1.
         11    1    4    4    0    0 -0.31398004757E+02  0.14981619899E+02  0.27148941435E+01  0.34894903463E+02  0.00000000000E+00 0.  1.
</event>
<event>
 8    1  0.7112384E-009  0.1187176E+03  0.7561462E-02  0.1245228E+00
         -1   -1    0    0    0  501 -0.00000000000E+00  0.00000000000E+00  0.87094242402E+02  0.87094242402E+02  0.00000000000E+00 0.  1.
          1   -1    0    0  501    0  0.00000000000E+00 -0.00000000000E+00 -0.28371298889E+03  0.28371298889E+03  0.00000000000E+00 0. -1.
         25    2    1    2    0    0  0.25098932055E+01  0.11640099645E+03 -0.87441853723E+02  0.19196066825E+03  0.12508928345E+03 0.  0.
         23    2    1    2    0    0 -0.25098932055E+01 -0.11640099645E+03 -0.10917689277E+03  0.17884656305E+03  0.80690815214E+02 0.  0.
          5    1    3    3  502    0 -0.44569882556E+01  0.22915503906E+01  0.28407668690E+02  0.29147624052E+02  0.41800000000E+01 0.  1.
         -5    1    3    3    0  502  0.69668814611E+01  0.11410944606E+03 -0.11584952241E+03  0.16281304420E+03  0.41800000000E+01 0.  1.
        -11    1    4    4    0    0 -0.25535621020E+01 -0.29612558557E+02  0.10051216580E+02  0.31375966255E+02  0.00000000000E+00 0.  1.
         11    1    4    4    0    0  0.43668896432E-01 -0.86788437895E+02 -0.11922810935E+03  0.14747059679E+03  0.00000000000E+00 0. -1.
</event>
<event>
 8    1  0.7112384E-009  0.1154793E+03  0.7561462E-02  0.1250747E+00
         -2   -1    0    0    0  501 -0.00000000000E+00  0.00000000000E+00  0.37543879203E+02  0.37543879203E+02  0.00000000000E+00 0. -1.
          2   -1    0    0  501    0  0.00000000000E+00 -0.00000000000E+00 -0.59458483081E+03  0.59458483081E+03  0.00000000000E+00 0.  1.
         25    2    1    2    0    0  0.69464899620E+02 -0.13374042656E+02 -0.14552655216E+03  0.20452432782E+03  0.12509191018E+03 0.  0.
         23    2    1    2    0    0 -0.69464899620E+02  0.13374042656E+02 -0.41151439945E+03  0.42760438219E+03  0.92180092314E+02 0.  0.
          5    1    3    3  502    0  0.45731246918E+02  0.40159314868E+02 -0.13030069964E+03  0.14387446696E+03  0.41800000000E+01 0.  1.
         -5    1    3    3    0  502  0.23733652702E+02 -0.53533357525E+02 -0.15225852522E+02  0.60649860869E+02  0.41800000000E+01 0.  1.
        -11    1    4    4    0    0 -0.52580104003E+02 -0.32874923409E+02 -0.28877852527E+03  0.29536158278E+03  0.00000000000E+00 0. -1.
         11    1    4    4    0    0 -0.16884795617E+02  0.46248966066E+02 -0.12273587418E+03  0.13224279941E+03  0.00000000000E+00 0.  1.
</event>
<event>
 8    1  0.7112384E-009  0.1068195E+03  0.7561462E-02  0.1266576E+00
         -1   -1    0    0    0  501 -0.00000000000E+00  0.00000000000E+00  0.28057626112E+02  0.28057626112E+02  0.00000000000E+00 0.  1.
          1   -1    0    0  501    0  0.00000000000E+00 -0.00000000000E+00 -0.44804106387E+03  0.44804106387E+03  0.00000000000E+00 0. -1.
         25    2    1    2    0    0  0.79318175100E+01 -0.21432576209E+02 -0.21356636139E+03  0.24855627657E+03  0.12508941944E+03 0.  0.
         23    2    1    2    0    0 -0.79318175100E+01  0.21432576209E+02 -0.20641707637E+03  0.22754241341E+03  0.92979951765E+02 0.  0.
          5    1    3    3  502    0 -0.44411613819E+02  0.22035484908E+02 -0.13845962980E+03  0.14712748051E+03  0.41800000000E+01 0.  1.
         -5    1    3    3    0  502  0.52343431330E+02 -0.43468061117E+02 -0.75106731582E+02  0.10142879606E+03  0.41800000000E+01 0.  1.
        -11    1    4    4    0    0 -0.49325235295E+02  0.48866238942E+00 -0.10356121045E+03  0.11470894445E+03  0.00000000000E+00 0. -1.
         11    1    4    4    0    0  0.41393417785E+02  0.20943913819E+02 -0.10285586592E+03  0.11283346896E+03  0.00000000000E+00 0.  1.
</event>
<event>
 8    1  0.7112384E-009  0.1084720E+03  0.7561462E-02  0.1263426E+00
         -1   -1    0    0    0  501 -0.00000000000E+00  0.00000000000E+00  0.52540244620E+02  0.52540244620E+02  0.00000000000E+00 0.  1.
          1   -1    0    0  501    0  0.00000000000E+00 -0.00000000000E+00 -0.25425282443E+03  0.25425282443E+03  0.00000000000E+00 0. -1.
         25    2    1    2    0    0  0.14536816884E+01 -0.41422425650E+02 -0.13604943486E+03  0.18940602416E+03  0.12508901921E+03 0.  0.
         23    2    1    2    0    0 -0.14536816884E+01  0.41422425650E+02 -0.65663144950E+02  0.11738704489E+03  0.88034874713E+02 0.  0.
          5    1    3    3  502    0 -0.19406030046E+02  0.39067729313E+02 -0.72316260108E+02  0.84557645141E+02  0.41800000000E+01 0. -1.
         -5    1    3    3    0  502  0.20859711735E+02 -0.80490154963E+02 -0.63733174753E+02  0.10484837902E+03  0.41800000000E+01 0. -1.
        -11    1    4    4    0    0 -0.37766310653E+02  0.44198938406E+01 -0.50800269170E+02  0.63454684852E+02  0.00000000000E+00 0. -1.
         11    1    4    4    0    0  0.36312628965E+02  0.37002531809E+02 -0.14862875780E+02  0.53932360036E+02  0.00000000000E+00 0.  1.
</event>
<event>
 8    1  0.7112384E-009  0.1011418E+03  0.7561462E-02  0.1277913E+00
          1   -1    0    0  501    0  0.00000000000E+00  0.00000000000E+00  0.19953041652E+03  0.19953041652E+03  0.00000000000E+00 0. -1.
         -1   -1    0    0    0  501 -0.00000000000E+00 -0.00000000000E+00 -0.69120816001E+02  0.69120816001E+02  0.00000000000E+00 0.  1.
         25    2    1    2    0    0 -0.22315804198E+02  0.52725823772E+01  0.11452111060E+03  0.17113724086E+03  0.12508826962E+03 0.  0.
         23    2    1    2    0    0  0.22315804198E+02 -0.52725823772E+01  0.15888489922E+02  0.97513991658E+02  0.93438424726E+02 0.  0.
          5    1    3    3  502    0  0.38309932257E+02  0.20630916032E+02  0.37641477386E+01  0.43873987898E+02  0.41800000000E+01 0.  1.
         -5    1    3    3    0  502 -0.60625736455E+02 -0.15358333654E+02  0.11075696286E+03  0.12726325296E+03  0.41800000000E+01 0.  1.
        -11    1    4    4    0    0  0.58995213266E+02 -0.14520862086E+01  0.58993969978E+01  0.59307222389E+02  0.00000000000E+00 0. -1.
         11    1    4    4    0    0 -0.36679409068E+02 -0.38204961686E+01  0.99890929241E+01  0.38206769269E+02  0.00000000000E+00 0.  1.
</event>
<event>
 8    1  0.7112384E-009  0.1197589E+03  0.7561462E-02  0.1243495E+00
         -2   -1    0    0    0  501 -0.00000000000E+00  0.00000000000E+00  0.58807107773E+02  0.58807107773E+02  0.00000000000E+00 0.  1.
          2   -1    0    0  501    0  0.00000000000E+00 -0.00000000000E+00 -0.34987854532E+03  0.34987854532E+03  0.00000000000E+00 0. -1.
         25    2    1    2    0    0  0.91856222568E+02 -0.64985733383E+01 -0.13791552597E+03  0.20772062880E+03  0.12508944897E+03 0.  0.
         23    2    1    2    0    0 -0.91856222568E+02  0.64985733383E+01 -0.15315591158E+03  0.20096502429E+03  0.91926115216E+02 0.  0.
          5    1    3    3  502    0  0.21418552484E+02 -0.56639066184E+02 -0.25492913534E+02  0.65833876152E+02  0.41800000000E+01 0. -1.
         -5    1    3    3    0  502  0.70437670084E+02  0.50140492846E+02 -0.11242261243E+03  0.14188675264E+03  0.41800000000E+01 0. -1.
        -11    1    4    4    0    0 -0.61458418976E+02  0.16862056056E+01 -0.15824671892E+03  0.16977044679E+03  0.00000000000E+00 0. -1.
         11    1    4    4    0    0 -0.30397803592E+02  0.48123677327E+01  0.50908073463E+01  0.31194577507E+02  0.00000000000E+00 0.  1.
</event>
<event>
 8    1  0.7112384E-009  0.8892596E+02  0.7561462E-02  0.1305474E+00
          1   -1    0    0  501    0  0.00000000000E+00  0.00000000000E+00  0.16019384192E+03  0.16019384192E+03  0.00000000000E+00 0. -1.
         -1   -1    0    0    0  501 -0.00000000000E+00 -0.00000000000E+00 -0.98754425245E+02  0.98754425245E+02  0.00000000000E+00 0.  1.
         25    2    1    2    0    0  0.48104898811E+02  0.39207873839E+02  0.49715369371E+02  0.14822469127E+03  0.12509037729E+03 0.  0.
         23    2    1    2    0    0 -0.48104898811E+02 -0.39207873839E+02  0.11724047308E+02  0.11072357590E+03  0.90944589251E+02 0.  0.
          5    1    3    3  502    0  0.39179586325E+02  0.10562106528E+02  0.89418638253E+02  0.98284095081E+02  0.41800000000E+01 0. -1.
         -5    1    3    3    0  502  0.89253124860E+01  0.28645767310E+02 -0.39703268882E+02  0.49940596189E+02  0.41800000000E+01 0. -1.
        -11    1    4    4    0    0 -0.37265411216E+02  0.22886215986E+02  0.18180802270E+02  0.47360651668E+02  0.00000000000E+00 0. -1.
         11    1    4    4    0    0 -0.10839487594E+02 -0.62094089824E+02 -0.64567549624E+01  0.63362924231E+02  0.00000000000E+00 0.  1.
</event>
<event>
 8    1  0.7112384E-009  0.1208630E+03  0.7561462E-02  0.1241680E+00
          2   -1    0    0  501    0  0.00000000000E+00  0.00000000000E+00  0.12155966702E+04  0.12155966702E+04  0.00000000000E+00 0. -1.
         -2   -1    0    0    0  501 -0.00000000000E+00 -0.00000000000E+00 -0.23043840941E+02  0.23043840941E+02  0.00000000000E+00 0.  1.
         25    2    1    2    0    0 -0.10936447694E+03 -0.18433088491E+02  0.84866481779E+03  0.86497351709E+03  0.12508734848E+03 0.  0.
         23    2    1    2    0    0  0.10936447694E+03  0.18433088491E+02  0.34388801148E+03  0.37366699406E+03  0.95224421461E+02 0.  0.
          5    1    3    3  502    0 -0.19356783126E+02  0.18249154792E+02  0.29075363380E+02  0.39630365369E+02  0.41800000000E+01 0.  1.
         -5    1    3    3    0  502 -0.90007693810E+02 -0.36682243283E+02  0.81958945441E+03  0.82534315172E+03  0.41800000000E+01 0.  1.
        -11    1    4    4    0    0  0.74076675514E+02 -0.64131808381E+01  0.92878532571E+02  0.11897438614E+03  0.00000000000E+00 0.  1.
         11    1    4    4    0    0  0.35287801422E+02  0.24846269329E+02  0.25100947891E+03  0.25469260793E+03  0.00000000000E+00 0. -1.
</event>
<event>
 8    1  0.7112384E-009  0.1099746E+03  0.7561462E-02  0.1260617E+00
         -2   -1    0    0    0  501 -0.00000000000E+00  0.00000000000E+00  0.16123495563E+02  0.16123495563E+02  0.00000000000E+00 0. -1.
          2   -1    0    0  501    0  0.00000000000E+00 -0.00000000000E+00 -0.12850710081E+04  0.12850710081E+04  0.00000000000E+00 0.  1.
         25    2    1    2    0    0 -0.83440298210E+02 -0.20707946408E+02 -0.85487033036E+03  0.86824055706E+03  0.12508909135E+03 0.  0.
         23    2    1    2    0    0  0.83440298210E+02  0.20707946408E+02 -0.41407718216E+03  0.43295394659E+03  0.92725965478E+02 0.  0.
          5    1    3    3  502    0 -0.40538917878E+02 -0.50845336897E+02 -0.72785912266E+03  0.73077016016E+03  0.41800000000E+01 0.  1.
         -5    1    3    3    0  502 -0.42901380332E+02  0.30137390489E+02 -0.12701120771E+03  0.13747039690E+03  0.41800000000E+01 0.  1.
        -11    1    4    4    0    0  0.68262322852E+02 -0.89784479813E+01 -0.37638946539E+03  0.38263479573E+03  0.00000000000E+00 0.  1.
         11    1    4    4    0    0  0.15177975358E+02  0.29686394389E+02 -0.37687716772E+02  0.50319150860E+02  0.00000000000E+00 0. -1.
</event>
<event>
 8    1  0.7112384E-009  0.1163717E+03  0.7561462E-02  0.1249206E+00
          2   -1    0    0  501    0  0.00000000000E+00  0.00000000000E+00  0.22963543172E+03  0.22963543172E+03  0.00000000000E+00 0.  1.
         -2   -1    0    0    0  501 -0.00000000000E+00 -0.00000000000E+00 -0.88513029136E+02  0.88513029136E+02  0.00000000000E+00 0. -1.
         25    2    1    2    0    0 -0.46386275407E+02  0.27413049952E+02 -0.73708782240E+01  0.13640187199E+03  0.12509188216E+03 0.  0.
         23    2    1    2    0    0  0.46386275407E+02 -0.27413049952E+02  0.14849328081E+03  0.18174658887E+03  0.89879954754E+02 0.  0.
          5    1    3    3  502    0 -0.84647277184E+02  0.30270849374E+02 -0.25819199269E+02  0.93624725940E+02  0.41800000000E+01 0. -1.
         -5    1    3    3    0  502  0.38261001777E+02 -0.28577994229E+01  0.18448321045E+02  0.42777146047E+02  0.41800000000E+01 0. -1.
        -11    1    4    4    0    0  0.68992283636E+02 -0.48290561094E+00  0.88592378494E+02  0.11228881479E+03  0.00000000000E+00 0.  1.
         11    1    4    4    0    0 -0.22606008229E+02 -0.26930144341E+02  0.59900902316E+02  0.69457774083E+02  0.00000000000E+00 0. -1.
</event>
<event>
 8    1  0.7112384E-009  0.1700985E+03  0.7561462E-02  0.1177745E+00
          1   -1    0    0  501    0  0.00000000000E+00  0.00000000000E+00  0.11906306592E+03  0.11906306592E+03  0.00000000000E+00 0. -1.
         -1   -1    0    0    0  501 -0.00000000000E+00 -0.00000000000E+00 -0.33536396265E+03  0.33536396265E+03  0.00000000000E+00 0.  1.
         25    2    1    2    0    0  0.94586495465E+01 -0.15914483218E+03 -0.16976087885E+03  0.26434928631E+03  0.12508095587E+03 0.  0.
         23    2    1    2    0    0 -0.94586495465E+01  0.15914483218E+03 -0.46540017877E+02  0.19007774226E+03  0.92450155084E+02 0.  0.
          5    1    3    3  502    0  0.15436734592E+02 -0.15259002449E+03 -0.78090380971E+02  0.17215570960E+03  0.41800000000E+01 0. -1.
         -5    1    3    3    0  502 -0.59780850452E+01 -0.65548076987E+01 -0.91670497879E+02  0.92193576708E+02  0.41800000000E+01 0. -1.
        -11    1    4    4    0    0  0.21648615143E+02  0.13719493337E+03 -0.13283476765E+02  0.13952620913E+03  0.00000000000E+00 0. -1.
         11    1    4    4    0    0 -0.31107264690E+02  0.21949898815E+02 -0.33256541112E+02  0.50551533124E+02  0.00000000000E+00 0.  1.
</event>
<event>
 8    1  0.7112384E-009  0.1967687E+03  0.7561462E-02  0.1152494E+00
          2   -1    0    0  501    0  0.00000000000E+00  0.00000000000E+00  0.59634426356E+03  0.59634426356E+03  0.00000000000E+00 0.  1.
         -2   -1    0    0    0  501 -0.00000000000E+00 -0.00000000000E+00 -0.75884177971E+02  0.75884177971E+02  0.00000000000E+00 0. -1.
         25    2    1    2    0    0 -0.14337852553E+02  0.18098718279E+03  0.32032338445E+03  0.38886554803E+03  0.12508960575E+03 0.  0.
         23    2    1    2    0    0  0.14337852553E+02 -0.18098718279E+03  0.20013670114E+03  0.28336289350E+03  0.85310585038E+02 0.  0.
          5    1    3    3  502    0 -0.30212865656E+02  0.17209017412E+03  0.19378042597E+03  0.26095243085E+03  0.41800000000E+01 0. -1.
         -5    1    3    3    0  502  0.15875013103E+02  0.88970086727E+01  0.12654295848E+03  0.12791311717E+03  0.41800000000E+01 0. -1.
        -11    1    4    4    0    0 -0.35020262226E+02 -0.90133308314E+02  0.86689658492E+02  0.12986735126E+03  0.00000000000E+00 0. -1.
         11    1    4    4    0    0  0.49358114780E+02 -0.90853874478E+02  0.11344704264E+03  0.15349554224E+03  0.00000000000E+00 0.  1.
</event>
<event>
 8    1  0.7112384E-009  0.1022521E+03  0.7561462E-02  0.1275630E+00
          1   -1    0    0  501    0  0.00000000000E+00  0.00000000000E+00  0.32879101435E+03  0.32879101435E+03  0.00000000000E+00 0. -1.
         -1   -1    0    0    0  501 -0.00000000000E+00 -0.00000000000E+00 -0.48455886351E+02  0.48455886351E+02  0.00000000000E+00 0.  1.
         25    2    1    2    0    0  0.58516707341E+02 -0.26453531851E+02  0.15674964401E+03  0.21057394740E+03  0.12508773737E+03 0.  0.
         23    2    1    2    0    0 -0.58516707341E+02  0.26453531851E+02  0.12358548399E+03  0.16667295330E+03  0.91556032699E+02 0.  0.
          5    1    3    3  502    0 -0.31144117530E+02  0.38497466112E+01  0.87999574439E+02  0.93520982176E+02  0.41800000000E+01 0.  1.
         -5    1    3    3    0  502  0.89660824870E+02 -0.30303278463E+02  0.68750069569E+02  0.11705296522E+03  0.41800000000E+01 0.  1.
        -11    1    4    4    0    0 -0.37737762158E+01  0.22946984657E+02 -0.76120191758E+01  0.24469334435E+02  0.00000000000E+00 0.  1.
         11    1    4    4    0    0 -0.54742931125E+02  0.35065471944E+01  0.13119750317E+03  0.14220361887E+03  0.00000000000E+00 0. -1.
</event>
<event>
 8    1  0.7112384E-009  0.1039061E+03  0.7561462E-02  0.1272290E+00
          2   -1    0    0  501    0  0.00000000000E+00  0.00000000000E+00  0.54099315667E+03  0.54099315667E+03  0.00000000000E+00 0.  1.
         -2   -1    0    0    0  501 -0.00000000000E+00 -0.00000000000E+00 -0.28133024590E+02  0.28133024590E+02  0.00000000000E+00 0. -1.
         25    2    1    2    0    0 -0.40830251608E+02 -0.19662506284E+02  0.22599026367E+03  0.26224762538E+03  0.12509394127E+03 0.  0.
         23    2    1    2    0    0  0.40830251608E+02  0.19662506284E+02  0.28686986840E+03  0.30687855588E+03  0.99128215256E+02 0.  0.
          5    1    3    3  502    0 -0.67339112324E+02  0.31518910742E+02  0.14124216564E+03  0.15967097274E+03  0.41800000000E+01 0.  1.
         -5    1    3    3    0  502  0.26508860716E+02 -0.51181417026E+02  0.84748098036E+02  0.10257665264E+03  0.41800000000E+01 0.  1.
        -11    1    4    4    0    0  0.50000360425E+02 -0.40163490649E+01  0.27372925120E+03  0.27828738754E+03  0.00000000000E+00 0.  1.
         11    1    4    4    0    0 -0.91701088165E+01  0.23678855349E+02  0.13140617206E+02  0.28591168338E+02  0.00000000000E+00 0. -1.
</event>
<event>
 8    1  0.7112384E-009  0.1100450E+03  0.7561462E-02  0.1260487E+00
         -2   -1    0    0    0  501 -0.00000000000E+00  0.00000000000E+00  0.50493478885E+02  0.50493478885E+02  0.00000000000E+00 0.  1.
          2   -1    0    0  501    0  0.00000000000E+00 -0.00000000000E+00 -0.42453286545E+03  0.42453286545E+03  0.00000000000E+00 0. -1.
         25    2    1    2    0    0  0.49752818066E+02 -0.10061883397E+02 -0.66628624647E+02  0.15054520403E+03  0.12509156819E+03 0.  0.
         23    2    1    2    0    0 -0.49752818066E+02  0.10061883397E+02 -0.30741076192E+03  0.32448114031E+03  0.90609323279E+02 0.  0.
          5    1    3    3  502    0  0.22854458928E+02  0.53535980351E+02 -0.61965184455E+01  0.58688131047E+02  0.41800000000E+01 0.  1.
         -5    1    3    3    0  502  0.26898359138E+02 -0.63597863748E+02 -0.60432106202E+02  0.91857072986E+02  0.41800000000E+01 0.  1.
        -11    1    4    4    0    0 -0.46548784719E+02 -0.28022262766E+02 -0.24768257120E+03  0.25357186880E+03  0.00000000000E+00 0.  1.
         11    1    4    4    0    0 -0.32040333474E+01  0.38084146164E+02 -0.59728190721E+02  0.70909271506E+02  0.00000000000E+00 0. -1.
</event>
<event>
 8    1  0.7112384E-009  0.1145109E+03  0.7561462E-02  0.1252437E+00
          2   -1    0    0  501    0  0.00000000000E+00  0.00000000000E+00  0.99757237886E+02  0.99757237886E+02  0.00000000000E+00 0.  1.
         -2   -1    0    0    0  501 -0.00000000000E+00 -0.00000000000E+00 -0.17076197762E+03  0.17076197762E+03  0.00000000000E+00 0. -1.
         25    2    1    2    0    0  0.94817631710E+01 -0.72496468002E+02 -0.35258687181E+02  0.14911713581E+03  0.12508838261E+03 0.  0.
         23    2    1    2    0    0 -0.94817631710E+01  0.72496468002E+02 -0.35746052550E+02  0.12140207969E+03  0.90083533319E+02 0.  0.
          5    1    3    3  502    0  0.53564162504E+02 -0.63394081000E+01  0.13506343355E+02  0.55760212613E+02  0.41800000000E+01 0.  1.
         -5    1    3    3    0  502 -0.44082399333E+02 -0.66157059902E+02 -0.48765030536E+02  0.93356923198E+02  0.41800000000E+01 0.  1.
        -11    1    4    4    0    0  0.24029139396E+02  0.13759555398E+02 -0.45314102910E+02  0.53104546203E+02  0.00000000000E+00 0. -1.
         11    1    4    4    0    0 -0.33510902567E+02  0.58736912603E+02  0.95680503601E+01  0.68297533489E+02  0.00000000000E+00 0.  1.
</event>
<event>
 8    1  0.7112384E-009  0.1011573E+03  0.7561462E-02  0.1277881E+00
         -2   -1    0    0    0  501 -0.00000000000E+00  0.00000000000E+00  0.44219268189E+02  0.44219268189E+02  0.00000000000E+00 0.  1.
          2   -1    0    0  501    0  0.00000000000E+00 -0.00000000000E+00 -0.33343615298E+03  0.33343615298E+03  0.00000000000E+00 0. -1.
         25    2    1    2    0    0  0.49436584302E+02  0.51863070682E+01 -0.13304437895E+03  0.18926616878E+03  0.12509996893E+03 0.  0.
         23    2    1    2    0    0 -0.49436584302E+02 -0.51863070682E+01 -0.15617250584E+03  0.18838925239E+03  0.92896637113E+02 0.  0.
          5    1    3    3  502    0  0.23811453881E+02 -0.52306539591E+02 -0.10595829022E+03  0.12061339514E+03  0.41800000000E+01 0.  1.
         -5    1    3    3    0  502  0.25625130421E+02  0.57492846659E+02 -0.27086088727E+02  0.68652773640E+02  0.41800000000E+01 0.  1.
        -11    1    4    4    0    0 -0.35299613405E+02  0.28310552626E+02 -0.14255601231E+03  0.14956525915E+03  0.00000000000E+00 0. -1.
         11    1    4    4    0    0 -0.14136970897E+02 -0.33496859694E+02 -0.13616493529E+02  0.38823993246E+02  0.00000000000E+00 0.  1.
</event>
<event>
 8    1  0.7112384E-009  0.1105977E+03  0.7561462E-02  0.1259467E+00
         -2   -1    0    0    0  501 -0.00000000000E+00  0.00000000000E+00  0.23168208597E+02  0.23168208597E+02  0.00000000000E+00 0.  1.
          2   -1    0    0  501    0  0.00000000000E+00 -0.00000000000E+00 -0.86048479736E+03  0.86048479736E+03  0.00000000000E+00 0. -1.
         25    2    1    2    0    0 -0.32403318846E+01  0.72869433352E+02 -0.29656252550E+03  0.33002488282E+03  0.12508652079E+03 0.  0.
         23    2    1    2    0    0  0.32403318846E+01 -0.72869433352E+02 -0.54075406327E+03  0.55362812314E+03  0.93641271461E+02 0.  0.
          5    1    3    3  502    0 -0.10636218854E+02 -0.12453702569E+02 -0.20069734787E+03  0.20140784916E+03  0.41800000000E+01 0.  1.
         -5    1    3    3    0  502  0.73958869694E+01  0.85323135921E+02 -0.95865177628E+02  0.12861703367E+03  0.41800000000E+01 0.  1.
        -11    1    4    4    0    0 -0.40530248752E+02 -0.60928354086E+02 -0.32011899489E+03  0.32837651604E+03  0.00000000000E+00 0.  1.
         11    1    4    4    0    0  0.43770580636E+02 -0.11941079266E+02 -0.22063506838E+03  0.22525160710E+03  0.00000000000E+00 0. -1.
</event>
<event>
 8    1  0.7112384E-009  0.1598506E+03  0.7561462E-02  0.1188866E+00
         -2   -1    0    0    0  501 -0.00000000000E+00  0.00000000000E+00  0.14754809055E+03  0.14754809055E+03  0.00000000000E+00 0.  1.
          2   -1    0    0  501    0  0.00000000000E+00 -0.00000000000E+00 -0.22623446757E+03  0.22623446757E+03  0.00000000000E+00 0. -1.
         25    2    1    2    0    0  0.79569062202E+02  0.12105747175E+03 -0.17970023410E+02  0.19223634564E+03  0.12508294734E+03 0.  0.
         23    2    1    2    0    0 -0.79569062202E+02 -0.12105747175E+03 -0.60716353612E+02  0.18154621248E+03  0.91029690457E+02 0.  0.
          5    1    3    3  502    0  0.12590794645E+02 -0.10692492823E+02 -0.39313385328E+02  0.42847078996E+02  0.41800000000E+01 0. -1.
         -5    1    3    3    0  502  0.66978267557E+02  0.13174996457E+03  0.21343361918E+02  0.14938926664E+03  0.41800000000E+01 0. -1.
        -11    1    4    4    0    0 -0.70916271638E+02 -0.59293427867E+02  0.28654954325E+01  0.92482642886E+02  0.00000000000E+00 0.  1.
         11    1    4    4    0    0 -0.86527905644E+01 -0.61764043881E+02 -0.63581849045E+02  0.89063569596E+02  0.00000000000E+00 0. -1.
</event>
<event>
 8    1  0.7112384E-009  0.1763452E+03  0.7561462E-02  0.1171388E+00
          1   -1    0    0  501    0  0.00000000000E+00  0.00000000000E+00  0.26856717194E+03  0.26856717194E+03  0.00000000000E+00 0. -1.
         -1   -1    0    0    0  501 -0.00000000000E+00 -0.00000000000E+00 -0.13690274981E+03  0.13690274981E+03  0.00000000000E+00 0.  1.
         25    2    1    2    0    0  0.32462642953E+02 -0.15051035511E+03  0.30778262067E+02  0.20075593883E+03  0.12509378633E+03 0.  0.
         23    2    1    2    0    0 -0.32462642953E+02  0.15051035511E+03  0.10088616006E+03  0.20471398291E+03  0.89569008725E+02 0.  0.
          5    1    3    3  502    0  0.14646605713E+02  0.12174687175E+02  0.31495858491E+02  0.37043320164E+02  0.41800000000E+01 0. -1.
         -5    1    3    3    0  502  0.17816037240E+02 -0.16268504228E+03 -0.71759642360E+00  0.16371261867E+03  0.41800000000E+01 0. -1.
        -11    1    4    4    0    0 -0.31155398523E+02  0.16111208456E+02 -0.24730818023E+01  0.35161712538E+02  0.00000000000E+00 0.  1.
         11    1    4    4    0    0 -0.13072444303E+01  0.13439914665E+03  0.10335924187E+03  0.16955227037E+03  0.00000000000E+00 0. -1.
</event>
<event>
 8    1  0.7112384E-009  0.2502643E+03  0.7561462E-02  0.1113138E+00
          2   -1    0    0  501    0  0.00000000000E+00  0.00000000000E+00  0.11759526289E+03  0.11759526289E+03  0.00000000000E+00 0. -1.
         -2   -1    0    0    0  501 -0.00000000000E+00 -0.00000000000E+00 -0.63141455111E+03  0.63141455111E+03  0.00000000000E+00 0.  1.
         25    2    1    2    0    0  0.21830348242E+03 -0.11632347976E+03 -0.21388136613E+03  0.35011472515E+03  0.12509004600E+03 0.  0.
         23    2    1    2    0    0 -0.21830348242E+03  0.11632347976E+03 -0.29993792209E+03  0.39889508885E+03  0.89257898374E+02 0.  0.
          5    1    3    3  502    0  0.14550344268E+03 -0.57858777756E+02 -0.20242206766E+03  0.25595127636E+03  0.41800000000E+01 0. -1.
         -5    1    3    3    0  502  0.72800039736E+02 -0.58464702002E+02 -0.11459298471E+02  0.94163448785E+02  0.41800000000E+01 0. -1.
        -11    1    4    4    0    0 -0.38153050857E+02  0.38437185744E+02 -0.21572986890E+02  0.58296366105E+02  0.00000000000E+00 0. -1.
         11    1    4    4    0    0 -0.18015043156E+03  0.77886294014E+02 -0.27836493520E+03  0.34059872275E+03  0.00000000000E+00 0.  1.
</event>
<event>
 8    1  0.7112384E-009  0.9700417E+02  0.7561462E-02  0.1286725E+00
         -2   -1    0    0    0  501 -0.00000000000E+00  0.00000000000E+00  0.23981320136E+03  0.23981320136E+03  0.00000000000E+00 0. -1.
          2   -1    0    0  501    0  0.00000000000E+00 -0.00000000000E+00 -0.59712996891E+02  0.59712996891E+02  0.00000000000E+00 0.  1.
         25    2    1    2    0    0 -0.24159334826E+02 -0.35775477477E+01  0.15717391819E+03  0.20236075592E+03  0.12509901147E+03 0.  0.
         23    2    1    2    0    0  0.24159334826E+02  0.35775477477E+01  0.22926286282E+02  0.97165442332E+02  0.91208751081E+02 0.  0.
          5    1    3    3  502    0  0.50569382109E+02  0.82542738851E+01  0.70139533904E+02  0.86962187533E+02  0.41800000000E+01 0.  1.
         -5    1    3    3    0  502 -0.74728716935E+02 -0.11831821633E+02  0.87034384283E+02  0.11539856839E+03  0.41800000000E+01 0.  1.
        -11    1    4    4    0    0  0.39881131898E+02  0.19547792715E+02  0.46731953258E+02  0.64470895269E+02  0.00000000000E+00 0. -1.
         11    1    4    4    0    0 -0.15721797072E+02 -0.15970244968E+02 -0.23805666976E+02  0.32694547063E+02  0.00000000000E+00 0.  1.
</event>
<event>
 8    1  0.7112384E-009  0.8893205E+02  0.7561462E-02  0.1305459E+00
          2   -1    0    0  501    0  0.00000000000E+00  0.00000000000E+00  0.24321788696E+02  0.24321788696E+02  0.00000000000E+00 0. -1.
         -2   -1    0    0    0  501 -0.00000000000E+00 -0.00000000000E+00 -0.58588441639E+03  0.58588441639E+03  0.00000000000E+00 0.  1.
         25    2    1    2    0    0 -0.44389164729E+00  0.28266031556E+01 -0.40593443987E+03  0.42478107669E+03  0.12509199380E+03 0.  0.
         23    2    1    2    0    0  0.44389164729E+00 -0.28266031556E+01 -0.15562818782E+03  0.18542512840E+03  0.10076784542E+03 0.  0.
          5    1    3    3  502    0  0.56700395534E+02 -0.21801381583E+02 -0.16404970708E+03  0.17498575338E+03  0.41800000000E+01 0.  1.
         -5    1    3    3    0  502 -0.57144287181E+02  0.24627984738E+02 -0.24188473279E+03  0.24979532331E+03  0.41800000000E+01 0.  1.
        -11    1    4    4    0    0 -0.18046363078E+02 -0.21674751505E+02 -0.15648639972E+03  0.15900773368E+03  0.00000000000E+00 0.  1.
         11    1    4    4    0    0  0.18490254725E+02  0.18848148349E+02  0.85821189613E+00  0.26417394717E+02  0.00000000000E+00 0. -1.
</event>
<event>
 8    1  0.7112384E-009  0.1450820E+03  0.7561462E-02  0.1206650E+00
         -2   -1    0    0    0  501 -0.00000000000E+00  0.00000000000E+00  0.78660564593E+02  0.78660564593E+02  0.00000000000E+00 0.  1.
          2   -1    0    0  501    0  0.00000000000E+00 -0.00000000000E+00 -0.40300110461E+03  0.40300110461E+03  0.00000000000E+00 0. -1.
         25    2    1    2    0    0  0.84357649721E+02  0.90111144509E+02 -0.81075680877E+02  0.19353894093E+03  0.12509126347E+03 0.  0.
         23    2    1    2    0    0 -0.84357649721E+02 -0.90111144509E+02 -0.24326485914E+03  0.28812272827E+03  0.92739869651E+02 0.  0.
          5    1    3    3  502    0  0.10956979652E+03  0.62465733258E+02 -0.29349135625E+02  0.12956215613E+03  0.41800000000E+01 0.  1.
         -5    1    3    3    0  502 -0.25212146796E+02  0.27645411251E+02 -0.51726545253E+02  0.63976784798E+02  0.41800000000E+01 0.  1.
        -11    1    4    4    0    0 -0.23048760397E+02 -0.43774923083E+02 -0.22469655898E+02  0.54335758787E+02  0.00000000000E+00 0. -1.
         11    1    4    4    0    0 -0.61308889323E+02 -0.46336221427E+02 -0.22079520324E+03  0.23378696948E+03  0.00000000000E+00 0.  1.
</event>
<event>
 8    1  0.7112384E-009  0.1255001E+03  0.7561462E-02  0.1234290E+00
         -2   -1    0    0    0  501 -0.00000000000E+00  0.00000000000E+00  0.88708025266E+02  0.88708025266E+02  0.00000000000E+00 0.  1.
          2   -1    0    0  501    0  0.00000000000E+00 -0.00000000000E+00 -0.30974562512E+03  0.30974562512E+03  0.00000000000E+00 0. -1.
         25    2    1    2    0    0 -0.38103762766E+02 -0.11745574106E+03 -0.90832095520E+02  0.19785917837E+03  0.12510010808E+03 0.  0.
         23    2    1    2    0    0  0.38103762766E+02  0.11745574106E+03 -0.13020550434E+03  0.20059447202E+03  0.89648876193E+02 0.  0.
          5    1    3    3  502    0 -0.10404570181E+02 -0.79621696387E+02 -0.11853747642E+03  0.14323573343E+03  0.41800000000E+01 0. -1.
         -5    1    3    3    0  502 -0.27699192585E+02 -0.37834044671E+02  0.27705380896E+02  0.54623444935E+02  0.41800000000E+01 0. -1.
        -11    1    4    4    0    0  0.29349344250E+02  0.94302296972E+02 -0.39160147156E+02  0.10624417324E+03  0.00000000000E+00 0.  1.
         11    1    4    4    0    0  0.87544185160E+01  0.23153444086E+02 -0.91045357181E+02  0.94350298785E+02  0.00000000000E+00 0. -1.
</event>
<event>
 8    1  0.7112384E-009  0.1307091E+03  0.7561462E-02  0.1226407E+00
         -1   -1    0    0    0  501 -0.00000000000E+00  0.00000000000E+00  0.52048324677E+02  0.52048324677E+02  0.00000000000E+00 0.  1.
          1   -1    0    0  501    0  0.00000000000E+00 -0.00000000000E+00 -0.12755202265E+04  0.12755202265E+04  0.00000000000E+00 0. -1.
         25    2    1    2    0    0  0.52326369219E+02 -0.92980825073E+02 -0.11637237247E+04  0.11752803814E+04  0.12509030589E+03 0.  0.
         23    2    1    2    0    0 -0.52326369219E+02  0.92980825073E+02 -0.59748177064E+02  0.15228816976E+03  0.90765407725E+02 0.  0.
          5    1    3    3  502    0 -0.12632149439E+02 -0.56974942563E+01 -0.64923183954E+03  0.64939316790E+03  0.41800000000E+01 0.  1.
         -5    1    3    3    0  502  0.64958518658E+02 -0.87283330817E+02 -0.51449188519E+03  0.52588721349E+03  0.41800000000E+01 0.  1.
        -11    1    4    4    0    0 -0.11066448265E+02  0.96051770842E+02 -0.29672622416E+02  0.10113789339E+03  0.00000000000E+00 0.  1.
         11    1    4    4    0    0 -0.41259920954E+02 -0.30709457684E+01 -0.30075554648E+02  0.51150276367E+02  0.00000000000E+00 0. -1.
</event>
<event>
 8    1  0.7112384E-009  0.1688341E+03  0.7561462E-02  0.1179069E+00
         -2   -1    0    0    0  501 -0.00000000000E+00  0.00000000000E+00  0.19898660093E+03  0.19898660093E+03  0.00000000000E+00 0.  1.
          2   -1    0    0  501    0  0.00000000000E+00 -0.00000000000E+00 -0.22260379686E+03  0.22260379686E+03  0.00000000000E+00 0. -1.
         25    2    1    2    0    0  0.13159828542E+03  0.24977854649E+01  0.11162527315E+03  0.21314686869E+03  0.12508812240E+03 0.  0.
         23    2    1    2    0    0 -0.13159828542E+03 -0.24977854649E+01 -0.13524246908E+03  0.20844352910E+03  0.88508935825E+02 0.  0.
          5    1    3    3  502    0  0.15029450655E+03  0.22390716793E+02  0.10498871297E+03  0.18474275398E+03  0.41800000000E+01 0. -1.
         -5    1    3    3    0  502 -0.18696221127E+02 -0.19892931328E+02  0.66365601843E+01  0.28404114708E+02  0.41800000000E+01 0. -1.
        -11    1    4    4    0    0 -0.22551515309E+02 -0.37288351773E+02 -0.45433381328E+02  0.62953825615E+02  0.00000000000E+00 0. -1.
         11    1    4    4    0    0 -0.10904677012E+03  0.34790566308E+02 -0.89809087751E+02  0.14548970348E+03  0.00000000000E+00 0.  1.
</event>
<event>
 8    1  0.7112384E-009  0.1351934E+03  0.7561462E-02  0.1219947E+00
         -1   -1    0    0    0  501 -0.00000000000E+00  0.00000000000E+00  0.92099264302E+02  0.92099264302E+02  0.00000000000E+00 0.  1.
          1   -1    0    0  501    0  0.00000000000E+00 -0.00000000000E+00 -0.24039108942E+03  0.24039108942E+03  0.00000000000E+00 0. -1.
         25    2    1    2    0    0  0.68584218241E+02  0.67489835134E+02 -0.43981034512E+02  0.16383109411E+03  0.12509045992E+03 0.  0.
         23    2    1    2    0    0 -0.68584218241E+02 -0.67489835134E+02 -0.10431079061E+03  0.16865925962E+03  0.91140177632E+02 0.  0.
          5    1    3    3  502    0 -0.32780373109E+02  0.26793611870E+02 -0.33252859754E+02  0.53996996028E+02  0.41800000000E+01 0. -1.
         -5    1    3    3    0  502  0.10136459135E+03  0.40696223263E+02 -0.10728174758E+02  0.10983409808E+03  0.41800000000E+01 0. -1.
        -11    1    4    4    0    0 -0.58567030710E+02 -0.82082472406E+02 -0.52037042956E+02  0.11347018640E+03  0.00000000000E+00 0.  1.
         11    1    4    4    0    0 -0.10017187531E+02  0.14592637272E+02 -0.52273747653E+02  0.55189073215E+02  0.00000000000E+00 0. -1.
</event>
<event>
 8    1  0.7112384E-009  0.1747600E+03  0.7561462E-02  0.1172973E+00
          2   -1    0    0  501    0  0.00000000000E+00  0.00000000000E+00  0.18662561332E+04  0.18662561332E+04  0.00000000000E+00 0. -1.
         -2   -1    0    0    0  501 -0.00000000000E+00 -0.00000000000E+00 -0.55915623082E+02  0.55915623082E+02  0.00000000000E+00 0.  1.
         25    2    1    2    0    0  0.51479686111E+02 -0.12929158081E+03  0.17251038591E+04  0.17352220198E+04  0.12508262242E+03 0.  0.
         23    2    1    2    0    0 -0.51479686111E+02  0.12929158081E+03  0.85236651015E+02  0.18694973646E+03  0.91205517025E+02 0.  0.
          5    1    3    3  502    0  0.90292182262E+02 -0.96779084981E+02  0.10726768860E+04  0.10808200792E+04  0.41800000000E+01 0. -1.
         -5    1    3    3    0  502 -0.38812496151E+02 -0.32512495830E+02  0.65242697308E+03  0.65440194059E+03  0.41800000000E+01 0. -1.
        -11    1    4    4    0    0 -0.46242230096E+02  0.10543949607E+02  0.27194504591E+02  0.54672294606E+02  0.00000000000E+00 0. -1.
         11    1    4    4    0    0 -0.52374560149E+01  0.11874763120E+03  0.58042146424E+02  0.13227744185E+03  0.00000000000E+00 0.  1.
</event>
<event>
 8    1  0.7112384E-009  0.8600680E+02  0.7561462E-02  0.1312820E+00
          1   -1    0    0  501    0  0.00000000000E+00  0.00000000000E+00  0.35900359698E+03  0.35900359698E+03  0.00000000000E+00 0. -1.
         -1   -1    0    0    0  501 -0.00000000000E+00 -0.00000000000E+00 -0.33917863225E+02  0.33917863225E+02  0.00000000000E+00 0.  1.
         25    2    1    2    0    0 -0.62789154616E+01 -0.26540057186E+02  0.15392781218E+03  0.20021192454E+03  0.12508894416E+03 0.  0.
         23    2    1    2    0    0  0.62789154616E+01  0.26540057186E+02  0.17115792158E+03  0.19270953567E+03  0.84250410112E+02 0.  0.
          5    1    3    3  502    0  0.39954639312E+02 -0.15670774397E+02  0.14555076863E+03  0.15180396905E+03  0.41800000000E+01 0. -1.
         -5    1    3    3    0  502 -0.46233554773E+02 -0.10869282788E+02  0.83770435511E+01  0.48407955482E+02  0.41800000000E+01 0. -1.
        -11    1    4    4    0    0 -0.32087488263E+02 -0.37865864124E+01  0.10859937642E+03  0.11330388210E+03  0.00000000000E+00 0. -1.
         11    1    4    4    0    0  0.38366403725E+02  0.30326643598E+02  0.62558545158E+02  0.79405653570E+02  0.00000000000E+00 0.  1.
</event>
<event>
 8    1  0.7112384E-009  0.9370162E+02  0.7561462E-02  0.1294127E+00
          2   -1    0    0  501    0  0.00000000000E+00  0.00000000000E+00  0.65103695708E+03  0.65103695708E+03  0.00000000000E+00 0. -1.
         -2   -1    0    0    0  501 -0.00000000000E+00 -0.00000000000E+00 -0.20643138166E+02  0.20643138166E+02  0.00000000000E+00 0.  1.
         25    2    1    2    0    0 -0.23664465377E+02  0.13919179330E+02  0.44566549015E+03  0.46369616137E+03  0.12507058201E+03 0.  0.
         23    2    1    2    0    0  0.23664465377E+02 -0.13919179330E+02  0.18472832876E+03  0.20798393387E+03  0.91536936959E+02 0.  0.
          5    1    3    3  502    0 -0.57947184660E+02 -0.28924498187E+01  0.39917212737E+03  0.40338827715E+03  0.41800000000E+01 0.  1.
         -5    1    3    3    0  502  0.34282719283E+02  0.16811629149E+02  0.46493362785E+02  0.60307884220E+02  0.41800000000E+01 0.  1.
        -11    1    4    4    0    0  0.43483269990E+02 -0.39306281227E+02  0.85526749145E+02  0.10368511625E+03  0.00000000000E+00 0.  1.
         11    1    4    4    0    0 -0.19818804613E+02  0.25387101896E+02  0.99201579617E+02  0.10429881762E+03  0.00000000000E+00 0. -1.
</event>
<event>
 8    1  0.7112384E-009  0.6062368E+02  0.7561462E-02  0.1395233E+00
          2   -1    0    0  501    0  0.00000000000E+00  0.00000000000E+00  0.11314419990E+03  0.11314419990E+03  0.00000000000E+00 0. -1.
         -2   -1    0    0    0  501 -0.00000000000E+00 -0.00000000000E+00 -0.12813650163E+03  0.12813650163E+03  0.00000000000E+00 0.  1.
         25    2    1    2    0    0  0.17857099255E+00 -0.28028111415E+02  0.37088700295E+02  0.13344873366E+03  0.12508951159E+03 0.  0.
         23    2    1    2    0    0 -0.17857099255E+00  0.28028111415E+02 -0.52081002030E+02  0.10783196786E+03  0.90164824649E+02 0.  0.
          5    1    3    3  502    0 -0.27596526346E+01 -0.15900527816E+02 -0.46205731842E+02  0.49121120941E+02  0.41800000000E+01 0. -1.
         -5    1    3    3    0  502  0.29382236272E+01 -0.12127583599E+02  0.83294432137E+02  0.84327612720E+02  0.41800000000E+01 0. -1.
        -11    1    4    4    0    0 -0.14523527279E+02  0.57142947566E+02 -0.46067011012E+02  0.74822582185E+02  0.00000000000E+00 0. -1.
         11    1    4    4    0    0  0.14344956287E+02 -0.29114836151E+02 -0.60139910177E+01  0.33009385680E+02  0.00000000000E+00 0.  1.
</event>
<event>
 8    1  0.7112384E-009  0.1185209E+03  0.7561462E-02  0.1245557E+00
         -2   -1    0    0    0  501 -0.00000000000E+00  0.00000000000E+00  0.59401142344E+02  0.59401142344E+02  0.00000000000E+00 0.  1.
          2   -1    0    0  501    0  0.00000000000E+00 -0.00000000000E+00 -0.31837004408E+03  0.31837004408E+03  0.00000000000E+00 0. -1.
         25    2    1    2    0    0  0.39665147392E+02  0.54139786259E+02 -0.20945212201E+03  0.25302513411E+03  0.12508831561E+03 0.  0.
         23    2    1    2    0    0 -0.39665147392E+02 -0.54139786259E+02 -0.49516779721E+02  0.12474605231E+03  0.92764355871E+02 0.  0.
          5    1    3    3  502    0 -0.39790733375E+02  0.39941186553E+02 -0.11886031371E+03  0.13162008746E+03  0.41800000000E+01 0.  1.
         -5    1    3    3    0  502  0.79455880766E+02  0.14198599706E+02 -0.90591808302E+02  0.12140504665E+03  0.41800000000E+01 0.  1.
        -11    1    4    4    0    0 -0.80023748260E+00 -0.60325796427E+02 -0.58871574254E+02  0.84295340024E+02  0.00000000000E+00 0. -1.
         11    1    4    4    0    0 -0.38864909909E+02  0.61860101681E+01  0.93547945331E+01  0.40450712290E+02  0.00000000000E+00 0.  1.
</event>
<event>
 8    1  0.7112384E-009  0.1068708E+03  0.7561462E-02  0.1266477E+00
          1   -1    0    0  501    0  0.00000000000E+00  0.00000000000E+00  0.25894503024E+03  0.25894503024E+03  0.00000000000E+00 0. -1.
         -1   -1    0    0    0  501 -0.00000000000E+00 -0.00000000000E+00 -0.10351923082E+03  0.10351923082E+03  0.00000000000E+00 0.  1.
         25    2    1    2    0    0 -0.76821405093E+02 -0.56392885116E+02 -0.32289778305E+01  0.15728549655E+03  0.12508643154E+03 0.  0.
         23    2    1    2    0    0  0.76821405093E+02  0.56392885116E+02  0.15865477725E+03  0.20517876451E+03  0.88573705408E+02 0.  0.
          5    1    3    3  502    0 -0.19802835164E+02 -0.39803647468E+02 -0.60155732658E+02  0.74917736244E+02  0.41800000000E+01 0.  1.
         -5    1    3    3    0  502 -0.57018569929E+02 -0.16589237648E+02  0.56926754828E+02  0.82367760305E+02  0.41800000000E+01 0.  1.
        -11    1    4    4    0    0  0.29134504647E+02  0.54541499850E+02  0.14157826523E+03  0.15449271747E+03  0.00000000000E+00 0. -1.
         11    1    4    4    0    0  0.47686900446E+02  0.18513852657E+01  0.17076512022E+02  0.50686047038E+02  0.00000000000E+00 0.  1.
</event>
<event>
 8    1  0.7112384E-009  0.3745739E+03  0.7561462E-02  0.1052958E+00
          2   -1    0    0  501    0  0.00000000000E+00  0.00000000000E+00  0.77255829359E+03  0.77255829359E+03  0.00000000000E+00 0. -1.
         -2   -1    0    0    0  501 -0.00000000000E+00 -0.00000000000E+00 -0.21080808798E+03  0.21080808798E+03  0.00000000000E+00 0.  1.
         25    2    1    2    0    0  0.12171705090E+03 -0.35219986627E+03  0.41733777420E+03  0.57330451994E+03  0.12508984184E+03 0.  0.
         23    2    1    2    0    0 -0.12171705090E+03  0.35219986627E+03  0.14441243142E+03  0.41006186163E+03  0.91847665898E+02 0.  0.
          5    1    3    3  502    0  0.83263016766E+02 -0.21558827697E+03  0.16579803244E+03  0.28446000613E+03  0.41800000000E+01 0. -1.
         -5    1    3    3    0  502  0.38454034131E+02 -0.13661158930E+03  0.25153974176E+03  0.28884451381E+03  0.41800000000E+01 0. -1.
        -11    1    4    4    0    0 -0.90593950039E+02  0.18550858834E+03  0.38141643741E+02  0.20994162312E+03  0.00000000000E+00 0.  1.
         11    1    4    4    0    0 -0.31123100857E+02  0.16669127793E+03  0.10627078768E+03  0.20012023851E+03  0.00000000000E+00 0. -1.
</event>
<event>
 8    1  0.7112384E-009  0.1283889E+03  0.7561462E-02  0.1229866E+00
          2   -1    0    0  501    0  0.00000000000E+00  0.00000000000E+00  0.89760327580E+03  0.89760327580E+03  0.00000000000E+00 0. -1.
         -2   -1    0    0    0  501 -0.00000000000E+00 -0.00000000000E+00 -0.31789537401E+02  0.31789537401E+02  0.00000000000E+00 0.  1.
         25    2    1    2    0    0  0.98394127662E+02 -0.69009722093E+02  0.59002921811E+03  0.61499963521E+03  0.12508527883E+03 0.  0.
         23    2    1    2    0    0 -0.98394127662E+02  0.69009722093E+02  0.27578452028E+03  0.31439317799E+03  0.91335768656E+02 0.  0.
          5    1    3    3  502    0  0.75940896837E+02 -0.50922321827E+02  0.57495929422E+03  0.58219907685E+03  0.41800000000E+01 0. -1.
         -5    1    3    3    0  502  0.22453230825E+02 -0.18087400266E+02  0.15069923897E+02  0.32800558366E+02  0.41800000000E+01 0. -1.
        -11    1    4    4    0    0 -0.58026689048E+02  0.75506735175E+02  0.11925102071E+03  0.15260789508E+03  0.00000000000E+00 0.  1.
         11    1    4    4    0    0 -0.40367438614E+02 -0.64970130811E+01  0.15653349957E+03  0.16178528291E+03  0.00000000000E+00 0. -1.
</event>
<event>
 8    1  0.7112384E-009  0.1034803E+03  0.7561462E-02  0.1273143E+00
          2   -1    0    0  501    0  0.00000000000E+00  0.00000000000E+00  0.18095584165E+03  0.18095584165E+03  0.00000000000E+00 0. -1.
         -2   -1    0    0    0  501 -0.00000000000E+00 -0.00000000000E+00 -0.79917869075E+02  0.79917869075E+02  0.00000000000E+00 0.  1.
         25    2    1    2    0    0  0.43506412865E+02 -0.85614104815E+01  0.68279386158E+02  0.14924773918E+03  0.12508679933E+03 0.  0.
         23    2    1    2    0    0 -0.43506412865E+02  0.85614104815E+01  0.32758586419E+02  0.11162597154E+03  0.97062489298E+02 0.  0.
          5    1    3    3  502    0 -0.42678944044E+02  0.95602586942E+01  0.29541835146E+02  0.52944152036E+02  0.41800000000E+01 0.  1.
         -5    1    3    3    0  502  0.86185356909E+02 -0.18121669176E+02  0.38737551012E+02  0.96303587149E+02  0.41800000000E+01 0.  1.
        -11    1    4    4    0    0 -0.52913520662E+02 -0.10181713483E+02 -0.17914997751E+02  0.56784285702E+02  0.00000000000E+00 0.  1.
         11    1    4    4    0    0  0.94071077963E+01  0.18743123965E+02  0.50673584171E+02  0.54841685840E+02  0.00000000000E+00 0. -1.
</event>
<event>
 8    1  0.7112384E-009  0.1146710E+03  0.7561462E-02  0.1252156E+00
          2   -1    0    0  501    0  0.00000000000E+00  0.00000000000E+00  0.27917217384E+03  0.27917217384E+03  0.00000000000E+00 0. -1.
         -2   -1    0    0    0  501 -0.00000000000E+00 -0.00000000000E+00 -0.49979284707E+02  0.49979284707E+02  0.00000000000E+00 0.  1.
         25    2    1    2    0    0 -0.43510329592E+02 -0.14564261318E+02  0.13471792875E+03  0.18947842022E+03  0.12509150617E+03 0.  0.
         23    2    1    2    0    0  0.43510329592E+02  0.14564261318E+02  0.94474960389E+02  0.13967303833E+03  0.92074822865E+02 0.  0.
          5    1    3    3  502    0  0.39716297664E+02  0.11331280031E+02  0.67850862672E+02  0.79542404871E+02  0.41800000000E+01 0.  1.
         -5    1    3    3    0  502 -0.83226627257E+02 -0.25895541349E+02  0.66867066074E+02  0.10993601535E+03  0.41800000000E+01 0.  1.
        -11    1    4    4    0    0 -0.63075650376E+00 -0.34536575119E+02  0.47104652497E+02  0.58412508606E+02  0.00000000000E+00 0.  1.
         11    1    4    4    0    0  0.44141086096E+02  0.49100836438E+02  0.47370307891E+02  0.81260529720E+02  0.00000000000E+00 0. -1.
</event>
<event>
 8    1  0.7112384E-009  0.1050127E+03  0.7561462E-02  0.1270095E+00
         -1   -1    0    0    0  501 -0.00000000000E+00  0.00000000000E+00  0.11863488165E+03  0.11863488165E+03  0.00000000000E+00 0.  1.
          1   -1    0    0  501    0  0.00000000000E+00 -0.00000000000E+00 -0.13602257711E+03  0.13602257711E+03  0.00000000000E+00 0. -1.
         25    2    1    2    0    0 -0.60789876795E+02 -0.13164972637E+02  0.13000100395E+02  0.14030716324E+03  0.12509345235E+03 0.  0.
         23    2    1    2    0    0  0.60789876795E+02  0.13164972637E+02 -0.30387795860E+02  0.11435029552E+03  0.91015637792E+02 0.  0.
          5    1    3    3  502    0  0.26537259167E+02  0.31558116477E+02  0.20230891423E+01  0.41493446824E+02  0.41800000000E+01 0. -1.
         -5    1    3    3    0  502 -0.87327135963E+02 -0.44723089114E+02  0.10977011253E+02  0.98813716413E+02  0.41800000000E+01 0. -1.
        -11    1    4    4    0    0  0.56027311181E+01  0.14112379353E+02 -0.52679071195E+02  0.54823666322E+02  0.00000000000E+00 0. -1.
         11    1    4    4    0    0  0.55187145677E+02 -0.94740671548E+00  0.22291275335E+02  0.59526629197E+02  0.00000000000E+00 0.  1.
</event>
<event>
 8    1  0.7112384E-009  0.7747404E+02  0.7561462E-02  0.1336377E+00
          2   -1    0    0  501    0  0.00000000000E+00  0.00000000000E+00  0.46337407192E+02  0.46337407192E+02  0.00000000000E+00 0. -1.
         -2   -1    0    0    0  501 -0.00000000000E+00 -0.00000000000E+00 -0.65120383734E+03  0.65120383734E+03  0.00000000000E+00 0.  1.
         25    2    1    2    0    0 -0.16407609821E+02 -0.41509066563E+02 -0.57544141593E+03  0.59056960441E+03  0.12508965672E+03 0.  0.
         23    2    1    2    0    0  0.16407609821E+02  0.41509066563E+02 -0.29425014221E+02  0.10697164013E+03  0.92654671023E+02 0.  0.
          5    1    3    3  502    0 -0.11402654957E+02  0.14389179896E+02 -0.81899232249E+01  0.20533296876E+02  0.41800000000E+01 0. -1.
         -5    1    3    3    0  502 -0.50049548636E+01 -0.55898246459E+02 -0.56725149270E+03  0.57003630753E+03  0.41800000000E+01 0. -1.
        -11    1    4    4    0    0  0.21618543699E+02 -0.12905729531E+02  0.20860486197E+02  0.32696776153E+02  0.00000000000E+00 0. -1.
         11    1    4    4    0    0 -0.52109338786E+01  0.54414796094E+02 -0.50285500419E+02  0.74274863973E+02  0.00000000000E+00 0.  1.
</event>
<event>
 8    1  0.7112384E-009  0.3636956E+03  0.7561462E-02  0.1057130E+00
         -1   -1    0    0    0  501 -0.00000000000E+00  0.00000000000E+00  0.91832147480E+02  0.91832147480E+02  0.00000000000E+00 0.  1.
          1   -1    0    0  501    0  0.00000000000E+00 -0.00000000000E+00 -0.15186768874E+04  0.15186768874E+04  0.00000000000E+00 0. -1.
         25    2    1    2    0    0  0.15369060911E+01  0.35529628691E+03 -0.79996853288E+03  0.88421398029E+03  0.12508755238E+03 0.  0.
         23    2    1    2    0    0 -0.15369060911E+01 -0.35529628691E+03 -0.62687620702E+03  0.72629505458E+03  0.91065436926E+02 0.  0.
          5    1    3    3  502    0  0.34676897965E+02  0.14436043459E+03 -0.45360294569E+03  0.47730024834E+03  0.41800000000E+01 0. -1.
         -5    1    3    3    0  502 -0.33139991874E+02  0.21093585232E+03 -0.34636558719E+03  0.40691373194E+03  0.41800000000E+01 0. -1.
        -11    1    4    4    0    0  0.35187549064E+02 -0.77824871288E+02 -0.17557521239E+03  0.19524735441E+03  0.00000000000E+00 0.  1.
         11    1    4    4    0    0 -0.36724455155E+02 -0.27747141562E+03 -0.45130099463E+03  0.53104770017E+03  0.00000000000E+00 0. -1.
</event>
<event>
 8    1  0.7112384E-009  0.8490861E+02  0.7561462E-02  0.1315672E+00
         -2   -1    0    0    0  501 -0.00000000000E+00  0.00000000000E+00  0.14515279458E+03  0.14515279458E+03  0.00000000000E+00 0. -1.
          2   -1    0    0  501    0  0.00000000000E+00 -0.00000000000E+00 -0.11970652572E+03  0.11970652572E+03  0.00000000000E+00 0.  1.
         25    2    1    2    0    0  0.93992483790E+01  0.39417066035E+02 -0.50081510143E+02  0.14070272940E+03  0.12508816665E+03 0.  0.
         23    2    1    2    0    0 -0.93992483790E+01 -0.39417066035E+02  0.75527779006E+02  0.12415659091E+03  0.89824065261E+02 0.  0.
          5    1    3    3  502    0 -0.39963008607E+02  0.62494445368E+02 -0.15102287169E+02  0.75816549886E+02  0.41800000000E+01 0. -1.
         -5    1    3    3    0  502  0.49362256986E+02 -0.23077379333E+02 -0.34979222974E+02  0.64886179511E+02  0.41800000000E+01 0. -1.
        -11    1    4    4    0    0 -0.39406046745E+01 -0.27259202222E+02  0.95919839509E+02  0.99795831989E+02  0.00000000000E+00 0. -1.
         11    1    4    4    0    0 -0.54586437045E+01 -0.12157863813E+02 -0.20392060504E+02  0.24360758920E+02  0.00000000000E+00 0.  1.
</event>
<event>
 8    1  0.7112384E-009  0.9073467E+02  0.7561462E-02  0.1301082E+00
          2   -1    0    0  501    0  0.00000000000E+00  0.00000000000E+00  0.56331472861E+03  0.56331472861E+03  0.00000000000E+00 0.  1.
         -2   -1    0    0    0  501 -0.00000000000E+00 -0.00000000000E+00 -0.23656622553E+02  0.23656622553E+02  0.00000000000E+00 0. -1.
         25    2    1    2    0    0 -0.14820978535E+02  0.35445662325E+02  0.29387967067E+03  0.32169685141E+03  0.12509015546E+03 0.  0.
         23    2    1    2    0    0  0.14820978535E+02 -0.35445662325E+02  0.24577843539E+03  0.26527449975E+03  0.92127436390E+02 0.  0.
          5    1    3    3  502    0  0.15662521032E+02 -0.38666566155E+02  0.51672914605E+02  0.66543071819E+02  0.41800000000E+01 0.  1.
         -5    1    3    3    0  502 -0.30483499567E+02  0.74112228480E+02  0.24220675607E+03  0.25515377959E+03  0.41800000000E+01 0.  1.
        -11    1    4    4    0    0  0.14409041816E+02  0.75716945725E+01  0.53454735637E+00  0.16286091785E+02  0.00000000000E+00 0. -1.
         11    1    4    4    0    0  0.41193671850E+00 -0.43017356897E+02  0.24524388803E+03  0.24898840797E+03  0.00000000000E+00 0.  1.
</event>
<event>
 8    1  0.7112384E-009  0.1388736E+03  0.7561462E-02  0.1214853E+00
         -2   -1    0    0    0  501 -0.00000000000E+00  0.00000000000E+00  0.25134188724E+03  0.25134188724E+03  0.00000000000E+00 0.  1.
          2   -1    0    0  501    0  0.00000000000E+00 -0.00000000000E+00 -0.14509499773E+03  0.14509499773E+03  0.00000000000E+00 0. -1.
         25    2    1    2    0    0 -0.77800212345E+02  0.63470414157E+02  0.18081340067E+03  0.24170729792E+03  0.12509022940E+03 0.  0.
         23    2    1    2    0    0  0.77800212345E+02 -0.63470414157E+02 -0.74566511156E+02  0.15472958705E+03  0.91102766191E+02 0.  0.
          5    1    3    3  502    0 -0.97906183147E+02  0.52798485807E+01  0.12066792262E+03  0.15553686845E+03  0.41800000000E+01 0. -1.
         -5    1    3    3    0  502  0.20105970802E+02  0.58190565576E+02  0.60145478051E+02  0.86170429463E+02  0.41800000000E+01 0. -1.
        -11    1    4    4    0    0 -0.36919735800E+01 -0.29306354198E+02 -0.57627837238E+02  0.64756935458E+02  0.00000000000E+00 0. -1.
         11    1    4    4    0    0  0.81492185926E+02 -0.34164059959E+02 -0.16938673919E+02  0.89972651589E+02  0.00000000000E+00 0.  1.
</event>
<event>
 8    1  0.7112384E-009  0.1026432E+03  0.7561462E-02  0.1274834E+00
          2   -1    0    0  501    0  0.00000000000E+00  0.00000000000E+00  0.14808735972E+04  0.14808735972E+04  0.00000000000E+00 0. -1.
         -2   -1    0    0    0  501 -0.00000000000E+00 -0.00000000000E+00 -0.22764812511E+02  0.22764812511E+02  0.00000000000E+00 0.  1.
         25    2    1    2    0    0  0.74892735263E+02 -0.41006027811E+02  0.12603888102E+04  0.12694554792E+04  0.12508734774E+03 0.  0.
         23    2    1    2    0    0 -0.74892735263E+02  0.41006027811E+02  0.19771997441E+03  0.23418293048E+03  0.91967605899E+02 0.  0.
          5    1    3    3  502    0  0.28393157225E+02 -0.21508788318E+02  0.11138680527E+04  0.11144452927E+04  0.41800000000E+01 0. -1.
         -5    1    3    3    0  502  0.46499578038E+02 -0.19497239493E+02  0.14652075758E+03  0.15501018646E+03  0.41800000000E+01 0. -1.
        -11    1    4    4    0    0  0.28294769975E+01 -0.19889691600E+02  0.69536615215E+02  0.72380568025E+02  0.00000000000E+00 0. -1.
         11    1    4    4    0    0 -0.77722212261E+02  0.60895719411E+02  0.12818335920E+03  0.16180236246E+03  0.00000000000E+00 0.  1.
</event>
<event>
 8    1  0.7112384E-009  0.1136672E+03  0.7561462E-02  0.1253926E+00
          1   -1    0    0  501    0  0.00000000000E+00  0.00000000000E+00  0.19198285074E+04  0.19198285074E+04  0.00000000000E+00 0. -1.
         -1   -1    0    0    0  501 -0.00000000000E+00 -0.00000000000E+00 -0.75834941276E+01  0.75834941276E+01  0.00000000000E+00 0.  1.
         25    2    1    2    0    0 -0.31678571530E+02  0.15144824948E+02  0.13490762092E+04  0.13553181503E+04  0.12509105722E+03 0.  0.
         23    2    1    2    0    0  0.31678571530E+02 -0.15144824948E+02  0.56316880404E+03  0.57209385123E+03  0.94336499576E+02 0.  0.
          5    1    3    3  502    0 -0.56812365431E+02  0.55207088119E+02  0.97902555356E+03  0.98223417492E+03  0.41800000000E+01 0. -1.
         -5    1    3    3    0  502  0.25133793901E+02 -0.40062263172E+02  0.37005065567E+03  0.37308397538E+03  0.41800000000E+01 0. -1.
        -11    1    4    4    0    0 -0.10968829824E+02  0.33843801557E+02  0.18557347445E+03  0.18895299032E+03  0.00000000000E+00 0. -1.
         11    1    4    4    0    0  0.42647401354E+02 -0.48988626504E+02  0.37759532960E+03  0.38314086091E+03  0.00000000000E+00 0.  1.
</event>
<event>
 8    1  0.7112384E-009  0.1488803E+03  0.7561462E-02  0.1201856E+00
         -2   -1    0    0    0  501 -0.00000000000E+00  0.00000000000E+00  0.17818676803E+02  0.17818676803E+02  0.00000000000E+00 0.  1.
          2   -1    0    0  501    0  0.00000000000E+00 -0.00000000000E+00 -0.25258555607E+04  0.25258555607E+04  0.00000000000E+00 0. -1.
         25    2    1    2    0    0  0.37125923693E+02  0.12664460459E+03 -0.20418825232E+04  0.20499630806E+04  0.12508878065E+03 0.  0.
         23    2    1    2    0    0 -0.37125923693E+02 -0.12664460459E+03 -0.46615436066E+03  0.49371115690E+03  0.95045401800E+02 0.  0.
          5    1    3    3  502    0  0.66329357606E+01  0.23230876800E+01 -0.10268249653E+04  0.10268575239E+04  0.41800000000E+01 0.  1.
         -5    1    3    3    0  502  0.30492987933E+02  0.12432151691E+03 -0.10150575579E+04  0.10231055567E+04  0.41800000000E+01 0.  1.
        -11    1    4    4    0    0 -0.38157927437E+02 -0.34541172894E+01 -0.13703791017E+03  0.14229317333E+03  0.00000000000E+00 0.  1.
         11    1    4    4    0    0  0.10320037435E+01 -0.12319048731E+03 -0.32911645050E+03  0.35141798358E+03  0.00000000000E+00 0. -1.
</event>
<event>
 8    1  0.7112384E-009  0.9654449E+02  0.7561462E-02  0.1287735E+00
         -1   -1    0    0    0  501 -0.00000000000E+00  0.00000000000E+00  0.14789509654E+02  0.14789509654E+02  0.00000000000E+00 0.  1.
          1   -1    0    0  501    0  0.00000000000E+00 -0.00000000000E+00 -0.94937399299E+03  0.94937399299E+03  0.00000000000E+00 0. -1.
         25    2    1    2    0    0 -0.47170593413E+02 -0.16402487616E+02 -0.55701849798E+03  0.57307037825E+03  0.12508375133E+03 0.  0.
         23    2    1    2    0    0  0.47170593413E+02  0.16402487616E+02 -0.37756598535E+03  0.39109312440E+03  0.88902486865E+02 0.  0.
          5    1    3    3  502    0 -0.37535899466E+02  0.27029945529E+02 -0.69999239233E+02  0.84005521230E+02  0.41800000000E+01 0. -1.
         -5    1    3    3    0  502 -0.96346939472E+01 -0.43432433145E+02 -0.48701925875E+03  0.48906485702E+03  0.41800000000E+01 0. -1.
        -11    1    4    4    0    0  0.18024476273E+02 -0.36980658469E+02 -0.15482164140E+03  0.16019423051E+03  0.00000000000E+00 0. -1.
         11    1    4    4    0    0  0.29146117140E+02  0.53383146086E+02 -0.22274434396E+03  0.23089889388E+03  0.00000000000E+00 0.  1.
</event>
<event>
 8    1  0.7112384E-009  0.9421639E+02  0.7561462E-02  0.1292951E+00
         -2   -1    0    0    0  501 -0.00000000000E+00  0.00000000000E+00  0.50611009621E+02  0.50611009621E+02  0.00000000000E+00 0.  1.
          2   -1    0    0  501    0  0.00000000000E+00 -0.00000000000E+00 -0.35137832159E+03  0.35137832159E+03  0.00000000000E+00 0. -1.
         25    2    1    2    0    0  0.66570490772E+02  0.23571323610E+02 -0.20704130397E+03  0.25199615818E+03  0.12509486259E+03 0.  0.
         23    2    1    2    0    0 -0.66570490772E+02 -0.23571323610E+02 -0.93726007995E+02  0.14999317303E+03  0.93413863228E+02 0.  0.
          5    1    3    3  502    0  0.54736241426E+02 -0.26834419676E+02 -0.31130845795E+02  0.68576556961E+02  0.41800000000E+01 0.  1.
         -5    1    3    3    0  502  0.11834249347E+02  0.50405743286E+02 -0.17591045818E+03  0.18341960121E+03  0.41800000000E+01 0.  1.
        -11    1    4    4    0    0 -0.38667041614E+02  0.29290520395E+00  0.10016947731E+02  0.39944525813E+02  0.00000000000E+00 0.  1.
         11    1    4    4    0    0 -0.27903449158E+02 -0.23864228814E+02 -0.10374295573E+03  0.11004864722E+03  0.00000000000E+00 0. -1.
</event>
<event>
 8    1  0.7112384E-009  0.8427609E+02  0.7561462E-02  0.1317337E+00
          2   -1    0    0  501    0  0.00000000000E+00  0.00000000000E+00  0.21709749337E+03  0.21709749337E+03  0.00000000000E+00 0.  1.
         -2   -1    0    0    0  501 -0.00000000000E+00 -0.00000000000E+00 -0.73848929908E+02  0.73848929908E+02  0.00000000000E+00 0. -1.
         25    2    1    2    0    0  0.55553368565E+02  0.33376872574E+02  0.69694988146E+02  0.15717837666E+03  0.12508980108E+03 0.  0.
         23    2    1    2    0    0 -0.55553368565E+02 -0.33376872574E+02  0.73553575317E+02  0.13376804662E+03  0.91014116884E+02 0.  0.
          5    1    3    3  502    0  0.55432124382E+02  0.19658695866E+02 -0.23066760400E+02  0.63314552609E+02  0.41800000000E+01 0.  1.
         -5    1    3    3    0  502  0.12124418273E+00  0.13718176709E+02  0.92761748547E+02  0.93863824053E+02  0.41800000000E+01 0.  1.
        -11    1    4    4    0    0 -0.52997885191E+02 -0.53298235495E+02  0.82652943484E+02  0.11171833694E+03  0.00000000000E+00 0.  1.
         11    1    4    4    0    0 -0.25554833743E+01  0.19921362921E+02 -0.90993681667E+01  0.22049709679E+02  0.00000000000E+00 0. -1.
</event>
<event>
 8    1  0.7112384E-009  0.1100788E+03  0.7561462E-02  0.1260424E+00
          1   -1    0    0  501    0  0.00000000000E+00  0.00000000000E+00  0.21464762597E+03  0.21464762597E+03  0.00000000000E+00 0. -1.
         -1   -1    0    0    0  501 -0.00000000000E+00 -0.00000000000E+00 -0.64720841721E+02  0.64720841721E+02  0.00000000000E+00 0.  1.
         25    2    1    2    0    0 -0.39900319178E+02 -0.18195098049E+02  0.10598330647E+03  0.16971244038E+03  0.12508698616E+03 0.  0.
         23    2    1    2    0    0  0.39900319178E+02  0.18195098049E+02  0.43943477773E+02  0.10965602730E+03  0.90389811493E+02 0.  0.
          5    1    3    3  502    0  0.36061120878E+02  0.22634845270E+02  0.17914770046E+02  0.46380513636E+02  0.41800000000E+01 0.  1.
         -5    1    3    3    0  502 -0.75961440056E+02 -0.40829943319E+02  0.88068536429E+02  0.12333192675E+03  0.41800000000E+01 0.  1.
        -11    1    4    4    0    0 -0.18180727620E+02 -0.15497795324E+02 -0.75320526686E+01  0.25048998665E+02  0.00000000000E+00 0.  1.
         11    1    4    4    0    0  0.58081046797E+02  0.33692893373E+02  0.51475530441E+02  0.84607028639E+02  0.00000000000E+00 0. -1.
</event>
<event>
 8    1  0.7112384E-009  0.9314786E+02  0.7561462E-02  0.1295403E+00
         -2   -1    0    0    0  501 -0.00000000000E+00  0.00000000000E+00  0.18333529106E+03  0.18333529106E+03  0.00000000000E+00 0.  1.
          2   -1    0    0  501    0  0.00000000000E+00 -0.00000000000E+00 -0.11510611739E+03  0.11510611739E+03  0.00000000000E+00 0. -1.
         25    2    1    2    0    0  0.26632834149E+02  0.75041088722E+02  0.86979574370E+02  0.17191045690E+03  0.12508911217E+03 0.  0.
         23    2    1    2    0    0 -0.26632834149E+02 -0.75041088722E+02 -0.18750400698E+02  0.12653095154E+03  0.96529950381E+02 0.  0.
          5    1    3    3  502    0 -0.17579585756E+02  0.18402467389E+01 -0.25029935375E+02  0.30925691719E+02  0.41800000000E+01 0. -1.
         -5    1    3    3    0  502  0.44212419905E+02  0.73200841984E+02  0.11200950975E+03  0.14098476519E+03  0.41800000000E+01 0. -1.
        -11    1    4    4    0    0  0.31252169590E+01 -0.17040965211E+02  0.36934901310E+02  0.40796426451E+02  0.00000000000E+00 0.  1.
         11    1    4    4    0    0 -0.29758051108E+02 -0.58000123511E+02 -0.55685302008E+02  0.85734525092E+02  0.00000000000E+00 0. -1.
</event>
<event>
 8    1  0.7112384E-009  0.1775261E+03  0.7561462E-02  0.1170219E+00
         -2   -1    0    0    0  501 -0.00000000000E+00  0.00000000000E+00  0.25237218548E+03  0.25237218548E+03  0.00000000000E+00 0.  1.
          2   -1    0    0  501    0  0.00000000000E+00 -0.00000000000E+00 -0.35457358256E+03  0.35457358256E+03  0.00000000000E+00 0. -1.
         25    2    1    2    0    0 -0.15695693183E+03  0.35240748531E+02 -0.28399831222E+03  0.34953920579E+03  0.12508087876E+03 0.  0.
         23    2    1    2    0    0  0.15695693183E+03 -0.35240748531E+02  0.18179691514E+03  0.25740656225E+03  0.85619104918E+02 0.  0.
          5    1    3    3  502    0 -0.12479917000E+03  0.53740410272E+02 -0.11994996781E+03  0.18129625398E+03  0.41800000000E+01 0.  1.
         -5    1    3    3    0  502 -0.32157761838E+02 -0.18499661740E+02 -0.16404834441E+03  0.16824295181E+03  0.41800000000E+01 0.  1.
        -11    1    4    4    0    0 -0.76131518037E+01 -0.13872373504E+02  0.11048301199E+02  0.19299424510E+02  0.00000000000E+00 0. -1.
         11    1    4    4    0    0  0.16457008364E+03 -0.21368375027E+02  0.17074861394E+03  0.23810713774E+03  0.00000000000E+00 0.  1.
</event>
<event>
 8    1  0.7112384E-009  0.2365076E+03  0.7561462E-02  0.1122141E+00
          2   -1    0    0  501    0  0.00000000000E+00  0.00000000000E+00  0.17782439213E+04  0.17782439213E+04  0.00000000000E+00 0. -1.
         -2   -1    0    0    0  501 -0.00000000000E+00 -0.00000000000E+00 -0.32109182009E+02  0.32109182009E+02  0.00000000000E+00 0.  1.
         25    2    1    2    0    0  0.37302002730E+02 -0.20708502506E+03  0.78844485575E+03  0.82557144150E+03  0.12508903808E+03 0.  0.
         23    2    1    2    0    0 -0.37302002730E+02  0.20708502506E+03  0.95768988356E+03  0.98478166183E+03  0.91374840001E+02 0.  0.
          5    1    3    3  502    0  0.83517470386E+02 -0.13576098479E+03  0.53170894519E+03  0.55510187141E+03  0.41800000000E+01 0. -1.
         -5    1    3    3    0  502 -0.46215467656E+02 -0.71324040276E+02  0.25673591056E+03  0.27046957009E+03  0.41800000000E+01 0. -1.
        -11    1    4    4    0    0 -0.66566490852E+02  0.13065280261E+03  0.65592040372E+03  0.67211072640E+03  0.00000000000E+00 0.  1.
         11    1    4    4    0    0  0.29264488122E+02  0.76432222455E+02  0.30176947984E+03  0.31267093542E+03  0.00000000000E+00 0. -1.
</event>
<event>
 8    1  0.7112384E-009  0.1478742E+03  0.7561462E-02  0.1203110E+00
         -2   -1    0    0    0  501 -0.00000000000E+00  0.00000000000E+00  0.26299883740E+03  0.26299883740E+03  0.00000000000E+00 0.  1.
          2   -1    0    0  501    0  0.00000000000E+00 -0.00000000000E+00 -0.10614215455E+03  0.10614215455E+03  0.00000000000E+00 0. -1.
         25    2    1    2    0    0  0.11500322869E+03 -0.31754919403E+02  0.36973399724E+02  0.17677394166E+03  0.12509147312E+03 0.  0.
         23    2    1    2    0    0 -0.11500322869E+03  0.31754919403E+02  0.11988328312E+03  0.19236705029E+03  0.91645856147E+02 0.  0.
          5    1    3    3  502    0  0.69839884506E+02 -0.62197971668E+02 -0.22231855922E+02  0.96218111419E+02  0.41800000000E+01 0. -1.
         -5    1    3    3    0  502  0.45163344187E+02  0.30443052265E+02  0.59205255646E+02  0.80555830239E+02  0.41800000000E+01 0. -1.
        -11    1    4    4    0    0 -0.39957788306E+01 -0.23270533957E+02  0.34856514067E+02  0.42100600613E+02  0.00000000000E+00 0.  1.
         11    1    4    4    0    0 -0.11100744986E+03  0.55025453360E+02  0.85026769057E+02  0.15026644968E+03  0.00000000000E+00 0. -1.
</event>
<event>
 8    1  0.7112384E-009  0.9204491E+02  0.7561462E-02  0.1297974E+00
          2   -1    0    0  501    0  0.00000000000E+00  0.00000000000E+00  0.25829019424E+03  0.25829019424E+03  0.00000000000E+00 0. -1.
         -2   -1    0    0    0  501 -0.00000000000E+00 -0.00000000000E+00 -0.68583009670E+02  0.68583009670E+02  0.00000000000E+00 0.  1.
         25    2    1    2    0    0  0.49771776949E+02  0.41535598801E+02  0.15577637556E+03  0.21004573108E+03  0.12510193529E+03 0.  0.
         23    2    1    2    0    0 -0.49771776949E+02 -0.41535598801E+02  0.33930809020E+02  0.11682747284E+03  0.91076467108E+02 0.  0.
          5    1    3    3  502    0  0.15054618167E+02  0.33551453874E+02  0.16809513817E+03  0.17212143812E+03  0.41800000000E+01 0.  1.
         -5    1    3    3    0  502  0.34717158781E+02  0.79841449264E+01 -0.12318762610E+02  0.37924292957E+02  0.41800000000E+01 0.  1.
        -11    1    4    4    0    0 -0.75318766528E+02 -0.40786355814E+02  0.31051406113E+02  0.91107811046E+02  0.00000000000E+00 0.  1.
         11    1    4    4    0    0  0.25546989580E+02 -0.74924298621E+00  0.28794029063E+01  0.25719661793E+02  0.00000000000E+00 0. -1.
</event>
<event>
 8    1  0.7112384E-009  0.1707181E+03  0.7561462E-02  0.1177101E+00
          2   -1    0    0  501    0  0.00000000000E+00  0.00000000000E+00  0.65715553267E+03  0.65715553267E+03  0.00000000000E+00 0. -1.
         -2   -1    0    0    0  501 -0.00000000000E+00 -0.00000000000E+00 -0.52159281369E+02  0.52159281369E+02  0.00000000000E+00 0.  1.
         25    2    1    2    0    0  0.61409184203E+02 -0.13616165684E+03  0.33061756841E+03  0.38375340602E+03  0.12509042887E+03 0.  0.
         23    2    1    2    0    0 -0.61409184203E+02  0.13616165684E+03  0.27437868289E+03  0.32556140801E+03  0.91626874151E+02 0.  0.
          5    1    3    3  502    0  0.81595848991E+02 -0.48045520653E+02  0.10943978043E+03  0.14477842577E+03  0.41800000000E+01 0.  1.
         -5    1    3    3    0  502 -0.20186664788E+02 -0.88116136188E+02  0.22117778798E+03  0.23897498025E+03  0.41800000000E+01 0.  1.
        -11    1    4    4    0    0 -0.19608818041E+02  0.96718498272E+02  0.23772771966E+03  0.25739744045E+03  0.00000000000E+00 0. -1.
         11    1    4    4    0    0 -0.41800366162E+02  0.39443158569E+02  0.36650963226E+02  0.68163967567E+02  0.00000000000E+00 0.  1.
</event>
<event>
 8    1  0.7112384E-009  0.1310775E+03  0.7561462E-02  0.1225866E+00
         -2   -1    0    0    0  501 -0.00000000000E+00  0.00000000000E+00  0.21898234120E+02  0.21898234120E+02  0.00000000000E+00 0.  1.
          2   -1    0    0  501    0  0.00000000000E+00 -0.00000000000E+00 -0.88433935910E+03  0.88433935910E+03  0.00000000000E+00 0. -1.
         25    2    1    2    0    0  0.25867221568E+02 -0.82989119447E+02 -0.46877016757E+03  0.49289705242E+03  0.12508288126E+03 0.  0.
         23    2    1    2    0    0 -0.25867221568E+02  0.82989119447E+02 -0.39367095741E+03  0.41334054080E+03  0.91199083667E+02 0.  0.
          5    1    3    3  502    0 -0.44149430421E+02 -0.28594976744E+02 -0.27146569845E+03  0.27654645674E+03  0.41800000000E+01 0.  1.
         -5    1    3    3    0  502  0.70016651989E+02 -0.54394142703E+02 -0.19730446912E+03  0.21635059568E+03  0.41800000000E+01 0.  1.
        -11    1    4    4    0    0  0.17436669604E+02  0.74482000190E+02 -0.30290047979E+03  0.31241047751E+03  0.00000000000E+00 0.  1.
         11    1    4    4    0    0 -0.43303891172E+02  0.85071192579E+01 -0.90770477612E+02  0.10093006328E+03  0.00000000000E+00 0. -1.
</event>
<event>
 8    1  0.7112384E-009  0.1206267E+03  0.7561462E-02  0.1242067E+00
          2   -1    0    0  501    0  0.00000000000E+00  0.00000000000E+00  0.20343785348E+04  0.20343785348E+04  0.00000000000E+00 0. -1.
         -2   -1    0    0    0  501 -0.00000000000E+00 -0.00000000000E+00 -0.20085393974E+02  0.20085393974E+02  0.00000000000E+00 0.  1.
         25    2    1    2    0    0 -0.97671466539E+02 -0.66049297323E+02  0.16957974267E+04  0.17044877518E+04  0.12508940250E+03 0.  0.
         23    2    1    2    0    0  0.97671466539E+02  0.66049297323E+02  0.31849571409E+03  0.34997617693E+03  0.84507866322E+02 0.  0.
          5    1    3    3  502    0 -0.49003905138E+02 -0.40998854663E+02  0.14935719842E+04  0.14949438228E+04  0.41800000000E+01 0.  1.
         -5    1    3    3    0  502 -0.48667561401E+02 -0.25050442660E+02  0.20222544249E+03  0.20954392905E+03  0.41800000000E+01 0.  1.
        -11    1    4    4    0    0  0.54892782484E+02  0.17486026645E+02  0.58726440656E+02  0.82266478767E+02  0.00000000000E+00 0.  1.
         11    1    4    4    0    0  0.42778684055E+02  0.48563270678E+02  0.25976927343E+03  0.26770969816E+03  0.00000000000E+00 0. -1.
</event>
<event>
 8    1  0.7112384E-009  0.7696047E+02  0.7561462E-02  0.1337905E+00
         -2   -1    0    0    0  501 -0.00000000000E+00  0.00000000000E+00  0.11578475372E+03  0.11578475372E+03  0.00000000000E+00 0.  1.
          2   -1    0    0  501    0  0.00000000000E+00 -0.00000000000E+00 -0.21564846206E+03  0.21564846206E+03  0.00000000000E+00 0. -1.
         25    2    1    2    0    0  0.21528774344E+02 -0.56759685031E+02  0.47997796028E+02  0.14709262094E+03  0.12508917116E+03 0.  0.
         23    2    1    2    0    0 -0.21528774344E+02  0.56759685031E+02 -0.14786150437E+03  0.18434059484E+03  0.91832894225E+02 0.  0.
          5    1    3    3  502    0 -0.20616873000E+02 -0.14861515435E+02 -0.35906607982E+02  0.44189104881E+02  0.41800000000E+01 0. -1.
         -5    1    3    3    0  502  0.42145647344E+02 -0.41898169595E+02  0.83904404010E+02  0.10290351606E+03  0.41800000000E+01 0. -1.
        -11    1    4    4    0    0 -0.24216507447E+02  0.19121987607E+02  0.89903017287E+00  0.30869044337E+02  0.00000000000E+00 0.  1.
         11    1    4    4    0    0  0.26877331036E+01  0.37637697423E+02 -0.14876053454E+03  0.15347155050E+03  0.00000000000E+00 0. -1.
</event>
<event>
 8    1  0.7112384E-009  0.1106268E+03  0.7561462E-02  0.1259413E+00
          2   -1    0    0  501    0  0.00000000000E+00  0.00000000000E+00  0.75963672059E+03  0.75963672059E+03  0.00000000000E+00 0. -1.
         -2   -1    0    0    0  501 -0.00000000000E+00 -0.00000000000E+00 -0.24616228106E+02  0.24616228106E+02  0.00000000000E+00 0.  1.
         25    2    1    2    0    0 -0.19144574409E+02  0.66015470635E+02  0.53703985325E+03  0.55568299582E+03  0.12508889150E+03 0.  0.
         23    2    1    2    0    0  0.19144574409E+02 -0.66015470635E+02  0.19798063923E+03  0.22856995287E+03  0.91232301034E+02 0.  0.
          5    1    3    3  502    0  0.31790320980E+02  0.71440691523E+02  0.20062921463E+03  0.21536933644E+03  0.41800000000E+01 0.  1.
         -5    1    3    3    0  502 -0.50934895389E+02 -0.54252208882E+01  0.33641063862E+03  0.34031365938E+03  0.41800000000E+01 0.  1.
        -11    1    4    4    0    0 -0.21905463265E+02 -0.28482712552E+02  0.15263142872E+03  0.15680391343E+03  0.00000000000E+00 0. -1.
         11    1    4    4    0    0  0.41050037674E+02 -0.37532758083E+02  0.45349210515E+02  0.71766039438E+02  0.00000000000E+00 0.  1.
</event>
<event>
 8    1  0.7112384E-009  0.8791160E+02  0.7561462E-02  0.1307989E+00
          1   -1    0    0  501    0  0.00000000000E+00  0.00000000000E+00  0.28461800732E+03  0.28461800732E+03  0.00000000000E+00 0. -1.
         -1   -1    0    0    0  501 -0.00000000000E+00 -0.00000000000E+00 -0.50460759146E+02  0.50460759146E+02  0.00000000000E+00 0.  1.
         25    2    1    2    0    0 -0.23980176149E+02  0.18364578644E+02  0.19144836956E+03  0.23067825911E+03  0.12509066481E+03 0.  0.
         23    2    1    2    0    0  0.23980176149E+02 -0.18364578644E+02  0.42708878618E+02  0.10440050736E+03  0.90349936505E+02 0.  0.
          5    1    3    3  502    0  0.22605249486E+02  0.35484229584E+02  0.11289623575E+02  0.43761351144E+02  0.41800000000E+01 0. -1.
         -5    1    3    3    0  502 -0.46585425634E+02 -0.17119650940E+02  0.18015874598E+03  0.18691690797E+03  0.41800000000E+01 0. -1.
        -11    1    4    4    0    0 -0.25910243706E+02 -0.21611302179E+02 -0.63755828021E+01  0.34337110636E+02  0.00000000000E+00 0.  1.
         11    1    4    4    0    0  0.49890419855E+02  0.32467235350E+01  0.49084461420E+02  0.70063396720E+02  0.00000000000E+00 0. -1.
</event>
<event>
 8    1  0.7112384E-009  0.1578369E+03  0.7561462E-02  0.1191161E+00
         -2   -1    0    0    0  501 -0.00000000000E+00  0.00000000000E+00  0.46381939324E+03  0.46381939324E+03  0.00000000000E+00 0.  1.
          2   -1    0    0  501    0  0.00000000000E+00 -0.00000000000E+00 -0.66209323756E+02  0.66209323756E+02  0.00000000000E+00 0. -1.
         25    2    1    2    0    0  0.46712423728E+02 -0.11584730196E+03  0.29109007801E+03  0.34056935851E+03  0.12510558157E+03 0.  0.
         23    2    1    2    0    0 -0.46712423728E+02  0.11584730196E+03  0.10651999148E+03  0.18945935849E+03  0.94581668581E+02 0.  0.
          5    1    3    3  502    0 -0.30463811373E+02 -0.94471244700E+01  0.12305916065E+03  0.12719403046E+03  0.41800000000E+01 0. -1.
         -5    1    3    3    0  502  0.77176235100E+02 -0.10640017749E+03  0.16803091736E+03  0.21337532805E+03  0.41800000000E+01 0. -1.
        -11    1    4    4    0    0  0.11999739199E+01 -0.13762578784E+02 -0.17328476092E+01  0.13923048267E+02  0.00000000000E+00 0. -1.
         11    1    4    4    0    0 -0.47912397647E+02  0.12960988075E+03  0.10825283909E+03  0.17553631022E+03  0.00000000000E+00 0.  1.
</event>
<event>
 8    1  0.7112384E-009  0.9787082E+02  0.7561462E-02  0.1284838E+00
         -1   -1    0    0    0  501 -0.00000000000E+00  0.00000000000E+00  0.40222491584E+03  0.40222491584E+03  0.00000000000E+00 0.  1.
          1   -1    0    0  501    0  0.00000000000E+00 -0.00000000000E+00 -0.31496915362E+02  0.31496915362E+02  0.00000000000E+00 0. -1.
         25    2    1    2    0    0  0.10449036742E+02 -0.84336357461E+01  0.20314379377E+03  0.23894566014E+03  0.12508924404E+03 0.  0.
         23    2    1    2    0    0 -0.10449036742E+02  0.84336357461E+01  0.16758420671E+03  0.19477617106E+03  0.98351318716E+02 0.  0.
          5    1    3    3  502    0  0.53281327501E+02 -0.92502382082E+01  0.18401641146E+03  0.19184363125E+03  0.41800000000E+01 0. -1.
         -5    1    3    3    0  502 -0.42832290759E+02  0.81660246208E+00  0.19127382309E+02  0.47102028887E+02  0.41800000000E+01 0. -1.
        -11    1    4    4    0    0  0.39031989676E+02  0.24913486683E+02  0.66537465046E+02  0.81064247924E+02  0.00000000000E+00 0.  1.
         11    1    4    4    0    0 -0.49481026418E+02 -0.16479850937E+02  0.10104674166E+03  0.11371192313E+03  0.00000000000E+00 0. -1.
</event>
<event>
 8    1  0.7112384E-009  0.1390710E+03  0.7561462E-02  0.1214584E+00
         -2   -1    0    0    0  501 -0.00000000000E+00  0.00000000000E+00  0.35073486993E+02  0.35073486993E+02  0.00000000000E+00 0.  1.
          2   -1    0    0  501    0  0.00000000000E+00 -0.00000000000E+00 -0.69832056514E+03  0.69832056514E+03  0.00000000000E+00 0. -1.
         25    2    1    2    0    0  0.89973188311E+02 -0.64975855331E+02 -0.30891167106E+03  0.35127036985E+03  0.12508963117E+03 0.  0.
         23    2    1    2    0    0 -0.89973188311E+02  0.64975855331E+02 -0.35433540709E+03  0.38212368229E+03  0.90265671522E+02 0.  0.
          5    1    3    3  502    0  0.60765968086E+02  0.82734773915E+01 -0.23570833889E+03  0.24359155718E+03  0.41800000000E+01 0. -1.
         -5    1    3    3    0  502  0.29207220225E+02 -0.73249332722E+02 -0.73203332166E+02  0.10767881267E+03  0.41800000000E+01 0. -1.
        -11    1    4    4    0    0 -0.29319120230E+02  0.70938293085E+02 -0.14456835916E+03  0.16368220033E+03  0.00000000000E+00 0. -1.
         11    1    4    4    0    0 -0.60654068081E+02 -0.59624377543E+01 -0.20976704793E+03  0.21844148195E+03  0.00000000000E+00 0.  1.
</event>
<event>
 8    1  0.7112384E-009  0.1076256E+03  0.7561462E-02  0.1265031E+00
         -4   -1    0    0    0  501 -0.00000000000E+00  0.00000000000E+00  0.46929517910E+03  0.46929517910E+03  0.00000000000E+00 0.  1.
          4   -1    0    0  501    0  0.00000000000E+00 -0.00000000000E+00 -0.30081388148E+02  0.30081388148E+02  0.00000000000E+00 0. -1.
         25    2    1    2    0    0 -0.15588610299E+02  0.43015498964E+02  0.22098925874E+03  0.25802620356E+03  0.12509169167E+03 0.  0.
         23    2    1    2    0    0  0.15588610299E+02 -0.43015498964E+02  0.21822453221E+03  0.24135036368E+03  0.92383514050E+02 0.  0.
          5    1    3    3  502    0  0.45544213560E+02 -0.71245505670E+01  0.12677633057E+03  0.13496201318E+03  0.41800000000E+01 0.  1.
         -5    1    3    3    0  502 -0.61132823860E+02  0.50140049531E+02  0.94212928169E+02  0.12306419038E+03  0.41800000000E+01 0.  1.
        -11    1    4    4    0    0  0.13943347598E+02  0.21296858129E+02  0.18356502483E+02  0.31383662817E+02  0.00000000000E+00 0. -1.
         11    1    4    4    0    0  0.16452627011E+01 -0.64312357093E+02  0.19986802973E+03  0.20996670087E+03  0.00000000000E+00 0.  1.
</event>
<event>
 8    1  0.7112384E-009  0.1389821E+03  0.7561462E-02  0.1214705E+00
         -2   -1    0    0    0  501 -0.00000000000E+00  0.00000000000E+00  0.37843229719E+03  0.37843229719E+03  0.00000000000E+00 0.  1.
          2   -1    0    0  501    0  0.00000000000E+00 -0.00000000000E+00 -0.72519667161E+02  0.72519667161E+02  0.00000000000E+00 0. -1.
         25    2    1    2    0    0  0.75200776232E+02  0.78929649340E+02  0.24668470852E+03  0.29729798790E+03  0.12509077465E+03 0.  0.
         23    2    1    2    0    0 -0.75200776232E+02 -0.78929649340E+02  0.59227921514E+02  0.15365397645E+03  0.90645195689E+02 0.  0.
          5    1    3    3  502    0  0.11849569778E+02 -0.23377306823E+02  0.46176522160E+01  0.26938928898E+02  0.41800000000E+01 0. -1.
         -5    1    3    3    0  502  0.63351206455E+02  0.10230695616E+03  0.24206705630E+03  0.27035905900E+03  0.41800000000E+01 0. -1.
        -11    1    4    4    0    0 -0.57235938960E+02 -0.79319398779E+01  0.55816944946E+02  0.80339278824E+02  0.00000000000E+00 0.  1.
         11    1    4    4    0    0 -0.17964837272E+02 -0.70997709462E+02  0.34109765680E+01  0.73314697627E+02  0.00000000000E+00 0. -1.
</event>
<event>
 8    1  0.7112384E-009  0.1517586E+03  0.7561462E-02  0.1198329E+00
          1   -1    0    0  501    0  0.00000000000E+00  0.00000000000E+00  0.65755016273E+02  0.65755016273E+02  0.00000000000E+00 0. -1.
         -1   -1    0    0    0  501 -0.00000000000E+00 -0.00000000000E+00 -0.55927169318E+03  0.55927169318E+03  0.00000000000E+00 0.  1.
         25    2    1    2    0    0  0.12806253645E+03  0.49140799621E+02 -0.13261588470E+03  0.22814325446E+03  0.12509012852E+03 0.  0.
         23    2    1    2    0    0 -0.12806253645E+03 -0.49140799621E+02 -0.36090079220E+03  0.39688345499E+03  0.91936193109E+02 0.  0.
          5    1    3    3  502    0  0.11631294078E+03  0.38314190038E+02 -0.32629753887E+02  0.12680240767E+03  0.41800000000E+01 0.  1.
         -5    1    3    3    0  502  0.11749595662E+02  0.10826609583E+02 -0.99986130817E+02  0.10134084679E+03  0.41800000000E+01 0.  1.
        -11    1    4    4    0    0 -0.50521062836E+01  0.21862319463E+02 -0.62476895571E+02  0.66384088985E+02  0.00000000000E+00 0.  1.
         11    1    4    4    0    0 -0.12301043016E+03 -0.71003119084E+02 -0.29842389663E+03  0.33049936601E+03  0.00000000000E+00 0. -1.
</event>
<event>
 8    1  0.7112384E-009  0.9697850E+02  0.7561462E-02  0.1286781E+00
          1   -1    0    0  501    0  0.00000000000E+00  0.00000000000E+00  0.13109476579E+03  0.13109476579E+03  0.00000000000E+00 0. -1.
         -1   -1    0    0    0  501 -0.00000000000E+00 -0.00000000000E+00 -0.12059323429E+03  0.12059323429E+03  0.00000000000E+00 0.  1.
         25    2    1    2    0    0  0.18531808545E+02 -0.48668258808E+02 -0.26619555153E+02  0.13808612945E+03  0.12508857297E+03 0.  0.
         23    2    1    2    0    0 -0.18531808545E+02  0.48668258808E+02  0.37121086650E+02  0.11360187063E+03  0.93890268896E+02 0.  0.
          5    1    3    3  502    0 -0.16041866932E+02  0.33483925877E+02  0.14191286169E+02  0.39967233954E+02  0.41800000000E+01 0. -1.
         -5    1    3    3    0  502  0.34573675477E+02 -0.82152184685E+02 -0.40810841322E+02  0.98118895499E+02  0.41800000000E+01 0. -1.
        -11    1    4    4    0    0  0.11386532693E+01  0.47655078556E+02  0.64296195747E+02  0.80039389247E+02  0.00000000000E+00 0. -1.
         11    1    4    4    0    0 -0.19670461814E+02  0.10131802520E+01 -0.27175109097E+02  0.33562481384E+02  0.00000000000E+00 0.  1.
</event>
<event>
 8    1  0.7112384E-009  0.3893328E+03  0.7561462E-02  0.1047537E+00
          2   -1    0    0  501    0  0.00000000000E+00  0.00000000000E+00  0.97183750691E+03  0.97183750691E+03  0.00000000000E+00 0. -1.
         -2   -1    0    0    0  501 -0.00000000000E+00 -0.00000000000E+00 -0.16367206470E+03  0.16367206470E+03  0.00000000000E+00 0.  1.
         25    2    1    2    0    0  0.20254940787E+03  0.31953509918E+03  0.49969254706E+03  0.63911566402E+03  0.12508896101E+03 0.  0.
         23    2    1    2    0    0 -0.20254940787E+03 -0.31953509918E+03  0.30847289514E+03  0.49639390759E+03  0.90124592783E+02 0.  0.
          5    1    3    3  502    0  0.31857206268E+02  0.16269830740E+03  0.22830170186E+03  0.28217859645E+03  0.41800000000E+01 0.  1.
         -5    1    3    3    0  502  0.17069220160E+03  0.15683679177E+03  0.27139084520E+03  0.35693706756E+03  0.41800000000E+01 0.  1.
        -11    1    4    4    0    0 -0.10785991318E+03 -0.21083643923E+03  0.14181361559E+03  0.27603779912E+03  0.00000000000E+00 0.  1.
         11    1    4    4    0    0 -0.94689494694E+02 -0.10869865995E+03  0.16665927955E+03  0.22035610847E+03  0.00000000000E+00 0. -1.
</event>
<event>
 8    1  0.7112384E-009  0.1360677E+03  0.7561462E-02  0.1218720E+00
         -1   -1    0    0    0  501 -0.00000000000E+00  0.00000000000E+00  0.18335480506E+02  0.18335480506E+02  0.00000000000E+00 0.  1.
          1   -1    0    0  501    0  0.00000000000E+00 -0.00000000000E+00 -0.11704544450E+04  0.11704544450E+04  0.00000000000E+00 0. -1.
         25    2    1    2    0    0  0.25892464371E+02 -0.78358162210E+02 -0.81815861256E+03  0.83177015429E+03  0.12509057902E+03 0.  0.
         23    2    1    2    0    0 -0.25892464371E+02  0.78358162210E+02 -0.33396035191E+03  0.35701977120E+03  0.95515334267E+02 0.  0.
          5    1    3    3  502    0  0.73773051307E+02 -0.24913820031E+02 -0.42900382736E+03  0.43603316137E+03  0.41800000000E+01 0.  1.
         -5    1    3    3    0  502 -0.47880586935E+02 -0.53444342178E+02 -0.38915478521E+03  0.39573699292E+03  0.41800000000E+01 0.  1.
        -11    1    4    4    0    0 -0.58606557357E+02  0.36077494894E+02 -0.23063514165E+03  0.24068419717E+03  0.00000000000E+00 0.  1.
         11    1    4    4    0    0  0.32714092986E+02  0.42280667316E+02 -0.10332521026E+03  0.11633557402E+03  0.00000000000E+00 0. -1.
</event>
<event>
 8    1  0.7112384E-009  0.1079687E+03  0.7561462E-02  0.1264378E+00
          1   -1    0    0  501    0  0.00000000000E+00  0.00000000000E+00  0.84049768735E+02  0.84049768735E+02  0.00000000000E+00 0. -1.
         -1   -1    0    0    0  501 -0.00000000000E+00 -0.00000000000E+00 -0.18136304486E+03  0.18136304486E+03  0.00000000000E+00 0.  1.
         25    2    1    2    0    0 -0.42968411012E+02  0.26348603854E+02 -0.84871315764E+02  0.15934638932E+03  0.12509036046E+03 0.  0.
         23    2    1    2    0    0  0.42968411012E+02 -0.26348603854E+02 -0.12441960363E+02  0.10606642428E+03  0.92491895386E+02 0.  0.
          5    1    3    3  502    0  0.38554280350E+02  0.61273112023E+01 -0.59899878709E+02  0.71620139244E+02  0.41800000000E+01 0.  1.
         -5    1    3    3    0  502 -0.81522691361E+02  0.20221292651E+02 -0.24971437054E+02  0.87726250073E+02  0.41800000000E+01 0.  1.
        -11    1    4    4    0    0  0.60837302944E+02 -0.11431904786E+00 -0.32043403914E+02  0.68760237294E+02  0.00000000000E+00 0.  1.
         11    1    4    4    0    0 -0.17868891933E+02 -0.26234284806E+02  0.19601443551E+02  0.37306186986E+02  0.00000000000E+00 0. -1.
</event>
<event>
 8    1  0.7112384E-009  0.1241891E+03  0.7561462E-02  0.1236342E+00
          1   -1    0    0  501    0  0.00000000000E+00  0.00000000000E+00  0.31258989067E+03  0.31258989067E+03  0.00000000000E+00 0. -1.
         -1   -1    0    0    0  501 -0.00000000000E+00 -0.00000000000E+00 -0.61742302323E+02  0.61742302323E+02  0.00000000000E+00 0.  1.
         25    2    1    2    0    0  0.80862266146E+02 -0.27328891203E+02  0.11637093552E+03  0.19098394372E+03  0.12508835974E+03 0.  0.
         23    2    1    2    0    0 -0.80862266146E+02  0.27328891203E+02  0.13447665283E+03  0.18334824928E+03  0.90813192743E+02 0.  0.
          5    1    3    3  502    0  0.16996603042E+02  0.32776219734E+02 -0.87091630231E+01  0.38163949161E+02  0.41800000000E+01 0.  1.
         -5    1    3    3    0  502  0.63865663104E+02 -0.60105110938E+02  0.12508009854E+03  0.15281999455E+03  0.41800000000E+01 0.  1.
        -11    1    4    4    0    0 -0.67111103730E+02  0.58704924467E+02  0.10800896816E+03  0.14005750820E+03  0.00000000000E+00 0.  1.
         11    1    4    4    0    0 -0.13751162416E+02 -0.31376033264E+02  0.26467684668E+02  0.43290741075E+02  0.00000000000E+00 0. -1.
</event>
<event>
 8    1  0.7112384E-009  0.1004652E+03  0.7561462E-02  0.1279321E+00
          2   -1    0    0  501    0  0.00000000000E+00  0.00000000000E+00  0.10204097404E+04  0.10204097404E+04  0.00000000000E+00 0. -1.
         -2   -1    0    0    0  501 -0.00000000000E+00 -0.00000000000E+00 -0.19744472869E+02  0.19744472869E+02  0.00000000000E+00 0.  1.
         25    2    1    2    0    0 -0.50409939910E+02 -0.17901187772E+02  0.82556300238E+03  0.83669805970E+03  0.12509099741E+03 0.  0.
         23    2    1    2    0    0  0.50409939910E+02  0.17901187772E+02  0.17510226515E+03  0.20345615357E+03  0.88724227812E+02 0.  0.
          5    1    3    3  502    0  0.22552660682E+02 -0.65104415779E+01  0.57379589037E+03  0.57429104516E+03  0.41800000000E+01 0.  1.
         -5    1    3    3    0  502 -0.72962600592E+02 -0.11390746194E+02  0.25176711202E+03  0.26240701453E+03  0.41800000000E+01 0.  1.
        -11    1    4    4    0    0 -0.18876089676E+02  0.27312594309E+02  0.47515572804E+02  0.57965629715E+02  0.00000000000E+00 0. -1.
         11    1    4    4    0    0  0.69286029586E+02 -0.94114065374E+01  0.12758669235E+03  0.14549052386E+03  0.00000000000E+00 0.  1.
</event>
<event>
 8    1  0.7112384E-009  0.1373015E+03  0.7561462E-02  0.1217007E+00
          2   -1    0    0  501    0  0.00000000000E+00  0.00000000000E+00  0.84304955720E+03  0.84304955720E+03  0.00000000000E+00 0. -1.
         -2   -1    0    0    0  501 -0.00000000000E+00 -0.00000000000E+00 -0.27879292499E+02  0.27879292499E+02  0.00000000000E+00 0.  1.
         25    2    1    2    0    0 -0.87974605464E+02  0.60243915094E+02  0.39400332509E+03  0.42691465642E+03  0.12509453691E+03 0.  0.
         23    2    1    2    0    0  0.87974605464E+02 -0.60243915094E+02  0.42116693960E+03  0.44401419328E+03  0.91641433356E+02 0.  0.
          5    1    3    3  502    0 -0.49147689832E+02  0.79576468164E+02  0.13509787904E+03  0.16436793794E+03  0.41800000000E+01 0. -1.
         -5    1    3    3    0  502 -0.38826915631E+02 -0.19332553070E+02  0.25890544606E+03  0.26254671848E+03  0.41800000000E+01 0. -1.
        -11    1    4    4    0    0 -0.17670202423E+02 -0.11288657441E+02  0.36313199393E+02  0.41932306050E+02  0.00000000000E+00 0.  1.
         11    1    4    4    0    0  0.10564480789E+03 -0.48955257654E+02  0.38485374021E+03  0.40208188723E+03  0.00000000000E+00 0. -1.
</event>
<event>
 8    1  0.7112384E-009  0.1195435E+03  0.7561462E-02  0.1243852E+00
          2   -1    0    0  501    0  0.00000000000E+00  0.00000000000E+00  0.31203781419E+03  0.31203781419E+03  0.00000000000E+00 0. -1.
         -2   -1    0    0    0  501 -0.00000000000E+00 -0.00000000000E+00 -0.66546072356E+02  0.66546072356E+02  0.00000000000E+00 0.  1.
         25    2    1    2    0    0 -0.32026154755E+02 -0.88410527831E+02  0.12581412838E+03  0.20079605399E+03  0.12509102438E+03 0.  0.
         23    2    1    2    0    0  0.32026154755E+02  0.88410527831E+02  0.11967761345E+03  0.17778783255E+03  0.91889532713E+02 0.  0.
          5    1    3    3  502    0  0.29214098592E+02 -0.66177481489E+02  0.17846670894E+02  0.74625053934E+02  0.41800000000E+01 0.  1.
         -5    1    3    3    0  502 -0.61240253347E+02 -0.22233046343E+02  0.10796745749E+03  0.12617100006E+03  0.41800000000E+01 0.  1.
        -11    1    4    4    0    0  0.25850024415E+01  0.61193563781E+02  0.11366481756E+02  0.62293911366E+02  0.00000000000E+00 0.  1.
         11    1    4    4    0    0  0.29441152314E+02  0.27216964051E+02  0.10831113170E+03  0.11549392119E+03  0.00000000000E+00 0. -1.
</event>
<event>
 8    1  0.7112384E-009  0.1032767E+03  0.7561462E-02  0.1273553E+00
         -2   -1    0    0    0  501 -0.00000000000E+00  0.00000000000E+00  0.19210854959E+03  0.19210854959E+03  0.00000000000E+00 0.  1.
          2   -1    0    0  501    0  0.00000000000E+00 -0.00000000000E+00 -0.62026553646E+02  0.62026553646E+02  0.00000000000E+00 0. -1.
         25    2    1    2    0    0 -0.46544922652E+01 -0.31207642320E+01  0.61269803087E+02  0.13939294926E+03  0.12507998267E+03 0.  0.
         23    2    1    2    0    0  0.46544922652E+01  0.31207642320E+01  0.68812192860E+02  0.11474215398E+03  0.91647370644E+02 0.  0.
          5    1    3    3  502    0  0.26637198870E+01  0.58949913113E+02  0.45948768482E+02  0.74906270663E+02  0.41800000000E+01 0.  1.
         -5    1    3    3    0  502 -0.73182121522E+01 -0.62070677345E+02  0.15321034605E+02  0.64486678597E+02  0.41800000000E+01 0.  1.
        -11    1    4    4    0    0 -0.34449128409E+02  0.22466676029E+02  0.55599554344E+02  0.69157822574E+02  0.00000000000E+00 0. -1.
         11    1    4    4    0    0  0.39103620674E+02 -0.19345911797E+02  0.13212638516E+02  0.45584331405E+02  0.00000000000E+00 0.  1.
</event>
<event>
 8    1  0.7112384E-009  0.3245284E+03  0.7561462E-02  0.1073584E+00
          2   -1    0    0  501    0  0.00000000000E+00  0.00000000000E+00  0.21856052813E+03  0.21856052813E+03  0.00000000000E+00 0. -1.
         -2   -1    0    0    0  501 -0.00000000000E+00 -0.00000000000E+00 -0.53739969848E+03  0.53739969848E+03  0.00000000000E+00 0.  1.
         25    2    1    2    0    0  0.13480836145E+03 -0.28960108792E+03 -0.90580889796E+02  0.35481715212E+03  0.12509288309E+03 0.  0.
         23    2    1    2    0    0 -0.13480836145E+03  0.28960108792E+03 -0.22825828055E+03  0.40114307449E+03  0.82291185005E+02 0.  0.
          5    1    3    3  502    0  0.45232412978E+02 -0.30641193455E+02  0.21332932204E+02  0.58799832624E+02  0.41800000000E+01 0.  1.
         -5    1    3    3    0  502  0.89575948474E+02 -0.25895989447E+03 -0.11191382200E+03  0.29601731950E+03  0.41800000000E+01 0.  1.
        -11    1    4    4    0    0 -0.40420385454E+02  0.64384799100E+02 -0.16210038558E+02  0.77730143866E+02  0.00000000000E+00 0.  1.
         11    1    4    4    0    0 -0.94387975998E+02  0.22521628882E+03 -0.21204824199E+03  0.32341293062E+03  0.00000000000E+00 0. -1.
</event>
<event>
 8    1  0.7112384E-009  0.5854215E+03  0.7561462E-02  0.9936122E-01
         -2   -1    0    0    0  501 -0.00000000000E+00  0.00000000000E+00  0.13365294934E+04  0.13365294934E+04  0.00000000000E+00 0.  1.
          2   -1    0    0  501    0  0.00000000000E+00 -0.00000000000E+00 -0.26188451993E+03  0.26188451993E+03  0.00000000000E+00 0. -1.
         25    2    1    2    0    0 -0.33868969005E+03 -0.46687488707E+03  0.44006476131E+03  0.73619703665E+03  0.12508483642E+03 0.  0.
         23    2    1    2    0    0  0.33868969005E+03  0.46687488707E+03  0.63458021218E+03  0.86221697671E+03  0.89683905568E+02 0.  0.
          5    1    3    3  502    0 -0.24199224374E+03 -0.40784536367E+03  0.32681938689E+03  0.57595700425E+03  0.41800000000E+01 0.  1.
         -5    1    3    3    0  502 -0.96697446308E+02 -0.59029523397E+02  0.11324537442E+03  0.16024003239E+03  0.41800000000E+01 0.  1.
        -11    1    4    4    0    0  0.28488508198E+03  0.43705832712E+03  0.55630178845E+03  0.76266058707E+03  0.00000000000E+00 0. -1.
         11    1    4    4    0    0  0.53804608067E+02  0.29816559951E+02  0.78278423733E+02  0.99556389643E+02  0.00000000000E+00 0.  1.
</event>
<event>
 8    1  0.7112384E-009  0.1039872E+03  0.7561462E-02  0.1272128E+00
         -2   -1    0    0    0  501 -0.00000000000E+00  0.00000000000E+00  0.20902638842E+02  0.20902638842E+02  0.00000000000E+00 0.  1.
          2   -1    0    0  501    0  0.00000000000E+00 -0.00000000000E+00 -0.10511542342E+04  0.10511542342E+04  0.00000000000E+00 0. -1.
         25    2    1    2    0    0  0.37595274818E+02  0.95612523621E+01 -0.89265255409E+03  0.90220913377E+03  0.12509163245E+03 0.  0.
         23    2    1    2    0    0 -0.37595274818E+02 -0.95612523621E+01 -0.13759904132E+03  0.16984773931E+03  0.91705703986E+02 0.  0.
          5    1    3    3  502    0 -0.34271949264E+02  0.25277307077E+02 -0.55314739018E+03  0.55479997876E+03  0.41800000000E+01 0. -1.
         -5    1    3    3    0  502  0.71867224082E+02 -0.15716054715E+02 -0.33950516390E+03  0.34740915502E+03  0.41800000000E+01 0. -1.
        -11    1    4    4    0    0 -0.42709374761E+02 -0.41264442581E+02 -0.53901605895E+02  0.80201172261E+02  0.00000000000E+00 0.  1.
         11    1    4    4    0    0  0.51140999431E+01  0.31703190219E+02 -0.83697435421E+02  0.89646567053E+02  0.00000000000E+00 0. -1.
</event>
<event>
 8    1  0.7112384E-009  0.6309610E+02  0.7561462E-02  0.1385280E+00
          3   -1    0    0  501    0  0.00000000000E+00  0.00000000000E+00  0.12608161170E+03  0.12608161170E+03  0.00000000000E+00 0. -1.
         -3   -1    0    0    0  501 -0.00000000000E+00 -0.00000000000E+00 -0.12141772923E+03  0.12141772923E+03  0.00000000000E+00 0.  1.
         25    2    1    2    0    0  0.43897831342E+02  0.43165719764E+01 -0.37280893609E+02  0.13778368520E+03  0.12509526965E+03 0.  0.
         23    2    1    2    0    0 -0.43897831342E+02 -0.43165719764E+01  0.41944776075E+02  0.10971565572E+03  0.91282574899E+02 0.  0.
          5    1    3    3  502    0  0.23528481979E+02 -0.31630685607E+02 -0.72959340358E+02  0.83033893572E+02  0.41800000000E+01 0.  1.
         -5    1    3    3    0  502  0.20369349363E+02  0.35947257584E+02  0.35678446749E+02  0.54749791631E+02  0.41800000000E+01 0.  1.
        -11    1    4    4    0    0 -0.24060406381E+02 -0.68651056839E+01 -0.27658120210E+02  0.37296171987E+02  0.00000000000E+00 0.  1.
         11    1    4    4    0    0 -0.19837424961E+02  0.25485337075E+01  0.69602896285E+02  0.72419483735E+02  0.00000000000E+00 0. -1.
</event>
<event>
 8    1  0.7112384E-009  0.1080171E+03  0.7561462E-02  0.1264287E+00
          3   -1    0    0  501    0  0.00000000000E+00  0.00000000000E+00  0.39894012816E+03  0.39894012816E+03  0.00000000000E+00 0. -1.
         -3   -1    0    0    0  501 -0.00000000000E+00 -0.00000000000E+00 -0.35453594376E+02  0.35453594376E+02  0.00000000000E+00 0.  1.
         25    2    1    2    0    0  0.39663722381E+02  0.28685418702E+02  0.18486063582E+03  0.22851308694E+03  0.12509481246E+03 0.  0.
         23    2    1    2    0    0 -0.39663722381E+02 -0.28685418702E+02  0.17862589796E+03  0.20588063560E+03  0.89908623465E+02 0.  0.
          5    1    3    3  502    0 -0.43428772362E+02 -0.31937750432E+01  0.45605511095E+02  0.63194885158E+02  0.41800000000E+01 0. -1.
         -5    1    3    3    0  502  0.83092494743E+02  0.31879193745E+02  0.13925512473E+03  0.16531820178E+03  0.41800000000E+01 0. -1.
        -11    1    4    4    0    0 -0.40200341685E+02  0.12425999725E+02  0.14997983670E+03  0.15577042196E+03  0.00000000000E+00 0. -1.
         11    1    4    4    0    0  0.53661930426E+00 -0.41111418427E+02  0.28646061262E+02  0.50110213641E+02  0.00000000000E+00 0.  1.
</event>
<event>
 8    1  0.7112384E-009  0.1619909E+03  0.7561462E-02  0.1186467E+00
         -1   -1    0    0    0  501 -0.00000000000E+00  0.00000000000E+00  0.40897639119E+02  0.40897639119E+02  0.00000000000E+00 0.  1.
          1   -1    0    0  501    0  0.00000000000E+00 -0.00000000000E+00 -0.76742129799E+03  0.76742129799E+03  0.00000000000E+00 0. -1.
         25    2    1    2    0    0 -0.96517218082E+02  0.98473282137E+02 -0.44083487101E+03  0.47853594459E+03  0.12509478839E+03 0.  0.
         23    2    1    2    0    0  0.96517218082E+02 -0.98473282137E+02 -0.28568878786E+03  0.32978299253E+03  0.90145315838E+02 0.  0.
          5    1    3    3  502    0  0.78657509196E+01 -0.23707283041E+02 -0.65476935969E+02  0.70204037281E+02  0.41800000000E+01 0. -1.
         -5    1    3    3    0  502 -0.10438296900E+03  0.12218056518E+03 -0.37535793504E+03  0.40833190731E+03  0.41800000000E+01 0. -1.
        -11    1    4    4    0    0  0.37078813515E+02 -0.36292794366E+02 -0.29823351817E+02  0.59845113821E+02  0.00000000000E+00 0.  1.
         11    1    4    4    0    0  0.59438404567E+02 -0.62180487771E+02 -0.25586543605E+03  0.26993787870E+03  0.00000000000E+00 0. -1.
</event>
<event>
 8    1  0.7112384E-009  0.1079236E+03  0.7561462E-02  0.1264464E+00
         -1   -1    0    0    0  501 -0.00000000000E+00  0.00000000000E+00  0.12304795829E+03  0.12304795829E+03  0.00000000000E+00 0.  1.
          1   -1    0    0  501    0  0.00000000000E+00 -0.00000000000E+00 -0.17437344230E+03  0.17437344230E+03  0.00000000000E+00 0. -1.
         25    2    1    2    0    0 -0.42667965316E+02  0.81522732631E+02  0.97921763242E+01  0.15559477025E+03  0.12508930654E+03 0.  0.
         23    2    1    2    0    0  0.42667965316E+02 -0.81522732631E+02 -0.61117660339E+02  0.14182663034E+03  0.88954558443E+02 0.  0.
          5    1    3    3  502    0 -0.62882381118E+02  0.45052748258E+02  0.54191634624E+02  0.94541787818E+02  0.41800000000E+01 0. -1.
         -5    1    3    3    0  502  0.20214415801E+02  0.36469984374E+02 -0.44399458300E+02  0.61052982431E+02  0.41800000000E+01 0. -1.
        -11    1    4    4    0    0  0.19830659168E+02 -0.65856921364E+02 -0.82085229224E+02  0.10709049440E+03  0.00000000000E+00 0. -1.
         11    1    4    4    0    0  0.22837306148E+02 -0.15665811267E+02  0.20967568885E+02  0.34736135935E+02  0.00000000000E+00 0.  1.
</event>
<event>
 8    1  0.7112384E-009  0.1297042E+03  0.7561462E-02  0.1227895E+00
          2   -1    0    0  501    0  0.00000000000E+00  0.00000000000E+00  0.14071404326E+04  0.14071404326E+04  0.00000000000E+00 0. -1.
         -2   -1    0    0    0  501 -0.00000000000E+00 -0.00000000000E+00 -0.17074907809E+02  0.17074907809E+02  0.00000000000E+00 0.  1.
         25    2    1    2    0    0 -0.33382004498E+02 -0.10378921234E+03  0.84804502005E+03  0.86412572339E+03  0.12508537473E+03 0.  0.
         23    2    1    2    0    0  0.33382004498E+02  0.10378921234E+03  0.54202050479E+03  0.56008961707E+03  0.89596834268E+02 0.  0.
          5    1    3    3  502    0 -0.14106327424E+01  0.55834493497E+01 -0.12374145927E+01  0.72227686000E+01  0.41800000000E+01 0.  1.
         -5    1    3    3    0  502 -0.31971371756E+02 -0.10937266169E+03  0.84928243464E+03  0.85690295479E+03  0.41800000000E+01 0.  1.
        -11    1    4    4    0    0  0.56762292564E+02  0.99417381807E+02  0.48457932394E+03  0.49791856247E+03  0.00000000000E+00 0. -1.
         11    1    4    4    0    0 -0.23380288065E+02  0.43718305358E+01  0.57441180850E+02  0.62171054597E+02  0.00000000000E+00 0.  1.
</event>
<event>
 8    1  0.7112384E-009  0.1159223E+03  0.7561462E-02  0.1249980E+00
         -1   -1    0    0    0  501 -0.00000000000E+00  0.00000000000E+00  0.18618828544E+02  0.18618828544E+02  0.00000000000E+00 0.  1.
          1   -1    0    0  501    0  0.00000000000E+00 -0.00000000000E+00 -0.91523102870E+03  0.91523102870E+03  0.00000000000E+00 0. -1.
         25    2    1    2    0    0 -0.66085528298E+02  0.25488229000E+02 -0.44606736093E+03  0.46865834385E+03  0.12509039096E+03 0.  0.
         23    2    1    2    0    0  0.66085528298E+02 -0.25488229000E+02 -0.45054483923E+03  0.46519151339E+03  0.91627207247E+02 0.  0.
          5    1    3    3  502    0 -0.92132021004E+02 -0.92075941083E+01 -0.36537018978E+03  0.37694288303E+03  0.41800000000E+01 0. -1.
         -5    1    3    3    0  502  0.26046492706E+02  0.34695823108E+02 -0.80697171143E+02  0.91715460823E+02  0.41800000000E+01 0. -1.
        -11    1    4    4    0    0  0.79067673669E+02 -0.20654198452E+02 -0.44065979353E+03  0.44817334433E+03  0.00000000000E+00 0. -1.
         11    1    4    4    0    0 -0.12982145371E+02 -0.48340305481E+01 -0.98850456978E+01  0.17018169062E+02  0.00000000000E+00 0.  1.
</event>
<event>
 8    1  0.7112384E-009  0.1142412E+03  0.7561462E-02  0.1252911E+00
         -2   -1    0    0    0  501 -0.00000000000E+00  0.00000000000E+00  0.63898237620E+02  0.63898237620E+02  0.00000000000E+00 0.  1.
          2   -1    0    0  501    0  0.00000000000E+00 -0.00000000000E+00 -0.28187564542E+03  0.28187564542E+03  0.00000000000E+00 0. -1.
         25    2    1    2    0    0 -0.25263275265E+02 -0.26339929383E+02 -0.30097777610E+02  0.13373576733E+03  0.12508938519E+03 0.  0.
         23    2    1    2    0    0  0.25263275265E+02  0.26339929383E+02 -0.18787963019E+03  0.21203811572E+03  0.91265448656E+02 0.  0.
          5    1    3    3  502    0 -0.24821011570E+02 -0.76203746074E+02 -0.17687109032E+02  0.82179071283E+02  0.41800000000E+01 0.  1.
         -5    1    3    3    0  502 -0.44226369549E+00  0.49863816691E+02 -0.12410668579E+02  0.51556696042E+02  0.41800000000E+01 0.  1.
        -11    1    4    4    0    0  0.20744196237E+02  0.60383035159E+02 -0.12675442552E+03  0.14192644927E+03  0.00000000000E+00 0. -1.
         11    1    4    4    0    0  0.45190790283E+01 -0.34043105776E+02 -0.61125204670E+02  0.70111666448E+02  0.00000000000E+00 0.  1.
</event>
<event>
 8    1  0.7112384E-009  0.1129630E+03  0.7561462E-02  0.1255179E+00
          3   -1    0    0  501    0  0.00000000000E+00  0.00000000000E+00  0.99826311520E+02  0.99826311520E+02  0.00000000000E+00 0. -1.
         -3   -1    0    0    0  501 -0.00000000000E+00 -0.00000000000E+00 -0.18301859065E+03  0.18301859065E+03  0.00000000000E+00 0.  1.
         25    2    1    2    0    0  0.14500901059E+02  0.56130341954E+02 -0.10382205296E+03  0.17259130319E+03  0.12509135796E+03 0.  0.
         23    2    1    2    0    0 -0.14500901059E+02 -0.56130341954E+02  0.20629773838E+02  0.11025359898E+03  0.91484299743E+02 0.  0.
          5    1    3    3  502    0  0.88596135926E+01  0.88851620961E+02 -0.34876653550E+02  0.95952887727E+02  0.41800000000E+01 0. -1.
         -5    1    3    3    0  502  0.56412874668E+01 -0.32721279007E+02 -0.68945399413E+02  0.76638415461E+02  0.41800000000E+01 0. -1.
        -11    1    4    4    0    0 -0.40864721123E+02  0.21110167196E+00 -0.82211787682E+01  0.41684023039E+02  0.00000000000E+00 0.  1.
         11    1    4    4    0    0  0.26363820063E+02 -0.56341443626E+02  0.28850952606E+02  0.68569575939E+02  0.00000000000E+00 0. -1.
</event>
<event>
 8    1  0.7112384E-009  0.1062437E+03  0.7561462E-02  0.1267688E+00
         -1   -1    0    0    0  501 -0.00000000000E+00  0.00000000000E+00  0.20852531732E+02  0.20852531732E+02  0.00000000000E+00 0.  1.
          1   -1    0    0  501    0  0.00000000000E+00 -0.00000000000E+00 -0.66346429757E+03  0.66346429757E+03  0.00000000000E+00 0. -1.
         25    2    1    2    0    0  0.28276843778E+01  0.43503264392E+02 -0.31578103379E+03  0.34243940222E+03  0.12508618262E+03 0.  0.
         23    2    1    2    0    0 -0.28276843778E+01 -0.43503264392E+02 -0.32683073205E+03  0.34187742708E+03  0.90340012850E+02 0.  0.
          5    1    3    3  502    0 -0.37066344846E+02  0.61824752819E+02 -0.26739576072E+03  0.27697324642E+03  0.41800000000E+01 0. -1.
         -5    1    3    3    0  502  0.39894029223E+02 -0.18321488427E+02 -0.48385273069E+02  0.65466155804E+02  0.41800000000E+01 0. -1.
        -11    1    4    4    0    0  0.24109454581E+02 -0.59953759206E+02 -0.26086449021E+03  0.26874895589E+03  0.00000000000E+00 0.  1.
         11    1    4    4    0    0 -0.26937138959E+02  0.16450494814E+02 -0.65966241847E+02  0.73128471188E+02  0.00000000000E+00 0. -1.
</event>
<event>
 8    1  0.7112384E-009  0.8392385E+02  0.7561462E-02  0.1318271E+00
         -2   -1    0    0    0  501 -0.00000000000E+00  0.00000000000E+00  0.17515254871E+02  0.17515254871E+02  0.00000000000E+00 0.  1.
          2   -1    0    0  501    0  0.00000000000E+00 -0.00000000000E+00 -0.74566451639E+03  0.74566451639E+03  0.00000000000E+00 0. -1.
         25    2    1    2    0    0  0.76035746489E+01 -0.27957341795E+02 -0.48783754388E+03  0.50445282150E+03  0.12509097725E+03 0.  0.
         23    2    1    2    0    0 -0.76035746489E+01  0.27957341795E+02 -0.24031171764E+03  0.25872694976E+03  0.91380991415E+02 0.  0.
          5    1    3    3  502    0 -0.32229176558E+01 -0.48592157533E+02 -0.47502615246E+03  0.47753419028E+03  0.41800000000E+01 0. -1.
         -5    1    3    3    0  502  0.10826492305E+02  0.20634815738E+02 -0.12811391422E+02  0.26918631212E+02  0.41800000000E+01 0. -1.
        -11    1    4    4    0    0  0.33348605426E+02  0.40502086539E+02 -0.11815973626E+03  0.12928368718E+03  0.00000000000E+00 0.  1.
         11    1    4    4    0    0 -0.40952180075E+02 -0.12544744744E+02 -0.12215198138E+03  0.12944326258E+03  0.00000000000E+00 0. -1.
</event>
<event>
 8    1  0.7112384E-009  0.2138117E+03  0.7561462E-02  0.1138583E+00
         -1   -1    0    0    0  501 -0.00000000000E+00  0.00000000000E+00  0.61869850985E+02  0.61869850985E+02  0.00000000000E+00 0.  1.
          1   -1    0    0  501    0  0.00000000000E+00 -0.00000000000E+00 -0.88356563858E+03  0.88356563858E+03  0.00000000000E+00 0. -1.
         25    2    1    2    0    0 -0.20068180943E+02  0.19030029529E+03 -0.58326504213E+03  0.62646951723E+03  0.12509601264E+03 0.  0.
         23    2    1    2    0    0  0.20068180943E+02 -0.19030029529E+03 -0.23843074547E+03  0.31896597234E+03  0.90956785612E+02 0.  0.
          5    1    3    3  502    0 -0.42945794891E+02  0.23406779195E+02 -0.64705217893E+02  0.81218570744E+02  0.41800000000E+01 0. -1.
         -5    1    3    3    0  502  0.22877613948E+02  0.16689351610E+03 -0.51855982424E+03  0.54525094649E+03  0.41800000000E+01 0. -1.
        -11    1    4    4    0    0  0.33711381343E+02 -0.20030652822E+02 -0.29356205032E+02  0.48984396071E+02  0.00000000000E+00 0.  1.
         11    1    4    4    0    0 -0.13643200399E+02 -0.17026964247E+03 -0.20907454044E+03  0.26998157627E+03  0.00000000000E+00 0. -1.
</event>
<event>
 8    1  0.7112384E-009  0.9592022E+02  0.7561462E-02  0.1289117E+00
          2   -1    0    0  501    0  0.00000000000E+00  0.00000000000E+00  0.14742430709E+03  0.14742430709E+03  0.00000000000E+00 0. -1.
         -2   -1    0    0    0  501 -0.00000000000E+00 -0.00000000000E+00 -0.13747544290E+03  0.13747544290E+03  0.00000000000E+00 0.  1.
         25    2    1    2    0    0  0.72902474998E+02  0.52851318988E+02 -0.96937995431E+01  0.15443466338E+03  0.12509221688E+03 0.  0.
         23    2    1    2    0    0 -0.72902474998E+02 -0.52851318988E+02  0.19642663727E+02  0.13046508661E+03  0.92343228258E+02 0.  0.
          5    1    3    3  502    0  0.25672674067E+02  0.43267655679E+02 -0.64126261141E+02  0.81613883559E+02  0.41800000000E+01 0. -1.
         -5    1    3    3    0  502  0.47229800931E+02  0.95836633090E+01  0.54432461598E+02  0.72820779823E+02  0.41800000000E+01 0. -1.
        -11    1    4    4    0    0 -0.70064631726E+02 -0.41828376651E+02 -0.24244300866E+02  0.85126093747E+02  0.00000000000E+00 0.  1.
         11    1    4    4    0    0 -0.28378432723E+01 -0.11022942337E+02  0.43886964594E+02  0.45338992859E+02  0.00000000000E+00 0. -1.
</event>
<event>
 8    1  0.7112384E-009  0.2637197E+03  0.7561462E-02  0.1104929E+00
          2   -1    0    0  501    0  0.00000000000E+00  0.00000000000E+00  0.37939483240E+03  0.37939483240E+03  0.00000000000E+00 0. -1.
         -2   -1    0    0    0  501 -0.00000000000E+00 -0.00000000000E+00 -0.19846446882E+03  0.19846446882E+03  0.00000000000E+00 0.  1.
         25    2    1    2    0    0 -0.57538690189E+02 -0.23950837502E+03  0.14628376019E+03  0.31260284794E+03  0.12508652793E+03 0.  0.
         23    2    1    2    0    0  0.57538690189E+02  0.23950837502E+03  0.34646603392E+02  0.26525645328E+03  0.92117513545E+02 0.  0.
          5    1    3    3  502    0 -0.89220246967E+02 -0.12200318568E+03  0.56938105687E+02  0.16156871623E+03  0.41800000000E+01 0. -1.
         -5    1    3    3    0  502  0.31681556778E+02 -0.11750518934E+03  0.89345654502E+02  0.15103413171E+03  0.41800000000E+01 0. -1.
        -11    1    4    4    0    0  0.46049064875E+02  0.65453191324E+02 -0.19949565287E+02  0.82478007890E+02  0.00000000000E+00 0. -1.
         11    1    4    4    0    0  0.11489625315E+02  0.17405518370E+03  0.54596168679E+02  0.18277844539E+03  0.00000000000E+00 0.  1.
</event>
<event>
 8    1  0.7112384E-009  0.1510126E+03  0.7561462E-02  0.1199234E+00
         -1   -1    0    0    0  501 -0.00000000000E+00  0.00000000000E+00  0.33830370609E+02  0.33830370609E+02  0.00000000000E+00 0.  1.
          1   -1    0    0  501    0  0.00000000000E+00 -0.00000000000E+00 -0.10079343171E+04  0.10079343171E+04  0.00000000000E+00 0. -1.
         25    2    1    2    0    0  0.13253242550E+03 -0.92367152917E+01 -0.71359351715E+03  0.73655596190E+03  0.12509523005E+03 0.  0.
         23    2    1    2    0    0 -0.13253242550E+03  0.92367152917E+01 -0.26051042939E+03  0.30520872585E+03  0.87387194699E+02 0.  0.
          5    1    3    3  502    0  0.13436678075E+03  0.17119528811E+02 -0.68118577277E+03  0.69453512472E+03  0.41800000000E+01 0. -1.
         -5    1    3    3    0  502 -0.18343552530E+01 -0.26356244103E+02 -0.32407744372E+02  0.42020837184E+02  0.41800000000E+01 0. -1.
        -11    1    4    4    0    0 -0.87137694589E+02 -0.14811958402E+02 -0.22770046880E+03  0.24425371117E+03  0.00000000000E+00 0. -1.
         11    1    4    4    0    0 -0.45394730910E+02  0.24048673694E+02 -0.32809960592E+02  0.60955014682E+02  0.00000000000E+00 0.  1.
</event>
<event>
 8    1  0.7112384E-009  0.1061980E+03  0.7561462E-02  0.1267777E+00
          1   -1    0    0  501    0  0.00000000000E+00  0.00000000000E+00  0.57945807258E+03  0.57945807258E+03  0.00000000000E+00 0. -1.
         -1   -1    0    0    0  501 -0.00000000000E+00 -0.00000000000E+00 -0.29119329156E+02  0.29119329156E+02  0.00000000000E+00 0.  1.
         25    2    1    2    0    0  0.29354273849E+01  0.55239710054E+01  0.13639320993E+03  0.18517433796E+03  0.12508915514E+03 0.  0.
         23    2    1    2    0    0 -0.29354273849E+01 -0.55239710054E+01  0.41394553349E+03  0.42340306377E+03  0.88770032825E+02 0.  0.
          5    1    3    3  502    0 -0.29329552407E+02 -0.50801321418E+02  0.78577873453E+02  0.98147600575E+02  0.41800000000E+01 0. -1.
         -5    1    3    3    0  502  0.32264979792E+02  0.56325292424E+02  0.57815336479E+02  0.87026737385E+02  0.41800000000E+01 0. -1.
        -11    1    4    4    0    0 -0.21284013960E+02 -0.42349566666E+02  0.20024832299E+03  0.20578116023E+03  0.00000000000E+00 0.  1.
         11    1    4    4    0    0  0.18348586575E+02  0.36825595661E+02  0.21369721050E+03  0.21762190354E+03  0.00000000000E+00 0. -1.
</event>
<event>
 8    1  0.7112384E-009  0.1923330E+03  0.7561462E-02  0.1156374E+00
         -1   -1    0    0    0  501 -0.00000000000E+00  0.00000000000E+00  0.15685841213E+03  0.15685841213E+03  0.00000000000E+00 0.  1.
          1   -1    0    0  501    0  0.00000000000E+00 -0.00000000000E+00 -0.28544452533E+03  0.28544452533E+03  0.00000000000E+00 0. -1.
         25    2    1    2    0    0 -0.15459210147E+03  0.87539975128E+02 -0.85545143931E+02  0.23352039943E+03  0.12510731482E+03 0.  0.
         23    2    1    2    0    0  0.15459210147E+03 -0.87539975128E+02 -0.43040969272E+02  0.20878253803E+03  0.10087446688E+03 0.  0.
          5    1    3    3  502    0 -0.23831535461E+00  0.41442218564E+02  0.14195718171E+02  0.44005739263E+02  0.41800000000E+01 0. -1.
         -5    1    3    3    0  502 -0.15435378611E+03  0.46097756564E+02 -0.99740862101E+02  0.18951466017E+03  0.41800000000E+01 0. -1.
        -11    1    4    4    0    0  0.32156142294E+02 -0.14380049929E+01  0.28401244123E+02  0.42926868198E+02  0.00000000000E+00 0.  1.
         11    1    4    4    0    0  0.12243595917E+03 -0.86101970135E+02 -0.71442213395E+02  0.16585566983E+03  0.00000000000E+00 0. -1.
</event>
<event>
 8    1  0.7112384E-009  0.6270144E+02  0.7561462E-02  0.1386832E+00
         -4   -1    0    0    0  501 -0.00000000000E+00  0.00000000000E+00  0.53107793611E+02  0.53107793611E+02  0.00000000000E+00 0.  1.
          4   -1    0    0  501    0  0.00000000000E+00 -0.00000000000E+00 -0.26428591755E+03  0.26428591755E+03  0.00000000000E+00 0. -1.
         25    2    1    2    0    0 -0.97877342052E+01  0.16350625225E+02 -0.61138137817E+02  0.14053196706E+03  0.12509284226E+03 0.  0.
         23    2    1    2    0    0  0.97877342052E+01 -0.16350625225E+02 -0.15003998612E+03  0.17686174410E+03  0.91678440243E+02 0.  0.
          5    1    3    3  502    0 -0.45860443604E+01  0.37913675066E+02 -0.93494689247E+02  0.10108020517E+03  0.41800000000E+01 0.  1.
         -5    1    3    3    0  502 -0.52016898448E+01 -0.21563049841E+02  0.32356551430E+02  0.39451761889E+02  0.41800000000E+01 0.  1.
        -11    1    4    4    0    0 -0.15821782537E+02 -0.31075777000E+02 -0.13877493275E+02  0.37531553903E+02  0.00000000000E+00 0.  1.
         11    1    4    4    0    0  0.25609516742E+02  0.14725151775E+02 -0.13616249285E+03  0.13933019020E+03  0.00000000000E+00 0. -1.
</event>
<event>
 8    1  0.7112384E-009  0.1069156E+03  0.7561462E-02  0.1266391E+00
          2   -1    0    0  501    0  0.00000000000E+00  0.00000000000E+00  0.26429280054E+03  0.26429280054E+03  0.00000000000E+00 0.  1.
         -2   -1    0    0    0  501 -0.00000000000E+00 -0.00000000000E+00 -0.50421134570E+02  0.50421134570E+02  0.00000000000E+00 0. -1.
         25    2    1    2    0    0 -0.33203239096E+01  0.25453524311E+02  0.81575794587E+02  0.15153168199E+03  0.12509330091E+03 0.  0.
         23    2    1    2    0    0  0.33203239096E+01 -0.25453524311E+02  0.13229587139E+03  0.16318225313E+03  0.92018170484E+02 0.  0.
          5    1    3    3  502    0 -0.56735023329E+02 -0.61288474784E+01  0.66132331966E+02  0.87449318893E+02  0.41800000000E+01 0.  1.
         -5    1    3    3    0  502  0.53414699419E+02  0.31582371789E+02  0.15443462621E+02  0.64082363093E+02  0.41800000000E+01 0.  1.
        -11    1    4    4    0    0  0.43684682010E+02 -0.31152785768E+02  0.87267606486E+02  0.10244258219E+03  0.00000000000E+00 0.  1.
         11    1    4    4    0    0 -0.40364358100E+02  0.56992614570E+01  0.45028264900E+02  0.60739670940E+02  0.00000000000E+00 0. -1.
</event>
<event>
 8    1  0.7112384E-009  0.2321055E+03  0.7561462E-02  0.1125167E+00
          1   -1    0    0  501    0  0.00000000000E+00  0.00000000000E+00  0.12383083452E+04  0.12383083452E+04  0.00000000000E+00 0. -1.
         -1   -1    0    0    0  501 -0.00000000000E+00 -0.00000000000E+00 -0.12851909725E+03  0.12851909725E+03  0.00000000000E+00 0.  1.
         25    2    1    2    0    0  0.21199175893E+03  0.82627467973E+02  0.10919089079E+04  0.11223551361E+04  0.12509270215E+03 0.  0.
         23    2    1    2    0    0 -0.21199175893E+03 -0.82627467973E+02  0.17880340101E+02  0.24447230637E+03  0.87631031617E+02 0.  0.
          5    1    3    3  502    0  0.20328869324E+03  0.88307518952E+02  0.10882081026E+04  0.11105579037E+04  0.41800000000E+01 0. -1.
         -5    1    3    3    0  502  0.87030656866E+01 -0.56800509790E+01  0.37008053260E+01  0.11797232367E+02  0.41800000000E+01 0. -1.
        -11    1    4    4    0    0 -0.58888458426E+02 -0.43765616036E+02  0.42217770391E+02  0.84649984168E+02  0.00000000000E+00 0. -1.
         11    1    4    4    0    0 -0.15310330050E+03 -0.38861851936E+02 -0.24337430291E+02  0.15982232220E+03  0.00000000000E+00 0.  1.
</event>
<event>
 8    1  0.7112384E-009  0.1053382E+03  0.7561462E-02  0.1269455E+00
         -1   -1    0    0    0  501 -0.00000000000E+00  0.00000000000E+00  0.22736995205E+03  0.22736995205E+03  0.00000000000E+00 0.  1.
          1   -1    0    0  501    0  0.00000000000E+00 -0.00000000000E+00 -0.75587691551E+02  0.75587691551E+02  0.00000000000E+00 0. -1.
         25    2    1    2    0    0 -0.52832599053E+02  0.48695928920E+02  0.78050722509E+02  0.16401894525E+03  0.12509085539E+03 0.  0.
         23    2    1    2    0    0  0.52832599053E+02 -0.48695928920E+02  0.73731537990E+02  0.13893869835E+03  0.93300831660E+02 0.  0.
          5    1    3    3  502    0 -0.51078206834E+02  0.83155558058E+02  0.83910172254E+02  0.12877196689E+03  0.41800000000E+01 0.  1.
         -5    1    3    3    0  502 -0.17543922190E+01 -0.34459629137E+02 -0.58594497444E+01  0.35246978362E+02  0.41800000000E+01 0.  1.
        -11    1    4    4    0    0  0.93333696739E+01 -0.29046053102E+02  0.84645058472E+02  0.89975390602E+02  0.00000000000E+00 0.  1.
         11    1    4    4    0    0  0.43499229379E+02 -0.19649875819E+02 -0.10913520482E+02  0.48963307748E+02  0.00000000000E+00 0. -1.
</event>
<event>
 8    1  0.7112384E-009  0.1198080E+03  0.7561462E-02  0.1243414E+00
         -3   -1    0    0    0  501 -0.00000000000E+00  0.00000000000E+00  0.36558716031E+03  0.36558716031E+03  0.00000000000E+00 0.  1.
          3   -1    0    0  501    0  0.00000000000E+00 -0.00000000000E+00 -0.69247281574E+02  0.69247281574E+02  0.00000000000E+00 0. -1.
         25    2    1    2    0    0  0.25207585777E+02 -0.84224618698E+02  0.55415242962E+02  0.16262697629E+03  0.12508986965E+03 0.  0.
         23    2    1    2    0    0 -0.25207585777E+02  0.84224618698E+02  0.24092463578E+03  0.27220746560E+03  0.91230561919E+02 0.  0.
          5    1    3    3  502    0  0.45243005064E+02  0.89680345774E+01  0.48350413688E+02  0.66952147503E+02  0.41800000000E+01 0. -1.
         -5    1    3    3    0  502 -0.20035419287E+02 -0.93192653276E+02  0.70648292740E+01  0.95674828786E+02  0.41800000000E+01 0. -1.
        -11    1    4    4    0    0 -0.68215360798E+01  0.78265791483E+02  0.24035802740E+03  0.25287160538E+03  0.00000000000E+00 0.  1.
         11    1    4    4    0    0 -0.18386049697E+02  0.59588272153E+01  0.56660837199E+00  0.19335860216E+02  0.00000000000E+00 0. -1.
</event>
<event>
 8    1  0.7112384E-009  0.1253852E+03  0.7561462E-02  0.1234469E+00
          2   -1    0    0  501    0  0.00000000000E+00  0.00000000000E+00  0.12316971288E+04  0.12316971288E+04  0.00000000000E+00 0. -1.
         -2   -1    0    0    0  501 -0.00000000000E+00 -0.00000000000E+00 -0.23235282941E+02  0.23235282941E+02  0.00000000000E+00 0.  1.
         25    2    1    2    0    0  0.11438673073E+03  0.29839326648E+01  0.87094559578E+03  0.88729102087E+03  0.12508355963E+03 0.  0.
         23    2    1    2    0    0 -0.11438673073E+03 -0.29839326648E+01  0.33751625008E+03  0.36764139087E+03  0.90275939161E+02 0.  0.
          5    1    3    3  502    0  0.56594153739E+02 -0.24097925256E+02  0.72898147030E+03  0.73158394234E+03  0.41800000000E+01 0. -1.
         -5    1    3    3    0  502  0.57792576992E+02  0.27081857921E+02  0.14196412547E+03  0.15570707853E+03  0.41800000000E+01 0. -1.
        -11    1    4    4    0    0 -0.10963691342E+03 -0.16462896347E+02  0.33533227690E+03  0.35318411017E+03  0.00000000000E+00 0. -1.
         11    1    4    4    0    0 -0.47498173113E+01  0.13478963682E+02  0.21839731722E+01  0.14457280700E+02  0.00000000000E+00 0.  1.
</event>
<event>
 8    1  0.7112384E-009  0.9240578E+02  0.7561462E-02  0.1297128E+00
          1   -1    0    0  501    0  0.00000000000E+00  0.00000000000E+00  0.47064471920E+03  0.47064471920E+03  0.00000000000E+00 0. -1.
         -1   -1    0    0    0  501 -0.00000000000E+00 -0.00000000000E+00 -0.29959339039E+02  0.29959339039E+02  0.00000000000E+00 0.  1.
         25    2    1    2    0    0 -0.29683630313E+02 -0.23467798668E+02  0.18372132341E+03  0.22547005727E+03  0.12510542181E+03 0.  0.
         23    2    1    2    0    0  0.29683630313E+02  0.23467798668E+02  0.25696405675E+03  0.27513400097E+03  0.90754264615E+02 0.  0.
          5    1    3    3  502    0  0.16431039078E+02 -0.43418671699E+02  0.14375399006E+02  0.48777910922E+02  0.41800000000E+01 0.  1.
         -5    1    3    3    0  502 -0.46114669392E+02  0.19950873031E+02  0.16934592440E+03  0.17669214634E+03  0.41800000000E+01 0.  1.
        -11    1    4    4    0    0 -0.22056050070E+02  0.28227843617E+02  0.17080142820E+03  0.17451764488E+03  0.00000000000E+00 0.  1.
         11    1    4    4    0    0  0.51739680384E+02 -0.47600449485E+01  0.86162628555E+02  0.10061635609E+03  0.00000000000E+00 0. -1.
</event>
<event>
 8    1  0.7112384E-009  0.1356328E+03  0.7561462E-02  0.1219329E+00
         -4   -1    0    0    0  501 -0.00000000000E+00  0.00000000000E+00  0.16463718796E+03  0.16463718796E+03  0.00000000000E+00 0.  1.
          4   -1    0    0  501    0  0.00000000000E+00 -0.00000000000E+00 -0.11245457214E+03  0.11245457214E+03  0.00000000000E+00 0. -1.
         25    2    1    2    0    0  0.92386156859E+01  0.84848865097E+02  0.32570648769E+02  0.15489177843E+03  0.12508370772E+03 0.  0.
         23    2    1    2    0    0 -0.92386156859E+01 -0.84848865097E+02  0.19611967050E+02  0.12219998167E+03  0.85226312494E+02 0.  0.
          5    1    3    3  502    0  0.28656614489E+02  0.11296775225E+03  0.29714412368E+02  0.12034672121E+03  0.41800000000E+01 0.  1.
         -5    1    3    3    0  502 -0.19417998803E+02 -0.28118887156E+02  0.28562364001E+01  0.34545057226E+02  0.41800000000E+01 0.  1.
        -11    1    4    4    0    0  0.20524410978E+02  0.85183382642E+01  0.75232750740E+01  0.23460886612E+02  0.00000000000E+00 0.  1.
         11    1    4    4    0    0 -0.29763026664E+02 -0.93367203361E+02  0.12088691976E+02  0.98739095061E+02  0.00000000000E+00 0. -1.
</event>
<event>
 8    1  0.7112384E-009  0.1205822E+03  0.7561462E-02  0.1242140E+00
         -2   -1    0    0    0  501 -0.00000000000E+00  0.00000000000E+00  0.37240197925E+03  0.37240197925E+03  0.00000000000E+00 0.  1.
          2   -1    0    0  501    0  0.00000000000E+00 -0.00000000000E+00 -0.41016928884E+02  0.41016928884E+02  0.00000000000E+00 0. -1.
         25    2    1    2    0    0 -0.35421798088E+02  0.41526211107E+02  0.14520522275E+03  0.19927623685E+03  0.12508929558E+03 0.  0.
         23    2    1    2    0    0  0.35421798088E+02 -0.41526211107E+02  0.18617982761E+03  0.21414267129E+03  0.90636777676E+02 0.  0.
          5    1    3    3  502    0 -0.39645412386E+02  0.84081841489E+02  0.91581890640E+02  0.13056121126E+03  0.41800000000E+01 0.  1.
         -5    1    3    3    0  502  0.42236142984E+01 -0.42555630382E+02  0.53623332115E+02  0.68715025592E+02  0.41800000000E+01 0.  1.
        -11    1    4    4    0    0 -0.63466734585E+01 -0.59379854772E+02  0.93754977817E+02  0.11115864016E+03  0.00000000000E+00 0. -1.
         11    1    4    4    0    0  0.41768471546E+02  0.17853643665E+02  0.92424849795E+02  0.10298403113E+03  0.00000000000E+00 0.  1.
</event>
<event>
 8    1  0.7112384E-009  0.8918285E+02  0.7561462E-02  0.1304843E+00
          1   -1    0    0  501    0  0.00000000000E+00  0.00000000000E+00  0.12202454053E+03  0.12202454053E+03  0.00000000000E+00 0. -1.
         -1   -1    0    0    0  501 -0.00000000000E+00 -0.00000000000E+00 -0.10287931762E+03  0.10287931762E+03  0.00000000000E+00 0.  1.
         25    2    1    2    0    0  0.22959437221E+02  0.14488686421E+02  0.20556103384E+02  0.12964258849E+03  0.12509032566E+03 0.  0.
         23    2    1    2    0    0 -0.22959437221E+02 -0.14488686421E+02 -0.14108804756E+01  0.95261269661E+02  0.91299841851E+02 0.  0.
          5    1    3    3  502    0  0.23237183340E+02 -0.31414464416E+02  0.58135192618E+02  0.70171278205E+02  0.41800000000E+01 0. -1.
         -5    1    3    3    0  502 -0.27774611917E+00  0.45903150837E+02 -0.37579089234E+02  0.59471310288E+02  0.41800000000E+01 0. -1.
        -11    1    4    4    0    0 -0.53247590456E+02  0.98100067707E+01  0.94008886130E+01  0.54953788122E+02  0.00000000000E+00 0. -1.
         11    1    4    4    0    0  0.30288153235E+02 -0.24298693191E+02 -0.10811769089E+02  0.40307481539E+02  0.00000000000E+00 0.  1.
</event>
<event>
 8    1  0.7112384E-009  0.8002430E+02  0.7561462E-02  0.1328982E+00
         -1   -1    0    0    0  501 -0.00000000000E+00  0.00000000000E+00  0.11929599127E+03  0.11929599127E+03  0.00000000000E+00 0.  1.
          1   -1    0    0  501    0  0.00000000000E+00 -0.00000000000E+00 -0.11724121718E+03  0.11724121718E+03  0.00000000000E+00 0. -1.
         25    2    1    2    0    0 -0.29320410873E+02  0.27566588055E+02 -0.15590780122E+02  0.13232101390E+03  0.12508467142E+03 0.  0.
         23    2    1    2    0    0  0.29320410873E+02 -0.27566588055E+02  0.17645554218E+02  0.10421619455E+03  0.94498922491E+02 0.  0.
          5    1    3    3  502    0 -0.35926686866E+02  0.42138544684E+02  0.43764678823E+02  0.70705044302E+02  0.41800000000E+01 0.  1.
         -5    1    3    3    0  502  0.66062759928E+01 -0.14571956629E+02 -0.59355458945E+02  0.61615969595E+02  0.41800000000E+01 0.  1.
        -11    1    4    4    0    0  0.19966962701E+02 -0.55256065936E+02  0.36749657261E+02  0.69299709459E+02  0.00000000000E+00 0.  1.
         11    1    4    4    0    0  0.93534481727E+01  0.27689477881E+02 -0.19104103042E+02  0.34916485091E+02  0.00000000000E+00 0. -1.
</event>
<event>
 8    1  0.7112384E-009  0.1157106E+03  0.7561462E-02  0.1250346E+00
          1   -1    0    0  501    0  0.00000000000E+00  0.00000000000E+00  0.23639759797E+03  0.23639759797E+03  0.00000000000E+00 0. -1.
         -1   -1    0    0    0  501 -0.00000000000E+00 -0.00000000000E+00 -0.81719352120E+02  0.81719352120E+02  0.00000000000E+00 0.  1.
         25    2    1    2    0    0 -0.32966181913E+02  0.50543132244E+02  0.15557030331E+03  0.20854497210E+03  0.12509000260E+03 0.  0.
         23    2    1    2    0    0  0.32966181913E+02 -0.50543132244E+02 -0.89205746616E+00  0.10957197799E+03  0.91454060741E+02 0.  0.
          5    1    3    3  502    0 -0.88225836024E+01  0.82691302554E+02  0.14426901256E+03  0.16657343691E+03  0.41800000000E+01 0.  1.
         -5    1    3    3    0  502 -0.24143598310E+02 -0.32148170310E+02  0.11301290754E+02  0.41971535192E+02  0.41800000000E+01 0.  1.
        -11    1    4    4    0    0 -0.26824503152E+02 -0.38208388162E+02 -0.10284822273E+02  0.47803895914E+02  0.00000000000E+00 0.  1.
         11    1    4    4    0    0  0.59790685065E+02 -0.12334744082E+02  0.93927648072E+01  0.61768082071E+02  0.00000000000E+00 0. -1.
</event>
<event>
 8    1  0.7112384E-009  0.1374009E+03  0.7561462E-02  0.1216870E+00
          1   -1    0    0  501    0  0.00000000000E+00  0.00000000000E+00  0.12942093617E+04  0.12942093617E+04  0.00000000000E+00 0. -1.
         -1   -1    0    0    0  501 -0.00000000000E+00 -0.00000000000E+00 -0.16160517185E+02  0.16160517185E+02  0.00000000000E+00 0.  1.
         25    2    1    2    0    0  0.89408062332E+02  0.29576112223E+02  0.62516398807E+03  0.64447344226E+03  0.12508979885E+03 0.  0.
         23    2    1    2    0    0 -0.89408062332E+02 -0.29576112223E+02  0.65288485647E+03  0.66589643665E+03  0.91054272337E+02 0.  0.
          5    1    3    3  502    0  0.70363419315E+02  0.74965359815E+02  0.34617329651E+03  0.36114296278E+03  0.41800000000E+01 0.  1.
         -5    1    3    3    0  502  0.19044643017E+02 -0.45389247592E+02  0.27899069156E+03  0.28333047948E+03  0.41800000000E+01 0.  1.
        -11    1    4    4    0    0  0.14732520272E+02 -0.32779358501E+01  0.27634957604E+02  0.31487821436E+02  0.00000000000E+00 0.  1.
         11    1    4    4    0    0 -0.10414058260E+03 -0.26298176373E+02  0.62524989886E+03  0.63440861521E+03  0.00000000000E+00 0. -1.
</event>
<event>
 8    1  0.7112384E-009  0.1239424E+03  0.7561462E-02  0.1236731E+00
         -2   -1    0    0    0  501 -0.00000000000E+00  0.00000000000E+00  0.30159455075E+02  0.30159455075E+02  0.00000000000E+00 0.  1.
          2   -1    0    0  501    0  0.00000000000E+00 -0.00000000000E+00 -0.81928210432E+03  0.81928210432E+03  0.00000000000E+00 0. -1.
         25    2    1    2    0    0  0.87370368658E+02 -0.61531531696E+02 -0.51730353731E+03  0.54283551175E+03  0.12509089653E+03 0.  0.
         23    2    1    2    0    0 -0.87370368658E+02  0.61531531696E+02 -0.27181911194E+03  0.30660604765E+03  0.93284125800E+02 0.  0.
          5    1    3    3  502    0  0.23022662866E+02 -0.38288212213E+02 -0.42756719678E+03  0.42991535256E+03  0.41800000000E+01 0. -1.
         -5    1    3    3    0  502  0.64347705792E+02 -0.23243319483E+02 -0.89736340526E+02  0.11292015919E+03  0.41800000000E+01 0. -1.
        -11    1    4    4    0    0 -0.62671463639E+02 -0.56157243195E+01 -0.17679917295E+03  0.18766245301E+03  0.00000000000E+00 0. -1.
         11    1    4    4    0    0 -0.24698905020E+02  0.67147256016E+02 -0.95019938991E+02  0.11894359464E+03  0.00000000000E+00 0.  1.
</event>
<event>
 8    1  0.7112384E-009  0.1664910E+03  0.7561462E-02  0.1181557E+00
         -1   -1    0    0    0  501 -0.00000000000E+00  0.00000000000E+00  0.18610588104E+03  0.18610588104E+03  0.00000000000E+00 0.  1.
          1   -1    0    0  501    0  0.00000000000E+00 -0.00000000000E+00 -0.22523019819E+03  0.22523019819E+03  0.00000000000E+00 0. -1.
         25    2    1    2    0    0 -0.15901463323E+03  0.27120274506E+01  0.48263338706E+02  0.20801644414E+03  0.12509389472E+03 0.  0.
         23    2    1    2    0    0  0.15901463323E+03 -0.27120274506E+01 -0.87387655851E+02  0.20331963508E+03  0.91702033464E+02 0.  0.
          5    1    3    3  502    0 -0.80701364721E+02  0.18534112526E+02 -0.37268537590E+02  0.90899064291E+02  0.41800000000E+01 0.  1.
         -5    1    3    3    0  502 -0.78313268508E+02 -0.15822085075E+02  0.85531876297E+02  0.11711737985E+03  0.41800000000E+01 0.  1.
        -11    1    4    4    0    0  0.43637828121E+02  0.26497442498E+02  0.68516578785E+01  0.51510384562E+02  0.00000000000E+00 0.  1.
         11    1    4    4    0    0  0.11537680511E+03 -0.29209469948E+02 -0.94239313729E+02  0.15180925052E+03  0.00000000000E+00 0. -1.
</event>
<event>
 8    1  0.7112384E-009  0.1738236E+03  0.7561462E-02  0.1173918E+00
          1   -1    0    0  501    0  0.00000000000E+00  0.00000000000E+00  0.32055907900E+03  0.32055907900E+03  0.00000000000E+00 0. -1.
         -1   -1    0    0    0  501 -0.00000000000E+00 -0.00000000000E+00 -0.11563309752E+03  0.11563309752E+03  0.00000000000E+00 0.  1.
         25    2    1    2    0    0 -0.13593340850E+03 -0.68385717565E+02  0.15740626821E+03  0.25214836720E+03  0.12509023901E+03 0.  0.
         23    2    1    2    0    0  0.13593340850E+03  0.68385717565E+02  0.47519713269E+02  0.18404380932E+03  0.91975554821E+02 0.  0.
          5    1    3    3  502    0 -0.36387288150E+02  0.20412292743E+02  0.96956722879E+02  0.10563510281E+03  0.41800000000E+01 0. -1.
         -5    1    3    3    0  502 -0.99546120354E+02 -0.88798010308E+02  0.60449545327E+02  0.14651326439E+03  0.41800000000E+01 0. -1.
        -11    1    4    4    0    0  0.12293729086E+02  0.44709546944E+02  0.33865922735E+02  0.57419335467E+02  0.00000000000E+00 0. -1.
         11    1    4    4    0    0  0.12363967942E+03  0.23676170620E+02  0.13653790534E+02  0.12662447385E+03  0.00000000000E+00 0.  1.
</event>
<event>
 8    1  0.7112384E-009  0.1375734E+03  0.7561462E-02  0.1216632E+00
         -1   -1    0    0    0  501 -0.00000000000E+00  0.00000000000E+00  0.24901377134E+02  0.24901377134E+02  0.00000000000E+00 0.  1.
          1   -1    0    0  501    0  0.00000000000E+00 -0.00000000000E+00 -0.97952699084E+03  0.97952699084E+03  0.00000000000E+00 0. -1.
         25    2    1    2    0    0 -0.10885990237E+03  0.23905968481E+02 -0.48461402839E+03  0.51275813767E+03  0.12509267588E+03 0.  0.
         23    2    1    2    0    0  0.10885990237E+03 -0.23905968481E+02 -0.47001158532E+03  0.49167023031E+03  0.91688338213E+02 0.  0.
          5    1    3    3  502    0 -0.71597949229E+01 -0.20888220735E+02 -0.88222111057E+01  0.24142995622E+02  0.41800000000E+01 0. -1.
         -5    1    3    3    0  502 -0.10170010745E+03  0.44794189216E+02 -0.47579181728E+03  0.48861514204E+03  0.41800000000E+01 0. -1.
        -11    1    4    4    0    0  0.12067209502E+03 -0.70418869501E+01 -0.36009126859E+03  0.37983820820E+03  0.00000000000E+00 0.  1.
         11    1    4    4    0    0 -0.11812192645E+02 -0.16864081531E+02 -0.10992031673E+03  0.11183202212E+03  0.00000000000E+00 0. -1.
</event>
<event>
 8    1  0.7112384E-009  0.8533870E+02  0.7561462E-02  0.1314549E+00
          2   -1    0    0  501    0  0.00000000000E+00  0.00000000000E+00  0.75109097374E+02  0.75109097374E+02  0.00000000000E+00 0. -1.
         -2   -1    0    0    0  501 -0.00000000000E+00 -0.00000000000E+00 -0.22512720518E+03  0.22512720518E+03  0.00000000000E+00 0.  1.
         25    2    1    2    0    0  0.43532644426E+02  0.50983204082E+02 -0.11252726961E+03  0.18111211735E+03  0.12507931250E+03 0.  0.
         23    2    1    2    0    0 -0.43532644426E+02 -0.50983204082E+02 -0.37490838196E+02  0.11912418520E+03  0.91052898484E+02 0.  0.
          5    1    3    3  502    0  0.47393362237E+02  0.64258386486E+01 -0.12548985001E+03  0.13435995326E+03  0.41800000000E+01 0.  1.
         -5    1    3    3    0  502 -0.38607178111E+01  0.44557365433E+02  0.12962580396E+02  0.46752164088E+02  0.41800000000E+01 0.  1.
        -11    1    4    4    0    0 -0.49912326518E+02 -0.36230065481E+02 -0.63517453813E+02  0.88534314941E+02  0.00000000000E+00 0.  1.
         11    1    4    4    0    0  0.63796820918E+01 -0.14753138601E+02  0.26026615617E+02  0.30589870262E+02  0.00000000000E+00 0. -1.
</event>
<event>
 8    1  0.7112384E-009  0.1275505E+03  0.7561462E-02  0.1231136E+00
         -2   -1    0    0    0  501 -0.00000000000E+00  0.00000000000E+00  0.48437158366E+03  0.48437158366E+03  0.00000000000E+00 0.  1.
          2   -1    0    0  501    0  0.00000000000E+00 -0.00000000000E+00 -0.41712938873E+02  0.41712938873E+02  0.00000000000E+00 0. -1.
         25    2    1    2    0    0  0.22609854264E+01 -0.86454139202E+02  0.18207696144E+03  0.23723198089E+03  0.12509021796E+03 0.  0.
         23    2    1    2    0    0 -0.22609854264E+01  0.86454139202E+02  0.26058168335E+03  0.28885254165E+03  0.89741556029E+02 0.  0.
          5    1    3    3  502    0 -0.49537968421E+02 -0.75061586589E+02  0.73133998326E+02  0.11599269894E+03  0.41800000000E+01 0. -1.
         -5    1    3    3    0  502  0.51798953848E+02 -0.11392552614E+02  0.10894296311E+03  0.12123928195E+03  0.41800000000E+01 0. -1.
        -11    1    4    4    0    0  0.34132469086E+02  0.48265976695E+02  0.19984619233E+03  0.20840616723E+03  0.00000000000E+00 0.  1.
         11    1    4    4    0    0 -0.36393454513E+02  0.38188162508E+02  0.60735491026E+02  0.80446374419E+02  0.00000000000E+00 0. -1.
</event>
<event>
 8    1  0.7112384E-009  0.1232081E+03  0.7561462E-02  0.1237897E+00
          3   -1    0    0  501    0  0.00000000000E+00  0.00000000000E+00  0.10130658788E+03  0.10130658788E+03  0.00000000000E+00 0. -1.
         -3   -1    0    0    0  501 -0.00000000000E+00 -0.00000000000E+00 -0.17263062033E+03  0.17263062033E+03  0.00000000000E+00 0.  1.
         25    2    1    2    0    0 -0.52658791041E+02  0.30170192962E+02 -0.79381196529E+02  0.16009977105E+03  0.12508946202E+03 0.  0.
         23    2    1    2    0    0  0.52658791041E+02 -0.30170192962E+02  0.80571640773E+01  0.11383743716E+03  0.95973201410E+02 0.  0.
          5    1    3    3  502    0  0.24459758486E+02 -0.31571917760E+02 -0.22835671654E+02  0.46195303615E+02  0.41800000000E+01 0.  1.
         -5    1    3    3    0  502 -0.77118549526E+02  0.61742110721E+02 -0.56545524876E+02  0.11390446743E+03  0.41800000000E+01 0.  1.
        -11    1    4    4    0    0  0.79287257110E+00  0.28821280394E+02 -0.14278134254E+02  0.32173901974E+02  0.00000000000E+00 0.  1.
         11    1    4    4    0    0  0.51865918470E+02 -0.58991473356E+02  0.22335298331E+02  0.81663535185E+02  0.00000000000E+00 0. -1.
</event>
<event>
 8    1  0.7112384E-009  0.1080407E+03  0.7561462E-02  0.1264242E+00
          2   -1    0    0  501    0  0.00000000000E+00  0.00000000000E+00  0.14234430272E+04  0.14234430272E+04  0.00000000000E+00 0. -1.
         -2   -1    0    0    0  501 -0.00000000000E+00 -0.00000000000E+00 -0.15515635938E+02  0.15515635938E+02  0.00000000000E+00 0.  1.
         25    2    1    2    0    0 -0.35504985626E+01 -0.85959722736E+02  0.10296595600E+04  0.10407922820E+04  0.12509230528E+03 0.  0.
         23    2    1    2    0    0  0.35504985626E+01  0.85959722736E+02  0.37826783122E+03  0.39816638107E+03  0.89711955220E+02 0.  0.
          5    1    3    3  502    0  0.41682090709E+02 -0.53944536818E+02  0.25022204320E+03  0.25937608418E+03  0.41800000000E+01 0. -1.
         -5    1    3    3    0  502 -0.45232589271E+02 -0.32015185918E+02  0.77943751679E+03  0.78141619784E+03  0.41800000000E+01 0. -1.
        -11    1    4    4    0    0 -0.12507982038E+02  0.62748371657E+02  0.35735620716E+03  0.36303893256E+03  0.00000000000E+00 0. -1.
         11    1    4    4    0    0  0.16058480601E+02  0.23211351079E+02  0.20911624058E+02  0.35127448511E+02  0.00000000000E+00 0.  1.
</event>
<event>
 8    1  0.7112384E-009  0.2075357E+03  0.7561462E-02  0.1143532E+00
         -2   -1    0    0    0  501 -0.00000000000E+00  0.00000000000E+00  0.42163668134E+02  0.42163668134E+02  0.00000000000E+00 0.  1.
          2   -1    0    0  501    0  0.00000000000E+00 -0.00000000000E+00 -0.11797204875E+04  0.11797204875E+04  0.00000000000E+00 0. -1.
         25    2    1    2    0    0 -0.17881916832E+03 -0.45286081291E+02 -0.75344287090E+03  0.78571647094E+03  0.12508832428E+03 0.  0.
         23    2    1    2    0    0  0.17881916832E+03  0.45286081291E+02 -0.38411394846E+03  0.43616768470E+03  0.93121424243E+02 0.  0.
          5    1    3    3  502    0 -0.11127899300E+03  0.23381643611E+02 -0.53466591555E+03  0.54663957887E+03  0.41800000000E+01 0. -1.
         -5    1    3    3    0  502 -0.67540175319E+02 -0.68667724902E+02 -0.21877695536E+03  0.23907689207E+03  0.41800000000E+01 0. -1.
        -11    1    4    4    0    0  0.11331112309E+03  0.71870068558E+02 -0.22354337635E+03  0.26072276172E+03  0.00000000000E+00 0.  1.
         11    1    4    4    0    0  0.65508045229E+02 -0.26583987266E+02 -0.16057057212E+03  0.17544492298E+03  0.00000000000E+00 0. -1.
</event>
<event>
 8    1  0.7112384E-009  0.1436156E+03  0.7561462E-02  0.1208545E+00
          1   -1    0    0  501    0  0.00000000000E+00  0.00000000000E+00  0.85564424423E+03  0.85564424423E+03  0.00000000000E+00 0. -1.
         -1   -1    0    0    0  501 -0.00000000000E+00 -0.00000000000E+00 -0.27823861629E+02  0.27823861629E+02  0.00000000000E+00 0.  1.
         25    2    1    2    0    0 -0.98949189585E+02 -0.16059770195E+01  0.58193777127E+03  0.60340058681E+03  0.12508867754E+03 0.  0.
         23    2    1    2    0    0  0.98949189585E+02  0.16059770195E+01  0.24588261133E+03  0.28006751905E+03  0.90476711866E+02 0.  0.
          5    1    3    3  502    0  0.22705211104E+02  0.19825028017E+02  0.19043372961E+03  0.19284977605E+03  0.41800000000E+01 0. -1.
         -5    1    3    3    0  502 -0.12165440069E+03 -0.21431005037E+02  0.39150404166E+03  0.41055081076E+03  0.41800000000E+01 0. -1.
        -11    1    4    4    0    0  0.43683892798E+02 -0.43662665103E+02  0.98101879339E+02  0.11592536195E+03  0.00000000000E+00 0.  1.
         11    1    4    4    0    0  0.55265296787E+02  0.45268642122E+02  0.14778073199E+03  0.16414215710E+03  0.00000000000E+00 0. -1.
</event>
<event>
 8    1  0.7112384E-009  0.2655108E+03  0.7561462E-02  0.1103877E+00
         -3   -1    0    0    0  501 -0.00000000000E+00  0.00000000000E+00  0.15732957933E+03  0.15732957933E+03  0.00000000000E+00 0.  1.
          3   -1    0    0  501    0  0.00000000000E+00 -0.00000000000E+00 -0.51866871840E+03  0.51866871840E+03  0.00000000000E+00 0. -1.
         25    2    1    2    0    0  0.23211387377E+03 -0.11211420504E+03 -0.11931654883E+03  0.31037142625E+03  0.12509011967E+03 0.  0.
         23    2    1    2    0    0 -0.23211387377E+03  0.11211420504E+03 -0.24202259024E+03  0.36562687148E+03  0.93067876290E+02 0.  0.
          5    1    3    3  502    0  0.64706622947E+02 -0.32596119142E+02 -0.10060473974E+03  0.12404934540E+03  0.41800000000E+01 0.  1.
         -5    1    3    3    0  502  0.16740725082E+03 -0.79518085900E+02 -0.18711809088E+02  0.18632208085E+03  0.41800000000E+01 0.  1.
        -11    1    4    4    0    0 -0.50650742317E+02  0.70645279993E+02 -0.91837599864E+02  0.12645314560E+03  0.00000000000E+00 0.  1.
         11    1    4    4    0    0 -0.18146313145E+03  0.41468925049E+02 -0.15018499037E+03  0.23917372589E+03  0.00000000000E+00 0. -1.
</event>
<event>
 8    1  0.7112384E-009  0.1246020E+03  0.7561462E-02  0.1235693E+00
         -1   -1    0    0    0  501 -0.00000000000E+00  0.00000000000E+00  0.43895335101E+02  0.43895335101E+02  0.00000000000E+00 0.  1.
          1   -1    0    0  501    0  0.00000000000E+00 -0.00000000000E+00 -0.38627830626E+03  0.38627830626E+03  0.00000000000E+00 0. -1.
         25    2    1    2    0    0 -0.12415782666E+02 -0.71545269934E+02 -0.18056355251E+03  0.23135078690E+03  0.12508841991E+03 0.  0.
         23    2    1    2    0    0  0.12415782666E+02  0.71545269934E+02 -0.16181941865E+03  0.19882285446E+03  0.89845010410E+02 0.  0.
          5    1    3    3  502    0 -0.38069260945E+02 -0.94832131893E+02 -0.16262799961E+03  0.19211387385E+03  0.41800000000E+01 0.  1.
         -5    1    3    3    0  502  0.25653478279E+02  0.23286861959E+02 -0.17935552897E+02  0.39236913047E+02  0.41800000000E+01 0.  1.
        -11    1    4    4    0    0  0.28652876722E+02 -0.88701579476E+01 -0.67202962182E+02  0.73592833704E+02  0.00000000000E+00 0. -1.
         11    1    4    4    0    0 -0.16237094057E+02  0.80415427882E+02 -0.94616456464E+02  0.12523002076E+03  0.00000000000E+00 0.  1.
</event>
<event>
 8    1  0.7112384E-009  0.1270072E+03  0.7561462E-02  0.1231965E+00
          1   -1    0    0  501    0  0.00000000000E+00  0.00000000000E+00  0.31107788755E+03  0.31107788755E+03  0.00000000000E+00 0. -1.
         -1   -1    0    0    0  501 -0.00000000000E+00 -0.00000000000E+00 -0.11174021366E+03  0.11174021366E+03  0.00000000000E+00 0.  1.
         25    2    1    2    0    0 -0.28244526074E+02 -0.91679535212E+02 -0.26734471872E+02  0.15989079080E+03  0.12508973806E+03 0.  0.
         23    2    1    2    0    0  0.28244526074E+02  0.91679535212E+02  0.22607214576E+03  0.26292731041E+03  0.93910942067E+02 0.  0.
          5    1    3    3  502    0 -0.39783582855E+02 -0.10468092526E+02  0.37344934812E+02  0.55717420813E+02  0.41800000000E+01 0.  1.
         -5    1    3    3    0  502  0.11539056781E+02 -0.81211442686E+02 -0.64079406684E+02  0.10417336999E+03  0.41800000000E+01 0.  1.
        -11    1    4    4    0    0 -0.68402596922E+01 -0.15935397140E+02  0.13059383735E+02  0.21708835487E+02  0.00000000000E+00 0.  1.
         11    1    4    4    0    0  0.35084785766E+02  0.10761493235E+03  0.21301276203E+03  0.24121847492E+03  0.00000000000E+00 0. -1.
</event>
<event>
 8    1  0.7112384E-009  0.7255108E+02  0.7561462E-02  0.1351627E+00
         -2   -1    0    0    0  501 -0.00000000000E+00  0.00000000000E+00  0.16163253990E+02  0.16163253990E+02  0.00000000000E+00 0.  1.
          2   -1    0    0  501    0  0.00000000000E+00 -0.00000000000E+00 -0.87025749279E+03  0.87025749279E+03  0.00000000000E+00 0. -1.
         25    2    1    2    0    0 -0.43067170638E+02  0.24689084987E+01 -0.56563346022E+03  0.58090276292E+03  0.12508369979E+03 0.  0.
         23    2    1    2    0    0  0.43067170638E+02 -0.24689084987E+01 -0.28846077858E+03  0.30551798386E+03  0.90943614324E+02 0.  0.
          5    1    3    3  502    0  0.13661515735E+01  0.18879898666E+02 -0.75602133364E+01  0.20807358541E+02  0.41800000000E+01 0. -1.
         -5    1    3    3    0  502 -0.44433322211E+02 -0.16410990168E+02 -0.55807324688E+03  0.56009540438E+03  0.41800000000E+01 0. -1.
        -11    1    4    4    0    0 -0.14478589344E+01 -0.27202415825E+02 -0.24334371188E+02  0.36527104228E+02  0.00000000000E+00 0.  1.
         11    1    4    4    0    0  0.44515029572E+02  0.24733507326E+02 -0.26412640739E+03  0.26899087963E+03  0.00000000000E+00 0. -1.
</event>
<event>
 8    1  0.7112384E-009  0.9640019E+02  0.7561462E-02  0.1288053E+00
          1   -1    0    0  501    0  0.00000000000E+00  0.00000000000E+00  0.57002531535E+03  0.57002531535E+03  0.00000000000E+00 0. -1.
         -1   -1    0    0    0  501 -0.00000000000E+00 -0.00000000000E+00 -0.39080289780E+02  0.39080289780E+02  0.00000000000E+00 0.  1.
         25    2    1    2    0    0  0.45933147430E+02 -0.25374916386E+02  0.46463300458E+03  0.48403007152E+03  0.12509013062E+03 0.  0.
         23    2    1    2    0    0 -0.45933147430E+02  0.25374916386E+02  0.66312020994E+02  0.12507553361E+03  0.92156739119E+02 0.  0.
          5    1    3    3  502    0  0.65261652373E+02 -0.29776484329E+01  0.10902197872E+03  0.12716608788E+03  0.41800000000E+01 0. -1.
         -5    1    3    3    0  502 -0.19328504942E+02 -0.22397267954E+02  0.35561102586E+03  0.35686398365E+03  0.41800000000E+01 0. -1.
        -11    1    4    4    0    0 -0.69979528394E+02  0.20538143700E+02  0.25124057146E+02  0.77137332002E+02  0.00000000000E+00 0.  1.
         11    1    4    4    0    0  0.24046380964E+02  0.48367726863E+01  0.41187963848E+02  0.47938201608E+02  0.00000000000E+00 0. -1.
</event>
<event>
 8    1  0.7112384E-009  0.1128449E+03  0.7561462E-02  0.1255390E+00
          2   -1    0    0  501    0  0.00000000000E+00  0.00000000000E+00  0.45205787130E+03  0.45205787130E+03  0.00000000000E+00 0.  1.
         -2   -1    0    0    0  501 -0.00000000000E+00 -0.00000000000E+00 -0.29081139233E+02  0.29081139233E+02  0.00000000000E+00 0. -1.
         25    2    1    2    0    0 -0.24850209356E+02  0.11222975698E+02  0.25174978751E+03  0.28243296968E+03  0.12508772427E+03 0.  0.
         23    2    1    2    0    0  0.24850209356E+02 -0.11222975698E+02  0.17122694456E+03  0.19870604085E+03  0.97066657712E+02 0.  0.
          5    1    3    3  502    0  0.35486565183E+02  0.44525232092E+02  0.90216925503E+02  0.10676309591E+03  0.41800000000E+01 0. -1.
         -5    1    3    3    0  502 -0.60336774539E+02 -0.33302256394E+02  0.16153286201E+03  0.17566987377E+03  0.41800000000E+01 0. -1.
        -11    1    4    4    0    0  0.27203704985E+02  0.39948043718E+02  0.98885310394E+02  0.11006449188E+03  0.00000000000E+00 0. -1.
         11    1    4    4    0    0 -0.23534956293E+01 -0.51171019416E+02  0.72341634162E+02  0.88641548965E+02  0.00000000000E+00 0.  1.
</event>
<event>
 8    1  0.7112384E-009  0.1328278E+03  0.7561462E-02  0.1223319E+00
         -2   -1    0    0    0  501 -0.00000000000E+00  0.00000000000E+00  0.42749286791E+03  0.42749286791E+03  0.00000000000E+00 0.  1.
          2   -1    0    0  501    0  0.00000000000E+00 -0.00000000000E+00 -0.63493931913E+02  0.63493931913E+02  0.00000000000E+00 0. -1.
         25    2    1    2    0    0 -0.99039341021E+02  0.21967406090E+02  0.87996408322E+02  0.18352659274E+03  0.12508910569E+03 0.  0.
         23    2    1    2    0    0  0.99039341021E+02 -0.21967406090E+02  0.27600252768E+03  0.30746020709E+03  0.89794352043E+02 0.  0.
          5    1    3    3  502    0 -0.57564490376E+02  0.74061323417E+02  0.44712165913E+02  0.10399711707E+03  0.41800000000E+01 0. -1.
         -5    1    3    3    0  502 -0.41474850645E+02 -0.52093917327E+02  0.43284242409E+02  0.79529475664E+02  0.41800000000E+01 0. -1.
        -11    1    4    4    0    0  0.33740869745E+02 -0.20988631145E+02  0.21314903401E+03  0.21682130806E+03  0.00000000000E+00 0.  1.
         11    1    4    4    0    0  0.65298471275E+02 -0.97877494455E+00  0.62853493666E+02  0.90638899030E+02  0.00000000000E+00 0. -1.
</event>
<event>
 8    1  0.7112384E-009  0.9989489E+02  0.7561462E-02  0.1280517E+00
         -2   -1    0    0    0  501 -0.00000000000E+00  0.00000000000E+00  0.25066519410E+03  0.25066519410E+03  0.00000000000E+00 0.  1.
          2   -1    0    0  501    0  0.00000000000E+00 -0.00000000000E+00 -0.10481534374E+03  0.10481534374E+03  0.00000000000E+00 0. -1.
         25    2    1    2    0    0 -0.50671602808E+02  0.57478725535E+02  0.17886018664E+03  0.23132781494E+03  0.12510066500E+03 0.  0.
         23    2    1    2    0    0  0.50671602808E+02 -0.57478725535E+02 -0.33010336266E+02  0.12415272290E+03  0.91939116169E+02 0.  0.
          5    1    3    3  502    0 -0.50188335926E+01 -0.30418458645E+00 -0.19038628034E+02  0.20130150926E+02  0.41800000000E+01 0. -1.
         -5    1    3    3    0  502 -0.45652769215E+02  0.57782910121E+02  0.19789881467E+03  0.21119766402E+03  0.41800000000E+01 0. -1.
        -11    1    4    4    0    0 -0.26808124570E+02 -0.99487015778E+01 -0.49222549467E+01  0.29015182230E+02  0.00000000000E+00 0.  1.
         11    1    4    4    0    0  0.77479727378E+02 -0.47530023957E+02 -0.28088081319E+02  0.95137540667E+02  0.00000000000E+00 0. -1.
</event>
<event>
 8    1  0.7112384E-009  0.1066089E+03  0.7561462E-02  0.1266982E+00
         -2   -1    0    0    0  501 -0.00000000000E+00  0.00000000000E+00  0.49818845510E+03  0.49818845510E+03  0.00000000000E+00 0.  1.
          2   -1    0    0  501    0  0.00000000000E+00 -0.00000000000E+00 -0.32335276784E+02  0.32335276784E+02  0.00000000000E+00 0. -1.
         25    2    1    2    0    0  0.31349080652E+02 -0.51766969881E+02  0.32552449267E+03  0.35394429447E+03  0.12509110375E+03 0.  0.
         23    2    1    2    0    0 -0.31349080652E+02  0.51766969881E+02  0.14032868565E+03  0.17657943741E+03  0.88462272584E+02 0.  0.
          5    1    3    3  502    0 -0.12552481697E+02 -0.82482180329E+02  0.17041667358E+03  0.18978985721E+03  0.41800000000E+01 0.  1.
         -5    1    3    3    0  502  0.43901562348E+02  0.30715210448E+02  0.15510781909E+03  0.16415443726E+03  0.41800000000E+01 0.  1.
        -11    1    4    4    0    0 -0.73847922933E+01  0.51445079370E+02  0.23010892273E+02  0.56838653325E+02  0.00000000000E+00 0. -1.
         11    1    4    4    0    0 -0.23964288358E+02  0.32189051054E+00  0.11731779337E+03  0.11974078408E+03  0.00000000000E+00 0.  1.
</event>
<event>
 8    1  0.7112384E-009  0.1004155E+03  0.7561462E-02  0.1279425E+00
          3   -1    0    0  501    0  0.00000000000E+00  0.00000000000E+00  0.18787801611E+03  0.18787801611E+03  0.00000000000E+00 0. -1.
         -3   -1    0    0    0  501 -0.00000000000E+00 -0.00000000000E+00 -0.66524814009E+02  0.66524814009E+02  0.00000000000E+00 0.  1.
         25    2    1    2    0    0 -0.21322756131E+02  0.23272605205E+01  0.64763506813E+02  0.14248405922E+03  0.12508924513E+03 0.  0.
         23    2    1    2    0    0  0.21322756131E+02 -0.23272605205E+01  0.56589695287E+02  0.11191877090E+03  0.94145321688E+02 0.  0.
          5    1    3    3  502    0 -0.11835669679E+02 -0.51182152161E+02  0.70121883076E+02  0.87716855066E+02  0.41800000000E+01 0.  1.
         -5    1    3    3    0  502 -0.94870864520E+01  0.53509412681E+02 -0.53583762628E+01  0.54767204156E+02  0.41800000000E+01 0.  1.
        -11    1    4    4    0    0 -0.23133168154E+02  0.30560752155E+02  0.36941257861E+02  0.53233068421E+02  0.00000000000E+00 0.  1.
         11    1    4    4    0    0  0.44455924286E+02 -0.32888012675E+02  0.19648437426E+02  0.58685702476E+02  0.00000000000E+00 0. -1.
</event>
<event>
 8    1  0.7112384E-009  0.2484826E+03  0.7561462E-02  0.1114268E+00
          2   -1    0    0  501    0  0.00000000000E+00  0.00000000000E+00  0.47469533177E+03  0.47469533177E+03  0.00000000000E+00 0. -1.
         -2   -1    0    0    0  501 -0.00000000000E+00 -0.00000000000E+00 -0.16954652530E+03  0.16954652530E+03  0.00000000000E+00 0.  1.
         25    2    1    2    0    0  0.20256421422E+03 -0.14060707456E+03  0.61467611579E+02  0.28324596412E+03  0.12508956238E+03 0.  0.
         23    2    1    2    0    0 -0.20256421422E+03  0.14060707456E+03  0.24368119489E+03  0.36099589295E+03  0.10067223887E+03 0.  0.
          5    1    3    3  502    0  0.17674864990E+03 -0.12835818720E+03  0.95648124039E+02  0.23849936163E+03  0.41800000000E+01 0.  1.
         -5    1    3    3    0  502  0.25815564317E+02 -0.12248887363E+02 -0.34180512461E+02  0.44746602493E+02  0.41800000000E+01 0.  1.
        -11    1    4    4    0    0 -0.18587312383E+03  0.11353994664E+03  0.24665493765E+03  0.32905743558E+03  0.00000000000E+00 0. -1.
         11    1    4    4    0    0 -0.16691090393E+02  0.27067127929E+02 -0.29737427581E+01  0.31938457364E+02  0.00000000000E+00 0.  1.
</event>
<event>
 8    1  0.7112384E-009  0.7401601E+02  0.7561462E-02  0.1346945E+00
          1   -1    0    0  501    0  0.00000000000E+00  0.00000000000E+00  0.16761504707E+03  0.16761504707E+03  0.00000000000E+00 0. -1.
         -1   -1    0    0    0  501 -0.00000000000E+00 -0.00000000000E+00 -0.73305921792E+02  0.73305921792E+02  0.00000000000E+00 0.  1.
         25    2    1    2    0    0 -0.14707366032E+02 -0.10328158970E+02  0.71967772503E+02  0.14543217458E+03  0.12509268421E+03 0.  0.
         23    2    1    2    0    0  0.14707366032E+02  0.10328158970E+02  0.22341352778E+02  0.95488794280E+02  0.91082360014E+02 0.  0.
          5    1    3    3  502    0  0.47451034070E+01  0.31090333057E+02 -0.23499781625E+02  0.39482109270E+02  0.41800000000E+01 0.  1.
         -5    1    3    3    0  502 -0.19452469439E+02 -0.41418492027E+02  0.95467554128E+02  0.10595006531E+03  0.41800000000E+01 0.  1.
        -11    1    4    4    0    0  0.38066416375E+02  0.22289534252E+02 -0.17768592418E+02  0.47556264249E+02  0.00000000000E+00 0.  1.
         11    1    4    4    0    0 -0.23359050343E+02 -0.11961375282E+02  0.40109945196E+02  0.47932530031E+02  0.00000000000E+00 0. -1.
</event>
<event>
 8    1  0.7112384E-009  0.3945855E+03  0.7561462E-02  0.1045671E+00
          2   -1    0    0  501    0  0.00000000000E+00  0.00000000000E+00  0.76097824019E+03  0.76097824019E+03  0.00000000000E+00 0. -1.
         -2   -1    0    0    0  501 -0.00000000000E+00 -0.00000000000E+00 -0.21192500165E+03  0.21192500165E+03  0.00000000000E+00 0.  1.
         25    2    1    2    0    0 -0.15597594259E+03 -0.35356281943E+03  0.28430544352E+03  0.49579458477E+03  0.12509006006E+03 0.  0.
         23    2    1    2    0    0  0.15597594259E+03  0.35356281943E+03  0.26474779502E+03  0.47710865707E+03  0.90587602555E+02 0.  0.
          5    1    3    3  502    0  0.11138015890E+02 -0.28026907118E+01  0.27354740682E+02  0.29961053235E+02  0.41800000000E+01 0. -1.
         -5    1    3    3    0  502 -0.16711395848E+03 -0.35076012872E+03  0.25695070284E+03  0.46583353154E+03  0.41800000000E+01 0. -1.
        -11    1    4    4    0    0  0.75078408714E+02  0.21752073824E+03  0.20417789863E+03  0.30763721054E+03  0.00000000000E+00 0.  1.
         11    1    4    4    0    0  0.80897533871E+02  0.13604208119E+03  0.60569896386E+02  0.16947144653E+03  0.00000000000E+00 0. -1.
</event>
<event>
 8    1  0.7112384E-009  0.1511382E+03  0.7561462E-02  0.1199081E+00
          1   -1    0    0  501    0  0.00000000000E+00  0.00000000000E+00  0.55262247529E+03  0.55262247529E+03  0.00000000000E+00 0. -1.
         -1   -1    0    0    0  501 -0.00000000000E+00 -0.00000000000E+00 -0.56467699041E+02  0.56467699041E+02  0.00000000000E+00 0.  1.
         25    2    1    2    0    0  0.60886032802E+02 -0.12020423595E+03  0.32136638830E+03  0.37024754257E+03  0.12510283736E+03 0.  0.
         23    2    1    2    0    0 -0.60886032802E+02  0.12020423595E+03  0.17478838795E+03  0.23884263177E+03  0.91316235448E+02 0.  0.
          5    1    3    3  502    0  0.46192189045E+01 -0.49072892157E+02  0.24977344455E+03  0.25462468838E+03  0.41800000000E+01 0.  1.
         -5    1    3    3    0  502  0.56266813897E+02 -0.71131343796E+02  0.71592943754E+02  0.11562285419E+03  0.41800000000E+01 0.  1.
        -11    1    4    4    0    0 -0.84269819470E+02  0.84502992332E+02  0.11823547382E+03  0.16799340896E+03  0.00000000000E+00 0. -1.
         11    1    4    4    0    0  0.23383786669E+02  0.35701243620E+02  0.56552914131E+02  0.70849222803E+02  0.00000000000E+00 0.  1.
</event>
<event>
 8    1  0.7112384E-009  0.1098092E+03  0.7561462E-02  0.1260924E+00
         -1   -1    0    0    0  501 -0.00000000000E+00  0.00000000000E+00  0.58468112148E+02  0.58468112148E+02  0.00000000000E+00 0.  1.
          1   -1    0    0  501    0  0.00000000000E+00 -0.00000000000E+00 -0.51982406189E+03  0.51982406189E+03  0.00000000000E+00 0. -1.
         25    2    1    2    0    0 -0.87647674465E+02 -0.39155337713E+01 -0.41854623053E+03  0.44556167441E+03  0.12508721906E+03 0.  0.
         23    2    1    2    0    0  0.87647674465E+02  0.39155337713E+01 -0.42809719213E+02  0.13273049963E+03  0.89929234557E+02 0.  0.
          5    1    3    3  502    0 -0.50561847197E+02  0.22145661668E+02 -0.51195510537E+02  0.75401481563E+02  0.41800000000E+01 0.  1.
         -5    1    3    3    0  502 -0.37085827268E+02 -0.26061195440E+02 -0.36735071999E+03  0.37016019285E+03  0.41800000000E+01 0.  1.
        -11    1    4    4    0    0  0.29400465727E+01  0.29973097316E+02  0.72050025342E+01  0.30966796703E+02  0.00000000000E+00 0. -1.
         11    1    4    4    0    0  0.84707627892E+02 -0.26057563544E+02 -0.50014721747E+02  0.10176370292E+03  0.00000000000E+00 0.  1.
</event>
<event>
 8    1  0.7112384E-009  0.1082237E+03  0.7561462E-02  0.1263895E+00
          1   -1    0    0  501    0  0.00000000000E+00  0.00000000000E+00  0.57232638178E+03  0.57232638178E+03  0.00000000000E+00 0. -1.
         -1   -1    0    0    0  501 -0.00000000000E+00 -0.00000000000E+00 -0.24799661153E+02  0.24799661153E+02  0.00000000000E+00 0.  1.
         25    2    1    2    0    0 -0.40622998556E+02 -0.16840834701E+02  0.31480915688E+03  0.34159347602E+03  0.12508979125E+03 0.  0.
         23    2    1    2    0    0  0.40622998556E+02  0.16840834701E+02  0.23271756374E+03  0.25553256691E+03  0.95945747972E+02 0.  0.
          5    1    3    3  502    0 -0.26270246700E+02 -0.63767080214E+02  0.10226448187E+03  0.12341743408E+03  0.41800000000E+01 0. -1.
         -5    1    3    3    0  502 -0.14352751856E+02  0.46926245512E+02  0.21254467501E+03  0.21817604194E+03  0.41800000000E+01 0. -1.
        -11    1    4    4    0    0  0.68613973806E+02  0.10624383219E+02  0.20158892351E+03  0.21321080883E+03  0.00000000000E+00 0. -1.
         11    1    4    4    0    0 -0.27990975251E+02  0.62164514822E+01  0.31128640234E+02  0.42321758084E+02  0.00000000000E+00 0.  1.
</event>
<event>
 8    1  0.7112384E-009  0.9347918E+02  0.7561462E-02  0.1294639E+00
         -2   -1    0    0    0  501 -0.00000000000E+00  0.00000000000E+00  0.91244403317E+02  0.91244403317E+02  0.00000000000E+00 0.  1.
          2   -1    0    0  501    0  0.00000000000E+00 -0.00000000000E+00 -0.16275690009E+03  0.16275690009E+03  0.00000000000E+00 0. -1.
         25    2    1    2    0    0 -0.49105869451E+01  0.59710759977E+02 -0.50303536424E+02  0.14753911120E+03  0.12509138593E+03 0.  0.
         23    2    1    2    0    0  0.49105869451E+01 -0.59710759977E+02 -0.21208960352E+02  0.10646219221E+03  0.85410126158E+02 0.  0.
          5    1    3    3  502    0 -0.16885421103E+02 -0.45201933618E+01  0.35392970931E+02  0.39694891172E+02  0.41800000000E+01 0.  1.
         -5    1    3    3    0  502  0.11974834158E+02  0.64230953338E+02 -0.85696507355E+02  0.10784422002E+03  0.41800000000E+01 0.  1.
        -11    1    4    4    0    0 -0.48829778557E+01 -0.80439964129E+02 -0.10889278923E+02  0.81320401483E+02  0.00000000000E+00 0.  1.
         11    1    4    4    0    0  0.97935648008E+01  0.20729204153E+02 -0.10319681429E+02  0.25141790730E+02  0.00000000000E+00 0. -1.
</event>
<event>
 8    1  0.7112384E-009  0.1081565E+03  0.7561462E-02  0.1264022E+00
          1   -1    0    0  501    0  0.00000000000E+00  0.00000000000E+00  0.30211039201E+03  0.30211039201E+03  0.00000000000E+00 0. -1.
         -1   -1    0    0    0  501 -0.00000000000E+00 -0.00000000000E+00 -0.48873294060E+02  0.48873294060E+02  0.00000000000E+00 0.  1.
         25    2    1    2    0    0  0.13027991516E+02 -0.41730966374E+02  0.92284635105E+02  0.16147719098E+03  0.12508887726E+03 0.  0.
         23    2    1    2    0    0 -0.13027991516E+02  0.41730966374E+02  0.16095246284E+03  0.18950649509E+03  0.89976742927E+02 0.  0.
          5    1    3    3  502    0 -0.15412971941E+02 -0.81411702678E+02  0.50844680182E+02  0.97304054077E+02  0.41800000000E+01 0.  1.
         -5    1    3    3    0  502  0.28440963457E+02  0.39680736305E+02  0.41439954923E+02  0.64173136903E+02  0.41800000000E+01 0.  1.
        -11    1    4    4    0    0 -0.42847255103E+02  0.30005306569E+02  0.44342724534E+02  0.68574652104E+02  0.00000000000E+00 0.  1.
         11    1    4    4    0    0  0.29819263587E+02  0.11725659804E+02  0.11660973831E+03  0.12093184298E+03  0.00000000000E+00 0. -1.
</event>
<event>
 8    1  0.7112384E-009  0.1066734E+03  0.7561462E-02  0.1266857E+00
          2   -1    0    0  501    0  0.00000000000E+00  0.00000000000E+00  0.11495454767E+03  0.11495454767E+03  0.00000000000E+00 0.  1.
         -2   -1    0    0    0  501 -0.00000000000E+00 -0.00000000000E+00 -0.13556359369E+03  0.13556359369E+03  0.00000000000E+00 0. -1.
         25    2    1    2    0    0  0.91551287022E+01  0.44345874198E+02  0.29081073917E+02  0.13618351695E+03  0.12509943440E+03 0.  0.
         23    2    1    2    0    0 -0.91551287022E+01 -0.44345874198E+02 -0.49690119942E+02  0.11433462441E+03  0.92482027333E+02 0.  0.
          5    1    3    3  502    0  0.36521440393E+02 -0.26574877003E+02  0.38467250191E+02  0.59474712554E+02  0.41800000000E+01 0.  1.
         -5    1    3    3    0  502 -0.27366311691E+02  0.70920751201E+02 -0.93861762735E+01  0.76708804393E+02  0.41800000000E+01 0.  1.
        -11    1    4    4    0    0 -0.41407420010E+02 -0.42820265380E+02 -0.58012178969E+01  0.59848171971E+02  0.00000000000E+00 0.  1.
         11    1    4    4    0    0  0.32252291308E+02 -0.15256088178E+01 -0.43888902045E+02  0.54486452441E+02  0.00000000000E+00 0. -1.
</event>
<event>
 8    1  0.7112384E-009  0.1370134E+03  0.7561462E-02  0.1217405E+00
          2   -1    0    0  501    0  0.00000000000E+00  0.00000000000E+00  0.58056512753E+03  0.58056512753E+03  0.00000000000E+00 0. -1.
         -2   -1    0    0    0  501 -0.00000000000E+00 -0.00000000000E+00 -0.32600892746E+02  0.32600892746E+02  0.00000000000E+00 0.  1.
         25    2    1    2    0    0  0.29933065600E+02 -0.79314181896E+02  0.30806047820E+03  0.34312662685E+03  0.12509155030E+03 0.  0.
         23    2    1    2    0    0 -0.29933065600E+02  0.79314181896E+02  0.23990375659E+03  0.27003939343E+03  0.90447408560E+02 0.  0.
          5    1    3    3  502    0  0.75524379691E+02 -0.72479659175E+02  0.20910357234E+03  0.23387819327E+03  0.41800000000E+01 0.  1.
         -5    1    3    3    0  502 -0.45591314091E+02 -0.68345227208E+01  0.98956905860E+02  0.10924843358E+03  0.41800000000E+01 0.  1.
        -11    1    4    4    0    0  0.26598126780E+02  0.12950772679E+01  0.67103274972E+02  0.72194093147E+02  0.00000000000E+00 0. -1.
         11    1    4    4    0    0 -0.56531192380E+02  0.78019104628E+02  0.17280048161E+03  0.19784530029E+03  0.00000000000E+00 0.  1.
</event>
<event>
 8    1  0.7112384E-009  0.1283294E+03  0.7561462E-02  0.1229956E+00
         -2   -1    0    0    0  501 -0.00000000000E+00  0.00000000000E+00  0.84087583858E+02  0.84087583858E+02  0.00000000000E+00 0. -1.
          2   -1    0    0  501    0  0.00000000000E+00 -0.00000000000E+00 -0.30802440462E+03  0.30802440462E+03  0.00000000000E+00 0.  1.
         25    2    1    2    0    0  0.22526355728E+01  0.10463818752E+03 -0.52033134454E+02  0.17119763495E+03  0.12508780307E+03 0.  0.
         23    2    1    2    0    0 -0.22526355728E+01 -0.10463818752E+03 -0.17190368631E+03  0.22091435353E+03  0.91093630795E+02 0.  0.
          5    1    3    3  502    0 -0.50615293782E+02  0.59816486844E+02  0.86976073349E+01  0.78949609476E+02  0.41800000000E+01 0.  1.
         -5    1    3    3    0  502  0.52867929355E+02  0.44821700681E+02 -0.60730741788E+02  0.92248025477E+02  0.41800000000E+01 0.  1.
        -11    1    4    4    0    0 -0.15331374771E+02 -0.40725526692E+02 -0.14315653493E+03  0.14962423958E+03  0.00000000000E+00 0.  1.
         11    1    4    4    0    0  0.13078739198E+02 -0.63912660833E+02 -0.28747151377E+02  0.71290113943E+02  0.00000000000E+00 0. -1.
</event>
<event>
 8    1  0.7112384E-009  0.1245610E+03  0.7561462E-02  0.1235757E+00
         -2   -1    0    0    0  501 -0.00000000000E+00  0.00000000000E+00  0.37391213306E+02  0.37391213306E+02  0.00000000000E+00 0.  1.
          2   -1    0    0  501    0  0.00000000000E+00 -0.00000000000E+00 -0.44437160179E+03  0.44437160179E+03  0.00000000000E+00 0. -1.
         25    2    1    2    0    0  0.19988001860E+02 -0.62885176026E+02 -0.22662615425E+03  0.26713583276E+03  0.12509226104E+03 0.  0.
         23    2    1    2    0    0 -0.19988001860E+02  0.62885176026E+02 -0.18035423423E+03  0.21462698233E+03  0.95828107345E+02 0.  0.
          5    1    3    3  502    0  0.18007647446E+02 -0.98114684792E+02 -0.19706984973E+03  0.22091800473E+03  0.41800000000E+01 0. -1.
         -5    1    3    3    0  502  0.19803544141E+01  0.35229508767E+02 -0.29556304518E+02  0.46217828035E+02  0.41800000000E+01 0. -1.
        -11    1    4    4    0    0  0.35954710218E+02  0.11394480807E+02 -0.39843436414E+02  0.54864148631E+02  0.00000000000E+00 0.  1.
         11    1    4    4    0    0 -0.55942712078E+02  0.51490695218E+02 -0.14051079782E+03  0.15976283370E+03  0.00000000000E+00 0. -1.
</event>
<event>
 8    1  0.7112384E-009  0.1222343E+03  0.7561462E-02  0.1239456E+00
         -2   -1    0    0    0  501 -0.00000000000E+00  0.00000000000E+00  0.49548325305E+02  0.49548325305E+02  0.00000000000E+00 0.  1.
          2   -1    0    0  501    0  0.00000000000E+00 -0.00000000000E+00 -0.35010557252E+03  0.35010557252E+03  0.00000000000E+00 0. -1.
         25    2    1    2    0    0  0.48719343046E+02 -0.58457847566E+02 -0.20173675475E+03  0.24927052310E+03  0.12508869309E+03 0.  0.
         23    2    1    2    0    0 -0.48719343046E+02  0.58457847566E+02 -0.98820492463E+02  0.15038337473E+03  0.84016518225E+02 0.  0.
          5    1    3    3  502    0 -0.37485498402E+02 -0.35112727166E+01 -0.26083478570E+02  0.45992519836E+02  0.41800000000E+01 0. -1.
         -5    1    3    3    0  502  0.86204841448E+02 -0.54946574849E+02 -0.17565327618E+03  0.20327800326E+03  0.41800000000E+01 0. -1.
        -11    1    4    4    0    0  0.21217726601E+01 -0.14884159346E+02  0.26358642188E+01  0.15263941131E+02  0.00000000000E+00 0.  1.
         11    1    4    4    0    0 -0.50841115706E+02  0.73342006912E+02 -0.10145635668E+03  0.13511943360E+03  0.00000000000E+00 0. -1.
</event>
<event>
 8    1  0.7112384E-009  0.1148441E+03  0.7561462E-02  0.1251853E+00
         -2   -1    0    0    0  501 -0.00000000000E+00  0.00000000000E+00  0.51442061667E+02  0.51442061667E+02  0.00000000000E+00 0.  1.
          2   -1    0    0  501    0  0.00000000000E+00 -0.00000000000E+00 -0.31826479175E+03  0.31826479175E+03  0.00000000000E+00 0. -1.
         25    2    1    2    0    0  0.54677307560E+02 -0.26604867807E+02 -0.10567320949E+03  0.17467575006E+03  0.12508942203E+03 0.  0.
         23    2    1    2    0    0 -0.54677307560E+02  0.26604867807E+02 -0.16114952059E+03  0.19503110335E+03  0.91490635230E+02 0.  0.
          5    1    3    3  502    0  0.94411496216E+02 -0.29526342557E+02 -0.74016778256E+02  0.12361752055E+03  0.41800000000E+01 0.  1.
         -5    1    3    3    0  502 -0.39734188657E+02  0.29214747506E+01 -0.31656431232E+02  0.51058229516E+02  0.41800000000E+01 0.  1.
        -11    1    4    4    0    0 -0.60705442034E+01 -0.21435187867E+02 -0.26617349427E+01  0.22436657923E+02  0.00000000000E+00 0.  1.
         11    1    4    4    0    0 -0.48606763356E+02  0.48040055674E+02 -0.15848778565E+03  0.17259444543E+03  0.00000000000E+00 0. -1.
</event>
<event>
 8    1  0.7112384E-009  0.1691085E+03  0.7561462E-02  0.1178781E+00
          2   -1    0    0  501    0  0.00000000000E+00  0.00000000000E+00  0.49286248032E+03  0.49286248032E+03  0.00000000000E+00 0. -1.
         -2   -1    0    0    0  501 -0.00000000000E+00 -0.00000000000E+00 -0.92249867107E+02  0.92249867107E+02  0.00000000000E+00 0.  1.
         25    2    1    2    0    0  0.68407540874E+02  0.12699015756E+03  0.54498995392E+02  0.19855528833E+03  0.12509184730E+03 0.  0.
         23    2    1    2    0    0 -0.68407540874E+02 -0.12699015756E+03  0.34611361783E+03  0.38655705910E+03  0.93944833437E+02 0.  0.
          5    1    3    3  502    0  0.19307199228E+02  0.13298240897E+03  0.15311706855E+02  0.13531078968E+03  0.41800000000E+01 0.  1.
         -5    1    3    3    0  502  0.49100341646E+02 -0.59922514066E+01  0.39187288537E+02  0.63244498651E+02  0.41800000000E+01 0.  1.
        -11    1    4    4    0    0 -0.55092852744E+02 -0.45183820355E+02  0.24844632187E+03  0.25846155400E+03  0.00000000000E+00 0. -1.
         11    1    4    4    0    0 -0.13314688130E+02 -0.81806337208E+02  0.97667295951E+02  0.12809550510E+03  0.00000000000E+00 0.  1.
</event>
<event>
 8    1  0.7112384E-009  0.9882065E+02  0.7561462E-02  0.1282796E+00
          2   -1    0    0  501    0  0.00000000000E+00  0.00000000000E+00  0.45949485211E+03  0.45949485211E+03  0.00000000000E+00 0. -1.
         -2   -1    0    0    0  501 -0.00000000000E+00 -0.00000000000E+00 -0.33519220781E+02  0.33519220781E+02  0.00000000000E+00 0.  1.
         25    2    1    2    0    0 -0.33944872797E+02  0.19461388604E+02  0.14745571781E+03  0.19728468114E+03  0.12508819554E+03 0.  0.
         23    2    1    2    0    0  0.33944872797E+02 -0.19461388604E+02  0.27851991352E+03  0.29572939175E+03  0.91386710647E+02 0.  0.
          5    1    3    3  502    0 -0.79563369005E+01 -0.40736117086E+02  0.11823576304E+03  0.12537903570E+03  0.41800000000E+01 0.  1.
         -5    1    3    3    0  502 -0.25988535896E+02  0.60197505689E+02  0.29219954772E+02  0.71905645440E+02  0.41800000000E+01 0.  1.
        -11    1    4    4    0    0 -0.10109265511E+02 -0.40258357924E+02  0.19201361695E+03  0.19644887814E+03  0.00000000000E+00 0. -1.
         11    1    4    4    0    0  0.44054138307E+02  0.20796969320E+02  0.86506296570E+02  0.99280513602E+02  0.00000000000E+00 0.  1.
</event>
<event>
 8    1  0.7112384E-009  0.2318969E+03  0.7561462E-02  0.1125312E+00
          2   -1    0    0  501    0  0.00000000000E+00  0.00000000000E+00  0.51381638194E+03  0.51381638194E+03  0.00000000000E+00 0.  1.
         -2   -1    0    0    0  501 -0.00000000000E+00 -0.00000000000E+00 -0.11228707360E+03  0.11228707360E+03  0.00000000000E+00 0. -1.
         25    2    1    2    0    0  0.13609500469E+03  0.16435943187E+03  0.21062598845E+03  0.32488038408E+03  0.12509230113E+03 0.  0.
         23    2    1    2    0    0 -0.13609500469E+03 -0.16435943187E+03  0.19090331990E+03  0.30122307146E+03  0.93570230760E+02 0.  0.
          5    1    3    3  502    0  0.19894919249E+02  0.92413362450E+02  0.14517305391E+03  0.17328798387E+03  0.41800000000E+01 0.  1.
         -5    1    3    3    0  502  0.11620008544E+03  0.71946069420E+02  0.65452934542E+02  0.15159240021E+03  0.41800000000E+01 0.  1.
        -11    1    4    4    0    0 -0.66163288994E+02 -0.15478398248E+02  0.65566887370E+02  0.94425517432E+02  0.00000000000E+00 0.  1.
         11    1    4    4    0    0 -0.69931715698E+02 -0.14888103362E+03  0.12533643253E+03  0.20679755403E+03  0.00000000000E+00 0. -1.
</event>
<event>
 8    1  0.7112384E-009  0.2274492E+03  0.7561462E-02  0.1128448E+00
         -1   -1    0    0    0  501 -0.00000000000E+00  0.00000000000E+00  0.67093780076E+02  0.67093780076E+02  0.00000000000E+00 0.  1.
          1   -1    0    0  501    0  0.00000000000E+00 -0.00000000000E+00 -0.84237056132E+03  0.84237056132E+03  0.00000000000E+00 0. -1.
         25    2    1    2    0    0  0.19746304896E+02 -0.20973404700E+03 -0.42248929270E+03  0.48838773078E+03  0.12508831320E+03 0.  0.
         23    2    1    2    0    0 -0.19746304896E+02  0.20973404700E+03 -0.35278748855E+03  0.42107661062E+03  0.92022893380E+02 0.  0.
          5    1    3    3  502    0  0.36037883730E+02 -0.34954921189E+02 -0.30558669659E+02  0.58922663470E+02  0.41800000000E+01 0. -1.
         -5    1    3    3    0  502 -0.16291578835E+02 -0.17477912581E+03 -0.39193062304E+03  0.42946506731E+03  0.41800000000E+01 0. -1.
        -11    1    4    4    0    0  0.35971659647E+02  0.87016688919E+02 -0.12652889516E+03  0.15771945269E+03  0.00000000000E+00 0.  1.
         11    1    4    4    0    0 -0.55717964543E+02  0.12271735808E+03 -0.22625859339E+03  0.26335715793E+03  0.00000000000E+00 0. -1.
</event>
<event>
 8    1  0.7112384E-009  0.2018335E+03  0.7561462E-02  0.1148201E+00
         -1   -1    0    0    0  501 -0.00000000000E+00  0.00000000000E+00  0.29925039789E+02  0.29925039789E+02  0.00000000000E+00 0.  1.
          1   -1    0    0  501    0  0.00000000000E+00 -0.00000000000E+00 -0.14941380570E+04  0.14941380570E+04  0.00000000000E+00 0. -1.
         25    2    1    2    0    0 -0.16228756949E+03  0.61989671393E+02 -0.59156460707E+03  0.62910881343E+03  0.12509692337E+03 0.  0.
         23    2    1    2    0    0  0.16228756949E+03 -0.61989671393E+02 -0.87264841010E+03  0.89495428331E+03  0.96166246646E+02 0.  0.
          5    1    3    3  502    0 -0.15232150472E+03  0.89419264416E+02 -0.43009316881E+03  0.46496801170E+03  0.41800000000E+01 0.  1.
         -5    1    3    3    0  502 -0.99660647673E+01 -0.27429593023E+02 -0.16147143826E+03  0.16414080174E+03  0.41800000000E+01 0.  1.
        -11    1    4    4    0    0  0.12093023423E+03 -0.87183067480E+02 -0.61656626305E+03  0.63433348133E+03  0.00000000000E+00 0. -1.
         11    1    4    4    0    0  0.41357335258E+02  0.25193396087E+02 -0.25608214706E+03  0.26062080199E+03  0.00000000000E+00 0.  1.
</event>
<event>
 8    1  0.7112384E-009  0.1013572E+03  0.7561462E-02  0.1277467E+00
         -2   -1    0    0    0  501 -0.00000000000E+00  0.00000000000E+00  0.10987236408E+03  0.10987236408E+03  0.00000000000E+00 0.  1.
          2   -1    0    0  501    0  0.00000000000E+00 -0.00000000000E+00 -0.16870100912E+03  0.16870100912E+03  0.00000000000E+00 0. -1.
         25    2    1    2    0    0 -0.60170579610E+02  0.13741682544E+02  0.22694947086E+02  0.14131502240E+03  0.12508214278E+03 0.  0.
         23    2    1    2    0    0  0.60170579610E+02 -0.13741682544E+02 -0.81523592127E+02  0.13725835081E+03  0.91566513006E+02 0.  0.
          5    1    3    3  502    0 -0.12338672799E+02  0.42350400918E+02 -0.38312738385E+02  0.58575913368E+02  0.41800000000E+01 0. -1.
         -5    1    3    3    0  502 -0.47831906811E+02 -0.28608718374E+02  0.61007685471E+02  0.82739109028E+02  0.41800000000E+01 0. -1.
        -11    1    4    4    0    0  0.28488764393E+02  0.34535805801E+02 -0.61646951718E+02  0.76188438986E+02  0.00000000000E+00 0. -1.
         11    1    4    4    0    0  0.31681815217E+02 -0.48277488345E+02 -0.19876640409E+02  0.61069911825E+02  0.00000000000E+00 0.  1.
</event>
<event>
 8    1  0.7112384E-009  0.1086490E+03  0.7561462E-02  0.1263092E+00
         -4   -1    0    0    0  501 -0.00000000000E+00  0.00000000000E+00  0.21759202008E+03  0.21759202008E+03  0.00000000000E+00 0.  1.
          4   -1    0    0  501    0  0.00000000000E+00 -0.00000000000E+00 -0.59112830968E+02  0.59112830968E+02  0.00000000000E+00 0. -1.
         25    2    1    2    0    0 -0.31890924297E+02 -0.12812152099E+02  0.74995399860E+02  0.14984270779E+03  0.12508934720E+03 0.  0.
         23    2    1    2    0    0  0.31890924297E+02  0.12812152099E+02  0.83483789255E+02  0.12686214326E+03  0.89125069599E+02 0.  0.
          5    1    3    3  502    0 -0.79164808863E+02 -0.10654141025E+02  0.60115396590E+02  0.10005953723E+03  0.41800000000E+01 0.  1.
         -5    1    3    3    0  502  0.47273884566E+02 -0.21580110744E+01  0.14880003270E+02  0.49783170560E+02  0.41800000000E+01 0.  1.
        -11    1    4    4    0    0  0.25250026256E+02 -0.34095664592E+02  0.61298774664E+02  0.74549432897E+02  0.00000000000E+00 0.  1.
         11    1    4    4    0    0  0.66408980414E+01  0.46907816691E+02  0.22185014591E+02  0.52312710367E+02  0.00000000000E+00 0. -1.
</event>
<event>
 8    1  0.7112384E-009  0.1155307E+03  0.7561462E-02  0.1250657E+00
          2   -1    0    0  501    0  0.00000000000E+00  0.00000000000E+00  0.44493037396E+03  0.44493037396E+03  0.00000000000E+00 0. -1.
         -2   -1    0    0    0  501 -0.00000000000E+00 -0.00000000000E+00 -0.46413318005E+02  0.46413318005E+02  0.00000000000E+00 0.  1.
         25    2    1    2    0    0 -0.31359379007E+02 -0.58991862708E+02  0.32683280682E+03  0.35626692026E+03  0.12507191666E+03 0.  0.
         23    2    1    2    0    0  0.31359379007E+02  0.58991862708E+02  0.71684249130E+02  0.13507677170E+03  0.92971243743E+02 0.  0.
          5    1    3    3  502    0  0.33976844853E+02 -0.60977555888E+02  0.11553649153E+03  0.13505125539E+03  0.41800000000E+01 0.  1.
         -5    1    3    3    0  502 -0.65336223860E+02  0.19856931804E+01  0.21129631529E+03  0.22121566486E+03  0.41800000000E+01 0.  1.
        -11    1    4    4    0    0 -0.21302818158E+02  0.93637822045E+01 -0.10539914384E+02  0.25545650782E+02  0.00000000000E+00 0. -1.
         11    1    4    4    0    0  0.52662197165E+02  0.49628080504E+02  0.82224163514E+02  0.10953112092E+03  0.00000000000E+00 0.  1.
</event>
<event>
 8    1  0.7112384E-009  0.7307616E+02  0.7561462E-02  0.1349934E+00
         -2   -1    0    0    0  501 -0.00000000000E+00  0.00000000000E+00  0.53410074406E+02  0.53410074406E+02  0.00000000000E+00 0.  1.
          2   -1    0    0  501    0  0.00000000000E+00 -0.00000000000E+00 -0.23208735131E+03  0.23208735131E+03  0.00000000000E+00 0. -1.
         25    2    1    2    0    0 -0.19267149198E+02 -0.98735522590E+01 -0.11737350513E+03  0.17289373819E+03  0.12508794876E+03 0.  0.
         23    2    1    2    0    0  0.19267149198E+02  0.98735522590E+01 -0.61303771771E+02  0.11260368753E+03  0.91938718393E+02 0.  0.
          5    1    3    3  502    0  0.16242518686E+02  0.10167237005E+02 -0.12884596324E+03  0.13033014526E+03  0.41800000000E+01 0. -1.
         -5    1    3    3    0  502 -0.35509667884E+02 -0.20040789264E+02  0.11472458104E+02  0.42563592923E+02  0.41800000000E+01 0. -1.
        -11    1    4    4    0    0  0.31992097050E+02  0.40952920651E+02 -0.12650524717E+02  0.53485248052E+02  0.00000000000E+00 0.  1.
         11    1    4    4    0    0 -0.12724947852E+02 -0.31079368392E+02 -0.48653247054E+02  0.59118439478E+02  0.00000000000E+00 0. -1.
</event>
<event>
 8    1  0.7112384E-009  0.1239416E+03  0.7561462E-02  0.1236733E+00
          4   -1    0    0  501    0  0.00000000000E+00  0.00000000000E+00  0.19181064541E+03  0.19181064541E+03  0.00000000000E+00 0. -1.
         -4   -1    0    0    0  501 -0.00000000000E+00 -0.00000000000E+00 -0.12878228304E+03  0.12878228304E+03  0.00000000000E+00 0.  1.
         25    2    1    2    0    0 -0.10406610410E+03  0.42583920432E+02  0.67743298709E+02  0.18132642439E+03  0.12508786256E+03 0.  0.
         23    2    1    2    0    0  0.10406610410E+03 -0.42583920432E+02 -0.47149363377E+01  0.13926650407E+03  0.82035262115E+02 0.  0.
          5    1    3    3  502    0 -0.19231572606E+02  0.38275673101E+02  0.84329571563E+02  0.94677503010E+02  0.41800000000E+01 0. -1.
         -5    1    3    3    0  502 -0.84834531491E+02  0.43082473313E+01 -0.16586272854E+02  0.86648921376E+02  0.41800000000E+01 0. -1.
        -11    1    4    4    0    0  0.63484317438E+02 -0.36967666912E+01 -0.37866605774E+02  0.74012191410E+02  0.00000000000E+00 0.  1.
         11    1    4    4    0    0  0.40581786660E+02 -0.38887153741E+02  0.33151669436E+02  0.65254312662E+02  0.00000000000E+00 0. -1.
</event>
<event>
 8    1  0.7112384E-009  0.9038162E+02  0.7561462E-02  0.1301930E+00
          2   -1    0    0  501    0  0.00000000000E+00  0.00000000000E+00  0.21213626792E+03  0.21213626792E+03  0.00000000000E+00 0. -1.
         -2   -1    0    0    0  501 -0.00000000000E+00 -0.00000000000E+00 -0.59011370681E+02  0.59011370681E+02  0.00000000000E+00 0.  1.
         25    2    1    2    0    0 -0.27605008660E+02 -0.89873995500E+01  0.96714633810E+02  0.16076067438E+03  0.12508982445E+03 0.  0.
         23    2    1    2    0    0  0.27605008660E+02  0.89873995500E+01  0.56410263434E+02  0.11038696423E+03  0.90334678815E+02 0.  0.
          5    1    3    3  502    0 -0.41955707806E+01 -0.61512996248E+02  0.79289586551E+02  0.10052742142E+03  0.41800000000E+01 0.  1.
         -5    1    3    3    0  502 -0.23409437880E+02  0.52525596698E+02  0.17425047258E+02  0.60233252961E+02  0.41800000000E+01 0.  1.
        -11    1    4    4    0    0 -0.16512025716E+02  0.30890528506E+01 -0.17405873507E+02  0.24189949841E+02  0.00000000000E+00 0.  1.
         11    1    4    4    0    0  0.44117034377E+02  0.58983466995E+01  0.73816136941E+02  0.86197014385E+02  0.00000000000E+00 0. -1.
</event>
<event>
 8    1  0.7112384E-009  0.1604200E+03  0.7561462E-02  0.1188223E+00
         -2   -1    0    0    0  501 -0.00000000000E+00  0.00000000000E+00  0.31763711145E+02  0.31763711145E+02  0.00000000000E+00 0.  1.
          2   -1    0    0  501    0  0.00000000000E+00 -0.00000000000E+00 -0.86016822117E+03  0.86016822117E+03  0.00000000000E+00 0. -1.
         25    2    1    2    0    0  0.81537153785E+02 -0.92558589679E+02 -0.43147535004E+03  0.46587268128E+03  0.12510386683E+03 0.  0.
         23    2    1    2    0    0 -0.81537153785E+02  0.92558589679E+02 -0.39692915998E+03  0.42605925104E+03  0.93585935794E+02 0.  0.
          5    1    3    3  502    0 -0.24369649840E+02 -0.58103477589E+02 -0.13184152218E+03  0.14618328670E+03  0.41800000000E+01 0. -1.
         -5    1    3    3    0  502  0.10590680362E+03 -0.34455112090E+02 -0.29963382786E+03  0.31968939457E+03  0.41800000000E+01 0. -1.
        -11    1    4    4    0    0 -0.45708671252E+01  0.63982229861E+02 -0.24622139505E+03  0.25443976487E+03  0.00000000000E+00 0.  1.
         11    1    4    4    0    0 -0.76966286660E+02  0.28576359818E+02 -0.15070776493E+03  0.17161948617E+03  0.00000000000E+00 0. -1.
</event>
<event>
 8    1  0.7112384E-009  0.1284303E+03  0.7561462E-02  0.1229804E+00
          2   -1    0    0  501    0  0.00000000000E+00  0.00000000000E+00  0.56073708414E+03  0.56073708414E+03  0.00000000000E+00 0. -1.
         -2   -1    0    0    0  501 -0.00000000000E+00 -0.00000000000E+00 -0.41917323223E+02  0.41917323223E+02  0.00000000000E+00 0.  1.
         25    2    1    2    0    0 -0.10431976943E+03 -0.25941337623E+02  0.30823787322E+03  0.34959140087E+03  0.12509194132E+03 0.  0.
         23    2    1    2    0    0  0.10431976943E+03  0.25941337623E+02  0.21058188770E+03  0.25306300649E+03  0.90225199016E+02 0.  0.
          5    1    3    3  502    0  0.14291774529E+01  0.73913825393E+01 -0.96276793173E+01  0.12916644033E+02  0.41800000000E+01 0.  1.
         -5    1    3    3    0  502 -0.10574894689E+03 -0.33332720162E+02  0.31786555254E+03  0.33667475684E+03  0.41800000000E+01 0.  1.
        -11    1    4    4    0    0  0.26438983257E+01 -0.23908593724E+02  0.60092583661E+02  0.64728121116E+02  0.00000000000E+00 0. -1.
         11    1    4    4    0    0  0.10167587111E+03  0.49849931347E+02  0.15048930403E+03  0.18833488538E+03  0.00000000000E+00 0.  1.
</event>
<event>
 8    1  0.7112384E-009  0.1072080E+03  0.7561462E-02  0.1265829E+00
          2   -1    0    0  501    0  0.00000000000E+00  0.00000000000E+00  0.26569066128E+03  0.26569066128E+03  0.00000000000E+00 0. -1.
         -2   -1    0    0    0  501 -0.00000000000E+00 -0.00000000000E+00 -0.51552338257E+02  0.51552338257E+02  0.00000000000E+00 0.  1.
         25    2    1    2    0    0  0.39418586255E+00 -0.42243161253E+02  0.11109656202E+03  0.17255080669E+03  0.12508674886E+03 0.  0.
         23    2    1    2    0    0 -0.39418586255E+00  0.42243161253E+02  0.10304176100E+03  0.14469219285E+03  0.92377411238E+02 0.  0.
          5    1    3    3  502    0 -0.21825281228E+02 -0.82420880126E+02  0.79584932832E+02  0.11670809019E+03  0.41800000000E+01 0.  1.
         -5    1    3    3    0  502  0.22219467090E+02  0.40177718873E+02  0.31511629191E+02  0.55842716498E+02  0.41800000000E+01 0.  1.
        -11    1    4    4    0    0 -0.31979472141E+02  0.40102083033E+02  0.10062342627E+03  0.11294218705E+03  0.00000000000E+00 0. -1.
         11    1    4    4    0    0  0.31585286279E+02  0.21410782200E+01  0.24183347276E+01  0.31750005797E+02  0.00000000000E+00 0.  1.
</event>
<event>
 8    1  0.7112384E-009  0.1947755E+03  0.7561462E-02  0.1154223E+00
         -2   -1    0    0    0  501 -0.00000000000E+00  0.00000000000E+00  0.58020245170E+02  0.58020245170E+02  0.00000000000E+00 0.  1.
          2   -1    0    0  501    0  0.00000000000E+00 -0.00000000000E+00 -0.77288833051E+03  0.77288833051E+03  0.00000000000E+00 0. -1.
         25    2    1    2    0    0 -0.12393294817E+03  0.12946101932E+03 -0.32007255241E+03  0.38757255043E+03  0.12508601791E+03 0.  0.
         23    2    1    2    0    0  0.12393294817E+03 -0.12946101932E+03 -0.39479553293E+03  0.44333602525E+03  0.92540733177E+02 0.  0.
          5    1    3    3  502    0 -0.11020371244E+03  0.76590577312E+02 -0.11981185876E+03  0.17995368478E+03  0.41800000000E+01 0.  1.
         -5    1    3    3    0  502 -0.13729235732E+02  0.52870442010E+02 -0.20026069364E+03  0.20761886564E+03  0.41800000000E+01 0.  1.
        -11    1    4    4    0    0  0.68169125984E+02 -0.12764060594E+03 -0.26218528824E+03  0.29946665823E+03  0.00000000000E+00 0.  1.
         11    1    4    4    0    0  0.55763822184E+02 -0.18204133795E+01 -0.13261024469E+03  0.14386936702E+03  0.00000000000E+00 0. -1.
</event>
<event>
 8    1  0.7112384E-009  0.1079729E+03  0.7561462E-02  0.1264370E+00
          1   -1    0    0  501    0  0.00000000000E+00  0.00000000000E+00  0.22215469797E+03  0.22215469797E+03  0.00000000000E+00 0. -1.
         -1   -1    0    0    0  501 -0.00000000000E+00 -0.00000000000E+00 -0.92883355729E+02  0.92883355729E+02  0.00000000000E+00 0.  1.
         25    2    1    2    0    0 -0.62805158702E+02 -0.26925177062E+02  0.14062742582E+03  0.20023265980E+03  0.12509033550E+03 0.  0.
         23    2    1    2    0    0  0.62805158702E+02  0.26925177062E+02 -0.11356083581E+02  0.11480539390E+03  0.91552524353E+02 0.  0.
          5    1    3    3  502    0 -0.29296743033E+02 -0.73245084329E+02  0.51631656899E+02  0.94373947278E+02  0.41800000000E+01 0.  1.
         -5    1    3    3    0  502 -0.33508415669E+02  0.46319907268E+02  0.88995768924E+02  0.10585871252E+03  0.41800000000E+01 0.  1.
        -11    1    4    4    0    0  0.13957330895E+02  0.27428825875E+02  0.35591835690E+02  0.47052378711E+02  0.00000000000E+00 0. -1.
         11    1    4    4    0    0  0.48847827807E+02 -0.50364881295E+00 -0.46947919271E+02  0.67753015191E+02  0.00000000000E+00 0.  1.
</event>
<event>
 8    1  0.7112384E-009  0.1655920E+03  0.7561462E-02  0.1182524E+00
          2   -1    0    0  501    0  0.00000000000E+00  0.00000000000E+00  0.77712608516E+03  0.77712608516E+03  0.00000000000E+00 0. -1.
         -2   -1    0    0    0  501 -0.00000000000E+00 -0.00000000000E+00 -0.45560814201E+02  0.45560814201E+02  0.00000000000E+00 0.  1.
         25    2    1    2    0    0  0.13055697682E+03 -0.87911219526E+01  0.20930014232E+03  0.27671801257E+03  0.12507558067E+03 0.  0.
         23    2    1    2    0    0 -0.13055697682E+03  0.87911219526E+01  0.52226512864E+03  0.54596888679E+03  0.90546964260E+02 0.  0.
          5    1    3    3  502    0  0.21659758665E+02  0.51770417398E+02  0.68571404055E+02  0.88706432219E+02  0.41800000000E+01 0.  1.
         -5    1    3    3    0  502  0.10889721815E+03 -0.60561539350E+02  0.14072873827E+03  0.18801158035E+03  0.41800000000E+01 0.  1.
        -11    1    4    4    0    0 -0.29444305689E+02  0.35042042172E+02  0.25382298043E+03  0.25791668665E+03  0.00000000000E+00 0. -1.
         11    1    4    4    0    0 -0.10111267113E+03 -0.26250920219E+02  0.26844214820E+03  0.28805220014E+03  0.00000000000E+00 0.  1.
</event>
<event>
 8    1  0.7112384E-009  0.1814764E+03  0.7561462E-02  0.1166382E+00
         -1   -1    0    0    0  501 -0.00000000000E+00  0.00000000000E+00  0.41917070733E+02  0.41917070733E+02  0.00000000000E+00 0.  1.
          1   -1    0    0  501    0  0.00000000000E+00 -0.00000000000E+00 -0.91464256484E+03  0.91464256484E+03  0.00000000000E+00 0. -1.
         25    2    1    2    0    0 -0.74865135345E+02 -0.13783669089E+03 -0.34577998589E+03  0.39976900887E+03  0.12509084685E+03 0.  0.
         23    2    1    2    0    0  0.74865135345E+02  0.13783669089E+03 -0.52694550822E+03  0.55679062670E+03  0.87980063137E+02 0.  0.
          5    1    3    3  502    0 -0.48335952307E+02  0.38627832830E+01 -0.14205787041E+03  0.15016389821E+03  0.41800000000E+01 0. -1.
         -5    1    3    3    0  502 -0.26529183038E+02 -0.14169947417E+03 -0.20372211548E+03  0.24960511066E+03  0.41800000000E+01 0. -1.
        -11    1    4    4    0    0  0.52373508050E+02  0.30953280178E+02 -0.10920767604E+03  0.12500962525E+03  0.00000000000E+00 0. -1.
         11    1    4    4    0    0  0.22491627295E+02  0.10688341071E+03 -0.41773783218E+03  0.43178100145E+03  0.00000000000E+00 0.  1.
</event>
<event>
 8    1  0.7112384E-009  0.1079461E+03  0.7561462E-02  0.1264421E+00
         -1   -1    0    0    0  501 -0.00000000000E+00  0.00000000000E+00  0.15992966780E+03  0.15992966780E+03  0.00000000000E+00 0.  1.
          1   -1    0    0  501    0  0.00000000000E+00 -0.00000000000E+00 -0.10707269056E+03  0.10707269056E+03  0.00000000000E+00 0. -1.
         25    2    1    2    0    0 -0.45665607030E+01  0.70411991599E+02  0.23650570550E+02  0.14556370323E+03  0.12510291832E+03 0.  0.
         23    2    1    2    0    0  0.45665607030E+01 -0.70411991599E+02  0.29206406694E+02  0.12143865513E+03  0.94422617682E+02 0.  0.
          5    1    3    3  502    0 -0.10483670146E+02 -0.23506193469E+02  0.42153467893E+02  0.49566477851E+02  0.41800000000E+01 0. -1.
         -5    1    3    3    0  502  0.59171094432E+01  0.93918185067E+02 -0.18502897343E+02  0.95997225380E+02  0.41800000000E+01 0. -1.
        -11    1    4    4    0    0  0.34287521871E+02 -0.30741377687E+02  0.49740419299E+02  0.67784775357E+02  0.00000000000E+00 0.  1.
         11    1    4    4    0    0 -0.29720961168E+02 -0.39670613912E+02 -0.20534012605E+02  0.53653879772E+02  0.00000000000E+00 0. -1.
</event>
<event>
 8    1  0.7112384E-009  0.9683486E+02  0.7561462E-02  0.1287096E+00
         -2   -1    0    0    0  501 -0.00000000000E+00  0.00000000000E+00  0.25302646699E+03  0.25302646699E+03  0.00000000000E+00 0.  1.
          2   -1    0    0  501    0  0.00000000000E+00 -0.00000000000E+00 -0.68377302017E+02  0.68377302017E+02  0.00000000000E+00 0. -1.
         25    2    1    2    0    0  0.38807714555E+02 -0.42267129968E+02  0.15844161569E+03  0.20986673649E+03  0.12509097696E+03 0.  0.
         23    2    1    2    0    0 -0.38807714555E+02  0.42267129968E+02  0.26207549288E+02  0.11153703252E+03  0.91984373672E+02 0.  0.
          5    1    3    3  502    0 -0.36191419786E+02 -0.48788899221E+02  0.85450851010E+02  0.10492614494E+03  0.41800000000E+01 0.  1.
         -5    1    3    3    0  502  0.74999134341E+02  0.65217692535E+01  0.72990764679E+02  0.10494059155E+03  0.41800000000E+01 0.  1.
        -11    1    4    4    0    0 -0.12658150329E+02  0.13636367922E+02  0.58304223143E+02  0.61200994568E+02  0.00000000000E+00 0.  1.
         11    1    4    4    0    0 -0.26149564226E+02  0.28630762046E+02 -0.32096673855E+02  0.50336037956E+02  0.00000000000E+00 0. -1.
</event>
<event>
 8    1  0.7112384E-009  0.1101916E+03  0.7561462E-02  0.1260215E+00
          1   -1    0    0  501    0  0.00000000000E+00  0.00000000000E+00  0.91708205072E+02  0.91708205072E+02  0.00000000000E+00 0. -1.
         -1   -1    0    0    0  501 -0.00000000000E+00 -0.00000000000E+00 -0.19893312311E+03  0.19893312311E+03  0.00000000000E+00 0.  1.
         25    2    1    2    0    0  0.60552527102E+02 -0.51406292847E+02 -0.48411119108E+02  0.15588246982E+03  0.12508594030E+03 0.  0.
         23    2    1    2    0    0 -0.60552527102E+02  0.51406292847E+02 -0.58813798931E+02  0.13475885837E+03  0.91606066836E+02 0.  0.
          5    1    3    3  502    0  0.54428209946E+02 -0.80810868099E+01 -0.83192417627E+02  0.99830780587E+02  0.41800000000E+01 0.  1.
         -5    1    3    3    0  502  0.61243171559E+01 -0.43325206037E+02  0.34781298518E+02  0.56051689229E+02  0.41800000000E+01 0.  1.
        -11    1    4    4    0    0 -0.46905445781E+01 -0.25647011192E+02 -0.12294165715E+02  0.28825629259E+02  0.00000000000E+00 0.  1.
         11    1    4    4    0    0 -0.55861982524E+02  0.77053304039E+02 -0.46519633216E+02  0.10593322911E+03  0.00000000000E+00 0. -1.
</event>
<event>
 8    1  0.7112384E-009  0.1425801E+03  0.7561462E-02  0.1209899E+00
          1   -1    0    0  501    0  0.00000000000E+00  0.00000000000E+00  0.26756597390E+02  0.26756597390E+02  0.00000000000E+00 0. -1.
         -1   -1    0    0    0  501 -0.00000000000E+00 -0.00000000000E+00 -0.96248532214E+03  0.96248532214E+03  0.00000000000E+00 0.  1.
         25    2    1    2    0    0 -0.10941894871E+03  0.55929339319E+01 -0.37473482693E+03  0.40997338658E+03  0.12509276535E+03 0.  0.
         23    2    1    2    0    0  0.10941894871E+03 -0.55929339319E+01 -0.56099389782E+03  0.57926853295E+03  0.93989853851E+02 0.  0.
          5    1    3    3  502    0 -0.72137348673E+02 -0.45340116184E+02 -0.30083930612E+03  0.31269998995E+03  0.41800000000E+01 0. -1.
         -5    1    3    3    0  502 -0.37281600039E+02  0.50933050116E+02 -0.73895520806E+02  0.97273396624E+02  0.41800000000E+01 0. -1.
        -11    1    4    4    0    0 -0.96566551914E+01 -0.14242530883E+02 -0.26454121583E+02  0.31558219598E+02  0.00000000000E+00 0.  1.
         11    1    4    4    0    0  0.11907560390E+03  0.86495969514E+01 -0.53453977624E+03  0.54771031335E+03  0.00000000000E+00 0. -1.
</event>
<event>
 8    1  0.7112384E-009  0.5270849E+03  0.7561462E-02  0.1006942E+00
         -2   -1    0    0    0  501 -0.00000000000E+00  0.00000000000E+00  0.22297487771E+03  0.22297487771E+03  0.00000000000E+00 0.  1.
          2   -1    0    0  501    0  0.00000000000E+00 -0.00000000000E+00 -0.12583968396E+04  0.12583968396E+04  0.00000000000E+00 0. -1.
         25    2    1    2    0    0  0.14637680537E+03  0.49714376833E+03 -0.50818426020E+03  0.73653010787E+03  0.12508901604E+03 0.  0.
         23    2    1    2    0    0 -0.14637680537E+03 -0.49714376833E+03 -0.52723770165E+03  0.74484160941E+03  0.90726696852E+02 0.  0.
          5    1    3    3  502    0 -0.85988201970E+01  0.15105406560E+03 -0.17849630213E+03  0.23402921338E+03  0.41800000000E+01 0. -1.
         -5    1    3    3    0  502  0.15497562557E+03  0.34608970274E+03 -0.32968795807E+03  0.50250089448E+03  0.41800000000E+01 0. -1.
        -11    1    4    4    0    0 -0.25552671947E+02 -0.23298999191E+02 -0.55446688191E+02  0.65346137134E+02  0.00000000000E+00 0. -1.
         11    1    4    4    0    0 -0.12082413342E+03 -0.47384476914E+03 -0.47179101346E+03  0.67949547227E+03  0.00000000000E+00 0.  1.
</event>
<event>
 8    1  0.7112384E-009  0.1073432E+03  0.7561462E-02  0.1265570E+00
          1   -1    0    0  501    0  0.00000000000E+00  0.00000000000E+00  0.61958206686E+03  0.61958206686E+03  0.00000000000E+00 0. -1.
         -1   -1    0    0    0  501 -0.00000000000E+00 -0.00000000000E+00 -0.29931822781E+02  0.29931822781E+02  0.00000000000E+00 0.  1.
         25    2    1    2    0    0 -0.15643002397E+02  0.78111794238E+02  0.36631989148E+03  0.39520510496E+03  0.12510258260E+03 0.  0.
         23    2    1    2    0    0  0.15643002397E+02 -0.78111794238E+02  0.22333035260E+03  0.25430878467E+03  0.91925816006E+02 0.  0.
          5    1    3    3  502    0  0.33125376003E+02  0.81248397609E+01  0.24168877157E+03  0.24411931153E+03  0.41800000000E+01 0.  1.
         -5    1    3    3    0  502 -0.48768378400E+02  0.69986954477E+02  0.12463111990E+03  0.15108579343E+03  0.41800000000E+01 0.  1.
        -11    1    4    4    0    0 -0.17343234888E+02 -0.44795005347E+02  0.32973918225E+02  0.58263707259E+02  0.00000000000E+00 0.  1.
         11    1    4    4    0    0  0.32986237284E+02 -0.33316788891E+02  0.19035643437E+03  0.19604507741E+03  0.00000000000E+00 0. -1.
</event>
<event>
 8    1  0.7112384E-009  0.1125809E+03  0.7561462E-02  0.1255864E+00
          2   -1    0    0  501    0  0.00000000000E+00  0.00000000000E+00  0.10119589081E+03  0.10119589081E+03  0.00000000000E+00 0. -1.
         -2   -1    0    0    0  501 -0.00000000000E+00 -0.00000000000E+00 -0.16121341023E+03  0.16121341023E+03  0.00000000000E+00 0.  1.
         25    2    1    2    0    0 -0.47531497581E+02 -0.44386324125E+02 -0.24923914418E+02  0.14317361087E+03  0.12509233513E+03 0.  0.
         23    2    1    2    0    0  0.47531497581E+02  0.44386324125E+02 -0.35093605001E+02  0.11923569017E+03  0.93574567411E+02 0.  0.
          5    1    3    3  502    0  0.59380039472E+01 -0.72892144228E+02  0.86707818747E+01  0.73764350735E+02  0.41800000000E+01 0.  1.
         -5    1    3    3    0  502 -0.53469501528E+02  0.28505820103E+02 -0.33594696292E+02  0.69409260134E+02  0.41800000000E+01 0.  1.
        -11    1    4    4    0    0  0.64359764962E+01  0.49358358446E+02  0.17089007427E+02  0.52627972760E+02  0.00000000000E+00 0. -1.
         11    1    4    4    0    0  0.41095521084E+02 -0.49720343211E+01 -0.52182612428E+02  0.66607717408E+02  0.00000000000E+00 0.  1.
</event>
<event>
 8    1  0.7112384E-009  0.1441762E+03  0.7561462E-02  0.1207817E+00
          1   -1    0    0  501    0  0.00000000000E+00  0.00000000000E+00  0.97176702875E+02  0.97176702875E+02  0.00000000000E+00 0. -1.
         -1   -1    0    0    0  501 -0.00000000000E+00 -0.00000000000E+00 -0.28529654699E+03  0.28529654699E+03  0.00000000000E+00 0.  1.
         25    2    1    2    0    0  0.11959362510E+03 -0.33113372057E+02 -0.11491481291E+03  0.21036655327E+03  0.12509812923E+03 0.  0.
         23    2    1    2    0    0 -0.11959362510E+03  0.33113372057E+02 -0.73205031209E+02  0.17210669660E+03  0.94141424702E+02 0.  0.
          5    1    3    3  502    0  0.82842679069E+02 -0.47986012920E+02 -0.78835819164E+01  0.96151911968E+02  0.41800000000E+01 0. -1.
         -5    1    3    3    0  502  0.36750946032E+02  0.14872640863E+02 -0.10703123099E+03  0.11421464131E+03  0.41800000000E+01 0. -1.
        -11    1    4    4    0    0 -0.13406662275E+03  0.26133127773E+02 -0.53531702926E+02  0.14670529275E+03  0.00000000000E+00 0. -1.
         11    1    4    4    0    0  0.14472997654E+02  0.69802442845E+01 -0.19673328283E+02  0.25401403841E+02  0.00000000000E+00 0.  1.
</event>
<event>
 8    1  0.7112384E-009  0.8613098E+02  0.7561462E-02  0.1312501E+00
         -1   -1    0    0    0  501 -0.00000000000E+00  0.00000000000E+00  0.21946897294E+03  0.21946897294E+03  0.00000000000E+00 0.  1.
          1   -1    0    0  501    0  0.00000000000E+00 -0.00000000000E+00 -0.93861467888E+02  0.93861467888E+02  0.00000000000E+00 0. -1.
         25    2    1    2    0    0 -0.10438955430E+02 -0.66390839720E+02  0.12862444607E+03  0.19159806185E+03  0.12509537877E+03 0.  0.
         23    2    1    2    0    0  0.10438955430E+02  0.66390839720E+02 -0.30169410155E+01  0.12173237898E+03  0.10145420036E+03 0.  0.
          5    1    3    3  502    0  0.32572712702E+02 -0.46701837624E+02  0.28568360090E+01  0.57163599976E+02  0.41800000000E+01 0.  1.
         -5    1    3    3    0  502 -0.43011668132E+02 -0.19689002096E+02  0.12576761006E+03  0.13443446188E+03  0.41800000000E+01 0.  1.
        -11    1    4    4    0    0  0.50849834063E+00  0.28698778051E+02 -0.51841504487E+02  0.59257236011E+02  0.00000000000E+00 0. -1.
         11    1    4    4    0    0  0.99304570890E+01  0.37692061669E+02  0.48824563472E+02  0.62475142969E+02  0.00000000000E+00 0.  1.
</event>
<event>
 8    1  0.7112384E-009  0.8809166E+02  0.7561462E-02  0.1307540E+00
          1   -1    0    0  501    0  0.00000000000E+00  0.00000000000E+00  0.63776887225E+02  0.63776887225E+02  0.00000000000E+00 0. -1.
         -1   -1    0    0    0  501 -0.00000000000E+00 -0.00000000000E+00 -0.25428942004E+03  0.25428942004E+03  0.00000000000E+00 0.  1.
         25    2    1    2    0    0  0.42076317045E+02 -0.38802246715E+02 -0.78355967393E+02  0.15832027527E+03  0.12509844575E+03 0.  0.
         23    2    1    2    0    0 -0.42076317045E+02  0.38802246715E+02 -0.11215656542E+03  0.15974603200E+03  0.98303961092E+02 0.  0.
          5    1    3    3  502    0  0.33251542657E+02 -0.15020625128E+02  0.29710212135E+02  0.47238261753E+02  0.41800000000E+01 0. -1.
         -5    1    3    3    0  502  0.88247743875E+01 -0.23781621587E+02 -0.10806617953E+03  0.11108201351E+03  0.41800000000E+01 0. -1.
        -11    1    4    4    0    0  0.17445727522E+02  0.50200996829E+02 -0.51807563152E+02  0.74219384874E+02  0.00000000000E+00 0. -1.
         11    1    4    4    0    0 -0.59522044566E+02 -0.11398750114E+02 -0.60349002272E+02  0.85526647127E+02  0.00000000000E+00 0.  1.
</event>
<event>
 8    1  0.7112384E-009  0.1654562E+03  0.7561462E-02  0.1182671E+00
         -2   -1    0    0    0  501 -0.00000000000E+00  0.00000000000E+00  0.21030485235E+02  0.21030485235E+02  0.00000000000E+00 0.  1.
          2   -1    0    0  501    0  0.00000000000E+00 -0.00000000000E+00 -0.18337820876E+04  0.18337820876E+04  0.00000000000E+00 0. -1.
         25    2    1    2    0    0 -0.66677117538E+01 -0.14399861750E+03 -0.13131816063E+04  0.13269789418E+04  0.12508845154E+03 0.  0.
         23    2    1    2    0    0  0.66677117538E+01  0.14399861750E+03 -0.49956999606E+03  0.52783363100E+03  0.90874093293E+02 0.  0.
          5    1    3    3  502    0  0.31113042358E+02 -0.10829098885E+03 -0.51992546019E+03  0.53201025951E+03  0.41800000000E+01 0. -1.
         -5    1    3    3    0  502 -0.37780754112E+02 -0.35707628653E+02 -0.79325614607E+03  0.79496868227E+03  0.41800000000E+01 0. -1.
        -11    1    4    4    0    0  0.31230094463E+02  0.13693710589E+03 -0.45783989821E+03  0.47889921922E+03  0.00000000000E+00 0. -1.
         11    1    4    4    0    0 -0.24562382709E+02  0.70615116086E+01 -0.41730097846E+02  0.48934411785E+02  0.00000000000E+00 0.  1.
</event>
<event>
 8    1  0.7112384E-009  0.1081347E+03  0.7561462E-02  0.1264064E+00
          1   -1    0    0  501    0  0.00000000000E+00  0.00000000000E+00  0.57276368757E+02  0.57276368757E+02  0.00000000000E+00 0. -1.
         -1   -1    0    0    0  501 -0.00000000000E+00 -0.00000000000E+00 -0.47004238933E+03  0.47004238933E+03  0.00000000000E+00 0.  1.
         25    2    1    2    0    0  0.91059929647E+02  0.65765595028E+01 -0.35220821294E+03  0.38475125764E+03  0.12509093921E+03 0.  0.
         23    2    1    2    0    0 -0.91059929647E+02 -0.65765595028E+01 -0.60557807636E+02  0.14256750045E+03  0.91230927845E+02 0.  0.
          5    1    3    3  502    0  0.21239420320E+02 -0.86132646141E+01  0.20004070632E+01  0.23383227563E+02  0.41800000000E+01 0.  1.
         -5    1    3    3    0  502  0.69820509327E+02  0.15189824117E+02 -0.35420862000E+03  0.36136803008E+03  0.41800000000E+01 0.  1.
        -11    1    4    4    0    0 -0.33436975317E+02 -0.42054394753E+02 -0.51269399116E+02  0.74264087701E+02  0.00000000000E+00 0.  1.
         11    1    4    4    0    0 -0.57622954330E+02  0.35477835250E+02 -0.92884085199E+01  0.68303412745E+02  0.00000000000E+00 0. -1.
</event>
<event>
 8    1  0.7112384E-009  0.6641796E+02  0.7561462E-02  0.1372716E+00
          1   -1    0    0  501    0  0.00000000000E+00  0.00000000000E+00  0.10940423200E+03  0.10940423200E+03  0.00000000000E+00 0. -1.
         -1   -1    0    0    0  501 -0.00000000000E+00 -0.00000000000E+00 -0.16156698560E+03  0.16156698560E+03  0.00000000000E+00 0.  1.
         25    2    1    2    0    0 -0.12348032146E+02  0.19579439176E+02 -0.10705155639E+03  0.16626307582E+03  0.12509015277E+03 0.  0.
         23    2    1    2    0    0  0.12348032146E+02 -0.19579439176E+02  0.54888802798E+02  0.10470814178E+03  0.86111473952E+02 0.  0.
          5    1    3    3  502    0 -0.25783260045E+02 -0.30338876074E+02  0.73056459485E+01  0.40694824766E+02  0.41800000000E+01 0. -1.
         -5    1    3    3    0  502  0.13435227899E+02  0.49918315250E+02 -0.11435720234E+03  0.12556825105E+03  0.41800000000E+01 0. -1.
        -11    1    4    4    0    0  0.10880190119E+02  0.78838721952E+01 -0.20471001826E+02  0.24486647250E+02  0.00000000000E+00 0.  1.
         11    1    4    4    0    0  0.14678420265E+01 -0.27463311371E+02  0.75359804624E+02  0.80221494530E+02  0.00000000000E+00 0. -1.
</event>
<event>
 8    1  0.7112384E-009  0.7543235E+02  0.7561462E-02  0.1342537E+00
         -1   -1    0    0    0  501 -0.00000000000E+00  0.00000000000E+00  0.17027379155E+03  0.17027379155E+03  0.00000000000E+00 0.  1.
          1   -1    0    0  501    0  0.00000000000E+00 -0.00000000000E+00 -0.12022465218E+03  0.12022465218E+03  0.00000000000E+00 0. -1.
         25    2    1    2    0    0 -0.25252220074E+02  0.33619415991E+02  0.11416768452E+03  0.17449721849E+03  0.12508828610E+03 0.  0.
         23    2    1    2    0    0  0.25252220074E+02 -0.33619415991E+02 -0.64118545147E+02  0.11600122524E+03  0.87046864822E+02 0.  0.
          5    1    3    3  502    0 -0.24513262767E+02  0.51292371004E+01 -0.23047681538E+02  0.34291065148E+02  0.41800000000E+01 0.  1.
         -5    1    3    3    0  502 -0.73895730720E+00  0.28490178891E+02  0.13721536606E+03  0.14020615334E+03  0.41800000000E+01 0.  1.
        -11    1    4    4    0    0  0.51822857260E+02 -0.44158392111E+02 -0.44974391739E+02  0.81598211014E+02  0.00000000000E+00 0.  1.
         11    1    4    4    0    0 -0.26570637186E+02  0.10538976120E+02 -0.19144153409E+02  0.34403014226E+02  0.00000000000E+00 0. -1.
</event>
<event>
 8    1  0.7112384E-009  0.1117958E+03  0.7561462E-02  0.1257280E+00
          1   -1    0    0  501    0  0.00000000000E+00  0.00000000000E+00  0.31589571255E+03  0.31589571255E+03  0.00000000000E+00 0. -1.
         -1   -1    0    0    0  501 -0.00000000000E+00 -0.00000000000E+00 -0.39824894575E+02  0.39824894575E+02  0.00000000000E+00 0.  1.
         25    2    1    2    0    0  0.40444649995E+01  0.28893100821E+02  0.16768359348E+03  0.21122565265E+03  0.12508924751E+03 0.  0.
         23    2    1    2    0    0 -0.40444649995E+01 -0.28893100821E+02  0.10838722449E+03  0.14449495447E+03  0.90993584732E+02 0.  0.
          5    1    3    3  502    0  0.35851558464E+02  0.68521408095E+02  0.99596448323E+02  0.12616434730E+03  0.41800000000E+01 0.  1.
         -5    1    3    3    0  502 -0.31807093465E+02 -0.39628307274E+02  0.68087145161E+02  0.85061305352E+02  0.41800000000E+01 0.  1.
        -11    1    4    4    0    0 -0.47194791657E+02 -0.11090453399E+02  0.61792052189E+02  0.78540462374E+02  0.00000000000E+00 0. -1.
         11    1    4    4    0    0  0.43150326658E+02 -0.17802647422E+02  0.46595172305E+02  0.65954492099E+02  0.00000000000E+00 0.  1.
</event>
<event>
 8    1  0.7112384E-009  0.1128883E+03  0.7561462E-02  0.1255313E+00
          1   -1    0    0  501    0  0.00000000000E+00  0.00000000000E+00  0.41276359501E+03  0.41276359501E+03  0.00000000000E+00 0. -1.
         -1   -1    0    0    0  501 -0.00000000000E+00 -0.00000000000E+00 -0.59458182632E+02  0.59458182632E+02  0.00000000000E+00 0.  1.
         25    2    1    2    0    0 -0.39789146180E+02 -0.98798693901E+02  0.13830971529E+03  0.21475673302E+03  0.12508604623E+03 0.  0.
         23    2    1    2    0    0  0.39789146180E+02  0.98798693901E+02  0.21499569709E+03  0.25746504463E+03  0.93384909742E+02 0.  0.
          5    1    3    3  502    0 -0.26999514387E+02 -0.95217583357E+01 -0.18122444416E+02  0.34139904079E+02  0.41800000000E+01 0. -1.
         -5    1    3    3    0  502 -0.12789631793E+02 -0.89276935565E+02  0.15643215971E+03  0.18061682894E+03  0.41800000000E+01 0. -1.
        -11    1    4    4    0    0  0.17966805232E+02  0.48921448644E+02  0.19097622307E+03  0.19795967268E+03  0.00000000000E+00 0. -1.
         11    1    4    4    0    0  0.21822340948E+02  0.49877245257E+02  0.24019474019E+02  0.59505371950E+02  0.00000000000E+00 0.  1.
</event>
<event>
 8    1  0.7112384E-009  0.1066600E+03  0.7561462E-02  0.1266883E+00
         -1   -1    0    0    0  501 -0.00000000000E+00  0.00000000000E+00  0.46142187857E+02  0.46142187857E+02  0.00000000000E+00 0.  1.
          1   -1    0    0  501    0  0.00000000000E+00 -0.00000000000E+00 -0.26624953686E+03  0.26624953686E+03  0.00000000000E+00 0. -1.
         25    2    1    2    0    0 -0.15404029366E+01  0.12189503650E+02 -0.16348214675E+03  0.20621622841E+03  0.12509102171E+03 0.  0.
         23    2    1    2    0    0  0.15404029366E+01 -0.12189503650E+02 -0.56625202253E+02  0.10617549631E+03  0.88971150637E+02 0.  0.
          5    1    3    3  502    0 -0.54330344123E+02 -0.24063692855E+02 -0.60714509523E+02  0.85056285323E+02  0.41800000000E+01 0.  1.
         -5    1    3    3    0  502  0.52789941186E+02  0.36253196505E+02 -0.10276763723E+03  0.12115994309E+03  0.41800000000E+01 0.  1.
        -11    1    4    4    0    0 -0.34393822675E+02  0.21300525439E+02 -0.21734339812E+02  0.45924165199E+02  0.00000000000E+00 0.  1.
         11    1    4    4    0    0  0.35934225611E+02 -0.33490029088E+02 -0.34890862440E+02  0.60251331109E+02  0.00000000000E+00 0. -1.
</event>
<event>
 8    1  0.7112384E-009  0.1206468E+03  0.7561462E-02  0.1242034E+00
         -1   -1    0    0    0  501 -0.00000000000E+00  0.00000000000E+00  0.16435990232E+02  0.16435990232E+02  0.00000000000E+00 0. -1.
          1   -1    0    0  501    0  0.00000000000E+00 -0.00000000000E+00 -0.21640890484E+04  0.21640890484E+04  0.00000000000E+00 0.  1.
         25    2    1    2    0    0  0.51278735518E+02  0.24590939154E+02 -0.19620267829E+04  0.19668327164E+04  0.12509042578E+03 0.  0.
         23    2    1    2    0    0 -0.51278735518E+02 -0.24590939154E+02 -0.18562627535E+03  0.21369232228E+03  0.89292057292E+02 0.  0.
          5    1    3    3  502    0  0.89075403671E+02 -0.24436483349E+01 -0.14212697989E+04  0.14240666110E+04  0.41800000000E+01 0.  1.
         -5    1    3    3    0  502 -0.37796668154E+02  0.27034587489E+02 -0.54075698395E+03  0.54276610536E+03  0.41800000000E+01 0.  1.
        -11    1    4    4    0    0 -0.68519605557E+02  0.75718623440E+01 -0.13035556470E+03  0.14746132609E+03  0.00000000000E+00 0. -1.
         11    1    4    4    0    0  0.17240870039E+02 -0.32162801498E+02 -0.55270710653E+02  0.66230996187E+02  0.00000000000E+00 0.  1.
</event>
<event>
 8    1  0.7112384E-009  0.1493025E+03  0.7561462E-02  0.1201333E+00
          2   -1    0    0  501    0  0.00000000000E+00  0.00000000000E+00  0.66285370524E+03  0.66285370524E+03  0.00000000000E+00 0. -1.
         -2   -1    0    0    0  501 -0.00000000000E+00 -0.00000000000E+00 -0.65910278388E+02  0.65910278388E+02  0.00000000000E+00 0.  1.
         25    2    1    2    0    0 -0.88947592530E+02  0.84970431005E+02  0.54653779923E+03  0.57400522175E+03  0.12508709065E+03 0.  0.
         23    2    1    2    0    0  0.88947592530E+02 -0.84970431005E+02  0.50405627623E+02  0.15475876188E+03  0.79233192035E+02 0.  0.
          5    1    3    3  502    0 -0.44206540849E+02  0.11362184266E+03  0.36909383232E+03  0.38873110352E+03  0.41800000000E+01 0. -1.
         -5    1    3    3    0  502 -0.44741051681E+02 -0.28651411653E+02  0.17744396691E+03  0.18527411824E+03  0.41800000000E+01 0. -1.
        -11    1    4    4    0    0  0.49272328489E+02 -0.53029779705E+02  0.69511983172E+02  0.10035853573E+03  0.00000000000E+00 0. -1.
         11    1    4    4    0    0  0.39675264040E+02 -0.31940651300E+02 -0.19106355549E+02  0.54400226144E+02  0.00000000000E+00 0.  1.
</event>
<event>
 8    1  0.7112384E-009  0.1293534E+03  0.7561462E-02  0.1228418E+00
         -1   -1    0    0    0  501 -0.00000000000E+00  0.00000000000E+00  0.76497731339E+02  0.76497731339E+02  0.00000000000E+00 0.  1.
          1   -1    0    0  501    0  0.00000000000E+00 -0.00000000000E+00 -0.54361229592E+03  0.54361229592E+03  0.00000000000E+00 0. -1.
         25    2    1    2    0    0 -0.11491853635E+03  0.24671965153E+02 -0.43524841543E+03  0.46787217689E+03  0.12509282518E+03 0.  0.
         23    2    1    2    0    0  0.11491853635E+03 -0.24671965153E+02 -0.31866149148E+02  0.15223785037E+03  0.91356093177E+02 0.  0.
          5    1    3    3  502    0 -0.33806498648E+02  0.37308742861E+02 -0.33237975558E+03  0.33619725752E+03  0.41800000000E+01 0.  1.
         -5    1    3    3    0  502 -0.81112037706E+02 -0.12636777708E+02 -0.10286865986E+03  0.13167491937E+03  0.41800000000E+01 0.  1.
        -11    1    4    4    0    0  0.11444197625E+03 -0.13986441381E+02 -0.54257916859E+02  0.12742255692E+03  0.00000000000E+00 0. -1.
         11    1    4    4    0    0  0.47656010917E+00 -0.10685523772E+02  0.22391767711E+02  0.24815293450E+02  0.00000000000E+00 0.  1.
</event>
<event>
 8    1  0.7112384E-009  0.8765886E+02  0.7561462E-02  0.1308622E+00
         -2   -1    0    0    0  501 -0.00000000000E+00  0.00000000000E+00  0.16917565724E+03  0.16917565724E+03  0.00000000000E+00 0. -1.
          2   -1    0    0  501    0  0.00000000000E+00 -0.00000000000E+00 -0.95773302037E+02  0.95773302037E+02  0.00000000000E+00 0.  1.
         25    2    1    2    0    0 -0.35549766207E+02  0.35709107214E+02 -0.23209583839E+01  0.13487655205E+03  0.12508945291E+03 0.  0.
         23    2    1    2    0    0  0.35549766207E+02 -0.35709107214E+02  0.75723313586E+02  0.13007240723E+03  0.92983249495E+02 0.  0.
          5    1    3    3  502    0  0.23802629519E+02  0.35400260328E+02  0.42517241918E+02  0.60373271103E+02  0.41800000000E+01 0.  1.
         -5    1    3    3    0  502 -0.59352395726E+02  0.30884688638E+00 -0.44838200302E+02  0.74503280943E+02  0.41800000000E+01 0.  1.
        -11    1    4    4    0    0  0.18335655321E+02 -0.48276517880E+02  0.24423828698E+00  0.51641824978E+02  0.00000000000E+00 0.  1.
         11    1    4    4    0    0  0.17214110886E+02  0.12567410666E+02  0.75479075299E+02  0.78430582252E+02  0.00000000000E+00 0. -1.
</event>
<event>
 8    1  0.7112384E-009  0.1871514E+03  0.7561462E-02  0.1161056E+00
          2   -1    0    0  501    0  0.00000000000E+00  0.00000000000E+00  0.21628399041E+03  0.21628399041E+03  0.00000000000E+00 0. -1.
         -2   -1    0    0    0  501 -0.00000000000E+00 -0.00000000000E+00 -0.18314063364E+03  0.18314063364E+03  0.00000000000E+00 0.  1.
         25    2    1    2    0    0  0.13322257649E+03 -0.95920079729E+02 -0.93547452933E+01  0.20659867626E+03  0.12508631096E+03 0.  0.
         23    2    1    2    0    0 -0.13322257649E+03  0.95920079729E+02  0.42498102060E+02  0.19282594780E+03  0.91797826144E+02 0.  0.
          5    1    3    3  502    0  0.22084590727E+01 -0.72999112623E+02  0.63201912900E+00  0.73154764598E+02  0.41800000000E+01 0.  1.
         -5    1    3    3    0  502  0.13101411741E+03 -0.22920967106E+02 -0.99867644223E+01  0.13344391166E+03  0.41800000000E+01 0.  1.
        -11    1    4    4    0    0 -0.71281292458E+02  0.73015399909E+02 -0.17583778871E+02  0.10354448589E+03  0.00000000000E+00 0. -1.
         11    1    4    4    0    0 -0.61941284030E+02  0.22904679820E+02  0.60081880931E+02  0.89281461912E+02  0.00000000000E+00 0.  1.
</event>
<event>
 8    1  0.7112384E-009  0.4654281E+02  0.7561462E-02  0.1464934E+00
          2   -1    0    0  501    0  0.00000000000E+00  0.00000000000E+00  0.14629365122E+03  0.14629365122E+03  0.00000000000E+00 0. -1.
         -2   -1    0    0    0  501 -0.00000000000E+00 -0.00000000000E+00 -0.95299881882E+02  0.95299881882E+02  0.00000000000E+00 0.  1.
         25    2    1    2    0    0 -0.41834470736E+02  0.48588310052E+01  0.12645347328E+02  0.13260568043E+03  0.12510247996E+03 0.  0.
         23    2    1    2    0    0  0.41834470736E+02 -0.48588310052E+01  0.38348422007E+02  0.10898785267E+03  0.92919424124E+02 0.  0.
          5    1    3    3  502    0 -0.42745205611E+02  0.84604028634E+01  0.65869513127E+02  0.79088533801E+02  0.41800000000E+01 0.  1.
         -5    1    3    3    0  502  0.91073487455E+00 -0.36015718582E+01 -0.53224165798E+02  0.53517146624E+02  0.41800000000E+01 0.  1.
        -11    1    4    4    0    0  0.11087302700E+02  0.38922480056E+01 -0.30714164245E+02  0.32885221011E+02  0.00000000000E+00 0.  1.
         11    1    4    4    0    0  0.30747168036E+02 -0.87510790108E+01  0.69062586252E+02  0.76102631662E+02  0.00000000000E+00 0. -1.
</event>
<event>
 8    1  0.7112384E-009  0.1244785E+03  0.7561462E-02  0.1235887E+00
          2   -1    0    0  501    0  0.00000000000E+00  0.00000000000E+00  0.14105694987E+04  0.14105694987E+04  0.00000000000E+00 0.  1.
         -2   -1    0    0    0  501 -0.00000000000E+00 -0.00000000000E+00 -0.13420909106E+02  0.13420909106E+02  0.00000000000E+00 0. -1.
         25    2    1    2    0    0  0.47948398730E+02 -0.64040393694E+02  0.87901951954E+03  0.89147231179E+03  0.12508935203E+03 0.  0.
         23    2    1    2    0    0 -0.47948398730E+02  0.64040393694E+02  0.51812907003E+03  0.53251809599E+03  0.93367919457E+02 0.  0.
          5    1    3    3  502    0  0.63392757673E+02 -0.81062657703E+02  0.83768733051E+03  0.84399486509E+03  0.41800000000E+01 0. -1.
         -5    1    3    3    0  502 -0.15444358943E+02  0.17022264009E+02  0.41332189021E+02  0.47477446693E+02  0.41800000000E+01 0. -1.
        -11    1    4    4    0    0  0.22120030770E+02  0.44766080419E+02  0.23103322657E+03  0.23636761516E+03  0.00000000000E+00 0.  1.
         11    1    4    4    0    0 -0.70068429500E+02  0.19274313275E+02  0.28709584345E+03  0.29615048083E+03  0.00000000000E+00 0. -1.
</event>
<event>
 8    1  0.7112384E-009  0.1225420E+03  0.7561462E-02  0.1238962E+00
          2   -1    0    0  501    0  0.00000000000E+00  0.00000000000E+00  0.49617950771E+03  0.49617950771E+03  0.00000000000E+00 0. -1.
         -2   -1    0    0    0  501 -0.00000000000E+00 -0.00000000000E+00 -0.53124175384E+02  0.53124175384E+02  0.00000000000E+00 0.  1.
         25    2    1    2    0    0 -0.11194520604E+03  0.12532809116E+01  0.27641295868E+03  0.32339655098E+03  0.12509158882E+03 0.  0.
         23    2    1    2    0    0  0.11194520604E+03 -0.12532809116E+01  0.16664237364E+03  0.22590713211E+03  0.10359079001E+03 0.  0.
          5    1    3    3  502    0 -0.49977905012E+02  0.33518473995E+01  0.25145323670E+03  0.25642782321E+03  0.41800000000E+01 0.  1.
         -5    1    3    3    0  502 -0.61967301027E+02 -0.20985664878E+01  0.24959721976E+02  0.66968727768E+02  0.41800000000E+01 0.  1.
        -11    1    4    4    0    0 -0.59711095264E+01 -0.12871194834E+02 -0.68966897975E+01  0.15776125494E+02  0.00000000000E+00 0.  1.
         11    1    4    4    0    0  0.11791631556E+03  0.11617913923E+02  0.17353906344E+03  0.21013100661E+03  0.00000000000E+00 0. -1.
</event>
<event>
 8    1  0.7112384E-009  0.2613998E+03  0.7561462E-02  0.1106305E+00
          1   -1    0    0  501    0  0.00000000000E+00  0.00000000000E+00  0.44728598604E+03  0.44728598604E+03  0.00000000000E+00 0. -1.
         -1   -1    0    0    0  501 -0.00000000000E+00 -0.00000000000E+00 -0.22212387296E+03  0.22212387296E+03  0.00000000000E+00 0.  1.
         25    2    1    2    0    0 -0.75815700333E+02 -0.23704624327E+03  0.28359554282E+03  0.39750804728E+03  0.12508906381E+03 0.  0.
         23    2    1    2    0    0  0.75815700333E+02  0.23704624327E+03 -0.58433429745E+02  0.27190181172E+03  0.92613107272E+02 0.  0.
          5    1    3    3  502    0 -0.47895325650E+02 -0.23205575968E+03  0.20326404100E+03  0.31221399806E+03  0.41800000000E+01 0. -1.
         -5    1    3    3    0  502 -0.27920374684E+02 -0.49904835843E+01  0.80331501816E+02  0.85294049223E+02  0.41800000000E+01 0. -1.
        -11    1    4    4    0    0  0.84255214154E+02  0.17170973789E+03 -0.72483316790E+02  0.20454096512E+03  0.00000000000E+00 0.  1.
         11    1    4    4    0    0 -0.84395138202E+01  0.65336505379E+02  0.14049887045E+02  0.67360846600E+02  0.00000000000E+00 0. -1.
</event>
<event>
 8    1  0.7112384E-009  0.1209028E+03  0.7561462E-02  0.1241615E+00
          2   -1    0    0  501    0  0.00000000000E+00  0.00000000000E+00  0.73248408062E+03  0.73248408062E+03  0.00000000000E+00 0. -1.
         -2   -1    0    0    0  501 -0.00000000000E+00 -0.00000000000E+00 -0.41084514576E+02  0.41084514576E+02  0.00000000000E+00 0.  1.
         25    2    1    2    0    0 -0.84946279821E+02 -0.10231294870E+02  0.59833138857E+03  0.61722328591E+03  0.12507431495E+03 0.  0.
         23    2    1    2    0    0  0.84946279821E+02  0.10231294870E+02  0.93068177466E+02  0.15634530929E+03  0.91987065552E+02 0.  0.
          5    1    3    3  502    0 -0.26113377566E+02  0.34037880591E+02  0.60077993844E+02  0.73941352079E+02  0.41800000000E+01 0.  1.
         -5    1    3    3    0  502 -0.58832902256E+02 -0.44269175461E+02  0.53825339473E+03  0.54328193383E+03  0.41800000000E+01 0.  1.
        -11    1    4    4    0    0  0.72222389691E+02 -0.33352664738E+02  0.51344093923E+02  0.94682045809E+02  0.00000000000E+00 0.  1.
         11    1    4    4    0    0  0.12723890130E+02  0.43583959608E+02  0.41724083543E+02  0.61663263477E+02  0.00000000000E+00 0. -1.
</event>
<event>
 8    1  0.7112384E-009  0.2354869E+03  0.7561462E-02  0.1122836E+00
         -2   -1    0    0    0  501 -0.00000000000E+00  0.00000000000E+00  0.99297509502E+02  0.99297509502E+02  0.00000000000E+00 0. -1.
          2   -1    0    0  501    0  0.00000000000E+00 -0.00000000000E+00 -0.57541742746E+03  0.57541742746E+03  0.00000000000E+00 0.  1.
         25    2    1    2    0    0 -0.16639507469E+03  0.13463291573E+03 -0.22881182536E+03  0.33736108588E+03  0.12507720799E+03 0.  0.
         23    2    1    2    0    0  0.16639507469E+03 -0.13463291573E+03 -0.24730809260E+03  0.33735385109E+03  0.82661873297E+02 0.  0.
          5    1    3    3  502    0 -0.71775722899E+02 -0.95350438657E+01 -0.45331184909E+02  0.85528125108E+02  0.41800000000E+01 0. -1.
         -5    1    3    3    0  502 -0.94619351792E+02  0.14416795960E+03 -0.18348064045E+03  0.25183296077E+03  0.41800000000E+01 0. -1.
        -11    1    4    4    0    0  0.27514994524E+02 -0.65018404433E+02 -0.10593647794E+03  0.12730673665E+03  0.00000000000E+00 0.  1.
         11    1    4    4    0    0  0.13888008017E+03 -0.69614511301E+02 -0.14137161466E+03  0.21004711444E+03  0.00000000000E+00 0. -1.
</event>
<event>
 8    1  0.7112384E-009  0.1519669E+03  0.7561462E-02  0.1198077E+00
         -2   -1    0    0    0  501 -0.00000000000E+00  0.00000000000E+00  0.13311265047E+03  0.13311265047E+03  0.00000000000E+00 0. -1.
          2   -1    0    0  501    0  0.00000000000E+00 -0.00000000000E+00 -0.25113291577E+03  0.25113291577E+03  0.00000000000E+00 0.  1.
         25    2    1    2    0    0  0.36677276848E+02  0.13625751804E+03 -0.10327938744E+03  0.21500123262E+03  0.12509022464E+03 0.  0.
         23    2    1    2    0    0 -0.36677276848E+02 -0.13625751804E+03 -0.14740877855E+02  0.16924433362E+03  0.92276850421E+02 0.  0.
          5    1    3    3  502    0  0.52392162019E+02  0.92876556602E+02 -0.12455618448E+03  0.16402045269E+03  0.41800000000E+01 0. -1.
         -5    1    3    3    0  502 -0.15714885171E+02  0.43380961433E+02  0.21276797038E+02  0.50980779937E+02  0.41800000000E+01 0. -1.
        -11    1    4    4    0    0 -0.42018565802E+02 -0.53828648140E+02 -0.44430735180E+02  0.81468849638E+02  0.00000000000E+00 0.  1.
         11    1    4    4    0    0  0.53412889542E+01 -0.82428869896E+02  0.29689857325E+02  0.87775483980E+02  0.00000000000E+00 0. -1.
</event>
<event>
 8    1  0.7112384E-009  0.8749301E+02  0.7561462E-02  0.1309039E+00
          1   -1    0    0  501    0  0.00000000000E+00  0.00000000000E+00  0.58779913258E+02  0.58779913258E+02  0.00000000000E+00 0.  1.
         -1   -1    0    0    0  501 -0.00000000000E+00 -0.00000000000E+00 -0.27861077906E+03  0.27861077906E+03  0.00000000000E+00 0. -1.
         25    2    1    2    0    0  0.19985637707E+02 -0.59842134597E+02 -0.85901999787E+02  0.16434008751E+03  0.12509198219E+03 0.  0.
         23    2    1    2    0    0 -0.19985637707E+02  0.59842134597E+02 -0.13392886601E+03  0.17305060481E+03  0.89605043857E+02 0.  0.
          5    1    3    3  502    0 -0.26639530285E+02  0.80713241404E+01 -0.76266809115E+02  0.81295199242E+02  0.41800000000E+01 0. -1.
         -5    1    3    3    0  502  0.46625167993E+02 -0.67913458738E+02 -0.96351906720E+01  0.83044888267E+02  0.41800000000E+01 0. -1.
        -11    1    4    4    0    0 -0.18244575737E+02  0.35166928747E+02 -0.14169042747E+03  0.14712496273E+03  0.00000000000E+00 0. -1.
         11    1    4    4    0    0 -0.17410619703E+01  0.24675205850E+02  0.77615614624E+01  0.25925642073E+02  0.00000000000E+00 0.  1.
</event>
<event>
 8    1  0.7112384E-009  0.1117599E+03  0.7561462E-02  0.1257345E+00
          2   -1    0    0  501    0  0.00000000000E+00  0.00000000000E+00  0.79608961463E+03  0.79608961463E+03  0.00000000000E+00 0. -1.
         -2   -1    0    0    0  501 -0.00000000000E+00 -0.00000000000E+00 -0.17371486647E+02  0.17371486647E+02  0.00000000000E+00 0.  1.
         25    2    1    2    0    0 -0.50496003747E-01  0.44234139927E+02  0.43371701285E+03  0.45355817599E+03  0.12509160680E+03 0.  0.
         23    2    1    2    0    0  0.50496003747E-01 -0.44234139927E+02  0.34500111514E+03  0.35990292529E+03  0.92453688402E+02 0.  0.
          5    1    3    3  502    0 -0.54586330545E+02  0.41309360486E+02  0.32090591140E+03  0.32815271920E+03  0.41800000000E+01 0.  1.
         -5    1    3    3    0  502  0.54535834542E+02  0.29247794414E+01  0.11281110145E+03  0.12540545679E+03  0.41800000000E+01 0.  1.
        -11    1    4    4    0    0  0.13102164632E+01  0.27943558293E+02  0.13417749042E+03  0.13706260633E+03  0.00000000000E+00 0.  1.
         11    1    4    4    0    0 -0.12597204594E+01 -0.72177698220E+02  0.21082362471E+03  0.22284031896E+03  0.00000000000E+00 0. -1.
</event>
<event>
 8    1  0.7112384E-009  0.1127399E+03  0.7561462E-02  0.1255579E+00
         -1   -1    0    0    0  501 -0.00000000000E+00  0.00000000000E+00  0.44586779450E+02  0.44586779450E+02  0.00000000000E+00 0.  1.
          1   -1    0    0  501    0  0.00000000000E+00 -0.00000000000E+00 -0.64501998743E+03  0.64501998743E+03  0.00000000000E+00 0. -1.
         25    2    1    2    0    0 -0.82372212277E+02 -0.98486761520E+01 -0.53105951508E+03  0.55186414571E+03  0.12509056316E+03 0.  0.
         23    2    1    2    0    0  0.82372212277E+02  0.98486761520E+01 -0.69373692900E+02  0.13774262116E+03  0.85312031046E+02 0.  0.
          5    1    3    3  502    0 -0.10276806066E+03  0.26884377571E+01 -0.25850105022E+03  0.27822431122E+03  0.41800000000E+01 0.  1.
         -5    1    3    3    0  502  0.20395848380E+02 -0.12537113909E+02 -0.27255846486E+03  0.27363983450E+03  0.41800000000E+01 0.  1.
        -11    1    4    4    0    0  0.57429549438E+02  0.31286698350E+02 -0.51674282596E+01  0.65602690167E+02  0.00000000000E+00 0. -1.
         11    1    4    4    0    0  0.24942662839E+02 -0.21438022198E+02 -0.64206264641E+02  0.72139930998E+02  0.00000000000E+00 0.  1.
</event>
<event>
 8    1  0.7112384E-009  0.1838248E+03  0.7561462E-02  0.1164152E+00
          2   -1    0    0  501    0  0.00000000000E+00  0.00000000000E+00  0.64498241237E+03  0.64498241237E+03  0.00000000000E+00 0.  1.
         -2   -1    0    0    0  501 -0.00000000000E+00 -0.00000000000E+00 -0.71192485701E+02  0.71192485701E+02  0.00000000000E+00 0. -1.
         25    2    1    2    0    0 -0.23689141314E+02  0.15714483179E+03  0.45546812114E+03  0.49834976577E+03  0.12508239723E+03 0.  0.
         23    2    1    2    0    0  0.23689141314E+02 -0.15714483179E+03  0.11832180553E+03  0.21782513230E+03  0.90510027208E+02 0.  0.
          5    1    3    3  502    0 -0.58555551845E+02  0.13032301497E+03  0.41311140036E+03  0.43713995744E+03  0.41800000000E+01 0.  1.
         -5    1    3    3    0  502  0.34866410532E+02  0.26821816819E+02  0.42356720778E+02  0.61209808331E+02  0.41800000000E+01 0.  1.
        -11    1    4    4    0    0  0.55601518775E+02 -0.84133420567E+02  0.83242077691E+02  0.13076392792E+03  0.00000000000E+00 0.  1.
         11    1    4    4    0    0 -0.31912377462E+02 -0.73011411218E+02  0.35079727842E+02  0.87061204384E+02  0.00000000000E+00 0. -1.
</event>
<event>
 8    1  0.7112384E-009  0.1147257E+03  0.7561462E-02  0.1252061E+00
         -2   -1    0    0    0  501 -0.00000000000E+00  0.00000000000E+00  0.50017769545E+03  0.50017769545E+03  0.00000000000E+00 0.  1.
          2   -1    0    0  501    0  0.00000000000E+00 -0.00000000000E+00 -0.33041430605E+02  0.33041430605E+02  0.00000000000E+00 0. -1.
         25    2    1    2    0    0  0.29755766694E+01  0.45322218630E+02  0.16073257827E+03  0.20867460269E+03  0.12508865068E+03 0.  0.
         23    2    1    2    0    0 -0.29755766694E+01 -0.45322218630E+02  0.30640368657E+03  0.32454452337E+03  0.96865736694E+02 0.  0.
          5    1    3    3  502    0 -0.49722054702E+02  0.48482867204E+02  0.12999869695E+03  0.14744492106E+03  0.41800000000E+01 0.  1.
         -5    1    3    3    0  502  0.52697631371E+02 -0.31606485736E+01  0.30733881323E+02  0.61229681632E+02  0.41800000000E+01 0.  1.
        -11    1    4    4    0    0 -0.74379507445E+01 -0.75777039862E+02  0.22321912246E+03  0.23584795847E+03  0.00000000000E+00 0.  1.
         11    1    4    4    0    0  0.44623740751E+01  0.30454821232E+02  0.83184564112E+02  0.88696564900E+02  0.00000000000E+00 0. -1.
</event>
<event>
 8    1  0.7112384E-009  0.8889711E+02  0.7561462E-02  0.1305545E+00
         -1   -1    0    0    0  501 -0.00000000000E+00  0.00000000000E+00  0.39767345462E+02  0.39767345462E+02  0.00000000000E+00 0.  1.
          1   -1    0    0  501    0  0.00000000000E+00 -0.00000000000E+00 -0.36552935475E+03  0.36552935475E+03  0.00000000000E+00 0. -1.
         25    2    1    2    0    0  0.26549098411E+02 -0.19822619732E+02 -0.11530441052E+03  0.17332411076E+03  0.12509336275E+03 0.  0.
         23    2    1    2    0    0 -0.26549098411E+02  0.19822619732E+02 -0.21045759876E+03  0.23197258945E+03  0.91766499884E+02 0.  0.
          5    1    3    3  502    0 -0.25034134191E+02 -0.11295883349E+02 -0.11758724493E+03  0.12082440741E+03  0.41800000000E+01 0. -1.
         -5    1    3    3    0  502  0.51583232602E+02 -0.85267363829E+01  0.22828344041E+01  0.52499703351E+02  0.41800000000E+01 0. -1.
        -11    1    4    4    0    0  0.31985158252E+02  0.22275695022E+02 -0.83456753464E+02  0.92110187471E+02  0.00000000000E+00 0. -1.
         11    1    4    4    0    0 -0.58534256664E+02 -0.24530752909E+01 -0.12700084530E+03  0.13986240198E+03  0.00000000000E+00 0.  1.
</event>
<event>
 8    1  0.7112384E-009  0.1519320E+03  0.7561462E-02  0.1198119E+00
          1   -1    0    0  501    0  0.00000000000E+00  0.00000000000E+00  0.78667944782E+02  0.78667944782E+02  0.00000000000E+00 0. -1.
         -1   -1    0    0    0  501 -0.00000000000E+00 -0.00000000000E+00 -0.29974767027E+03  0.29974767027E+03  0.00000000000E+00 0.  1.
         25    2    1    2    0    0  0.27999575489E+02 -0.10390426464E+03 -0.13064133897E+03  0.21046253509E+03  0.12508895551E+03 0.  0.
         23    2    1    2    0    0 -0.27999575489E+02  0.10390426464E+03 -0.90438386511E+02  0.16795307996E+03  0.91918784126E+02 0.  0.
          5    1    3    3  502    0  0.58280084896E+02 -0.19317851018E+01 -0.49653738777E+02  0.76702452788E+02  0.41800000000E+01 0.  1.
         -5    1    3    3    0  502 -0.30280509407E+02 -0.10197247953E+03 -0.80987600197E+02  0.13376008230E+03  0.41800000000E+01 0.  1.
        -11    1    4    4    0    0  0.23081809439E+02  0.78643364123E+02 -0.68757331932E+02  0.10698186455E+03  0.00000000000E+00 0.  1.
         11    1    4    4    0    0 -0.51081384928E+02  0.25260900512E+02 -0.21681054579E+02  0.60971215410E+02  0.00000000000E+00 0. -1.
</event>
<event>
 8    1  0.7112384E-009  0.1195141E+03  0.7561462E-02  0.1243901E+00
         -2   -1    0    0    0  501 -0.00000000000E+00  0.00000000000E+00  0.88118010418E+02  0.88118010418E+02  0.00000000000E+00 0.  1.
          2   -1    0    0  501    0  0.00000000000E+00 -0.00000000000E+00 -0.20999252715E+03  0.20999252715E+03  0.00000000000E+00 0. -1.
         25    2    1    2    0    0 -0.24669573495E+02  0.60207812861E+02 -0.12397571408E+02  0.14154625393E+03  0.12509226051E+03 0.  0.
         23    2    1    2    0    0  0.24669573495E+02 -0.60207812861E+02 -0.10947694533E+03  0.15656428364E+03  0.91069230629E+02 0.  0.
          5    1    3    3  502    0 -0.73269325446E+01 -0.36603187544E+02  0.13229616385E+02  0.39824269342E+02  0.41800000000E+01 0. -1.
         -5    1    3    3    0  502 -0.17342640950E+02  0.96811000405E+02 -0.25627187792E+02  0.10172198459E+03  0.41800000000E+01 0. -1.
        -11    1    4    4    0    0 -0.99633462422E+01 -0.66996066883E+02 -0.40064233113E+02  0.78694879256E+02  0.00000000000E+00 0.  1.
         11    1    4    4    0    0  0.34632919737E+02  0.67882540222E+01 -0.69412712212E+02  0.77869404383E+02  0.00000000000E+00 0. -1.
</event>
<event>
 8    1  0.7112384E-009  0.1642764E+03  0.7561462E-02  0.1183952E+00
          2   -1    0    0  501    0  0.00000000000E+00  0.00000000000E+00  0.16867384709E+04  0.16867384709E+04  0.00000000000E+00 0. -1.
         -2   -1    0    0    0  501 -0.00000000000E+00 -0.00000000000E+00 -0.23038018356E+02  0.23038018356E+02  0.00000000000E+00 0.  1.
         25    2    1    2    0    0 -0.12628967360E+03 -0.53297584004E+02  0.12714791233E+04  0.12849502186E+04  0.12509272183E+03 0.  0.
         23    2    1    2    0    0  0.12628967360E+03  0.53297584004E+02  0.39222132921E+03  0.42482627067E+03  0.88600649244E+02 0.  0.
          5    1    3    3  502    0 -0.14691520022E+03 -0.64834340360E+02  0.11450742731E+04  0.11562872182E+04  0.41800000000E+01 0. -1.
         -5    1    3    3    0  502  0.20625526628E+02  0.11536756356E+02  0.12640485024E+03  0.12866300035E+03  0.41800000000E+01 0. -1.
        -11    1    4    4    0    0  0.11435765946E+03  0.61100256388E+02  0.38923264519E+03  0.41025963449E+03  0.00000000000E+00 0. -1.
         11    1    4    4    0    0  0.11932014132E+02 -0.78026723838E+01  0.29886840247E+01  0.14566636186E+02  0.00000000000E+00 0.  1.
</event>
<event>
 8    1  0.7112384E-009  0.2942588E+03  0.7561462E-02  0.1088146E+00
          2   -1    0    0  501    0  0.00000000000E+00  0.00000000000E+00  0.16121847951E+04  0.16121847951E+04  0.00000000000E+00 0. -1.
         -2   -1    0    0    0  501 -0.00000000000E+00 -0.00000000000E+00 -0.57120882561E+02  0.57120882561E+02  0.00000000000E+00 0.  1.
         25    2    1    2    0    0  0.11486475626E+03 -0.25871740430E+03  0.76822867946E+03  0.82822177849E+03  0.12508957952E+03 0.  0.
         23    2    1    2    0    0 -0.11486475626E+03  0.25871740430E+03  0.78683523308E+03  0.84108389917E+03  0.90464545025E+02 0.  0.
          5    1    3    3  502    0  0.62107312806E+02 -0.21132536870E+03  0.43616758226E+03  0.48864645908E+03  0.41800000000E+01 0.  1.
         -5    1    3    3    0  502  0.52757443457E+02 -0.47392035601E+02  0.33206109720E+03  0.33957531941E+03  0.41800000000E+01 0.  1.
        -11    1    4    4    0    0  0.33801437317E+01  0.95846747040E+02  0.25382406499E+03  0.27133868183E+03  0.00000000000E+00 0.  1.
         11    1    4    4    0    0 -0.11824489999E+03  0.16287065726E+03  0.53301116808E+03  0.56974521733E+03  0.00000000000E+00 0. -1.
</event>
<event>
 8    1  0.7112384E-009  0.9746324E+02  0.7561462E-02  0.1285723E+00
          3   -1    0    0  501    0  0.00000000000E+00  0.00000000000E+00  0.52625170446E+02  0.52625170446E+02  0.00000000000E+00 0. -1.
         -3   -1    0    0    0  501 -0.00000000000E+00 -0.00000000000E+00 -0.32698005145E+03  0.32698005145E+03  0.00000000000E+00 0.  1.
         25    2    1    2    0    0 -0.83522863445E+01 -0.23115164283E+02 -0.25217829158E+03  0.28257018793E+03  0.12509176174E+03 0.  0.
         23    2    1    2    0    0  0.83522863445E+01  0.23115164283E+02 -0.22176589427E+02  0.97035033968E+02  0.91213623936E+02 0.  0.
          5    1    3    3  502    0 -0.61305212912E+02 -0.12445182651E+02 -0.19011451340E+03  0.20018544479E+03  0.41800000000E+01 0.  1.
         -5    1    3    3    0  502  0.52952926567E+02 -0.10669981631E+02 -0.62063778184E+02  0.82384743141E+02  0.41800000000E+01 0.  1.
        -11    1    4    4    0    0  0.52566353012E+01 -0.27169193518E+02  0.17643181971E+02  0.32818884216E+02  0.00000000000E+00 0. -1.
         11    1    4    4    0    0  0.30956510433E+01  0.50284357800E+02 -0.39819771398E+02  0.64216149752E+02  0.00000000000E+00 0.  1.
</event>
<event>
 8    1  0.7112384E-009  0.7037941E+02  0.7561462E-02  0.1358808E+00
          2   -1    0    0  501    0  0.00000000000E+00  0.00000000000E+00  0.12039713975E+03  0.12039713975E+03  0.00000000000E+00 0. -1.
         -2   -1    0    0    0  501 -0.00000000000E+00 -0.00000000000E+00 -0.10579595117E+03  0.10579595117E+03  0.00000000000E+00 0.  1.
         25    2    1    2    0    0  0.29531096366E+02 -0.80861273473E+01  0.36433519964E+01  0.12883406781E+03  0.12508985533E+03 0.  0.
         23    2    1    2    0    0 -0.29531096366E+02  0.80861273473E+01  0.10957836584E+02  0.97359023117E+02  0.91767282251E+02 0.  0.
          5    1    3    3  502    0  0.48813464731E+02 -0.84372777443E+00  0.54809852747E+02  0.73519103462E+02  0.41800000000E+01 0.  1.
         -5    1    3    3    0  502 -0.19282368366E+02 -0.72423995729E+01 -0.51166500751E+02  0.55314964344E+02  0.41800000000E+01 0.  1.
        -11    1    4    4    0    0 -0.34409114285E+02  0.31605856609E+02 -0.25858193903E+02  0.53400032863E+02  0.00000000000E+00 0.  1.
         11    1    4    4    0    0  0.48780179190E+01 -0.23519729261E+02  0.36816030487E+02  0.43958990254E+02  0.00000000000E+00 0. -1.
</event>
<event>
 8    1  0.7112384E-009  0.4778209E+02  0.7561462E-02  0.1457685E+00
          2   -1    0    0  501    0  0.00000000000E+00  0.00000000000E+00  0.26465932077E+03  0.26465932077E+03  0.00000000000E+00 0. -1.
         -2   -1    0    0    0  501 -0.00000000000E+00 -0.00000000000E+00 -0.46212571304E+02  0.46212571304E+02  0.00000000000E+00 0.  1.
         25    2    1    2    0    0  0.14688914146E+02  0.17998121180E+02  0.13188630338E+03  0.18325071005E+03  0.12508848527E+03 0.  0.
         23    2    1    2    0    0 -0.14688914146E+02 -0.17998121180E+02  0.86560446082E+02  0.12762118203E+03  0.90855702691E+02 0.  0.
          5    1    3    3  502    0 -0.20633448647E+01  0.44034536972E+01  0.15278793569E+03  0.15292244272E+03  0.41800000000E+01 0. -1.
         -5    1    3    3    0  502  0.16752259010E+02  0.13594667483E+02 -0.20901632304E+02  0.30328267324E+02  0.41800000000E+01 0. -1.
        -11    1    4    4    0    0 -0.61535638414E+01 -0.41613282658E+02  0.92676686257E+02  0.10177671550E+03  0.00000000000E+00 0. -1.
         11    1    4    4    0    0 -0.85353503043E+01  0.23615161478E+02 -0.61162401747E+01  0.25844466532E+02  0.00000000000E+00 0.  1.
</event>
<event>
 8    1  0.7112384E-009  0.1669614E+03  0.7561462E-02  0.1181054E+00
         -2   -1    0    0    0  501 -0.00000000000E+00  0.00000000000E+00  0.30548177516E+02  0.30548177516E+02  0.00000000000E+00 0.  1.
          2   -1    0    0  501    0  0.00000000000E+00 -0.00000000000E+00 -0.16556533454E+04  0.16556533454E+04  0.00000000000E+00 0. -1.
         25    2    1    2    0    0  0.10855951052E+03  0.64666534719E+02 -0.14022169200E+04  0.14134449721E+04  0.12508984894E+03 0.  0.
         23    2    1    2    0    0 -0.10855951052E+03 -0.64666534719E+02 -0.22288824791E+03  0.27275655087E+03  0.93541632171E+02 0.  0.
          5    1    3    3  502    0  0.38499403828E+01  0.72353247024E+02 -0.60196661730E+03  0.60632589846E+03  0.41800000000E+01 0.  1.
         -5    1    3    3    0  502  0.10470957014E+03 -0.76867123041E+01 -0.80025030272E+03  0.80711907364E+03  0.41800000000E+01 0.  1.
        -11    1    4    4    0    0  0.83893373178E+01 -0.34486012854E+02 -0.38812704046E+02  0.52593650364E+02  0.00000000000E+00 0. -1.
         11    1    4    4    0    0 -0.11694884784E+03 -0.30180521865E+02 -0.18407554386E+03  0.22016290050E+03  0.00000000000E+00 0.  1.
</event>
<event>
 8    1  0.7112384E-009  0.8538816E+02  0.7561462E-02  0.1314421E+00
         -2   -1    0    0    0  501 -0.00000000000E+00  0.00000000000E+00  0.10649921782E+02  0.10649921782E+02  0.00000000000E+00 0.  1.
          2   -1    0    0  501    0  0.00000000000E+00 -0.00000000000E+00 -0.20100389972E+04  0.20100389972E+04  0.00000000000E+00 0. -1.
         25    2    1    2    0    0  0.37608792885E+01  0.60588450556E+02 -0.16152368576E+04  0.16212107787E+04  0.12509667546E+03 0.  0.
         23    2    1    2    0    0 -0.37608792885E+01 -0.60588450556E+02 -0.38415221785E+03  0.39947814033E+03  0.91240087514E+02 0.  0.
          5    1    3    3  502    0  0.59780635082E+00  0.99047458489E+01 -0.86375547741E+01  0.13803663109E+02  0.41800000000E+01 0.  1.
         -5    1    3    3    0  502  0.31630729377E+01  0.50683704707E+02 -0.16065993028E+04  0.16074071156E+04  0.41800000000E+01 0.  1.
        -11    1    4    4    0    0 -0.44904220428E+02 -0.14303957211E+02 -0.14674006174E+03  0.15412215261E+03  0.00000000000E+00 0.  1.
         11    1    4    4    0    0  0.41143341139E+02 -0.46284493346E+02 -0.23741215611E+03  0.24535598772E+03  0.00000000000E+00 0. -1.
</event>
<event>
 8    1  0.7112384E-009  0.7643278E+02  0.7561462E-02  0.1339491E+00
          1   -1    0    0  501    0  0.00000000000E+00  0.00000000000E+00  0.92573807190E+02  0.92573807190E+02  0.00000000000E+00 0. -1.
         -1   -1    0    0    0  501 -0.00000000000E+00 -0.00000000000E+00 -0.18281095578E+03  0.18281095578E+03  0.00000000000E+00 0.  1.
         25    2    1    2    0    0 -0.15191028894E+02  0.49060587817E+02 -0.10376339915E+03  0.17044580303E+03  0.12508884895E+03 0.  0.
         23    2    1    2    0    0  0.15191028894E+02 -0.49060587817E+02  0.13526250556E+02  0.10493895994E+03  0.90507000966E+02 0.  0.
          5    1    3    3  502    0 -0.12215168514E+02  0.24974489977E+02  0.26043656397E+02  0.38323360109E+02  0.41800000000E+01 0. -1.
         -5    1    3    3    0  502 -0.29758603794E+01  0.24086097840E+02 -0.12980705554E+03  0.13212244292E+03  0.41800000000E+01 0. -1.
        -11    1    4    4    0    0  0.13596531456E+00  0.24772275573E+02 -0.88959624521E+01  0.26321517273E+02  0.00000000000E+00 0.  1.
         11    1    4    4    0    0  0.15055063579E+02 -0.73832863390E+02  0.22422213008E+02  0.78617442669E+02  0.00000000000E+00 0. -1.
</event>
<event>
 8    1  0.7112384E-009  0.1454184E+03  0.7561462E-02  0.1206219E+00
         -1   -1    0    0    0  501 -0.00000000000E+00  0.00000000000E+00  0.15191292388E+03  0.15191292388E+03  0.00000000000E+00 0.  1.
          1   -1    0    0  501    0  0.00000000000E+00 -0.00000000000E+00 -0.16454661132E+03  0.16454661132E+03  0.00000000000E+00 0. -1.
         25    2    1    2    0    0 -0.54525028757E+02 -0.95848505182E+02 -0.34958903347E+02  0.17037882432E+03  0.12508758590E+03 0.  0.
         23    2    1    2    0    0  0.54525028757E+02  0.95848505182E+02  0.22325215903E+02  0.14608071088E+03  0.93173194215E+02 0.  0.
          5    1    3    3  502    0 -0.46227882165E+02  0.94255556238E+01 -0.43556172520E+02  0.64346489826E+02  0.41800000000E+01 0. -1.
         -5    1    3    3    0  502 -0.82971465917E+01 -0.10527406081E+03  0.85972691734E+01  0.10603233449E+03  0.41800000000E+01 0. -1.
        -11    1    4    4    0    0  0.41263720498E+02  0.23836147748E+00  0.27216086087E+02  0.49431435215E+02  0.00000000000E+00 0.  1.
         11    1    4    4    0    0  0.13261308259E+02  0.95610143704E+02 -0.48908701839E+01  0.96649275667E+02  0.00000000000E+00 0. -1.
</event>
<event>
 8    1  0.7112384E-009  0.1162094E+03  0.7561462E-02  0.1249485E+00
         -2   -1    0    0    0  501 -0.00000000000E+00  0.00000000000E+00  0.30289253976E+02  0.30289253976E+02  0.00000000000E+00 0. -1.
          2   -1    0    0  501    0  0.00000000000E+00 -0.00000000000E+00 -0.21116733030E+04  0.21116733030E+04  0.00000000000E+00 0.  1.
         25    2    1    2    0    0  0.10448455384E+03  0.21238780691E+02 -0.19278176151E+04  0.19348115666E+04  0.12508770309E+03 0.  0.
         23    2    1    2    0    0 -0.10448455384E+03 -0.21238780691E+02 -0.15356643386E+03  0.20715099029E+03  0.89223177317E+02 0.  0.
          5    1    3    3  502    0  0.10931040723E+03  0.30462953982E+02 -0.19122744995E+04  0.19156429705E+04  0.41800000000E+01 0. -1.
         -5    1    3    3    0  502 -0.48258533884E+01 -0.92241732912E+01 -0.15543115599E+02  0.19168596097E+02  0.41800000000E+01 0. -1.
        -11    1    4    4    0    0 -0.12632225577E+02 -0.77243998951E+01  0.10833870233E+02  0.18346994876E+02  0.00000000000E+00 0. -1.
         11    1    4    4    0    0 -0.91852328267E+02 -0.13514380796E+02 -0.16440030410E+03  0.18880399541E+03  0.00000000000E+00 0.  1.
</event>
<event>
 8    1  0.7112384E-009  0.2412991E+03  0.7561462E-02  0.1118930E+00
          2   -1    0    0  501    0  0.00000000000E+00  0.00000000000E+00  0.18433058829E+04  0.18433058829E+04  0.00000000000E+00 0. -1.
         -2   -1    0    0    0  501 -0.00000000000E+00 -0.00000000000E+00 -0.37686106881E+02  0.37686106881E+02  0.00000000000E+00 0.  1.
         25    2    1    2    0    0  0.21717021025E+03  0.71896598574E+02  0.11817757380E+04  0.12101959931E+04  0.12509366774E+03 0.  0.
         23    2    1    2    0    0 -0.21717021025E+03 -0.71896598574E+02  0.62384403798E+03  0.67079599663E+03  0.91944898015E+02 0.  0.
          5    1    3    3  502    0  0.21283606795E+03  0.36852030280E+02  0.11001386648E+04  0.11211511130E+04  0.41800000000E+01 0.  1.
         -5    1    3    3    0  502  0.43341422930E+01  0.35044568294E+02  0.81637073230E+02  0.89044880155E+02  0.41800000000E+01 0.  1.
        -11    1    4    4    0    0 -0.12567835097E+02 -0.13009602894E+02  0.91439246096E+01  0.20268487949E+02  0.00000000000E+00 0.  1.
         11    1    4    4    0    0 -0.20460237515E+03 -0.58886995680E+02  0.61470011337E+03  0.65052750868E+03  0.00000000000E+00 0. -1.
</event>
<event>
 8    1  0.7112384E-009  0.1115741E+03  0.7561462E-02  0.1257682E+00
          1   -1    0    0  501    0  0.00000000000E+00  0.00000000000E+00  0.76567328891E+03  0.76567328891E+03  0.00000000000E+00 0. -1.
         -1   -1    0    0    0  501 -0.00000000000E+00 -0.00000000000E+00 -0.37630945667E+02  0.37630945667E+02  0.00000000000E+00 0.  1.
         25    2    1    2    0    0 -0.76716087565E+02  0.45045915460E+02  0.60759331232E+03  0.62668285433E+03  0.12508906486E+03 0.  0.
         23    2    1    2    0    0  0.76716087565E+02 -0.45045915460E+02  0.12044903093E+03  0.17662138025E+03  0.93662427468E+02 0.  0.
          5    1    3    3  502    0  0.19941123313E+00  0.50032364706E+02  0.87405761257E+02  0.10079938881E+03  0.41800000000E+01 0.  1.
         -5    1    3    3    0  502 -0.76915498798E+02 -0.49864492464E+01  0.52018755106E+03  0.52588346552E+03  0.41800000000E+01 0.  1.
        -11    1    4    4    0    0  0.31364908075E+02 -0.38924053769E+02  0.12093196220E+03  0.13085632924E+03  0.00000000000E+00 0. -1.
         11    1    4    4    0    0  0.45351179490E+02 -0.61218616912E+01 -0.48293126933E+00  0.45765051014E+02  0.00000000000E+00 0.  1.
</event>
<event>
 8    1  0.7112384E-009  0.1451525E+03  0.7561462E-02  0.1206559E+00
         -2   -1    0    0    0  501 -0.00000000000E+00  0.00000000000E+00  0.18604631005E+03  0.18604631005E+03  0.00000000000E+00 0.  1.
          2   -1    0    0  501    0  0.00000000000E+00 -0.00000000000E+00 -0.19659173565E+03  0.19659173565E+03  0.00000000000E+00 0. -1.
         25    2    1    2    0    0  0.12540675802E+02  0.11614431913E+03  0.99215357087E+02  0.19783252695E+03  0.12508896922E+03 0.  0.
         23    2    1    2    0    0 -0.12540675802E+02 -0.11614431913E+03 -0.10976078269E+03  0.18480551875E+03  0.91972163889E+02 0.  0.
          5    1    3    3  502    0 -0.55218408180E+02  0.36610840346E+02  0.43249769544E+02  0.79230304798E+02  0.41800000000E+01 0.  1.
         -5    1    3    3    0  502  0.67759083982E+02  0.79533478782E+02  0.55965587543E+02  0.11860222215E+03  0.41800000000E+01 0.  1.
        -11    1    4    4    0    0 -0.20007610738E+02 -0.86280004250E+02 -0.21234050364E+02  0.91079243056E+02  0.00000000000E+00 0.  1.
         11    1    4    4    0    0  0.74669349358E+01 -0.29864314879E+02 -0.88526732322E+02  0.93726275697E+02  0.00000000000E+00 0. -1.
</event>
<event>
 8    1  0.7112384E-009  0.1136132E+03  0.7561462E-02  0.1254021E+00
          2   -1    0    0  501    0  0.00000000000E+00  0.00000000000E+00  0.66987262968E+03  0.66987262968E+03  0.00000000000E+00 0. -1.
         -2   -1    0    0    0  501 -0.00000000000E+00 -0.00000000000E+00 -0.26246764145E+02  0.26246764145E+02  0.00000000000E+00 0.  1.
         25    2    1    2    0    0  0.72580429547E+02  0.18644263846E+02  0.32967741516E+03  0.36048631183E+03  0.12509058967E+03 0.  0.
         23    2    1    2    0    0 -0.72580429547E+02 -0.18644263846E+02  0.31394845038E+03  0.33563308200E+03  0.92034824433E+02 0.  0.
          5    1    3    3  502    0  0.63511868379E+02 -0.22457245396E+02  0.30311861648E+03  0.31054219255E+03  0.41800000000E+01 0.  1.
         -5    1    3    3    0  502  0.90685611676E+01  0.41101509241E+02  0.26558798677E+02  0.49944119281E+02  0.41800000000E+01 0.  1.
        -11    1    4    4    0    0 -0.77976833916E+02 -0.45338863099E+02  0.25996637644E+03  0.27516997659E+03  0.00000000000E+00 0. -1.
         11    1    4    4    0    0  0.53964043686E+01  0.26694599253E+02  0.53982073937E+02  0.60463105411E+02  0.00000000000E+00 0.  1.
</event>
<event>
 8    1  0.7112384E-009  0.9086060E+02  0.7561462E-02  0.1300781E+00
         -4   -1    0    0    0  501 -0.00000000000E+00  0.00000000000E+00  0.84229121693E+02  0.84229121693E+02  0.00000000000E+00 0.  1.
          4   -1    0    0  501    0  0.00000000000E+00 -0.00000000000E+00 -0.15476905460E+03  0.15476905460E+03  0.00000000000E+00 0. -1.
         25    2    1    2    0    0 -0.29062868107E+01 -0.19561252124E+02 -0.11400362372E+02  0.12715611407E+03  0.12509044725E+03 0.  0.
         23    2    1    2    0    0  0.29062868107E+01  0.19561252124E+02 -0.59139570534E+02  0.11184206223E+03  0.92844326657E+02 0.  0.
          5    1    3    3  502    0 -0.15561867231E+02 -0.64540188611E+02  0.21440610913E+02  0.69891200118E+02  0.41800000000E+01 0.  1.
         -5    1    3    3    0  502  0.12655580420E+02  0.44978936486E+02 -0.32840973285E+02  0.57264913948E+02  0.41800000000E+01 0.  1.
        -11    1    4    4    0    0  0.33857613338E+02  0.14885552058E+02 -0.69617726740E+02  0.78832388759E+02  0.00000000000E+00 0. -1.
         11    1    4    4    0    0 -0.30951326527E+02  0.46757000669E+01  0.10478156206E+02  0.33009673467E+02  0.00000000000E+00 0.  1.
</event>
<event>
 8    1  0.7112384E-009  0.3231164E+03  0.7561462E-02  0.1074224E+00
          2   -1    0    0  501    0  0.00000000000E+00  0.00000000000E+00  0.13417972920E+04  0.13417972920E+04  0.00000000000E+00 0. -1.
         -2   -1    0    0    0  501 -0.00000000000E+00 -0.00000000000E+00 -0.86818977172E+02  0.86818977172E+02  0.00000000000E+00 0.  1.
         25    2    1    2    0    0 -0.29616767033E+02 -0.31727248317E+03  0.52292798398E+03  0.62501233669E+03  0.12509101931E+03 0.  0.
         23    2    1    2    0    0  0.29616767033E+02  0.31727248317E+03  0.73205033086E+03  0.80360393250E+03  0.91337899861E+02 0.  0.
          5    1    3    3  502    0  0.11827741665E+02 -0.23266918597E+03  0.44644949734E+03  0.50359653657E+03  0.41800000000E+01 0. -1.
         -5    1    3    3    0  502 -0.41444508697E+02 -0.84603297202E+02  0.76478486646E+02  0.12141580012E+03  0.41800000000E+01 0. -1.
        -11    1    4    4    0    0  0.15544592255E+02  0.22994416546E+03  0.41790253847E+03  0.47724048994E+03  0.00000000000E+00 0.  1.
         11    1    4    4    0    0  0.14072174777E+02  0.87328317709E+02  0.31414779239E+03  0.32636344256E+03  0.00000000000E+00 0. -1.
</event>
<event>
 8    1  0.7112384E-009  0.2868114E+03  0.7561462E-02  0.1092026E+00
         -2   -1    0    0    0  501 -0.00000000000E+00  0.00000000000E+00  0.84631160697E+02  0.84631160697E+02  0.00000000000E+00 0.  1.
          2   -1    0    0  501    0  0.00000000000E+00 -0.00000000000E+00 -0.14448169896E+04  0.14448169896E+04  0.00000000000E+00 0. -1.
         25    2    1    2    0    0  0.19499564783E+03  0.19899695115E+03 -0.29506561712E+03  0.42465882707E+03  0.12509321229E+03 0.  0.
         23    2    1    2    0    0 -0.19499564783E+03 -0.19899695115E+03 -0.10651202117E+04  0.11047893232E+04  0.91952672169E+02 0.  0.
          5    1    3    3  502    0  0.11965887661E+03  0.68479718817E+02 -0.72457422953E+02  0.15580522835E+03  0.41800000000E+01 0. -1.
         -5    1    3    3    0  502  0.75336771226E+02  0.13051723233E+03 -0.22260819417E+03  0.26885359872E+03  0.41800000000E+01 0. -1.
        -11    1    4    4    0    0 -0.75830713196E+02 -0.12003488278E+03 -0.66252779148E+03  0.67757047208E+03  0.00000000000E+00 0. -1.
         11    1    4    4    0    0 -0.11916493464E+03 -0.78962068366E+02 -0.40259242027E+03  0.42721885111E+03  0.00000000000E+00 0.  1.
</event>
<event>
 8    1  0.7112384E-009  0.1040853E+03  0.7561462E-02  0.1271932E+00
          2   -1    0    0  501    0  0.00000000000E+00  0.00000000000E+00  0.46397685326E+03  0.46397685326E+03  0.00000000000E+00 0. -1.
         -2   -1    0    0    0  501 -0.00000000000E+00 -0.00000000000E+00 -0.35802676892E+02  0.35802676892E+02  0.00000000000E+00 0.  1.
         25    2    1    2    0    0 -0.32309003559E+02  0.26518855825E+02  0.12876380410E+03  0.18432275169E+03  0.12509051971E+03 0.  0.
         23    2    1    2    0    0  0.32309003559E+02 -0.26518855825E+02  0.29941037227E+03  0.31545677846E+03  0.90107084226E+02 0.  0.
          5    1    3    3  502    0 -0.13289712014E+02 -0.38548777411E+02  0.10441317290E+03  0.11217044067E+03  0.41800000000E+01 0. -1.
         -5    1    3    3    0  502 -0.19019291545E+02  0.65067633236E+02  0.24350631193E+02  0.72152311018E+02  0.41800000000E+01 0. -1.
        -11    1    4    4    0    0  0.58033096737E+02 -0.39743982828E+02  0.21735399373E+03  0.22845170841E+03  0.00000000000E+00 0. -1.
         11    1    4    4    0    0 -0.25724093178E+02  0.13225127003E+02  0.82056378547E+02  0.87005070049E+02  0.00000000000E+00 0.  1.
</event>
<event>
 8    1  0.7112384E-009  0.1038863E+03  0.7561462E-02  0.1272330E+00
         -3   -1    0    0    0  501 -0.00000000000E+00  0.00000000000E+00  0.51122321053E+03  0.51122321053E+03  0.00000000000E+00 0.  1.
          3   -1    0    0  501    0  0.00000000000E+00 -0.00000000000E+00 -0.32261615932E+02  0.32261615932E+02  0.00000000000E+00 0. -1.
         25    2    1    2    0    0  0.15828730128E+02  0.34398033767E+02  0.14452573281E+03  0.19486108427E+03  0.12509748716E+03 0.  0.
         23    2    1    2    0    0 -0.15828730128E+02 -0.34398033767E+02  0.33443586178E+03  0.34862374219E+03  0.90870207157E+02 0.  0.
          5    1    3    3  502    0 -0.54341697893E+02  0.19082057903E+02  0.52442410650E+02  0.78005281222E+02  0.41800000000E+01 0.  1.
         -5    1    3    3    0  502  0.70170428021E+02  0.15315975864E+02  0.92083322164E+02  0.11685580305E+03  0.41800000000E+01 0.  1.
        -11    1    4    4    0    0  0.19039992994E+02  0.10097732782E+02  0.20862453779E+02  0.29995458293E+02  0.00000000000E+00 0. -1.
         11    1    4    4    0    0 -0.34868723122E+02 -0.44495766549E+02  0.31357340800E+03  0.31862828389E+03  0.00000000000E+00 0.  1.
</event>
<event>
 8    1  0.7112384E-009  0.1060088E+03  0.7561462E-02  0.1268145E+00
         -1   -1    0    0    0  501 -0.00000000000E+00  0.00000000000E+00  0.60491887531E+03  0.60491887531E+03  0.00000000000E+00 0.  1.
          1   -1    0    0  501    0  0.00000000000E+00 -0.00000000000E+00 -0.24188395602E+02  0.24188395602E+02  0.00000000000E+00 0. -1.
         25    2    1    2    0    0  0.37242666441E+02  0.38799627636E+02  0.32574468505E+03  0.35305769113E+03  0.12509079150E+03 0.  0.
         23    2    1    2    0    0 -0.37242666441E+02 -0.38799627636E+02  0.25498579466E+03  0.27604957978E+03  0.91066940832E+02 0.  0.
          5    1    3    3  502    0  0.17636673475E+02  0.71199555701E+02  0.99822020597E+02  0.12394489574E+03  0.41800000000E+01 0. -1.
         -5    1    3    3    0  502  0.19605992965E+02 -0.32399928064E+02  0.22592266446E+03  0.22911279540E+03  0.41800000000E+01 0. -1.
        -11    1    4    4    0    0 -0.30396691556E+02  0.23094909654E+02  0.57835924177E+02  0.69298829967E+02  0.00000000000E+00 0. -1.
         11    1    4    4    0    0 -0.68459748853E+01 -0.61894537290E+02  0.19714987048E+03  0.20675074982E+03  0.00000000000E+00 0.  1.
</event>
<event>
 8    1  0.7112384E-009  0.9103178E+02  0.7561462E-02  0.1300372E+00
          2   -1    0    0  501    0  0.00000000000E+00  0.00000000000E+00  0.11695557585E+03  0.11695557585E+03  0.00000000000E+00 0. -1.
         -2   -1    0    0    0  501 -0.00000000000E+00 -0.00000000000E+00 -0.12189740577E+03  0.12189740577E+03  0.00000000000E+00 0.  1.
         25    2    1    2    0    0 -0.42684326000E+02  0.23664470372E+02  0.14049988296E+02  0.13500770840E+03  0.12509084823E+03 0.  0.
         23    2    1    2    0    0  0.42684326000E+02 -0.23664470372E+02 -0.18991818221E+02  0.10384527322E+03  0.89672698000E+02 0.  0.
          5    1    3    3  502    0 -0.56216968062E+02 -0.38632567497E+02  0.18993584903E+02  0.70929905096E+02  0.41800000000E+01 0.  1.
         -5    1    3    3    0  502  0.13532642062E+02  0.62297037869E+02 -0.49435966065E+01  0.64077803301E+02  0.41800000000E+01 0.  1.
        -11    1    4    4    0    0  0.15692974600E+02 -0.33275939002E+01  0.35935717478E+02  0.39353756157E+02  0.00000000000E+00 0. -1.
         11    1    4    4    0    0  0.26991351400E+02 -0.20336876471E+02 -0.54927535699E+02  0.64491517062E+02  0.00000000000E+00 0.  1.
</event>
<event>
 8    1  0.7112384E-009  0.9076309E+02  0.7561462E-02  0.1301014E+00
         -1   -1    0    0    0  501 -0.00000000000E+00  0.00000000000E+00  0.28037654124E+02  0.28037654124E+02  0.00000000000E+00 0.  1.
          1   -1    0    0  501    0  0.00000000000E+00 -0.00000000000E+00 -0.46771690967E+03  0.46771690967E+03  0.00000000000E+00 0. -1.
         25    2    1    2    0    0  0.36378031883E+02  0.36359668932E+01 -0.27969094186E+03  0.30856278138E+03  0.12508951048E+03 0.  0.
         23    2    1    2    0    0 -0.36378031883E+02 -0.36359668932E+01 -0.15998831368E+03  0.18719178241E+03  0.90043997194E+02 0.  0.
          5    1    3    3  502    0 -0.11815716035E+02  0.55067690901E+02 -0.91073911584E+02  0.10716338693E+03  0.41800000000E+01 0.  1.
         -5    1    3    3    0  502  0.48193747918E+02 -0.51431724008E+02 -0.18861703028E+03  0.20139939445E+03  0.41800000000E+01 0.  1.
        -11    1    4    4    0    0 -0.17886009887E+02 -0.22019397701E+02 -0.15855995816E+03  0.16107769416E+03  0.00000000000E+00 0. -1.
         11    1    4    4    0    0 -0.18492021996E+02  0.18383430808E+02 -0.14283555190E+01  0.26114088253E+02  0.00000000000E+00 0.  1.
</event>
<event>
 8    1  0.7112384E-009  0.8658888E+02  0.7561462E-02  0.1311329E+00
          2   -1    0    0  501    0  0.00000000000E+00  0.00000000000E+00  0.45907475903E+03  0.45907475903E+03  0.00000000000E+00 0. -1.
         -2   -1    0    0    0  501 -0.00000000000E+00 -0.00000000000E+00 -0.32818314157E+02  0.32818314157E+02  0.00000000000E+00 0.  1.
         25    2    1    2    0    0  0.50818134305E+02 -0.22192617995E+02  0.26240168153E+03  0.29593502923E+03  0.12509158239E+03 0.  0.
         23    2    1    2    0    0 -0.50818134305E+02  0.22192617995E+02  0.16385476334E+03  0.19595804396E+03  0.92066152608E+02 0.  0.
          5    1    3    3  502    0  0.46067760414E+02 -0.56661148824E+02  0.24709436637E+03  0.25769327237E+03  0.41800000000E+01 0. -1.
         -5    1    3    3    0  502  0.47503738915E+01  0.34468530829E+02  0.15307315165E+02  0.38241756853E+02  0.41800000000E+01 0. -1.
        -11    1    4    4    0    0 -0.14490440976E+02  0.24632645576E+02  0.48766552544E+00  0.28582825707E+02  0.00000000000E+00 0.  1.
         11    1    4    4    0    0 -0.36327693329E+02 -0.24400275812E+01  0.16336709781E+03  0.16737521825E+03  0.00000000000E+00 0. -1.
</event>
<event>
 8    1  0.7112384E-009  0.1195598E+03  0.7561462E-02  0.1243825E+00
         -2   -1    0    0    0  501 -0.00000000000E+00  0.00000000000E+00  0.28142667290E+02  0.28142667290E+02  0.00000000000E+00 0.  1.
          2   -1    0    0  501    0  0.00000000000E+00 -0.00000000000E+00 -0.11848114241E+04  0.11848114241E+04  0.00000000000E+00 0. -1.
         25    2    1    2    0    0  0.60428184971E+02  0.60464893096E+02 -0.10202419702E+04  0.10314298153E+04  0.12508484089E+03 0.  0.
         23    2    1    2    0    0 -0.60428184971E+02 -0.60464893096E+02 -0.13642678664E+03  0.18152427606E+03  0.83852405149E+02 0.  0.
          5    1    3    3  502    0  0.80712582451E+02 -0.68093204515E+01 -0.54091704369E+03  0.54696399183E+03  0.41800000000E+01 0. -1.
         -5    1    3    3    0  502 -0.20284397480E+02  0.67274213548E+02 -0.47932492650E+03  0.48446582351E+03  0.41800000000E+01 0. -1.
        -11    1    4    4    0    0 -0.79779267019E+01 -0.19505864363E+02 -0.10648511752E+03  0.10855047818E+03  0.00000000000E+00 0. -1.
         11    1    4    4    0    0 -0.52450258269E+02 -0.40959028734E+02 -0.29941669116E+02  0.72973797878E+02  0.00000000000E+00 0.  1.
</event>
<event>
 8    1  0.7112384E-009  0.1089926E+03  0.7561462E-02  0.1262447E+00
         -1   -1    0    0    0  501 -0.00000000000E+00  0.00000000000E+00  0.88493216156E+02  0.88493216156E+02  0.00000000000E+00 0.  1.
          1   -1    0    0  501    0  0.00000000000E+00 -0.00000000000E+00 -0.39909100451E+03  0.39909100451E+03  0.00000000000E+00 0. -1.
         25    2    1    2    0    0 -0.79731413771E+02 -0.11689722241E+02 -0.33041358101E+03  0.36237365266E+03  0.12509109351E+03 0.  0.
         23    2    1    2    0    0  0.79731413771E+02  0.11689722241E+02  0.19815792663E+02  0.12521056800E+03  0.93761787273E+02 0.  0.
          5    1    3    3  502    0  0.10651456073E+02 -0.34400644988E+02 -0.19242789220E+03  0.19581323753E+03  0.41800000000E+01 0. -1.
         -5    1    3    3    0  502 -0.90382869844E+02  0.22710922747E+02 -0.13798568881E+03  0.16656041513E+03  0.41800000000E+01 0. -1.
        -11    1    4    4    0    0  0.29961370160E+02  0.22555991002E+02  0.52622221885E+02  0.64618531924E+02  0.00000000000E+00 0.  1.
         11    1    4    4    0    0  0.49770043611E+02 -0.10866268761E+02 -0.32806429222E+02  0.60592036079E+02  0.00000000000E+00 0. -1.
</event>
<event>
 8    1  0.7112384E-009  0.8315135E+02  0.7561462E-02  0.1320339E+00
          2   -1    0    0  501    0  0.00000000000E+00  0.00000000000E+00  0.50774366991E+03  0.50774366991E+03  0.00000000000E+00 0. -1.
         -2   -1    0    0    0  501 -0.00000000000E+00 -0.00000000000E+00 -0.25166079655E+02  0.25166079655E+02  0.00000000000E+00 0.  1.
         25    2    1    2    0    0 -0.20932202664E+02 -0.13733784596E+02  0.34162738051E+03  0.36466709647E+03  0.12508417239E+03 0.  0.
         23    2    1    2    0    0  0.20932202664E+02  0.13733784596E+02  0.14095020975E+03  0.16824265310E+03  0.88384697470E+02 0.  0.
          5    1    3    3  502    0  0.18270774848E+02 -0.26983295552E+02  0.16269998813E+02  0.36662033683E+02  0.41800000000E+01 0. -1.
         -5    1    3    3    0  502 -0.39202977513E+02  0.13249510957E+02  0.32535738170E+03  0.32800506279E+03  0.41800000000E+01 0. -1.
        -11    1    4    4    0    0 -0.34937125661E+02  0.61655856433E+01  0.53550730701E+02  0.64236266660E+02  0.00000000000E+00 0.  1.
         11    1    4    4    0    0  0.55869328325E+02  0.75681989525E+01  0.87399479044E+02  0.10400638644E+03  0.00000000000E+00 0. -1.
</event>
<event>
 8    1  0.7112384E-009  0.1630172E+03  0.7561462E-02  0.1185332E+00
          2   -1    0    0  501    0  0.00000000000E+00  0.00000000000E+00  0.12131326239E+04  0.12131326239E+04  0.00000000000E+00 0. -1.
         -2   -1    0    0    0  501 -0.00000000000E+00 -0.00000000000E+00 -0.27457889031E+02  0.27457889031E+02  0.00000000000E+00 0.  1.
         25    2    1    2    0    0  0.28004072880E+02  0.12996495105E+03  0.82451994023E+03  0.84448800730E+03  0.12510693842E+03 0.  0.
         23    2    1    2    0    0 -0.28004072880E+02 -0.12996495105E+03  0.36115479463E+03  0.39610250562E+03  0.93751227599E+02 0.  0.
          5    1    3    3  502    0  0.77497345046E+02  0.75607332413E+02  0.52324093800E+03  0.53434151888E+03  0.41800000000E+01 0. -1.
         -5    1    3    3    0  502 -0.49493272166E+02  0.54357618633E+02  0.30127900223E+03  0.31014648842E+03  0.41800000000E+01 0. -1.
        -11    1    4    4    0    0  0.16841182543E+02 -0.43547711746E+02  0.21822037595E+03  0.22315949702E+03  0.00000000000E+00 0. -1.
         11    1    4    4    0    0 -0.44845255423E+02 -0.86417239300E+02  0.14293441867E+03  0.17294300860E+03  0.00000000000E+00 0.  1.
</event>
